<LesHouchesEvents version="3.0">
  <!--
  <scalesfunctionalform>
    muR  H_T/2 := sum_i mT(i)/2, i=final state
    muF1 H_T/2 := sum_i mT(i)/2, i=final state
    muF2 H_T/2 := sum_i mT(i)/2, i=final state
    QES  H_T/2 := sum_i mT(i)/2, i=final state
  </scalesfunctionalform>
HERWIG6   
  -->
  <header>
      430
  </header>
  <init>
   2212   2212 0.65000000D+04 0.65000000D+04 -1 -1   244800   244800 -4   1
 0.39024910D-03 0.23863944D-04 0.17698235D-05     66
  </init>
  <event>
  6     66 0.17698235E-05 0.10200854E+03 0.75467711E-02 0.92999176E-01
        1 -1    0    0  501    0 0.00000000E+00 0.00000000E+00 0.15935720E+04 0.15935721E+04 0.32000000E+00 0.0000E+00 0.9000E+01
        2 -1    0    0  502    0 0.00000000E+00 0.00000000E+00 -.67492942E+03 0.67492950E+03 0.32000000E+00 0.0000E+00 0.9000E+01
       25  1    1    2    0    0 -.48798337E+03 -.24612066E+03 -.25390124E+03 0.61546242E+03 0.12500000E+03 0.0000E+00 0.9000E+01
        1  1    1    2  503    0 0.37992801E+03 0.25123066E+03 0.84216391E+03 0.95744572E+03 0.32000000E+00 0.0000E+00 0.9000E+01
        2  1    1    2  502    0 -.13602023E+02 -.13423238E+02 -.17483170E+03 0.17587332E+03 0.32000000E+00 0.0000E+00 0.9000E+01
       21  1    1    2  501  503 0.12165738E+03 0.83132299E+01 0.50521166E+03 0.51972012E+03 0.75000000E+00 0.0000E+00 0.9000E+01
#aMCatNLO 2  0  0  4  4 0.10301039D+03 0.00000000D+00  -5  6  0 0.00000000D+00 0.00000000D+00 0.00000000D+00 0.00000000D+00 0.00000000D+00
  <mgrwgt>
 0.2746372664D-01    1    2    0
 0.103708668297249D+04 0.000000000000000D+00 0.000000000000000D+00 0.103708668297249D+04
 0.103708668297249D+04 -.000000000000000D+00 -.000000000000000D+00 -.103708668297249D+04
 0.794331889014753D+03 -.492545021380978D+03 -.248479940532972D+03 -.557669499767819D+03
 0.100731989816073D+04 0.507716580712396D+03 0.262716457664908D+03 0.829395752202923D+03
 0.272521578769500D+03 -.151715593314181D+02 -.142365171319358D+02 -.271726252435105D+03
 0.000000000000000D+00 0.000000000000000D+00 0.000000000000000D+00 0.000000000000000D+00
 0.103708668297249D+04 0.000000000000000D+00 0.000000000000000D+00 0.103708668297249D+04
 0.103708668297249D+04 -.000000000000000D+00 -.000000000000000D+00 -.103708668297249D+04
 0.785523192559822D+03 -.487976634685274D+03 -.246116042217390D+03 -.550206673727116D+03
 0.673967449945902D+03 0.379840806878115D+03 0.251200167150705D+03 0.496841585457803D+03
 0.269841956260790D+03 -.136032342447919D+02 -.134249919092470D+02 -.269164267630323D+03
 0.344840767178466D+03 0.121739062051951D+03 0.834086697593287D+01 0.322529355899636D+03
0.666942384515D-02 0.000000000000D+00 0.000000000000D+00 0.115766635142D-04 0.892100394367D-08  6 1 2 25 1 2 21 2 0.24516494D+00 0.10383530D+00 0.33476011D+06 0.33476011D+06 0.33476011D+06 0.10810468D+01  1  2  1  3  6  4        1 0.274637266370D-01 0.100000000000D+01
  </mgrwgt>
  </event>
  <event>
  5     66 -.17698235E-05 0.95802710E+02 0.75467711E-02 0.91294375E-01
        1 -1    0    0  501    0 0.00000000E+00 0.00000000E+00 0.65817934E+03 0.65817942E+03 0.32000000E+00 0.0000E+00 0.9000E+01
        2 -1    0    0  502    0 0.00000000E+00 0.00000000E+00 -.17299345E+04 0.17299345E+04 0.32000000E+00 0.0000E+00 0.9000E+01
       25  1    1    2    0    0 0.33888608E+03 0.45634630E+03 0.15189865E+03 0.60149307E+03 0.12500000E+03 0.0000E+00 0.9000E+01
        1  1    1    2  501    0 0.68053964E+02 0.67513417E+02 0.19680217E+03 0.21890774E+03 0.32000000E+00 0.0000E+00 0.9000E+01
        2  1    1    2  502    0 -.40694004E+03 -.52385971E+03 -.14204560E+04 0.15677131E+04 0.32000000E+00 0.0000E+00 0.9000E+01
#aMCatNLO 1  0  0  1  4 0.14916355D+02 0.00000000D+00  -5  6  0 0.00000000D+00 0.00000000D+00 0.00000000D+00 0.00000000D+00 0.00000000D+00
  <mgrwgt>
 -.5935929155D-02   11    2    0
 0.106705542020845D+04 0.000000000000000D+00 0.000000000000000D+00 0.106705542020845D+04
 0.106705542020845D+04 0.000000000000000D+00 0.000000000000000D+00 -.106705542020845D+04
 0.749567140397949D+03 0.338979135330382D+03 0.456456279771558D+03 0.472193507401504D+03
 0.343586192184682D+03 0.680123156464642D+02 0.674720988467994D+02 0.329959561548961D+03
 0.104095750783428D+04 -.406991450976846D+03 -.523928378618357D+03 -.802153068950465D+03
 0.000000000000000D+00 0.000000000000000D+00 0.000000000000000D+00 0.000000000000000D+00
 0.200818190084582D+04 0.000000000000000D+00 0.000000000000000D+00 0.200818190084582D+04
 0.106714059004371D+04 0.000000000000000D+00 0.000000000000000D+00 -.106714059004371D+04
 0.745755424307743D+03 0.337095166959359D+03 0.451581989083853D+03 0.472193507401504D+03
 0.342983322259407D+03 0.671473014480222D+02 0.652340938372409D+02 0.329959561548961D+03
 0.104542422209813D+04 -.409620099324600D+03 -.530729340014409D+03 -.802153068950465D+03
 0.941159522224251D+03 0.537763091721880D+01 0.139132570933153D+02 0.941041310802111D+03
0.349791674530D-05 0.000000000000D+00 0.000000000000D+00 0.610040187259D-06 0.000000000000D+00  6 1 2 25 1 2 21 0 0.10125837D+00 0.26614378D+00 0.44982041D+06 0.44982041D+06 0.44982041D+06 0.10717718D+01  1  2  2  1  6  1        1 0.143150255433D-04 0.100000000000D+01
0.552663463956D-06 0.000000000000D+00 -.134329213246D-07 0.610040187259D-06 0.000000000000D+00  6 1 2 25 1 2 21 2 0.10125837D+00 0.26614378D+00 0.44982041D+06 0.44982041D+06 0.44982041D+06 0.10717718D+01  1  2  3  1  6  1        1 0.259805315057D-05 0.100000000000D+01
-.251412286006D-05 0.000000000000D+00 0.000000000000D+00 0.610040187259D-06 0.000000000000D+00  6 1 2 25 1 2 21 2 0.10125837D+00 0.26614378D+00 0.44982041D+06 0.44982041D+06 0.44982041D+06 0.10717718D+01  1  2 15  1  6  1        1 -.118188106207D-04 0.100000000000D+01
0.939604638764D-02 0.000000000000D+00 0.000000000000D+00 0.610040187259D-06 0.000000000000D+00  6 1 2 25 1 2 21 2 0.19138507D+00 0.26614378D+00 0.45980245D+06 0.45980245D+06 0.45980245D+06 0.10710924D+01  1  2 12  1  6  1        1 0.147786000031D-01 0.100000000000D+01
0.375939174376D-06 0.000000000000D+00 0.000000000000D+00 0.610040187259D-06 0.000000000000D+00  6 1 2 25 1 2 21 2 0.19056815D+00 0.26614378D+00 0.45980245D+06 0.45980245D+06 0.45980245D+06 0.10710924D+01  1  2 12  1  6  1        1 0.596436185940D-06 0.100000000000D+01
-.906087043785D-02 0.000000000000D+00 0.000000000000D+00 0.610040187259D-06 0.000000000000D+00  6 1 2 25 1 2 21 2 0.10125837D+00 0.26614378D+00 0.44982041D+06 0.44982041D+06 0.44982041D+06 0.10717718D+01  1  2  4  1  6  1        1 -.425948602056D-01 0.100000000000D+01
-.949787824634D-02 0.000000000000D+00 -.224529571491D-05 0.610040187259D-06 0.000000000000D+00  6 1 2 25 1 2 21 2 0.19057097D+00 0.26614378D+00 0.44982041D+06 0.44982041D+06 0.44982041D+06 0.10717718D+01  1  2  5  1  6  1        1 -.151111721012D-01 0.100000000000D+01
0.787254917482D-02 0.000000000000D+00 0.186071488918D-05 0.610040187259D-06 0.000000000000D+00  6 1 2 25 1 2 21 2 0.10125837D+00 0.26614378D+00 0.44982041D+06 0.44982041D+06 0.44982041D+06 0.10717718D+01  1  2  6  1  6  1        1 0.370086002071D-01 0.100000000000D+01
0.650388992941D-03 0.000000000000D+00 0.000000000000D+00 0.610040187259D-06 0.000000000000D+00  6 21 2 25 1 2 -1 2 0.19138507D+00 0.26614378D+00 0.45980245D+06 0.45980245D+06 0.45980245D+06 0.10710924D+01  1  2 12  5  6  1        1 0.100635252174D-02 0.100000000000D+01
0.258625187271D-07 0.000000000000D+00 0.000000000000D+00 0.610040187259D-06 0.000000000000D+00  6 21 2 25 1 2 -1 2 0.19056815D+00 0.26614378D+00 0.45980245D+06 0.45980245D+06 0.45980245D+06 0.10710924D+01  1  2 12  5  6  1        1 0.405950710165D-07 0.100000000000D+01
-.653288183534D-03 0.000000000000D+00 -.154467116278D-06 0.610040187259D-06 0.000000000000D+00  6 21 2 25 1 2 -1 2 0.19057097D+00 0.26614378D+00 0.44982041D+06 0.44982041D+06 0.44982041D+06 0.10717718D+01  1  2  5  5  6  1        1 -.102918087967D-02 0.100000000000D+01
  </mgrwgt>
  </event>
  <event>
  5     66 0.17698235E-05 0.50060080E+02 0.75467711E-02 0.89759542E-01
        1 -1    0    0  501    0 0.00000000E+00 0.00000000E+00 0.19827501E+04 0.19827501E+04 0.32000000E+00 0.0000E+00 0.9000E+01
        2 -1    0    0  502    0 0.00000000E+00 0.00000000E+00 -.24698995E+04 0.24698995E+04 0.32000000E+00 0.0000E+00 0.9000E+01
       25  1    1    2    0    0 -.87645504E+02 0.61904008E+03 -.12727566E+04 0.14235261E+04 0.12500000E+03 0.0000E+00 0.9000E+01
        1  1    1    2  501    0 0.92285992E+02 -.56919410E+03 0.18631900E+04 0.19503784E+04 0.32000000E+00 0.0000E+00 0.9000E+01
        2  1    1    2  502    0 -.46404871E+01 -.49845983E+02 -.10775828E+04 0.10787451E+04 0.32000000E+00 0.0000E+00 0.9000E+01
#aMCatNLO 1  0  0  1  4 0.12777081D+02 0.00000000D+00  -5  6  0 0.00000000D+00 0.00000000D+00 0.00000000D+00 0.00000000D+00 0.00000000D+00
  <mgrwgt>
 0.1246958817D-01    7    2    0
 0.221296035851823D+04 0.000000000000000D+00 0.000000000000000D+00 0.221296035851823D+04
 0.221296035851823D+04 0.000000000000000D+00 0.000000000000000D+00 -.221296035851823D+04
 0.129206370500755D+04 -.876457520307750D+02 0.619039305317485D+03 -.112379365473420D+04
 0.216723594601955D+04 0.922860989189867D+02 -.569194759143405D+03 0.208911757635353D+04
 0.966621066009364D+03 -.464034688821170D+01 -.498445461740807D+02 -.965323921619338D+03
 0.000000000000000D+00 -.000000000000000D+00 0.000000000000000D+00 0.000000000000000D+00
 0.334280581773385D+04 0.000000000000000D+00 0.000000000000000D+00 0.334280581773385D+04
 0.222679997679016D+04 0.000000000000000D+00 0.000000000000000D+00 -.222679997679016D+04
 0.126691695116580D+04 -.463878723774774D+02 0.569552059101443D+03 -.112379365473420D+04
 0.219499202265300D+04 0.162617336522351D+03 -.653554384533860D+03 0.208911757635353D+04
 0.969626729426272D+03 0.265773484586947D+02 -.872889759148195D+02 -.965323921619338D+03
 0.113807009127893D+04 -.142806812603568D+03 0.171291301347236D+03 0.111600584094368D+04
0.619105178366D-02 0.000000000000D+00 0.000000000000D+00 0.241826305989D-03 0.000000000000D+00  6 1 2 25 1 2 21 0 0.30503848D+00 0.37998454D+00 0.39959725D+06 0.39959725D+06 0.39959725D+06 0.10754592D+01  1  2  2  1  6  1        1 0.105005786832D-02 0.100000000000D+01
0.217601564169D-02 0.000000000000D+00 -.237752689906D-04 0.241826305989D-03 0.000000000000D+00  6 1 2 25 1 2 21 2 0.30503848D+00 0.37998454D+00 0.39959725D+06 0.39959725D+06 0.39959725D+06 0.10754592D+01  1  2  3  1  6  1        1 0.426872972015D-03 0.100000000000D+01
-.443983777818D-02 0.000000000000D+00 0.000000000000D+00 0.241826305989D-03 0.000000000000D+00  6 1 2 25 1 2 21 2 0.30503848D+00 0.37998454D+00 0.39959725D+06 0.39959725D+06 0.39959725D+06 0.10754592D+01  1  2 15  1  6  1        1 -.870971104861D-03 0.100000000000D+01
-.326161740278D-01 0.000000000000D+00 0.000000000000D+00 0.241826305989D-03 0.000000000000D+00  6 1 2 25 1 2 21 2 0.30503848D+00 0.37998454D+00 0.39959725D+06 0.39959725D+06 0.39959725D+06 0.10754592D+01  1  2  4  1  6  1        1 -.639837456877D-02 0.100000000000D+01
-.126303154237D+00 0.000000000000D+00 -.382760732532D-02 0.241826305989D-03 0.000000000000D+00  6 1 2 25 1 2 21 2 0.46140603D+00 0.37998454D+00 0.39959725D+06 0.39959725D+06 0.39959725D+06 0.10754592D+01  1  2  5  1  6  1        1 -.482581884589D-02 0.100000000000D+01
0.117947980432D+00 0.000000000000D+00 0.352170788221D-02 0.241826305989D-03 0.000000000000D+00  6 1 2 25 1 2 21 2 0.30503848D+00 0.37998454D+00 0.39959725D+06 0.39959725D+06 0.39959725D+06 0.10754592D+01  1  2  6  1  6  1        1 0.231380712461D-01 0.100000000000D+01
-.602781652763D-02 0.000000000000D+00 -.186816525018D-03 0.241826305989D-03 0.000000000000D+00  6 21 2 25 1 2 -1 2 0.46140603D+00 0.37998454D+00 0.39959725D+06 0.39959725D+06 0.39959725D+06 0.10754592D+01  1  2  5  5  6  1        1 -.502493980135D-04 0.100000000000D+01
  </mgrwgt>
  </event>
  <event>
  5     66 0.17698235E-05 0.22883366E+02 0.75467711E-02 0.87128455E-01
        1 -1    0    0  501    0 0.00000000E+00 0.00000000E+00 0.74306468E+03 0.74306474E+03 0.32000000E+00 0.0000E+00 0.9000E+01
        2 -1    0    0  502    0 0.00000000E+00 0.00000000E+00 -.29914173E+04 0.29914173E+04 0.32000000E+00 0.0000E+00 0.9000E+01
       25  1    1    2    0    0 -.39870461E+03 0.38644261E+03 -.36107008E+03 0.67401770E+03 0.12500000E+03 0.0000E+00 0.9000E+01
        1  1    1    2  501    0 0.41679422E+03 -.40045433E+03 0.44413860E+03 0.72893092E+03 0.32000000E+00 0.0000E+00 0.9000E+01
        2  1    1    2  502    0 -.18089608E+02 0.14011723E+02 -.23314211E+04 0.23315334E+04 0.32000000E+00 0.0000E+00 0.9000E+01
#aMCatNLO 1  0  0  1  5 0.41316329D+02 0.00000000D+00  -5  6  0 0.00000000D+00 0.00000000D+00 0.00000000D+00 0.00000000D+00 0.00000000D+00
  <mgrwgt>
 0.3441429559D-01    7    2    0
 0.149091135789822D+04 0.000000000000000D+00 0.000000000000000D+00 0.149091135789822D+04
 0.149091135789822D+04 0.000000000000000D+00 0.000000000000000D+00 -.149091135789822D+04
 0.571885157174229D+03 -.398689617915247D+03 0.386428484549258D+03 0.561003377151210D+02
 0.124777335649758D+04 0.416780718168671D+03 -.400441354332286D+03 0.110583855236132D+04
 0.116216420212464D+04 -.180911002534237D+02 0.140128697830281D+02 -.116193889007644D+04
 0.000000000000000D+00 0.000000000000000D+00 -.000000000000000D+00 0.000000000000000D+00
 0.190552178872313D+04 0.000000000000000D+00 0.000000000000000D+00 0.190552178872313D+04
 0.187931385048081D+04 0.000000000000000D+00 0.000000000000000D+00 -.187931385048081D+04
 0.715155102876460D+03 -.535938430068996D+03 0.453259939166996D+03 0.561003377151210D+02
 0.115104327137612D+04 0.160973077203843D+03 -.275879279952652D+03 0.110583855236132D+04
 0.120071956899052D+04 -.270066893792433D+03 0.136709077833314D+03 -.116193889007644D+04
 0.717917695960835D+03 0.645032246657586D+03 -.314089737047659D+03 0.262079382423155D+02
0.337711290923D-01 0.000000000000D+00 0.000000000000D+00 0.121348410127D-03 0.000000000000D+00  6 1 2 25 1 2 21 0 0.11431765D+00 0.46021805D+00 0.34221856D+06 0.34221856D+06 0.34221856D+06 0.10803465D+01  1  2  2  1  6  1        1 0.219049326159D-01 0.100000000000D+01
0.293555208614D-01 0.000000000000D+00 -.129690027857D-03 0.121348410127D-03 0.000000000000D+00  6 1 2 25 1 2 21 2 0.11431765D+00 0.46021805D+00 0.34221856D+06 0.34221856D+06 0.34221856D+06 0.10803465D+01  1  2  3  1  6  1        1 0.222234884341D-01 0.100000000000D+01
-.208043033346D-01 0.000000000000D+00 0.000000000000D+00 0.121348410127D-03 0.000000000000D+00  6 1 2 25 1 2 21 2 0.11431765D+00 0.46021805D+00 0.34221856D+06 0.34221856D+06 0.34221856D+06 0.10803465D+01  1  2 15  1  6  1        1 -.157498208503D-01 0.100000000000D+01
-.674583549869D-03 0.000000000000D+00 0.000000000000D+00 0.121348410127D-03 0.000000000000D+00  6 1 2 25 1 2 21 2 0.11431765D+00 0.46021805D+00 0.34221856D+06 0.34221856D+06 0.34221856D+06 0.10803465D+01  1  2  4  1  6  1        1 -.510690980041D-03 0.100000000000D+01
0.110929352157D-01 0.000000000000D+00 -.226949778874D-01 0.121348410127D-03 0.000000000000D+00  6 1 2 25 1 2 21 2 0.19772818D+00 0.46021805D+00 0.34221856D+06 0.34221856D+06 0.34221856D+06 0.10803465D+01  1  2  5  1  6  1        1 0.318674893178D-02 0.100000000000D+01
0.378611311252D-02 0.000000000000D+00 0.196681155947D-01 0.121348410127D-03 0.000000000000D+00  6 1 2 25 1 2 21 2 0.11431765D+00 0.46021805D+00 0.34221856D+06 0.34221856D+06 0.34221856D+06 0.10803465D+01  1  2  6  1  6  1        1 0.286626292082D-02 0.100000000000D+01
0.180234180924D-02 0.000000000000D+00 -.137824129199D-02 0.121348410127D-03 0.000000000000D+00  6 21 2 25 1 2 -1 2 0.19772818D+00 0.46021805D+00 0.34221856D+06 0.34221856D+06 0.34221856D+06 0.10803465D+01  1  2  5  5  6  1        1 0.493374515603D-03 0.100000000000D+01
  </mgrwgt>
  </event>
  <event>
  5     66 -.17698235E-05 0.19982790E+03 0.75467711E-02 0.94179692E-01
        1 -1    0    0  501    0 0.00000000E+00 0.00000000E+00 0.17829146E+04 0.17829147E+04 0.32000000E+00 0.0000E+00 0.9000E+01
        2 -1    0    0  502    0 0.00000000E+00 0.00000000E+00 -.17050367E+04 0.17050367E+04 0.32000000E+00 0.0000E+00 0.9000E+01
       25  1    1    2    0    0 -.30346634E+03 0.40544509E+03 0.49940162E+03 0.72215270E+03 0.12500000E+03 0.0000E+00 0.9000E+01
        1  1    1    2  501    0 0.73335007E+02 -.18590425E+03 0.11475463E+04 0.11648180E+04 0.32000000E+00 0.0000E+00 0.9000E+01
        2  1    1    2  502    0 0.23013133E+03 -.21954084E+03 -.15690699E+04 0.16009807E+04 0.32000000E+00 0.0000E+00 0.9000E+01
#aMCatNLO 1  0  0  4  1 0.18209809D+02 0.00000000D+00  -5  6  0 0.00000000D+00 0.00000000D+00 0.00000000D+00 0.00000000D+00 0.00000000D+00
  <mgrwgt>
 -.2472391906D-01    8    2    0
 0.174354091306857D+04 0.000000000000000D+00 0.000000000000000D+00 0.174354091306857D+04
 0.174354091306857D+04 -.000000000000000D+00 -.000000000000000D+00 -.174354091306857D+04
 0.711264590433116D+03 -.303479824903350D+03 0.405447988339447D+03 0.483512401321947D+03
 0.113937685749230D+04 0.733283738885566D+02 -.185887431841718D+03 0.112171673592542D+04
 0.163644037821173D+04 0.230151451014793D+03 -.219560556497730D+03 -.160522913724737D+04
 0.000000000000000D+00 0.000000000000000D+00 0.000000000000000D+00 0.000000000000000D+00
 0.174354091306857D+04 0.000000000000000D+00 0.000000000000000D+00 0.174354091306857D+04
 0.174354091306857D+04 -.000000000000000D+00 -.000000000000000D+00 -.174354091306857D+04
 0.711355136879033D+03 -.303469207903405D+03 0.405421074244003D+03 0.483674811394502D+03
 0.871177024340261D+03 0.561665039704460D+02 -.160063317889383D+03 0.854502466840402D+03
 0.163608565054550D+04 0.230175873851058D+03 -.219622468389005D+03 -.160485553692427D+04
 0.268464014372359D+03 0.171268300819009D+02 -.257352879656158D+02 0.266678258689371D+03
0.820301532942D-04 0.000000000000D+00 0.000000000000D+00 0.490683968363D-04 0.000000000000D+00  6 1 2 25 1 2 21 0 0.27429456D+00 0.26231334D+00 0.27016868D+06 0.27016868D+06 0.27016868D+06 0.10879333D+01  1  2  2  3  6  4        1 0.522040099671D-04 0.100000000000D+01
0.933252867401D-05 0.000000000000D+00 -.315017387685D-06 0.490683968363D-04 0.000000000000D+00  6 1 2 25 1 2 21 2 0.27429456D+00 0.26231334D+00 0.27016868D+06 0.27016868D+06 0.27016868D+06 0.10879333D+01  1  2  3  3  6  4        1 0.702965781892D-05 0.100000000000D+01
-.534920426066D-04 0.000000000000D+00 0.000000000000D+00 0.490683968363D-04 0.000000000000D+00  6 1 2 25 1 2 21 2 0.27429456D+00 0.26231334D+00 0.27016868D+06 0.27016868D+06 0.27016868D+06 0.10879333D+01  1  2 15  3  6  4        1 -.402924832802D-04 0.100000000000D+01
0.178472875204D-01 0.000000000000D+00 0.000000000000D+00 0.490683968363D-04 0.000000000000D+00  6 1 2 25 1 2 21 2 0.27429456D+00 0.26231334D+00 0.27055893D+06 0.27055893D+06 0.27055893D+06 0.10878864D+01  1  2 12  3  6  4        1 0.134404963884D-01 0.100000000000D+01
0.540530680850D-09 0.000000000000D+00 0.000000000000D+00 0.490683968363D-04 0.000000000000D+00  6 1 2 25 1 2 21 2 0.27429456D+00 0.26231334D+00 0.27055893D+06 0.27055893D+06 0.27055893D+06 0.10878864D+01  1  2 12  3  6  4        1 0.407064695712D-09 0.100000000000D+01
-.557155524751D-01 0.000000000000D+00 0.000000000000D+00 0.490683968363D-04 0.000000000000D+00  6 1 2 25 1 2 21 2 0.27429456D+00 0.26231334D+00 0.27016868D+06 0.27016868D+06 0.27016868D+06 0.10879333D+01  1  2  4  3  6  4        1 -.419673255527D-01 0.100000000000D+01
-.191439827377D-01 0.000000000000D+00 0.000000000000D+00 0.490683968363D-04 0.000000000000D+00  6 1 2 25 1 2 21 2 0.27429456D+00 0.26231334D+00 0.27016868D+06 0.27016868D+06 0.27016868D+06 0.10879333D+01  1  2  5  3  6  4        1 -.144200626259D-01 0.100000000000D+01
0.241675550831D-01 0.000000000000D+00 -.000000000000D+00 0.490683968363D-04 0.000000000000D+00  6 1 2 25 1 2 21 2 0.27429456D+00 0.26231334D+00 0.27016868D+06 0.27016868D+06 0.27016868D+06 0.10879333D+01  1  2  6  3  6  4        1 0.182040311355D-01 0.100000000000D+01
  </mgrwgt>
  </event>
  <event>
  5     66 -.17698235E-05 0.47707015E+02 0.75467711E-02 0.90678034E-01
        1 -1    0    0  501    0 0.00000000E+00 0.00000000E+00 0.14994489E+04 0.14994489E+04 0.32000000E+00 0.0000E+00 0.9000E+01
        2 -1    0    0  502    0 -.00000000E+00 -.00000000E+00 -.17421594E+04 0.17421594E+04 0.32000000E+00 0.0000E+00 0.9000E+01
       25  1    1    2    0    0 0.64542606E+03 -.28899101E+03 -.25585795E+03 0.76235090E+03 0.12500000E+03 0.0000E+00 0.9000E+01
        1  1    1    2  501    0 -.62124235E+03 0.24787202E+03 0.11559198E+04 0.13354899E+04 0.32000000E+00 0.0000E+00 0.9000E+01
        2  1    1    2  502    0 -.24183712E+02 0.41118991E+02 -.11427723E+04 0.11437675E+04 0.32000000E+00 0.0000E+00 0.9000E+01
#aMCatNLO 1  0  0  4  1 0.18209809D+02 0.00000000D+00  -5  6  0 0.00000000D+00 0.00000000D+00 0.00000000D+00 0.00000000D+00 0.00000000D+00
  <mgrwgt>
 -.3113983286D-02    6    2    0
 0.161625463331483D+04 0.000000000000000D+00 0.000000000000000D+00 0.161625463331483D+04
 0.161625463331483D+04 -.000000000000000D+00 -.000000000000000D+00 -.161625463331483D+04
 0.745255707724711D+03 0.645416488836801D+03 -.288989429456393D+03 -.199257962190485D+03
 0.142601412523508D+04 -.621230901496135D+03 0.247867456839196D+03 0.125942454170003D+04
 0.106123943366986D+04 -.241855873406658D+02 0.411219726171967D+02 -.106016657950955D+04
 0.000000000000000D+00 0.000000000000000D+00 0.000000000000000D+00 0.000000000000000D+00
 0.161625463331483D+04 0.000000000000000D+00 0.000000000000000D+00 0.161625463331483D+04
 0.161625463331483D+04 -.000000000000000D+00 -.000000000000000D+00 -.161625463331483D+04
 0.743638703128617D+03 0.644380492644024D+03 -.288576073100519D+03 -.197157681880621D+03
 0.104283211018862D+04 -.495303434623678D+03 0.235584401150938D+03 0.886946056772784D+03
 0.105831032414470D+04 -.256604034616016D+02 0.417104155300032D+02 -.105717667734479D+04
 0.387728129167715D+03 -.123416654558744D+03 0.112812564195775D+02 0.367388302452623D+03
0.756037287823D-04 0.000000000000D+00 0.000000000000D+00 0.532161739667D-04 0.000000000000D+00  6 1 2 25 1 2 21 0 0.23068445D+00 0.26802452D+00 0.51458063D+06 0.51458063D+06 0.51458063D+06 0.10676293D+01  1  2  2  3  6  4        1 0.674017197623D-04 0.100000000000D+01
0.427424178204D-04 0.000000000000D+00 -.290338225443D-06 0.532161739667D-04 0.000000000000D+00  6 1 2 25 1 2 21 2 0.23068445D+00 0.26802452D+00 0.51458063D+06 0.51458063D+06 0.51458063D+06 0.10676293D+01  1  2  3  3  6  4        1 0.434337949031D-04 0.100000000000D+01
-.509603533692D-04 0.000000000000D+00 0.000000000000D+00 0.532161739667D-04 0.000000000000D+00  6 1 2 25 1 2 21 2 0.23068445D+00 0.26802452D+00 0.51458063D+06 0.51458063D+06 0.51458063D+06 0.10676293D+01  1  2 15  3  6  4        1 -.517846591114D-04 0.100000000000D+01
-.361399258290D-02 0.000000000000D+00 0.000000000000D+00 0.532161739667D-04 0.000000000000D+00  6 1 2 25 1 2 21 2 0.23068445D+00 0.26802452D+00 0.51458063D+06 0.51458063D+06 0.51458063D+06 0.10676293D+01  1  2  4  3  6  4        1 -.367245047500D-02 0.100000000000D+01
-.160048090958D-02 0.000000000000D+00 0.000000000000D+00 0.532161739667D-04 0.000000000000D+00  6 1 2 25 1 2 21 2 0.23068445D+00 0.26802452D+00 0.51458063D+06 0.51458063D+06 0.51458063D+06 0.10676293D+01  1  2  5  3  6  4        1 -.162636938006D-02 0.100000000000D+01
0.209194755719D-02 0.000000000000D+00 -.000000000000D+00 0.532161739667D-04 0.000000000000D+00  6 1 2 25 1 2 21 2 0.23068445D+00 0.26802452D+00 0.51458063D+06 0.51458063D+06 0.51458063D+06 0.10676293D+01  1  2  6  3  6  4        1 0.212578571312D-02 0.100000000000D+01
  </mgrwgt>
  </event>
  <event>
  5     66 0.17698235E-05 0.47536783E+02 0.75467711E-02 0.90192747E-01
        1 -1    0    0  501    0 0.00000000E+00 0.00000000E+00 0.42048220E+03 0.42048232E+03 0.32000000E+00 0.0000E+00 0.9000E+01
        2 -1    0    0  502    0 0.00000000E+00 0.00000000E+00 -.20101447E+04 0.20101447E+04 0.32000000E+00 0.0000E+00 0.9000E+01
       25  1    1    2    0    0 -.26114191E+03 -.40212221E+03 -.10462932E+04 0.11576925E+04 0.12500000E+03 0.0000E+00 0.9000E+01
        1  1    1    2  501    0 -.57867472E+00 -.47539454E+02 0.28815686E+03 0.29205276E+03 0.32000000E+00 0.0000E+00 0.9000E+01
        2  1    1    2  502    0 0.26172058E+03 0.44966167E+03 -.83152612E+03 0.98088178E+03 0.32000000E+00 0.0000E+00 0.9000E+01
#aMCatNLO 1  0  0  2  5 0.10366642D+02 0.00000000D+00  -5  6  0 0.00000000D+00 0.00000000D+00 0.00000000D+00 0.00000000D+00 0.00000000D+00
  <mgrwgt>
 0.9907450921D-02    7    2    0
 0.919364036304424D+03 0.000000000000000D+00 0.000000000000000D+00 0.919364036304424D+03
 0.919364036304424D+03 0.000000000000000D+00 0.000000000000000D+00 -.919364036304424D+03
 0.625837129454765D+03 -.261181197226884D+03 -.402188417957477D+03 -.382198863525487D+03
 0.635108163228945D+03 -.578599345157060D+00 -.475332620228346D+02 0.633326640229440D+03
 0.577782779925138D+03 0.261759796572041D+03 0.449721679980312D+03 -.251127776703953D+03
 0.000000000000000D+00 0.000000000000000D+00 0.000000000000000D+00 -.000000000000000D+00
 0.107945752877923D+04 0.000000000000000D+00 0.000000000000000D+00 0.107945752877923D+04
 0.110468909194176D+04 0.000000000000000D+00 0.000000000000000D+00 -.110468909194176D+04
 0.716981465375146D+03 -.309437648168599D+03 -.506566671137378D+03 -.382198863525487D+03
 0.651978198870170D+03 -.468322185082533D+02 -.147579408750938D+03 0.633326640229440D+03
 0.496936305535448D+03 0.223137953663898D+03 0.366182994091258D+03 -.251127776703953D+03
 0.318250650940225D+03 0.133131913012954D+03 0.287963085797058D+03 -.252315631625260D+02
0.974089501638D-03 0.000000000000D+00 0.000000000000D+00 0.275376023384D-05 0.000000000000D+00  6 1 2 25 1 2 21 0 0.64689580D-01 0.30925304D+00 0.28274045D+06 0.28274045D+06 0.28274045D+06 0.10864609D+01  1  2  2  2  6  2        2 0.544318098556D-02 0.100000000000D+01
0.431975881669D-03 0.000000000000D+00 -.374076016994D-05 0.275376023384D-05 0.000000000000D+00  6 1 2 25 1 2 21 2 0.64689580D-01 0.30925304D+00 0.28274045D+06 0.28274045D+06 0.28274045D+06 0.10864609D+01  1  2  3  2  6  2        2 0.284932243210D-02 0.100000000000D+01
-.676056098038D-03 0.000000000000D+00 0.000000000000D+00 0.275376023384D-05 0.000000000000D+00  6 1 2 25 1 2 21 2 0.64689580D-01 0.30925304D+00 0.28274045D+06 0.28274045D+06 0.28274045D+06 0.10864609D+01  1  2 15  2  6  2        2 -.445928091646D-02 0.100000000000D+01
-.675261821405D-04 0.000000000000D+00 0.000000000000D+00 0.275376023384D-05 0.000000000000D+00  6 1 2 25 1 2 21 2 0.64689580D-01 0.30925304D+00 0.28274045D+06 0.28274045D+06 0.28274045D+06 0.10864609D+01  1  2  4  2  6  2        2 -.445404185029D-03 0.100000000000D+01
-.154528166946D-02 0.000000000000D+00 -.780627610524D-03 0.275376023384D-05 0.000000000000D+00  6 1 2 25 1 2 21 2 0.64689580D-01 0.39912195D+00 0.28274045D+06 0.28274045D+06 0.28274045D+06 0.10864609D+01  1  2  5  2  6  2        2 -.476714294686D-02 0.100000000000D+01
0.171310858099D-02 0.000000000000D+00 0.755897156506D-03 0.275376023384D-05 0.000000000000D+00  6 1 2 25 1 2 21 2 0.64689580D-01 0.30925304D+00 0.28274045D+06 0.28274045D+06 0.28274045D+06 0.10864609D+01  1  2  6  2  6  2        2 0.112997019407D-01 0.100000000000D+01
-.395602204589D-04 0.000000000000D+00 -.268154490882D-04 0.275376023384D-05 0.000000000000D+00  6 1 21 25 1 2 -2 2 0.64689580D-01 0.39912195D+00 0.28274045D+06 0.28274045D+06 0.28274045D+06 0.10864609D+01  1  2  5  6  6  2        2 -.129263889033D-04 0.100000000000D+01
  </mgrwgt>
  </event>
  <event>
  5     66 0.17698235E-05 0.22224577E+02 0.75467711E-02 0.90429543E-01
        1 -1    0    0  501    0 0.00000000E+00 0.00000000E+00 0.24418798E+04 0.24418798E+04 0.32000000E+00 0.0000E+00 0.9000E+01
        2 -1    0    0  502    0 0.00000000E+00 0.00000000E+00 -.12707175E+04 0.12707176E+04 0.32000000E+00 0.0000E+00 0.9000E+01
       25  1    1    2    0    0 0.37112872E+03 0.56867085E+03 0.85949095E+03 0.11024848E+04 0.12500000E+03 0.0000E+00 0.9000E+01
        1  1    1    2  501    0 0.13615464E+01 0.22185927E+02 0.13546637E+04 0.13548461E+04 0.32000000E+00 0.0000E+00 0.9000E+01
        2  1    1    2  502    0 -.37249026E+03 -.59085678E+03 -.10429924E+04 0.12552665E+04 0.32000000E+00 0.0000E+00 0.9000E+01
#aMCatNLO 1  0  0  1  2 0.64630748D+02 0.00000000D+00  -5  6  0 0.00000000D+00 0.00000000D+00 0.00000000D+00 0.00000000D+00 0.00000000D+00
  <mgrwgt>
 0.2013265682D-01    7    2    0
 0.176151627406546D+04 0.000000000000000D+00 0.000000000000000D+00 0.176151627406546D+04
 0.176151627406546D+04 0.000000000000000D+00 0.000000000000000D+00 -.176151627406546D+04
 0.876209538900318D+03 0.371161349806371D+03 0.568724957024153D+03 0.539360113215371D+03
 0.977279686061982D+03 0.136135710764523D+01 0.221828426887728D+02 0.977026945885567D+03
 0.166954332316862D+04 -.372522706914016D+03 -.590907799712925D+03 -.151638705910094D+04
 0.000000000000000D+00 -.000000000000000D+00 0.000000000000000D+00 0.000000000000000D+00
 0.182751853274737D+04 0.000000000000000D+00 0.000000000000000D+00 0.182751853274737D+04
 0.177770597046638D+04 0.000000000000000D+00 0.000000000000000D+00 -.177770597046638D+04
 0.869724897404524D+03 0.377854849300126D+03 0.554177569284422D+03 0.539360113215371D+03
 0.977084868722039D+03 0.885392835547934D+01 0.589878392228194D+01 0.977026945885567D+03
 0.167681556424517D+04 -.359693558778170D+03 -.618790164158712D+03 -.151638705910094D+04
 0.815991728420166D+02 -.270152188774358D+02 0.587138109520075D+02 0.498125622809895D+02
0.872189252543D-02 0.000000000000D+00 0.000000000000D+00 0.113969706616D-03 0.000000000000D+00  6 1 2 25 1 2 21 0 0.37567382D+00 0.19549501D+00 0.49793266D+06 0.49793266D+06 0.49793266D+06 0.10686376D+01  1  2  2  1  6  1        1 0.329977136047D-02 0.100000000000D+01
0.716696927431D-02 0.000000000000D+00 -.334943638247D-04 0.113969706616D-03 0.000000000000D+00  6 1 2 25 1 2 21 2 0.37567382D+00 0.19549501D+00 0.49793266D+06 0.49793266D+06 0.49793266D+06 0.10686376D+01  1  2  3  1  6  1        1 0.309648909274D-02 0.100000000000D+01
-.559193920258D-02 0.000000000000D+00 0.000000000000D+00 0.113969706616D-03 0.000000000000D+00  6 1 2 25 1 2 21 2 0.37567382D+00 0.19549501D+00 0.49793266D+06 0.49793266D+06 0.49793266D+06 0.10686376D+01  1  2 15  1  6  1        1 -.241599734635D-02 0.100000000000D+01
-.140537409962D-03 0.000000000000D+00 0.000000000000D+00 0.113969706616D-03 0.000000000000D+00  6 1 2 25 1 2 21 2 0.37567382D+00 0.19549501D+00 0.49793266D+06 0.49793266D+06 0.49793266D+06 0.10686376D+01  1  2  4  1  6  1        1 -.607191883229D-04 0.100000000000D+01
-.248337633541D+00 0.000000000000D+00 -.386288946000D-01 0.113969706616D-03 0.000000000000D+00  6 1 2 25 1 2 21 2 0.39097395D+00 0.19549501D+00 0.49793266D+06 0.49793266D+06 0.49793266D+06 0.10686376D+01  1  2  5  1  6  1        1 -.914708411532D-01 0.100000000000D+01
0.249711451248D+00 0.000000000000D+00 0.385981358903D-01 0.113969706616D-03 0.000000000000D+00  6 1 2 25 1 2 21 2 0.37567382D+00 0.19549501D+00 0.49793266D+06 0.49793266D+06 0.49793266D+06 0.10686376D+01  1  2  6  1  6  1        1 0.107887833131D+00 0.100000000000D+01
-.173043032184D-02 0.000000000000D+00 -.272582465647D-03 0.113969706616D-03 0.000000000000D+00  6 21 2 25 1 2 -1 2 0.39097395D+00 0.19549501D+00 0.49793266D+06 0.49793266D+06 0.49793266D+06 0.10686376D+01  1  2  5  5  6  1        1 -.203879077426D-03 0.100000000000D+01
  </mgrwgt>
  </event>
  <event>
  5     66 -.17698235E-05 0.58857157E+02 0.75467711E-02 0.89936209E-01
        1 -1    0    0  501    0 0.00000000E+00 0.00000000E+00 0.59978004E+03 0.59978013E+03 0.32000000E+00 0.0000E+00 0.9000E+01
        2 -1    0    0  502    0 0.00000000E+00 0.00000000E+00 -.21598937E+04 0.21598938E+04 0.32000000E+00 0.0000E+00 0.9000E+01
       25  1    1    2    0    0 -.44422911E+03 0.56779572E+03 -.29099862E+03 0.78742408E+03 0.12500000E+03 0.0000E+00 0.9000E+01
        1  1    1    2  501    0 0.42556215E+03 -.62360736E+03 -.55289332E+02 0.75699822E+03 0.32000000E+00 0.0000E+00 0.9000E+01
        2  1    1    2  502    0 0.18666961E+02 0.55811639E+02 -.12138257E+04 0.12152516E+04 0.32000000E+00 0.0000E+00 0.9000E+01
#aMCatNLO 1  0  0  1  2 0.23783775D+00 0.00000000D+00  -5  6  0 0.00000000D+00 0.00000000D+00 0.00000000D+00 0.00000000D+00 0.00000000D+00
  <mgrwgt>
 -.1752556760D-02    9    2    0
 0.113818333560681D+04 0.000000000000000D+00 0.000000000000000D+00 0.113818333560681D+04
 0.113818333560681D+04 0.000000000000000D+00 0.000000000000000D+00 -.113818333560681D+04
 0.755146307366247D+03 -.444203368007382D+03 0.567748363163000D+03 0.186992271245396D+03
 0.879769467444874D+03 0.425533988104590D+03 -.623566094917284D+03 0.451752660297257D+03
 0.641450896402504D+03 0.186693799027919D+02 0.558177317542840D+02 -.638744931542653D+03
 0.000000000000000D+00 0.000000000000000D+00 -.000000000000000D+00 0.000000000000000D+00
 0.113977103822962D+04 0.000000000000000D+00 0.000000000000000D+00 0.113977103822962D+04
 0.113819224887428D+04 0.000000000000000D+00 0.000000000000000D+00 -.113819224887428D+04
 0.755205727817113D+03 -.444203533545246D+03 0.567827264762957D+03 0.186992271245396D+03
 0.879704228113595D+03 0.425533795262450D+03 -.623474179068246D+03 0.451752660297257D+03
 0.641456727707716D+03 0.186692392933289D+02 0.558847515362823D+02 -.638744931542653D+03
 0.159660346548078D+01 0.498989467603165D-03 -.237837230993363D+00 0.157878935534420D+01
0.131408056909D-04 0.000000000000D+00 0.000000000000D+00 0.167332413069D-05 0.000000000000D+00  6 1 2 25 1 2 21 0 0.92273861D-01 0.33229135D+00 0.59707437D+06 0.59707437D+06 0.59707437D+06 0.10631066D+01  1  2  2  1  6  1        1 0.351010829234D-04 0.100000000000D+01
0.588429528130D-05 0.000000000000D+00 -.504641539066D-07 0.167332413069D-05 0.000000000000D+00  6 1 2 25 1 2 21 2 0.92273861D-01 0.33229135D+00 0.59707437D+06 0.59707437D+06 0.59707437D+06 0.10631066D+01  1  2  3  1  6  1        1 0.177642379247D-04 0.100000000000D+01
-.827162578703D-05 0.000000000000D+00 0.000000000000D+00 0.167332413069D-05 0.000000000000D+00  6 1 2 25 1 2 21 2 0.92273861D-01 0.33229135D+00 0.59707437D+06 0.59707437D+06 0.59707437D+06 0.10631066D+01  1  2 15  1  6  1        1 -.249714063419D-04 0.100000000000D+01
-.264673104303D+00 0.000000000000D+00 0.000000000000D+00 0.167332413069D-05 0.000000000000D+00  6 1 2 25 1 2 21 2 0.92273861D-01 0.33229135D+00 0.59707437D+06 0.59707437D+06 0.59707437D+06 0.10631066D+01  1  2  4  1  6  1        1 -.799027882244D+00 0.100000000000D+01
-.239714149269D+00 0.000000000000D+00 -.236917052176D-02 0.167332413069D-05 0.000000000000D+00  6 1 2 25 1 2 21 2 0.92402911D-01 0.33229135D+00 0.59707437D+06 0.59707437D+06 0.59707437D+06 0.10631066D+01  1  2  5  1  6  1        1 -.722191892680D+00 0.100000000000D+01
0.239717228572D+00 0.000000000000D+00 0.236916820801D-02 0.167332413069D-05 0.000000000000D+00  6 1 2 25 1 2 21 2 0.92273861D-01 0.33229135D+00 0.59707437D+06 0.59707437D+06 0.59707437D+06 0.10631066D+01  1  2  6  1  6  1        1 0.723687999910D+00 0.100000000000D+01
0.264163457133D+00 0.000000000000D+00 0.000000000000D+00 0.167332413069D-05 0.222796884019D-03  6 1 2 25 1 2 21 2 0.92402578D-01 0.33229395D+00 0.59729589D+06 0.59729589D+06 0.59729589D+06 0.10630954D+01  1  2 11  1  6  1        1 0.795801639875D+00 0.100000000000D+01
-.626828648112D-04 0.000000000000D+00 -.619531638293D-06 0.167332413069D-05 0.000000000000D+00  6 21 2 25 1 2 -1 2 0.92402911D-01 0.33229135D+00 0.59707437D+06 0.59707437D+06 0.59707437D+06 0.10631066D+01  1  2  5  5  6  1        1 -.442897674040D-03 0.100000000000D+01
0.555656768844D-04 0.000000000000D+00 0.000000000000D+00 0.167332413069D-05 0.464627850225D-07  6 21 2 25 1 2 -1 2 0.92402578D-01 0.33229395D+00 0.59729589D+06 0.59729589D+06 0.59729589D+06 0.10630954D+01  1  2 11  5  6  1        1 0.392582138534D-03 0.100000000000D+01
  </mgrwgt>
  </event>
  <event>
  5     66 -.17698235E-05 0.95042727E+02 0.75467711E-02 0.94750960E-01
        1 -1    0    0  501    0 0.00000000E+00 0.00000000E+00 0.52336008E+03 0.52336018E+03 0.32000000E+00 0.0000E+00 0.9000E+01
        2 -1    0    0  502    0 -.00000000E+00 -.00000000E+00 -.10146792E+04 0.10146793E+04 0.32000000E+00 0.0000E+00 0.9000E+01
       25  1    1    2    0    0 -.24270280E+03 0.41109916E+03 -.32352609E+03 0.59008584E+03 0.12500000E+03 0.0000E+00 0.9000E+01
        1  1    1    2  501    0 0.24593398E+03 -.31612495E+03 0.28096489E+03 0.48924419E+03 0.32000000E+00 0.0000E+00 0.9000E+01
        2  1    1    2  502    0 -.32311847E+01 -.94974208E+02 -.44875792E+03 0.45870940E+03 0.32000000E+00 0.0000E+00 0.9000E+01
#aMCatNLO 1  0  0  5  2 0.61723644D+01 0.00000000D+00  -5  6  0 0.00000000D+00 0.00000000D+00 0.00000000D+00 0.00000000D+00 0.00000000D+00
  <mgrwgt>
 -.1259059420D-01    9    2    0
 0.728726770086305D+03 0.000000000000000D+00 0.000000000000000D+00 0.728726770086305D+03
 0.728726770086305D+03 -.000000000000000D+00 -.000000000000000D+00 -.728726770086305D+03
 0.513626270793096D+03 -.242693209331493D+03 0.411099091026714D+03 -.142423627078558D+03
 0.610984562255230D+03 0.245923337291158D+03 -.316111269810889D+03 0.461408184353445D+03
 0.332842707124283D+03 -.323012795966498D+01 -.949878212158258D+02 -.318984557274887D+03
 0.000000000000000D+00 0.000000000000000D+00 0.000000000000000D+00 -.000000000000000D+00
 0.728726770086305D+03 0.000000000000000D+00 0.000000000000000D+00 0.728726770086305D+03
 0.728726770086305D+03 -.000000000000000D+00 -.000000000000000D+00 -.728726770086305D+03
 0.513632475421982D+03 -.242694641043727D+03 0.411056988909597D+03 -.142565012837461D+03
 0.610882802615076D+03 0.245921634348779D+03 -.316161347946595D+03 0.461240013826498D+03
 0.545826661191553D+02 -.235549350588445D+01 -.211218993501598D+02 -.502750878553249D+02
 0.278355596016396D+03 -.871499799167293D+00 -.737737416128422D+02 -.268399913133713D+03
0.109295254221D-04 0.000000000000D+00 0.000000000000D+00 0.123879113529D-05 0.000000000000D+00  6 1 2 25 1 2 21 0 0.80516947D-01 0.15610450D+00 0.24454667D+06 0.24454667D+06 0.24454667D+06 0.10911804D+01  1  2  2  4  6  5        2 0.163643548031D-03 0.100000000000D+01
0.171138768697D-05 0.000000000000D+00 -.419722554311D-07 0.123879113529D-05 0.000000000000D+00  6 1 2 25 1 2 21 2 0.80516947D-01 0.15610450D+00 0.24454667D+06 0.24454667D+06 0.24454667D+06 0.10911804D+01  1  2  3  4  6  5        2 0.305097820682D-04 0.100000000000D+01
-.696244411778D-05 0.000000000000D+00 0.000000000000D+00 0.123879113529D-05 0.000000000000D+00  6 1 2 25 1 2 21 2 0.80516947D-01 0.15610450D+00 0.24454667D+06 0.24454667D+06 0.24454667D+06 0.10911804D+01  1  2 15  4  6  5        2 -.124123046060D-03 0.100000000000D+01
0.168174235956D-03 0.000000000000D+00 0.000000000000D+00 0.123879113529D-05 0.000000000000D+00  6 1 2 25 1 2 21 2 0.80516947D-01 0.15610450D+00 0.24454326D+06 0.24454326D+06 0.24454326D+06 0.10911809D+01  1  2 12  4  6  5        2 0.299813204777D-02 0.100000000000D+01
0.103525185129D-07 0.000000000000D+00 0.000000000000D+00 0.123879113529D-05 0.000000000000D+00  6 1 2 25 1 2 21 2 0.80516947D-01 0.15610450D+00 0.24454326D+06 0.24454326D+06 0.24454326D+06 0.10911809D+01  1  2 12  4  6  5        2 0.184559884290D-06 0.100000000000D+01
-.114167616346D-02 0.000000000000D+00 0.000000000000D+00 0.123879113529D-05 0.000000000000D+00  6 1 2 25 1 2 21 2 0.80516947D-01 0.15610450D+00 0.24454667D+06 0.24454667D+06 0.24454667D+06 0.10911804D+01  1  2  4  4  6  5        2 -.203532438645D-01 0.100000000000D+01
-.203955628044D-03 0.000000000000D+00 0.000000000000D+00 0.123879113529D-05 0.000000000000D+00  6 1 2 25 1 2 21 2 0.80516947D-01 0.15610450D+00 0.24454667D+06 0.24454667D+06 0.24454667D+06 0.10911804D+01  1  2  5  4  6  5        2 -.363602111350D-02 0.100000000000D+01
0.427326066628D-03 0.000000000000D+00 -.000000000000D+00 0.123879113529D-05 0.000000000000D+00  6 1 2 25 1 2 21 2 0.80516947D-01 0.15610450D+00 0.24454667D+06 0.24454667D+06 0.24454667D+06 0.10911804D+01  1  2  6  4  6  5        2 0.761815996701D-02 0.100000000000D+01
0.399474144167D-04 0.000000000000D+00 0.000000000000D+00 0.123879113529D-05 0.197934084301D-07  6 1 2 25 1 2 21 2 0.80516947D-01 0.15610450D+00 0.24454326D+06 0.24454326D+06 0.24454326D+06 0.10911809D+01  1  2 11  4  6  5        2 0.712163921585D-03 0.100000000000D+01
  </mgrwgt>
  </event>
  <event>
  5     66 -.17698235E-05 0.48014559E+02 0.75467711E-02 0.92832231E-01
        1 -1    0    0  501    0 0.00000000E+00 0.00000000E+00 0.82813980E+03 0.82813986E+03 0.32000000E+00 0.0000E+00 0.9000E+01
        2 -1    0    0  502    0 -.00000000E+00 -.00000000E+00 -.44324693E+04 0.44324693E+04 0.32000000E+00 0.0000E+00 0.9000E+01
       25  1    1    2    0    0 -.18246777E+03 -.51649757E+03 -.54520026E+03 0.78290009E+03 0.12500000E+03 0.0000E+00 0.9000E+01
        1  1    1    2  501    0 0.23047673E+03 0.51599966E+03 0.59653859E+03 0.82172597E+03 0.32000000E+00 0.0000E+00 0.9000E+01
        2  1    1    2  502    0 -.48008956E+02 0.49791138E+00 -.36556679E+04 0.36559831E+04 0.32000000E+00 0.0000E+00 0.9000E+01
#aMCatNLO 1  0  0  5  1 0.19121401D+02 0.00000000D+00  -5  6  0 0.00000000D+00 0.00000000D+00 0.00000000D+00 0.00000000D+00 0.00000000D+00
  <mgrwgt>
 -.7928003603D-02    5    2    0
 0.191590825735970D+04 0.000000000000000D+00 0.000000000000000D+00 0.191590825735970D+04
 0.191590825735970D+04 -.000000000000000D+00 -.000000000000000D+00 -.191590825735970D+04
 0.561980444511037D+03 -.182460886444325D+03 -.516489037574903D+03 -.120049571312895D+02
 0.168922290676004D+04 0.230472862730265D+03 0.515991009609876D+03 0.159188867898153D+04
 0.158061316344832D+04 -.480119762859398D+02 0.498027965027168D+00 -.157988372185024D+04
 0.000000000000000D+00 0.000000000000000D+00 0.000000000000000D+00 -.000000000000000D+00
 0.191590825735970D+04 0.000000000000000D+00 0.000000000000000D+00 0.191590825735970D+04
 0.191590825735970D+04 -.000000000000000D+00 -.000000000000000D+00 -.191590825735970D+04
 0.561984615667317D+03 -.182464967779141D+03 -.516488995239239D+03 -.121392576733345D+02
 0.168884089635299D+04 0.230460596326352D+03 0.515991136849216D+03 0.159148504027789D+04
 0.234698115679822D+03 -.262022353776331D+02 0.848989261024859D+00 -.233229345456587D+03
 0.134629288701927D+04 -.217933931695778D+02 -.351130871001300D+00 -.134611643714797D+04
0.447962351353D-02 0.000000000000D+00 0.000000000000D+00 0.317788369925D-03 0.000000000000D+00  6 1 2 25 1 2 21 0 0.12740613D+00 0.68191836D+00 0.34515047D+06 0.34515047D+06 0.34515047D+06 0.10800757D+01  1  2  2  4  6  5        2 0.190326672274D-03 0.100000000000D+01
0.254080187454D-02 0.000000000000D+00 -.172029338039D-04 0.317788369925D-03 0.000000000000D+00  6 1 2 25 1 2 21 2 0.12740613D+00 0.68191836D+00 0.34515047D+06 0.34515047D+06 0.34515047D+06 0.10800757D+01  1  2  3  4  6  5        2 0.125932357210D-03 0.100000000000D+01
-.291395860655D-02 0.000000000000D+00 0.000000000000D+00 0.317788369925D-03 0.000000000000D+00  6 1 2 25 1 2 21 2 0.12740613D+00 0.68191836D+00 0.34515047D+06 0.34515047D+06 0.34515047D+06 0.10800757D+01  1  2 15  4  6  5        2 -.144427505273D-03 0.100000000000D+01
0.425042462481D-09 0.000000000000D+00 0.000000000000D+00 0.317788369925D-03 0.000000000000D+00  6 1 2 25 1 2 21 2 0.12740613D+00 0.68191836D+00 0.34514698D+06 0.34514698D+06 0.34514698D+06 0.10800760D+01  1  2 12  4  6  5        2 0.210668518103D-10 0.100000000000D+01
-.163421671630D+00 0.000000000000D+00 0.000000000000D+00 0.317788369925D-03 0.000000000000D+00  6 1 2 25 1 2 21 2 0.12740613D+00 0.68191836D+00 0.34515047D+06 0.34515047D+06 0.34515047D+06 0.10800757D+01  1  2  5  4  6  5        2 -.809983514796D-02 0.100000000000D+01
  </mgrwgt>
  </event>
  <event>
  5     66 -.17698235E-05 0.88971939E+02 0.75467711E-02 0.91096281E-01
        1 -1    0    0  501    0 0.00000000E+00 0.00000000E+00 0.18176502E+04 0.18176502E+04 0.32000000E+00 0.0000E+00 0.9000E+01
        2 -1    0    0  502    0 0.00000000E+00 0.00000000E+00 -.12740586E+04 0.12740586E+04 0.32000000E+00 0.0000E+00 0.9000E+01
       25  1    1    2    0    0 0.49834778E+03 0.34009274E+03 -.32975838E+02 0.61702998E+03 0.12500000E+03 0.0000E+00 0.9000E+01
        1  1    1    2  501    0 -.58725931E+03 -.33697143E+03 0.14481263E+04 0.15985910E+04 0.32000000E+00 0.0000E+00 0.9000E+01
        2  1    1    2  502    0 0.88911527E+02 -.31213091E+01 -.87155887E+03 0.87608788E+03 0.32000000E+00 0.0000E+00 0.9000E+01
#aMCatNLO 1  0  0  4  1 0.13772658D+02 0.00000000D+00  -5  6  0 0.00000000D+00 0.00000000D+00 0.00000000D+00 0.00000000D+00 0.00000000D+00
  <mgrwgt>
 -.4534728243D-02    8    2    0
 0.152177295389995D+04 0.000000000000000D+00 0.000000000000000D+00 0.152177295389995D+04
 0.152177295389995D+04 -.000000000000000D+00 -.000000000000000D+00 -.152177295389995D+04
 0.632654661507492D+03 0.498333301050375D+03 0.340088116532256D+03 -.143634657325237D+03
 0.136522527758694D+04 -.587250456214839D+03 -.336966348219283D+03 0.118550859988681D+04
 0.104566596870546D+04 0.889171551644635D+02 -.312176831297219D+01 -.104187394256157D+04
 0.000000000000000D+00 0.000000000000000D+00 0.000000000000000D+00 0.000000000000000D+00
 0.152177295389995D+04 0.000000000000000D+00 0.000000000000000D+00 0.152177295389995D+04
 0.152177295389995D+04 -.000000000000000D+00 -.000000000000000D+00 -.152177295389995D+04
 0.632597520779118D+03 0.498296539870310D+03 0.340067022839656D+03 -.143560445896965D+03
 0.107123930513611D+04 -.471551446657564D+03 -.269545651960205D+03 0.923329856298927D+03
 0.104553869642144D+04 0.888563964063889D+02 -.315663189905215D+01 -.104175128615585D+04
 0.294170385463232D+03 -.115601489619135D+03 -.673647389803980D+02 0.261981875753889D+03
0.205934598227D-04 0.000000000000D+00 0.000000000000D+00 0.154133137048D-04 0.000000000000D+00  6 1 2 25 1 2 21 0 0.27963849D+00 0.19600902D+00 0.47759519D+06 0.47759519D+06 0.47759519D+06 0.10699204D+01  1  2  2  3  6  4        1 0.205823717182D-04 0.100000000000D+01
0.700517353829D-05 0.000000000000D+00 -.790843081015D-07 0.154133137048D-04 0.000000000000D+00  6 1 2 25 1 2 21 2 0.27963849D+00 0.19600902D+00 0.47759519D+06 0.47759519D+06 0.47759519D+06 0.10699204D+01  1  2  3  3  6  4        1 0.801471199521D-05 0.100000000000D+01
-.144691887871D-04 0.000000000000D+00 0.000000000000D+00 0.154133137048D-04 0.000000000000D+00  6 1 2 25 1 2 21 2 0.27963849D+00 0.19600902D+00 0.47759519D+06 0.47759519D+06 0.47759519D+06 0.10699204D+01  1  2 15  3  6  4        1 -.165543908797D-04 0.100000000000D+01
0.117999297175D-01 0.000000000000D+00 0.000000000000D+00 0.154133137048D-04 0.000000000000D+00  6 1 2 25 1 2 21 2 0.27963849D+00 0.19600902D+00 0.47745038D+06 0.47745038D+06 0.47745038D+06 0.10699297D+01  1  2 12  3  6  4        1 0.135009981179D-01 0.100000000000D+01
0.198953002774D-08 0.000000000000D+00 0.000000000000D+00 0.154133137048D-04 0.000000000000D+00  6 1 2 25 1 2 21 2 0.27963849D+00 0.19600902D+00 0.47745038D+06 0.47745038D+06 0.47745038D+06 0.10699297D+01  1  2 12  3  6  4        1 0.227633908023D-08 0.100000000000D+01
-.185953492892D-01 0.000000000000D+00 0.000000000000D+00 0.154133137048D-04 0.000000000000D+00  6 1 2 25 1 2 21 2 0.27963849D+00 0.19600902D+00 0.47759519D+06 0.47759519D+06 0.47759519D+06 0.10699204D+01  1  2  4  3  6  4        1 -.212751858592D-01 0.100000000000D+01
-.118514122979D-01 0.000000000000D+00 0.000000000000D+00 0.154133137048D-04 0.000000000000D+00  6 1 2 25 1 2 21 2 0.27963849D+00 0.19600902D+00 0.47759519D+06 0.47759519D+06 0.47759519D+06 0.10699204D+01  1  2  5  3  6  4        1 -.135593580637D-01 0.100000000000D+01
0.146722995449D-01 0.000000000000D+00 -.000000000000D+00 0.154133137048D-04 0.000000000000D+00  6 1 2 25 1 2 21 2 0.27963849D+00 0.19600902D+00 0.47759519D+06 0.47759519D+06 0.47759519D+06 0.10699204D+01  1  2  6  3  6  4        1 0.167867725927D-01 0.100000000000D+01
  </mgrwgt>
  </event>
  <event>
  6     66 0.17698235E-05 0.62938546E+02 0.75467711E-02 0.93968382E-01
        1 -1    0    0  501    0 0.00000000E+00 0.00000000E+00 0.14034309E+04 0.14034309E+04 0.32000000E+00 0.0000E+00 0.9000E+01
        2 -1    0    0  502    0 0.00000000E+00 0.00000000E+00 -.57567309E+03 0.57567318E+03 0.32000000E+00 0.0000E+00 0.9000E+01
       25  1    1    2    0    0 -.36135875E+03 -.36733247E+03 0.58174901E+03 0.78712781E+03 0.12500000E+03 0.0000E+00 0.9000E+01
        1  1    1    2  501    0 0.69479671E+02 0.51504872E+02 0.60961847E+03 0.61572312E+03 0.32000000E+00 0.0000E+00 0.9000E+01
        2  1    1    2  503    0 0.23708584E+03 0.30688068E+03 -.29094604E+03 0.48480423E+03 0.32000000E+00 0.0000E+00 0.9000E+01
       21  1    1    2  502  503 0.54793241E+02 0.89469245E+01 -.72663625E+02 0.91448957E+02 0.75000000E+00 0.0000E+00 0.9000E+01
#aMCatNLO 2  0  0  5  2 0.45175266D+02 0.00000000D+00  -5  6  0 0.00000000D+00 0.00000000D+00 0.00000000D+00 0.00000000D+00 0.00000000D+00
  <mgrwgt>
 0.1081546291D-01    3    2    0
 0.898842327349988D+03 0.000000000000000D+00 0.000000000000000D+00 0.898842327349988D+03
 0.898842327349988D+03 -.000000000000000D+00 -.000000000000000D+00 -.898842327349988D+03
 0.601479271107670D+03 -.362534630006074D+03 -.368611857362810D+03 0.280795751802111D+03
 0.398476679692050D+03 0.686902663761845D+02 0.506592521177343D+02 0.389228662534558D+03
 0.797728703900256D+03 0.293844363629889D+03 0.317952605245076D+03 -.670024414336669D+03
 0.000000000000000D+00 0.000000000000000D+00 0.000000000000000D+00 -.000000000000000D+00
 0.898842327349988D+03 0.000000000000000D+00 0.000000000000000D+00 0.898842327349988D+03
 0.898842327349988D+03 -.000000000000000D+00 -.000000000000000D+00 -.898842327349988D+03
 0.598792036478793D+03 -.361380560214993D+03 -.367363102776621D+03 0.278164239914932D+03
 0.397012889538422D+03 0.694551355146585D+02 0.514868743741057D+02 0.387484606632925D+03
 0.667652632370251D+03 0.237088593277814D+03 0.306916603872924D+03 -.543462266137755D+03
 0.134227096312509D+03 0.548368314225204D+02 0.895962452959056D+01 -.122186580410103D+03
-.607704748813D-02 0.000000000000D+00 0.000000000000D+00 0.376037536640D-05 0.000000000000D+00  6 1 2 25 1 2 21 2 0.21591246D+00 0.88565100D-01 0.28095730D+06 0.28095730D+06 0.28095730D+06 0.10866653D+01  1  2 13  4  6  5        2 -.414065497556D-01 0.100000000000D+01
-.614425782824D-07 0.000000000000D+00 0.000000000000D+00 0.376037536640D-05 0.000000000000D+00  6 1 2 25 1 2 21 2 0.21591246D+00 0.88565100D-01 0.28095730D+06 0.28095730D+06 0.28095730D+06 0.10866653D+01  1  2 13  4  6  5        2 -.418644938966D-06 0.100000000000D+01
0.766444431893D-02 0.000000000000D+00 0.000000000000D+00 0.376037536640D-05 0.134266698719D-07  6 1 2 25 1 2 21 2 0.21591246D+00 0.88565100D-01 0.28095730D+06 0.28095730D+06 0.28095730D+06 0.10866653D+01  1  2  1  4  6  5        2 0.522224313140D-01 0.100000000000D+01
  </mgrwgt>
  </event>
  <event>
  6     66 0.17698235E-05 0.32709128E+02 0.75467711E-02 0.88909718E-01
        1 -1    0    0  503    0 0.00000000E+00 0.00000000E+00 0.14059336E+04 0.14059336E+04 0.32000000E+00 0.0000E+00 0.9000E+01
        2 -1    0    0  502    0 0.00000000E+00 0.00000000E+00 -.16427310E+04 0.16427310E+04 0.32000000E+00 0.0000E+00 0.9000E+01
       25  1    1    2    0    0 -.78982407E+03 -.23312695E+03 -.59431817E+03 0.10232347E+04 0.12500000E+03 0.0000E+00 0.9000E+01
        1  1    1    2  501    0 0.74811070E+03 0.15265537E+03 0.83460002E+03 0.11311634E+04 0.32000000E+00 0.0000E+00 0.9000E+01
        2  1    1    2  502    0 -.85375339E+01 0.59349688E+02 -.68077071E+03 0.68340627E+03 0.32000000E+00 0.0000E+00 0.9000E+01
       21  1    1    2  503  501 0.50250903E+02 0.21121890E+02 0.20369142E+03 0.21086025E+03 0.75000000E+00 0.0000E+00 0.9000E+01
#aMCatNLO 2  0  0  1  4 0.54509517D+02 0.00000000D+00  -5  6  0 0.00000000D+00 0.00000000D+00 0.00000000D+00 0.00000000D+00 0.00000000D+00
  <mgrwgt>
 0.6956848685D-02    3    2    0
 0.140143961515444D+04 0.000000000000000D+00 0.000000000000000D+00 0.140143961515444D+04
 0.140143961515444D+04 0.000000000000000D+00 0.000000000000000D+00 -.140143961515444D+04
 0.926639625771154D+03 -.773064734207057D+03 -.226087300743258D+03 -.440785032887125D+03
 0.129097173447506D+04 0.771114148848569D+03 0.162325812902082D+03 0.102256604633870D+04
 0.585267870062676D+03 0.195058535848841D+01 0.637614878411754D+02 -.581781013451574D+03
 0.000000000000000D+00 0.000000000000000D+00 0.000000000000000D+00 0.000000000000000D+00
 0.164409130785872D+04 0.000000000000000D+00 0.000000000000000D+00 0.164409130785872D+04
 0.140476922592259D+04 0.000000000000000D+00 0.000000000000000D+00 -.140476922592259D+04
 0.942378335725962D+03 -.789817321977942D+03 -.233128892100318D+03 -.440785032887125D+03
 0.127616781252257D+04 0.748104080744816D+03 0.152654023749223D+03 0.102256604633870D+04
 0.584863073957320D+03 -.853766127527910D+01 0.593529780719915D+02 -.581781013451574D+03
 0.245451311575465D+03 0.502509025084055D+02 0.211218902791033D+02 0.239322081936131D+03
-.430005477173D-02 0.000000000000D+00 0.000000000000D+00 0.415855104297D-05 0.000000000000D+00  6 1 2 25 1 2 21 2 0.21869857D+00 0.25212873D+00 0.73182155D+06 0.73182155D+06 0.73182155D+06 0.10570111D+01  1  2 13  1  6  1        1 -.537463990489D-02 0.100000000000D+01
-.642582968782D-08 0.000000000000D+00 0.000000000000D+00 0.415855104297D-05 0.000000000000D+00  6 1 2 25 1 2 21 2 0.21682300D+00 0.25212873D+00 0.73182155D+06 0.73182155D+06 0.73182155D+06 0.10570111D+01  1  2 13  1  6  1        1 -.818856765833D-08 0.100000000000D+01
0.967244368518D-02 0.000000000000D+00 0.000000000000D+00 0.415855104297D-05 0.214705147406D-07  6 1 2 25 1 2 21 2 0.21629739D+00 0.25272775D+00 0.73182155D+06 0.73182155D+06 0.73182155D+06 0.10570111D+01  1  2  1  1  6  1        1 0.123314967783D-01 0.100000000000D+01
  </mgrwgt>
  </event>
  <event>
  6     66 -.17698235E-05 0.10958010E+03 0.75467711E-02 0.92979235E-01
        1 -1    0    0  503    0 0.00000000E+00 0.00000000E+00 0.22401326E+04 0.22401326E+04 0.32000000E+00 0.0000E+00 0.9000E+01
        2 -1    0    0  502    0 0.00000000E+00 0.00000000E+00 -.23315386E+04 0.23315387E+04 0.32000000E+00 0.0000E+00 0.9000E+01
       25  1    1    2    0    0 0.25857018E+03 -.40494190E+03 -.33882932E+03 0.60105473E+03 0.12500000E+03 0.0000E+00 0.9000E+01
        1  1    1    2  501    0 -.10067406E+03 0.35077691E+03 0.45978713E+03 0.58701279E+03 0.32000000E+00 0.0000E+00 0.9000E+01
        2  1    1    2  502    0 -.80011389E+02 0.15263863E+03 -.17913565E+04 0.17996273E+04 0.32000000E+00 0.0000E+00 0.9000E+01
       21  1    1    2  503  501 -.77884729E+02 -.98473641E+02 0.15789926E+04 0.15839764E+04 0.75000000E+00 0.0000E+00 0.9000E+01
#aMCatNLO 2  0  0  1  4 0.12555114D+03 0.00000000D+00  -5  6  0 0.00000000D+00 0.00000000D+00 0.00000000D+00 0.00000000D+00 0.00000000D+00
  <mgrwgt>
 -.7640473343D-03    3    2    0
 0.123696459868025D+04 0.000000000000000D+00 0.000000000000000D+00 0.123696459868025D+04
 0.123696459868025D+04 0.000000000000000D+00 0.000000000000000D+00 -.123696459868025D+04
 0.505078632457063D+03 0.242820806132576D+03 -.424860876944621D+03 -.327357841982916D+01
 0.100852915881839D+04 -.132549020455474D+03 0.310454361700348D+03 0.950357780346147D+03
 0.960321406085048D+03 -.110271785677101D+03 0.114406515244273D+03 -.947084201926317D+03
 0.000000000000000D+00 -.000000000000000D+00 -.000000000000000D+00 0.000000000000000D+00
 0.421246293179377D+04 0.000000000000000D+00 0.000000000000000D+00 0.421246293179377D+04
 0.123988161115083D+04 0.000000000000000D+00 0.000000000000000D+00 -.123988161115083D+04
 0.496461773339298D+03 0.258576014904542D+03 -.404940761825252D+03 -.327357841982916D+01
 0.101801163470213D+04 -.100669554482822D+03 0.350761198716003D+03 0.950357780346147D+03
 0.962639581420067D+03 -.800217312178413D+02 0.152653204064281D+03 -.947084201926317D+03
 0.297523155348309D+04 -.778847292038787D+02 -.984736409550325D+02 0.297258132064294D+04
-.143958634357D-01 0.000000000000D+00 0.000000000000D+00 0.214011007061D-04 0.000000000000D+00  6 1 2 25 1 2 21 2 0.35187212D+00 0.35785435D+00 0.33598218D+06 0.33598218D+06 0.33598218D+06 0.10809309D+01  1  2 13  1  6  1        1 -.219232165795D-02 0.100000000000D+01
-.369628049881D-08 0.000000000000D+00 0.000000000000D+00 0.214011007061D-04 0.000000000000D+00  6 1 2 25 1 2 21 2 0.34443208D+00 0.35785435D+00 0.33598218D+06 0.33598218D+06 0.33598218D+06 0.10809309D+01  1  2 13  1  6  1        1 -.607038745970D-09 0.100000000000D+01
0.877740365289D-02 0.000000000000D+00 0.000000000000D+00 0.214011007061D-04 0.894866696151D-08  6 1 2 25 1 2 21 2 0.34463577D+00 0.35869824D+00 0.33598218D+06 0.33598218D+06 0.33598218D+06 0.10809309D+01  1  2  1  1  6  1        1 0.142827493065D-02 0.100000000000D+01
  </mgrwgt>
  </event>
  <event>
  5     66 -.17698235E-05 0.49595631E+02 0.75467711E-02 0.94777116E-01
        1 -1    0    0  501    0 0.00000000E+00 0.00000000E+00 0.96899449E+03 0.96899455E+03 0.32000000E+00 0.0000E+00 0.9000E+01
        2 -1    0    0  502    0 0.00000000E+00 0.00000000E+00 -.10528708E+04 0.10528708E+04 0.32000000E+00 0.0000E+00 0.9000E+01
       25  1    1    2    0    0 -.44022900E+03 -.10969854E+03 -.55326648E+03 0.72633610E+03 0.12500000E+03 0.0000E+00 0.9000E+01
        1  1    1    2  501    0 0.44931639E+03 0.60934852E+02 0.82236499E+03 0.93908602E+03 0.32000000E+00 0.0000E+00 0.9000E+01
        2  1    1    2  502    0 -.90873924E+01 0.48763686E+02 -.35297478E+03 0.35644323E+03 0.32000000E+00 0.0000E+00 0.9000E+01
#aMCatNLO 1  0  0  2  4 0.12996142D+02 0.00000000D+00  -5  6  0 0.00000000D+00 0.00000000D+00 0.00000000D+00 0.00000000D+00 0.00000000D+00
  <mgrwgt>
 -.4928020577D-02    9    2    0
 0.101006241057853D+04 0.000000000000000D+00 0.000000000000000D+00 0.101006241057853D+04
 0.101006241057853D+04 0.000000000000000D+00 0.000000000000000D+00 -.101006241057853D+04
 0.704044727592509D+03 -.440233719963922D+03 -.109691503588740D+03 -.523656399080522D+03
 0.974048954888391D+03 0.449320544123120D+03 0.609354144929587D+02 0.862072671187668D+03
 0.342031138676166D+03 -.908682415919753D+01 0.487560890957816D+02 -.338416272107147D+03
 0.000000000000000D+00 -.000000000000000D+00 0.000000000000000D+00 -.000000000000000D+00
 0.101041256376623D+04 0.000000000000000D+00 0.000000000000000D+00 0.101041256376623D+04
 0.113832861278465D+04 0.000000000000000D+00 0.000000000000000D+00 -.113832861278465D+04
 0.702236900836034D+03 -.436638874612157D+03 -.112437243719545D+03 -.523656399080522D+03
 0.976128357741871D+03 0.454305737491009D+03 0.571277276105972D+02 0.862072671187668D+03
 0.341801366422328D+03 -.733875886939764D+01 0.474209181641271D+02 -.338416272107147D+03
 0.128574551550641D+03 -.103281040094544D+02 0.788859794482033D+01 -.127916049018422D+03
0.178339191829D-04 0.000000000000D+00 0.000000000000D+00 0.142269509601D-04 0.000000000000D+00  6 1 2 25 1 2 21 0 0.14907608D+00 0.16198013D+00 0.23698777D+06 0.23698777D+06 0.23698777D+06 0.10922098D+01  1  2  2  2  6  2        2 0.980099874302D-04 0.100000000000D+01
0.423357885994D-05 0.000000000000D+00 -.684869454411D-07 0.142269509601D-04 0.000000000000D+00  6 1 2 25 1 2 21 2 0.14907608D+00 0.16198013D+00 0.23698777D+06 0.23698777D+06 0.23698777D+06 0.10922098D+01  1  2  3  2  6  2        2 0.277551343203D-04 0.100000000000D+01
-.130387890650D-04 0.000000000000D+00 0.000000000000D+00 0.142269509601D-04 0.000000000000D+00  6 1 2 25 1 2 21 2 0.14907608D+00 0.16198013D+00 0.23698777D+06 0.23698777D+06 0.23698777D+06 0.10922098D+01  1  2 15  2  6  2        2 -.854816583903D-04 0.100000000000D+01
0.100296878695D-07 0.000000000000D+00 0.000000000000D+00 0.142269509601D-04 0.000000000000D+00  6 1 2 25 1 2 21 2 0.14907608D+00 0.18257867D+00 0.24342116D+06 0.24342116D+06 0.24342116D+06 0.10913315D+01  1  2 12  2  6  2        2 0.546222449721D-07 0.100000000000D+01
-.165749566905D-02 0.000000000000D+00 0.000000000000D+00 0.142269509601D-04 0.000000000000D+00  6 1 2 25 1 2 21 2 0.14907608D+00 0.16198013D+00 0.23698777D+06 0.23698777D+06 0.23698777D+06 0.10922098D+01  1  2  4  2  6  2        2 -.108664599035D-01 0.100000000000D+01
-.592258106212D-02 0.000000000000D+00 -.337559823219D-04 0.142269509601D-04 0.000000000000D+00  6 1 2 25 1 2 21 2 0.14907608D+00 0.18257416D+00 0.23698777D+06 0.23698777D+06 0.23698777D+06 0.10922098D+01  1  2  5  2  6  2        2 -.323557076843D-01 0.100000000000D+01
0.588466517673D-02 0.000000000000D+00 0.335156569968D-04 0.142269509601D-04 0.000000000000D+00  6 1 2 25 1 2 21 2 0.14907608D+00 0.16198013D+00 0.23698777D+06 0.23698777D+06 0.23698777D+06 0.10922098D+01  1  2  6  2  6  2        2 0.385795748263D-01 0.100000000000D+01
0.189910783684D-09 0.000000000000D+00 0.000000000000D+00 0.142269509601D-04 0.000000000000D+00  6 1 21 25 1 2 -2 2 0.14907608D+00 0.18257867D+00 0.24342116D+06 0.24342116D+06 0.24342116D+06 0.10913315D+01  1  2 12  6  6  2        2 0.550117704867D-09 0.100000000000D+01
-.111968428641D-03 0.000000000000D+00 -.639053934572D-06 0.142269509601D-04 0.000000000000D+00  6 1 21 25 1 2 -2 2 0.14907608D+00 0.18257416D+00 0.23698777D+06 0.23698777D+06 0.23698777D+06 0.10922098D+01  1  2  5  6  6  2        2 -.325766451070D-03 0.100000000000D+01
  </mgrwgt>
  </event>
  <event>
  5     66 0.17698235E-05 0.69060050E+02 0.75467711E-02 0.93749128E-01
        1 -1    0    0  501    0 0.00000000E+00 0.00000000E+00 0.41585237E+03 0.41585250E+03 0.32000000E+00 0.0000E+00 0.9000E+01
        2 -1    0    0  502    0 0.00000000E+00 0.00000000E+00 -.17092939E+04 0.17092939E+04 0.32000000E+00 0.0000E+00 0.9000E+01
       25  1    1    2    0    0 -.40280676E+03 -.23275996E+03 -.10335770E+03 0.49268479E+03 0.12500000E+03 0.0000E+00 0.9000E+01
        1  1    1    2  501    0 -.49212170E+02 0.48496281E+02 0.17210358E+03 0.18545477E+03 0.32000000E+00 0.0000E+00 0.9000E+01
        2  1    1    2  502    0 0.45201893E+03 0.18426368E+03 -.13621874E+04 0.14470069E+04 0.32000000E+00 0.0000E+00 0.9000E+01
#aMCatNLO 1  0  0  2  5 0.39834827D+02 0.00000000D+00  -5  6  0 0.00000000D+00 0.00000000D+00 0.00000000D+00 0.00000000D+00 0.00000000D+00
  <mgrwgt>
 0.8259720442D-02   11    2    0
 0.843097914031139D+03 0.000000000000000D+00 0.000000000000000D+00 0.843097914031139D+03
 0.843097914031139D+03 0.000000000000000D+00 0.000000000000000D+00 -.843097914031139D+03
 0.541799491354649D+03 -.402906110476639D+03 -.232776488787888D+03 0.247797217983425D+03
 0.365578886461411D+03 -.491892966248495D+02 0.484737409923713D+02 0.358996701597831D+03
 0.778817450246219D+03 0.452095407101488D+03 0.184302747795517D+03 -.606793919581256D+03
 0.000000000000000D+00 -.000000000000000D+00 -.000000000000000D+00 -.000000000000000D+00
 0.844377906072634D+03 0.000000000000000D+00 0.000000000000000D+00 0.844377906072634D+03
 0.122304095559057D+04 0.000000000000000D+00 0.000000000000000D+00 -.122304095559057D+04
 0.531527166194382D+03 -.390484138554268D+03 -.230249440172689D+03 0.247797217983425D+03
 0.364770444734593D+03 -.407367171404678D+02 0.501932811277345D+02 0.358996701597831D+03
 0.790368682096583D+03 0.470256128201481D+03 0.187997251807727D+03 -.606793919581256D+03
 0.380752568637648D+03 -.390352725067454D+02 -.794109276277317D+01 -.378663049517937D+03
0.411025820953D-04 0.000000000000D+00 0.000000000000D+00 0.324719191268D-05 0.000000000000D+00  6 1 2 25 1 2 21 0 0.63977300D-01 0.26296831D+00 0.26992776D+06 0.26992776D+06 0.26992776D+06 0.10879622D+01  1  2  2  2  6  2        2 0.340959966368D-03 0.100000000000D+01
0.925644624212D-05 0.000000000000D+00 -.157844737804D-06 0.324719191268D-05 0.000000000000D+00  6 1 2 25 1 2 21 2 0.63977300D-01 0.26296831D+00 0.26992776D+06 0.26992776D+06 0.26992776D+06 0.10879622D+01  1  2  3  2  6  2        2 0.908879243650D-04 0.100000000000D+01
-.255139865344D-04 0.000000000000D+00 0.000000000000D+00 0.324719191268D-05 0.000000000000D+00  6 1 2 25 1 2 21 2 0.63977300D-01 0.26296831D+00 0.26992776D+06 0.26992776D+06 0.26992776D+06 0.10879622D+01  1  2 15  2  6  2        2 -.250518743126D-03 0.100000000000D+01
0.325848041409D-02 0.000000000000D+00 0.000000000000D+00 0.324719191268D-05 0.000000000000D+00  6 1 2 25 1 2 21 2 0.63977300D-01 0.38367180D+00 0.29222274D+06 0.29222274D+06 0.29222274D+06 0.10853968D+01  1  2 12  2  6  2        2 0.116280877538D-01 0.100000000000D+01
0.453450834244D-07 0.000000000000D+00 0.000000000000D+00 0.324719191268D-05 0.000000000000D+00  6 1 2 25 1 2 21 2 0.63977300D-01 0.38191813D+00 0.29222274D+06 0.29222274D+06 0.29222274D+06 0.10853968D+01  1  2 12  2  6  2        2 0.164289909043D-06 0.100000000000D+01
-.223853936940D-02 0.000000000000D+00 0.000000000000D+00 0.324719191268D-05 0.000000000000D+00  6 1 2 25 1 2 21 2 0.63977300D-01 0.26296831D+00 0.26992776D+06 0.26992776D+06 0.26992776D+06 0.10879622D+01  1  2  4  2  6  2        2 -.219799469010D-01 0.100000000000D+01
-.332844671685D-02 0.000000000000D+00 -.263753640812D-04 0.324719191268D-05 0.000000000000D+00  6 1 2 25 1 2 21 2 0.63977300D-01 0.38162211D+00 0.26992776D+06 0.26992776D+06 0.26992776D+06 0.10879622D+01  1  2  5  2  6  2        2 -.122119995253D-01 0.100000000000D+01
0.312107033500D-02 0.000000000000D+00 0.246465341335D-04 0.324719191268D-05 0.000000000000D+00  6 1 2 25 1 2 21 2 0.63977300D-01 0.26296831D+00 0.26992776D+06 0.26992776D+06 0.26992776D+06 0.10879622D+01  1  2  6  2  6  2        2 0.306454115463D-01 0.100000000000D+01
0.148755995630D-03 0.000000000000D+00 0.000000000000D+00 0.324719191268D-05 0.000000000000D+00  6 1 21 25 1 2 -2 2 0.63977300D-01 0.38367180D+00 0.29222274D+06 0.29222274D+06 0.29222274D+06 0.10853968D+01  1  2 12  6  6  2        2 0.624767249619D-04 0.100000000000D+01
0.205182789192D-08 0.000000000000D+00 0.000000000000D+00 0.324719191268D-05 0.000000000000D+00  6 1 21 25 1 2 -2 2 0.63977300D-01 0.38191813D+00 0.29222274D+06 0.29222274D+06 0.29222274D+06 0.10853968D+01  1  2 12  6  6  2        2 0.885593188992D-09 0.100000000000D+01
-.149566988901D-03 0.000000000000D+00 -.119166377698D-05 0.324719191268D-05 0.000000000000D+00  6 1 21 25 1 2 -2 2 0.63977300D-01 0.38162211D+00 0.26992776D+06 0.26992776D+06 0.26992776D+06 0.10879622D+01  1  2  5  6  6  2        2 -.658034802851D-04 0.100000000000D+01
  </mgrwgt>
  </event>
  <event>
  5     66 0.17698235E-05 0.15877298E+02 0.75467711E-02 0.88477962E-01
        1 -1    0    0  501    0 0.00000000E+00 0.00000000E+00 0.23692321E+04 0.23692321E+04 0.32000000E+00 0.0000E+00 0.9000E+01
        2 -1    0    0  502    0 0.00000000E+00 0.00000000E+00 -.22208975E+04 0.22208975E+04 0.32000000E+00 0.0000E+00 0.9000E+01
       25  1    1    2    0    0 -.44406516E+03 0.24175122E+03 0.30887425E+03 0.60552938E+03 0.12500000E+03 0.0000E+00 0.9000E+01
        1  1    1    2  501    0 0.42840627E+03 -.23913279E+03 0.18805250E+04 0.19434739E+04 0.32000000E+00 0.0000E+00 0.9000E+01
        2  1    1    2  502    0 0.15658896E+02 -.26184338E+01 -.20410646E+04 0.20411264E+04 0.32000000E+00 0.0000E+00 0.9000E+01
#aMCatNLO 1  0  0  5  1 0.35744420D+02 0.00000000D+00  -5  6  0 0.00000000D+00 0.00000000D+00 0.00000000D+00 0.00000000D+00 0.00000000D+00
  <mgrwgt>
 0.9327247918D-01    4    2    0
 0.229386613874801D+04 0.000000000000000D+00 0.000000000000000D+00 0.229386613874801D+04
 0.229386613874801D+04 -.000000000000000D+00 -.000000000000000D+00 -.229386613874801D+04
 0.595884183609651D+03 -.444054802537410D+03 0.241745065123563D+03 0.289529991724532D+03
 0.188363684056518D+04 0.428394932591147D+03 -.239126462881790D+03 0.181862147342822D+04
 0.210821125332120D+04 0.156598699462776D+02 -.261860224177568D+01 -.210815146515275D+04
 0.000000000000000D+00 0.000000000000000D+00 0.000000000000000D+00 0.000000000000000D+00
 0.229386613874801D+04 0.000000000000000D+00 0.000000000000000D+00 0.229386613874801D+04
 0.229386613874801D+04 -.000000000000000D+00 -.000000000000000D+00 -.229386613874801D+04
 0.534609112848271D+03 -.442835927496154D+03 0.241541248046766D+03 0.125443494654160D+03
 0.142645461831776D+04 0.431963806352848D+03 -.239723240560344D+03 0.133817518137816D+04
 0.199584653647306D+04 -.239159742635377D+03 0.298439654915774D+03 -.195886186011874D+04
 0.630822009856930D+03 0.250031863778697D+03 -.300257662402198D+03 0.495243184086420D+03
0.436357194334D+00 0.000000000000D+00 0.000000000000D+00 0.176950050703D-02 0.000000000000D+00  6 1 2 25 1 2 21 0 0.36449725D+00 0.34167655D+00 0.26384141D+06 0.26384141D+06 0.26384141D+06 0.10887029D+01  1  2  2  4  6  5        2 0.588374249643D-01 0.100000000000D+01
0.469130503723D+00 0.000000000000D+00 -.167572652173D-02 0.176950050703D-02 0.000000000000D+00  6 1 2 25 1 2 21 2 0.36449725D+00 0.34167655D+00 0.26384141D+06 0.26384141D+06 0.26384141D+06 0.10887029D+01  1  2  3  4  6  5        2 0.749762859581D-01 0.100000000000D+01
-.247167338016D+00 0.000000000000D+00 0.000000000000D+00 0.176950050703D-02 0.000000000000D+00  6 1 2 25 1 2 21 2 0.36449725D+00 0.34167655D+00 0.26384141D+06 0.26384141D+06 0.26384141D+06 0.10887029D+01  1  2 15  4  6  5        2 -.395022043281D-01 0.100000000000D+01
-.650124835918D-02 0.000000000000D+00 0.000000000000D+00 0.176950050703D-02 0.000000000000D+00  6 1 2 25 1 2 21 2 0.36449725D+00 0.34167655D+00 0.26384141D+06 0.26384141D+06 0.26384141D+06 0.10887029D+01  1  2  4  4  6  5        2 -.103902741816D-02 0.100000000000D+01
  </mgrwgt>
  </event>
  <event>
  5     66 0.17698235E-05 0.14153182E+02 0.75467711E-02 0.94903484E-01
        1 -1    0    0  501    0 0.00000000E+00 0.00000000E+00 0.44847714E+03 0.44847726E+03 0.32000000E+00 0.0000E+00 0.9000E+01
        2 -1    0    0  502    0 -.00000000E+00 -.00000000E+00 -.23470563E+04 0.23470563E+04 0.32000000E+00 0.0000E+00 0.9000E+01
       25  1    1    2    0    0 -.25193032E+03 0.40771633E+03 -.95879073E+03 0.10791692E+04 0.12500000E+03 0.0000E+00 0.9000E+01
        1  1    1    2  501    0 0.24991808E+03 -.39370757E+03 0.24821545E+03 0.52827617E+03 0.32000000E+00 0.0000E+00 0.9000E+01
        2  1    1    2  502    0 0.20122332E+01 -.14008764E+02 -.11880039E+04 0.11880882E+04 0.32000000E+00 0.0000E+00 0.9000E+01
#aMCatNLO 1  0  0  5  2 0.76801853D+00 0.00000000D+00  -5  6  0 0.00000000D+00 0.00000000D+00 0.00000000D+00 0.00000000D+00 0.00000000D+00
  <mgrwgt>
 0.2106971172D-01    9    2    0
 0.102596358955043D+04 0.000000000000000D+00 0.000000000000000D+00 0.102596358955043D+04
 0.102596358955043D+04 -.000000000000000D+00 -.000000000000000D+00 -.102596358955043D+04
 0.583104293742829D+03 -.251929261155225D+03 0.407715034422165D+03 -.307710440936343D+03
 0.949381076106730D+03 0.249916867848656D+03 -.393705650154058D+03 0.826959399167250D+03
 0.519441809251310D+03 0.201239330656840D+01 -.140093842681041D+02 -.519248958230907D+03
 0.000000000000000D+00 0.000000000000000D+00 0.000000000000000D+00 0.000000000000000D+00
 0.102596358955043D+04 0.000000000000000D+00 0.000000000000000D+00 0.102596358955043D+04
 0.102596358955043D+04 -.000000000000000D+00 -.000000000000000D+00 -.102596358955043D+04
 0.583104807886678D+03 -.251929257226366D+03 0.407715007071199D+03 -.307711454682570D+03
 0.949379658563317D+03 0.249916874245420D+03 -.393705694685472D+03 0.826957748638605D+03
 0.416329878120993D+03 0.908353465573823D+00 -.109229484319645D+02 -.416185573401788D+03
 0.103112834529881D+03 0.110402951537171D+01 -.308636395376053D+01 -.103060720554247D+03
0.167352256026D-05 0.000000000000D+00 0.000000000000D+00 0.564987304172D-04 0.000000000000D+00  6 1 2 25 1 2 21 0 0.68996494D-01 0.36108559D+00 0.23803902D+06 0.23803902D+06 0.23803902D+06 0.10920645D+01  1  2  2  4  6  5        2 0.562161907284D-05 0.100000000000D+01
0.138162196554D-05 0.000000000000D+00 -.642676728002D-08 0.564987304172D-04 0.000000000000D+00  6 1 2 25 1 2 21 2 0.68996494D-01 0.36108559D+00 0.23803902D+06 0.23803902D+06 0.23803902D+06 0.10920645D+01  1  2  3  4  6  5        2 0.553497493962D-05 0.100000000000D+01
-.118951489077D-05 0.000000000000D+00 0.000000000000D+00 0.564987304172D-04 0.000000000000D+00  6 1 2 25 1 2 21 2 0.68996494D-01 0.36108559D+00 0.23803902D+06 0.23803902D+06 0.23803902D+06 0.10920645D+01  1  2 15  4  6  5        2 -.476536655823D-05 0.100000000000D+01
0.317340441793D-07 0.000000000000D+00 0.000000000000D+00 0.564987304172D-04 0.000000000000D+00  6 1 2 25 1 2 21 2 0.68996494D-01 0.36108559D+00 0.23808067D+06 0.23808067D+06 0.23808067D+06 0.10920588D+01  1  2 12  4  6  5        2 0.127128334378D-06 0.100000000000D+01
0.893446392245D-14 0.000000000000D+00 0.000000000000D+00 0.564987304172D-04 0.000000000000D+00  6 1 2 25 1 2 21 2 0.68996494D-01 0.36108559D+00 0.23808067D+06 0.23808067D+06 0.23808067D+06 0.10920588D+01  1  2 12  4  6  5        2 0.357919561277D-13 0.100000000000D+01
-.366172280795D-01 0.000000000000D+00 0.000000000000D+00 0.564987304172D-04 0.000000000000D+00  6 1 2 25 1 2 21 2 0.68996494D-01 0.36108559D+00 0.23803902D+06 0.23803902D+06 0.23803902D+06 0.10920645D+01  1  2  4  4  6  5        2 -.146693845953D+00 0.100000000000D+01
-.446729244930D-01 0.000000000000D+00 0.000000000000D+00 0.564987304172D-04 0.000000000000D+00  6 1 2 25 1 2 21 2 0.68996494D-01 0.36108559D+00 0.23803902D+06 0.23803902D+06 0.23803902D+06 0.10920645D+01  1  2  5  4  6  5        2 -.178966116431D+00 0.100000000000D+01
0.543998641544D-01 0.000000000000D+00 -.000000000000D+00 0.564987304172D-04 0.000000000000D+00  6 1 2 25 1 2 21 2 0.68996494D-01 0.36108559D+00 0.23803902D+06 0.23803902D+06 0.23803902D+06 0.10920645D+01  1  2  6  4  6  5        2 0.217933626074D+00 0.100000000000D+01
0.321487152677D-01 0.000000000000D+00 0.000000000000D+00 0.564987304172D-04 0.290430081220D-03  6 1 2 25 1 2 21 2 0.68996494D-01 0.36108559D+00 0.23808067D+06 0.23808067D+06 0.23808067D+06 0.10920588D+01  1  2 11  4  6  5        2 0.128789529670D+00 0.100000000000D+01
  </mgrwgt>
  </event>
  <event>
  5     66 0.17698235E-05 0.21621890E+03 0.75467711E-02 0.91144118E-01
        1 -1    0    0  501    0 0.00000000E+00 0.00000000E+00 0.12018102E+04 0.12018103E+04 0.32000000E+00 0.0000E+00 0.9000E+01
        2 -1    0    0  502    0 0.00000000E+00 0.00000000E+00 -.12156545E+04 0.12156546E+04 0.32000000E+00 0.0000E+00 0.9000E+01
       25  1    1    2    0    0 0.44132500E+03 -.47578287E+03 0.10902953E+03 0.66981306E+03 0.12500000E+03 0.0000E+00 0.9000E+01
        1  1    1    2  501    0 -.16116923E+02 0.21564758E+03 0.72914157E+03 0.76053347E+03 0.32000000E+00 0.0000E+00 0.9000E+01
        2  1    1    2  502    0 -.42520808E+03 0.26013529E+03 -.85201540E+03 0.98711834E+03 0.32000000E+00 0.0000E+00 0.9000E+01
#aMCatNLO 1  0  0  2  5 0.39560365D+02 0.00000000D+00  -5  6  0 0.00000000D+00 0.00000000D+00 0.00000000D+00 0.00000000D+00 0.00000000D+00
  <mgrwgt>
 0.3121329112D-02    1    2    0
 0.120871261422471D+04 0.000000000000000D+00 0.000000000000000D+00 0.120871261422471D+04
 0.120871261422471D+04 0.000000000000000D+00 0.000000000000000D+00 -.120871261422471D+04
 0.670508314947393D+03 0.441375142226110D+03 -.475792787550013D+03 0.112984988179238D+03
 0.764615115280963D+03 -.161146786643506D+02 0.215617551821586D+03 0.733406887746584D+03
 0.982301798221064D+03 -.425260463561759D+03 0.260175235728426D+03 -.846391875925822D+03
 0.000000000000000D+00 -.000000000000000D+00 -.000000000000000D+00 0.000000000000000D+00
 0.292816189689806D+04 0.000000000000000D+00 0.000000000000000D+00 0.292816189689806D+04
 0.131581935165673D+04 0.000000000000000D+00 0.000000000000000D+00 -.131581935165673D+04
 0.727781717240423D+03 0.598941193063179D+03 -.377551410602069D+03 0.112984988179238D+03
 0.819210485392117D+03 0.162358413017666D+03 0.326894328651694D+03 0.733406887746584D+03
 0.957221629281929D+03 -.206705628768675D+03 0.396442710826250D+03 -.846391875925822D+03
 0.173976741664032D+04 -.554593977312171D+03 -.345785628875875D+03 0.161234254524134D+04
0.958290207192D-03 0.000000000000D+00 0.000000000000D+00 0.723093440553D-06 0.000000000000D+00  6 1 2 25 1 2 21 2 0.18489389D+00 0.18702378D+00 0.47312028D+06 0.47312028D+06 0.47312028D+06 0.10702106D+01  1  2 14  2  6  2        2 0.312132911178D-02 0.100000000000D+01
  </mgrwgt>
  </event>
  <event>
  5     66 -.17698235E-05 0.68448179E+02 0.75467711E-02 0.94625864E-01
        1 -1    0    0  501    0 0.00000000E+00 0.00000000E+00 0.28990840E+03 0.28990858E+03 0.32000000E+00 0.0000E+00 0.9000E+01
        2 -1    0    0  502    0 -.00000000E+00 -.00000000E+00 -.17313800E+04 0.17313800E+04 0.32000000E+00 0.0000E+00 0.9000E+01
       25  1    1    2    0    0 -.28456457E+03 -.40141174E+03 -.98222264E+03 0.11056648E+04 0.12500000E+03 0.0000E+00 0.9000E+01
        1  1    1    2  501    0 0.43351820E+02 0.67281977E+02 0.15587042E+03 0.17521968E+03 0.32000000E+00 0.0000E+00 0.9000E+01
        2  1    1    2  502    0 0.24121275E+03 0.33412976E+03 -.61511936E+03 0.74040409E+03 0.32000000E+00 0.0000E+00 0.9000E+01
#aMCatNLO 1  0  0  4  1 0.34457712D+01 0.00000000D+00  -5  6  0 0.00000000D+00 0.00000000D+00 0.00000000D+00 0.00000000D+00 0.00000000D+00
  <mgrwgt>
 -.6441598713D-02    9    2    0
 0.708478521292425D+03 0.000000000000000D+00 0.000000000000000D+00 0.708478521292425D+03
 0.708478521292425D+03 -.000000000000000D+00 -.000000000000000D+00 -.708478521292425D+03
 0.578041694129001D+03 -.284611770805405D+03 -.401476803193745D+03 -.276260233417458D+03
 0.408400212681705D+03 0.433393439280497D+02 0.672626143963821D+02 0.400484925672505D+03
 0.430515135774144D+03 0.241272426877355D+03 0.334214188797363D+03 -.124224692255046D+03
 0.000000000000000D+00 0.000000000000000D+00 0.000000000000000D+00 0.000000000000000D+00
 0.708478521292425D+03 0.000000000000000D+00 0.000000000000000D+00 0.708478521292425D+03
 0.708478521292425D+03 -.000000000000000D+00 -.000000000000000D+00 -.708478521292425D+03
 0.578026257219449D+03 -.284609192200401D+03 -.401472801201598D+03 -.276236405358710D+03
 0.172722703626254D+03 0.193565930340861D+02 0.316638639472296D+02 0.168688631430831D+03
 0.430513405521973D+03 0.241274347398119D+03 0.334217169443489D+03 -.124206945340912D+03
 0.235694676217174D+03 0.239782517681962D+02 0.355917678108801D+02 0.231754719268791D+03
0.150588684188D-05 0.000000000000D+00 0.000000000000D+00 0.394636395628D-06 0.000000000000D+00  6 1 2 25 1 2 21 0 0.44601309D-01 0.26636617D+00 0.24998580D+06 0.24998580D+06 0.24998580D+06 0.10904610D+01  1  2  2  3  6  4        1 0.197828136659D-04 0.100000000000D+01
0.324471041036D-06 0.000000000000D+00 -.578300198192D-08 0.394636395628D-06 0.000000000000D+00  6 1 2 25 1 2 21 2 0.44601309D-01 0.26636617D+00 0.24998580D+06 0.24998580D+06 0.24998580D+06 0.10904610D+01  1  2  3  3  6  4        1 0.506864540912D-05 0.100000000000D+01
-.102737870059D-05 0.000000000000D+00 0.000000000000D+00 0.394636395628D-06 0.000000000000D+00  6 1 2 25 1 2 21 2 0.44601309D-01 0.26636617D+00 0.24998580D+06 0.24998580D+06 0.24998580D+06 0.10904610D+01  1  2 15  3  6  4        1 -.160489463637D-04 0.100000000000D+01
0.274930912733D-04 0.000000000000D+00 0.000000000000D+00 0.394636395628D-06 0.000000000000D+00  6 1 2 25 1 2 21 2 0.44601309D-01 0.26636617D+00 0.24999082D+06 0.24999082D+06 0.24999082D+06 0.10904603D+01  1  2 12  3  6  4        1 0.429475736364D-03 0.100000000000D+01
0.806090341671D-08 0.000000000000D+00 0.000000000000D+00 0.394636395628D-06 0.000000000000D+00  6 1 2 25 1 2 21 2 0.44601309D-01 0.26636617D+00 0.24999082D+06 0.24999082D+06 0.24999082D+06 0.10904603D+01  1  2 12  3  6  4        1 0.125921177660D-06 0.100000000000D+01
-.171717885942D-02 0.000000000000D+00 0.000000000000D+00 0.394636395628D-06 0.000000000000D+00  6 1 2 25 1 2 21 2 0.44601309D-01 0.26636617D+00 0.24998580D+06 0.24998580D+06 0.24998580D+06 0.10904610D+01  1  2  4  3  6  4        1 -.268244916854D-01 0.100000000000D+01
-.703790221099D-03 0.000000000000D+00 0.000000000000D+00 0.394636395628D-06 0.000000000000D+00  6 1 2 25 1 2 21 2 0.44601309D-01 0.26636617D+00 0.24998580D+06 0.24998580D+06 0.24998580D+06 0.10904610D+01  1  2  5  3  6  4        1 -.109940876750D-01 0.100000000000D+01
0.119404861757D-02 0.000000000000D+00 -.000000000000D+00 0.394636395628D-06 0.000000000000D+00  6 1 2 25 1 2 21 2 0.44601309D-01 0.26636617D+00 0.24998580D+06 0.24998580D+06 0.24998580D+06 0.10904610D+01  1  2  6  3  6  4        1 0.186525399135D-01 0.100000000000D+01
0.786496409541D-03 0.000000000000D+00 0.000000000000D+00 0.394636395628D-06 0.611536228304D-07  6 1 2 25 1 2 21 2 0.44601309D-01 0.26636617D+00 0.24999082D+06 0.24999082D+06 0.24999082D+06 0.10904603D+01  1  2 11  3  6  4        1 0.122860365638D-01 0.100000000000D+01
  </mgrwgt>
  </event>
  <event>
  5     66 0.17698235E-05 0.87686475E+02 0.75467711E-02 0.90022763E-01
        1 -1    0    0  501    0 0.00000000E+00 0.00000000E+00 0.17313371E+04 0.17313371E+04 0.32000000E+00 0.0000E+00 0.9000E+01
        2 -1    0    0  502    0 0.00000000E+00 0.00000000E+00 -.10552527E+04 0.10552528E+04 0.32000000E+00 0.0000E+00 0.9000E+01
       25  1    1    2    0    0 -.74950446E+03 0.82598788E+02 -.42062554E+03 0.87242784E+03 0.12500000E+03 0.0000E+00 0.9000E+01
        1  1    1    2  501    0 0.69623195E+02 -.53318498E+02 0.12195104E+04 0.12226593E+04 0.32000000E+00 0.0000E+00 0.9000E+01
        2  1    1    2  502    0 0.67988126E+03 -.29280290E+02 -.12280048E+03 0.69150266E+03 0.32000000E+00 0.0000E+00 0.9000E+01
#aMCatNLO 1  0  0  1  4 0.65459807D+02 0.00000000D+00  -5  6  0 0.00000000D+00 0.00000000D+00 0.00000000D+00 0.00000000D+00 0.00000000D+00
  <mgrwgt>
 0.4950580747D-03    5    2    0
 0.135166498427114D+04 0.000000000000000D+00 0.000000000000000D+00 0.135166498427114D+04
 0.135166498427114D+04 0.000000000000000D+00 0.000000000000000D+00 -.135166498427114D+04
 0.100451650741416D+04 -.749577992929970D+03 0.826029567461482D+02 -.651719262964822D+03
 0.955241947976641D+03 0.696171581512242D+02 -.533138744995393D+02 0.951208842079909D+03
 0.743571513151485D+03 0.679960834778745D+03 -.292890822466089D+02 -.299489579115087D+03
 0.000000000000000D+00 -.000000000000000D+00 0.000000000000000D+00 0.000000000000000D+00
 0.312329525890730D+04 0.000000000000000D+00 0.000000000000000D+00 0.312329525890730D+04
 0.199280744346253D+04 0.000000000000000D+00 0.000000000000000D+00 -.199280744346253D+04
 0.734180781849343D+03 -.301726519197656D+03 -.872899211270607D+02 -.651719262964822D+03
 0.116222925145660D+04 0.615032742052896D+03 -.260217789348186D+03 0.951208842079909D+03
 0.125095613119934D+04 0.119370877148872D+04 -.224179845341989D+03 -.299489579115087D+03
 0.196873653786456D+04 -.150701499434396D+04 0.571687555817236D+03 0.113048781544478D+04
0.496335623251D-03 0.000000000000D+00 0.000000000000D+00 0.965110840276D-06 0.000000000000D+00  6 1 2 25 1 2 21 0 0.26635955D+00 0.16234658D+00 0.58727937D+06 0.58727937D+06 0.58727937D+06 0.10636068D+01  1  2  2  1  6  1        1 0.752551662367D-03 0.100000000000D+01
0.180740805019D-03 0.000000000000D+00 -.190605948145D-05 0.965110840276D-06 0.000000000000D+00  6 1 2 25 1 2 21 2 0.26635955D+00 0.16234658D+00 0.58727937D+06 0.58727937D+06 0.58727937D+06 0.10636068D+01  1  2  3  1  6  1        1 0.310012558584D-03 0.100000000000D+01
-.331671598848D-03 0.000000000000D+00 0.000000000000D+00 0.965110840276D-06 0.000000000000D+00  6 1 2 25 1 2 21 2 0.26635955D+00 0.16234658D+00 0.58727937D+06 0.58727937D+06 0.58727937D+06 0.10636068D+01  1  2 15  1  6  1        1 -.568894007954D-03 0.100000000000D+01
0.840686875781D-04 0.000000000000D+00 -.244056601832D-03 0.965110840276D-06 0.000000000000D+00  6 1 2 25 1 2 21 2 0.66376952D+00 0.16234658D+00 0.58727937D+06 0.58727937D+06 0.58727937D+06 0.10636068D+01  1  2  5  1  6  1        1 0.136422852334D-05 0.100000000000D+01
0.235536422811D-04 0.000000000000D+00 -.245175864945D-04 0.965110840276D-06 0.000000000000D+00  6 21 2 25 1 2 -1 2 0.66376952D+00 0.16234658D+00 0.58727937D+06 0.58727937D+06 0.58727937D+06 0.10636068D+01  1  2  5  5  6  1        1 0.236332017508D-07 0.100000000000D+01
  </mgrwgt>
  </event>
  <event>
  6     66 0.17698235E-05 0.18565822E+03 0.75467711E-02 0.94364188E-01
        1 -1    0    0  501    0 0.00000000E+00 0.00000000E+00 0.13196574E+04 0.13196575E+04 0.32000000E+00 0.0000E+00 0.9000E+01
        2 -1    0    0  502    0 -.00000000E+00 -.00000000E+00 -.20969267E+04 0.20969267E+04 0.32000000E+00 0.0000E+00 0.9000E+01
       25  1    1    2    0    0 -.10685587E+03 0.47006693E+03 0.17675589E+03 0.52843991E+03 0.12500000E+03 0.0000E+00 0.9000E+01
        1  1    1    2  503    0 0.35824154E+01 -.28138817E+03 0.70446537E+03 0.75859324E+03 0.32000000E+00 0.0000E+00 0.9000E+01
        2  1    1    2  502    0 0.26784461E+02 0.12032427E+02 -.18449092E+04 0.18451428E+04 0.32000000E+00 0.0000E+00 0.9000E+01
       21  1    1    2  501  503 0.76488997E+02 -.20071119E+03 0.18641865E+03 0.28440820E+03 0.75000000E+00 0.0000E+00 0.9000E+01
#aMCatNLO 2  0  0  4  1 0.10297821D+03 0.00000000D+00  -5  6  0 0.00000000D+00 0.00000000D+00 0.00000000D+00 0.00000000D+00 0.00000000D+00
  <mgrwgt>
 0.2158139183D-01    1    2    0
 0.166349781809043D+04 0.000000000000000D+00 0.000000000000000D+00 0.166349781809043D+04
 0.166349781809043D+04 -.000000000000000D+00 -.000000000000000D+00 -.166349781809043D+04
 0.583464304786921D+03 -.107093200592185D+03 0.471441729624034D+03 0.301793533589615D+03
 0.127065981802872D+04 0.809157409350719D+02 -.487182946854044D+03 0.117076120208875D+04
 0.147287151336523D+04 0.261774596571131D+02 0.157412172300099D+02 -.147255473567837D+04
 0.000000000000000D+00 0.000000000000000D+00 0.000000000000000D+00 0.000000000000000D+00
 0.166349781809043D+04 0.000000000000000D+00 0.000000000000000D+00 0.166349781809043D+04
 0.166349781809043D+04 -.000000000000000D+00 -.000000000000000D+00 -.166349781809043D+04
 0.584072427870292D+03 -.106848573294947D+03 0.469968861104609D+03 0.305333019791781D+03
 0.943251382710501D+03 0.355123042944741D+01 -.281240529464945D+03 0.900341226610215D+03
 0.146394621275906D+04 0.267927942866167D+02 0.120363690182943D+02 -.146365152473079D+04
 0.335725612841009D+03 0.765045485788831D+02 -.200764700657959D+03 0.257977278328796D+03
0.227942700057D-01 0.000000000000D+00 0.000000000000D+00 0.292438058819D-03 0.293954278786D-07  6 1 2 25 1 2 21 2 0.20302423D+00 0.32260411D+00 0.26183206D+06 0.26183206D+06 0.26183206D+06 0.10889515D+01  1  2  1  3  6  4        1 0.215813918271D-01 0.100000000000D+01
  </mgrwgt>
  </event>
  <event>
  5     66 0.17698235E-05 0.15540662E+02 0.75467711E-02 0.91829384E-01
        1 -1    0    0  501    0 0.00000000E+00 0.00000000E+00 0.44121139E+03 0.44121151E+03 0.32000000E+00 0.0000E+00 0.9000E+01
        2 -1    0    0  502    0 0.00000000E+00 0.00000000E+00 -.32182223E+04 0.32182223E+04 0.32000000E+00 0.0000E+00 0.9000E+01
       25  1    1    2    0    0 -.61117018E+03 0.20986643E+02 -.30301713E+03 0.69383990E+03 0.12500000E+03 0.0000E+00 0.9000E+01
        1  1    1    2  501    0 0.11973617E+02 0.99134664E+01 0.21242253E+03 0.21299079E+03 0.32000000E+00 0.0000E+00 0.9000E+01
        2  1    1    2  502    0 0.59919656E+03 -.30900109E+02 -.26864163E+04 0.27526031E+04 0.32000000E+00 0.0000E+00 0.9000E+01
#aMCatNLO 1  0  0  1  2 0.71259858D+02 0.00000000D+00  -5  6  0 0.00000000D+00 0.00000000D+00 0.00000000D+00 0.00000000D+00 0.00000000D+00
  <mgrwgt>
 0.3021132752D-02    4    2    0
 0.119160251782924D+04 0.000000000000000D+00 0.000000000000000D+00 0.119160251782924D+04
 0.119160251782924D+04 0.000000000000000D+00 0.000000000000000D+00 -.119160251782924D+04
 0.712440004399471D+03 -.611244751136207D+03 0.209927562457193D+02 0.343343731939821D+03
 0.574415832626143D+03 0.119703425009786D+02 0.991075562887511D+01 0.574205569978957D+03
 0.109634919863286D+04 0.599274408635228D+03 -.309035118745944D+02 -.917549301918778D+03
 0.000000000000000D+00 0.000000000000000D+00 0.000000000000000D+00 -.000000000000000D+00
 0.119841113694659D+04 0.000000000000000D+00 0.000000000000000D+00 0.119841113694659D+04
 0.139441051241237D+04 0.000000000000000D+00 0.000000000000000D+00 -.139441051241237D+04
 0.727784061240229D+03 -.629342955213504D+03 0.933628706136635D+01 0.343343731939821D+03
 0.574211183481618D+03 -.246358249872728D+01 0.614330345474215D+00 0.574205569978957D+03
 0.108227491810372D+04 0.571897290856748D+03 -.485362299265236D+02 -.917549301918778D+03
 0.208551486533397D+03 0.599092468554827D+02 0.385856125196830D+02 -.195999375465789D+03
0.257812308394D-02 0.000000000000D+00 0.000000000000D+00 0.333041196167D-04 0.000000000000D+00  6 1 2 25 1 2 21 0 0.67878686D-01 0.49511113D+00 0.38431295D+06 0.38431295D+06 0.38431295D+06 0.10766824D+01  1  2  2  1  6  1        1 0.251751103342D-02 0.100000000000D+01
0.225727083462D-02 0.000000000000D+00 -.990067147773D-05 0.333041196167D-04 0.000000000000D+00  6 1 2 25 1 2 21 2 0.67878686D-01 0.49511113D+00 0.38431295D+06 0.38431295D+06 0.38431295D+06 0.10766824D+01  1  2  3  1  6  1        1 0.255521025967D-02 0.100000000000D+01
-.154172337066D-02 0.000000000000D+00 0.000000000000D+00 0.333041196167D-04 0.000000000000D+00  6 1 2 25 1 2 21 2 0.67878686D-01 0.49511113D+00 0.38431295D+06 0.38431295D+06 0.38431295D+06 0.10766824D+01  1  2 15  1  6  1        1 -.174521697347D-02 0.100000000000D+01
-.270648414202D-03 0.000000000000D+00 0.000000000000D+00 0.333041196167D-04 0.000000000000D+00  6 1 2 25 1 2 21 2 0.67878686D-01 0.49511113D+00 0.38431295D+06 0.38431295D+06 0.38431295D+06 0.10766824D+01  1  2  4  1  6  1        1 -.306371567881D-03 0.100000000000D+01
  </mgrwgt>
  </event>
  <event>
  5     66 -.17698235E-05 0.50429639E+02 0.75467711E-02 0.93638797E-01
        1 -1    0    0  501    0 0.00000000E+00 0.00000000E+00 0.11762421E+04 0.11762421E+04 0.32000000E+00 0.0000E+00 0.9000E+01
        2 -1    0    0  502    0 -.00000000E+00 -.00000000E+00 -.16308856E+04 0.16308856E+04 0.32000000E+00 0.0000E+00 0.9000E+01
       25  1    1    2    0    0 -.16561271E+03 -.45498318E+03 -.23364185E+03 0.55195179E+03 0.12500000E+03 0.0000E+00 0.9000E+01
        1  1    1    2  501    0 0.95424608E+01 -.49520674E+02 0.96008212E+03 0.96140582E+03 0.32000000E+00 0.0000E+00 0.9000E+01
        2  1    1    2  502    0 0.15607025E+03 0.50450385E+03 -.11810838E+04 0.12937701E+04 0.32000000E+00 0.0000E+00 0.9000E+01
#aMCatNLO 1  0  0  4  2 0.11987636D+02 0.00000000D+00  -5  6  0 0.00000000D+00 0.00000000D+00 0.00000000D+00 0.00000000D+00 0.00000000D+00
  <mgrwgt>
 -.1402624993D-01    5    2    0
 0.138503296437491D+04 0.000000000000000D+00 0.000000000000000D+00 0.138503296437491D+04
 0.138503296437491D+04 -.000000000000000D+00 -.000000000000000D+00 -.138503296437491D+04
 0.521026956673794D+03 -.165627202564298D+03 -.455030514670323D+03 -.146147015263197D+03
 0.113179840056591D+04 0.954207209197565D+01 -.495186570483087D+02 0.113067434347290D+04
 0.111724057151012D+04 0.156085130472323D+03 0.504549171718630D+03 -.984527328209701D+03
 0.000000000000000D+00 0.000000000000000D+00 0.000000000000000D+00 0.000000000000000D+00
 0.138503296437491D+04 0.000000000000000D+00 0.000000000000000D+00 0.138503296437491D+04
 0.138503296437491D+04 -.000000000000000D+00 -.000000000000000D+00 -.138503296437491D+04
 0.520993535114332D+03 -.165626050426539D+03 -.455036493698154D+03 -.146010494328060D+03
 0.109827923069662D+03 -.944721463468303D+01 0.123122024186904D+01 0.109413924699547D+03
 0.111697718810491D+04 0.156087600794802D+03 0.504536351960987D+03 -.984234610839701D+03
 0.102226728246091D+04 0.189856642664199D+02 -.507310785047036D+02 0.102083118046821D+04
0.328582651227D-03 0.000000000000D+00 0.000000000000D+00 0.745016584465D-04 0.000000000000D+00  6 1 2 25 1 2 21 0 0.18096032D+00 0.25090548D+00 0.29088780D+06 0.29088780D+06 0.29088780D+06 0.10855443D+01  1  2  2  3  6  4        1 0.589283005138D-03 0.100000000000D+01
0.165049404309D-03 0.000000000000D+00 -.126184389851D-05 0.745016584465D-04 0.000000000000D+00  6 1 2 25 1 2 21 2 0.18096032D+00 0.25090548D+00 0.29088780D+06 0.29088780D+06 0.29088780D+06 0.10855443D+01  1  2  3  3  6  4        1 0.348809559253D-03 0.100000000000D+01
-.225408711985D-03 0.000000000000D+00 0.000000000000D+00 0.745016584465D-04 0.000000000000D+00  6 1 2 25 1 2 21 2 0.18096032D+00 0.25090548D+00 0.29088780D+06 0.29088780D+06 0.29088780D+06 0.10855443D+01  1  2 15  3  6  4        1 -.476370780061D-03 0.100000000000D+01
0.319466577458D-09 0.000000000000D+00 0.000000000000D+00 0.745016584465D-04 0.000000000000D+00  6 1 2 25 1 2 21 2 0.18096032D+00 0.25090548D+00 0.29808249D+06 0.29808249D+06 0.29808249D+06 0.10847580D+01  1  2 12  3  6  4        1 0.672998213009D-09 0.100000000000D+01
-.685540619208D-02 0.000000000000D+00 0.000000000000D+00 0.745016584465D-04 0.000000000000D+00  6 1 2 25 1 2 21 2 0.18096032D+00 0.25090548D+00 0.29088780D+06 0.29088780D+06 0.29088780D+06 0.10855443D+01  1  2  5  3  6  4        1 -.144879723885D-01 0.100000000000D+01
  </mgrwgt>
  </event>
  <event>
  5     66 0.17698235E-05 0.27532782E+02 0.75467711E-02 0.89383030E-01
        1 -1    0    0  501    0 0.00000000E+00 0.00000000E+00 0.11312210E+04 0.11312211E+04 0.32000000E+00 0.0000E+00 0.9000E+01
        2 -1    0    0  502    0 0.00000000E+00 0.00000000E+00 -.98996542E+03 0.98996547E+03 0.32000000E+00 0.0000E+00 0.9000E+01
       25  1    1    2    0    0 0.46440962E+03 0.13717455E+03 0.45328832E+03 0.67497293E+03 0.12500000E+03 0.0000E+00 0.9000E+01
        1  1    1    2  501    0 -.19833793E+02 -.19110466E+02 0.50652079E+03 0.50726917E+03 0.32000000E+00 0.0000E+00 0.9000E+01
        2  1    1    2  502    0 -.44457582E+03 -.11806409E+03 -.81855349E+03 0.93894447E+03 0.32000000E+00 0.0000E+00 0.9000E+01
#aMCatNLO 1  0  0  1  5 0.12955692D+02 0.00000000D+00  -5  6  0 0.00000000D+00 0.00000000D+00 0.00000000D+00 0.00000000D+00 0.00000000D+00
  <mgrwgt>
 0.7330877632D-02    7    2    0
 0.105823901852008D+04 0.000000000000000D+00 0.000000000000000D+00 0.105823901852008D+04
 0.105823901852008D+04 0.000000000000000D+00 0.000000000000000D+00 -.105823901852008D+04
 0.646366118943123D+03 0.464468192642593D+03 0.137185889592289D+03 0.409406264531565D+03
 0.474424504224705D+03 -.198267958688687D+02 -.191037239025760D+02 0.473624910775907D+03
 0.995687413872324D+03 -.444641396773725D+03 -.118082165689713D+03 -.883031175307472D+03
 0.000000000000000D+00 -.000000000000000D+00 0.000000000000000D+00 0.000000000000000D+00
 0.136282441296407D+04 0.000000000000000D+00 0.000000000000000D+00 0.136282441296407D+04
 0.132603256473517D+04 0.000000000000000D+00 0.000000000000000D+00 -.132603256473517D+04
 0.709965041486392D+03 0.566271926457662D+03 0.121645386683111D+02 0.409406264531565D+03
 0.488577369865788D+03 0.524543617963988D+02 -.107869505264548D+03 0.473624910775907D+03
 0.978605273482531D+03 -.296454602073187D+03 -.300064815719129D+03 -.883031175307472D+03
 0.511709292864527D+03 -.322271686180874D+03 0.395769782315366D+03 0.367918482289060D+02
0.106184074655D-02 0.000000000000D+00 0.000000000000D+00 0.483995804470D-04 0.000000000000D+00  6 1 2 25 1 2 21 0 0.17403401D+00 0.15230238D+00 0.24391848D+06 0.24391848D+06 0.24391848D+06 0.10912646D+01  1  2  2  1  6  1        1 0.481598255012D-02 0.100000000000D+01
0.532209939385D-03 0.000000000000D+00 -.407774805585D-05 0.483995804470D-04 0.000000000000D+00  6 1 2 25 1 2 21 2 0.17403401D+00 0.15230238D+00 0.24391848D+06 0.24391848D+06 0.24391848D+06 0.10912646D+01  1  2  3  1  6  1        1 0.287454195962D-02 0.100000000000D+01
-.655726161806D-03 0.000000000000D+00 0.000000000000D+00 0.483995804470D-04 0.000000000000D+00  6 1 2 25 1 2 21 2 0.17403401D+00 0.15230238D+00 0.24391848D+06 0.24391848D+06 0.24391848D+06 0.10912646D+01  1  2 15  1  6  1        1 -.354167073300D-02 0.100000000000D+01
-.147315110494D-04 0.000000000000D+00 0.000000000000D+00 0.483995804470D-04 0.000000000000D+00  6 1 2 25 1 2 21 2 0.17403401D+00 0.15230238D+00 0.24391848D+06 0.24391848D+06 0.24391848D+06 0.10912646D+01  1  2  4  1  6  1        1 -.795669969806D-04 0.100000000000D+01
-.505126247447D-03 0.000000000000D+00 -.806918821614D-03 0.483995804470D-04 0.000000000000D+00  6 1 2 25 1 2 21 2 0.25786848D+00 0.15230238D+00 0.24391848D+06 0.24391848D+06 0.24391848D+06 0.10912646D+01  1  2  5  1  6  1        1 -.115611144402D-02 0.100000000000D+01
0.817026085362D-03 0.000000000000D+00 0.748322346339D-03 0.483995804470D-04 0.000000000000D+00  6 1 2 25 1 2 21 2 0.17403401D+00 0.15230238D+00 0.24391848D+06 0.24391848D+06 0.24391848D+06 0.10912646D+01  1  2  6  1  6  1        1 0.441287467722D-02 0.100000000000D+01
0.316181357698D-05 0.000000000000D+00 -.379295464455D-04 0.483995804470D-04 0.000000000000D+00  6 21 2 25 1 2 -1 2 0.25786848D+00 0.15230238D+00 0.24391848D+06 0.24391848D+06 0.24391848D+06 0.10912646D+01  1  2  5  5  6  1        1 0.482761949042D-05 0.100000000000D+01
  </mgrwgt>
  </event>
  <event>
  5     66 0.17698235E-05 0.79503590E+02 0.75467711E-02 0.92878964E-01
        1 -1    0    0  501    0 0.00000000E+00 0.00000000E+00 0.18173470E+04 0.18173470E+04 0.32000000E+00 0.0000E+00 0.9000E+01
        2 -1    0    0  502    0 -.00000000E+00 -.00000000E+00 -.33215270E+04 0.33215271E+04 0.32000000E+00 0.0000E+00 0.9000E+01
       25  1    1    2    0    0 0.28591204E+03 -.39277184E+03 -.21226509E+03 0.54469889E+03 0.12500000E+03 0.0000E+00 0.9000E+01
        1  1    1    2  501    0 0.70627037E+02 0.36507377E+02 0.16285732E+04 0.16305127E+04 0.32000000E+00 0.0000E+00 0.9000E+01
        2  1    1    2  502    0 -.35653907E+03 0.35626447E+03 -.29204881E+04 0.29636625E+04 0.32000000E+00 0.0000E+00 0.9000E+01
#aMCatNLO 1  0  0  4  2 0.50664234D+02 0.00000000D+00  -5  6  0 0.00000000D+00 0.00000000D+00 0.00000000D+00 0.00000000D+00 0.00000000D+00
  <mgrwgt>
 0.6530179184D-03    7    2    0
 0.245690198540173D+04 0.000000000000000D+00 0.000000000000000D+00 0.245690198540173D+04
 0.245690198540173D+04 -.000000000000000D+00 -.000000000000000D+00 -.245690198540173D+04
 0.504692909552437D+03 0.285930526516983D+03 -.392789848841282D+03 -.552250088770335D+02
 0.220369831365910D+04 0.706262208457808D+02 0.365069551405002D+02 0.220226370736553D+04
 0.220541274759191D+04 -.356556747362761D+03 0.356282893700783D+03 -.214703869848850D+04
 0.000000000000000D+00 0.000000000000000D+00 0.000000000000000D+00 0.000000000000000D+00
 0.245690198540173D+04 0.000000000000000D+00 0.000000000000000D+00 0.245690198540173D+04
 0.245690198540173D+04 -.000000000000000D+00 -.000000000000000D+00 -.245690198540173D+04
 0.504624364123192D+03 0.285951764402699D+03 -.392778870899494D+03 -.545627700601545D+02
 0.198243091302470D+04 0.101510190862853D+03 0.662972970321718D+02 0.197871995857756D+04
 0.220258993904486D+04 -.356463994905495D+03 0.356330837789480D+03 -.214414649545172D+04
 0.224158754610702D+03 -.309979603600539D+02 -.298492639221564D+02 0.219989306934321D+03
0.109310110336D-02 0.000000000000D+00 0.000000000000D+00 0.842882520250D-03 0.000000000000D+00  6 1 2 25 1 2 21 0 0.27959185D+00 0.51100416D+00 0.29442547D+06 0.29442547D+06 0.29442547D+06 0.10851550D+01  1  2  2  3  6  4        1 0.727816483592D-04 0.100000000000D+01
0.421080761036D-03 0.000000000000D+00 -.419779605702D-05 0.842882520250D-03 0.000000000000D+00  6 1 2 25 1 2 21 2 0.27959185D+00 0.51100416D+00 0.29442547D+06 0.29442547D+06 0.29442547D+06 0.10851550D+01  1  2  3  3  6  4        1 0.330149424174D-04 0.100000000000D+01
-.748103398543D-03 0.000000000000D+00 0.000000000000D+00 0.842882520250D-03 0.000000000000D+00  6 1 2 25 1 2 21 2 0.27959185D+00 0.51100416D+00 0.29442547D+06 0.29442547D+06 0.29442547D+06 0.10851550D+01  1  2 15  3  6  4        1 -.586552341274D-04 0.100000000000D+01
0.267546575645D-10 0.000000000000D+00 0.000000000000D+00 0.842882520250D-03 0.000000000000D+00  6 1 2 25 1 2 21 2 0.27959185D+00 0.51100416D+00 0.34220348D+06 0.34220348D+06 0.34220348D+06 0.10803479D+01  1  2 12  3  6  4        1 0.204213340553D-11 0.100000000000D+01
-.107914744987D-02 0.000000000000D+00 0.000000000000D+00 0.842882520250D-03 0.000000000000D+00  6 1 2 25 1 2 21 2 0.27959185D+00 0.51100416D+00 0.29442547D+06 0.29442547D+06 0.29442547D+06 0.10851550D+01  1  2  4  3  6  4        1 -.846108257940D-04 0.100000000000D+01
-.824105265241D-01 0.000000000000D+00 0.000000000000D+00 0.842882520250D-03 0.000000000000D+00  6 1 2 25 1 2 21 2 0.27959185D+00 0.51100416D+00 0.29442547D+06 0.29442547D+06 0.29442547D+06 0.10851550D+01  1  2  5  3  6  4        1 -.646141795004D-02 0.100000000000D+01
0.912171738321D-01 0.000000000000D+00 -.000000000000D+00 0.842882520250D-03 0.000000000000D+00  6 1 2 25 1 2 21 2 0.27959185D+00 0.51100416D+00 0.29442547D+06 0.29442547D+06 0.29442547D+06 0.10851550D+01  1  2  6  3  6  4        1 0.715190533552D-02 0.100000000000D+01
  </mgrwgt>
  </event>
  <event>
  6     66 0.17698235E-05 0.33471926E+02 0.75467711E-02 0.91776896E-01
        1 -1    0    0  501    0 0.00000000E+00 0.00000000E+00 0.71724311E+03 0.71724318E+03 0.32000000E+00 0.0000E+00 0.9000E+01
        2 -1    0    0  502    0 -.00000000E+00 -.00000000E+00 -.12355461E+04 0.12355462E+04 0.32000000E+00 0.0000E+00 0.9000E+01
       25  1    1    2    0    0 0.41088322E+03 -.46691411E+03 -.13702003E+03 0.64902488E+03 0.12500000E+03 0.0000E+00 0.9000E+01
        1  1    1    2  501    0 0.45412941E+01 -.19250096E+02 0.33757441E+03 0.33815347E+03 0.32000000E+00 0.0000E+00 0.9000E+01
        2  1    1    2  503    0 -.30938060E+03 0.39420931E+03 -.51954136E+03 0.72183147E+03 0.32000000E+00 0.0000E+00 0.9000E+01
       21  1    1    2  502  503 -.10604391E+03 0.91954900E+02 -.19931603E+03 0.24377952E+03 0.75000000E+00 0.0000E+00 0.9000E+01
#aMCatNLO 2  0  0  5  4 0.35260773D+02 0.00000000D+00  -5  6  0 0.00000000D+00 0.00000000D+00 0.00000000D+00 0.00000000D+00 0.00000000D+00
  <mgrwgt>
 0.2211902018D-01    1    2    0
 0.941375085659493D+03 0.000000000000000D+00 0.000000000000000D+00 0.941375085659493D+03
 0.941375085659493D+03 -.000000000000000D+00 -.000000000000000D+00 -.941375085659493D+03
 0.636701663066827D+03 0.411677681052803D+03 -.467846101493227D+03 0.374902653049963D+02
 0.444154186190316D+03 0.505356896403917D+01 -.198453860713408D+02 0.443681826541032D+03
 0.801894322061844D+03 -.416731250016842D+03 0.487691487564568D+03 -.481172091846029D+03
 0.000000000000000D+00 0.000000000000000D+00 0.000000000000000D+00 -.000000000000000D+00
 0.941375085659493D+03 0.000000000000000D+00 0.000000000000000D+00 0.941375085659493D+03
 0.941375085659493D+03 -.000000000000000D+00 -.000000000000000D+00 -.941375085659493D+03
 0.635542403705017D+03 0.410941069420931D+03 -.466984060975530D+03 0.366397484316593D+02
 0.443529324918359D+03 0.453961254892842D+01 -.192439140948126D+02 0.443088394962847D+03
 0.605559169848119D+03 -.309350456192122D+03 0.394191850096051D+03 -.340024982550873D+03
 0.198119272847492D+03 -.106130225777737D+03 0.920361249742909D+02 -.139703160843634D+03
0.282068517155D-02 0.000000000000D+00 0.000000000000D+00 0.482926209688D-05 0.191329111664D-07  6 1 2 25 1 2 21 2 0.11034510D+00 0.19008403D+00 0.41978733D+06 0.41978733D+06 0.41978733D+06 0.10739192D+01  1  2  1  4  6  5        2 0.221190201826D-01 0.100000000000D+01
  </mgrwgt>
  </event>
  <event>
  5     66 0.17698235E-05 0.23593603E+03 0.75467711E-02 0.89910178E-01
        1 -1    0    0  501    0 0.00000000E+00 0.00000000E+00 0.28987252E+04 0.28987252E+04 0.32000000E+00 0.0000E+00 0.9000E+01
        2 -1    0    0  502    0 0.00000000E+00 0.00000000E+00 -.12211617E+04 0.12211617E+04 0.32000000E+00 0.0000E+00 0.9000E+01
       25  1    1    2    0    0 -.26684995E+03 -.38071531E+03 -.25282611E+02 0.48209673E+03 0.12500000E+03 0.0000E+00 0.9000E+01
        1  1    1    2  501    0 0.46199811E+03 0.24813111E+03 0.26296491E+04 0.26814298E+04 0.32000000E+00 0.0000E+00 0.9000E+01
        2  1    1    2  502    0 -.19514816E+03 0.13258420E+03 -.92680296E+03 0.95636039E+03 0.32000000E+00 0.0000E+00 0.9000E+01
#aMCatNLO 1  0  0  2  4 0.75769767D+01 0.00000000D+00  -5  6  0 0.00000000D+00 0.00000000D+00 0.00000000D+00 0.00000000D+00 0.00000000D+00
  <mgrwgt>
 0.3884069005D-02    7    2    0
 0.188143885733298D+04 0.000000000000000D+00 0.000000000000000D+00 0.188143885733298D+04
 0.188143885733298D+04 0.000000000000000D+00 0.000000000000000D+00 -.188143885733298D+04
 0.539091169996624D+03 -.266840401206716D+03 -.380720361610930D+03 -.242574722728916D+03
 0.176347674933783D+04 0.461995561459555D+03 0.248129739160427D+03 0.168369889801917D+04
 0.146030979533150D+04 -.195155160252839D+03 0.132590622450503D+03 -.144112417529025D+04
 0.000000000000000D+00 0.000000000000000D+00 -.000000000000000D+00 -.000000000000000D+00
 0.192742150952998D+04 0.000000000000000D+00 0.000000000000000D+00 0.192742150952998D+04
 0.229156320135203D+04 0.000000000000000D+00 0.000000000000000D+00 -.229156320135203D+04
 0.545073804235047D+03 -.300233878100895D+03 -.364002162626478D+03 -.242574722728916D+03
 0.174683426304822D+04 0.353874110878136D+03 0.302259949411846D+03 0.168369889801917D+04
 0.147990952574722D+04 -.285717158007693D+03 0.177929821590893D+03 -.144112417529025D+04
 0.447167117851527D+03 0.232076925230452D+03 -.116187608376261D+03 -.364141691822051D+03
0.880730320540D-02 0.000000000000D+00 0.000000000000D+00 0.866764073111D-05 0.000000000000D+00  6 1 2 25 1 2 21 0 0.44595772D+00 0.18787103D+00 0.38550461D+06 0.38550461D+06 0.38550461D+06 0.10765851D+01  1  2  2  2  6  2        2 0.172276678088D-02 0.100000000000D+01
0.974703070475D-03 0.000000000000D+00 -.338223633249D-04 0.866764073111D-05 0.000000000000D+00  6 1 2 25 1 2 21 2 0.44595772D+00 0.18787103D+00 0.38550461D+06 0.38550461D+06 0.38550461D+06 0.10765851D+01  1  2  3  2  6  2        2 0.220979834701D-03 0.100000000000D+01
-.587950894335D-02 0.000000000000D+00 0.000000000000D+00 0.866764073111D-05 0.000000000000D+00  6 1 2 25 1 2 21 2 0.44595772D+00 0.18787103D+00 0.38550461D+06 0.38550461D+06 0.38550461D+06 0.10765851D+01  1  2 15  2  6  2        2 -.133297303946D-02 0.100000000000D+01
-.102914201355D-02 0.000000000000D+00 0.000000000000D+00 0.866764073111D-05 0.000000000000D+00  6 1 2 25 1 2 21 2 0.44595772D+00 0.18787103D+00 0.38550461D+06 0.38550461D+06 0.38550461D+06 0.10765851D+01  1  2  4  2  6  2        2 -.233321961249D-03 0.100000000000D+01
-.476449564770D-01 0.000000000000D+00 -.987854384931D-02 0.866764073111D-05 0.000000000000D+00  6 1 2 25 1 2 21 2 0.44595772D+00 0.23111234D+00 0.38550461D+06 0.38550461D+06 0.38550461D+06 0.10765851D+01  1  2  5  2  6  2        2 -.749844449324D-02 0.100000000000D+01
0.488477107972D-01 0.000000000000D+00 0.967032226289D-02 0.866764073111D-05 0.000000000000D+00  6 1 2 25 1 2 21 2 0.44595772D+00 0.18787103D+00 0.38550461D+06 0.38550461D+06 0.38550461D+06 0.10765851D+01  1  2  6  2  6  2        2 0.110745101605D-01 0.100000000000D+01
-.127971836007D-02 0.000000000000D+00 -.290384246234D-03 0.866764073111D-05 0.000000000000D+00  6 1 21 25 1 2 -2 2 0.44595772D+00 0.23111234D+00 0.38550461D+06 0.38550461D+06 0.38550461D+06 0.10765851D+01  1  2  5  6  6  2        2 -.694482768284D-04 0.100000000000D+01
  </mgrwgt>
  </event>
  <event>
  5     66 0.17698235E-05 0.11870521E+03 0.75467711E-02 0.88278231E-01
        1 -1    0    0  501    0 0.00000000E+00 0.00000000E+00 0.16037136E+04 0.16037136E+04 0.32000000E+00 0.0000E+00 0.9000E+01
        2 -1    0    0  502    0 0.00000000E+00 0.00000000E+00 -.29638978E+04 0.29638978E+04 0.32000000E+00 0.0000E+00 0.9000E+01
       25  1    1    2    0    0 0.81854865E+02 -.81816029E+03 0.31338620E+03 0.88877578E+03 0.12500000E+03 0.0000E+00 0.9000E+01
        1  1    1    2  501    0 -.11863576E+03 -.43899958E+01 0.93546162E+03 0.94296461E+03 0.32000000E+00 0.0000E+00 0.9000E+01
        2  1    1    2  502    0 0.36780899E+02 0.82255029E+03 -.26090321E+04 0.27358710E+04 0.32000000E+00 0.0000E+00 0.9000E+01
#aMCatNLO 1  0  0  1  4 0.36974419D+02 0.00000000D+00  -5  6  0 0.00000000D+00 0.00000000D+00 0.00000000D+00 0.00000000D+00 0.00000000D+00
  <mgrwgt>
 0.2790601931D-02   11    2    0
 0.218019339791236D+04 0.000000000000000D+00 0.000000000000000D+00 0.218019339791236D+04
 0.218019339791236D+04 0.000000000000000D+00 0.000000000000000D+00 -.218019339791236D+04
 0.102888569174324D+04 0.818424459140804D+02 -.818218734417683D+03 0.605640721359357D+03
 0.127946076720490D+04 -.118624023363071D+03 -.438956136359602D+01 0.127394227798937D+04
 0.205204033687659D+04 0.367815774489908D+02 0.822608295781279D+03 -.187958299934873D+04
 0.000000000000000D+00 0.000000000000000D+00 -.000000000000000D+00 0.000000000000000D+00
 0.299027131095966D+04 0.000000000000000D+00 0.000000000000000D+00 0.299027131095966D+04
 0.218069372579174D+04 0.000000000000000D+00 0.000000000000000D+00 -.218069372579174D+04
 0.102276749234306D+04 0.770114705342381D+02 -.810985137614243D+03 0.605640721359357D+03
 0.128003446400784D+04 -.124650801447555D+03 0.463455473289019D+01 0.127394227798937D+04
 0.205774160114654D+04 0.271043788302817D+02 0.837098320567295D+03 -.187958299934873D+04
 0.810421479253957D+03 0.205349520830351D+02 -.307477376859424D+02 0.809577585167917D+03
0.857939782801D-04 0.000000000000D+00 0.000000000000D+00 0.117959859033D-04 0.000000000000D+00  6 1 2 25 1 2 21 0 0.24672517D+00 0.45598429D+00 0.78666577D+06 0.78666577D+06 0.78666577D+06 0.10548721D+01  1  2  2  1  6  1        1 0.122181311210D-04 0.100000000000D+01
0.247464450528D-04 0.000000000000D+00 -.329471466669D-06 0.117959859033D-04 0.000000000000D+00  6 1 2 25 1 2 21 2 0.24672517D+00 0.45598429D+00 0.78666577D+06 0.78666577D+06 0.78666577D+06 0.10548721D+01  1  2  3  1  6  1        1 0.392157393470D-05 0.100000000000D+01
-.525882382988D-04 0.000000000000D+00 0.000000000000D+00 0.117959859033D-04 0.000000000000D+00  6 1 2 25 1 2 21 2 0.24672517D+00 0.45598429D+00 0.78666577D+06 0.78666577D+06 0.78666577D+06 0.10548721D+01  1  2 15  1  6  1        1 -.833366829636D-05 0.100000000000D+01
0.369943394576D-01 0.000000000000D+00 0.000000000000D+00 0.117959859033D-04 0.000000000000D+00  6 1 2 25 1 2 21 2 0.36253737D+00 0.45598429D+00 0.83121168D+06 0.83121168D+06 0.83121168D+06 0.10532507D+01  1  2 12  1  6  1        1 0.179495136628D-02 0.100000000000D+01
0.271553024742D-08 0.000000000000D+00 0.000000000000D+00 0.117959859033D-04 0.000000000000D+00  6 1 2 25 1 2 21 2 0.33842311D+00 0.45598429D+00 0.83121168D+06 0.83121168D+06 0.83121168D+06 0.10532507D+01  1  2 12  1  6  1        1 0.168800580543D-09 0.100000000000D+01
-.207211163956D-01 0.000000000000D+00 0.000000000000D+00 0.117959859033D-04 0.000000000000D+00  6 1 2 25 1 2 21 2 0.24672517D+00 0.45598429D+00 0.78666577D+06 0.78666577D+06 0.78666577D+06 0.10548721D+01  1  2  4  1  6  1        1 -.328367932369D-02 0.100000000000D+01
-.486613428461D-01 0.000000000000D+00 -.694935553452D-04 0.117959859033D-04 0.000000000000D+00  6 1 2 25 1 2 21 2 0.33842065D+00 0.45598429D+00 0.78666577D+06 0.78666577D+06 0.78666577D+06 0.10548721D+01  1  2  5  1  6  1        1 -.305373305390D-02 0.100000000000D+01
0.463527929637D-01 0.000000000000D+00 0.661623128972D-04 0.117959859033D-04 0.000000000000D+00  6 1 2 25 1 2 21 2 0.24672517D+00 0.45598429D+00 0.78666577D+06 0.78666577D+06 0.78666577D+06 0.10548721D+01  1  2  6  1  6  1        1 0.734553606786D-02 0.100000000000D+01
0.171190411353D-02 0.000000000000D+00 0.000000000000D+00 0.117959859033D-04 0.000000000000D+00  6 21 2 25 1 2 -1 2 0.36253737D+00 0.45598429D+00 0.83121168D+06 0.83121168D+06 0.83121168D+06 0.10532507D+01  1  2 12  5  6  1        1 0.300692804974D-04 0.100000000000D+01
0.108984946690D-09 0.000000000000D+00 0.000000000000D+00 0.117959859033D-04 0.000000000000D+00  6 21 2 25 1 2 -1 2 0.33842311D+00 0.45598429D+00 0.83121168D+06 0.83121168D+06 0.83121168D+06 0.10532507D+01  1  2 12  5  6  1        1 0.277851688146D-11 0.100000000000D+01
-.195125152117D-02 0.000000000000D+00 -.278900432715D-05 0.117959859033D-04 0.000000000000D+00  6 21 2 25 1 2 -1 2 0.33842065D+00 0.45598429D+00 0.78666577D+06 0.78666577D+06 0.78666577D+06 0.10548721D+01  1  2  5  5  6  1        1 -.503486147264D-04 0.100000000000D+01
  </mgrwgt>
  </event>
  <event>
  5     66 -.17698235E-05 0.37042541E+02 0.75467711E-02 0.95566673E-01
        1 -1    0    0  501    0 0.00000000E+00 0.00000000E+00 0.13967540E+04 0.13967540E+04 0.32000000E+00 0.0000E+00 0.9000E+01
        2 -1    0    0  502    0 -.00000000E+00 -.00000000E+00 -.16720256E+04 0.16720256E+04 0.32000000E+00 0.0000E+00 0.9000E+01
       25  1    1    2    0    0 -.21977623E+03 0.39440389E+03 0.10546436E+04 0.11540166E+04 0.12500000E+03 0.0000E+00 0.9000E+01
        1  1    1    2  501    0 0.24316745E+02 -.27986708E+02 0.26453315E+03 0.26711880E+03 0.32000000E+00 0.0000E+00 0.9000E+01
        2  1    1    2  502    0 0.19545948E+03 -.36641718E+03 -.15944484E+04 0.16476443E+04 0.32000000E+00 0.0000E+00 0.9000E+01
#aMCatNLO 1  0  0  5  2 0.79553098D+01 0.00000000D+00  -5  6  0 0.00000000D+00 0.00000000D+00 0.00000000D+00 0.00000000D+00 0.00000000D+00
  <mgrwgt>
 -.6218894539D-02    9    2    0
 0.152820436188156D+04 0.000000000000000D+00 0.000000000000000D+00 0.152820436188156D+04
 0.152820436188156D+04 -.000000000000000D+00 -.000000000000000D+00 -.152820436188156D+04
 0.125391475968538D+04 -.219775809486859D+03 0.394418128893063D+03 0.116310367453711D+04
 0.291768520619953D+03 0.242954173012710D+02 -.279621622117616D+02 0.289407532395680D+03
 0.151072544345779D+04 0.195480392185588D+03 -.366455966681302D+03 -.145251120693279D+04
 0.000000000000000D+00 0.000000000000000D+00 0.000000000000000D+00 -.000000000000000D+00
 0.152820436188156D+04 0.000000000000000D+00 0.000000000000000D+00 0.152820436188156D+04
 0.152820436188156D+04 -.000000000000000D+00 -.000000000000000D+00 -.152820436188156D+04
 0.125372237830117D+04 -.219750685465595D+03 0.394371030320177D+03 0.116291699124862D+04
 0.291726970918536D+03 0.243012633437127D+02 -.279731214548359D+02 0.289364093552184D+03
 0.144061911310862D+04 0.192354445747004D+03 -.354321485589246D+03 -.138305440280021D+04
 0.703402614347971D+02 0.309497637487876D+01 -.120764232760950D+02 -.692266820005923D+02
0.116729383996D-04 0.000000000000D+00 0.000000000000D+00 0.708591376183D-04 0.000000000000D+00  6 1 2 25 1 2 21 0 0.21488524D+00 0.25723471D+00 0.21200344D+06 0.21200344D+06 0.21200344D+06 0.10958866D+01  1  2  2  4  6  5        2 0.143010297458D-04 0.100000000000D+01
0.181799554457D-05 0.000000000000D+00 -.448271570097D-07 0.708591376183D-04 0.000000000000D+00  6 1 2 25 1 2 21 2 0.21488524D+00 0.25723471D+00 0.21200344D+06 0.21200344D+06 0.21200344D+06 0.10958866D+01  1  2  3  4  6  5        2 0.267492207156D-05 0.100000000000D+01
-.779755704380D-05 0.000000000000D+00 0.000000000000D+00 0.708591376183D-04 0.000000000000D+00  6 1 2 25 1 2 21 2 0.21488524D+00 0.25723471D+00 0.21200344D+06 0.21200344D+06 0.21200344D+06 0.10958866D+01  1  2 15  4  6  5        2 -.114729970065D-04 0.100000000000D+01
0.363792587568D-02 0.000000000000D+00 0.000000000000D+00 0.708591376183D-04 0.000000000000D+00  6 1 2 25 1 2 21 2 0.21488524D+00 0.25723471D+00 0.21212340D+06 0.21212340D+06 0.21212340D+06 0.10958678D+01  1  2 12  4  6  5        2 0.535226869144D-02 0.100000000000D+01
0.425474492155D-09 0.000000000000D+00 0.000000000000D+00 0.708591376183D-04 0.000000000000D+00  6 1 2 25 1 2 21 2 0.21488524D+00 0.25723471D+00 0.21212340D+06 0.21212340D+06 0.21212340D+06 0.10958678D+01  1  2 12  4  6  5        2 0.625975866795D-09 0.100000000000D+01
-.816043948047D-02 0.000000000000D+00 0.000000000000D+00 0.708591376183D-04 0.000000000000D+00  6 1 2 25 1 2 21 2 0.21488524D+00 0.25723471D+00 0.21200344D+06 0.21200344D+06 0.21200344D+06 0.10958866D+01  1  2  4  4  6  5        2 -.120069269395D-01 0.100000000000D+01
-.400982382905D-02 0.000000000000D+00 0.000000000000D+00 0.708591376183D-04 0.000000000000D+00  6 1 2 25 1 2 21 2 0.21488524D+00 0.25723471D+00 0.21200344D+06 0.21200344D+06 0.21200344D+06 0.10958866D+01  1  2  5  4  6  5        2 -.589988589105D-02 0.100000000000D+01
0.420086506399D-02 0.000000000000D+00 -.000000000000D+00 0.708591376183D-04 0.000000000000D+00  6 1 2 25 1 2 21 2 0.21488524D+00 0.25723471D+00 0.21200344D+06 0.21200344D+06 0.21200344D+06 0.10958866D+01  1  2  6  4  6  5        2 0.618097591760D-02 0.100000000000D+01
0.101390607210D-03 0.000000000000D+00 0.000000000000D+00 0.708591376183D-04 0.158168741524D-04  6 1 2 25 1 2 21 2 0.21488524D+00 0.25723471D+00 0.21212340D+06 0.21212340D+06 0.21212340D+06 0.10958678D+01  1  2 11  4  6  5        2 0.149170101624D-03 0.100000000000D+01
  </mgrwgt>
  </event>
  <event>
  6     66 -.17698235E-05 0.13095076E+03 0.75467711E-02 0.93094343E-01
        1 -1    0    0  501    0 0.00000000E+00 0.00000000E+00 0.14561504E+04 0.14561504E+04 0.32000000E+00 0.0000E+00 0.9000E+01
        2 -1    0    0  502    0 0.00000000E+00 0.00000000E+00 -.31941723E+03 0.31941739E+03 0.32000000E+00 0.0000E+00 0.9000E+01
       25  1    1    2    0    0 0.38578882E+03 -.29120577E+03 0.30841350E+03 0.58683704E+03 0.12500000E+03 0.0000E+00 0.9000E+01
        1  1    1    2  501    0 -.47132372E+03 0.17630757E+03 0.89333399E+03 0.10253176E+04 0.32000000E+00 0.0000E+00 0.9000E+01
        2  1    1    2  503    0 0.72499977E+02 0.83033616E+02 -.66868366E+02 0.12892753E+03 0.32000000E+00 0.0000E+00 0.9000E+01
       21  1    1    2  502  503 0.13034917E+02 0.31864585E+02 0.18540171E+01 0.34485659E+02 0.75000000E+00 0.0000E+00 0.9000E+01
#aMCatNLO 2  0  0  5  2 0.16155757D+02 0.00000000D+00  -5  6  0 0.00000000D+00 0.00000000D+00 0.00000000D+00 0.00000000D+00 0.00000000D+00
  <mgrwgt>
 -.8215634093D-02    4    2    0
 0.681996843525083D+03 0.000000000000000D+00 0.000000000000000D+00 0.681996843525083D+03
 0.681996843525083D+03 -.000000000000000D+00 -.000000000000000D+00 -.681996843525083D+03
 0.506731048269431D+03 0.385391036209500D+03 -.291782207835442D+03 -.865346617274191D+02
 0.591163110152420D+03 -.471880825126624D+03 0.175622020736299D+03 0.309772845025831D+03
 0.266099528628316D+03 0.864897889171235D+02 0.116160187099143D+03 -.223238183298412D+03
 0.000000000000000D+00 0.000000000000000D+00 0.000000000000000D+00 0.000000000000000D+00
 0.681996843525083D+03 0.000000000000000D+00 0.000000000000000D+00 0.681996843525083D+03
 0.681996843525083D+03 -.000000000000000D+00 -.000000000000000D+00 -.681996843525083D+03
 0.506924478798466D+03 0.385838718583120D+03 -.291180947629679D+03 -.876901715399985D+02
 0.590250574895945D+03 -.471359052129164D+03 0.176322788419595D+03 0.308426100427360D+03
 0.223389273813141D+03 0.724560939059133D+02 0.829228538142087D+02 -.194362245371799D+03
 0.434293595426148D+02 0.130642396401306D+02 0.319353053958761D+02 -.263736835155629D+02
-.113772704066D-02 0.000000000000D+00 0.000000000000D+00 0.476107267233D-07 0.000000000000D+00  6 1 2 25 1 2 21 2 0.22402315D+00 0.49141128D-01 0.32899602D+06 0.32899602D+06 0.32899602D+06 0.10815997D+01  1  2 13  4  6  5        2 -.136061814765D-01 0.100000000000D+01
-.428651786385D-05 0.000000000000D+00 0.000000000000D+00 0.476107267233D-07 0.000000000000D+00  6 1 2 25 1 2 21 2 0.22402315D+00 0.49141128D-01 0.32899602D+06 0.32899602D+06 0.32899602D+06 0.10815997D+01  1  2 13  4  6  5        2 -.512628582020D-04 0.100000000000D+01
-.175246930909D-03 0.000000000000D+00 0.000000000000D+00 0.476107267233D-07 0.000000000000D+00  6 1 2 25 1 2 21 2 0.22402315D+00 0.49141128D-01 0.32925381D+06 0.32925381D+06 0.32925381D+06 0.10815748D+01  1  2  8  4  6  5        2 -.209563152297D-02 0.100000000000D+01
0.630268773664D-03 0.000000000000D+00 0.000000000000D+00 0.476107267233D-07 0.316623099320D-09  6 1 2 25 1 2 21 2 0.22402315D+00 0.49141128D-01 0.32899602D+06 0.32899602D+06 0.32899602D+06 0.10815997D+01  1  2  1  4  6  5        2 0.753744176504D-02 0.100000000000D+01
  </mgrwgt>
  </event>
  <event>
  5     66 -.17698235E-05 0.15361647E+02 0.75467711E-02 0.92126980E-01
        1 -1    0    0  501    0 0.00000000E+00 0.00000000E+00 0.14863658E+04 0.14863659E+04 0.32000000E+00 0.0000E+00 0.9000E+01
        2 -1    0    0  502    0 0.00000000E+00 0.00000000E+00 -.11937381E+04 0.11937381E+04 0.32000000E+00 0.0000E+00 0.9000E+01
       25  1    1    2    0    0 -.20662263E+03 0.57895822E+03 -.12192072E+02 0.62742265E+03 0.12500000E+03 0.0000E+00 0.9000E+01
        1  1    1    2  501    0 0.15279315E+02 0.16003076E+01 0.10717980E+04 0.10719081E+04 0.32000000E+00 0.0000E+00 0.9000E+01
        2  1    1    2  502    0 0.19134332E+03 -.58055853E+03 -.76697817E+03 0.98077321E+03 0.32000000E+00 0.0000E+00 0.9000E+01
#aMCatNLO 1  0  0  4  1 0.13150762D+01 0.00000000D+00  -5  6  0 0.00000000D+00 0.00000000D+00 0.00000000D+00 0.00000000D+00 0.00000000D+00
  <mgrwgt>
 -.1199088607D-01    9    2    0
 0.133204039728953D+04 0.000000000000000D+00 0.000000000000000D+00 0.133204039728953D+04
 0.133204039728953D+04 -.000000000000000D+00 -.000000000000000D+00 -.133204039728953D+04
 0.632590995777138D+03 -.206642512966483D+03 0.579020127603127D+03 -.811229412907743D+02
 0.960548939642383D+03 0.152780771160196D+02 0.160017794336090D+01 0.960426095667070D+03
 0.107094085915954D+04 0.191364435850468D+03 -.580620305546487D+03 -.879303154376296D+03
 0.000000000000000D+00 0.000000000000000D+00 0.000000000000000D+00 0.000000000000000D+00
 0.133204039728953D+04 0.000000000000000D+00 0.000000000000000D+00 0.133204039728953D+04
 0.133204039728953D+04 -.000000000000000D+00 -.000000000000000D+00 -.133204039728953D+04
 0.632590807157260D+03 -.206642490219889D+03 0.579020129985534D+03 -.811215113711077D+02
 0.784826510278482D+03 0.137905319282785D+02 0.116740523214811D+01 0.784704472798556D+03
 0.107093887626423D+04 0.191364474359139D+03 -.580620301513209D+03 -.879300733604870D+03
 0.175724600879081D+03 0.148748393247563D+01 0.432766295528141D+00 0.175717772177422D+03
0.105763206931D-05 0.000000000000D+00 0.000000000000D+00 0.493765002465D-04 0.000000000000D+00  6 1 2 25 1 2 21 0 0.22867167D+00 0.18365202D+00 0.39317448D+06 0.39317448D+06 0.39317448D+06 0.10759669D+01  1  2  2  3  6  4        1 0.198987499555D-05 0.100000000000D+01
0.113556892264D-05 0.000000000000D+00 -.406158562708D-08 0.493765002465D-04 0.000000000000D+00  6 1 2 25 1 2 21 2 0.22867167D+00 0.18365202D+00 0.39317448D+06 0.39317448D+06 0.39317448D+06 0.10759669D+01  1  2  3  3  6  4        1 0.247344631202D-05 0.100000000000D+01
-.715088238134D-06 0.000000000000D+00 0.000000000000D+00 0.493765002465D-04 0.000000000000D+00  6 1 2 25 1 2 21 2 0.22867167D+00 0.18365202D+00 0.39317448D+06 0.39317448D+06 0.39317448D+06 0.10759669D+01  1  2 15  3  6  4        1 -.155757376776D-05 0.100000000000D+01
0.243737463073D-05 0.000000000000D+00 0.000000000000D+00 0.493765002465D-04 0.000000000000D+00  6 1 2 25 1 2 21 2 0.22867167D+00 0.18365202D+00 0.39319164D+06 0.39319164D+06 0.39319164D+06 0.10759655D+01  1  2 12  3  6  4        1 0.530895318453D-05 0.100000000000D+01
0.231762896329D-12 0.000000000000D+00 0.000000000000D+00 0.493765002465D-04 0.000000000000D+00  6 1 2 25 1 2 21 2 0.22867167D+00 0.18365202D+00 0.39319164D+06 0.39319164D+06 0.39319164D+06 0.10759655D+01  1  2 12  3  6  4        1 0.504812986485D-12 0.100000000000D+01
-.818853662116D-01 0.000000000000D+00 0.000000000000D+00 0.493765002465D-04 0.000000000000D+00  6 1 2 25 1 2 21 2 0.22867167D+00 0.18365202D+00 0.39317448D+06 0.39317448D+06 0.39317448D+06 0.10759669D+01  1  2  4  3  6  4        1 -.178359105314D+00 0.100000000000D+01
-.314213403495D-01 0.000000000000D+00 0.000000000000D+00 0.493765002465D-04 0.000000000000D+00  6 1 2 25 1 2 21 2 0.22867167D+00 0.18365202D+00 0.39317448D+06 0.39317448D+06 0.39317448D+06 0.10759669D+01  1  2  5  3  6  4        1 -.684405823873D-01 0.100000000000D+01
0.376848662385D-01 0.000000000000D+00 -.000000000000D+00 0.493765002465D-04 0.000000000000D+00  6 1 2 25 1 2 21 2 0.22867167D+00 0.18365202D+00 0.39317448D+06 0.39317448D+06 0.39317448D+06 0.10759669D+01  1  2  6  3  6  4        1 0.820835191580D-01 0.100000000000D+01
0.701133902902D-01 0.000000000000D+00 0.000000000000D+00 0.493765002465D-04 0.403925024615D-03  6 1 2 25 1 2 21 2 0.22867167D+00 0.18365202D+00 0.39319164D+06 0.39319164D+06 0.39319164D+06 0.10759655D+01  1  2 11  3  6  4        1 0.152717067769D+00 0.100000000000D+01
  </mgrwgt>
  </event>
  <event>
  5     66 0.17698235E-05 0.22536751E+03 0.75467711E-02 0.92663737E-01
        1 -1    0    0  501    0 0.00000000E+00 0.00000000E+00 0.92113617E+03 0.92113623E+03 0.32000000E+00 0.0000E+00 0.9000E+01
        2 -1    0    0  502    0 -.00000000E+00 -.00000000E+00 -.11045986E+04 0.11045987E+04 0.32000000E+00 0.0000E+00 0.9000E+01
       25  1    1    2    0    0 0.24812483E+03 -.40929634E+03 -.13403605E+02 0.49486774E+03 0.12500000E+03 0.0000E+00 0.9000E+01
        1  1    1    2  501    0 -.29450190E+03 0.18878359E+03 0.61859378E+03 0.71065391E+03 0.32000000E+00 0.0000E+00 0.9000E+01
        2  1    1    2  502    0 0.46377075E+02 0.22051275E+03 -.78865261E+03 0.82021324E+03 0.32000000E+00 0.0000E+00 0.9000E+01
#aMCatNLO 1  0  0  4  2 0.17567260D+03 0.00000000D+00  -5  6  0 0.00000000D+00 0.00000000D+00 0.00000000D+00 0.00000000D+00 0.00000000D+00
  <mgrwgt>
 0.8894387444D-04    5    2    0
 0.100870502969529D+04 0.000000000000000D+00 0.000000000000000D+00 0.100870502969529D+04
 0.100870502969529D+04 -.000000000000000D+00 -.000000000000000D+00 -.100870502969529D+04
 0.495698002591585D+03 0.248099738321966D+03 -.409312551197359D+03 0.316427724791530D+02
 0.769781412977828D+03 -.294479102126052D+03 0.188768973783367D+03 0.685719882104895D+03
 0.751930643821160D+03 0.463793638040857D+02 0.220543577413992D+03 -.717362654584047D+03
 0.000000000000000D+00 0.000000000000000D+00 0.000000000000000D+00 0.000000000000000D+00
 0.100870502969529D+04 0.000000000000000D+00 0.000000000000000D+00 0.100870502969529D+04
 0.100870502969529D+04 -.000000000000000D+00 -.000000000000000D+00 -.100870502969529D+04
 0.487040251347489D+03 0.237477796882295D+03 -.402503602885993D+03 0.563768754397730D+02
 0.225884228237645D+03 0.100291177084675D+02 0.197384693417562D+03 0.109372684747890D+03
 0.719048448810218D+03 0.304802637962412D+02 0.230735325388268D+03 -.680340234642389D+03
 0.585437130995221D+03 -.277987178387004D+03 -.256164159198368D+02 0.514590674454726D+03
0.456634832565D-03 0.000000000000D+00 0.000000000000D+00 0.165089629317D-05 0.000000000000D+00  6 1 2 25 1 2 21 0 0.14171326D+00 0.16993826D+00 0.28614078D+06 0.28614078D+06 0.28614078D+06 0.10860749D+01  1  2  2  3  6  4        1 0.252305558327D-02 0.100000000000D+01
0.429453318508D-04 0.000000000000D+00 -.175359799176D-05 0.165089629317D-05 0.000000000000D+00  6 1 2 25 1 2 21 2 0.14171326D+00 0.16993826D+00 0.28614078D+06 0.28614078D+06 0.28614078D+06 0.10860749D+01  1  2  3  3  6  4        1 0.279893810371D-03 0.100000000000D+01
-.279461091051D-03 0.000000000000D+00 0.000000000000D+00 0.165089629317D-05 0.000000000000D+00  6 1 2 25 1 2 21 2 0.14171326D+00 0.16993826D+00 0.28614078D+06 0.28614078D+06 0.28614078D+06 0.10860749D+01  1  2 15  3  6  4        1 -.182137210853D-02 0.100000000000D+01
0.135823284482D-08 0.000000000000D+00 0.000000000000D+00 0.165089629317D-05 0.000000000000D+00  6 1 2 25 1 2 21 2 0.14171326D+00 0.16993826D+00 0.35599745D+06 0.35599745D+06 0.35599745D+06 0.10790954D+01  1  2 12  3  6  4        1 0.864101857800D-08 0.100000000000D+01
-.136961975268D-03 0.000000000000D+00 0.000000000000D+00 0.165089629317D-05 0.000000000000D+00  6 1 2 25 1 2 21 2 0.14171326D+00 0.16993826D+00 0.28614078D+06 0.28614078D+06 0.28614078D+06 0.10860749D+01  1  2  5  3  6  4        1 -.892642051687D-03 0.100000000000D+01
  </mgrwgt>
  </event>
  <event>
  6     66 -.17698235E-05 0.31566229E+02 0.75467711E-02 0.92697346E-01
        1 -1    0    0  503    0 0.00000000E+00 0.00000000E+00 0.17997226E+04 0.17997226E+04 0.32000000E+00 0.0000E+00 0.9000E+01
        2 -1    0    0  502    0 0.00000000E+00 0.00000000E+00 -.12399799E+04 0.12399800E+04 0.32000000E+00 0.0000E+00 0.9000E+01
       25  1    1    2    0    0 0.59052477E+02 0.50630453E+03 0.28420168E+02 0.52560839E+03 0.12500000E+03 0.0000E+00 0.9000E+01
        1  1    1    2  501    0 -.76735620E+02 -.57743524E+03 0.13223331E+04 0.14449514E+04 0.32000000E+00 0.0000E+00 0.9000E+01
        2  1    1    2  502    0 -.69690711E+01 0.47971146E+02 -.92737644E+03 0.92864254E+03 0.32000000E+00 0.0000E+00 0.9000E+01
       21  1    1    2  503  501 0.24652213E+02 0.23159565E+02 0.13636588E+03 0.14050022E+03 0.75000000E+00 0.0000E+00 0.9000E+01
#aMCatNLO 2  0  0  1  4 0.33824504D+02 0.00000000D+00  -5  6  0 0.00000000D+00 0.00000000D+00 0.00000000D+00 0.00000000D+00 0.00000000D+00
  <mgrwgt>
 -.2046673202D-01    6    2    0
 0.143396150020450D+04 0.000000000000000D+00 0.000000000000000D+00 0.143396150020450D+04
 0.143396150020450D+04 0.000000000000000D+00 0.000000000000000D+00 -.143396150020450D+04
 0.531719813051161D+03 0.636016699101845D+02 0.510563875444902D+03 -.487884849783227D+02
 0.126015313062316D+04 -.658798429023505D+02 -.567226365760408D+03 0.112334322845013D+04
 0.107605005673467D+04 0.227817299216606D+01 0.566624903155057D+02 -.107455474347181D+04
 0.000000000000000D+00 0.000000000000000D+00 0.000000000000000D+00 0.000000000000000D+00
 0.155355839536349D+04 0.000000000000000D+00 0.000000000000000D+00 0.155355839536349D+04
 0.143645479417398D+04 0.000000000000000D+00 0.000000000000000D+00 -.143645479417398D+04
 0.527087086315353D+03 0.590511596939300D+02 0.506288890686661D+03 -.487884849783227D+02
 0.126538763189852D+04 -.767340402524982D+02 -.577423360389509D+03 0.112334322845013D+04
 0.107564773965472D+04 -.696933267730059D+01 0.479749049877107D+02 -.107455474347181D+04
 0.121890731668880D+03 0.246522132358689D+02 0.231595647151369D+02 0.117103601189517D+03
-.468531992618D-01 0.000000000000D+00 0.000000000000D+00 0.624592343146D-04 0.000000000000D+00  6 1 2 25 1 2 21 2 0.28162318D+00 0.19043488D+00 0.35380303D+06 0.35380303D+06 0.35380303D+06 0.10792911D+01  1  2 13  1  6  1        1 -.573958605978D-01 0.100000000000D+01
-.275781073955D-08 0.000000000000D+00 0.000000000000D+00 0.624592343146D-04 0.000000000000D+00  6 1 2 25 1 2 21 2 0.27716874D+00 0.19043488D+00 0.35380303D+06 0.35380303D+06 0.35380303D+06 0.10792911D+01  1  2 13  1  6  1        1 -.353157076368D-08 0.100000000000D+01
-.169907451314D-02 0.000000000000D+00 0.000000000000D+00 0.624592343146D-04 0.000000000000D+00  6 1 2 25 1 2 21 2 0.25556524D+00 0.19043488D+00 0.33479205D+06 0.33479205D+06 0.33479205D+06 0.10810437D+01  1  2  8  1  6  1        1 -.271830231491D-02 0.100000000000D+01
-.274387546435D-02 0.000000000000D+00 0.000000000000D+00 0.624592343146D-04 0.000000000000D+00  6 1 2 25 1 2 21 2 0.27705076D+00 0.19043488D+00 0.33479205D+06 0.33479205D+06 0.33479205D+06 0.10810437D+01  1  2  9  1  6  1        1 -.354389894187D-02 0.100000000000D+01
0.273495983808D-02 0.000000000000D+00 0.000000000000D+00 0.624592343146D-04 0.000000000000D+00  6 1 2 25 1 2 21 2 0.25556524D+00 0.19043488D+00 0.33479205D+06 0.33479205D+06 0.33479205D+06 0.10810437D+01  1  2 10  1  6  1        1 0.437558659232D-02 0.100000000000D+01
0.303107440982D-01 0.000000000000D+00 0.000000000000D+00 0.624592343146D-04 0.180564622608D-06  6 1 2 25 1 2 21 2 0.27688018D+00 0.19076599D+00 0.35380303D+06 0.35380303D+06 0.35380303D+06 0.10792911D+01  1  2  1  1  6  1        1 0.388157467744D-01 0.100000000000D+01
  </mgrwgt>
  </event>
  <event>
  5     66 0.17698235E-05 0.37691798E+02 0.75467711E-02 0.95340272E-01
        1 -1    0    0  501    0 0.00000000E+00 0.00000000E+00 0.10326507E+03 0.10326556E+03 0.32000000E+00 0.0000E+00 0.9000E+01
        2 -1    0    0  502    0 0.00000000E+00 0.00000000E+00 -.31551365E+04 0.31551365E+04 0.32000000E+00 0.0000E+00 0.9000E+01
       25  1    1    2    0    0 -.44434606E+03 -.11173266E+03 -.15647372E+04 0.16352232E+04 0.12500000E+03 0.0000E+00 0.9000E+01
        1  1    1    2  501    0 0.40852870E+03 0.12346157E+03 -.60577525E+03 0.74101431E+03 0.32000000E+00 0.0000E+00 0.9000E+01
        2  1    1    2  502    0 0.35817366E+02 -.11728913E+02 -.88135897E+03 0.88216449E+03 0.32000000E+00 0.0000E+00 0.9000E+01
#aMCatNLO 1  0  0  2  5 0.50025432D+01 0.00000000D+00  -5  6  0 0.00000000D+00 0.00000000D+00 0.00000000D+00 0.00000000D+00 0.00000000D+00
  <mgrwgt>
 0.1317126266D-01    7    2    0
 0.570803126675311D+03 0.000000000000000D+00 0.000000000000000D+00 0.570803126675311D+03
 0.570803126675311D+03 0.000000000000000D+00 0.000000000000000D+00 -.570803126675311D+03
 0.484255581460069D+03 -.444342437268882D+03 -.111730111168613D+03 -.946290065224649D+02
 0.495587026504046D+03 0.408522182082020D+03 0.123459601579305D+03 0.251940180130017D+03
 0.161763645386507D+03 0.358202551868615D+02 -.117294904106920D+02 -.157311173607552D+03
 0.000000000000000D+00 -.000000000000000D+00 0.000000000000000D+00 -.000000000000000D+00
 0.647660515167590D+03 0.000000000000000D+00 0.000000000000000D+00 0.647660515167590D+03
 0.723590133287301D+03 0.000000000000000D+00 0.000000000000000D+00 -.723590133287301D+03
 0.415569359812816D+03 -.366839149435143D+03 -.116392793511910D+03 -.946290065224649D+02
 0.572634249851872D+03 0.500529701827385D+03 0.117924328821747D+03 0.251940180130017D+03
 0.170529797407949D+03 0.644411937282312D+02 -.134513572955100D+02 -.157311173607552D+03
 0.212517241382254D+03 -.198131746120474D+03 0.119198219856726D+02 -.759296181197117D+02
0.763706699894D-03 0.000000000000D+00 0.000000000000D+00 0.710685926306D-06 0.000000000000D+00  6 1 2 25 1 2 21 0 0.15886973D-01 0.48540565D+00 0.22060946D+06 0.22060946D+06 0.22060946D+06 0.10945690D+01  1  2  2  2  6  2        2 0.587388232016D-02 0.100000000000D+01
0.216592281576D-03 0.000000000000D+00 -.293283481618D-05 0.710685926306D-06 0.000000000000D+00  6 1 2 25 1 2 21 2 0.15886973D-01 0.48540565D+00 0.22060946D+06 0.22060946D+06 0.22060946D+06 0.10945690D+01  1  2  3  2  6  2        2 0.199584985274D-02 0.100000000000D+01
-.553412375445D-03 0.000000000000D+00 0.000000000000D+00 0.710685926306D-06 0.000000000000D+00  6 1 2 25 1 2 21 2 0.15886973D-01 0.48540565D+00 0.22060946D+06 0.22060946D+06 0.22060946D+06 0.10945690D+01  1  2 15  2  6  2        2 -.509957233932D-02 0.100000000000D+01
-.172871757692D-04 0.000000000000D+00 0.000000000000D+00 0.710685926306D-06 0.000000000000D+00  6 1 2 25 1 2 21 2 0.15886973D-01 0.48540565D+00 0.22060946D+06 0.22060946D+06 0.22060946D+06 0.10945690D+01  1  2  4  2  6  2        2 -.159297491869D-03 0.100000000000D+01
-.132569575836D-02 0.000000000000D+00 -.443741821044D-03 0.710685926306D-06 0.000000000000D+00  6 1 2 25 1 2 21 2 0.15886973D-01 0.63193369D+00 0.22060946D+06 0.22060946D+06 0.22060946D+06 0.10945690D+01  1  2  5  2  6  2        2 -.241709715590D-02 0.100000000000D+01
0.140846670629D-02 0.000000000000D+00 0.428737157727D-03 0.710685926306D-06 0.000000000000D+00  6 1 2 25 1 2 21 2 0.15886973D-01 0.48540565D+00 0.22060946D+06 0.22060946D+06 0.22060946D+06 0.10945690D+01  1  2  6  2  6  2        2 0.129787084188D-01 0.100000000000D+01
-.385567868549D-04 0.000000000000D+00 -.156224436696D-04 0.710685926306D-06 0.000000000000D+00  6 1 21 25 1 2 -2 2 0.15886973D-01 0.63193369D+00 0.22060946D+06 0.22060946D+06 0.22060946D+06 0.10945690D+01  1  2  5  6  6  2        2 -.121094102070D-05 0.100000000000D+01
  </mgrwgt>
  </event>
  <event>
  6     66 -.17698235E-05 0.10539200E+02 0.75467711E-02 0.93844527E-01
        1 -1    0    0  501    0 0.00000000E+00 0.00000000E+00 0.98282951E+03 0.98282956E+03 0.32000000E+00 0.0000E+00 0.9000E+01
        2 -1    0    0  503    0 0.00000000E+00 0.00000000E+00 -.26187208E+04 0.26187208E+04 0.32000000E+00 0.0000E+00 0.9000E+01
       25  1    1    2    0    0 0.40265062E+03 0.30577709E+03 -.99784983E+02 0.53029161E+03 0.12500000E+03 0.0000E+00 0.9000E+01
        1  1    1    2  501    0 0.13783893E+02 0.61264729E+01 0.73416754E+03 0.73432255E+03 0.32000000E+00 0.0000E+00 0.9000E+01
        2  1    1    2  502    0 -.42544819E+03 -.31074448E+03 -.20547003E+04 0.21211699E+04 0.32000000E+00 0.0000E+00 0.9000E+01
       21  1    1    2  503  502 0.90136778E+01 -.11590861E+01 -.21557356E+03 0.21576633E+03 0.75000000E+00 0.0000E+00 0.9000E+01
#aMCatNLO 2  0  0  2  5 0.90878967D+01 0.00000000D+00  -5  6  0 0.00000000D+00 0.00000000D+00 0.00000000D+00 0.00000000D+00 0.00000000D+00
  <mgrwgt>
 -.1090701612D-01    6    2    0
 0.153672936998742D+04 0.000000000000000D+00 0.000000000000000D+00 0.153672936998742D+04
 0.153672936998742D+04 0.000000000000000D+00 0.000000000000000D+00 -.153672936998742D+04
 0.539193947677025D+03 0.404269796878264D+03 0.305602940663358D+03 0.135195736624532D+03
 0.114818798539049D+04 0.171503189553732D+02 0.569309122331567D+01 0.114804577655559D+04
 0.138607680690733D+04 -.421420115833637D+03 -.311296031886674D+03 -.128324151318012D+04
 0.000000000000000D+00 0.000000000000000D+00 -.000000000000000D+00 -.000000000000000D+00
 0.153688579572839D+04 0.000000000000000D+00 0.000000000000000D+00 0.153688579572839D+04
 0.167465456390972D+04 0.000000000000000D+00 0.000000000000000D+00 -.167465456390972D+04
 0.538125934974362D+03 0.402690046854581D+03 0.305806083743992D+03 0.135195736624532D+03
 0.114814485428691D+04 0.137830443730673D+02 0.612609550990089D+01 0.114804577655559D+04
 0.138720138666532D+04 -.425486768981441D+03 -.310773093171101D+03 -.128324151318012D+04
 0.138068183711516D+03 0.901367775379350D+01 -.115908608279209D+01 -.137768768181327D+03
-.777243386143D-01 0.000000000000D+00 0.000000000000D+00 0.269163557984D-03 0.000000000000D+00  6 1 2 25 1 2 21 2 0.15118906D+00 0.40346377D+00 0.28725999D+06 0.28725999D+06 0.28725999D+06 0.10859489D+01  1  2 13  2  6  2        2 -.640028974210D-01 0.100000000000D+01
-.637545346263D-09 0.000000000000D+00 0.000000000000D+00 0.269163557984D-03 0.000000000000D+00  6 1 2 25 1 2 21 2 0.15118906D+00 0.40290437D+00 0.28725999D+06 0.28725999D+06 0.28725999D+06 0.10859489D+01  1  2 13  2  6  2        2 -.527591586539D-09 0.100000000000D+01
-.277064392621D-02 0.000000000000D+00 0.000000000000D+00 0.269163557984D-03 0.000000000000D+00  6 1 2 25 1 2 21 2 0.15118906D+00 0.36969852D+00 0.28300683D+06 0.28300683D+06 0.28300683D+06 0.10864305D+01  1  2  8  2  6  2        2 -.306515144019D-02 0.100000000000D+01
-.358232625624D-02 0.000000000000D+00 0.000000000000D+00 0.269163557984D-03 0.000000000000D+00  6 1 2 25 1 2 21 2 0.15118906D+00 0.40289159D+00 0.28300683D+06 0.28300683D+06 0.28300683D+06 0.10864305D+01  1  2  9  2  6  2        2 -.297134870729D-02 0.100000000000D+01
0.356912574662D-02 0.000000000000D+00 0.000000000000D+00 0.269163557984D-03 0.000000000000D+00  6 1 2 25 1 2 21 2 0.15118906D+00 0.36969852D+00 0.28300683D+06 0.28300683D+06 0.28300683D+06 0.10864305D+01  1  2 10  2  6  2        2 0.394850843841D-02 0.100000000000D+01
0.666820223873D-01 0.000000000000D+00 0.000000000000D+00 0.269163557984D-03 0.166485446848D-04  6 1 2 25 1 2 21 2 0.15120444D+00 0.40287987D+00 0.28725999D+06 0.28725999D+06 0.28725999D+06 0.10859489D+01  1  2  1  2  6  2        2 0.551838735381D-01 0.100000000000D+01
  </mgrwgt>
  </event>
  <event>
  5     66 -.17698235E-05 0.19316155E+03 0.75467711E-02 0.93289176E-01
        1 -1    0    0  501    0 0.00000000E+00 0.00000000E+00 0.16369367E+04 0.16369367E+04 0.32000000E+00 0.0000E+00 0.9000E+01
        2 -1    0    0  502    0 -.00000000E+00 -.00000000E+00 -.17030977E+04 0.17030978E+04 0.32000000E+00 0.0000E+00 0.9000E+01
       25  1    1    2    0    0 -.34634876E+03 0.41318529E+03 -.80769339E+03 0.97911856E+03 0.12500000E+03 0.0000E+00 0.9000E+01
        1  1    1    2  501    0 0.17949251E+03 -.71375382E+02 0.15000170E+04 0.15124030E+04 0.32000000E+00 0.0000E+00 0.9000E+01
        2  1    1    2  502    0 0.16685624E+03 -.34180990E+03 -.75848463E+03 0.84851285E+03 0.32000000E+00 0.0000E+00 0.9000E+01
#aMCatNLO 1  0  0  4  1 0.56006650D+01 0.00000000D+00  -5  6  0 0.00000000D+00 0.00000000D+00 0.00000000D+00 0.00000000D+00 0.00000000D+00
  <mgrwgt>
 -.9854238946D-02    9    2    0
 0.166968955714785D+04 0.000000000000000D+00 0.000000000000000D+00 0.166968955714785D+04
 0.166968955714785D+04 -.000000000000000D+00 -.000000000000000D+00 -.166968955714785D+04
 0.963299440370934D+03 -.346359708167542D+03 0.413204140768069D+03 -.788427613943836D+03
 0.154240586399429D+04 0.179491015693717D+03 -.713747866218854D+02 0.153026287428138D+04
 0.833673809930472D+03 0.166868692473826D+03 -.341829354146184D+03 -.741835260337541D+03
 0.000000000000000D+00 0.000000000000000D+00 0.000000000000000D+00 0.000000000000000D+00
 0.166968955714785D+04 0.000000000000000D+00 0.000000000000000D+00 0.166968955714785D+04
 0.166968955714785D+04 -.000000000000000D+00 -.000000000000000D+00 -.166968955714785D+04
 0.963283468718023D+03 -.346357580880946D+03 0.413203294850371D+03 -.788409477617134D+03
 0.123274645856910D+04 0.148512182839086D+03 -.593455099331835D+02 0.122232813643220D+04
 0.833660511893884D+03 0.166870533504356D+03 -.341830086233864D+03 -.741819564506420D+03
 0.309688675114688D+03 0.309748645375051D+02 -.120276986833237D+02 0.307900905691356D+03
0.535265989103D-05 0.000000000000D+00 0.000000000000D+00 0.836303881909D-05 0.000000000000D+00  6 1 2 25 1 2 21 0 0.25183642D+00 0.26201504D+00 0.31754069D+06 0.31754069D+06 0.31754069D+06 0.10827308D+01  1  2  2  3  6  4        1 0.421170528546D-05 0.100000000000D+01
0.677082119946D-06 0.000000000000D+00 -.205556233693D-07 0.836303881909D-05 0.000000000000D+00  6 1 2 25 1 2 21 2 0.25183642D+00 0.26201504D+00 0.31754069D+06 0.31754069D+06 0.31754069D+06 0.10827308D+01  1  2  3  3  6  4        1 0.624554921780D-06 0.100000000000D+01
-.380344980025D-05 0.000000000000D+00 0.000000000000D+00 0.836303881909D-05 0.000000000000D+00  6 1 2 25 1 2 21 2 0.25183642D+00 0.26201504D+00 0.31754069D+06 0.31754069D+06 0.31754069D+06 0.10827308D+01  1  2 15  3  6  4        1 -.350838284235D-05 0.100000000000D+01
0.148195254477D-01 0.000000000000D+00 0.000000000000D+00 0.836303881909D-05 0.000000000000D+00  6 1 2 25 1 2 21 2 0.25183642D+00 0.26201504D+00 0.31753875D+06 0.31753875D+06 0.31753875D+06 0.10827310D+01  1  2 12  3  6  4        1 0.136698566639D-01 0.100000000000D+01
0.406974149008D-08 0.000000000000D+00 0.000000000000D+00 0.836303881909D-05 0.000000000000D+00  6 1 2 25 1 2 21 2 0.25183642D+00 0.26201504D+00 0.31753875D+06 0.31753875D+06 0.31753875D+06 0.10827310D+01  1  2 12  3  6  4        1 0.375401918400D-08 0.100000000000D+01
-.419254783855D-01 0.000000000000D+00 0.000000000000D+00 0.836303881909D-05 0.000000000000D+00  6 1 2 25 1 2 21 2 0.25183642D+00 0.26201504D+00 0.31754069D+06 0.31754069D+06 0.31754069D+06 0.10827308D+01  1  2  4  3  6  4        1 -.386729513338D-01 0.100000000000D+01
-.233286651983D-01 0.000000000000D+00 0.000000000000D+00 0.836303881909D-05 0.000000000000D+00  6 1 2 25 1 2 21 2 0.25183642D+00 0.26201504D+00 0.31754069D+06 0.31754069D+06 0.31754069D+06 0.10827308D+01  1  2  5  3  6  4        1 -.215188560426D-01 0.100000000000D+01
0.284713267529D-01 0.000000000000D+00 -.000000000000D+00 0.836303881909D-05 0.000000000000D+00  6 1 2 25 1 2 21 2 0.25183642D+00 0.26201504D+00 0.31754069D+06 0.31754069D+06 0.31754069D+06 0.10827308D+01  1  2  6  3  6  4        1 0.262625562384D-01 0.100000000000D+01
0.112788112402D-01 0.000000000000D+00 0.000000000000D+00 0.836303881909D-05 0.149011281724D-05  6 1 2 25 1 2 21 2 0.25183642D+00 0.26201504D+00 0.31753875D+06 0.31753875D+06 0.31753875D+06 0.10827310D+01  1  2 11  3  6  4        1 0.104038238968D-01 0.100000000000D+01
  </mgrwgt>
  </event>
  <event>
  6     66 0.17698235E-05 0.15870754E+03 0.75467711E-02 0.90496623E-01
        1 -1    0    0  501    0 0.00000000E+00 0.00000000E+00 0.21312274E+04 0.21312275E+04 0.32000000E+00 0.0000E+00 0.9000E+01
        2 -1    0    0  502    0 0.00000000E+00 0.00000000E+00 -.13505805E+04 0.13505806E+04 0.32000000E+00 0.0000E+00 0.9000E+01
       25  1    1    2    0    0 -.72460012E+03 0.11868701E+02 0.56498556E+03 0.92737257E+03 0.12500000E+03 0.0000E+00 0.9000E+01
        1  1    1    2  501    0 0.56288362E+03 -.39261060E+02 0.13211603E+04 0.14366085E+04 0.32000000E+00 0.0000E+00 0.9000E+01
        2  1    1    2  503    0 0.13236379E+03 0.19687015E+02 -.83908571E+03 0.84968975E+03 0.32000000E+00 0.0000E+00 0.9000E+01
       21  1    1    2  502  503 0.29352706E+02 0.77053439E+01 -.26641327E+03 0.26813718E+03 0.75000000E+00 0.0000E+00 0.9000E+01
#aMCatNLO 2  0  0  5  2 0.95964295D+01 0.00000000D+00  -5  6  0 0.00000000D+00 0.00000000D+00 0.00000000D+00 0.00000000D+00 0.00000000D+00
  <mgrwgt>
 0.4585366266D-02    3    2    0
 0.169658315687331D+04 0.000000000000000D+00 0.000000000000000D+00 0.169658315687331D+04
 0.169658315687331D+04 -.000000000000000D+00 -.000000000000000D+00 -.169658315687331D+04
 0.821667027236974D+03 -.724582634564070D+03 0.118636088855009D+02 0.366539171332137D+03
 0.117016495420926D+04 0.562841996575767D+03 -.392598728752691D+02 0.102516026519368D+04
 0.140133433230038D+04 0.161740637988303D+03 0.273962639897683D+02 -.139169943652582D+04
 0.000000000000000D+00 0.000000000000000D+00 0.000000000000000D+00 -.000000000000000D+00
 0.169658315687331D+04 0.000000000000000D+00 0.000000000000000D+00 0.169658315687331D+04
 0.169658315687331D+04 -.000000000000000D+00 -.000000000000000D+00 -.169658315687331D+04
 0.821643260168782D+03 -.724577596651864D+03 0.118644622268407D+02 0.366495822550628D+03
 0.117011428082696D+04 0.562849171192400D+03 -.392586576105480D+02 0.102509853111096D+04
 0.106530610937465D+04 0.132419866576615D+03 0.196941730739972D+02 -.105686055142280D+04
 0.336102663376226D+03 0.293085588828495D+02 0.770002230971016D+01 -.334733802238783D+03
-.105216732372D-01 0.000000000000D+00 0.000000000000D+00 0.611914466071D-05 0.000000000000D+00  6 1 2 25 1 2 21 2 0.32788115D+00 0.20778163D+00 0.53565755D+06 0.53565755D+06 0.53565755D+06 0.10664024D+01  1  2 13  4  6  5        2 -.660368277906D-02 0.100000000000D+01
-.306967187444D-08 0.000000000000D+00 0.000000000000D+00 0.611914466071D-05 0.000000000000D+00  6 1 2 25 1 2 21 2 0.32788115D+00 0.20778163D+00 0.53565755D+06 0.53565755D+06 0.53565755D+06 0.10664024D+01  1  2 13  4  6  5        2 -.192660794892D-08 0.100000000000D+01
0.178275580613D-01 0.000000000000D+00 0.000000000000D+00 0.611914466071D-05 0.409121279681D-06  6 1 2 25 1 2 21 2 0.32788115D+00 0.20778163D+00 0.53565755D+06 0.53565755D+06 0.53565755D+06 0.10664024D+01  1  2  1  4  6  5        2 0.111890509720D-01 0.100000000000D+01
  </mgrwgt>
  </event>
  <event>
  5     66 0.17698235E-05 0.19098676E+02 0.75467711E-02 0.90208068E-01
        1 -1    0    0  501    0 0.00000000E+00 0.00000000E+00 0.53648168E+03 0.53648178E+03 0.32000000E+00 0.0000E+00 0.9000E+01
        2 -1    0    0  502    0 -.00000000E+00 -.00000000E+00 -.23490615E+04 0.23490615E+04 0.32000000E+00 0.0000E+00 0.9000E+01
       25  1    1    2    0    0 -.22485595E+03 0.47497774E+03 -.10657942E+04 0.11948666E+04 0.12500000E+03 0.0000E+00 0.9000E+01
        1  1    1    2  501    0 0.24372846E+03 -.47204728E+03 0.32232846E+03 0.62139193E+03 0.32000000E+00 0.0000E+00 0.9000E+01
        2  1    1    2  502    0 -.18872511E+02 -.29304663E+01 -.10691141E+04 0.10692847E+04 0.32000000E+00 0.0000E+00 0.9000E+01
#aMCatNLO 1  0  0  5  2 0.18350799D+01 0.00000000D+00  -5  6  0 0.00000000D+00 0.00000000D+00 0.00000000D+00 0.00000000D+00 0.00000000D+00
  <mgrwgt>
 0.3864165482D-01    4    2    0
 0.112259905531551D+04 0.000000000000000D+00 0.000000000000000D+00 0.112259905531551D+04
 0.112259905531551D+04 -.000000000000000D+00 -.000000000000000D+00 -.112259905531551D+04
 0.675218763735363D+03 -.224855895616871D+03 0.474977786121926D+03 -.405131222935682D+03
 0.105883687569939D+04 0.243728380402305D+03 -.472047128890836D+03 0.915916761519971D+03
 0.511142471196266D+03 -.188724847854337D+02 -.293065723108967D+01 -.510785538584290D+03
 0.000000000000000D+00 0.000000000000000D+00 0.000000000000000D+00 0.000000000000000D+00
 0.112259905531551D+04 0.000000000000000D+00 0.000000000000000D+00 0.112259905531551D+04
 0.112259905531551D+04 -.000000000000000D+00 -.000000000000000D+00 -.112259905531551D+04
 0.759835794075798D+03 -.229581133272203D+03 0.474244016718445D+03 -.533020215199203D+03
 0.910124805517043D+03 0.237245134293404D+03 -.473053894682729D+03 0.740447108574976D+03
 0.226833030064643D+03 -.403132331238295D+02 0.213555714568235D+03 0.649771001096676D+02
 0.348404480973535D+03 0.326492321026297D+02 -.214745836603951D+03 -.272403993485441D+03
0.150680194730D-01 0.000000000000D+00 0.000000000000D+00 0.423199866520D-04 0.000000000000D+00  6 1 2 25 1 2 21 0 0.82535652D-01 0.36139409D+00 0.29731329D+06 0.29731329D+06 0.29731329D+06 0.10848410D+01  1  2  2  4  6  5        2 0.387324196637D-01 0.100000000000D+01
0.104581662770D-01 0.000000000000D+00 -.578651622770D-04 0.423199866520D-04 0.000000000000D+00  6 1 2 25 1 2 21 2 0.82535652D-01 0.36139409D+00 0.29731329D+06 0.29731329D+06 0.29731329D+06 0.10848410D+01  1  2  3  4  6  5        2 0.316377950358D-01 0.100000000000D+01
-.987787675640D-02 0.000000000000D+00 0.000000000000D+00 0.423199866520D-04 0.000000000000D+00  6 1 2 25 1 2 21 2 0.82535652D-01 0.36139409D+00 0.29731329D+06 0.29731329D+06 0.29731329D+06 0.10848410D+01  1  2 15  4  6  5        2 -.298823170267D-01 0.100000000000D+01
-.610292681362D-03 0.000000000000D+00 0.000000000000D+00 0.423199866520D-04 0.000000000000D+00  6 1 2 25 1 2 21 2 0.82535652D-01 0.36139409D+00 0.29731329D+06 0.29731329D+06 0.29731329D+06 0.10848410D+01  1  2  4  4  6  5        2 -.184624285495D-02 0.100000000000D+01
  </mgrwgt>
  </event>
  <event>
  6     66 -.17698235E-05 0.21489587E+02 0.75467711E-02 0.91570581E-01
        1 -1    0    0  501    0 0.00000000E+00 0.00000000E+00 0.63348035E+03 0.63348043E+03 0.32000000E+00 0.0000E+00 0.9000E+01
        2 -1    0    0  502    0 -.00000000E+00 -.00000000E+00 -.14113589E+04 0.14113590E+04 0.32000000E+00 0.0000E+00 0.9000E+01
       25  1    1    2    0    0 0.30847945E+03 0.52123468E+03 0.13467646E+03 0.63293595E+03 0.12500000E+03 0.0000E+00 0.9000E+01
        1  1    1    2  503    0 0.13408144E+02 0.16562040E+02 0.91025704E+02 0.93487222E+02 0.32000000E+00 0.0000E+00 0.9000E+01
        2  1    1    2  502    0 -.31251485E+03 -.56848653E+03 -.10662007E+04 0.12480491E+04 0.32000000E+00 0.0000E+00 0.9000E+01
       21  1    1    2  501  503 -.93727391E+01 0.30689806E+02 0.62619968E+02 0.70367147E+02 0.75000000E+00 0.0000E+00 0.9000E+01
#aMCatNLO 2  0  0  4  1 0.15511963D+02 0.00000000D+00  -5  6  0 0.00000000D+00 0.00000000D+00 0.00000000D+00 0.00000000D+00 0.00000000D+00
  <mgrwgt>
 -.4434266338D-02    3    2    0
 0.945551838639234D+03 0.000000000000000D+00 0.000000000000000D+00 0.945551838639234D+03
 0.945551838639234D+03 -.000000000000000D+00 -.000000000000000D+00 -.945551838639234D+03
 0.739933924623779D+03 0.308653665913793D+03 0.521518684962041D+03 0.405744240331997D+03
 0.239320010153387D+03 0.405264668504375D+01 0.474537312963054D+02 0.234533124954071D+03
 0.911849742501302D+03 -.312706312598837D+03 -.568972416258346D+03 -.640277365286068D+03
 0.000000000000000D+00 0.000000000000000D+00 0.000000000000000D+00 0.000000000000000D+00
 0.945551838639234D+03 0.000000000000000D+00 0.000000000000000D+00 0.945551838639234D+03
 0.945551838639234D+03 -.000000000000000D+00 -.000000000000000D+00 -.945551838639234D+03
 0.740487233944879D+03 0.308667354498648D+03 0.521678968963595D+03 0.406536420561828D+03
 0.137649701167833D+03 0.133658853549945D+02 0.164139441330645D+02 0.136012410383271D+03
 0.911036068018136D+03 -.312689457444508D+03 -.568775053885892D+03 -.639301930632237D+03
 0.101930674147622D+03 -.934378240913522D+01 0.306821407892326D+02 0.967530996871374D+02
-.846193328326D-03 0.000000000000D+00 0.000000000000D+00 0.127056354772D-05 0.000000000000D+00  6 1 2 25 1 2 21 2 0.97458525D-01 0.21713215D+00 0.43639994D+06 0.43639994D+06 0.43639994D+06 0.10727114D+01  1  2 13  3  6  4        1 -.633722172469D-02 0.100000000000D+01
-.389328908135D-07 0.000000000000D+00 0.000000000000D+00 0.127056354772D-05 0.000000000000D+00  6 1 2 25 1 2 21 2 0.97458525D-01 0.21713215D+00 0.43639994D+06 0.43639994D+06 0.43639994D+06 0.10727114D+01  1  2 13  3  6  4        1 -.291572094945D-06 0.100000000000D+01
0.254135794579D-03 0.000000000000D+00 0.000000000000D+00 0.127056354772D-05 0.333314544999D-08  6 1 2 25 1 2 21 2 0.97458525D-01 0.21713215D+00 0.43639994D+06 0.43639994D+06 0.43639994D+06 0.10727114D+01  1  2  1  3  6  4        1 0.190324695849D-02 0.100000000000D+01
  </mgrwgt>
  </event>
  <event>
  5     66 -.17698235E-05 0.37938571E+02 0.75467711E-02 0.94701084E-01
        1 -1    0    0  501    0 0.00000000E+00 0.00000000E+00 0.77750651E+03 0.77750657E+03 0.32000000E+00 0.0000E+00 0.9000E+01
        2 -1    0    0  502    0 0.00000000E+00 0.00000000E+00 -.14746070E+04 0.14746070E+04 0.32000000E+00 0.0000E+00 0.9000E+01
       25  1    1    2    0    0 0.99816672E+02 -.45304481E+03 -.38366962E+03 0.61484985E+03 0.12500000E+03 0.0000E+00 0.9000E+01
        1  1    1    2  501    0 -.33810695E+02 -.17215256E+02 0.60348503E+03 0.60467662E+03 0.32000000E+00 0.0000E+00 0.9000E+01
        2  1    1    2  502    0 -.66005977E+02 0.47026006E+03 -.91691586E+03 0.10325871E+04 0.32000000E+00 0.0000E+00 0.9000E+01
#aMCatNLO 1  0  0  2  5 0.92936704D+02 0.00000000D+00  -5  6  0 0.00000000D+00 0.00000000D+00 0.00000000D+00 0.00000000D+00 0.00000000D+00
  <mgrwgt>
 -.7967269655D-02    1    2    0
 0.107075516344322D+04 0.000000000000000D+00 0.000000000000000D+00 0.107075516344322D+04
 0.107075516344322D+04 0.000000000000000D+00 0.000000000000000D+00 -.107075516344322D+04
 0.521750054183004D+03 0.998244596876290D+02 -.453101716791246D+03 -.203302805019671D+03
 0.832296008889202D+03 -.338084288952732D+02 -.172141022133362D+02 0.831430881813706D+03
 0.787464263814239D+03 -.660160307923558D+02 0.470315819004582D+03 -.628128076794035D+03
 0.000000000000000D+00 -.000000000000000D+00 -.000000000000000D+00 -.000000000000000D+00
 0.111417593330462D+04 0.000000000000000D+00 0.000000000000000D+00 0.111417593330462D+04
 0.112008781123560D+04 0.000000000000000D+00 0.000000000000000D+00 -.112008781123560D+04
 0.520903850241929D+03 0.120998562239331D+03 -.446926323462844D+03 -.203302805019671D+03
 0.831463457985997D+03 -.209818589423634D-01 -.736004702953788D+01 0.831430881813706D+03
 0.791060483910040D+03 -.339595211999916D+02 0.479665049036181D+03 -.628128076794035D+03
 0.908359524022474D+02 -.870180591803973D+02 -.253786785437985D+02 -.591187793097620D+01
-.147979776765D-02 0.000000000000D+00 0.000000000000D+00 0.320916715593D-04 0.000000000000D+00  6 1 2 25 1 2 21 2 0.11961639D+00 0.22686262D+00 0.24669909D+06 0.24669909D+06 0.24669909D+06 0.10908936D+01  1  2 14  2  6  2        2 -.796726965477D-02 0.100000000000D+01
  </mgrwgt>
  </event>
  <event>
  5     66 0.17698235E-05 0.21635039E+03 0.75467711E-02 0.89863703E-01
        1 -1    0    0  501    0 0.00000000E+00 0.00000000E+00 0.64301485E+03 0.64301493E+03 0.32000000E+00 0.0000E+00 0.9000E+01
        2 -1    0    0  502    0 0.00000000E+00 0.00000000E+00 -.24498277E+04 0.24498277E+04 0.32000000E+00 0.0000E+00 0.9000E+01
       25  1    1    2    0    0 -.10142953E+03 -.46724756E+03 -.12854151E+03 0.51064289E+03 0.12500000E+03 0.0000E+00 0.9000E+01
        1  1    1    2  501    0 0.21567596E+03 0.28355095E+03 0.37518565E+03 0.51737959E+03 0.32000000E+00 0.0000E+00 0.9000E+01
        2  1    1    2  502    0 -.11424642E+03 0.18369661E+03 -.20534570E+04 0.20648202E+04 0.32000000E+00 0.0000E+00 0.9000E+01
#aMCatNLO 1  0  0  2  2 0.17020088D+01 0.00000000D+00  -5  6  0 0.00000000D+00 0.00000000D+00 0.00000000D+00 0.00000000D+00 0.00000000D+00
  <mgrwgt>
 0.5392077800D-02    7    2    0
 0.125509989272561D+04 0.000000000000000D+00 0.000000000000000D+00 0.125509989272561D+04
 0.125509989272561D+04 0.000000000000000D+00 0.000000000000000D+00 -.125509989272561D+04
 0.536680479252778D+03 -.101399780676606D+03 -.467245871915921D+03 0.209285251432724D+03
 0.907446424781401D+03 0.215657785591885D+03 0.283527062104121D+03 0.834603581598328D+03
 0.106607288141703D+04 -.114258004915279D+03 0.183718809811800D+03 -.104388883303105D+04
 0.000000000000000D+00 0.000000000000000D+00 -.000000000000000D+00 -.000000000000000D+00
 0.130615912642391D+04 0.000000000000000D+00 0.000000000000000D+00 0.130615912642391D+04
 0.219311995753868D+04 0.000000000000000D+00 0.000000000000000D+00 -.219311995753868D+04
 0.534409335030167D+03 -.176053166116724D+03 -.441784227423755D+03 0.209285251432724D+03
 0.900669590307957D+03 0.896347574620891D+02 0.326509085238771D+03 0.834603581598328D+03
 0.110249483318228D+04 -.265403986598766D+03 0.235269388922928D+03 -.104388883303105D+04
 0.961705325442184D+03 0.351822395253401D+03 -.119994246737944D+03 -.886960831114774D+03
0.992991808412D-03 0.000000000000D+00 0.000000000000D+00 0.571450104349D-05 0.000000000000D+00  6 1 2 25 1 2 21 0 0.98925370D-01 0.37689657D+00 0.28449783D+06 0.28449783D+06 0.28449783D+06 0.10862608D+01  1  2  2  2  6  2        2 0.172452399149D-02 0.100000000000D+01
0.112352398218D-03 0.000000000000D+00 -.381335000505D-05 0.571450104349D-05 0.000000000000D+00  6 1 2 25 1 2 21 2 0.98925370D-01 0.37689657D+00 0.28449783D+06 0.28449783D+06 0.28449783D+06 0.10862608D+01  1  2  3  2  6  2        2 0.230236464405D-03 0.100000000000D+01
-.612795575340D-03 0.000000000000D+00 0.000000000000D+00 0.571450104349D-05 0.000000000000D+00  6 1 2 25 1 2 21 2 0.98925370D-01 0.37689657D+00 0.28449783D+06 0.28449783D+06 0.28449783D+06 0.10862608D+01  1  2 15  2  6  2        2 -.125576212797D-02 0.100000000000D+01
-.172646082405D-03 0.000000000000D+00 0.000000000000D+00 0.571450104349D-05 0.000000000000D+00  6 1 2 25 1 2 21 2 0.98925370D-01 0.37689657D+00 0.28449783D+06 0.28449783D+06 0.28449783D+06 0.10862608D+01  1  2  4  2  6  2        2 -.353792391054D-03 0.100000000000D+01
-.272212180852D-02 0.000000000000D+00 -.422583989129D-03 0.571450104349D-05 0.000000000000D+00  6 1 2 25 1 2 21 2 0.98925370D-01 0.66206713D+00 0.28449783D+06 0.28449783D+06 0.28449783D+06 0.10862608D+01  1  2  5  2  6  2        2 -.273435295159D-03 0.100000000000D+01
0.259634108813D-02 0.000000000000D+00 0.363372357052D-03 0.571450104349D-05 0.000000000000D+00  6 1 2 25 1 2 21 2 0.98925370D-01 0.37689657D+00 0.28449783D+06 0.28449783D+06 0.28449783D+06 0.10862608D+01  1  2  6  2  6  2        2 0.532051297526D-02 0.100000000000D+01
-.147622453434D-03 0.000000000000D+00 -.262701651037D-04 0.571450104349D-05 0.000000000000D+00  6 1 21 25 1 2 -2 2 0.98925370D-01 0.66206713D+00 0.28449783D+06 0.28449783D+06 0.28449783D+06 0.10862608D+01  1  2  5  6  6  2        2 -.205817362847D-06 0.100000000000D+01
  </mgrwgt>
  </event>
  <event>
  5     66 -.17698235E-05 0.72587377E+02 0.75467711E-02 0.92843594E-01
        1 -1    0    0  501    0 0.00000000E+00 0.00000000E+00 0.17344243E+04 0.17344243E+04 0.32000000E+00 0.0000E+00 0.9000E+01
        2 -1    0    0  502    0 0.00000000E+00 0.00000000E+00 -.51440680E+03 0.51440690E+03 0.32000000E+00 0.0000E+00 0.9000E+01
       25  1    1    2    0    0 0.16019988E+03 -.48611606E+03 0.53610968E+02 0.52959603E+03 0.12500000E+03 0.0000E+00 0.9000E+01
        1  1    1    2  501    0 -.54996966E+01 0.72386018E+02 0.12646524E+04 0.12667343E+04 0.32000000E+00 0.0000E+00 0.9000E+01
        2  1    1    2  502    0 -.15470018E+03 0.41373004E+03 -.98245887E+02 0.45250088E+03 0.32000000E+00 0.0000E+00 0.9000E+01
#aMCatNLO 1  0  0  1  4 0.49671345D+02 0.00000000D+00  -5  6  0 0.00000000D+00 0.00000000D+00 0.00000000D+00 0.00000000D+00 0.00000000D+00
  <mgrwgt>
 -.6409806032D-04    5    2    0
 0.944563279996206D+03 0.000000000000000D+00 0.000000000000000D+00 0.944563279996206D+03
 0.944563279996206D+03 0.000000000000000D+00 0.000000000000000D+00 -.944563279996206D+03
 0.595837590255434D+03 0.160221674933455D+03 -.486173748587338D+03 -.278139416529654D+03
 0.691135658650357D+03 -.549914602632566D+01 0.723787718917847D+02 0.687313299326064D+03
 0.602153311086621D+03 -.154722528907130D+03 0.413794976695553D+03 -.409173882796410D+03
 0.000000000000000D+00 -.000000000000000D+00 -.000000000000000D+00 0.000000000000000D+00
 0.228849150134998D+04 0.000000000000000D+00 0.000000000000000D+00 0.228849150134998D+04
 0.947643903525518D+03 0.000000000000000D+00 0.000000000000000D+00 -.947643903525518D+03
 0.577922733215312D+03 0.174148003547609D+03 -.458999589760146D+03 -.278139416529654D+03
 0.695294779372773D+03 0.109504523239428D+02 0.104476535099771D+03 0.687313299326064D+03
 0.618467739413426D+03 -.140240211245929D+03 0.442054025524212D+03 -.409173882796410D+03
 0.134445015287399D+04 -.448582446256227D+02 -.875309708638376D+02 0.134084759782446D+04
0.302945647930D-04 0.000000000000D+00 0.000000000000D+00 0.533666947835D-05 0.000000000000D+00  6 1 2 25 1 2 21 0 0.26683451D+00 0.79139518D-01 0.27107537D+06 0.27107537D+06 0.27107537D+06 0.10878246D+01  1  2  2  1  6  1        1 0.119614641953D-03 0.100000000000D+01
0.971243196170D-05 0.000000000000D+00 -.116339105547D-06 0.533666947835D-05 0.000000000000D+00  6 1 2 25 1 2 21 2 0.26683451D+00 0.79139518D-01 0.27107537D+06 0.27107537D+06 0.27107537D+06 0.10878246D+01  1  2  3  1  6  1        1 0.453800911451D-04 0.100000000000D+01
-.197641908230D-04 0.000000000000D+00 0.000000000000D+00 0.533666947835D-05 0.000000000000D+00  6 1 2 25 1 2 21 2 0.26683451D+00 0.79139518D-01 0.27107537D+06 0.27107537D+06 0.27107537D+06 0.10878246D+01  1  2 15  1  6  1        1 -.923456436549D-04 0.100000000000D+01
-.227323439466D-02 0.000000000000D+00 -.148744016448D-04 0.533666947835D-05 0.000000000000D+00  6 1 2 25 1 2 21 2 0.64670661D+00 0.79139518D-01 0.27107537D+06 0.27107537D+06 0.27107537D+06 0.10878246D+01  1  2  5  1  6  1        1 -.135838788523D-03 0.100000000000D+01
-.219548210432D-03 0.000000000000D+00 -.144266153207D-05 0.533666947835D-05 0.000000000000D+00  6 21 2 25 1 2 -1 2 0.64670661D+00 0.79139518D-01 0.27107537D+06 0.27107537D+06 0.27107537D+06 0.10878246D+01  1  2  5  5  6  1        1 -.908361242102D-06 0.100000000000D+01
  </mgrwgt>
  </event>
  <event>
  6     66 0.17698235E-05 0.18019351E+02 0.75467711E-02 0.92956246E-01
        1 -1    0    0  503    0 0.00000000E+00 0.00000000E+00 0.10671671E+04 0.10671672E+04 0.32000000E+00 0.0000E+00 0.9000E+01
        2 -1    0    0  502    0 0.00000000E+00 0.00000000E+00 -.13214323E+04 0.13214323E+04 0.32000000E+00 0.0000E+00 0.9000E+01
       25  1    1    2    0    0 0.50015041E+02 0.55843654E+03 0.23321978E+02 0.57491024E+03 0.12500000E+03 0.0000E+00 0.9000E+01
        1  1    1    2  501    0 -.36043133E+01 0.35041849E+01 0.18590676E+02 0.19260998E+02 0.32000000E+00 0.0000E+00 0.9000E+01
        2  1    1    2  502    0 -.66451871E+02 -.55757551E+03 -.96972516E+03 0.11205683E+04 0.32000000E+00 0.0000E+00 0.9000E+01
       21  1    1    2  503  501 0.20041143E+02 -.43652127E+01 0.67354735E+03 0.67386000E+03 0.75000000E+00 0.0000E+00 0.9000E+01
#aMCatNLO 2  0  0  1  4 0.86803230D+02 0.00000000D+00  -5  6  0 0.00000000D+00 0.00000000D+00 0.00000000D+00 0.00000000D+00 0.00000000D+00
  <mgrwgt>
 0.5526846204D-02    1    2    0
 0.720949874487245D+03 0.000000000000000D+00 0.000000000000000D+00 0.720949874487245D+03
 0.720949874487245D+03 0.000000000000000D+00 0.000000000000000D+00 -.720949874487245D+03
 0.697956958082332D+03 0.597097592406308D+02 0.556472012484150D+03 0.397859974499581D+03
 0.345041296718312D+02 -.309309748340133D+01 0.336926139163941D+01 0.341996460514363D+02
 0.709438661220326D+03 -.566166617572295D+02 -.559841273875790D+03 -.432059620551018D+03
 0.000000000000000D+00 0.000000000000000D+00 -.000000000000000D+00 0.000000000000000D+00
 0.195558608765354D+04 0.000000000000000D+00 0.000000000000000D+00 0.195558608765354D+04
 0.721108005769386D+03 0.000000000000000D+00 0.000000000000000D+00 -.721108005769386D+03
 0.698882322712190D+03 0.500028292623446D+02 0.558586303767411D+03 0.397859974499581D+03
 0.345608119238337D+02 -.357304428991025D+01 0.347379983496809D+01 0.341996460514363D+02
 0.708602491753330D+03 -.664709280049643D+02 -.557694890902273D+03 -.432059620551018D+03
 0.123464846703357D+04 0.200411430325299D+02 -.436521270010608D+01 0.123447808188416D+04
0.149512927774D-02 0.000000000000D+00 0.000000000000D+00 0.484196107009D-06 0.784816959203D-07  6 1 2 25 1 2 21 2 0.16417954D+00 0.20329725D+00 0.33739726D+06 0.33739726D+06 0.33739726D+06 0.10807972D+01  1  2  1  1  6  1        1 0.552684620372D-02 0.100000000000D+01
  </mgrwgt>
  </event>
  <event>
  5     66 0.17698235E-05 0.26762758E+02 0.75467711E-02 0.93642998E-01
        1 -1    0    0  501    0 0.00000000E+00 0.00000000E+00 0.18058647E+04 0.18058648E+04 0.32000000E+00 0.0000E+00 0.9000E+01
        2 -1    0    0  502    0 0.00000000E+00 0.00000000E+00 -.13373086E+04 0.13373087E+04 0.32000000E+00 0.0000E+00 0.9000E+01
       25  1    1    2    0    0 -.39661492E+01 0.48514282E+03 0.10785217E+04 0.11892070E+04 0.12500000E+03 0.0000E+00 0.9000E+01
        1  1    1    2  501    0 -.11941115E+02 -.46362401E+03 0.59181516E+03 0.75188769E+03 0.32000000E+00 0.0000E+00 0.9000E+01
        2  1    1    2  502    0 0.15907264E+02 -.21518812E+02 -.12017808E+04 0.12020787E+04 0.32000000E+00 0.0000E+00 0.9000E+01
#aMCatNLO 1  0  0  2  2 0.99209389D+02 0.00000000D+00  -5  6  0 0.00000000D+00 0.00000000D+00 0.00000000D+00 0.00000000D+00 0.00000000D+00
  <mgrwgt>
 0.4326372770D-01    7    2    0
 0.155402657614449D+04 0.000000000000000D+00 0.000000000000000D+00 0.155402657614449D+04
 0.155402657614449D+04 0.000000000000000D+00 0.000000000000000D+00 -.155402657614449D+04
 0.104016369283888D+04 -.397087426534995D+01 0.485023456683044D+03 0.911620527700547D+03
 0.670988410645980D+03 -.119379839378746D+02 -.463502456092889D+03 0.485024128221037D+03
 0.139690104880412D+04 0.159088582032245D+02 -.215210005901554D+02 -.139664465592158D+04
 0.000000000000000D+00 0.000000000000000D+00 -.000000000000000D+00 -.000000000000000D+00
 0.155726528979404D+04 0.000000000000000D+00 0.000000000000000D+00 0.155726528979404D+04
 0.256029534056260D+04 0.000000000000000D+00 0.000000000000000D+00 -.256029534056260D+04
 0.105308227159943D+04 -.242208587384709D+02 0.511584435097436D+03 0.911620527700547D+03
 0.659795526917619D+03 -.248119388053680D+02 -.446616278338173D+03 0.485024128221037D+03
 0.139675833781273D+04 -.111168999557599D+02 0.139274502492109D+02 -.139664465592158D+04
 0.100792449402686D+04 0.601496974995988D+02 -.788956070084735D+02 -.100303005076856D+04
0.928268443352D-03 0.000000000000D+00 0.000000000000D+00 0.406466234388D-04 0.000000000000D+00  6 1 2 25 1 2 21 0 0.27782535D+00 0.20573979D+00 0.24567222D+06 0.24567222D+06 0.24567222D+06 0.10910301D+01  1  2  2  2  6  2        2 0.915460345870D-03 0.100000000000D+01
0.693535662663D-03 0.000000000000D+00 -.356479524117D-05 0.406466234388D-04 0.000000000000D+00  6 1 2 25 1 2 21 2 0.27782535D+00 0.20573979D+00 0.24567222D+06 0.24567222D+06 0.24567222D+06 0.10910301D+01  1  2  3  2  6  2        2 0.814157103576D-03 0.100000000000D+01
-.546760992021D-03 0.000000000000D+00 0.000000000000D+00 0.406466234388D-04 0.000000000000D+00  6 1 2 25 1 2 21 2 0.27782535D+00 0.20573979D+00 0.24567222D+06 0.24567222D+06 0.24567222D+06 0.10910301D+01  1  2 15  2  6  2        2 -.641855018533D-03 0.100000000000D+01
-.664721531751D-03 0.000000000000D+00 0.000000000000D+00 0.406466234388D-04 0.000000000000D+00  6 1 2 25 1 2 21 2 0.27782535D+00 0.20573979D+00 0.24567222D+06 0.24567222D+06 0.24567222D+06 0.10910301D+01  1  2  4  2  6  2        2 -.780331547620D-03 0.100000000000D+01
-.661448332043D-01 0.000000000000D+00 -.534606783528D-03 0.406466234388D-04 0.000000000000D+00  6 1 2 25 1 2 21 2 0.27782535D+00 0.33913875D+00 0.24567222D+06 0.24567222D+06 0.24567222D+06 0.10910301D+01  1  2  5  2  6  2        2 -.260167728127D-01 0.100000000000D+01
0.589545877780D-01 0.000000000000D+00 0.474143845835D-03 0.406466234388D-04 0.000000000000D+00  6 1 2 25 1 2 21 2 0.27782535D+00 0.20573979D+00 0.24567222D+06 0.24567222D+06 0.24567222D+06 0.10910301D+01  1  2  6  2  6  2        2 0.692081157638D-01 0.100000000000D+01
-.370411374478D-02 0.000000000000D+00 -.301328067567D-04 0.406466234388D-04 0.000000000000D+00  6 1 21 25 1 2 -2 2 0.27782535D+00 0.33913875D+00 0.24567222D+06 0.24567222D+06 0.24567222D+06 0.10910301D+01  1  2  5  6  6  2        2 -.235046135333D-03 0.100000000000D+01
  </mgrwgt>
  </event>
  <event>
  5     66 0.17698235E-05 0.66006484E+02 0.75467711E-02 0.91713949E-01
        1 -1    0    0  501    0 0.00000000E+00 0.00000000E+00 0.47808641E+03 0.47808652E+03 0.32000000E+00 0.0000E+00 0.9000E+01
        2 -1    0    0  502    0 0.00000000E+00 0.00000000E+00 -.29361788E+04 0.29361788E+04 0.32000000E+00 0.0000E+00 0.9000E+01
       25  1    1    2    0    0 -.45985126E+03 -.28616537E+03 -.11563130E+04 0.12829803E+04 0.12500000E+03 0.0000E+00 0.9000E+01
        1  1    1    2  501    0 0.16855918E+02 0.63821743E+02 0.37603611E+03 0.38178606E+03 0.32000000E+00 0.0000E+00 0.9000E+01
        2  1    1    2  502    0 0.44299534E+03 0.22234363E+03 -.16778155E+04 0.17494990E+04 0.32000000E+00 0.0000E+00 0.9000E+01
#aMCatNLO 1  0  0  2  5 0.20055645D+03 0.00000000D+00  -5  6  0 0.00000000D+00 0.00000000D+00 0.00000000D+00 0.00000000D+00 0.00000000D+00
  <mgrwgt>
 0.4161030078D-02    4    2    0
 0.118479846429819D+04 0.000000000000000D+00 0.000000000000000D+00 0.118479846429819D+04
 0.118479846429819D+04 0.000000000000000D+00 0.000000000000000D+00 -.118479846429819D+04
 0.649125418895149D+03 -.459899646864480D+03 -.286189835899316D+03 -.335151461428490D+03
 0.940129232661677D+03 0.168549880975329D+02 0.638182205969083D+02 0.937809212047477D+03
 0.780342277039544D+03 0.443044658766947D+03 0.222371615302408D+03 -.602657750618988D+03
 0.000000000000000D+00 0.000000000000000D+00 0.000000000000000D+00 0.000000000000000D+00
 0.130546303249006D+04 0.000000000000000D+00 0.000000000000000D+00 0.130546303249006D+04
 0.127540275255606D+04 0.000000000000000D+00 0.000000000000000D+00 -.127540275255606D+04
 0.697150895190929D+03 -.510393778031629D+03 -.312355662529850D+03 -.335151461428490D+03
 0.939738781525982D+03 -.536523075386956D+02 0.272816641464504D+02 0.937809212047477D+03
 0.741179391254018D+03 0.385977685301973D+03 0.192799772010938D+03 -.602657750618988D+03
 0.202796717075196D+03 0.178068400268352D+03 0.922742263724608D+02 0.300602799340057D+02
0.412157511683D-02 0.000000000000D+00 0.000000000000D+00 0.152860931580D-04 0.000000000000D+00  6 1 2 25 1 2 21 0 0.73551766D-01 0.45171982D+00 0.31227817D+06 0.31227817D+06 0.31227817D+06 0.10832654D+01  1  2  2  2  6  2        2 0.556391632782D-02 0.100000000000D+01
0.164432263491D-02 0.000000000000D+00 -.158279336843D-04 0.152860931580D-04 0.000000000000D+00  6 1 2 25 1 2 21 2 0.73551766D-01 0.45171982D+00 0.31227817D+06 0.31227817D+06 0.31227817D+06 0.10832654D+01  1  2  3  2  6  2        2 0.260479849684D-02 0.100000000000D+01
-.233006478380D-02 0.000000000000D+00 0.000000000000D+00 0.152860931580D-04 0.000000000000D+00  6 1 2 25 1 2 21 2 0.73551766D-01 0.45171982D+00 0.31227817D+06 0.31227817D+06 0.31227817D+06 0.10832654D+01  1  2 15  2  6  2        2 -.369109389939D-02 0.100000000000D+01
-.199853269764D-03 0.000000000000D+00 0.000000000000D+00 0.152860931580D-04 0.000000000000D+00  6 1 2 25 1 2 21 2 0.73551766D-01 0.45171982D+00 0.31227817D+06 0.31227817D+06 0.31227817D+06 0.10832654D+01  1  2  4  2  6  2        2 -.316590847573D-03 0.100000000000D+01
  </mgrwgt>
  </event>
  <event>
  5     66 0.17698235E-05 0.15873129E+02 0.75467711E-02 0.94701730E-01
        1 -1    0    0  501    0 0.00000000E+00 0.00000000E+00 0.11787804E+04 0.11787804E+04 0.32000000E+00 0.0000E+00 0.9000E+01
        2 -1    0    0  502    0 0.00000000E+00 0.00000000E+00 -.19311217E+04 0.19311218E+04 0.32000000E+00 0.0000E+00 0.9000E+01
       25  1    1    2    0    0 0.29651554E+03 0.38812192E+03 0.78345318E+02 0.51021866E+03 0.12500000E+03 0.0000E+00 0.9000E+01
        1  1    1    2  501    0 -.29115061E+03 -.37318449E+03 0.82113479E+03 0.94778573E+03 0.32000000E+00 0.0000E+00 0.9000E+01
        2  1    1    2  502    0 -.53649280E+01 -.14937434E+02 -.16518215E+04 0.16518978E+04 0.32000000E+00 0.0000E+00 0.9000E+01
#aMCatNLO 1  0  0  1  5 0.13192972D+03 0.00000000D+00  -5  6  0 0.00000000D+00 0.00000000D+00 0.00000000D+00 0.00000000D+00 0.00000000D+00
  <mgrwgt>
 0.4310330804D-01    4    2    0
 0.150876388627580D+04 0.000000000000000D+00 0.000000000000000D+00 0.150876388627580D+04
 0.150876388627580D+04 0.000000000000000D+00 0.000000000000000D+00 -.150876388627580D+04
 0.545387834401938D+03 0.296501622598184D+03 0.388104817121238D+03 0.208048861178258D+03
 0.118146974291458D+04 -.291136186048720D+03 -.373165998420634D+03 0.108252372362844D+04
 0.129067019523508D+04 -.536543654946382D+01 -.149388187006039D+02 -.129057258480669D+04
 0.000000000000000D+00 -.000000000000000D+00 0.000000000000000D+00 -.000000000000000D+00
 0.173872016046816D+04 0.000000000000000D+00 0.000000000000000D+00 0.173872016046816D+04
 0.261233120058385D+04 0.000000000000000D+00 0.000000000000000D+00 -.261233120058385D+04
 0.480112309711412D+03 0.329663374179993D+03 0.250839711814373D+03 0.208048861178258D+03
 0.130977770824640D+04 -.210576344513404D+03 -.706624112192748D+03 0.108252372362844D+04
 0.134428644791438D+04 0.798415506270312D+02 -.367632675622144D+03 -.129057258480669D+04
 0.121687489517982D+04 -.198928580293620D+03 0.823417076000519D+03 -.873611040115684D+03
0.232954466291D-01 0.000000000000D+00 0.000000000000D+00 0.284317707476D-03 0.000000000000D+00  6 1 2 25 1 2 21 0 0.18135083D+00 0.29709566D+00 0.24667104D+06 0.24667104D+06 0.24667104D+06 0.10908974D+01  1  2  2  1  6  1        1 0.289174814923D-01 0.100000000000D+01
0.236847888130D-01 0.000000000000D+00 -.894606488877D-04 0.284317707476D-03 0.000000000000D+00  6 1 2 25 1 2 21 2 0.18135083D+00 0.29709566D+00 0.24667104D+06 0.24667104D+06 0.24667104D+06 0.10908974D+01  1  2  3  1  6  1        1 0.349886122754D-01 0.100000000000D+01
-.140667415540D-01 0.000000000000D+00 0.000000000000D+00 0.284317707476D-03 0.000000000000D+00  6 1 2 25 1 2 21 2 0.18135083D+00 0.29709566D+00 0.24667104D+06 0.24667104D+06 0.24667104D+06 0.10908974D+01  1  2 15  1  6  1        1 -.207802471914D-01 0.100000000000D+01
-.152569779849D-04 0.000000000000D+00 0.000000000000D+00 0.284317707476D-03 0.000000000000D+00  6 1 2 25 1 2 21 2 0.18135083D+00 0.29709566D+00 0.24667104D+06 0.24667104D+06 0.24667104D+06 0.10908974D+01  1  2  4  1  6  1        1 -.225385369244D-04 0.100000000000D+01
  </mgrwgt>
  </event>
  <event>
  5     66 0.17698235E-05 0.57120470E+02 0.75467711E-02 0.94985300E-01
        1 -1    0    0  501    0 0.00000000E+00 0.00000000E+00 0.49383403E+03 0.49383413E+03 0.32000000E+00 0.0000E+00 0.9000E+01
        2 -1    0    0  502    0 0.00000000E+00 0.00000000E+00 -.10424700E+04 0.10424700E+04 0.32000000E+00 0.0000E+00 0.9000E+01
       25  1    1    2    0    0 -.29248742E+03 -.35314365E+03 -.15698411E+03 0.50052806E+03 0.12500000E+03 0.0000E+00 0.9000E+01
        1  1    1    2  501    0 0.55578276E+02 -.13274663E+02 0.25187208E+03 0.25827274E+03 0.32000000E+00 0.0000E+00 0.9000E+01
        2  1    1    2  502    0 0.23690914E+03 0.36641831E+03 -.64352393E+03 0.77750336E+03 0.32000000E+00 0.0000E+00 0.9000E+01
#aMCatNLO 1  0  0  1  5 0.18854749D+02 0.00000000D+00  -5  6  0 0.00000000D+00 0.00000000D+00 0.00000000D+00 0.00000000D+00 0.00000000D+00
  <mgrwgt>
 0.4546019526D-01    3    2    0
 0.717500709546399D+03 0.000000000000000D+00 0.000000000000000D+00 0.717500709546399D+03
 0.717500709546399D+03 0.000000000000000D+00 0.000000000000000D+00 -.717500709546399D+03
 0.475930097165530D+03 -.292524692012540D+03 -.353222113800829D+03 0.234072696621074D+02
 0.372664187076456D+03 0.555577329907411D+02 -.132697560518321D+02 0.368260571075169D+03
 0.586407134850812D+03 0.236966959021799D+03 0.366491869852661D+03 -.391667840737277D+03
 0.000000000000000D+00 -.000000000000000D+00 0.000000000000000D+00 -.000000000000000D+00
 0.772665243871706D+03 0.000000000000000D+00 0.000000000000000D+00 0.772665243871706D+03
 0.265792943347669D+04 0.000000000000000D+00 0.000000000000000D+00 -.265792943347669D+04
 0.432610918212456D+03 -.162745033069522D+03 -.380122822907005D+03 0.234072696621074D+02
 0.405890664782465D+03 0.166769644651819D+03 -.363217451624675D+02 0.368260571075169D+03
 0.658904670836210D+03 0.414852314425966D+03 0.329619818878345D+03 -.391667840737277D+03
 0.193318842351727D+04 -.418876926008263D+03 0.868247491911276D+02 -.188526418960499D+04
0.466856016542D-02 0.000000000000D+00 0.000000000000D+00 0.308055488617D-05 0.000000000000D+00  6 1 2 25 1 2 21 0 0.75974478D-01 0.16038001D+00 0.23469319D+06 0.23469319D+06 0.23469319D+06 0.10925294D+01  1  2  2  1  6  1        1 0.730337449002D-01 0.100000000000D+01
0.137123845833D-02 0.000000000000D+00 -.179285002953D-04 0.308055488617D-05 0.000000000000D+00  6 1 2 25 1 2 21 2 0.75974478D-01 0.16038001D+00 0.23469319D+06 0.23469319D+06 0.23469319D+06 0.10925294D+01  1  2  3  1  6  1        1 0.256047097355D-01 0.100000000000D+01
-.284791646347D-02 0.000000000000D+00 0.000000000000D+00 0.308055488617D-05 0.000000000000D+00  6 1 2 25 1 2 21 2 0.75974478D-01 0.16038001D+00 0.23469319D+06 0.23469319D+06 0.23469319D+06 0.10925294D+01  1  2 15  1  6  1        1 -.531782593720D-01 0.100000000000D+01
  </mgrwgt>
  </event>
  <event>
  5     66 0.17698235E-05 0.65021362E+02 0.75467711E-02 0.81930970E-01
        1 -1    0    0  501    0 0.00000000E+00 0.00000000E+00 0.15417015E+04 0.15417016E+04 0.32000000E+00 0.0000E+00 0.9000E+01
        2 -1    0    0  502    0 0.00000000E+00 0.00000000E+00 -.19350762E+04 0.19350762E+04 0.32000000E+00 0.0000E+00 0.9000E+01
       25  1    1    2    0    0 0.87631723E+03 0.43920443E+02 -.48081105E+03 0.10082981E+04 0.12500000E+03 0.0000E+00 0.9000E+01
        1  1    1    2  501    0 -.11095777E+02 -.64071754E+02 0.11196029E+04 0.11214897E+04 0.32000000E+00 0.0000E+00 0.9000E+01
        2  1    1    2  502    0 -.86522145E+03 0.20151311E+02 -.10321665E+04 0.13469900E+04 0.32000000E+00 0.0000E+00 0.9000E+01
#aMCatNLO 1  0  0  2  2 0.42746296D+03 0.00000000D+00  -5  6  0 0.00000000D+00 0.00000000D+00 0.00000000D+00 0.00000000D+00 0.00000000D+00
  <mgrwgt>
 0.3142127830D-02    6    2    0
 0.172722610372239D+04 0.000000000000000D+00 0.000000000000000D+00 0.172722610372239D+04
 0.172722610372239D+04 0.000000000000000D+00 0.000000000000000D+00 -.172722610372239D+04
 0.960108921039942D+03 0.876389981160663D+03 0.439182378843384D+02 -.369047326995913D+03
 0.125615354277130D+04 -.110950838358913D+02 -.640677506898078D+02 0.125446958729701D+04
 0.123818974363354D+04 -.865294897324772D+03 0.201495128054694D+02 -.885422260301095D+03
 0.000000000000000D+00 -.000000000000000D+00 -.000000000000000D+00 -.000000000000000D+00
 0.231276559001458D+04 0.000000000000000D+00 0.000000000000000D+00 0.231276559001458D+04
 0.292759342028742D+04 0.000000000000000D+00 0.000000000000000D+00 -.292759342028742D+04
 0.138711121040471D+04 0.132939690113279D+04 0.704305312071588D+02 -.369047326995913D+03
 0.134774562541156D+04 0.491450172271174D+03 -.346562193191124D+02 0.125446958729701D+04
 0.987845108152926D+03 -.435676397359983D+03 0.452929955776030D+02 -.885422260301095D+03
 0.151765706633281D+04 -.138517067604398D+04 -.810673074656495D+02 -.614827830272847D+03
0.366761676451D-02 0.000000000000D+00 0.000000000000D+00 0.789141273742D-05 0.000000000000D+00  6 1 2 25 1 2 21 0 0.23718486D+00 0.29770403D+00 0.82528056D+06 0.82528056D+06 0.82528056D+06 0.10534610D+01  1  2  2  2  6  2        2 0.230541120278D-02 0.100000000000D+01
0.204869632112D-02 0.000000000000D+00 -.140846140814D-04 0.789141273742D-05 0.000000000000D+00  6 1 2 25 1 2 21 2 0.23718486D+00 0.29770403D+00 0.82528056D+06 0.82528056D+06 0.82528056D+06 0.10534610D+01  1  2  3  2  6  2        2 0.142915387816D-02 0.100000000000D+01
-.226194116428D-02 0.000000000000D+00 0.000000000000D+00 0.789141273742D-05 0.000000000000D+00  6 1 2 25 1 2 21 2 0.23718486D+00 0.29770403D+00 0.82528056D+06 0.82528056D+06 0.82528056D+06 0.10534610D+01  1  2 15  2  6  2        2 -.157791174503D-02 0.100000000000D+01
-.420005581302D-03 0.000000000000D+00 -.169939116285D-02 0.789141273742D-05 0.000000000000D+00  6 1 2 25 1 2 21 2 0.23718486D+00 0.54851836D+00 0.82528056D+06 0.82528056D+06 0.82528056D+06 0.10534610D+01  1  2  5  2  6  2        2 -.283397699032D-04 0.100000000000D+01
0.145310995745D-02 0.000000000000D+00 0.142492393629D-02 0.789141273742D-05 0.000000000000D+00  6 1 2 25 1 2 21 2 0.23718486D+00 0.29770403D+00 0.82528056D+06 0.82528056D+06 0.82528056D+06 0.10534610D+01  1  2  6  2  6  2        2 0.101367767866D-02 0.100000000000D+01
0.653945222642D-04 0.000000000000D+00 -.113368574098D-03 0.789141273742D-05 0.000000000000D+00  6 1 21 25 1 2 -2 2 0.23718486D+00 0.54851836D+00 0.82528056D+06 0.82528056D+06 0.82528056D+06 0.10534610D+01  1  2  5  6  6  2        2 0.136584996972D-06 0.100000000000D+01
  </mgrwgt>
  </event>
  <event>
  5     66 0.17698235E-05 0.25454939E+02 0.75467711E-02 0.93585639E-01
        1 -1    0    0  501    0 0.00000000E+00 0.00000000E+00 0.25353557E+04 0.25353557E+04 0.32000000E+00 0.0000E+00 0.9000E+01
        2 -1    0    0  502    0 0.00000000E+00 0.00000000E+00 -.43221408E+03 0.43221419E+03 0.32000000E+00 0.0000E+00 0.9000E+01
       25  1    1    2    0    0 -.51402997E+03 0.10234754E+03 0.36140035E+03 0.64879661E+03 0.12500000E+03 0.0000E+00 0.9000E+01
        1  1    1    2  501    0 0.52683907E+03 -.80352703E+02 0.19946345E+04 0.20646023E+04 0.32000000E+00 0.0000E+00 0.9000E+01
        2  1    1    2  502    0 -.12809107E+02 -.21994836E+02 -.25289317E+03 0.25417101E+03 0.32000000E+00 0.0000E+00 0.9000E+01
#aMCatNLO 1  0  0  2  4 0.81369941D+02 0.00000000D+00  -5  6  0 0.00000000D+00 0.00000000D+00 0.00000000D+00 0.00000000D+00 0.00000000D+00
  <mgrwgt>
 0.4643350270D-01    3    2    0
 0.104681260628533D+04 0.000000000000000D+00 0.000000000000000D+00 0.104681260628533D+04
 0.104681260628533D+04 0.000000000000000D+00 0.000000000000000D+00 -.104681260628533D+04
 0.556554252193947D+03 -.514017640825243D+03 0.102347714280138D+03 -.139421827334339D+03
 0.922711001497581D+03 0.526827672305204D+03 -.803509640692658D+02 0.753254219073009D+03
 0.614359958879135D+03 -.128100314799609D+02 -.219967502108718D+02 -.613832391738670D+03
 0.000000000000000D+00 -.000000000000000D+00 0.000000000000000D+00 0.000000000000000D+00
 0.225949850805262D+04 0.000000000000000D+00 0.000000000000000D+00 0.225949850805262D+04
 0.117948821843161D+04 0.000000000000000D+00 0.000000000000000D+00 -.117948821843161D+04
 0.427623441060918D+03 -.382305021208400D+03 0.405121236962315D+02 -.139421827334339D+03
 0.111843417729764D+04 0.799994378236414D+03 -.208595506150764D+03 0.753254219073009D+03
 0.641138088752872D+03 0.155213423949668D+03 -.100879317641875D+03 -.613832391738670D+03
 0.125179101937279D+04 -.572902780977683D+03 0.268962700096407D+03 0.108001028962101D+04
0.335309509504D-01 0.000000000000D+00 0.000000000000D+00 0.289383837042D-04 0.000000000000D+00  6 1 2 25 1 2 21 0 0.39005474D+00 0.66494484D-01 0.30095264D+06 0.30095264D+06 0.30095264D+06 0.10844500D+01  1  2  2  2  6  2        2 0.462284695890D-01 0.100000000000D+01
0.224879883295D-01 0.000000000000D+00 -.128767680552D-03 0.289383837042D-04 0.000000000000D+00  6 1 2 25 1 2 21 2 0.39005474D+00 0.66494484D-01 0.30095264D+06 0.30095264D+06 0.30095264D+06 0.10844500D+01  1  2  3  2  6  2        2 0.364613990240D-01 0.100000000000D+01
-.223615317947D-01 0.000000000000D+00 0.000000000000D+00 0.289383837042D-04 0.000000000000D+00  6 1 2 25 1 2 21 2 0.39005474D+00 0.66494484D-01 0.30095264D+06 0.30095264D+06 0.30095264D+06 0.10844500D+01  1  2 15  2  6  2        2 -.362563659145D-01 0.100000000000D+01
  </mgrwgt>
  </event>
  <event>
  6     66 0.17698235E-05 0.47476108E+02 0.75467711E-02 0.89550108E-01
        1 -1    0    0  503    0 0.00000000E+00 0.00000000E+00 0.14248992E+04 0.14248992E+04 0.32000000E+00 0.0000E+00 0.9000E+01
        2 -1    0    0  502    0 0.00000000E+00 0.00000000E+00 -.22860347E+04 0.22860347E+04 0.32000000E+00 0.0000E+00 0.9000E+01
       25  1    1    2    0    0 0.22995295E+03 -.69312702E+03 -.10094807E+04 0.12521900E+04 0.12500000E+03 0.0000E+00 0.9000E+01
        1  1    1    2  501    0 -.21351456E+03 0.76321470E+03 0.10935861E+04 0.13505613E+04 0.32000000E+00 0.0000E+00 0.9000E+01
        2  1    1    2  502    0 -.27706218E+01 -.16131782E+02 -.10171299E+04 0.10172616E+04 0.32000000E+00 0.0000E+00 0.9000E+01
       21  1    1    2  503  501 -.13667761E+02 -.53955901E+02 0.71888950E+02 0.90921013E+02 0.75000000E+00 0.0000E+00 0.9000E+01
#aMCatNLO 2  0  0  1  1 0.55660102D+02 0.00000000D+00  -5  6  0 0.00000000D+00 0.00000000D+00 0.00000000D+00 0.00000000D+00 0.00000000D+00
  <mgrwgt>
 0.2650475127D-01    2    2    0
 0.174863240424896D+04 0.000000000000000D+00 0.000000000000000D+00 0.174863240424896D+04
 0.174863240424896D+04 0.000000000000000D+00 0.000000000000000D+00 -.174863240424896D+04
 0.103661094207796D+04 0.225921294138450D+03 -.709041701063189D+03 -.710743751463204D+03
 0.167877640276293D+04 -.220095809233630D+03 0.737232774334357D+03 0.149209111038124D+04
 0.781877463657026D+03 -.582548490481929D+01 -.281910732711682D+02 -.781347358918034D+03
 0.000000000000000D+00 -.000000000000000D+00 -.000000000000000D+00 0.000000000000000D+00
 0.185481907014268D+04 0.000000000000000D+00 0.000000000000000D+00 0.185481907014268D+04
 0.175616296518315D+04 0.000000000000000D+00 0.000000000000000D+00 -.175616296518315D+04
 0.102668603326403D+04 0.229952853983462D+03 -.693126406653431D+03 -.710743751463204D+03
 0.168950288968156D+04 -.213514391384193D+03 0.763214083488683D+03 0.149209111038124D+04
 0.781518781778393D+03 -.277070141981188D+01 -.161317760286611D+02 -.781347358918034D+03
 0.113274330601843D+03 -.136677611794570D+02 -.539559008065907D+02 0.986561049595329D+02
-.134932397064D-01 0.000000000000D+00 0.000000000000D+00 0.504568444021D-04 0.000000000000D+00  6 1 2 25 1 2 21 2 0.20666525D+00 0.35018930D+00 0.60276748D+06 0.60276748D+06 0.60276748D+06 0.10628199D+01  1  2  8  1  6  1        1 -.866283202655D-02 0.100000000000D+01
0.637849235668D-01 0.000000000000D+00 0.000000000000D+00 0.504568444021D-04 0.317653228473D-07  6 1 2 25 1 2 21 2 0.21921511D+00 0.35169741D+00 0.64436110D+06 0.64436110D+06 0.64436110D+06 0.10608109D+01  1  2  1  1  6  1        1 0.351675832958D-01 0.100000000000D+01
  </mgrwgt>
  </event>
  <event>
  6     66 -.17698235E-05 0.20004503E+03 0.75467711E-02 0.93003248E-01
        1 -1    0    0  501    0 0.00000000E+00 0.00000000E+00 0.96270398E+03 0.96270403E+03 0.32000000E+00 0.0000E+00 0.9000E+01
        2 -1    0    0  502    0 -.00000000E+00 -.00000000E+00 -.14150488E+04 0.14150488E+04 0.32000000E+00 0.0000E+00 0.9000E+01
       25  1    1    2    0    0 0.44764977E+03 -.35506886E+03 -.26515624E+03 0.64218147E+03 0.12500000E+03 0.0000E+00 0.9000E+01
        1  1    1    2  501    0 -.26537721E+03 0.22497373E+03 0.71958987E+03 0.79927963E+03 0.32000000E+00 0.0000E+00 0.9000E+01
        2  1    1    2  503    0 -.11777331E+03 0.83141514E+02 -.69923062E+03 0.71393741E+03 0.32000000E+00 0.0000E+00 0.9000E+01
       21  1    1    2  502  503 -.64499251E+02 0.46953623E+02 -.20754781E+03 0.22235434E+03 0.75000000E+00 0.0000E+00 0.9000E+01
#aMCatNLO 2  0  0  5  2 0.27784799D+02 0.00000000D+00  -5  6  0 0.00000000D+00 0.00000000D+00 0.00000000D+00 0.00000000D+00 0.00000000D+00
  <mgrwgt>
 -.1303851716D-02    3    2    0
 0.116716459717084D+04 0.000000000000000D+00 0.000000000000000D+00 0.116716459717084D+04
 0.116716459717084D+04 -.000000000000000D+00 -.000000000000000D+00 -.116716459717084D+04
 0.602773968717757D+03 0.447818704643070D+03 -.355189181629627D+03 -.144950027212257D+03
 0.954458541925812D+03 -.265111513283959D+03 0.224783705537895D+03 0.888920288610902D+03
 0.777096683698118D+03 -.182707191359111D+03 0.130405476091732D+03 -.743970261398644D+03
 0.000000000000000D+00 0.000000000000000D+00 0.000000000000000D+00 0.000000000000000D+00
 0.116716459717084D+04 0.000000000000000D+00 0.000000000000000D+00 0.116716459717084D+04
 0.116716459717084D+04 -.000000000000000D+00 -.000000000000000D+00 -.116716459717084D+04
 0.602743757289400D+03 0.447652557453646D+03 -.355070595693425D+03 -.145626566362288D+03
 0.953578769767962D+03 -.265374483317344D+03 0.224971397834768D+03 0.887849493952946D+03
 0.591593830346530D+03 -.117730179489001D+03 0.831101645968360D+02 -.573773095815980D+03
 0.186412836937795D+03 -.645478946473006D+02 0.469890332618205D+02 -.168449831774678D+03
-.593691696741D-03 0.000000000000D+00 0.000000000000D+00 0.285610114989D-05 0.000000000000D+00  6 1 2 25 1 2 21 2 0.14810831D+00 0.21769982D+00 0.33451121D+06 0.33451121D+06 0.33451121D+06 0.10810704D+01  1  2 13  4  6  5        2 -.233859435955D-02 0.100000000000D+01
-.182530824250D-08 0.000000000000D+00 0.000000000000D+00 0.285610114989D-05 0.000000000000D+00  6 1 2 25 1 2 21 2 0.14810831D+00 0.21769982D+00 0.33451121D+06 0.33451121D+06 0.33451121D+06 0.10810704D+01  1  2 13  4  6  5        2 -.719002065177D-08 0.100000000000D+01
0.262688730999D-03 0.000000000000D+00 0.000000000000D+00 0.285610114989D-05 0.556558988996D-08  6 1 2 25 1 2 21 2 0.14810831D+00 0.21769982D+00 0.33451121D+06 0.33451121D+06 0.33451121D+06 0.10810704D+01  1  2  1  4  6  5        2 0.103474983397D-02 0.100000000000D+01
  </mgrwgt>
  </event>
  <event>
  5     66 -.17698235E-05 0.16884130E+03 0.75467711E-02 0.95009556E-01
        1 -1    0    0  501    0 0.00000000E+00 0.00000000E+00 0.11994917E+04 0.11994918E+04 0.32000000E+00 0.0000E+00 0.9000E+01
        2 -1    0    0  502    0 0.00000000E+00 0.00000000E+00 -.35830164E+03 0.35830179E+03 0.32000000E+00 0.0000E+00 0.9000E+01
       25  1    1    2    0    0 0.44196325E+03 0.16061499E+03 0.65747956E+03 0.81794441E+03 0.12500000E+03 0.0000E+00 0.9000E+01
        1  1    1    2  501    0 -.13601404E+03 -.10026948E+03 0.34837999E+03 0.38719828E+03 0.32000000E+00 0.0000E+00 0.9000E+01
        2  1    1    2  502    0 -.30594921E+03 -.60345505E+02 -.16466946E+03 0.35265087E+03 0.32000000E+00 0.0000E+00 0.9000E+01
#aMCatNLO 1  0  0  5  2 0.19892429D+02 0.00000000D+00  -5  6  0 0.00000000D+00 0.00000000D+00 0.00000000D+00 0.00000000D+00 0.00000000D+00
  <mgrwgt>
 -.4499157984D-02    8    2    0
 0.655576084613604D+03 0.000000000000000D+00 0.000000000000000D+00 0.655576084613604D+03
 0.655576084613604D+03 -.000000000000000D+00 -.000000000000000D+00 -.655576084613604D+03
 0.550060873168875D+03 0.441941021249265D+03 0.160559563896001D+03 0.256613959811206D+03
 0.236333222275422D+03 -.135903471814407D+03 -.100187976240401D+03 0.165366283494331D+03
 0.524758073782911D+03 -.306037549434858D+03 -.603715876556000D+02 -.421980243305537D+03
 0.000000000000000D+00 0.000000000000000D+00 0.000000000000000D+00 -.000000000000000D+00
 0.655576084613604D+03 0.000000000000000D+00 0.000000000000000D+00 0.655576084613604D+03
 0.655576084613604D+03 -.000000000000000D+00 -.000000000000000D+00 -.655576084613604D+03
 0.549480438362572D+03 0.441555105263949D+03 0.160483434804071D+03 0.256081839090465D+03
 0.236282608120293D+03 -.136069350078325D+03 -.100220698807187D+03 0.165137562050519D+03
 0.208075964719315D+03 -.136833849337202D+03 -.198132195576689D+02 -.155497720562706D+03
 0.317313158025027D+03 -.168651905848422D+03 -.404495164392147D+02 -.265721680578278D+03
0.123318663718D-04 0.000000000000D+00 0.000000000000D+00 0.919604238640D-07 0.000000000000D+00  6 1 2 25 1 2 21 0 0.18453720D+00 0.55123344D-01 0.23392296D+06 0.23392296D+06 0.23392296D+06 0.10926374D+01  1  2  2  4  6  5        2 0.169190955263D-03 0.100000000000D+01
0.683761319785D-06 0.000000000000D+00 -.473576139228D-07 0.919604238640D-07 0.000000000000D+00  6 1 2 25 1 2 21 2 0.18453720D+00 0.55123344D-01 0.23392296D+06 0.23392296D+06 0.23392296D+06 0.10926374D+01  1  2  3  4  6  5        2 0.111996646258D-04 0.100000000000D+01
-.801215514177D-05 0.000000000000D+00 0.000000000000D+00 0.919604238640D-07 0.000000000000D+00  6 1 2 25 1 2 21 2 0.18453720D+00 0.55123344D-01 0.23392296D+06 0.23392296D+06 0.23392296D+06 0.10926374D+01  1  2 15  4  6  5        2 -.131235049309D-03 0.100000000000D+01
0.260815076951D-03 0.000000000000D+00 0.000000000000D+00 0.919604238640D-07 0.000000000000D+00  6 1 2 25 1 2 21 2 0.18453720D+00 0.55123344D-01 0.23369934D+06 0.23369934D+06 0.23369934D+06 0.10926689D+01  1  2 12  4  6  5        2 0.427241245987D-02 0.100000000000D+01
0.399200519233D-06 0.000000000000D+00 0.000000000000D+00 0.919604238640D-07 0.000000000000D+00  6 1 2 25 1 2 21 2 0.18453720D+00 0.55123344D-01 0.23369934D+06 0.23369934D+06 0.23369934D+06 0.10926689D+01  1  2 12  4  6  5        2 0.653930475299D-05 0.100000000000D+01
-.730214519098D-03 0.000000000000D+00 0.000000000000D+00 0.919604238640D-07 0.000000000000D+00  6 1 2 25 1 2 21 2 0.18453720D+00 0.55123344D-01 0.23392296D+06 0.23392296D+06 0.23392296D+06 0.10926374D+01  1  2  4  4  6  5        2 -.119605445382D-01 0.100000000000D+01
-.262154991201D-03 0.000000000000D+00 0.000000000000D+00 0.919604238640D-07 0.000000000000D+00  6 1 2 25 1 2 21 2 0.18453720D+00 0.55123344D-01 0.23392296D+06 0.23392296D+06 0.23392296D+06 0.10926374D+01  1  2  5  4  6  5        2 -.429396617864D-02 0.100000000000D+01
0.453447784816D-03 0.000000000000D+00 -.000000000000D+00 0.919604238640D-07 0.000000000000D+00  6 1 2 25 1 2 21 2 0.18453720D+00 0.55123344D-01 0.23392296D+06 0.23392296D+06 0.23392296D+06 0.10926374D+01  1  2  6  4  6  5        2 0.742724539732D-02 0.100000000000D+01
  </mgrwgt>
  </event>
  <event>
  5     66 -.17698235E-05 0.53671925E+02 0.75467711E-02 0.93455643E-01
        1 -1    0    0  501    0 0.00000000E+00 0.00000000E+00 0.16424574E+04 0.16424574E+04 0.32000000E+00 0.0000E+00 0.9000E+01
        2 -1    0    0  502    0 0.00000000E+00 0.00000000E+00 -.90692070E+03 0.90692076E+03 0.32000000E+00 0.0000E+00 0.9000E+01
       25  1    1    2    0    0 -.46776949E+03 0.16611248E+03 0.61877416E+03 0.80306171E+03 0.12500000E+03 0.0000E+00 0.9000E+01
        1  1    1    2  501    0 0.45398733E+03 -.11424705E+03 0.87171094E+03 0.98946296E+03 0.32000000E+00 0.0000E+00 0.9000E+01
        2  1    1    2  502    0 0.13782158E+02 -.51865428E+02 -.75494843E+03 0.75685349E+03 0.32000000E+00 0.0000E+00 0.9000E+01
#aMCatNLO 1  0  0  5  2 0.79860737D+02 0.00000000D+00  -5  6  0 0.00000000D+00 0.00000000D+00 0.00000000D+00 0.00000000D+00 0.00000000D+00
  <mgrwgt>
 -.1614783247D-01    4    2    0
 0.122048298088635D+04 0.000000000000000D+00 0.000000000000000D+00 0.122048298088635D+04
 0.122048298088635D+04 -.000000000000000D+00 -.000000000000000D+00 -.122048298088635D+04
 0.652318113247309D+03 -.467708316095027D+03 0.166102927057890D+03 0.404416455586174D+03
 0.770628777498757D+03 0.453924316154145D+03 -.114231192542566D+03 0.612186787315377D+03
 0.101801907102664D+04 0.137839999408816D+02 -.518717345153227D+02 -.101660324290155D+04
 0.000000000000000D+00 0.000000000000000D+00 0.000000000000000D+00 -.000000000000000D+00
 0.122048298088635D+04 0.000000000000000D+00 0.000000000000000D+00 0.122048298088635D+04
 0.122048298088635D+04 -.000000000000000D+00 -.000000000000000D+00 -.122048298088635D+04
 0.648968809399222D+03 -.467637392462715D+03 0.165836028346200D+03 0.399185666634055D+03
 0.765828391453027D+03 0.454008057196507D+03 -.114546325532703D+03 0.606010683456274D+03
 0.211609401979023D+03 0.438060589502855D+02 -.783064850432610D+02 -.191644625819075D+03
 0.814559358941436D+03 -.301767236840776D+02 0.270167822297650D+02 -.813551724271252D+03
0.710715747996D-02 0.000000000000D+00 0.000000000000D+00 0.287695822112D-04 0.000000000000D+00  6 1 2 25 1 2 21 0 0.25268576D+00 0.13952627D+00 0.26706947D+06 0.26706947D+06 0.26706947D+06 0.10883077D+01  1  2  2  4  6  5        2 0.161433628293D-01 0.100000000000D+01
0.325376747440D-02 0.000000000000D+00 -.272933560806D-04 0.287695822112D-04 0.000000000000D+00  6 1 2 25 1 2 21 2 0.25268576D+00 0.13952627D+00 0.26706947D+06 0.26706947D+06 0.26706947D+06 0.10883077D+01  1  2  3  4  6  5        2 0.875362668440D-02 0.100000000000D+01
-.410599286785D-02 0.000000000000D+00 0.000000000000D+00 0.287695822112D-04 0.000000000000D+00  6 1 2 25 1 2 21 2 0.25268576D+00 0.13952627D+00 0.26706947D+06 0.26706947D+06 0.26706947D+06 0.10883077D+01  1  2 15  4  6  5        2 -.110463728637D-01 0.100000000000D+01
-.111505758198D-01 0.000000000000D+00 0.000000000000D+00 0.287695822112D-04 0.000000000000D+00  6 1 2 25 1 2 21 2 0.25268576D+00 0.13952627D+00 0.26706947D+06 0.26706947D+06 0.26706947D+06 0.10883077D+01  1  2  5  4  6  5        2 -.299984491241D-01 0.100000000000D+01
  </mgrwgt>
  </event>
  <event>
  5     66 0.17698235E-05 0.17453732E+02 0.75467711E-02 0.78633639E-01
        1 -1    0    0  501    0 0.00000000E+00 0.00000000E+00 0.66324984E+03 0.66324992E+03 0.32000000E+00 0.0000E+00 0.9000E+01
        2 -1    0    0  502    0 0.00000000E+00 0.00000000E+00 -.16169789E+04 0.16169789E+04 0.32000000E+00 0.0000E+00 0.9000E+01
       25  1    1    2    0    0 0.33185134E+01 0.48536706E+03 -.62766007E+02 0.50513044E+03 0.12500000E+03 0.0000E+00 0.9000E+01
        1  1    1    2  501    0 0.13385442E+02 -.11206005E+02 0.39965373E+03 0.40003494E+03 0.32000000E+00 0.0000E+00 0.9000E+01
        2  1    1    2  502    0 -.16703955E+02 -.47416105E+03 -.12906168E+04 0.13750635E+04 0.32000000E+00 0.0000E+00 0.9000E+01
#aMCatNLO 1  0  0  1  2 0.24237128D+03 0.00000000D+00  -5  6  0 0.00000000D+00 0.00000000D+00 0.00000000D+00 0.00000000D+00 0.00000000D+00
  <mgrwgt>
 0.9897346336D-02    5    2    0
 0.103559699179495D+04 0.000000000000000D+00 0.000000000000000D+00 0.103559699179495D+04
 0.103559699179495D+04 0.000000000000000D+00 0.000000000000000D+00 -.103559699179495D+04
 0.527300412210063D+03 0.332264963373991D+01 0.485432950328298D+03 0.163598702476142D+03
 0.624323490922677D+03 0.133829851562912D+02 -.112039480780273D+02 0.624079472962899D+03
 0.919570080457168D+03 -.167056347900311D+02 -.474229002250271D+03 -.787678175439041D+03
 0.000000000000000D+00 0.000000000000000D+00 0.000000000000000D+00 0.000000000000000D+00
 0.801005355048848D+04 0.000000000000000D+00 0.000000000000000D+00 0.801005355048848D+04
 0.193451932524534D+04 0.000000000000000D+00 0.000000000000000D+00 -.193451932524534D+04
 0.795803129993846D+03 -.633830662408097D+03 0.434938820579904D+03 0.163598702476142D+03
 0.988697675289927D+03 -.763382963738401D+03 -.727623200841794D+02 0.624079472962899D+03
 0.154758086903594D+04 -.120478604470132D+04 -.568383870844358D+03 -.787678175439041D+03
 0.661249120141411D+04 0.260199967084782D+04 0.206207370348633D+03 0.607553422524314D+04
0.157733996731D-02 0.000000000000D+00 0.000000000000D+00 0.552051269300D-04 0.000000000000D+00  6 1 2 25 1 2 21 0 0.10203844D+00 0.24876600D+00 0.24663959D+06 0.24663959D+06 0.24663959D+06 0.10909015D+01  1  2  2  1  6  1        1 0.761344285510D-02 0.100000000000D+01
0.127713913694D-02 0.000000000000D+00 -.605740079760D-05 0.552051269300D-04 0.000000000000D+00  6 1 2 25 1 2 21 2 0.10203844D+00 0.24876600D+00 0.24663959D+06 0.24663959D+06 0.24663959D+06 0.10909015D+01  1  2  3  1  6  1        1 0.733609751209D-02 0.100000000000D+01
-.879675108695D-03 0.000000000000D+00 0.000000000000D+00 0.552051269300D-04 0.000000000000D+00  6 1 2 25 1 2 21 2 0.10203844D+00 0.24876600D+00 0.24663959D+06 0.24663959D+06 0.24663959D+06 0.10909015D+01  1  2 15  1  6  1        1 -.505299868250D-02 0.100000000000D+01
0.259733320575D-02 0.000000000000D+00 -.185136671123D-02 0.552051269300D-04 0.000000000000D+00  6 1 2 25 1 2 21 2 0.83103495D+00 0.24876600D+00 0.24663959D+06 0.24663959D+06 0.24663959D+06 0.10909015D+01  1  2  5  1  6  1        1 0.801121944063D-06 0.100000000000D+01
0.432793273037D-03 0.000000000000D+00 -.470727929343D-03 0.552051269300D-04 0.000000000000D+00  6 21 2 25 1 2 -1 2 0.83103495D+00 0.24876600D+00 0.24663959D+06 0.24663959D+06 0.24663959D+06 0.10909015D+01  1  2  5  5  6  1        1 0.352985887573D-08 0.100000000000D+01
  </mgrwgt>
  </event>
  <event>
  5     66 -.17698235E-05 0.12324103E+02 0.75467711E-02 0.92340556E-01
        1 -1    0    0  501    0 0.00000000E+00 0.00000000E+00 0.84229498E+03 0.84229504E+03 0.32000000E+00 0.0000E+00 0.9000E+01
        2 -1    0    0  502    0 0.00000000E+00 0.00000000E+00 -.98283601E+03 0.98283606E+03 0.32000000E+00 0.0000E+00 0.9000E+01
       25  1    1    2    0    0 -.20333998E+03 0.55392989E+03 -.36171442E+03 0.70331201E+03 0.12500000E+03 0.0000E+00 0.9000E+01
        1  1    1    2  501    0 0.35482809E+01 -.11805235E+02 0.48606550E+03 0.48622189E+03 0.32000000E+00 0.0000E+00 0.9000E+01
        2  1    1    2  502    0 0.19979169E+03 -.54212466E+03 -.26489211E+03 0.63559720E+03 0.32000000E+00 0.0000E+00 0.9000E+01
#aMCatNLO 1  0  0  2  5 0.14123976D+02 0.00000000D+00  -5  6  0 0.00000000D+00 0.00000000D+00 0.00000000D+00 0.00000000D+00 0.00000000D+00
  <mgrwgt>
 -.1386837084D-02    7    2    0
 0.909855996470917D+03 0.000000000000000D+00 0.000000000000000D+00 0.909855996470917D+03
 0.909855996470917D+03 0.000000000000000D+00 0.000000000000000D+00 -.909855996470917D+03
 0.677522923686110D+03 -.203372199890138D+03 0.554017266897329D+03 -.308410324748756D+03
 0.525088238781164D+03 0.354745938859138D+01 -.118025012020988D+02 0.524943592211169D+03
 0.617100830474561D+03 0.199824740501546D+03 -.542214765695230D+03 -.216533267462412D+03
 0.000000000000000D+00 -.000000000000000D+00 0.000000000000000D+00 -.000000000000000D+00
 0.910602950691037D+03 0.000000000000000D+00 0.000000000000000D+00 0.910602950691037D+03
 0.129262599154150D+04 0.000000000000000D+00 0.000000000000000D+00 -.129262599154150D+04
 0.673244624235022D+03 -.192025703369200D+03 0.552849459523374D+03 -.308410324748756D+03
 0.525243141176550D+03 0.123702811737784D+02 -.127105662000316D+02 0.524943592211169D+03
 0.621483766298724D+03 0.210228896153497D+03 -.543285585191601D+03 -.216533267462412D+03
 0.383257410522240D+03 -.305734739580761D+02 0.314669186825826D+01 -.382023040850462D+03
0.182376354603D-05 0.000000000000D+00 0.000000000000D+00 0.266625081804D-05 0.000000000000D+00  6 1 2 25 1 2 21 0 0.12958385D+00 0.15120555D+00 0.35607847D+06 0.35607847D+06 0.35607847D+06 0.10790882D+01  1  2  2  2  6  2        2 0.137318932448D-04 0.100000000000D+01
0.189817144806D-05 0.000000000000D+00 -.700373222473D-08 0.266625081804D-05 0.000000000000D+00  6 1 2 25 1 2 21 2 0.12958385D+00 0.15120555D+00 0.35607847D+06 0.35607847D+06 0.35607847D+06 0.10790882D+01  1  2  3  2  6  2        2 0.166422179262D-04 0.100000000000D+01
-.126849090992D-05 0.000000000000D+00 0.000000000000D+00 0.266625081804D-05 0.000000000000D+00  6 1 2 25 1 2 21 2 0.12958385D+00 0.15120555D+00 0.35607847D+06 0.35607847D+06 0.35607847D+06 0.10790882D+01  1  2 15  2  6  2        2 -.111214938892D-04 0.100000000000D+01
-.271726894106D-03 0.000000000000D+00 0.000000000000D+00 0.266625081804D-05 0.000000000000D+00  6 1 2 25 1 2 21 2 0.12958385D+00 0.15120555D+00 0.35607847D+06 0.35607847D+06 0.35607847D+06 0.10790882D+01  1  2  4  2  6  2        2 -.238236550905D-02 0.100000000000D+01
-.307976482972D-03 0.000000000000D+00 -.140397683613D-05 0.266625081804D-05 0.000000000000D+00  6 1 2 25 1 2 21 2 0.12958385D+00 0.21487414D+00 0.35607847D+06 0.35607847D+06 0.35607847D+06 0.10790882D+01  1  2  5  2  6  2        2 -.154378112175D-02 0.100000000000D+01
0.290434052222D-03 0.000000000000D+00 0.132153506035D-05 0.266625081804D-05 0.000000000000D+00  6 1 2 25 1 2 21 2 0.12958385D+00 0.15120555D+00 0.35607847D+06 0.35607847D+06 0.35607847D+06 0.10790882D+01  1  2  6  2  6  2        2 0.254638051542D-02 0.100000000000D+01
-.133029650619D-04 0.000000000000D+00 -.608264872722D-07 0.266625081804D-05 0.000000000000D+00  6 1 21 25 1 2 -2 2 0.12958385D+00 0.21487414D+00 0.35607847D+06 0.35607847D+06 0.35607847D+06 0.10790882D+01  1  2  5  6  6  2        2 -.263235862826D-04 0.100000000000D+01
  </mgrwgt>
  </event>
  <event>
  5     66 0.17698235E-05 0.34791990E+02 0.75467711E-02 0.91977302E-01
        1 -1    0    0  501    0 0.00000000E+00 0.00000000E+00 0.97376970E+03 0.97376976E+03 0.32000000E+00 0.0000E+00 0.9000E+01
        2 -1    0    0  502    0 0.00000000E+00 0.00000000E+00 -.92815129E+03 0.92815134E+03 0.32000000E+00 0.0000E+00 0.9000E+01
       25  1    1    2    0    0 -.21882195E+03 0.52867314E+03 -.14595036E+03 0.60357671E+03 0.12500000E+03 0.0000E+00 0.9000E+01
        1  1    1    2  501    0 0.18733971E+03 -.54347681E+03 0.63327046E+03 0.85527469E+03 0.32000000E+00 0.0000E+00 0.9000E+01
        2  1    1    2  502    0 0.31482247E+02 0.14803677E+02 -.44170168E+03 0.44306970E+03 0.32000000E+00 0.0000E+00 0.9000E+01
#aMCatNLO 1  0  0  1  1 0.82207702D+02 0.00000000D+00  -5  6  0 0.00000000D+00 0.00000000D+00 0.00000000D+00 0.00000000D+00 0.00000000D+00
  <mgrwgt>
 0.8480946936D-02    7    2    0
 0.950686964566938D+03 0.000000000000000D+00 0.000000000000000D+00 0.950686964566938D+03
 0.950686964566938D+03 0.000000000000000D+00 0.000000000000000D+00 -.950686964566938D+03
 0.607226585497419D+03 -.218820879997864D+03 0.528661069891933D+03 -.160418271379951D+03
 0.840309923214054D+03 0.187335875274697D+03 -.543465698317329D+03 0.612920118481627D+03
 0.453837420422402D+03 0.314850047231674D+02 0.148046284253963D+02 -.452501847101675D+03
 0.000000000000000D+00 0.000000000000000D+00 0.000000000000000D+00 0.000000000000000D+00
 0.101408869578593D+04 0.000000000000000D+00 0.000000000000000D+00 0.101408869578593D+04
 0.978601691404202D+03 0.000000000000000D+00 0.000000000000000D+00 -.978601691404202D+03
 0.594779387826441D+03 -.234003738827037D+03 0.507588168307371D+03 -.160418271379951D+03
 0.855424561373982D+03 0.165916599611644D+03 -.573194374131192D+03 0.612920118481627D+03
 0.452946314098925D+03 0.200311769258261D+02 -.109260072331509D+01 -.452501847101675D+03
 0.895401238907876D+02 0.480559622895666D+02 0.666988065471357D+02 0.354870043817326D+02
0.484531694033D-03 0.000000000000D+00 0.000000000000D+00 0.779525729490D-05 0.000000000000D+00  6 1 2 25 1 2 21 0 0.14981073D+00 0.14279251D+00 0.35718140D+06 0.35718140D+06 0.35718140D+06 0.10789904D+01  1  2  2  1  6  1        1 0.309432932240D-02 0.100000000000D+01
0.245568072950D-03 0.000000000000D+00 -.186072928521D-05 0.779525729490D-05 0.000000000000D+00  6 1 2 25 1 2 21 2 0.14981073D+00 0.14279251D+00 0.35718140D+06 0.35718140D+06 0.35718140D+06 0.10789904D+01  1  2  3  1  6  1        1 0.182579233052D-02 0.100000000000D+01
-.299273900760D-03 0.000000000000D+00 0.000000000000D+00 0.779525729490D-05 0.000000000000D+00  6 1 2 25 1 2 21 2 0.14981073D+00 0.14279251D+00 0.35718140D+06 0.35718140D+06 0.35718140D+06 0.10789904D+01  1  2 15  1  6  1        1 -.222509378425D-02 0.100000000000D+01
-.204816964795D-03 0.000000000000D+00 0.000000000000D+00 0.779525729490D-05 0.000000000000D+00  6 1 2 25 1 2 21 2 0.14981073D+00 0.14279251D+00 0.35718140D+06 0.35718140D+06 0.35718140D+06 0.10789904D+01  1  2  4  1  6  1        1 -.152280888549D-02 0.100000000000D+01
-.716149577589D-02 0.000000000000D+00 -.144088151390D-02 0.779525729490D-05 0.000000000000D+00  6 1 2 25 1 2 21 2 0.16276308D+00 0.14279251D+00 0.35718140D+06 0.35718140D+06 0.35718140D+06 0.10789904D+01  1  2  5  1  6  1        1 -.459253288940D-01 0.100000000000D+01
0.726093943470D-02 0.000000000000D+00 0.143594176648D-02 0.779525729490D-05 0.000000000000D+00  6 1 2 25 1 2 21 2 0.14981073D+00 0.14279251D+00 0.35718140D+06 0.35718140D+06 0.35718140D+06 0.10789904D+01  1  2  6  1  6  1        1 0.539848986594D-01 0.100000000000D+01
-.954059072103D-04 0.000000000000D+00 -.198678964478D-04 0.779525729490D-05 0.000000000000D+00  6 21 2 25 1 2 -1 2 0.16276308D+00 0.14279251D+00 0.35718140D+06 0.35718140D+06 0.35718140D+06 0.10789904D+01  1  2  5  5  6  1        1 -.750841812708D-03 0.100000000000D+01
  </mgrwgt>
  </event>
  <event>
  5     66 0.17698235E-05 0.25045980E+03 0.75467711E-02 0.89994796E-01
        1 -1    0    0  501    0 0.00000000E+00 0.00000000E+00 0.13860620E+04 0.13860620E+04 0.32000000E+00 0.0000E+00 0.9000E+01
        2 -1    0    0  502    0 -.00000000E+00 -.00000000E+00 -.16752138E+04 0.16752139E+04 0.32000000E+00 0.0000E+00 0.9000E+01
       25  1    1    2    0    0 -.61957958E+03 0.30210046E+03 -.44086329E+03 0.82772519E+03 0.12500000E+03 0.0000E+00 0.9000E+01
        1  1    1    2  501    0 0.39571851E+03 -.41438092E+03 0.11067213E+04 0.12462491E+04 0.32000000E+00 0.0000E+00 0.9000E+01
        2  1    1    2  502    0 0.22386107E+03 0.11228045E+03 -.95500982E+03 0.98730164E+03 0.32000000E+00 0.0000E+00 0.9000E+01
#aMCatNLO 1  0  0  4  1 0.53207093D+02 0.00000000D+00  -5  6  0 0.00000000D+00 0.00000000D+00 0.00000000D+00 0.00000000D+00 0.00000000D+00
  <mgrwgt>
 0.1000932903D-03    8    2    0
 0.152379471487598D+04 0.000000000000000D+00 0.000000000000000D+00 0.152379471487598D+04
 0.152379471487598D+04 -.000000000000000D+00 -.000000000000000D+00 -.152379471487598D+04
 0.789587969226136D+03 -.619591382958257D+03 0.302088315754513D+03 -.364243502063015D+03
 0.135682745693709D+04 0.395711845910314D+03 -.414373942851420D+03 0.122991345971592D+04
 0.901174003588728D+03 0.223879537047943D+03 0.112285627096908D+03 -.865669957652909D+03
 0.000000000000000D+00 0.000000000000000D+00 0.000000000000000D+00 0.000000000000000D+00
 0.152379471487598D+04 0.000000000000000D+00 0.000000000000000D+00 0.152379471487598D+04
 0.152379471487598D+04 -.000000000000000D+00 -.000000000000000D+00 -.152379471487598D+04
 0.788335971288374D+03 -.619113091016193D+03 0.301587467170080D+03 -.362756921099371D+03
 0.107462144917815D+04 0.282274465447740D+03 -.370958267348269D+03 0.968257377496249D+03
 0.899609274047703D+03 0.224425380931152D+03 0.111714040766087D+03 -.863973418249807D+03
 0.285022735237728D+03 0.112413244637301D+03 -.423432405878976D+02 0.258472961852929D+03
0.196218619950D-04 0.000000000000D+00 0.000000000000D+00 0.737524401426D-06 0.000000000000D+00  6 1 2 25 1 2 21 0 0.21324031D+00 0.25772521D+00 0.58063095D+06 0.58063095D+06 0.58063095D+06 0.10639515D+01  1  2  2  3  6  4        1 0.225553235771D-04 0.100000000000D+01
0.197679820132D-05 0.000000000000D+00 -.753531166158D-07 0.737524401426D-06 0.000000000000D+00  6 1 2 25 1 2 21 2 0.21324031D+00 0.25772521D+00 0.58063095D+06 0.58063095D+06 0.58063095D+06 0.10639515D+01  1  2  3  3  6  4        1 0.257225996052D-05 0.100000000000D+01
-.131053980071D-04 0.000000000000D+00 0.000000000000D+00 0.737524401426D-06 0.000000000000D+00  6 1 2 25 1 2 21 2 0.21324031D+00 0.25772521D+00 0.58063095D+06 0.58063095D+06 0.58063095D+06 0.10639515D+01  1  2 15  3  6  4        1 -.170530763017D-04 0.100000000000D+01
0.665892672589D-03 0.000000000000D+00 0.000000000000D+00 0.737524401426D-06 0.000000000000D+00  6 1 2 25 1 2 21 2 0.21324031D+00 0.25772521D+00 0.59049529D+06 0.59049529D+06 0.59049529D+06 0.10634416D+01  1  2 12  3  6  4        1 0.864553051858D-03 0.100000000000D+01
0.293053020236D-08 0.000000000000D+00 0.000000000000D+00 0.737524401426D-06 0.000000000000D+00  6 1 2 25 1 2 21 2 0.21324031D+00 0.25772521D+00 0.59049529D+06 0.59049529D+06 0.59049529D+06 0.10634416D+01  1  2 12  3  6  4        1 0.380481560214D-08 0.100000000000D+01
-.765029303046D-03 0.000000000000D+00 0.000000000000D+00 0.737524401426D-06 0.000000000000D+00  6 1 2 25 1 2 21 2 0.21324031D+00 0.25772521D+00 0.58063095D+06 0.58063095D+06 0.58063095D+06 0.10639515D+01  1  2  4  3  6  4        1 -.995475533889D-03 0.100000000000D+01
-.739986147583D-03 0.000000000000D+00 0.000000000000D+00 0.737524401426D-06 0.000000000000D+00  6 1 2 25 1 2 21 2 0.21324031D+00 0.25772521D+00 0.58063095D+06 0.58063095D+06 0.58063095D+06 0.10639515D+01  1  2  5  3  6  4        1 -.962888744787D-03 0.100000000000D+01
0.911315009090D-03 0.000000000000D+00 -.000000000000D+00 0.737524401426D-06 0.000000000000D+00  6 1 2 25 1 2 21 2 0.21324031D+00 0.25772521D+00 0.58063095D+06 0.58063095D+06 0.58063095D+06 0.10639515D+01  1  2  6  3  6  4        1 0.118582620509D-02 0.100000000000D+01
  </mgrwgt>
  </event>
  <event>
  5     66 0.17698235E-05 0.11852869E+03 0.75467711E-02 0.87039377E-01
        1 -1    0    0  501    0 0.00000000E+00 0.00000000E+00 0.20306662E+04 0.20306662E+04 0.32000000E+00 0.0000E+00 0.9000E+01
        2 -1    0    0  502    0 0.00000000E+00 0.00000000E+00 -.22933574E+04 0.22933574E+04 0.32000000E+00 0.0000E+00 0.9000E+01
       25  1    1    2    0    0 0.23046266E+03 0.88859146E+03 -.92584902E+03 0.13097821E+04 0.12500000E+03 0.0000E+00 0.9000E+01
        1  1    1    2  501    0 -.71767532E+02 -.94335336E+02 0.16968705E+04 0.17010054E+04 0.32000000E+00 0.0000E+00 0.9000E+01
        2  1    1    2  502    0 -.15869513E+03 -.79425612E+03 -.10337127E+04 0.13132361E+04 0.32000000E+00 0.0000E+00 0.9000E+01
#aMCatNLO 1  0  0  2  2 0.23229155D+03 0.00000000D+00  -5  6  0 0.00000000D+00 0.00000000D+00 0.00000000D+00 0.00000000D+00 0.00000000D+00
  <mgrwgt>
 0.5921106453D-03    7    2    0
 0.215801840624963D+04 0.000000000000000D+00 0.000000000000000D+00 0.215801840624963D+04
 0.215801840624963D+04 0.000000000000000D+00 0.000000000000000D+00 -.215801840624963D+04
 0.125586814634978D+04 0.230473616195759D+03 0.888642993791405D+03 -.847806194150010D+03
 0.180738744044242D+04 -.717657863122384D+02 -.943330409128343D+02 0.180349668953844D+04
 0.125278122570706D+04 -.158707829883521D+03 -.794309952878571D+03 -.955690495388430D+03
 0.000000000000000D+00 -.000000000000000D+00 -.000000000000000D+00 -.000000000000000D+00
 0.223194167832227D+04 0.000000000000000D+00 0.000000000000000D+00 0.223194167832227D+04
 0.235167609633106D+04 0.000000000000000D+00 0.000000000000000D+00 -.235167609633106D+04
 0.127184901769923D+04 0.298399580892295D+03 0.891155020805403D+03 -.847806194150010D+03
 0.180595576766487D+04 0.253336149503638D+02 -.907421265974560D+02 0.180349668953844D+04
 0.124447853843547D+04 -.916003302827724D+02 -.791828194208053D+03 -.955690495388430D+03
 0.261334450853760D+03 -.232132865559886D+03 -.858469999989413D+01 -.119734418008791D+03
0.120824882070D-02 0.000000000000D+00 0.000000000000D+00 0.519611792999D-05 0.000000000000D+00  6 1 2 25 1 2 21 0 0.31241018D+00 0.35282422D+00 0.86030591D+06 0.86030591D+06 0.86030591D+06 0.10522418D+01  1  2  2  2  6  2        2 0.222384590683D-03 0.100000000000D+01
0.461746069477D-03 0.000000000000D+00 -.463999361071D-05 0.519611792999D-05 0.000000000000D+00  6 1 2 25 1 2 21 2 0.31241018D+00 0.35282422D+00 0.86030591D+06 0.86030591D+06 0.86030591D+06 0.10522418D+01  1  2  3  2  6  2        2 0.940984804980D-04 0.100000000000D+01
-.723294402379D-03 0.000000000000D+00 0.000000000000D+00 0.519611792999D-05 0.000000000000D+00  6 1 2 25 1 2 21 2 0.31241018D+00 0.35282422D+00 0.86030591D+06 0.86030591D+06 0.86030591D+06 0.10522418D+01  1  2 15  2  6  2        2 -.147398989868D-03 0.100000000000D+01
-.415014729084D-03 0.000000000000D+00 0.000000000000D+00 0.519611792999D-05 0.000000000000D+00  6 1 2 25 1 2 21 2 0.31241018D+00 0.35282422D+00 0.86030591D+06 0.86030591D+06 0.86030591D+06 0.10522418D+01  1  2  4  2  6  2        2 -.845751766448D-04 0.100000000000D+01
-.854995046297D-02 0.000000000000D+00 -.212242222289D-02 0.519611792999D-05 0.000000000000D+00  6 1 2 25 1 2 21 2 0.31241018D+00 0.38927882D+00 0.86030591D+06 0.86030591D+06 0.86030591D+06 0.10522418D+01  1  2  5  2  6  2        2 -.126872216038D-02 0.100000000000D+01
0.872663961467D-02 0.000000000000D+00 0.211220362420D-02 0.519611792999D-05 0.000000000000D+00  6 1 2 25 1 2 21 2 0.31241018D+00 0.35282422D+00 0.86030591D+06 0.86030591D+06 0.86030591D+06 0.10522418D+01  1  2  6  2  6  2        2 0.177838769375D-02 0.100000000000D+01
-.130075198654D-03 0.000000000000D+00 -.339733198121D-04 0.519611792999D-05 0.000000000000D+00  6 1 21 25 1 2 -2 2 0.31241018D+00 0.38927882D+00 0.86030591D+06 0.86030591D+06 0.86030591D+06 0.10522418D+01  1  2  5  6  6  2        2 -.206379274210D-05 0.100000000000D+01
  </mgrwgt>
  </event>
  <event>
  6     66 0.17698235E-05 0.39549376E+02 0.75467711E-02 0.94913520E-01
        1 -1    0    0  501    0 0.00000000E+00 0.00000000E+00 0.42466804E+03 0.42466816E+03 0.32000000E+00 0.0000E+00 0.9000E+01
        2 -1    0    0  503    0 0.00000000E+00 0.00000000E+00 -.12162781E+04 0.12162782E+04 0.32000000E+00 0.0000E+00 0.9000E+01
       25  1    1    2    0    0 -.41784345E+03 0.17384771E+03 0.17586256E+03 0.50136695E+03 0.12500000E+03 0.0000E+00 0.9000E+01
        1  1    1    2  501    0 -.17132481E+02 -.46432451E+02 0.17640618E+02 0.52543203E+02 0.32000000E+00 0.0000E+00 0.9000E+01
        2  1    1    2  502    0 0.41359181E+03 -.10877647E+03 -.95050637E+03 0.10422826E+04 0.32000000E+00 0.0000E+00 0.9000E+01
       21  1    1    2  503  502 0.21384116E+02 -.18638791E+02 -.34606912E+02 0.44753612E+02 0.75000000E+00 0.0000E+00 0.9000E+01
#aMCatNLO 2  0  0  2  1 0.92140367D+02 0.00000000D+00  -5  6  0 0.00000000D+00 0.00000000D+00 0.00000000D+00 0.00000000D+00 0.00000000D+00
  <mgrwgt>
 0.4815833010D-02    1    2    0
 0.702490694547676D+03 0.000000000000000D+00 0.000000000000000D+00 0.702490694547676D+03
 0.702490694547676D+03 0.000000000000000D+00 0.000000000000000D+00 -.702490694547676D+03
 0.655900683481045D+03 -.407954145705696D+03 0.164952404725289D+03 0.470047684568047D+03
 0.692686983522816D+02 -.160109811351577D+02 -.471588486246059D+02 0.481439928849956D+02
 0.679812007262025D+03 0.423965126840854D+03 -.117793556100683D+03 -.518191677453043D+03
 0.000000000000000D+00 0.000000000000000D+00 -.000000000000000D+00 -.000000000000000D+00
 0.711125115707207D+03 0.000000000000000D+00 0.000000000000000D+00 0.711125115707207D+03
 0.726325452904517D+03 0.000000000000000D+00 0.000000000000000D+00 -.726325452904517D+03
 0.664431801804826D+03 -.418000992973180D+03 0.173709422183313D+03 0.470047684568047D+03
 0.689008864631390D+02 -.170623592774986D+02 -.462424480362082D+02 0.481439928849956D+02
 0.671935040192904D+03 0.413679235763115D+03 -.108828183646916D+03 -.518191677453043D+03
 0.321828401508556D+02 0.213841164875641D+02 -.186387905001885D+02 -.152003371973091D+02
0.265606841995D-03 0.000000000000D+00 0.000000000000D+00 0.130138899987D-06 0.134315247573D-08  6 1 2 25 1 2 21 2 0.65333158D-01 0.18711858D+00 0.23766219D+06 0.23766219D+06 0.23766219D+06 0.10921165D+01  1  2  1  2  6  2        2 0.481583300992D-02 0.100000000000D+01
  </mgrwgt>
  </event>
  <event>
  6     66 -.17698235E-05 0.50807407E+02 0.75467711E-02 0.94003113E-01
        1 -1    0    0  501    0 0.00000000E+00 0.00000000E+00 0.43617949E+03 0.43617961E+03 0.32000000E+00 0.0000E+00 0.9000E+01
        2 -1    0    0  503    0 0.00000000E+00 0.00000000E+00 -.15697723E+04 0.15697724E+04 0.32000000E+00 0.0000E+00 0.9000E+01
       25  1    1    2    0    0 -.35819690E+03 0.27681021E+03 -.80256316E+02 0.47643991E+03 0.12500000E+03 0.0000E+00 0.9000E+01
        1  1    1    2  501    0 0.37977167E+02 0.55297256E+02 0.16658693E+03 0.17958664E+03 0.32000000E+00 0.0000E+00 0.9000E+01
        2  1    1    2  502    0 0.35233119E+03 -.33690374E+03 -.86012317E+03 0.98866241E+03 0.32000000E+00 0.0000E+00 0.9000E+01
       21  1    1    2  503  502 -.32111459E+02 0.47962746E+01 -.35980030E+03 0.36126302E+03 0.75000000E+00 0.0000E+00 0.9000E+01
#aMCatNLO 2  0  0  2  5 0.32467677D+02 0.00000000D+00  -5  6  0 0.00000000D+00 0.00000000D+00 0.00000000D+00 0.00000000D+00 0.00000000D+00
  <mgrwgt>
 -.9697075149D-02    3    2    0
 0.725464112265220D+03 0.000000000000000D+00 0.000000000000000D+00 0.725464112265220D+03
 0.725464112265220D+03 0.000000000000000D+00 0.000000000000000D+00 -.725464112265220D+03
 0.506243379644570D+03 -.369355554633919D+03 0.278562807644836D+03 0.163207217646928D+03
 0.291574386619893D+03 0.314951683510428D+02 0.562280038317159D+02 0.284362601071953D+03
 0.653110458265977D+03 0.337860386282876D+03 -.334790811476552D+03 -.447569818718881D+03
 0.000000000000000D+00 -.000000000000000D+00 0.000000000000000D+00 -.000000000000000D+00
 0.726863839878779D+03 0.000000000000000D+00 0.000000000000000D+00 0.726863839878779D+03
 0.941994075482132D+03 0.000000000000000D+00 0.000000000000000D+00 -.941994075482132D+03
 0.497274823725442D+03 -.358252179356843D+03 0.276904370505757D+03 0.163207217646928D+03
 0.292158548605059D+03 0.379538512325548D+02 0.552633134296584D+02 0.284362601071953D+03
 0.661858074216491D+03 0.352409787623745D+03 -.336963958554170D+03 -.447569818718881D+03
 0.217566468813919D+03 -.321114594994568D+02 0.479627461875493D+01 -.215130235603353D+03
-.302542336961D-02 0.000000000000D+00 0.000000000000D+00 0.153411887968D-05 0.000000000000D+00  6 1 2 25 1 2 21 2 0.66975265D-01 0.24286565D+00 0.27921790D+06 0.27921790D+06 0.27921790D+06 0.10868661D+01  1  2 13  2  6  2        2 -.327532787924D-01 0.100000000000D+01
-.189105878275D-06 0.000000000000D+00 0.000000000000D+00 0.153411887968D-05 0.000000000000D+00  6 1 2 25 1 2 21 2 0.66975265D-01 0.24195250D+00 0.27921790D+06 0.27921790D+06 0.27921790D+06 0.10868661D+01  1  2 13  2  6  2        2 -.206261416200D-05 0.100000000000D+01
0.211185803682D-02 0.000000000000D+00 0.000000000000D+00 0.153411887968D-05 0.649252184275D-08  6 1 2 25 1 2 21 2 0.67104489D-01 0.24150323D+00 0.27921790D+06 0.27921790D+06 0.27921790D+06 0.10868661D+01  1  2  1  2  6  2        2 0.230582662576D-01 0.100000000000D+01
  </mgrwgt>
  </event>
  <event>
  6     66 0.17698235E-05 0.96586733E+02 0.75467711E-02 0.93718839E-01
        1 -1    0    0  501    0 0.00000000E+00 0.00000000E+00 0.37067853E+03 0.37067866E+03 0.32000000E+00 0.0000E+00 0.9000E+01
        2 -1    0    0  502    0 -.00000000E+00 -.00000000E+00 -.26465743E+04 0.26465743E+04 0.32000000E+00 0.0000E+00 0.9000E+01
       25  1    1    2    0    0 0.43960526E+03 0.27169605E+03 -.32840525E+03 0.62493722E+03 0.12500000E+03 0.0000E+00 0.9000E+01
        1  1    1    2  501    0 -.79752098E+02 -.54141665E+02 0.18298303E+03 0.20682023E+03 0.32000000E+00 0.0000E+00 0.9000E+01
        2  1    1    2  503    0 -.29914040E+03 -.86289539E+02 -.10438825E+04 0.10893216E+04 0.32000000E+00 0.0000E+00 0.9000E+01
       21  1    1    2  502  503 -.60712759E+02 -.13126484E+03 -.10865911E+04 0.10961739E+04 0.75000000E+00 0.0000E+00 0.9000E+01
#aMCatNLO 2  0  0  5  4 0.16027713D+00 0.00000000D+00  -5  6  0 0.00000000D+00 0.00000000D+00 0.00000000D+00 0.00000000D+00 0.00000000D+00
  <mgrwgt>
 0.6196320735D-02    1    2    0
 0.990468828789820D+03 0.000000000000000D+00 0.000000000000000D+00 0.990468828789820D+03
 0.990468828789820D+03 -.000000000000000D+00 -.000000000000000D+00 -.990468828789820D+03
 0.582709631430433D+03 0.444039767160500D+03 0.274376008544160D+03 0.226874427111596D+03
 0.532376875653903D+03 -.757130972340762D+02 -.516985974994338D+02 0.524423416386822D+03
 0.865851150495305D+03 -.368326669926424D+03 -.222677411044726D+03 -.751297843498418D+03
 0.000000000000000D+00 0.000000000000000D+00 0.000000000000000D+00 -.000000000000000D+00
 0.990468828789820D+03 0.000000000000000D+00 0.000000000000000D+00 0.990468828789820D+03
 0.990468828789820D+03 -.000000000000000D+00 -.000000000000000D+00 -.990468828789820D+03
 0.574640460608601D+03 0.439636812997660D+03 0.271714136586515D+03 0.217893459297820D+03
 0.525136353533382D+03 -.797362379472774D+02 -.541308475411243D+02 0.516217176685193D+03
 0.459601929131848D+03 -.299042865051989D+03 -.862218628314088D+02 -.338190905396783D+03
 0.421558914305809D+03 -.608577099983932D+02 -.131361426213982D+03 -.395919730586230D+03
0.182654297028D-02 0.000000000000D+00 0.000000000000D+00 0.752091210006D-05 0.172221872468D-08  6 1 2 25 1 2 21 2 0.57027478D-01 0.40716529D+00 0.29381846D+06 0.29381846D+06 0.29381846D+06 0.10852215D+01  1  2  1  4  6  5        2 0.619632073530D-02 0.100000000000D+01
  </mgrwgt>
  </event>
  <event>
  5     66 -.17698235E-05 0.33887589E+02 0.75467711E-02 0.94510363E-01
        1 -1    0    0  501    0 0.00000000E+00 0.00000000E+00 0.88393302E+03 0.88393308E+03 0.32000000E+00 0.0000E+00 0.9000E+01
        2 -1    0    0  502    0 -.00000000E+00 -.00000000E+00 -.20981058E+04 0.20981058E+04 0.32000000E+00 0.0000E+00 0.9000E+01
       25  1    1    2    0    0 -.23186637E+03 0.40240634E+03 0.41314251E+03 0.63403834E+03 0.12500000E+03 0.0000E+00 0.9000E+01
        1  1    1    2  501    0 -.27960237E+02 0.19169628E+02 0.32861214E+03 0.33035631E+03 0.32000000E+00 0.0000E+00 0.9000E+01
        2  1    1    2  502    0 0.25982661E+03 -.42157597E+03 -.19559274E+04 0.20176443E+04 0.32000000E+00 0.0000E+00 0.9000E+01
#aMCatNLO 1  0  0  4  1 0.46567932D+01 0.00000000D+00  -5  6  0 0.00000000D+00 0.00000000D+00 0.00000000D+00 0.00000000D+00 0.00000000D+00
  <mgrwgt>
 -.7337359605D-01    9    2    0
 0.136183152996061D+04 0.000000000000000D+00 0.000000000000000D+00 0.136183152996061D+04
 0.136183152996061D+04 -.000000000000000D+00 -.000000000000000D+00 -.136183152996061D+04
 0.878545730830070D+03 -.231906174013810D+03 0.402461609647002D+03 0.735161057438683D+03
 0.507991044227959D+03 -.279495199371469D+02 0.191622806302130D+02 0.506859479887813D+03
 0.133712628486319D+04 0.259855693950957D+03 -.421623890277215D+03 -.124202053732650D+04
 0.000000000000000D+00 0.000000000000000D+00 0.000000000000000D+00 0.000000000000000D+00
 0.136183152996061D+04 0.000000000000000D+00 0.000000000000000D+00 0.136183152996061D+04
 0.136183152996061D+04 -.000000000000000D+00 -.000000000000000D+00 -.136183152996061D+04
 0.878569869498278D+03 -.231907706315888D+03 0.402462660198228D+03 0.735188845459240D+03
 0.280715014992541D+03 -.197235923822153D+02 0.123951588143855D+02 0.279746777611055D+03
 0.133708604412216D+04 0.259853361889760D+03 -.421622291408569D+03 -.124197824581923D+04
 0.227292131308237D+03 -.822206319165612D+01 0.676447239595517D+01 0.227042622748940D+03
0.196572193398D-04 0.000000000000D+00 0.000000000000D+00 0.789456620375D-04 0.000000000000D+00  6 1 2 25 1 2 21 0 0.13598970D+00 0.32278551D+00 0.25511464D+06 0.25511464D+06 0.25511464D+06 0.10897981D+01  1  2  2  3  6  4        1 0.329664763296D-04 0.100000000000D+01
0.716587696961D-05 0.000000000000D+00 -.754888981294D-07 0.789456620375D-04 0.000000000000D+00  6 1 2 25 1 2 21 2 0.13598970D+00 0.32278551D+00 0.25511464D+06 0.25511464D+06 0.25511464D+06 0.10897981D+01  1  2  3  3  6  4        1 0.142728876374D-04 0.100000000000D+01
-.138724186206D-04 0.000000000000D+00 0.000000000000D+00 0.789456620375D-04 0.000000000000D+00  6 1 2 25 1 2 21 2 0.13598970D+00 0.32278551D+00 0.25511464D+06 0.25511464D+06 0.25511464D+06 0.10897981D+01  1  2 15  3  6  4        1 -.276308779889D-04 0.100000000000D+01
0.295659397529D-02 0.000000000000D+00 0.000000000000D+00 0.789456620375D-04 0.000000000000D+00  6 1 2 25 1 2 21 2 0.13598970D+00 0.32278551D+00 0.25514172D+06 0.25514172D+06 0.25514172D+06 0.10897946D+01  1  2 12  3  6  4        1 0.588881671560D-02 0.100000000000D+01
0.251917394094D-09 0.000000000000D+00 0.000000000000D+00 0.789456620375D-04 0.000000000000D+00  6 1 2 25 1 2 21 2 0.13598970D+00 0.32278551D+00 0.25514172D+06 0.25514172D+06 0.25514172D+06 0.10897946D+01  1  2 12  3  6  4        1 0.501758230480D-09 0.100000000000D+01
-.651730367655D-01 0.000000000000D+00 0.000000000000D+00 0.789456620375D-04 0.000000000000D+00  6 1 2 25 1 2 21 2 0.13598970D+00 0.32278551D+00 0.25511464D+06 0.25511464D+06 0.25511464D+06 0.10897981D+01  1  2  4  3  6  4        1 -.129810689562D+00 0.100000000000D+01
-.114063941965D-01 0.000000000000D+00 0.000000000000D+00 0.789456620375D-04 0.000000000000D+00  6 1 2 25 1 2 21 2 0.13598970D+00 0.32278551D+00 0.25511464D+06 0.25511464D+06 0.25511464D+06 0.10897981D+01  1  2  5  3  6  4        1 -.227190870573D-01 0.100000000000D+01
0.197676013425D-01 0.000000000000D+00 -.000000000000D+00 0.789456620375D-04 0.000000000000D+00  6 1 2 25 1 2 21 2 0.13598970D+00 0.32278551D+00 0.25511464D+06 0.25511464D+06 0.25511464D+06 0.10897981D+01  1  2  6  3  6  4        1 0.393728156399D-01 0.100000000000D+01
0.170075663851D-01 0.000000000000D+00 0.000000000000D+00 0.789456620375D-04 0.177260082372D-04  6 1 2 25 1 2 21 2 0.13598970D+00 0.32278551D+00 0.25514172D+06 0.25514172D+06 0.25514172D+06 0.10897946D+01  1  2 11  3  6  4        1 0.338749392230D-01 0.100000000000D+01
  </mgrwgt>
  </event>
  <event>
  6     66 -.17698235E-05 0.24559883E+02 0.75467711E-02 0.94130807E-01
        1 -1    0    0  501    0 0.00000000E+00 0.00000000E+00 0.28958229E+04 0.28958229E+04 0.32000000E+00 0.0000E+00 0.9000E+01
        2 -1    0    0  503    0 0.00000000E+00 0.00000000E+00 -.14123319E+03 0.14123355E+03 0.32000000E+00 0.0000E+00 0.9000E+01
       25  1    1    2    0    0 0.25616531E+03 -.40533405E+03 0.17496633E+04 0.18184783E+04 0.12500000E+03 0.0000E+00 0.9000E+01
        1  1    1    2  501    0 0.39209259E+01 -.28246917E+02 0.47148708E+03 0.47234885E+03 0.32000000E+00 0.0000E+00 0.9000E+01
        2  1    1    2  502    0 -.26129675E+03 0.44126100E+03 0.53059969E+03 0.73791829E+03 0.32000000E+00 0.0000E+00 0.9000E+01
       21  1    1    2  503  502 0.12105083E+01 -.76800369E+01 0.28396021E+01 0.83110852E+01 0.75000000E+00 0.0000E+00 0.9000E+01
#aMCatNLO 2  0  0  2  5 0.77748503D+01 0.00000000D+00  -5  6  0 0.00000000D+00 0.00000000D+00 0.00000000D+00 0.00000000D+00 0.00000000D+00
  <mgrwgt>
 -.2890180784D-01    4    2    0
 0.632674777792740D+03 0.000000000000000D+00 0.000000000000000D+00 0.632674777792740D+03
 0.632674777792740D+03 0.000000000000000D+00 0.000000000000000D+00 -.632674777792740D+03
 0.550656953880369D+03 0.256763741268240D+03 -.408828485353658D+03 0.233516019986161D+03
 0.105189298732893D+03 0.401178579303873D+01 -.288150495833384D+02 0.101086037909191D+03
 0.609503302972217D+03 -.260775527061278D+03 0.437643534936996D+03 -.334602057895352D+03
 0.000000000000000D+00 0.000000000000000D+00 -.000000000000000D+00 -.000000000000000D+00
 0.633896942797912D+03 0.000000000000000D+00 0.000000000000000D+00 0.633896942797912D+03
 0.645173745936887D+03 0.000000000000000D+00 0.000000000000000D+00 -.645173745936887D+03
 0.547940329385637D+03 0.256238254638828D+03 -.405494549700376D+03 0.233516019986161D+03
 0.105012553569334D+03 0.391124097598449D+01 -.281771457213401D+02 0.101086037909191D+03
 0.612420558411960D+03 -.261360003885585D+03 0.441351732280206D+03 -.334602057895352D+03
 0.136972473678683D+02 0.121050827077242D+01 -.768003685849027D+01 -.112768031389750D+02
-.129254913339D-01 0.000000000000D+00 0.000000000000D+00 0.555650124909D-06 0.000000000000D+00  6 1 2 25 1 2 21 2 0.44464511D+00 0.21822688D-01 0.27292558D+06 0.27292558D+06 0.27292558D+06 0.10876041D+01  1  2 13  2  6  2        2 -.418311249081D-01 0.100000000000D+01
-.936753753260D-05 0.000000000000D+00 0.000000000000D+00 0.555650124909D-06 0.000000000000D+00  6 1 2 25 1 2 21 2 0.44464511D+00 0.21854190D-01 0.27292558D+06 0.27292558D+06 0.27292558D+06 0.10876041D+01  1  2 13  2  6  2        2 -.302645546958D-04 0.100000000000D+01
-.548976523612D-01 0.000000000000D+00 0.000000000000D+00 0.555650124909D-06 0.000000000000D+00  6 1 2 25 1 2 21 2 0.44464511D+00 0.21306927D-01 0.26896210D+06 0.26896210D+06 0.26896210D+06 0.10880785D+01  1  2  8  2  6  2        2 -.183108425229D+00 0.100000000000D+01
0.608399208089D-01 0.000000000000D+00 0.000000000000D+00 0.555650124909D-06 0.248641957131D-07  6 1 2 25 1 2 21 2 0.44550405D+00 0.21727861D-01 0.27292558D+06 0.27292558D+06 0.27292558D+06 0.10876041D+01  1  2  1  2  6  2        2 0.196068006853D+00 0.100000000000D+01
  </mgrwgt>
  </event>
  <event>
  6     66 0.17698235E-05 0.58361625E+02 0.75467711E-02 0.92883772E-01
       21 -1    0    0  501  503 0.00000000E+00 0.00000000E+00 0.40416222E+03 0.40416292E+03 0.75000000E+00 0.0000E+00 0.9000E+01
        2 -1    0    0  502    0 0.00000000E+00 0.00000000E+00 -.10672737E+04 0.10672738E+04 0.32000000E+00 0.0000E+00 0.9000E+01
       25  1    1    2    0    0 0.55877028E+03 -.12843935E+03 -.63907180E+03 0.86761665E+03 0.12500000E+03 0.0000E+00 0.9000E+01
        1  1    1    2  501    0 -.43438655E+03 0.90957081E+02 0.49192024E+02 0.44652528E+03 0.32000000E+00 0.0000E+00 0.9000E+01
        2  1    1    2  502    0 -.88857465E+02 0.48994697E+02 -.58662541E+02 0.11720719E+03 0.32000000E+00 0.0000E+00 0.9000E+01
       -1  1    1    2    0  503 -.35526256E+02 -.11512424E+02 -.14569210E+02 0.40087592E+02 0.32000000E+00 0.0000E+00 0.9000E+01
#aMCatNLO 2  0  0  1  2 0.37345023D+02 0.00000000D+00  -5  6  0 0.00000000D+00 0.00000000D+00 0.00000000D+00 0.00000000D+00 0.00000000D+00
  <mgrwgt>
 0.1460282760D-01    1    2    0
 0.637722220836305D+03 0.000000000000000D+00 0.000000000000000D+00 0.637722220836305D+03
 0.637722220836305D+03 0.000000000000000D+00 0.000000000000000D+00 -.637722220836305D+03
 0.634302725472134D+03 0.540916704185870D+03 -.134232302037444D+03 -.275872716599163D+03
 0.537377242750035D+03 -.449174353745530D+03 0.861559991029393D+02 0.282123811085647D+03
 0.103764473450441D+03 -.917423504403394D+02 0.480763029345051D+02 -.625109448648413D+01
 0.000000000000000D+00 -.000000000000000D+00 -.000000000000000D+00 0.000000000000000D+00
 0.658792585418958D+03 0.000000000000000D+00 0.000000000000000D+00 0.658792585418958D+03
 0.654760528577040D+03 0.000000000000000D+00 0.000000000000000D+00 -.654760528577040D+03
 0.648429663685552D+03 0.558777504025290D+03 -.128444439267816D+03 -.275872716599163D+03
 0.525873895313985D+03 -.434369616672923D+03 0.909535326561430D+02 0.282123811085647D+03
 0.101687496817783D+03 -.888816317521766D+02 0.490033301302891D+02 -.625109448648413D+01
 0.375620581786787D+02 -.355262556001898D+02 -.115124235186156D+02 0.403205684191764D+01
0.179574548517D-03 0.000000000000D+00 0.000000000000D+00 0.107256102886D-08 0.506122687788D-10  6 21 2 25 1 2 -1 2 0.62178796D-01 0.16419585D+00 0.34190219D+06 0.34190219D+06 0.34190219D+06 0.10803758D+01  1  2  1  5  6  1        1 0.146028276044D-01 0.100000000000D+01
  </mgrwgt>
  </event>
  <event>
  6     66 -.17698235E-05 0.23563373E+02 0.75467711E-02 0.94816924E-01
        1 -1    0    0  501    0 0.00000000E+00 0.00000000E+00 0.74932415E+03 0.74932422E+03 0.32000000E+00 0.0000E+00 0.9000E+01
        2 -1    0    0  502    0 -.00000000E+00 -.00000000E+00 -.10910707E+04 0.10910707E+04 0.32000000E+00 0.0000E+00 0.9000E+01
       25  1    1    2    0    0 0.48187838E+03 -.18582234E+02 -.43422930E+03 0.66085714E+03 0.12500000E+03 0.0000E+00 0.9000E+01
        1  1    1    2  501    0 -.42691690E+03 0.26057137E+02 0.56172446E+03 0.70602513E+03 0.32000000E+00 0.0000E+00 0.9000E+01
        2  1    1    2  503    0 -.20261720E+02 -.10044960E+02 -.29274278E+03 0.29361518E+03 0.32000000E+00 0.0000E+00 0.9000E+01
       21  1    1    2  502  503 -.34699763E+02 0.25700562E+01 -.17649891E+03 0.17989749E+03 0.75000000E+00 0.0000E+00 0.9000E+01
#aMCatNLO 2  0  0  5  2 0.14955414D+02 0.00000000D+00  -5  6  0 0.00000000D+00 0.00000000D+00 0.00000000D+00 0.00000000D+00 0.00000000D+00
  <mgrwgt>
 -.6711237899D-02    3    2    0
 0.904193405435465D+03 0.000000000000000D+00 0.000000000000000D+00 0.904193405435465D+03
 0.904193405435465D+03 -.000000000000000D+00 -.000000000000000D+00 -.904193405435465D+03
 0.590425832570767D+03 0.481939230413942D+03 -.185781772759846D+02 -.316807659762200D+03
 0.825144107417589D+03 -.426861106028158D+03 0.260689630314859D+02 0.705671880786566D+03
 0.392816870882575D+03 -.550781243857842D+02 -.749078575550134D+01 -.388864221024366D+03
 0.000000000000000D+00 -.000000000000000D+00 0.000000000000000D+00 0.000000000000000D+00
 0.904193405435465D+03 0.000000000000000D+00 0.000000000000000D+00 0.904193405435465D+03
 0.904193405435465D+03 -.000000000000000D+00 -.000000000000000D+00 -.904193405435465D+03
 0.590590596785348D+03 0.481883909438446D+03 -.185857010902003D+02 -.317198238567901D+03
 0.824717198009806D+03 -.426938388557496D+03 0.260584523818156D+02 0.705126248361625D+03
 0.243066503242014D+03 -.201987638126446D+02 -.100392602701780D+02 -.242017660909217D+03
 0.150012512833761D+03 -.347467570683049D+02 0.256650897856267D+01 -.145910348884507D+03
-.106164529698D-02 0.000000000000D+00 0.000000000000D+00 0.117579448636D-04 0.000000000000D+00  6 1 2 25 1 2 21 2 0.11528065D+00 0.16785704D+00 0.24172445D+06 0.24172445D+06 0.24172445D+06 0.10915606D+01  1  2 13  4  6  5        2 -.100317702482D-01 0.100000000000D+01
-.339360533659D-08 0.000000000000D+00 0.000000000000D+00 0.117579448636D-04 0.000000000000D+00  6 1 2 25 1 2 21 2 0.11528065D+00 0.16785704D+00 0.24172445D+06 0.24172445D+06 0.24172445D+06 0.10915606D+01  1  2 13  4  6  5        2 -.320670841255D-07 0.100000000000D+01
0.351409722194D-03 0.000000000000D+00 0.000000000000D+00 0.117579448636D-04 0.400898830540D-07  6 1 2 25 1 2 21 2 0.11528065D+00 0.16785704D+00 0.24172445D+06 0.24172445D+06 0.24172445D+06 0.10915606D+01  1  2  1  4  6  5        2 0.332056441643D-02 0.100000000000D+01
  </mgrwgt>
  </event>
  <event>
  6     66 0.17698235E-05 0.16115317E+02 0.75467711E-02 0.92259241E-01
       21 -1    0    0  501  503 0.00000000E+00 0.00000000E+00 0.53870924E+03 0.53870976E+03 0.75000000E+00 0.0000E+00 0.9000E+01
        2 -1    0    0  502    0 0.00000000E+00 0.00000000E+00 -.16249809E+04 0.16249809E+04 0.32000000E+00 0.0000E+00 0.9000E+01
       25  1    1    2    0    0 0.54721585E+03 -.18685624E+03 -.28487145E+03 0.65661038E+03 0.12500000E+03 0.0000E+00 0.9000E+01
        1  1    1    2  501    0 -.23172660E+02 -.15873947E+02 0.53437937E+02 0.60371101E+02 0.32000000E+00 0.0000E+00 0.9000E+01
        2  1    1    2  502    0 -.54393108E+03 0.22536639E+03 -.10743688E+04 0.12251201E+04 0.32000000E+00 0.0000E+00 0.9000E+01
       -1  1    1    2    0  503 0.19887887E+02 -.22636202E+02 0.21953061E+03 0.22158907E+03 0.32000000E+00 0.0000E+00 0.9000E+01
#aMCatNLO 2  0  0  1  4 0.50119646D+02 0.00000000D+00  -5  6  0 0.00000000D+00 0.00000000D+00 0.00000000D+00 0.00000000D+00 0.00000000D+00
  <mgrwgt>
 0.4922253009D-03    1    2    0
 0.718632589763055D+03 0.000000000000000D+00 0.000000000000000D+00 0.718632589763055D+03
 0.718632589763055D+03 0.000000000000000D+00 0.000000000000000D+00 -.718632589763055D+03
 0.639109218586638D+03 0.556072146959197D+03 -.196906360048531D+03 0.211771683732861D+03
 0.129799097773308D+03 -.213308239789752D+02 -.178870467633409D+02 0.126778765135289D+03
 0.668356863166164D+03 -.534741322980222D+03 0.214793406811872D+03 -.338550448868150D+03
 0.000000000000000D+00 0.000000000000000D+00 -.000000000000000D+00 0.000000000000000D+00
 0.121709775809610D+04 0.000000000000000D+00 0.000000000000000D+00 0.121709775809610D+04
 0.719246003280999D+03 0.000000000000000D+00 0.000000000000000D+00 -.719246003280999D+03
 0.628453933397447D+03 0.547303277006606D+03 -.186925716126763D+03 0.211771683732861D+03
 0.129841068440305D+03 -.231269876244966D+02 -.158426704790425D+02 0.126778765135289D+03
 0.679285994826387D+03 -.544064176003976D+03 0.225404588967400D+03 -.338550448868150D+03
 0.498762764712959D+03 0.198878866218673D+02 -.226362023615942D+02 0.497851754815100D+03
0.251700177076D-04 0.000000000000D+00 0.000000000000D+00 0.505166513099D-06 0.465231301291D-09  6 21 2 25 1 2 -1 2 0.82878381D-01 0.24999709D+00 0.38363879D+06 0.38363879D+06 0.38363879D+06 0.10767376D+01  1  2  1  5  6  1        1 0.492225300923D-03 0.100000000000D+01
  </mgrwgt>
  </event>
  <event>
  5     66 0.17698235E-05 0.47376980E+02 0.75467711E-02 0.89992122E-01
        1 -1    0    0  501    0 0.00000000E+00 0.00000000E+00 0.27613207E+03 0.27613226E+03 0.32000000E+00 0.0000E+00 0.9000E+01
        2 -1    0    0  502    0 0.00000000E+00 0.00000000E+00 -.19883056E+04 0.19883057E+04 0.32000000E+00 0.0000E+00 0.9000E+01
       25  1    1    2    0    0 -.29137432E+03 -.39628153E+03 -.71693328E+03 0.87838282E+03 0.12500000E+03 0.0000E+00 0.9000E+01
        1  1    1    2  501    0 0.31928098E+02 0.35021822E+02 0.15009093E+03 0.15739543E+03 0.32000000E+00 0.0000E+00 0.9000E+01
        2  1    1    2  502    0 0.25944622E+03 0.36125971E+03 -.11453312E+04 0.12286597E+04 0.32000000E+00 0.0000E+00 0.9000E+01
#aMCatNLO 1  0  0  1  1 0.50355981D+03 0.00000000D+00  -5  6  0 0.00000000D+00 0.00000000D+00 0.00000000D+00 0.00000000D+00 0.00000000D+00
  <mgrwgt>
 0.2777967342D-02    7    2    0
 0.740969093495840D+03 0.000000000000000D+00 0.000000000000000D+00 0.740969093495840D+03
 0.740969093495840D+03 0.000000000000000D+00 0.000000000000000D+00 -.740969093495840D+03
 0.513935885089330D+03 -.291421199849444D+03 -.396348069172922D+03 -.805418296524297D+02
 0.413788438414730D+03 0.319184781904711D+02 0.350112694998668D+02 0.411067261556686D+03
 0.554213863487620D+03 0.259502721658972D+03 0.361336799673055D+03 -.330525431904256D+03
 0.000000000000000D+00 -.000000000000000D+00 0.000000000000000D+00 0.000000000000000D+00
 0.116862600511357D+04 0.000000000000000D+00 0.000000000000000D+00 0.116862600511357D+04
 0.870474205629396D+03 0.000000000000000D+00 0.000000000000000D+00 -.870474205629396D+03
 0.507121306445628D+03 -.167602243780412D+03 -.454939029988779D+03 -.805418296524297D+02
 0.432747597147944D+03 0.134574048384943D+03 -.135652060394722D+02 0.411067261556686D+03
 0.596391043556786D+03 0.399031339271442D+03 0.295312048481765D+03 -.330525431904256D+03
 0.502840263592611D+03 -.366003143875973D+03 0.173192187546486D+03 0.298151799484177D+03
0.177807523856D-03 0.000000000000D+00 0.000000000000D+00 0.323538621151D-05 0.000000000000D+00  6 1 2 25 1 2 21 0 0.42481874D-01 0.30589319D+00 0.24991439D+06 0.24991439D+06 0.24991439D+06 0.10904703D+01  1  2  2  1  6  1        1 0.180593772076D-02 0.100000000000D+01
0.667849985666D-04 0.000000000000D+00 -.682827709401D-06 0.323538621151D-05 0.000000000000D+00  6 1 2 25 1 2 21 2 0.42481874D-01 0.30589319D+00 0.24991439D+06 0.24991439D+06 0.24991439D+06 0.10904703D+01  1  2  3  1  6  1        1 0.806601895179D-03 0.100000000000D+01
-.118324702667D-03 0.000000000000D+00 0.000000000000D+00 0.323538621151D-05 0.000000000000D+00  6 1 2 25 1 2 21 2 0.42481874D-01 0.30589319D+00 0.24991439D+06 0.24991439D+06 0.24991439D+06 0.10904703D+01  1  2 15  1  6  1        1 -.142907735967D-02 0.100000000000D+01
-.596898229363D-05 0.000000000000D+00 0.000000000000D+00 0.323538621151D-05 0.000000000000D+00  6 1 2 25 1 2 21 2 0.42481874D-01 0.30589319D+00 0.24991439D+06 0.24991439D+06 0.24991439D+06 0.10904703D+01  1  2  4  1  6  1        1 -.720909266103D-04 0.100000000000D+01
-.156988020879D-03 0.000000000000D+00 -.123259992129D-03 0.323538621151D-05 0.000000000000D+00  6 1 2 25 1 2 21 2 0.78190677D-01 0.30589319D+00 0.24991439D+06 0.24991439D+06 0.24991439D+06 0.10904703D+01  1  2  5  1  6  1        1 -.831045153195D-03 0.100000000000D+01
0.211449027530D-03 0.000000000000D+00 0.103411374531D-03 0.323538621151D-05 0.000000000000D+00  6 1 2 25 1 2 21 2 0.42481874D-01 0.30589319D+00 0.24991439D+06 0.24991439D+06 0.24991439D+06 0.10904703D+01  1  2  6  1  6  1        1 0.255379486412D-02 0.100000000000D+01
-.369100236236D-05 0.000000000000D+00 -.821027606437D-05 0.323538621151D-05 0.000000000000D+00  6 21 2 25 1 2 -1 2 0.78190677D-01 0.30589319D+00 0.24991439D+06 0.24991439D+06 0.24991439D+06 0.10904703D+01  1  2  5  5  6  1        1 -.561536982505D-04 0.100000000000D+01
  </mgrwgt>
  </event>
  <event>
  5     66 0.17698235E-05 0.14968591E+03 0.75467711E-02 0.92465442E-01
        1 -1    0    0  501    0 0.00000000E+00 0.00000000E+00 0.20077788E+04 0.20077788E+04 0.32000000E+00 0.0000E+00 0.9000E+01
        2 -1    0    0  502    0 0.00000000E+00 0.00000000E+00 -.15604370E+04 0.15604371E+04 0.32000000E+00 0.0000E+00 0.9000E+01
       25  1    1    2    0    0 -.19962963E+03 0.49658413E+03 0.27183936E+03 0.61316346E+03 0.12500000E+03 0.0000E+00 0.9000E+01
        1  1    1    2  501    0 0.14862895E+03 -.17819968E+02 0.15197893E+04 0.15271436E+04 0.32000000E+00 0.0000E+00 0.9000E+01
        2  1    1    2  502    0 0.51000682E+02 -.47876416E+03 -.13442869E+04 0.14279088E+04 0.32000000E+00 0.0000E+00 0.9000E+01
#aMCatNLO 1  0  0  2  5 0.23170802D+02 0.00000000D+00  -5  6  0 0.00000000D+00 0.00000000D+00 0.00000000D+00 0.00000000D+00 0.00000000D+00
  <mgrwgt>
 0.1639119990D-02   11    2    0
 0.177003176331768D+04 0.000000000000000D+00 0.000000000000000D+00 0.177003176331768D+04
 0.177003176331768D+04 0.000000000000000D+00 0.000000000000000D+00 -.177003176331768D+04
 0.583743237030228D+03 -.199627977045826D+03 0.496622086018817D+03 0.196586727012376D+03
 0.134717181628548D+04 0.148621505814252D+03 -.178190756514350D+02 0.133883009793863D+04
 0.160914847331966D+04 0.510064712315738D+02 -.478803010367382D+03 -.153541682495100D+04
 0.000000000000000D+00 -.000000000000000D+00 0.000000000000000D+00 -.000000000000000D+00
 0.177027241880635D+04 0.000000000000000D+00 0.000000000000000D+00 0.177027241880635D+04
 0.243210441633455D+04 0.000000000000000D+00 0.000000000000000D+00 -.243210441633455D+04
 0.581136107383965D+03 -.196216232553004D+03 0.494921230248465D+03 0.196586727012376D+03
 0.134812329575310D+04 0.156515592269750D+03 -.217545117685698D+02 0.133883009793863D+04
 0.161087995268930D+04 0.604374172792027D+02 -.483504616551179D+03 -.153541682495100D+04
 0.662237479314536D+03 -.207367769959487D+02 0.103378980712829D+02 -.661831997528193D+03
0.247746380140D-04 0.000000000000D+00 0.000000000000D+00 0.379853842220D-04 0.000000000000D+00  6 1 2 25 1 2 21 0 0.30888905D+00 0.24006724D+00 0.34859771D+06 0.34859771D+06 0.34859771D+06 0.10797606D+01  1  2  2  2  6  2        2 0.131113919228D-04 0.100000000000D+01
0.479847067625D-05 0.000000000000D+00 -.951411332856D-07 0.379853842220D-04 0.000000000000D+00  6 1 2 25 1 2 21 2 0.30888905D+00 0.24006724D+00 0.34859771D+06 0.34859771D+06 0.34859771D+06 0.10797606D+01  1  2  3  2  6  2        2 0.296073299185D-05 0.100000000000D+01
-.161622233946D-04 0.000000000000D+00 0.000000000000D+00 0.379853842220D-04 0.000000000000D+00  6 1 2 25 1 2 21 2 0.30888905D+00 0.24006724D+00 0.34859771D+06 0.34859771D+06 0.34859771D+06 0.10797606D+01  1  2 15  2  6  2        2 -.997234978697D-05 0.100000000000D+01
0.216066317761D-01 0.000000000000D+00 0.000000000000D+00 0.379853842220D-04 0.000000000000D+00  6 1 2 25 1 2 21 2 0.30888905D+00 0.33076083D+00 0.36925907D+06 0.36925907D+06 0.36925907D+06 0.10779402D+01  1  2 12  2  6  2        2 0.627369538387D-02 0.100000000000D+01
0.678588792111D-09 0.000000000000D+00 0.000000000000D+00 0.379853842220D-04 0.000000000000D+00  6 1 2 25 1 2 21 2 0.30888905D+00 0.32988117D+00 0.36925907D+06 0.36925907D+06 0.36925907D+06 0.10779402D+01  1  2 12  2  6  2        2 0.198484763409D-09 0.100000000000D+01
-.178612867410D-01 0.000000000000D+00 0.000000000000D+00 0.379853842220D-04 0.000000000000D+00  6 1 2 25 1 2 21 2 0.30888905D+00 0.24006724D+00 0.34859771D+06 0.34859771D+06 0.34859771D+06 0.10797606D+01  1  2  4  2  6  2        2 -.110206989891D-01 0.100000000000D+01
-.218446916764D-01 0.000000000000D+00 -.183837701554D-04 0.379853842220D-04 0.000000000000D+00  6 1 2 25 1 2 21 2 0.30888905D+00 0.32987601D+00 0.34859771D+06 0.34859771D+06 0.34859771D+06 0.10797606D+01  1  2  5  2  6  2        2 -.644803663504D-02 0.100000000000D+01
0.207925801617D-01 0.000000000000D+00 0.174929560848D-04 0.379853842220D-04 0.000000000000D+00  6 1 2 25 1 2 21 2 0.30888905D+00 0.24006724D+00 0.34859771D+06 0.34859771D+06 0.34859771D+06 0.10797606D+01  1  2  6  2  6  2        2 0.128293538137D-01 0.100000000000D+01
0.875949958269D-03 0.000000000000D+00 0.000000000000D+00 0.379853842220D-04 0.000000000000D+00  6 1 21 25 1 2 -2 2 0.30888905D+00 0.33076083D+00 0.36925907D+06 0.36925907D+06 0.36925907D+06 0.10779402D+01  1  2 12  6  6  2        2 0.425254752344D-04 0.100000000000D+01
0.273456234801D-10 0.000000000000D+00 0.000000000000D+00 0.379853842220D-04 0.000000000000D+00  6 1 21 25 1 2 -2 2 0.30888905D+00 0.32988117D+00 0.36925907D+06 0.36925907D+06 0.36925907D+06 0.10779402D+01  1  2 12  6  6  2        2 0.134547894743D-11 0.100000000000D+01
-.879811062765D-03 0.000000000000D+00 -.740798871995D-06 0.379853842220D-04 0.000000000000D+00  6 1 21 25 1 2 -2 2 0.30888905D+00 0.32987601D+00 0.34859771D+06 0.34859771D+06 0.34859771D+06 0.10797606D+01  1  2  5  6  6  2        2 -.438190337091D-04 0.100000000000D+01
  </mgrwgt>
  </event>
  <event>
  5     66 0.17698235E-05 0.91248348E+02 0.75467711E-02 0.87171518E-01
        1 -1    0    0  501    0 0.00000000E+00 0.00000000E+00 0.17159319E+04 0.17159319E+04 0.32000000E+00 0.0000E+00 0.9000E+01
        2 -1    0    0  502    0 0.00000000E+00 0.00000000E+00 -.14034092E+04 0.14034092E+04 0.32000000E+00 0.0000E+00 0.9000E+01
       25  1    1    2    0    0 -.46947166E+03 0.67017119E+03 -.34983296E+03 0.89863294E+03 0.12500000E+03 0.0000E+00 0.9000E+01
        1  1    1    2  501    0 -.90879791E+02 0.82751680E+01 0.11907982E+04 0.11942897E+04 0.32000000E+00 0.0000E+00 0.9000E+01
        2  1    1    2  502    0 0.56035145E+03 -.67844635E+03 -.52844254E+03 0.10264184E+04 0.32000000E+00 0.0000E+00 0.9000E+01
#aMCatNLO 1  0  0  1  5 0.24134563D+03 0.00000000D+00  -5  6  0 0.00000000D+00 0.00000000D+00 0.00000000D+00 0.00000000D+00 0.00000000D+00
  <mgrwgt>
 0.5894409521D-02    7    2    0
 0.155182301514903D+04 0.000000000000000D+00 0.000000000000000D+00 0.155182301514903D+04
 0.155182301514903D+04 0.000000000000000D+00 0.000000000000000D+00 -.155182301514903D+04
 0.938458437217639D+03 -.469524300379377D+03 0.670235096607064D+03 -.442053260381991D+03
 0.108033356165118D+04 -.908724031508666D+02 0.827449527961917D+01 0.107647310393868D+04
 0.108485403142925D+04 0.560396703530244D+03 -.678509591886683D+03 -.634419843556685D+03
 0.000000000000000D+00 -.000000000000000D+00 0.000000000000000D+00 0.000000000000000D+00
 0.237825405019044D+04 0.000000000000000D+00 0.000000000000000D+00 0.237825405019044D+04
 0.157422853291365D+04 0.000000000000000D+00 0.000000000000000D+00 -.157422853291365D+04
 0.877711018533793D+03 -.431496529721125D+03 0.610861106864651D+03 -.442053260381991D+03
 0.107924195341867D+04 -.456542423970975D+02 -.623260833578367D+02 0.107647310393868D+04
 0.115606267091063D+04 0.607318022546464D+03 -.751769366670904D+03 -.634419843556685D+03
 0.839466940241007D+03 -.130167250428242D+03 0.203234343164090D+03 0.804025517276791D+03
0.739936274866D-03 0.000000000000D+00 0.000000000000D+00 0.168032244534D-05 0.000000000000D+00  6 1 2 25 1 2 21 0 0.26398952D+00 0.21590911D+00 0.80917573D+06 0.80917573D+06 0.80917573D+06 0.10540406D+01  1  2  2  1  6  1        1 0.701916905735D-03 0.100000000000D+01
0.300908331521D-03 0.000000000000D+00 -.284155012518D-05 0.168032244534D-05 0.000000000000D+00  6 1 2 25 1 2 21 2 0.26398952D+00 0.21590911D+00 0.80917573D+06 0.80917573D+06 0.80917573D+06 0.10540406D+01  1  2  3  1  6  1        1 0.317132177884D-03 0.100000000000D+01
-.452558307838D-03 0.000000000000D+00 0.000000000000D+00 0.168032244534D-05 0.000000000000D+00  6 1 2 25 1 2 21 2 0.26398952D+00 0.21590911D+00 0.80917573D+06 0.80917573D+06 0.80917573D+06 0.10540406D+01  1  2 15  1  6  1        1 -.476958550994D-03 0.100000000000D+01
-.155247297686D-03 0.000000000000D+00 0.000000000000D+00 0.168032244534D-05 0.000000000000D+00  6 1 2 25 1 2 21 2 0.26398952D+00 0.21590911D+00 0.80917573D+06 0.80917573D+06 0.80917573D+06 0.10540406D+01  1  2  4  1  6  1        1 -.163617648527D-03 0.100000000000D+01
-.739400942138D-02 0.000000000000D+00 -.472517559450D-03 0.168032244534D-05 0.000000000000D+00  6 1 2 25 1 2 21 2 0.40600428D+00 0.21590911D+00 0.80917573D+06 0.80917573D+06 0.80917573D+06 0.10540406D+01  1  2  5  1  6  1        1 -.181659227107D-02 0.100000000000D+01
0.698121397562D-02 0.000000000000D+00 0.431883839432D-03 0.168032244534D-05 0.000000000000D+00  6 1 2 25 1 2 21 2 0.26398952D+00 0.21590911D+00 0.80917573D+06 0.80917573D+06 0.80917573D+06 0.10540406D+01  1  2  6  1  6  1        1 0.735761479642D-02 0.100000000000D+01
-.353826721385D-03 0.000000000000D+00 -.237472711728D-04 0.168032244534D-05 0.000000000000D+00  6 21 2 25 1 2 -1 2 0.40600428D+00 0.21590911D+00 0.80917573D+06 0.80917573D+06 0.80917573D+06 0.10540406D+01  1  2  5  5  6  1        1 -.250858881836D-04 0.100000000000D+01
  </mgrwgt>
  </event>
  <event>
  5     66 -.17698235E-05 0.18390338E+03 0.75467711E-02 0.94454896E-01
        1 -1    0    0  501    0 0.00000000E+00 0.00000000E+00 0.18623035E+04 0.18623035E+04 0.32000000E+00 0.0000E+00 0.9000E+01
        2 -1    0    0  502    0 0.00000000E+00 0.00000000E+00 -.41546032E+03 0.41546044E+03 0.32000000E+00 0.0000E+00 0.9000E+01
       25  1    1    2    0    0 0.41943306E+03 -.19861369E+03 0.56890647E+03 0.74474900E+03 0.12500000E+03 0.0000E+00 0.9000E+01
        1  1    1    2  501    0 -.24201385E+03 0.24690069E+03 0.11521249E+04 0.12028809E+04 0.32000000E+00 0.0000E+00 0.9000E+01
        2  1    1    2  502    0 -.17741921E+03 -.48286995E+02 -.27418820E+03 0.33013403E+03 0.32000000E+00 0.0000E+00 0.9000E+01
#aMCatNLO 1  0  0  2  5 0.62465107D+01 0.00000000D+00  -5  6  0 0.00000000D+00 0.00000000D+00 0.00000000D+00 0.00000000D+00 0.00000000D+00
  <mgrwgt>
 -.1163194505D-01   13    2    0
 0.879609785928293D+03 0.000000000000000D+00 0.000000000000000D+00 0.879609785928293D+03
 0.879609785928293D+03 0.000000000000000D+00 0.000000000000000D+00 -.879609785928293D+03
 0.496396673422647D+03 0.419431311215371D+03 -.198576232853848D+03 0.124215588002467D+03
 0.609811303687542D+03 -.241981673430970D+03 0.246867855140351D+03 0.502365362984998D+03
 0.653011594746398D+03 -.177449637784401D+03 -.482916222865033D+02 -.626580950987465D+03
 0.000000000000000D+00 -.000000000000000D+00 -.000000000000000D+00 -.000000000000000D+00
 0.879804320234368D+03 0.000000000000000D+00 0.000000000000000D+00 0.879804320234368D+03
 0.931230519780554D+03 0.000000000000000D+00 0.000000000000000D+00 -.931230519780554D+03
 0.496810409669352D+03 0.420559174622863D+03 -.197220819117981D+03 0.124215588002467D+03
 0.609939363616204D+03 -.240596552274129D+03 0.248532429262849D+03 0.502365362984998D+03
 0.652480888367225D+03 -.175967150168751D+03 -.465100376866684D+02 -.626580950987465D+03
 0.518041783621404D+02 -.399547217998243D+01 -.480157245820004D+01 -.514261995461856D+02
0.130879335275D-04 0.000000000000D+00 0.000000000000D+00 0.135594495336D-05 0.000000000000D+00  6 1 2 25 1 2 21 0 0.28650824D+00 0.63916983D-01 0.25512268D+06 0.25512268D+06 0.25512268D+06 0.10897970D+01  1  2  2  2  6  2        2 0.542183785475D-04 0.100000000000D+01
0.138228518281D-05 0.000000000000D+00 -.502611108778D-07 0.135594495336D-05 0.000000000000D+00  6 1 2 25 1 2 21 2 0.28650824D+00 0.63916983D-01 0.25512268D+06 0.25512268D+06 0.25512268D+06 0.10897970D+01  1  2  3  2  6  2        2 0.680086779634D-05 0.100000000000D+01
-.819326471912D-05 0.000000000000D+00 0.000000000000D+00 0.135594495336D-05 0.000000000000D+00  6 1 2 25 1 2 21 2 0.28650824D+00 0.63916983D-01 0.25512268D+06 0.25512268D+06 0.25512268D+06 0.10897970D+01  1  2 15  2  6  2        2 -.403110088048D-04 0.100000000000D+01
0.331062154651D-02 0.000000000000D+00 0.000000000000D+00 0.135594495336D-05 0.000000000000D+00  6 1 2 25 1 2 21 2 0.28650824D+00 0.68148027D-01 0.25765759D+06 0.25765759D+06 0.25765759D+06 0.10894747D+01  1  2 12  2  6  2        2 0.151493314955D-01 0.100000000000D+01
0.744202647127D-07 0.000000000000D+00 0.000000000000D+00 0.135594495336D-05 0.000000000000D+00  6 1 2 25 1 2 21 2 0.28650824D+00 0.67679082D-01 0.25765759D+06 0.25765759D+06 0.25765759D+06 0.10894747D+01  1  2 12  2  6  2        2 0.343180465673D-06 0.100000000000D+01
-.729378035072D-02 0.000000000000D+00 0.000000000000D+00 0.135594495336D-05 0.000000000000D+00  6 1 2 25 1 2 21 2 0.28650824D+00 0.63916983D-01 0.25512268D+06 0.25512268D+06 0.25512268D+06 0.10897970D+01  1  2  4  2  6  2        2 -.358855296414D-01 0.100000000000D+01
-.507907137232D-02 0.000000000000D+00 -.559014776327D-04 0.135594495336D-05 0.000000000000D+00  6 1 2 25 1 2 21 2 0.28650824D+00 0.67674898D-01 0.25512268D+06 0.25512268D+06 0.25512268D+06 0.10897970D+01  1  2  5  2  6  2        2 -.234496704684D-01 0.100000000000D+01
0.507407335063D-02 0.000000000000D+00 0.558103741945D-04 0.135594495336D-05 0.000000000000D+00  6 1 2 25 1 2 21 2 0.28650824D+00 0.63916983D-01 0.25512268D+06 0.25512268D+06 0.25512268D+06 0.10897970D+01  1  2  6  2  6  2        2 0.249645315421D-01 0.100000000000D+01
0.165145226201D-02 0.000000000000D+00 0.000000000000D+00 0.135594495336D-05 0.454276539515D-06  6 1 2 25 1 2 21 2 0.28657161D+00 0.67668012D-01 0.25765759D+06 0.25765759D+06 0.25765759D+06 0.10894747D+01  1  2 11  2  6  2        2 0.761208758518D-02 0.100000000000D+01
0.592569464035D-04 0.000000000000D+00 0.000000000000D+00 0.135594495336D-05 0.000000000000D+00  6 1 21 25 1 2 -2 2 0.28650824D+00 0.68148027D-01 0.25765759D+06 0.25765759D+06 0.25765759D+06 0.10894747D+01  1  2 12  6  6  2        2 0.594492979458D-03 0.100000000000D+01
0.120028953437D-08 0.000000000000D+00 0.000000000000D+00 0.135594495336D-05 0.000000000000D+00  6 1 21 25 1 2 -2 2 0.28650824D+00 0.67679082D-01 0.25765759D+06 0.25765759D+06 0.25765759D+06 0.10894747D+01  1  2 12  6  6  2        2 0.122365556160D-07 0.100000000000D+01
-.734202979394D-04 0.000000000000D+00 -.550709731047D-06 0.135594495336D-05 0.000000000000D+00  6 1 21 25 1 2 -2 2 0.28650824D+00 0.67674898D-01 0.25512268D+06 0.25512268D+06 0.25512268D+06 0.10897970D+01  1  2  5  6  6  2        2 -.749727133975D-03 0.100000000000D+01
0.109373488564D-04 0.000000000000D+00 0.000000000000D+00 0.135594495336D-05 0.215708869559D-08  6 1 21 25 1 2 -2 2 0.28657161D+00 0.67668012D-01 0.25765759D+06 0.25765759D+06 0.25765759D+06 0.10894747D+01  1  2 11  6  6  2        2 0.111474937407D-03 0.100000000000D+01
  </mgrwgt>
  </event>
  <event>
  5     66 -.17698235E-05 0.33215754E+03 0.75467711E-02 0.89970036E-01
        1 -1    0    0  501    0 0.00000000E+00 0.00000000E+00 0.77408865E+03 0.77408872E+03 0.32000000E+00 0.0000E+00 0.9000E+01
        2 -1    0    0  502    0 0.00000000E+00 0.00000000E+00 -.18689815E+04 0.18689815E+04 0.32000000E+00 0.0000E+00 0.9000E+01
       25  1    1    2    0    0 0.53031736E+03 0.37153730E+03 -.43872984E+03 0.79207660E+03 0.12500000E+03 0.0000E+00 0.9000E+01
        1  1    1    2  501    0 -.31886356E+03 0.93130364E+02 0.49246222E+03 0.59402557E+03 0.32000000E+00 0.0000E+00 0.9000E+01
        2  1    1    2  502    0 -.21145380E+03 -.46466766E+03 -.11486252E+04 0.12569681E+04 0.32000000E+00 0.0000E+00 0.9000E+01
#aMCatNLO 1  0  0  1  4 0.44124675D+02 0.00000000D+00  -5  6  0 0.00000000D+00 0.00000000D+00 0.00000000D+00 0.00000000D+00 0.00000000D+00
  <mgrwgt>
 -.6625577278D-03   11    2    0
 0.120281231996206D+04 0.000000000000000D+00 0.000000000000000D+00 0.120281231996206D+04
 0.120281231996206D+04 0.000000000000000D+00 0.000000000000000D+00 -.120281231996206D+04
 0.670601811732090D+03 0.530329774489855D+03 0.371594606676624D+03 -.121447801448796D+03
 0.876723098210774D+03 -.318836683145623D+03 0.931225137356177D+02 0.811365982681401D+03
 0.858299729981253D+03 -.211493091344232D+03 -.464717120412242D+03 -.689918181232605D+03
 0.000000000000000D+00 -.000000000000000D+00 0.000000000000000D+00 0.000000000000000D+00
 0.189399269759879D+04 0.000000000000000D+00 0.000000000000000D+00 0.189399269759879D+04
 0.120371907142002D+04 0.000000000000000D+00 0.000000000000000D+00 -.120371907142002D+04
 0.672517080712757D+03 0.538846589962735D+03 0.362696853941683D+03 -.121447801448796D+03
 0.871592774139749D+03 -.307750483884429D+03 0.815404546772186D+02 0.811365982681401D+03
 0.861919424923133D+03 -.200585055430474D+03 -.476113047292838D+03 -.689918181232605D+03
 0.691682489243175D+03 -.305110506478322D+02 0.318757386739361D+02 0.690273626178772D+03
0.237988384173D-05 0.000000000000D+00 0.000000000000D+00 0.118796974134D-06 0.000000000000D+00  6 1 2 25 1 2 21 0 0.11909057D+00 0.28753562D+00 0.56418863D+06 0.56418863D+06 0.56418863D+06 0.10648228D+01  1  2  2  1  6  1        1 0.626928454862D-05 0.100000000000D+01
0.169148488913D-06 0.000000000000D+00 -.913938059005D-08 0.118796974134D-06 0.000000000000D+00  6 1 2 25 1 2 21 2 0.11909057D+00 0.28753562D+00 0.56418863D+06 0.56418863D+06 0.56418863D+06 0.10648228D+01  1  2  3  1  6  1        1 0.505225261924D-06 0.100000000000D+01
-.155609864004D-05 0.000000000000D+00 0.000000000000D+00 0.118796974134D-06 0.000000000000D+00  6 1 2 25 1 2 21 2 0.11909057D+00 0.28753562D+00 0.56418863D+06 0.56418863D+06 0.56418863D+06 0.10648228D+01  1  2 15  1  6  1        1 -.464787092125D-05 0.100000000000D+01
0.531455315945D-03 0.000000000000D+00 0.000000000000D+00 0.118796974134D-06 0.000000000000D+00  6 1 2 25 1 2 21 2 0.18949271D+00 0.28753562D+00 0.59335870D+06 0.59335870D+06 0.59335870D+06 0.10632953D+01  1  2 12  1  6  1        1 0.691684146405D-03 0.100000000000D+01
0.374291027573D-07 0.000000000000D+00 0.000000000000D+00 0.118796974134D-06 0.000000000000D+00  6 1 2 25 1 2 21 2 0.18757815D+00 0.28753562D+00 0.59335870D+06 0.59335870D+06 0.59335870D+06 0.10632953D+01  1  2 12  1  6  1        1 0.497194775415D-07 0.100000000000D+01
-.705428034059D-03 0.000000000000D+00 0.000000000000D+00 0.118796974134D-06 0.000000000000D+00  6 1 2 25 1 2 21 2 0.11909057D+00 0.28753562D+00 0.56418863D+06 0.56418863D+06 0.56418863D+06 0.10648228D+01  1  2  4  1  6  1        1 -.210702481331D-02 0.100000000000D+01
-.549207581620D-03 0.000000000000D+00 -.176008263586D-05 0.118796974134D-06 0.000000000000D+00  6 1 2 25 1 2 21 2 0.18756924D+00 0.28753562D+00 0.56418863D+06 0.56418863D+06 0.56418863D+06 0.10648228D+01  1  2  5  1  6  1        1 -.734495916953D-03 0.100000000000D+01
0.497911392432D-03 0.000000000000D+00 0.159288640846D-05 0.118796974134D-06 0.000000000000D+00  6 1 2 25 1 2 21 2 0.11909057D+00 0.28753562D+00 0.56418863D+06 0.56418863D+06 0.56418863D+06 0.10648228D+01  1  2  6  1  6  1        1 0.148719870495D-02 0.100000000000D+01
0.282917451185D-04 0.000000000000D+00 0.000000000000D+00 0.118796974134D-06 0.000000000000D+00  6 21 2 25 1 2 -1 2 0.18949271D+00 0.28753562D+00 0.59335870D+06 0.59335870D+06 0.59335870D+06 0.10632953D+01  1  2 12  5  6  1        1 0.363402736847D-04 0.100000000000D+01
0.195914763369D-08 0.000000000000D+00 0.000000000000D+00 0.118796974134D-06 0.000000000000D+00  6 21 2 25 1 2 -1 2 0.18757815D+00 0.28753562D+00 0.59335870D+06 0.59335870D+06 0.59335870D+06 0.10632953D+01  1  2 12  5  6  1        1 0.260331326481D-08 0.100000000000D+01
-.286739616379D-04 0.000000000000D+00 -.921204900023D-07 0.118796974134D-06 0.000000000000D+00  6 21 2 25 1 2 -1 2 0.18756924D+00 0.28753562D+00 0.56418863D+06 0.56418863D+06 0.56418863D+06 0.10648228D+01  1  2  5  5  6  1        1 -.384390842559D-04 0.100000000000D+01
  </mgrwgt>
  </event>
  <event>
  5     66 0.17698235E-05 0.24347155E+02 0.75467711E-02 0.93579418E-01
        1 -1    0    0  501    0 0.00000000E+00 0.00000000E+00 0.11340629E+04 0.11340630E+04 0.32000000E+00 0.0000E+00 0.9000E+01
        2 -1    0    0  502    0 -.00000000E+00 -.00000000E+00 -.18786421E+04 0.18786421E+04 0.32000000E+00 0.0000E+00 0.9000E+01
       25  1    1    2    0    0 0.27576586E+02 -.51376458E+03 0.91993538E+03 0.10614239E+04 0.12500000E+03 0.0000E+00 0.9000E+01
        1  1    1    2  501    0 -.10136693E+02 0.22190695E+02 0.10854690E+03 0.11125516E+03 0.32000000E+00 0.0000E+00 0.9000E+01
        2  1    1    2  502    0 -.17439893E+02 0.49157388E+03 -.17730614E+04 0.18400261E+04 0.32000000E+00 0.0000E+00 0.9000E+01
#aMCatNLO 1  0  0  4  2 0.67703161D+02 0.00000000D+00  -5  6  0 0.00000000D+00 0.00000000D+00 0.00000000D+00 0.00000000D+00 0.00000000D+00
  <mgrwgt>
 0.7160709120D-02    6    2    0
 0.145962271493257D+04 0.000000000000000D+00 0.000000000000000D+00 0.145962271493257D+04
 0.145962271493257D+04 -.000000000000000D+00 -.000000000000000D+00 -.145962271493257D+04
 0.133030881689407D+04 0.275587805578778D+02 -.513775269012565D+03 0.122039830992645D+04
 0.142215409173459D+03 -.101162729932457D+02 0.221459927578496D+02 0.140115804361498D+03
 0.144672120379761D+04 -.174425075646321D+02 0.491629276254715D+03 -.136051411428795D+04
 0.000000000000000D+00 0.000000000000000D+00 0.000000000000000D+00 0.000000000000000D+00
 0.145962271493257D+04 0.000000000000000D+00 0.000000000000000D+00 0.145962271493257D+04
 0.145962271493257D+04 -.000000000000000D+00 -.000000000000000D+00 -.145962271493257D+04
 0.133817516221375D+04 0.268951926800286D+02 -.512322578644595D+03 0.122958935778879D+04
 0.903287955526946D+02 0.809663214296345D+01 0.448001195523491D+02 0.780172105502193D+02
 0.143792838149139D+04 -.181598506371884D+02 0.493199644561337D+03 -.135057852816038D+04
 0.528130906073065D+02 -.168319741858036D+02 -.256771854690914D+02 0.429719598213753D+02
0.278733454673D-02 0.000000000000D+00 0.000000000000D+00 0.174901784193D-04 0.000000000000D+00  6 1 2 25 1 2 21 0 0.17447123D+00 0.28902186D+00 0.27340672D+06 0.27340672D+06 0.27340672D+06 0.10875470D+01  1  2  2  3  6  4        1 0.394820837627D-02 0.100000000000D+01
0.576098206369D-03 0.000000000000D+00 -.107040985815D-04 0.174901784193D-04 0.000000000000D+00  6 1 2 25 1 2 21 2 0.17447123D+00 0.28902186D+00 0.27340672D+06 0.27340672D+06 0.27340672D+06 0.10875470D+01  1  2  3  3  6  4        1 0.965169413660D-03 0.100000000000D+01
-.182301802226D-02 0.000000000000D+00 0.000000000000D+00 0.174901784193D-04 0.000000000000D+00  6 1 2 25 1 2 21 2 0.17447123D+00 0.28902186D+00 0.27340672D+06 0.27340672D+06 0.27340672D+06 0.10875470D+01  1  2 15  3  6  4        1 -.305420363435D-02 0.100000000000D+01
-.128830622606D-03 0.000000000000D+00 0.000000000000D+00 0.174901784193D-04 0.000000000000D+00  6 1 2 25 1 2 21 2 0.17447123D+00 0.28902186D+00 0.27340672D+06 0.27340672D+06 0.27340672D+06 0.10875470D+01  1  2  4  3  6  4        1 -.215837117887D-03 0.100000000000D+01
-.252527729430D-02 0.000000000000D+00 0.000000000000D+00 0.174901784193D-04 0.000000000000D+00  6 1 2 25 1 2 21 2 0.17447123D+00 0.28902186D+00 0.27340672D+06 0.27340672D+06 0.27340672D+06 0.10875470D+01  1  2  5  3  6  4        1 -.423073770848D-02 0.100000000000D+01
0.581853142703D-02 0.000000000000D+00 -.000000000000D+00 0.174901784193D-04 0.000000000000D+00  6 1 2 25 1 2 21 2 0.17447123D+00 0.28902186D+00 0.27340672D+06 0.27340672D+06 0.27340672D+06 0.10875470D+01  1  2  6  3  6  4        1 0.974810979050D-02 0.100000000000D+01
  </mgrwgt>
  </event>
  <event>
  5     66 0.17698235E-05 0.18360122E+03 0.75467711E-02 0.94386862E-01
        1 -1    0    0  501    0 0.00000000E+00 0.00000000E+00 0.15858379E+04 0.15858379E+04 0.32000000E+00 0.0000E+00 0.9000E+01
        2 -1    0    0  502    0 0.00000000E+00 0.00000000E+00 -.21711313E+04 0.21711313E+04 0.32000000E+00 0.0000E+00 0.9000E+01
       25  1    1    2    0    0 -.44532755E+03 -.14038754E+03 -.27080166E+03 0.55406121E+03 0.12500000E+03 0.0000E+00 0.9000E+01
        1  1    1    2  501    0 0.27507399E+03 0.20908486E+03 0.14186244E+04 0.14600950E+04 0.32000000E+00 0.0000E+00 0.9000E+01
        2  1    1    2  502    0 0.17025356E+03 -.68697328E+02 -.17331161E+04 0.17428130E+04 0.32000000E+00 0.0000E+00 0.9000E+01
#aMCatNLO 1  0  0  1  4 0.66998740D+01 0.00000000D+00  -5  6  0 0.00000000D+00 0.00000000D+00 0.00000000D+00 0.00000000D+00 0.00000000D+00
  <mgrwgt>
 0.3093357558D-02   13    2    0
 0.185554906631385D+04 0.000000000000000D+00 0.000000000000000D+00 0.185554906631385D+04
 0.185554906631385D+04 0.000000000000000D+00 0.000000000000000D+00 -.185554906631385D+04
 0.518190338786768D+03 -.445334791110361D+03 -.140382249483451D+03 -.186724329075252D+03
 0.170186366261429D+04 0.275071366000891D+03 0.209082867843777D+03 0.166642132250747D+04
 0.149104413122665D+04 0.170263425109469D+03 -.687006183603254D+02 -.147969699343222D+04
 0.000000000000000D+00 -.000000000000000D+00 0.000000000000000D+00 0.000000000000000D+00
 0.194064845822462D+04 0.000000000000000D+00 0.000000000000000D+00 0.194064845822462D+04
 0.185568396516923D+04 0.000000000000000D+00 0.000000000000000D+00 -.185568396516923D+04
 0.517881062232666D+03 -.444745192891096D+03 -.141108231336422D+03 -.186724329075252D+03
 0.170188649498372D+04 0.277008341608719D+03 0.206697838352535D+03 0.166642132250747D+04
 0.149133662325397D+04 0.171960611597081D+03 -.707903916175279D+02 -.147969699343222D+04
 0.852282429234903D+02 -.422376031470420D+01 0.520078460141472D+01 0.849644930553880D+02
0.913281048856D-04 0.000000000000D+00 0.000000000000D+00 0.103098964652D-03 0.000000000000D+00  6 1 2 25 1 2 21 0 0.24397506D+00 0.33402020D+00 0.25628612D+06 0.25628612D+06 0.25628612D+06 0.10896487D+01  1  2  2  1  6  1        1 0.439035561282D-04 0.100000000000D+01
0.134672670491D-04 0.000000000000D+00 -.350723970003D-06 0.103098964652D-03 0.000000000000D+00  6 1 2 25 1 2 21 2 0.24397506D+00 0.33402020D+00 0.25628612D+06 0.25628612D+06 0.25628612D+06 0.10896487D+01  1  2  3  1  6  1        1 0.768683779660D-05 0.100000000000D+01
-.647520281562D-04 0.000000000000D+00 0.000000000000D+00 0.103098964652D-03 0.000000000000D+00  6 1 2 25 1 2 21 2 0.24397506D+00 0.33402020D+00 0.25628612D+06 0.25628612D+06 0.25628612D+06 0.10896487D+01  1  2 15  1  6  1        1 -.369591198886D-04 0.100000000000D+01
0.437325030224D-01 0.000000000000D+00 0.000000000000D+00 0.103098964652D-03 0.000000000000D+00  6 1 2 25 1 2 21 2 0.25610977D+00 0.33402020D+00 0.26078148D+06 0.26078148D+06 0.26078148D+06 0.10890823D+01  1  2 12  1  6  1        1 0.220593940867D-01 0.100000000000D+01
0.416733351523D-09 0.000000000000D+00 0.000000000000D+00 0.103098964652D-03 0.000000000000D+00  6 1 2 25 1 2 21 2 0.25517518D+00 0.33402020D+00 0.26078148D+06 0.26078148D+06 0.26078148D+06 0.10890823D+01  1  2 12  1  6  1        1 0.212171028288D-09 0.100000000000D+01
-.463004972643D-01 0.000000000000D+00 0.000000000000D+00 0.103098964652D-03 0.000000000000D+00  6 1 2 25 1 2 21 2 0.24397506D+00 0.33402020D+00 0.25628612D+06 0.25628612D+06 0.25628612D+06 0.10896487D+01  1  2  4  1  6  1        1 -.264273672659D-01 0.100000000000D+01
-.588278258137D-01 0.000000000000D+00 -.436956809681D-03 0.103098964652D-03 0.000000000000D+00  6 1 2 25 1 2 21 2 0.25517104D+00 0.33402020D+00 0.25628612D+06 0.25628612D+06 0.25628612D+06 0.10896487D+01  1  2  5  1  6  1        1 -.300323899085D-01 0.100000000000D+01
0.587886857848D-01 0.000000000000D+00 0.436517350486D-03 0.103098964652D-03 0.000000000000D+00  6 1 2 25 1 2 21 2 0.24397506D+00 0.33402020D+00 0.25628612D+06 0.25628612D+06 0.25628612D+06 0.10896487D+01  1  2  6  1  6  1        1 0.335553672662D-01 0.100000000000D+01
0.773482894880D-02 0.000000000000D+00 0.000000000000D+00 0.103098964652D-03 0.118058400560D-04  6 1 2 25 1 2 21 2 0.25516427D+00 0.33404449D+00 0.26078148D+06 0.26078148D+06 0.26078148D+06 0.10890823D+01  1  2 11  1  6  1        1 0.393765887524D-02 0.100000000000D+01
0.974761961019D-03 0.000000000000D+00 0.000000000000D+00 0.103098964652D-03 0.000000000000D+00  6 21 2 25 1 2 -1 2 0.25610977D+00 0.33402020D+00 0.26078148D+06 0.26078148D+06 0.26078148D+06 0.10890823D+01  1  2 12  5  6  1        1 0.330305864675D-03 0.100000000000D+01
0.863448762734D-11 0.000000000000D+00 0.000000000000D+00 0.103098964652D-03 0.000000000000D+00  6 21 2 25 1 2 -1 2 0.25517518D+00 0.33402020D+00 0.26078148D+06 0.26078148D+06 0.26078148D+06 0.10890823D+01  1  2 12  5  6  1        1 0.296896275034D-11 0.100000000000D+01
-.107298320544D-02 0.000000000000D+00 -.344081243707D-05 0.103098964652D-03 0.000000000000D+00  6 21 2 25 1 2 -1 2 0.25517104D+00 0.33402020D+00 0.25628612D+06 0.25628612D+06 0.25628612D+06 0.10896487D+01  1  2  5  5  6  1        1 -.370245300998D-03 0.100000000000D+01
0.756239811790D-04 0.000000000000D+00 0.000000000000D+00 0.103098964652D-03 0.109506524052D-06  6 21 2 25 1 2 -1 2 0.25516427D+00 0.33404449D+00 0.26078148D+06 0.26078148D+06 0.26078148D+06 0.10890823D+01  1  2 11  5  6  1        1 0.260024513034D-04 0.100000000000D+01
  </mgrwgt>
  </event>
  <event>
  5     66 0.17698235E-05 0.15255214E+03 0.75467711E-02 0.82603326E-01
        1 -1    0    0  501    0 0.00000000E+00 0.00000000E+00 0.31292302E+04 0.31292302E+04 0.32000000E+00 0.0000E+00 0.9000E+01
        2 -1    0    0  502    0 0.00000000E+00 0.00000000E+00 -.17069561E+04 0.17069561E+04 0.32000000E+00 0.0000E+00 0.9000E+01
       25  1    1    2    0    0 0.30843114E+03 0.10732778E+04 0.80123308E+03 0.13800922E+04 0.12500000E+03 0.0000E+00 0.9000E+01
        1  1    1    2  501    0 -.45770683E+03 -.10418775E+04 0.18747706E+04 0.21931186E+04 0.32000000E+00 0.0000E+00 0.9000E+01
        2  1    1    2  502    0 0.14927569E+03 -.31400267E+02 -.12537296E+04 0.12629756E+04 0.32000000E+00 0.0000E+00 0.9000E+01
#aMCatNLO 1  0  0  2  5 0.47072135D+02 0.00000000D+00  -5  6  0 0.00000000D+00 0.00000000D+00 0.00000000D+00 0.00000000D+00 0.00000000D+00
  <mgrwgt>
 0.1633482161D-02    4    2    0
 0.231115959768563D+04 0.000000000000000D+00 0.000000000000000D+00 0.231115959768563D+04
 0.231115959768563D+04 0.000000000000000D+00 0.000000000000000D+00 -.231115959768563D+04
 0.119740899808183D+04 0.308401668164899D+03 0.107323444895866D+04 0.413786825948868D+03
 0.171765362204616D+04 -.457686705974501D+03 -.104183167789605D+04 0.128664043129183D+04
 0.170725657524326D+04 0.149285037809602D+03 -.314027710626149D+02 -.170042725724070D+04
 0.000000000000000D+00 -.000000000000000D+00 -.000000000000000D+00 0.000000000000000D+00
 0.332564115986243D+04 0.000000000000000D+00 0.000000000000000D+00 0.332564115986243D+04
 0.250030687095883D+04 0.000000000000000D+00 0.000000000000000D+00 -.250030687095883D+04
 0.138210825510121D+04 0.458169797284302D+03 0.123022726694970D+04 0.413786825948868D+03
 0.156088815517843D+04 -.267332845146927D+03 -.842295306556525D+03 0.128664043129183D+04
 0.174519581391252D+04 0.349736240281549D+03 0.178718029209078D+03 -.170042725724070D+04
 0.113775580662910D+04 -.540573192418925D+03 -.566649989602256D+03 0.825334288903605D+03
0.352428474970D-01 0.000000000000D+00 0.000000000000D+00 0.129235945217D-05 0.000000000000D+00  6 1 2 25 1 2 21 0 0.48142003D+00 0.26260864D+00 0.14570005D+07 0.14570005D+07 0.14570005D+07 0.10371533D+01  1  2  2  2  6  2        2 0.215033656978D-02 0.100000000000D+01
0.125901470190D-01 0.000000000000D+00 -.135341814043D-03 0.129235945217D-05 0.000000000000D+00  6 1 2 25 1 2 21 2 0.48142003D+00 0.26260864D+00 0.14570005D+07 0.14570005D+07 0.14570005D+07 0.10371533D+01  1  2  3  2  6  2        2 0.826327345251D-03 0.100000000000D+01
-.198448854350D-01 0.000000000000D+00 0.000000000000D+00 0.129235945217D-05 0.000000000000D+00  6 1 2 25 1 2 21 2 0.48142003D+00 0.26260864D+00 0.14570005D+07 0.14570005D+07 0.14570005D+07 0.10371533D+01  1  2 15  2  6  2        2 -.130247656946D-02 0.100000000000D+01
-.620195208310D-03 0.000000000000D+00 0.000000000000D+00 0.129235945217D-05 0.000000000000D+00  6 1 2 25 1 2 21 2 0.48142003D+00 0.26260864D+00 0.14570005D+07 0.14570005D+07 0.14570005D+07 0.10371533D+01  1  2  4  2  6  2        2 -.407051847170D-04 0.100000000000D+01
  </mgrwgt>
  </event>
  <event>
  5     66 0.17698235E-05 0.58614981E+02 0.75467711E-02 0.89953814E-01
        1 -1    0    0  501    0 0.00000000E+00 0.00000000E+00 0.16857573E+04 0.16857574E+04 0.32000000E+00 0.0000E+00 0.9000E+01
        2 -1    0    0  502    0 0.00000000E+00 0.00000000E+00 -.35506416E+04 0.35506416E+04 0.32000000E+00 0.0000E+00 0.9000E+01
       25  1    1    2    0    0 0.44663402E+03 -.39295440E+03 -.12665602E+03 0.62093627E+03 0.12500000E+03 0.0000E+00 0.9000E+01
        1  1    1    2  501    0 -.39468468E+03 0.36581404E+03 0.13880075E+04 0.14886775E+04 0.32000000E+00 0.0000E+00 0.9000E+01
        2  1    1    2  502    0 -.51949343E+02 0.27140356E+02 -.31262357E+04 0.31267851E+04 0.32000000E+00 0.0000E+00 0.9000E+01
#aMCatNLO 1  0  0  1  5 0.26033681D+02 0.00000000D+00  -5  6  0 0.00000000D+00 0.00000000D+00 0.00000000D+00 0.00000000D+00 0.00000000D+00
  <mgrwgt>
 0.4048457119D-02    7    2    0
 0.244653227138555D+04 0.000000000000000D+00 0.000000000000000D+00 0.244653227138555D+04
 0.244653227138555D+04 0.000000000000000D+00 0.000000000000000D+00 -.244653227138555D+04
 0.616238682217167D+03 0.446630374949581D+03 -.392949869549350D+03 0.101177179513450D+03
 0.212210787159882D+04 -.394678144362594D+03 0.365807986993542D+03 0.205274340766593D+04
 0.215471798895512D+04 -.519522305869863D+02 0.271418825558082D+02 -.215392058717938D+04
 0.000000000000000D+00 0.000000000000000D+00 -.000000000000000D+00 0.000000000000000D+00
 0.325464423681213D+04 0.000000000000000D+00 0.000000000000000D+00 0.325464423681213D+04
 0.246273491176442D+04 0.000000000000000D+00 0.000000000000000D+00 -.246273491176442D+04
 0.598733552856553D+03 0.445130199720676D+03 -.366713990677428D+03 0.101177179513450D+03
 0.214087519429823D+04 -.399941821516755D+03 0.457862030799031D+03 0.205274340766593D+04
 0.215803605773343D+04 -.572773619788212D+02 0.120270671434219D+03 -.215392058717938D+04
 0.819734343688343D+03 0.120889837749001D+02 -.211418711555822D+03 0.791909325047714D+03
0.891487833838D-02 0.000000000000D+00 0.000000000000D+00 0.889862124201D-03 0.000000000000D+00  6 1 2 25 1 2 21 0 0.25934729D+00 0.54625255D+00 0.36277931D+06 0.36277931D+06 0.36277931D+06 0.10784989D+01  1  2  2  1  6  1        1 0.489498159850D-03 0.100000000000D+01
0.469852142968D-02 0.000000000000D+00 -.342354801608D-04 0.889862124201D-03 0.000000000000D+00  6 1 2 25 1 2 21 2 0.25934729D+00 0.54625255D+00 0.36277931D+06 0.36277931D+06 0.36277931D+06 0.10784989D+01  1  2  3  1  6  1        1 0.300079443487D-03 0.100000000000D+01
-.532777347444D-02 0.000000000000D+00 0.000000000000D+00 0.889862124201D-03 0.000000000000D+00  6 1 2 25 1 2 21 2 0.25934729D+00 0.54625255D+00 0.36277931D+06 0.36277931D+06 0.36277931D+06 0.10784989D+01  1  2 15  1  6  1        1 -.340267746601D-03 0.100000000000D+01
-.329300962764D-01 0.000000000000D+00 0.000000000000D+00 0.889862124201D-03 0.000000000000D+00  6 1 2 25 1 2 21 2 0.25934729D+00 0.54625255D+00 0.36277931D+06 0.36277931D+06 0.36277931D+06 0.10784989D+01  1  2  4  1  6  1        1 -.210313927743D-02 0.100000000000D+01
-.163208473580D+00 0.000000000000D+00 -.763909016836D-02 0.889862124201D-03 0.000000000000D+00  6 1 2 25 1 2 21 2 0.34567025D+00 0.54625255D+00 0.36277931D+06 0.36277931D+06 0.36277931D+06 0.10784989D+01  1  2  5  1  6  1        1 -.439284063070D-02 0.100000000000D+01
0.159096047137D+00 0.000000000000D+00 0.733427529494D-02 0.889862124201D-03 0.000000000000D+00  6 1 2 25 1 2 21 2 0.25934729D+00 0.54625255D+00 0.36277931D+06 0.36277931D+06 0.36277931D+06 0.10784989D+01  1  2  6  1  6  1        1 0.101609525465D-01 0.100000000000D+01
-.595458866127D-02 0.000000000000D+00 -.286202448762D-03 0.889862124201D-03 0.000000000000D+00  6 21 2 25 1 2 -1 2 0.34567025D+00 0.54625255D+00 0.36277931D+06 0.36277931D+06 0.36277931D+06 0.10784989D+01  1  2  5  5  6  1        1 -.658253759478D-04 0.100000000000D+01
  </mgrwgt>
  </event>
  <event>
  5     66 0.17698235E-05 0.25369306E+02 0.75467711E-02 0.89742364E-01
        1 -1    0    0  501    0 0.00000000E+00 0.00000000E+00 0.90097768E+03 0.90097774E+03 0.32000000E+00 0.0000E+00 0.9000E+01
        2 -1    0    0  502    0 -.00000000E+00 -.00000000E+00 -.25196439E+04 0.25196439E+04 0.32000000E+00 0.0000E+00 0.9000E+01
       25  1    1    2    0    0 -.41133887E+03 -.37448916E+03 -.86798860E+03 0.10384946E+04 0.12500000E+03 0.0000E+00 0.9000E+01
        1  1    1    2  501    0 -.23994282E+02 0.82409477E+01 0.76385171E+03 0.76427297E+03 0.32000000E+00 0.0000E+00 0.9000E+01
        2  1    1    2  502    0 0.43533315E+03 0.36624822E+03 -.15145293E+04 0.16178541E+04 0.32000000E+00 0.0000E+00 0.9000E+01
#aMCatNLO 1  0  0  4  1 0.10006033D+03 0.00000000D+00  -5  6  0 0.00000000D+00 0.00000000D+00 0.00000000D+00 0.00000000D+00 0.00000000D+00
  <mgrwgt>
 0.6086960877D-02    6    2    0
 0.150669938954969D+04 0.000000000000000D+00 0.000000000000000D+00 0.150669938954969D+04
 0.150669938954969D+04 -.000000000000000D+00 -.000000000000000D+00 -.150669938954969D+04
 0.712611270927008D+03 -.411374450471657D+03 -.374519456471122D+03 -.427429598502401D+03
 0.127782574752314D+04 -.239935901245020D+02 0.824071019801983D+01 0.127757388802426D+04
 0.102296176064923D+04 0.435368040596162D+03 0.366278746273101D+03 -.850144289521861D+03
 0.000000000000000D+00 0.000000000000000D+00 0.000000000000000D+00 0.000000000000000D+00
 0.150669938954969D+04 0.000000000000000D+00 0.000000000000000D+00 0.150669938954969D+04
 0.150669938954969D+04 -.000000000000000D+00 -.000000000000000D+00 -.150669938954969D+04
 0.700756032191942D+03 -.411756397736004D+03 -.374388274905542D+03 -.407092256362260D+03
 0.903460517050471D+03 -.159070396757115D+03 0.164554111886344D+03 0.873990537137522D+03
 0.998747275173948D+03 0.434821695542166D+03 0.366466391024668D+03 -.821053346015091D+03
 0.410434954683010D+03 0.136005098950956D+03 -.156632228005470D+03 0.354155065239829D+03
0.314239600028D-02 0.000000000000D+00 0.000000000000D+00 0.706657867423D-04 0.000000000000D+00  6 1 2 25 1 2 21 0 0.13861196D+00 0.38763753D+00 0.33902226D+06 0.33902226D+06 0.33902226D+06 0.10806445D+01  1  2  2  3  6  4        1 0.288484954192D-02 0.100000000000D+01
0.264373981456D-02 0.000000000000D+00 -.120676280530D-04 0.706657867423D-04 0.000000000000D+00  6 1 2 25 1 2 21 2 0.13861196D+00 0.38763753D+00 0.33902226D+06 0.33902226D+06 0.33902226D+06 0.10806445D+01  1  2  3  3  6  4        1 0.283430557647D-02 0.100000000000D+01
-.203145834160D-02 0.000000000000D+00 0.000000000000D+00 0.706657867423D-04 0.000000000000D+00  6 1 2 25 1 2 21 2 0.13861196D+00 0.38763753D+00 0.33902226D+06 0.33902226D+06 0.33902226D+06 0.10806445D+01  1  2 15  3  6  4        1 -.217788969786D-02 0.100000000000D+01
-.860255692406D-04 0.000000000000D+00 0.000000000000D+00 0.706657867423D-04 0.000000000000D+00  6 1 2 25 1 2 21 2 0.13861196D+00 0.38763753D+00 0.33902226D+06 0.33902226D+06 0.33902226D+06 0.10806445D+01  1  2  4  3  6  4        1 -.922264548403D-04 0.100000000000D+01
-.666567734084D-02 0.000000000000D+00 0.000000000000D+00 0.706657867423D-04 0.000000000000D+00  6 1 2 25 1 2 21 2 0.13861196D+00 0.38763753D+00 0.33902226D+06 0.33902226D+06 0.33902226D+06 0.10806445D+01  1  2  5  3  6  4        1 -.714615196019D-02 0.100000000000D+01
0.912623743059D-02 0.000000000000D+00 -.000000000000D+00 0.706657867423D-04 0.000000000000D+00  6 1 2 25 1 2 21 2 0.13861196D+00 0.38763753D+00 0.33902226D+06 0.33902226D+06 0.33902226D+06 0.10806445D+01  1  2  6  3  6  4        1 0.978407387112D-02 0.100000000000D+01
  </mgrwgt>
  </event>
  <event>
  5     66 0.17698235E-05 0.13625431E+03 0.75467711E-02 0.94813406E-01
        1 -1    0    0  501    0 0.00000000E+00 0.00000000E+00 0.60083978E+03 0.60083986E+03 0.32000000E+00 0.0000E+00 0.9000E+01
        2 -1    0    0  502    0 0.00000000E+00 0.00000000E+00 -.71414354E+03 0.71414361E+03 0.32000000E+00 0.0000E+00 0.9000E+01
       25  1    1    2    0    0 0.41104743E+03 0.20475768E+03 -.15166481E+03 0.49951267E+03 0.12500000E+03 0.0000E+00 0.9000E+01
        1  1    1    2  501    0 -.18448573E+03 -.15872345E+03 0.35070384E+03 0.42687400E+03 0.32000000E+00 0.0000E+00 0.9000E+01
        2  1    1    2  502    0 -.22656169E+03 -.46034231E+02 -.31234280E+03 0.38859681E+03 0.32000000E+00 0.0000E+00 0.9000E+01
#aMCatNLO 1  0  0  2  5 0.29157828D+02 0.00000000D+00  -5  6  0 0.00000000D+00 0.00000000D+00 0.00000000D+00 0.00000000D+00 0.00000000D+00
  <mgrwgt>
 0.9883388027D-03   11    2    0
 0.655046524060404D+03 0.000000000000000D+00 0.000000000000000D+00 0.655046524060404D+03
 0.655046524060404D+03 0.000000000000000D+00 0.000000000000000D+00 -.655046524060404D+03
 0.488254925379953D+03 0.411074120758922D+03 0.204751503643323D+03 -.108916303443799D+03
 0.458725918357167D+03 -.184456716409736D+03 -.158698488382923D+03 0.388870129643484D+03
 0.363112204383687D+03 -.226617404349186D+03 -.460530152604003D+02 -.279953826199685D+03
 0.000000000000000D+00 -.000000000000000D+00 0.000000000000000D+00 -.000000000000000D+00
 0.656699044157928D+03 0.000000000000000D+00 0.000000000000000D+00 0.656699044157928D+03
 0.797827128152921D+03 0.000000000000000D+00 0.000000000000000D+00 -.797827128152921D+03
 0.483932265497645D+03 0.411207834558068D+03 0.193935023221405D+03 -.108916303443799D+03
 0.462320543078559D+03 -.184330036463009D+03 -.168945980955628D+03 0.388870129643484D+03
 0.364164672094930D+03 -.226517375306325D+03 -.541446422326134D+02 -.279953826199685D+03
 0.144108691639716D+03 -.360422788733805D+00 0.291555999668368D+02 -.141128083994993D+03
0.576539103339D-05 0.000000000000D+00 0.000000000000D+00 0.216668550474D-06 0.000000000000D+00  6 1 2 25 1 2 21 0 0.92436901D-01 0.10986825D+00 0.22587743D+06 0.22587743D+06 0.22587743D+06 0.10937898D+01  1  2  2  2  6  2        2 0.112955326646D-03 0.100000000000D+01
0.351909204288D-06 0.000000000000D+00 -.221406196306D-07 0.216668550474D-06 0.000000000000D+00  6 1 2 25 1 2 21 2 0.92436901D-01 0.10986825D+00 0.22587743D+06 0.22587743D+06 0.22587743D+06 0.10937898D+01  1  2  3  2  6  2        2 0.824852578658D-05 0.100000000000D+01
-.369825595862D-05 0.000000000000D+00 0.000000000000D+00 0.216668550474D-06 0.000000000000D+00  6 1 2 25 1 2 21 2 0.92436901D-01 0.10986825D+00 0.22587743D+06 0.22587743D+06 0.22587743D+06 0.10937898D+01  1  2 15  2  6  2        2 -.866847450092D-04 0.100000000000D+01
0.266842614091D-03 0.000000000000D+00 0.000000000000D+00 0.216668550474D-06 0.000000000000D+00  6 1 2 25 1 2 21 2 0.92436901D-01 0.13613976D+00 0.24187383D+06 0.24187383D+06 0.24187383D+06 0.10915404D+01  1  2 12  2  6  2        2 0.472440352538D-02 0.100000000000D+01
0.145350519429D-06 0.000000000000D+00 0.000000000000D+00 0.216668550474D-06 0.000000000000D+00  6 1 2 25 1 2 21 2 0.92436901D-01 0.13401799D+00 0.24187383D+06 0.24187383D+06 0.24187383D+06 0.10915404D+01  1  2 12  2  6  2        2 0.262787647270D-05 0.100000000000D+01
-.224486180942D-03 0.000000000000D+00 0.000000000000D+00 0.216668550474D-06 0.000000000000D+00  6 1 2 25 1 2 21 2 0.92436901D-01 0.10986825D+00 0.22587743D+06 0.22587743D+06 0.22587743D+06 0.10937898D+01  1  2  4  2  6  2        2 -.526181193805D-02 0.100000000000D+01
-.307488448778D-03 0.000000000000D+00 -.736247512506D-05 0.216668550474D-06 0.000000000000D+00  6 1 2 25 1 2 21 2 0.92436901D-01 0.13395256D+00 0.22587743D+06 0.22587743D+06 0.22587743D+06 0.10937898D+01  1  2  5  2  6  2        2 -.559977058586D-02 0.100000000000D+01
0.303116559215D-03 0.000000000000D+00 0.722018856550D-05 0.216668550474D-06 0.000000000000D+00  6 1 2 25 1 2 21 2 0.92436901D-01 0.10986825D+00 0.22587743D+06 0.22587743D+06 0.22587743D+06 0.10937898D+01  1  2  6  2  6  2        2 0.710485751599D-02 0.100000000000D+01
0.805166305234D-05 0.000000000000D+00 0.000000000000D+00 0.216668550474D-06 0.000000000000D+00  6 1 21 25 1 2 -2 2 0.92436901D-01 0.13613976D+00 0.24187383D+06 0.24187383D+06 0.24187383D+06 0.10915404D+01  1  2 12  6  6  2        2 0.121264457778D-03 0.100000000000D+01
0.413857919198D-08 0.000000000000D+00 0.000000000000D+00 0.216668550474D-06 0.000000000000D+00  6 1 21 25 1 2 -2 2 0.92436901D-01 0.13401799D+00 0.24187383D+06 0.24187383D+06 0.24187383D+06 0.10915404D+01  1  2 12  6  6  2        2 0.651827357217D-07 0.100000000000D+01
-.865513110480D-05 0.000000000000D+00 -.209236600153D-06 0.216668550474D-06 0.000000000000D+00  6 1 21 25 1 2 -2 2 0.92436901D-01 0.13395256D+00 0.22587743D+06 0.22587743D+06 0.22587743D+06 0.10937898D+01  1  2  5  6  6  2        2 -.137816339205D-03 0.100000000000D+01
  </mgrwgt>
  </event>
  <event>
  5     66 0.17698235E-05 0.14387201E+03 0.75467711E-02 0.95167660E-01
        1 -1    0    0  501    0 0.00000000E+00 0.00000000E+00 0.40457238E+03 0.40457251E+03 0.32000000E+00 0.0000E+00 0.9000E+01
        2 -1    0    0  502    0 -.00000000E+00 -.00000000E+00 -.94683559E+03 0.94683564E+03 0.32000000E+00 0.0000E+00 0.9000E+01
       25  1    1    2    0    0 0.36583257E+03 -.28544843E+03 -.31808916E+03 0.57629852E+03 0.12500000E+03 0.0000E+00 0.9000E+01
        1  1    1    2  501    0 -.13449454E+03 0.51229237E+02 0.19484629E+03 0.24223623E+03 0.32000000E+00 0.0000E+00 0.9000E+01
        2  1    1    2  502    0 -.23133803E+03 0.23421919E+03 -.41902033E+03 0.53287340E+03 0.32000000E+00 0.0000E+00 0.9000E+01
#aMCatNLO 1  0  0  5  2 0.17808856D+02 0.00000000D+00  -5  6  0 0.00000000D+00 0.00000000D+00 0.00000000D+00 0.00000000D+00 0.00000000D+00
  <mgrwgt>
 0.2182771693D-01    8    2    0
 0.618921362817594D+03 0.000000000000000D+00 0.000000000000000D+00 0.618921362817594D+03
 0.618921362817594D+03 -.000000000000000D+00 -.000000000000000D+00 -.618921362817594D+03
 0.489849436425379D+03 0.365863560826530D+03 -.285494066779244D+03 -.946808484300912D+02
 0.349697763658592D+03 -.134448882433647D+03 0.512118480919344D+02 0.318730874775527D+03
 0.398295525551217D+03 -.231414678392883D+03 0.234282218687310D+03 -.224050026345435D+03
 0.000000000000000D+00 -.000000000000000D+00 0.000000000000000D+00 0.000000000000000D+00
 0.618921362817594D+03 0.000000000000000D+00 0.000000000000000D+00 0.618921362817594D+03
 0.618921362817594D+03 -.000000000000000D+00 -.000000000000000D+00 -.618921362817594D+03
 0.488958017841361D+03 0.365087398829084D+03 -.284708287086766D+03 -.954323094747572D+02
 0.349505118832032D+03 -.135003327236379D+03 0.517731632143197D+02 0.318194074890913D+03
 0.343470840053628D+03 -.185150310135500D+03 0.206360424372483D+03 -.202748504006027D+03
 0.559087489081665D+02 -.449337614572042D+02 0.265746994999635D+02 -.200132614101280D+02
0.722224770699D-04 0.000000000000D+00 0.000000000000D+00 0.180201519574D-06 0.000000000000D+00  6 1 2 25 1 2 21 0 0.62241919D-01 0.14566703D+00 0.22742779D+06 0.22742779D+06 0.22742779D+06 0.10935643D+01  1  2  2  4  6  5        2 0.170489721416D-02 0.100000000000D+01
0.659258435361D-05 0.000000000000D+00 -.277353328563D-06 0.180201519574D-06 0.000000000000D+00  6 1 2 25 1 2 21 2 0.62241919D-01 0.14566703D+00 0.22742779D+06 0.22742779D+06 0.22742779D+06 0.10935643D+01  1  2  3  4  6  5        2 0.186110200029D-03 0.100000000000D+01
-.430843612509D-04 0.000000000000D+00 0.000000000000D+00 0.180201519574D-06 0.000000000000D+00  6 1 2 25 1 2 21 2 0.62241919D-01 0.14566703D+00 0.22742779D+06 0.22742779D+06 0.22742779D+06 0.10935643D+01  1  2 15  4  6  5        2 -.121628160679D-02 0.100000000000D+01
0.174013180843D-02 0.000000000000D+00 0.000000000000D+00 0.180201519574D-06 0.000000000000D+00  6 1 2 25 1 2 21 2 0.62241919D-01 0.14566703D+00 0.22733575D+06 0.22733575D+06 0.22733575D+06 0.10935777D+01  1  2 12  4  6  5        2 0.491261476656D-01 0.100000000000D+01
0.151360196207D-05 0.000000000000D+00 0.000000000000D+00 0.180201519574D-06 0.000000000000D+00  6 1 2 25 1 2 21 2 0.62241919D-01 0.14566703D+00 0.22733575D+06 0.22733575D+06 0.22733575D+06 0.10935777D+01  1  2 12  4  6  5        2 0.427309202300D-04 0.100000000000D+01
-.125969601185D-02 0.000000000000D+00 0.000000000000D+00 0.180201519574D-06 0.000000000000D+00  6 1 2 25 1 2 21 2 0.62241919D-01 0.14566703D+00 0.22742779D+06 0.22742779D+06 0.22742779D+06 0.10935643D+01  1  2  4  4  6  5        2 -.355615133864D-01 0.100000000000D+01
-.178061662123D-02 0.000000000000D+00 0.000000000000D+00 0.180201519574D-06 0.000000000000D+00  6 1 2 25 1 2 21 2 0.62241919D-01 0.14566703D+00 0.22742779D+06 0.22742779D+06 0.22742779D+06 0.10935643D+01  1  2  5  4  6  5        2 -.502672241684D-01 0.100000000000D+01
0.204790543921D-02 0.000000000000D+00 -.000000000000D+00 0.180201519574D-06 0.000000000000D+00  6 1 2 25 1 2 21 2 0.62241919D-01 0.14566703D+00 0.22742779D+06 0.22742779D+06 0.22742779D+06 0.10935643D+01  1  2  6  4  6  5        2 0.578128500886D-01 0.100000000000D+01
  </mgrwgt>
  </event>
  <event>
  5     66 0.17698235E-05 0.13319633E+03 0.75467711E-02 0.93878439E-01
        1 -1    0    0  501    0 0.00000000E+00 0.00000000E+00 0.26091314E+04 0.26091314E+04 0.32000000E+00 0.0000E+00 0.9000E+01
        2 -1    0    0  502    0 0.00000000E+00 0.00000000E+00 -.25945755E+03 0.25945774E+03 0.32000000E+00 0.0000E+00 0.9000E+01
       25  1    1    2    0    0 0.45994609E+03 0.22837703E+03 0.19094729E+04 0.19812668E+04 0.12500000E+03 0.0000E+00 0.9000E+01
        1  1    1    2  501    0 -.33947872E+03 -.17161880E+03 0.58040677E+03 0.69395312E+03 0.32000000E+00 0.0000E+00 0.9000E+01
        2  1    1    2  502    0 -.12046737E+03 -.56758232E+02 -.14020581E+03 0.19336923E+03 0.32000000E+00 0.0000E+00 0.9000E+01
#aMCatNLO 1  0  0  1  4 0.25779566D+02 0.00000000D+00  -5  6  0 0.00000000D+00 0.00000000D+00 0.00000000D+00 0.00000000D+00 0.00000000D+00
  <mgrwgt>
 0.1589254351D-01   11    2    0
 0.822775269793621D+03 0.000000000000000D+00 0.000000000000000D+00 0.822775269793621D+03
 0.822775269793621D+03 0.000000000000000D+00 0.000000000000000D+00 -.822775269793621D+03
 0.727308405256192D+03 0.459828906225827D+03 0.228317020186960D+03 0.499781183767869D+03
 0.380806877581451D+03 -.339336513019149D+03 -.171546905474084D+03 0.208870334802383D+02
 0.537435256749599D+03 -.120492393206678D+03 -.567701147128761D+02 -.520668217248107D+03
 0.000000000000000D+00 0.000000000000000D+00 -.000000000000000D+00 0.000000000000000D+00
 0.849428896604024D+03 0.000000000000000D+00 0.000000000000000D+00 0.849428896604024D+03
 0.829133474444846D+03 0.000000000000000D+00 0.000000000000000D+00 -.829133474444846D+03
 0.726117918949397D+03 0.453208228750683D+03 0.237577991328446D+03 0.499781183767869D+03
 0.381759034360079D+03 -.342810168939935D+03 -.166687972629427D+03 0.208870334802383D+02
 0.537875508132897D+03 -.125390670911761D+03 -.499184279119307D+02 -.520668217248107D+03
 0.328099096064978D+02 0.149926111010124D+02 -.209715907870884D+02 0.202954221591783D+02
0.960301475339D-03 0.000000000000D+00 0.000000000000D+00 0.739923863822D-07 0.000000000000D+00  6 1 2 25 1 2 21 0 0.40140485D+00 0.39916562D-01 0.27134735D+06 0.27134735D+06 0.27134735D+06 0.10877921D+01  1  2  2  1  6  1        1 0.208523083701D-02 0.100000000000D+01
0.116635825663D-03 0.000000000000D+00 -.368781051849D-05 0.739923863822D-07 0.000000000000D+00  6 1 2 25 1 2 21 2 0.40140485D+00 0.39916562D-01 0.27134735D+06 0.27134735D+06 0.27134735D+06 0.10877921D+01  1  2  3  1  6  1        1 0.299688647504D-03 0.100000000000D+01
-.566893900884D-03 0.000000000000D+00 0.000000000000D+00 0.739923863822D-07 0.000000000000D+00  6 1 2 25 1 2 21 2 0.40140485D+00 0.39916562D-01 0.27134735D+06 0.27134735D+06 0.27134735D+06 0.10877921D+01  1  2 15  1  6  1        1 -.145659933788D-02 0.100000000000D+01
0.274601418553D-02 0.000000000000D+00 0.000000000000D+00 0.739923863822D-07 0.000000000000D+00  6 1 2 25 1 2 21 2 0.42144087D+00 0.39916562D-01 0.28551866D+06 0.28551866D+06 0.28551866D+06 0.10861451D+01  1  2 12  1  6  1        1 0.567058079836D-02 0.100000000000D+01
0.395115074620D-05 0.000000000000D+00 0.000000000000D+00 0.739923863822D-07 0.000000000000D+00  6 1 2 25 1 2 21 2 0.41679376D+00 0.39916562D-01 0.28551866D+06 0.28551866D+06 0.28551866D+06 0.10861451D+01  1  2 12  1  6  1        1 0.857402711967D-05 0.100000000000D+01
-.150610025455D-02 0.000000000000D+00 0.000000000000D+00 0.739923863822D-07 0.000000000000D+00  6 1 2 25 1 2 21 2 0.40140485D+00 0.39916562D-01 0.27134735D+06 0.27134735D+06 0.27134735D+06 0.10877921D+01  1  2  4  1  6  1        1 -.386983283845D-02 0.100000000000D+01
-.363640027655D-01 0.000000000000D+00 -.472051628372D-02 0.739923863822D-07 0.000000000000D+00  6 1 2 25 1 2 21 2 0.41544638D+00 0.39916562D-01 0.27134735D+06 0.27134735D+06 0.27134735D+06 0.10877921D+01  1  2  5  1  6  1        1 -.805543530831D-01 0.100000000000D+01
0.365075157635D-01 0.000000000000D+00 0.471772737631D-02 0.739923863822D-07 0.000000000000D+00  6 1 2 25 1 2 21 2 0.40140485D+00 0.39916562D-01 0.27134735D+06 0.27134735D+06 0.27134735D+06 0.10877921D+01  1  2  6  1  6  1        1 0.938038373773D-01 0.100000000000D+01
0.813951279975D-04 0.000000000000D+00 0.000000000000D+00 0.739923863822D-07 0.000000000000D+00  6 21 2 25 1 2 -1 2 0.42144087D+00 0.39916562D-01 0.28551866D+06 0.28551866D+06 0.28551866D+06 0.10861451D+01  1  2 12  5  6  1        1 0.469679613422D-04 0.100000000000D+01
0.919203297636D-07 0.000000000000D+00 0.000000000000D+00 0.739923863822D-07 0.000000000000D+00  6 21 2 25 1 2 -1 2 0.41679376D+00 0.39916562D-01 0.28551866D+06 0.28551866D+06 0.28551866D+06 0.10861451D+01  1  2 12  5  6  1        1 0.571724574831D-07 0.100000000000D+01
-.220795741834D-03 0.000000000000D+00 -.289222649801D-04 0.739923863822D-07 0.000000000000D+00  6 21 2 25 1 2 -1 2 0.41544638D+00 0.39916562D-01 0.27134735D+06 0.27134735D+06 0.27134735D+06 0.10877921D+01  1  2  5  5  6  1        1 -.141608053101D-03 0.100000000000D+01
  </mgrwgt>
  </event>
  <event>
  6     66 -.17698235E-05 0.29322483E+03 0.75467711E-02 0.91352119E-01
        1 -1    0    0  503    0 0.00000000E+00 0.00000000E+00 0.75783528E+03 0.75783534E+03 0.32000000E+00 0.0000E+00 0.9000E+01
        2 -1    0    0  502    0 0.00000000E+00 0.00000000E+00 -.16419399E+04 0.16419400E+04 0.32000000E+00 0.0000E+00 0.9000E+01
       25  1    1    2    0    0 0.57181179E+03 0.79357325E+02 0.16264059E+02 0.59089409E+03 0.12500000E+03 0.0000E+00 0.9000E+01
        1  1    1    2  501    0 -.27738971E+03 0.14420766E+03 0.23734836E+03 0.39252420E+03 0.32000000E+00 0.0000E+00 0.9000E+01
        2  1    1    2  502    0 -.31707213E+03 -.25489772E+03 -.12410480E+04 0.13060275E+04 0.32000000E+00 0.0000E+00 0.9000E+01
       21  1    1    2  503  501 0.22650056E+02 0.31332733E+02 0.10333092E+03 0.11032953E+03 0.75000000E+00 0.0000E+00 0.9000E+01
#aMCatNLO 2  0  0  1  4 0.38662194D+02 0.00000000D+00  -5  6  0 0.00000000D+00 0.00000000D+00 0.00000000D+00 0.00000000D+00 0.00000000D+00
  <mgrwgt>
 -.4188981564D-03    3    2    0
 0.103259844502303D+04 0.000000000000000D+00 0.000000000000000D+00 0.103259844502303D+04
 0.103259844502303D+04 0.000000000000000D+00 0.000000000000000D+00 -.103259844502303D+04
 0.670377146913259D+03 0.579106779183546D+03 0.895372634140705D+02 0.300664157936293D+03
 0.547636313175994D+03 -.271309352648926D+03 0.152484642832915D+03 0.450605371000318D+03
 0.847183429956816D+03 -.307797426534620D+03 -.242021906246986D+03 -.751269528936610D+03
 0.000000000000000D+00 0.000000000000000D+00 0.000000000000000D+00 0.000000000000000D+00
 0.120225798002884D+04 0.000000000000000D+00 0.000000000000000D+00 0.120225798002884D+04
 0.103498432304430D+04 0.000000000000000D+00 0.000000000000000D+00 -.103498432304430D+04
 0.662784813152643D+03 0.571796689672458D+03 0.794249227753014D+02 0.300664157936293D+03
 0.548394391246788D+03 -.277319187009813D+03 0.144170997405224D+03 0.450605371000318D+03
 0.854379548065485D+03 -.317127558994656D+03 -.254928653489631D+03 -.751269528936610D+03
 0.171683550608222D+03 0.226500563320105D+02 0.313327333091051D+02 0.167273656984545D+03
-.355482986797D-03 0.000000000000D+00 0.000000000000D+00 0.130322700421D-06 0.000000000000D+00  6 1 2 25 1 2 21 2 0.11916132D+00 0.25202364D+00 0.45479622D+06 0.45479622D+06 0.45479622D+06 0.10714311D+01  1  2 13  1  6  1        1 -.145749746019D-02 0.100000000000D+01
-.546822006464D-07 0.000000000000D+00 0.000000000000D+00 0.130322700421D-06 0.000000000000D+00  6 1 2 25 1 2 21 2 0.11673014D+00 0.25202364D+00 0.45479622D+06 0.45479622D+06 0.45479622D+06 0.10714311D+01  1  2 13  1  6  1        1 -.231628611222D-06 0.100000000000D+01
0.245955566249D-03 0.000000000000D+00 0.000000000000D+00 0.130322700421D-06 0.359857503897D-09  6 1 2 25 1 2 21 2 0.11658996D+00 0.25260595D+00 0.45479622D+06 0.45479622D+06 0.45479622D+06 0.10714311D+01  1  2  1  1  6  1        1 0.103883093243D-02 0.100000000000D+01
  </mgrwgt>
  </event>
  <event>
  5     66 0.17698235E-05 0.18885340E+03 0.75467711E-02 0.90994330E-01
        1 -1    0    0  501    0 0.00000000E+00 0.00000000E+00 0.12327574E+04 0.12327574E+04 0.32000000E+00 0.0000E+00 0.9000E+01
        2 -1    0    0  502    0 0.00000000E+00 0.00000000E+00 -.21997462E+04 0.21997462E+04 0.32000000E+00 0.0000E+00 0.9000E+01
       25  1    1    2    0    0 0.60433058E+03 -.18939330E+02 -.51210138E+03 0.80215146E+03 0.12500000E+03 0.0000E+00 0.9000E+01
        1  1    1    2  501    0 -.16096928E+03 0.98773568E+02 0.10462071E+04 0.10631165E+04 0.32000000E+00 0.0000E+00 0.9000E+01
        2  1    1    2  502    0 -.44336130E+03 -.79834238E+02 -.15010945E+04 0.15672357E+04 0.32000000E+00 0.0000E+00 0.9000E+01
#aMCatNLO 1  0  0  1  5 0.93785051D+02 0.00000000D+00  -5  6  0 0.00000000D+00 0.00000000D+00 0.00000000D+00 0.00000000D+00 0.00000000D+00
  <mgrwgt>
 0.1692348065D-02    9    2    0
 0.164674025142899D+04 0.000000000000000D+00 0.000000000000000D+00 0.164674025142899D+04
 0.164674025142899D+04 0.000000000000000D+00 0.000000000000000D+00 -.164674025142899D+04
 0.685662807122077D+03 0.604363022927908D+03 -.189327365848384D+02 -.298153271109637D+03
 0.141513190110327D+04 -.160965401077576D+03 0.987711860254904D+02 0.140247377515132D+04
 0.119268579463264D+04 -.443397621850331D+03 -.798384494406520D+02 -.110432050404168D+04
 0.000000000000000D+00 0.000000000000000D+00 0.000000000000000D+00 0.000000000000000D+00
 0.241583482429079D+04 0.000000000000000D+00 0.000000000000000D+00 0.241583482429079D+04
 0.165026934269917D+04 0.000000000000000D+00 0.000000000000000D+00 -.165026934269917D+04
 0.669654024861315D+03 0.585926689582711D+03 -.246181716264143D+02 -.298153271109637D+03
 0.141925679808363D+04 -.199521503720820D+03 0.868811744418363D+02 0.140247377515132D+04
 0.120590471946518D+04 -.476025575132532D+03 -.899003259240177D+02 -.110432050404168D+04
 0.771288624579827D+03 0.896203892706409D+02 0.276373231085958D+02 0.765565481591622D+03
0.854930063533D-04 0.000000000000D+00 0.000000000000D+00 0.115281165597D-04 0.000000000000D+00  6 1 2 25 1 2 21 0 0.18965499D+00 0.33842250D+00 0.39490315D+06 0.39490315D+06 0.39490315D+06 0.10758293D+01  1  2  2  1  6  1        1 0.664918288845D-04 0.100000000000D+01
0.146391978515D-04 0.000000000000D+00 -.328315655222D-06 0.115281165597D-04 0.000000000000D+00  6 1 2 25 1 2 21 2 0.18965499D+00 0.33842250D+00 0.39490315D+06 0.39490315D+06 0.39490315D+06 0.10758293D+01  1  2  3  1  6  1        1 0.131777645023D-04 0.100000000000D+01
-.514889917196D-04 0.000000000000D+00 0.000000000000D+00 0.115281165597D-04 0.000000000000D+00  6 1 2 25 1 2 21 2 0.18965499D+00 0.33842250D+00 0.39490315D+06 0.39490315D+06 0.39490315D+06 0.10758293D+01  1  2 15  1  6  1        1 -.463488378408D-04 0.100000000000D+01
0.903513040724D-09 0.000000000000D+00 0.000000000000D+00 0.115281165597D-04 0.000000000000D+00  6 1 2 25 1 2 21 2 0.27846501D+00 0.33842250D+00 0.48682707D+06 0.48682707D+06 0.48682707D+06 0.10693309D+01  1  2 12  1  6  1        1 0.319451055617D-09 0.100000000000D+01
-.122824500242D-02 0.000000000000D+00 0.000000000000D+00 0.115281165597D-04 0.000000000000D+00  6 1 2 25 1 2 21 2 0.18965499D+00 0.33842250D+00 0.39490315D+06 0.39490315D+06 0.39490315D+06 0.10758293D+01  1  2  4  1  6  1        1 -.110562911692D-02 0.100000000000D+01
-.592285505828D-02 0.000000000000D+00 -.647791234364D-04 0.115281165597D-04 0.000000000000D+00  6 1 2 25 1 2 21 2 0.27840765D+00 0.33842250D+00 0.39490315D+06 0.39490315D+06 0.39490315D+06 0.10758293D+01  1  2  5  1  6  1        1 -.216367502403D-02 0.100000000000D+01
0.553905446885D-02 0.000000000000D+00 0.602825757484D-04 0.115281165597D-04 0.000000000000D+00  6 1 2 25 1 2 21 2 0.18965499D+00 0.33842250D+00 0.39490315D+06 0.39490315D+06 0.39490315D+06 0.10758293D+01  1  2  6  1  6  1        1 0.498608981831D-02 0.100000000000D+01
0.417491347490D-10 0.000000000000D+00 0.000000000000D+00 0.115281165597D-04 0.000000000000D+00  6 21 2 25 1 2 -1 2 0.27846501D+00 0.33842250D+00 0.48682707D+06 0.48682707D+06 0.48682707D+06 0.10693309D+01  1  2 12  5  6  1        1 0.851438285267D-11 0.100000000000D+01
-.271484093821D-03 0.000000000000D+00 -.299211551600D-05 0.115281165597D-04 0.000000000000D+00  6 21 2 25 1 2 -1 2 0.27840765D+00 0.33842250D+00 0.39490315D+06 0.39490315D+06 0.39490315D+06 0.10758293D+01  1  2  5  5  6  1        1 -.577586955420D-04 0.100000000000D+01
  </mgrwgt>
  </event>
  <event>
  5     66 -.17698235E-05 0.86134804E+02 0.75467711E-02 0.91315054E-01
        1 -1    0    0  501    0 0.00000000E+00 0.00000000E+00 0.11457056E+04 0.11457056E+04 0.32000000E+00 0.0000E+00 0.9000E+01
        2 -1    0    0  502    0 -.00000000E+00 -.00000000E+00 -.12727105E+04 0.12727106E+04 0.32000000E+00 0.0000E+00 0.9000E+01
       25  1    1    2    0    0 -.65812475E+03 0.83532259E+02 0.14549184E+03 0.69057853E+03 0.12500000E+03 0.0000E+00 0.9000E+01
        1  1    1    2  501    0 0.58578478E+03 -.36795500E+02 0.60686715E+03 0.84426628E+03 0.32000000E+00 0.0000E+00 0.9000E+01
        2  1    1    2  502    0 0.72339973E+02 -.46736759E+02 -.87936391E+03 0.88357138E+03 0.32000000E+00 0.0000E+00 0.9000E+01
#aMCatNLO 1  0  0  4  1 0.24176613D-01 0.00000000D+00  -5  6  0 0.00000000D+00 0.00000000D+00 0.00000000D+00 0.00000000D+00 0.00000000D+00
  <mgrwgt>
 -.1274974826D-01    6    2    0
 0.120753950117031D+04 0.000000000000000D+00 0.000000000000000D+00 0.120753950117031D+04
 0.120753950117031D+04 -.000000000000000D+00 -.000000000000000D+00 -.120753950117031D+04
 0.699180405281882D+03 -.658083807115197D+03 0.835345636508201D+02 0.182142577720236D+03
 0.877272181918456D+03 0.585734852894165D+03 -.367923638956490D+02 0.652048683176333D+03
 0.838626415140280D+03 0.723489542210316D+02 -.467421997551712D+02 -.834191260896569D+03
 0.000000000000000D+00 0.000000000000000D+00 0.000000000000000D+00 0.000000000000000D+00
 0.120753950117031D+04 0.000000000000000D+00 0.000000000000000D+00 0.120753950117031D+04
 0.120753950117031D+04 -.000000000000000D+00 -.000000000000000D+00 -.120753950117031D+04
 0.695767048753503D+03 -.652847926805086D+03 0.832056769323129D+02 0.187971236958470D+03
 0.429320432927670D+03 0.344096911381200D+03 0.469982692834179D+02 0.252397528497179D+03
 0.832273197094215D+03 0.786206100848871D+02 -.471361477055639D+02 -.827209561024765D+03
 0.457718323565230D+03 0.230130405338999D+03 -.830677985101669D+02 0.386840795569117D+03
0.100187546379D-02 0.000000000000D+00 0.000000000000D+00 0.490816242003D-05 0.000000000000D+00  6 1 2 25 1 2 21 0 0.17626240D+00 0.19580162D+00 0.45431834D+06 0.45431834D+06 0.45431834D+06 0.10714636D+01  1  2  2  3  6  4        1 0.290574031232D-02 0.100000000000D+01
0.340736693208D-03 0.000000000000D+00 -.384746558081D-05 0.490816242003D-05 0.000000000000D+00  6 1 2 25 1 2 21 2 0.17626240D+00 0.19580162D+00 0.45431834D+06 0.45431834D+06 0.45431834D+06 0.10714636D+01  1  2  3  3  6  4        1 0.113453221046D-02 0.100000000000D+01
-.619055821695D-03 0.000000000000D+00 0.000000000000D+00 0.490816242003D-05 0.000000000000D+00  6 1 2 25 1 2 21 2 0.17626240D+00 0.19580162D+00 0.45431834D+06 0.45431834D+06 0.45431834D+06 0.10714636D+01  1  2 15  3  6  4        1 -.206123609163D-02 0.100000000000D+01
-.611042032969D-02 0.000000000000D+00 0.000000000000D+00 0.490816242003D-05 0.000000000000D+00  6 1 2 25 1 2 21 2 0.17626240D+00 0.19580162D+00 0.45431834D+06 0.45431834D+06 0.45431834D+06 0.10714636D+01  1  2  4  3  6  4        1 -.203455302046D-01 0.100000000000D+01
-.268737903103D-02 0.000000000000D+00 0.000000000000D+00 0.490816242003D-05 0.000000000000D+00  6 1 2 25 1 2 21 2 0.17626240D+00 0.19580162D+00 0.45431834D+06 0.45431834D+06 0.45431834D+06 0.10714636D+01  1  2  5  3  6  4        1 -.894801802443D-02 0.100000000000D+01
0.437426925468D-02 0.000000000000D+00 -.000000000000D+00 0.490816242003D-05 0.000000000000D+00  6 1 2 25 1 2 21 2 0.17626240D+00 0.19580162D+00 0.45431834D+06 0.45431834D+06 0.45431834D+06 0.10714636D+01  1  2  6  3  6  4        1 0.145647635420D-01 0.100000000000D+01
  </mgrwgt>
  </event>
  <event>
  6     66 -.17698235E-05 0.72445257E+02 0.75467711E-02 0.88446323E-01
        1 -1    0    0  501    0 0.00000000E+00 0.00000000E+00 0.20230215E+04 0.20230215E+04 0.32000000E+00 0.0000E+00 0.9000E+01
        2 -1    0    0  502    0 -.00000000E+00 -.00000000E+00 -.23858220E+04 0.23858220E+04 0.32000000E+00 0.0000E+00 0.9000E+01
       25  1    1    2    0    0 -.53731315E+03 0.56042029E+03 0.91722253E+03 0.12081798E+04 0.12500000E+03 0.0000E+00 0.9000E+01
        1  1    1    2  501    0 -.13986860E+03 -.23471470E+02 0.86739897E+03 0.87891706E+03 0.32000000E+00 0.0000E+00 0.9000E+01
        2  1    1    2  503    0 0.42494837E+03 -.33006469E+03 -.15547030E+04 0.16451824E+04 0.32000000E+00 0.0000E+00 0.9000E+01
       21  1    1    2  502  503 0.25223337E+03 -.20688413E+03 -.59271903E+03 0.67656421E+03 0.75000000E+00 0.0000E+00 0.9000E+01
#aMCatNLO 2  0  0  5  2 0.81591951D+02 0.00000000D+00  -5  6  0 0.00000000D+00 0.00000000D+00 0.00000000D+00 0.00000000D+00 0.00000000D+00
  <mgrwgt>
 -.1845753425D-03    3    2    0
 0.219694544468878D+04 0.000000000000000D+00 0.000000000000000D+00 0.219694544468878D+04
 0.219694544468878D+04 -.000000000000000D+00 -.000000000000000D+00 -.219694544468878D+04
 0.129031031218188D+04 -.538075800040956D+03 0.561003845994407D+03 0.102226455475707D+04
 0.954900618764814D+03 -.140358185660528D+03 -.230597079628324D+02 0.944247330578264D+03
 0.214867995843086D+04 0.678433985701484D+03 -.537944138031575D+03 -.196651188533533D+04
 0.000000000000000D+00 0.000000000000000D+00 -.000000000000000D+00 0.000000000000000D+00
 0.219694544468878D+04 0.000000000000000D+00 0.000000000000000D+00 0.219694544468878D+04
 0.219694544468878D+04 -.000000000000000D+00 -.000000000000000D+00 -.219694544468878D+04
 0.128818553534647D+04 -.537380981981319D+03 0.560452910590141D+03 0.102025055191933D+04
 0.953361160087587D+03 -.139843973179740D+03 -.234674375217472D+02 0.942756831905777D+03
 0.152226208316729D+04 0.424922528763214D+03 -.330044606259258D+03 -.142400605766881D+04
 0.630082110776207D+03 0.252302426397846D+03 -.206940866809136D+03 -.539001326156293D+03
-.262921614996D-02 0.000000000000D+00 0.000000000000D+00 0.288916552914D-05 0.000000000000D+00  6 1 2 25 1 2 21 2 0.31123408D+00 0.36704954D+00 0.80336238D+06 0.80336238D+06 0.80336238D+06 0.10542529D+01  1  2 13  4  6  5        2 -.484836190452D-03 0.100000000000D+01
-.832359156269D-09 0.000000000000D+00 0.000000000000D+00 0.288916552914D-05 0.000000000000D+00  6 1 2 25 1 2 21 2 0.31123408D+00 0.36704954D+00 0.80336238D+06 0.80336238D+06 0.80336238D+06 0.10542529D+01  1  2 13  4  6  5        2 -.153489792926D-09 0.100000000000D+01
0.162828412906D-02 0.000000000000D+00 0.000000000000D+00 0.288916552914D-05 0.803492094175D-09  6 1 2 25 1 2 21 2 0.31123408D+00 0.36704954D+00 0.80336238D+06 0.80336238D+06 0.80336238D+06 0.10542529D+01  1  2  1  4  6  5        2 0.300261001409D-03 0.100000000000D+01
  </mgrwgt>
  </event>
  <event>
  5     66 0.17698235E-05 0.82321824E+02 0.75467711E-02 0.91230478E-01
        1 -1    0    0  501    0 0.00000000E+00 0.00000000E+00 0.38361866E+04 0.38361866E+04 0.32000000E+00 0.0000E+00 0.9000E+01
        2 -1    0    0  502    0 0.00000000E+00 0.00000000E+00 -.13636173E+04 0.13636173E+04 0.32000000E+00 0.0000E+00 0.9000E+01
       25  1    1    2    0    0 -.53202336E+02 -.52378149E+03 0.19572858E+03 0.57542351E+03 0.12500000E+03 0.0000E+00 0.9000E+01
        1  1    1    2  501    0 0.13281685E+03 0.54470407E+03 0.34263545E+04 0.34719229E+04 0.32000000E+00 0.0000E+00 0.9000E+01
        2  1    1    2  502    0 -.79614509E+02 -.20922577E+02 -.11495139E+04 0.11524576E+04 0.32000000E+00 0.0000E+00 0.9000E+01
#aMCatNLO 1  0  0  2  2 0.15827986D+04 0.00000000D+00  -5  6  0 0.00000000D+00 0.00000000D+00 0.00000000D+00 0.00000000D+00 0.00000000D+00
  <mgrwgt>
 0.2801321537D-01    7    2    0
 0.228715774405339D+04 0.000000000000000D+00 0.000000000000000D+00 0.228715774405339D+04
 0.228715774405339D+04 0.000000000000000D+00 0.000000000000000D+00 -.228715774405339D+04
 0.548294520425067D+03 -.531972483928121D+02 -.523775748682386D+03 -.884923668108905D+02
 0.209459397582064D+04 0.132815660377226D+03 0.544699209953969D+03 0.201816418920221D+04
 0.193142699186108D+04 -.796184119844137D+02 -.209234612715827D+02 -.192967182239132D+04
 0.000000000000000D+00 0.000000000000000D+00 -.000000000000000D+00 -.000000000000000D+00
 0.229398917373315D+04 0.000000000000000D+00 0.000000000000000D+00 0.229398917373315D+04
 0.291581288927452D+04 0.000000000000000D+00 0.000000000000000D+00 -.291581288927452D+04
 0.538741205522508D+03 -.626904402248374D+02 -.512694934876938D+03 -.884923668108905D+02
 0.210413560206193D+04 0.961477345839939D+02 0.587499404613062D+03 0.201816418920221D+04
 0.193308734715706D+04 -.113367602633996D+03 0.184698749518580D+02 -.192967182239132D+04
 0.633837908266161D+03 0.799103082748392D+02 -.932743446879821D+02 -.621823715541366D+03
0.607957263958D-01 0.000000000000D+00 0.000000000000D+00 0.363941978056D-03 0.000000000000D+00  6 1 2 25 1 2 21 0 0.59018255D+00 0.20978728D+00 0.35051488D+06 0.35051488D+06 0.35051488D+06 0.10795868D+01  1  2  2  2  6  2        2 0.175523739866D-02 0.100000000000D+01
0.232855107392D-01 0.000000000000D+00 -.233471597242D-03 0.363941978056D-03 0.000000000000D+00  6 1 2 25 1 2 21 2 0.59018255D+00 0.20978728D+00 0.35051488D+06 0.35051488D+06 0.35051488D+06 0.10795868D+01  1  2  3  2  6  2        2 0.783544514302D-03 0.100000000000D+01
-.403728292680D-01 0.000000000000D+00 0.000000000000D+00 0.363941978056D-03 0.000000000000D+00  6 1 2 25 1 2 21 2 0.59018255D+00 0.20978728D+00 0.35051488D+06 0.35051488D+06 0.35051488D+06 0.10795868D+01  1  2 15  2  6  2        2 -.135852330035D-02 0.100000000000D+01
-.373609535193D-01 0.000000000000D+00 0.000000000000D+00 0.363941978056D-03 0.000000000000D+00  6 1 2 25 1 2 21 2 0.59018255D+00 0.20978728D+00 0.35051488D+06 0.35051488D+06 0.35051488D+06 0.10795868D+01  1  2  4  2  6  2        2 -.125717535282D-02 0.100000000000D+01
-.237191290777D+01 0.000000000000D+00 -.578435467261D-01 0.363941978056D-03 0.000000000000D+00  6 1 2 25 1 2 21 2 0.59018255D+00 0.26771157D+00 0.35051488D+06 0.35051488D+06 0.35051488D+06 0.10795868D+01  1  2  5  2  6  2        2 -.494983109491D-01 0.100000000000D+01
0.231844040867D+01 0.000000000000D+00 0.561658348570D-01 0.363941978056D-03 0.000000000000D+00  6 1 2 25 1 2 21 2 0.59018255D+00 0.20978728D+00 0.35051488D+06 0.35051488D+06 0.35051488D+06 0.10795868D+01  1  2  6  2  6  2        2 0.780142331556D-01 0.100000000000D+01
-.778705085694D-01 0.000000000000D+00 -.192170541297D-02 0.363941978056D-03 0.000000000000D+00  6 1 21 25 1 2 -2 2 0.59018255D+00 0.26771157D+00 0.35051488D+06 0.35051488D+06 0.35051488D+06 0.10795868D+01  1  2  5  6  6  2        2 -.425790092594D-03 0.100000000000D+01
  </mgrwgt>
  </event>
  <event>
  5     66 0.17698235E-05 0.26250429E+03 0.75467711E-02 0.88674407E-01
        1 -1    0    0  501    0 0.00000000E+00 0.00000000E+00 0.11669348E+04 0.11669348E+04 0.32000000E+00 0.0000E+00 0.9000E+01
        2 -1    0    0  502    0 0.00000000E+00 0.00000000E+00 -.27521308E+04 0.27521308E+04 0.32000000E+00 0.0000E+00 0.9000E+01
       25  1    1    2    0    0 -.46140723E+03 0.26393463E+03 -.15819968E+04 0.16735880E+04 0.12500000E+03 0.0000E+00 0.9000E+01
        1  1    1    2  501    0 0.24230550E+03 -.10097969E+03 0.10887275E+04 0.11199270E+04 0.32000000E+00 0.0000E+00 0.9000E+01
        2  1    1    2  502    0 0.21910174E+03 -.16295494E+03 -.10919267E+04 0.11255505E+04 0.32000000E+00 0.0000E+00 0.9000E+01
#aMCatNLO 1  0  0  2  2 0.40968183D+02 0.00000000D+00  -5  6  0 0.00000000D+00 0.00000000D+00 0.00000000D+00 0.00000000D+00 0.00000000D+00
  <mgrwgt>
 0.1889901011D-02    4    2    0
 0.179208181100453D+04 0.000000000000000D+00 0.000000000000000D+00 0.179208181100453D+04
 0.179208181100453D+04 0.000000000000000D+00 0.000000000000000D+00 -.179208181100453D+04
 0.113027332519682D+04 -.461414308608932D+03 0.263939488550438D+03 -.989608797377097D+03
 0.170608797717991D+04 0.242304882438837D+03 -.100979434876263D+03 0.168577213274992D+04
 0.747802319632326D+03 0.219109426170095D+03 -.162960053674176D+03 -.696163335372820D+03
 0.000000000000000D+00 0.000000000000000D+00 0.000000000000000D+00 0.000000000000000D+00
 0.246914092702025D+04 0.000000000000000D+00 0.000000000000000D+00 0.246914092702025D+04
 0.192232216247936D+04 0.000000000000000D+00 0.000000000000000D+00 -.192232216247936D+04
 0.114774792954265D+04 -.554583275077238D+03 0.121705089983535D+03 -.989608797377097D+03
 0.171795375422098D+04 0.102264736371168D+03 -.314768711565642D+03 0.168577213274992D+04
 0.758621864648980D+03 0.157498067619184D+03 -.257017708927438D+03 -.696163335372820D+03
 0.767139541087000D+03 0.294820471086886D+03 0.450081330509546D+03 0.546818764540899D+03
0.162058101625D-01 0.000000000000D+00 0.000000000000D+00 0.933349728360D-05 0.000000000000D+00  6 1 2 25 1 2 21 0 0.17952843D+00 0.42340474D+00 0.29248620D+06 0.29248620D+06 0.29248620D+06 0.10853678D+01  1  2  2  2  6  2        2 0.690055469274D-02 0.100000000000D+01
0.104423218192D-02 0.000000000000D+00 -.622345781119D-04 0.933349728360D-05 0.000000000000D+00  6 1 2 25 1 2 21 2 0.17952843D+00 0.42340474D+00 0.29248620D+06 0.29248620D+06 0.29248620D+06 0.10853678D+01  1  2  3  2  6  2        2 0.523798443236D-03 0.100000000000D+01
-.109794031554D-01 0.000000000000D+00 0.000000000000D+00 0.933349728360D-05 0.000000000000D+00  6 1 2 25 1 2 21 2 0.17952843D+00 0.42340474D+00 0.29248620D+06 0.29248620D+06 0.29248620D+06 0.10853678D+01  1  2 15  2  6  2        2 -.550739038698D-02 0.100000000000D+01
-.539496404135D-04 0.000000000000D+00 0.000000000000D+00 0.933349728360D-05 0.000000000000D+00  6 1 2 25 1 2 21 2 0.17952843D+00 0.42340474D+00 0.29248620D+06 0.29248620D+06 0.29248620D+06 0.10853678D+01  1  2  4  2  6  2        2 -.270617379459D-04 0.100000000000D+01
  </mgrwgt>
  </event>
  <event>
  5     66 -.17698235E-05 0.43238865E+02 0.75467711E-02 0.92620990E-01
        1 -1    0    0  501    0 0.00000000E+00 0.00000000E+00 0.35169577E+03 0.35169592E+03 0.32000000E+00 0.0000E+00 0.9000E+01
        2 -1    0    0  502    0 -.00000000E+00 -.00000000E+00 -.26641385E+04 0.26641385E+04 0.32000000E+00 0.0000E+00 0.9000E+01
       25  1    1    2    0    0 0.54546938E+03 0.22033613E+03 -.77803135E+03 0.98338326E+03 0.12500000E+03 0.0000E+00 0.9000E+01
        1  1    1    2  501    0 -.23877248E+02 -.36059140E+02 0.20379884E+03 0.20833736E+03 0.32000000E+00 0.0000E+00 0.9000E+01
        2  1    1    2  502    0 -.52159213E+03 -.18427699E+03 -.17382102E+04 0.18241138E+04 0.32000000E+00 0.0000E+00 0.9000E+01
#aMCatNLO 1  0  0  4  1 0.96284964D+02 0.00000000D+00  -5  6  0 0.00000000D+00 0.00000000D+00 0.00000000D+00 0.00000000D+00 0.00000000D+00
  <mgrwgt>
 -.1105414859D-03    1    2    0
 0.967970296618049D+03 0.000000000000000D+00 0.000000000000000D+00 0.967970296618049D+03
 0.967970296618049D+03 -.000000000000000D+00 -.000000000000000D+00 -.967970296618049D+03
 0.602657333945283D+03 0.545546291835315D+03 0.220360428385391D+03 -.373013032557830D+02
 0.567865120744399D+03 -.238722363757663D+02 -.360515708756679D+02 0.566216562744209D+03
 0.765418138546416D+03 -.521674055459549D+03 -.184308857509722D+03 -.528915259488426D+03
 0.000000000000000D+00 0.000000000000000D+00 0.000000000000000D+00 0.000000000000000D+00
 0.967970296618049D+03 0.000000000000000D+00 0.000000000000000D+00 0.967970296618049D+03
 0.967970296618049D+03 -.000000000000000D+00 -.000000000000000D+00 -.967970296618049D+03
 0.601915995752049D+03 0.545281816395582D+03 0.219961020683894D+03 -.310283101411476D+02
 0.388501532643498D+03 -.800902251742934D+02 -.522919880443857D+02 0.376542885584423D+03
 0.760302250184411D+03 -.522009041766129D+03 -.184814749893827D+03 -.520969845741160D+03
 0.185220814656140D+03 0.568174505448404D+02 0.171457172543186D+02 0.175455270297885D+03
-.318861845416D-04 0.000000000000D+00 0.000000000000D+00 0.698900623142D-05 0.000000000000D+00  6 1 2 25 1 2 21 2 0.54107055D-01 0.40986747D+00 0.35881060D+06 0.35881060D+06 0.35881060D+06 0.10788465D+01  1  2 14  3  6  4        1 -.110541485861D-03 0.100000000000D+01
  </mgrwgt>
  </event>
  <event>
  5     66 0.17698235E-05 0.84346646E+02 0.75467711E-02 0.92441383E-01
        1 -1    0    0  501    0 0.00000000E+00 0.00000000E+00 0.11060100E+04 0.11060100E+04 0.32000000E+00 0.0000E+00 0.9000E+01
        2 -1    0    0  502    0 0.00000000E+00 0.00000000E+00 -.57010272E+03 0.57010281E+03 0.32000000E+00 0.0000E+00 0.9000E+01
       25  1    1    2    0    0 0.36019290E+03 -.37161316E+03 0.74735198E+02 0.53762963E+03 0.12500000E+03 0.0000E+00 0.9000E+01
        1  1    1    2  501    0 -.48640539E+02 -.68942009E+02 0.57988568E+03 0.58599181E+03 0.32000000E+00 0.0000E+00 0.9000E+01
        2  1    1    2  502    0 -.31155236E+03 0.44055517E+03 -.11871360E+03 0.55249140E+03 0.32000000E+00 0.0000E+00 0.9000E+01
#aMCatNLO 1  0  0  4  2 0.41589962D+02 0.00000000D+00  -5  6  0 0.00000000D+00 0.00000000D+00 0.00000000D+00 0.00000000D+00 0.00000000D+00
  <mgrwgt>
 0.4661408837D-01    7    2    0
 0.794065119211599D+03 0.000000000000000D+00 0.000000000000000D+00 0.794065119211599D+03
 0.794065119211599D+03 -.000000000000000D+00 -.000000000000000D+00 -.794065119211599D+03
 0.542278514173022D+03 0.360245705987292D+03 -.371703174279221D+03 -.102473257400010D+03
 0.422640933764500D+03 -.486250059361115D+02 -.689199931314043D+02 0.414138868301213D+03
 0.623210790485675D+03 -.311620700051181D+03 0.440623167410625D+03 -.311665610901202D+03
 0.000000000000000D+00 0.000000000000000D+00 -.000000000000000D+00 0.000000000000000D+00
 0.794065119211599D+03 0.000000000000000D+00 0.000000000000000D+00 0.794065119211599D+03
 0.794065119211599D+03 -.000000000000000D+00 -.000000000000000D+00 -.794065119211599D+03
 0.541291771283746D+03 0.359455232245913D+03 -.372823574036045D+03 -.957407975396114D+02
 0.577826317502598D+02 0.637799902809148D+01 0.327963711967442D+02 0.471439465542412D+02
 0.618931298598193D+03 -.312526853272306D+03 0.439338806153004D+03 -.303947909642770D+03
 0.370124536790998D+03 -.533063780016985D+02 -.993116033137025D+02 0.352544760628141D+03
0.487032560923D-02 0.000000000000D+00 0.000000000000D+00 0.630151124405D-06 0.000000000000D+00  6 1 2 25 1 2 21 0 0.17015539D+00 0.87708121D-01 0.33439427D+06 0.33439427D+06 0.33439427D+06 0.10810816D+01  1  2  2  3  6  4        1 0.456519166695D-01 0.100000000000D+01
0.112433705530D-02 0.000000000000D+00 -.187033327256D-04 0.630151124405D-06 0.000000000000D+00  6 1 2 25 1 2 21 2 0.17015539D+00 0.87708121D-01 0.33439427D+06 0.33439427D+06 0.33439427D+06 0.10810816D+01  1  2  3  3  6  4        1 0.123172699129D-01 0.100000000000D+01
-.261595769629D-02 0.000000000000D+00 0.000000000000D+00 0.630151124405D-06 0.000000000000D+00  6 1 2 25 1 2 21 2 0.17015539D+00 0.87708121D-01 0.33439427D+06 0.33439427D+06 0.33439427D+06 0.10810816D+01  1  2 15  3  6  4        1 -.286581829480D-01 0.100000000000D+01
0.227630998412D-06 0.000000000000D+00 0.000000000000D+00 0.630151124405D-06 0.000000000000D+00  6 1 2 25 1 2 21 2 0.17015539D+00 0.87708121D-01 0.37090543D+06 0.37090543D+06 0.37090543D+06 0.10777999D+01  1  2 12  3  6  4        1 0.246804462428D-05 0.100000000000D+01
-.335041972817D-03 0.000000000000D+00 0.000000000000D+00 0.630151124405D-06 0.000000000000D+00  6 1 2 25 1 2 21 2 0.17015539D+00 0.87708121D-01 0.33439427D+06 0.33439427D+06 0.33439427D+06 0.10810816D+01  1  2  4  3  6  4        1 -.367043173743D-02 0.100000000000D+01
-.197430511633D-02 0.000000000000D+00 0.000000000000D+00 0.630151124405D-06 0.000000000000D+00  6 1 2 25 1 2 21 2 0.17015539D+00 0.87708121D-01 0.33439427D+06 0.33439427D+06 0.33439427D+06 0.10810816D+01  1  2  5  3  6  4        1 -.216287890661D-01 0.100000000000D+01
0.388857077801D-02 0.000000000000D+00 -.000000000000D+00 0.630151124405D-06 0.000000000000D+00  6 1 2 25 1 2 21 2 0.17015539D+00 0.87708121D-01 0.33439427D+06 0.33439427D+06 0.33439427D+06 0.10810816D+01  1  2  6  3  6  4        1 0.425998374975D-01 0.100000000000D+01
  </mgrwgt>
  </event>
  <event>
  5     66 0.17698235E-05 0.46547758E+02 0.75467711E-02 0.95153956E-01
        1 -1    0    0  501    0 0.00000000E+00 0.00000000E+00 0.15241870E+04 0.15241871E+04 0.32000000E+00 0.0000E+00 0.9000E+01
        2 -1    0    0  502    0 0.00000000E+00 0.00000000E+00 -.21483412E+04 0.21483412E+04 0.32000000E+00 0.0000E+00 0.9000E+01
       25  1    1    2    0    0 -.19220178E+03 0.41218169E+03 -.19786779E+03 0.51148014E+03 0.12500000E+03 0.0000E+00 0.9000E+01
        1  1    1    2  501    0 0.22161002E+03 -.37610399E+03 0.13322238E+04 0.14019221E+04 0.32000000E+00 0.0000E+00 0.9000E+01
        2  1    1    2  502    0 -.29408234E+02 -.36077701E+02 -.17585101E+04 0.17591261E+04 0.32000000E+00 0.0000E+00 0.9000E+01
#aMCatNLO 1  0  0  1  5 0.14830231D+03 0.00000000D+00  -5  6  0 0.00000000D+00 0.00000000D+00 0.00000000D+00 0.00000000D+00 0.00000000D+00
  <mgrwgt>
 0.2799398103D-01    3    2    0
 0.180955073798195D+04 0.000000000000000D+00 0.000000000000000D+00 0.180955073798195D+04
 0.180955073798195D+04 0.000000000000000D+00 0.000000000000000D+00 -.180955073798195D+04
 0.484892026853181D+03 -.192197841342562D+03 0.412179881516895D+03 -.112530052704885D+03
 0.165235728563293D+04 0.221607695867007D+03 -.376100050136347D+03 0.159365095952790D+04
 0.148185216347779D+04 -.294098545244448D+02 -.360798313805479D+02 -.148112090682301D+04
 0.000000000000000D+00 -.000000000000000D+00 0.000000000000000D+00 -.000000000000000D+00
 0.260839310239282D+04 0.000000000000000D+00 0.000000000000000D+00 0.260839310239282D+04
 0.284112093483140D+04 0.000000000000000D+00 0.000000000000000D+00 -.284112093483140D+04
 0.383917376868634D+03 -.322877405730077D+02 0.343601573495551D+03 -.112530052704885D+03
 0.193727870927274D+04 0.882303875273441D+03 -.659443165310507D+03 0.159365095952790D+04
 0.160034042145216D+04 0.537888018560197D+03 -.279368579827505D+03 -.148112090682301D+04
 0.152797752963069D+04 -.138790415326063D+04 0.595210171642461D+03 -.232727832438575D+03
0.641024761951D-01 0.000000000000D+00 0.000000000000D+00 0.803197750773D-03 0.000000000000D+00  6 1 2 25 1 2 21 0 0.23449032D+00 0.33051403D+00 0.22787958D+06 0.22787958D+06 0.22787958D+06 0.10934989D+01  1  2  2  1  6  1        1 0.352561984439D-01 0.100000000000D+01
0.321326573900D-01 0.000000000000D+00 -.246170387159D-03 0.803197750773D-03 0.000000000000D+00  6 1 2 25 1 2 21 2 0.23449032D+00 0.33051403D+00 0.22787958D+06 0.22787958D+06 0.22787958D+06 0.10934989D+01  1  2  3  1  6  1        1 0.211321667902D-01 0.100000000000D+01
-.431752705894D-01 0.000000000000D+00 0.000000000000D+00 0.803197750773D-03 0.000000000000D+00  6 1 2 25 1 2 21 2 0.23449032D+00 0.33051403D+00 0.22787958D+06 0.22787958D+06 0.22787958D+06 0.10934989D+01  1  2 15  1  6  1        1 -.283943842003D-01 0.100000000000D+01
  </mgrwgt>
  </event>
  <event>
  5     66 0.17698235E-05 0.33862949E+02 0.75467711E-02 0.91256431E-01
        1 -1    0    0  501    0 0.00000000E+00 0.00000000E+00 0.28701935E+04 0.28701935E+04 0.32000000E+00 0.0000E+00 0.9000E+01
        2 -1    0    0  502    0 0.00000000E+00 0.00000000E+00 -.30616968E+04 0.30616968E+04 0.32000000E+00 0.0000E+00 0.9000E+01
       25  1    1    2    0    0 -.31050610E+03 -.56618757E+03 -.56088936E+03 0.86440979E+03 0.12500000E+03 0.0000E+00 0.9000E+01
        1  1    1    2  501    0 0.24678204E+02 0.23188314E+02 0.26782501E+04 0.26784642E+04 0.32000000E+00 0.0000E+00 0.9000E+01
        2  1    1    2  502    0 0.28582790E+03 0.54299925E+03 -.23088640E+04 0.23890163E+04 0.32000000E+00 0.0000E+00 0.9000E+01
#aMCatNLO 1  0  0  1  5 0.56564404D+02 0.00000000D+00  -5  6  0 0.00000000D+00 0.00000000D+00 0.00000000D+00 0.00000000D+00 0.00000000D+00
  <mgrwgt>
 0.1090132428D+00    7    2    0
 0.296439915511521D+04 0.000000000000000D+00 0.000000000000000D+00 0.296439915511521D+04
 0.296439915511521D+04 0.000000000000000D+00 0.000000000000000D+00 -.296439915511521D+04
 0.846752034218003D+03 -.310517131140910D+03 -.566208429778393D+03 -.533245846461303D+03
 0.276635503255377D+04 0.246780711721531D+02 0.231881891414058D+02 0.276614776662837D+04
 0.231569124345864D+04 0.285839059968757D+03 0.543020240636988D+03 -.223290192016707D+04
 0.000000000000000D+00 -.000000000000000D+00 -.000000000000000D+00 0.000000000000000D+00
 0.454123390744965D+04 0.000000000000000D+00 0.000000000000000D+00 0.454123390744965D+04
 0.296462997843123D+04 0.000000000000000D+00 0.000000000000000D+00 -.296462997843123D+04
 0.843253948137424D+03 -.309620241618028D+03 -.561459165266287D+03 -.533245846461303D+03
 0.276655680625831D+04 0.276143984461802D+02 0.387368097492808D+02 0.276614776662837D+04
 0.231908453873548D+04 0.288298744658253D+03 0.556044914143330D+03 -.223290192016707D+04
 0.157696859274966D+04 -.629290148640498D+01 -.333225586263238D+02 0.157660392901843D+04
0.484729882715D-02 0.000000000000D+00 0.000000000000D+00 0.145520458117D-02 0.000000000000D+00  6 1 2 25 1 2 21 0 0.44156824D+00 0.47103027D+00 0.42593382D+06 0.42593382D+06 0.42593382D+06 0.10734664D+01  1  2  2  1  6  1        1 0.862535646271D-04 0.100000000000D+01
0.392549689221D-02 0.000000000000D+00 -.186149038194D-04 0.145520458117D-02 0.000000000000D+00  6 1 2 25 1 2 21 2 0.44156824D+00 0.47103027D+00 0.42593382D+06 0.42593382D+06 0.42593382D+06 0.10734664D+01  1  2  3  1  6  1        1 0.804912730459D-04 0.100000000000D+01
-.319404527729D-02 0.000000000000D+00 0.000000000000D+00 0.145520458117D-02 0.000000000000D+00  6 1 2 25 1 2 21 2 0.44156824D+00 0.47103027D+00 0.42593382D+06 0.42593382D+06 0.42593382D+06 0.10734664D+01  1  2 15  1  6  1        1 -.654930516046D-04 0.100000000000D+01
-.469939833414D+00 0.000000000000D+00 0.000000000000D+00 0.145520458117D-02 0.000000000000D+00  6 1 2 25 1 2 21 2 0.44156824D+00 0.47103027D+00 0.42593382D+06 0.42593382D+06 0.42593382D+06 0.10734664D+01  1  2  4  1  6  1        1 -.963599169358D-02 0.100000000000D+01
-.666395936152D+01 0.000000000000D+00 -.236213157898D-02 0.145520458117D-02 0.000000000000D+00  6 1 2 25 1 2 21 2 0.67645567D+00 0.47103027D+00 0.42593382D+06 0.42593382D+06 0.42593382D+06 0.10734664D+01  1  2  5  1  6  1        1 -.654584812573D-02 0.100000000000D+01
0.610165835340D+01 0.000000000000D+00 0.216242454964D-02 0.145520458117D-02 0.000000000000D+00  6 1 2 25 1 2 21 2 0.44156824D+00 0.47103027D+00 0.42593382D+06 0.42593382D+06 0.42593382D+06 0.10734664D+01  1  2  6  1  6  1        1 0.125112886863D+00 0.100000000000D+01
-.332542854687D+00 0.000000000000D+00 -.117905488138D-03 0.145520458117D-02 0.000000000000D+00  6 21 2 25 1 2 -1 2 0.67645567D+00 0.47103027D+00 0.42593382D+06 0.42593382D+06 0.42593382D+06 0.10734664D+01  1  2  5  5  6  1        1 -.190560470359D-04 0.100000000000D+01
  </mgrwgt>
  </event>
  <event>
  5     66 -.17698235E-05 0.11666093E+03 0.75467711E-02 0.94118467E-01
        1 -1    0    0  501    0 0.00000000E+00 0.00000000E+00 0.67494370E+03 0.67494378E+03 0.32000000E+00 0.0000E+00 0.9000E+01
        2 -1    0    0  502    0 0.00000000E+00 0.00000000E+00 -.12287588E+04 0.12287589E+04 0.32000000E+00 0.0000E+00 0.9000E+01
       25  1    1    2    0    0 0.43886678E+03 0.25083146E+03 -.43250801E+03 0.67691110E+03 0.12500000E+03 0.0000E+00 0.9000E+01
        1  1    1    2  501    0 -.32496785E+03 -.22565789E+03 0.47557084E+03 0.61862210E+03 0.32000000E+00 0.0000E+00 0.9000E+01
        2  1    1    2  502    0 -.11389893E+03 -.25173568E+02 -.59687797E+03 0.60816945E+03 0.32000000E+00 0.0000E+00 0.9000E+01
#aMCatNLO 1  0  0  1  4 0.20269803D+02 0.00000000D+00  -5  6  0 0.00000000D+00 0.00000000D+00 0.00000000D+00 0.00000000D+00 0.00000000D+00
  <mgrwgt>
 -.1216057779D-01   11    2    0
 0.910682796241537D+03 0.000000000000000D+00 0.000000000000000D+00 0.910682796241537D+03
 0.910682796241537D+03 0.000000000000000D+00 0.000000000000000D+00 -.910682796241537D+03
 0.575975616350721D+03 0.438870755066105D+03 0.250828997904411D+03 -.246171047827663D+03
 0.791171034830112D+03 -.324959037339734D+03 -.225651770856697D+03 0.685152909002524D+03
 0.454218941302241D+03 -.113911717726371D+03 -.251772270477142D+02 -.438981861174860D+03
 0.000000000000000D+00 -.000000000000000D+00 -.000000000000000D+00 0.000000000000000D+00
 0.999713480598972D+03 0.000000000000000D+00 0.000000000000000D+00 0.999713480598972D+03
 0.911893638114452D+03 0.000000000000000D+00 0.000000000000000D+00 -.911893638114452D+03
 0.581634682844805D+03 0.444371979640727D+03 0.254179588499135D+03 -.246171047827663D+03
 0.786825080318674D+03 -.317460044791596D+03 -.221084414341639D+03 0.685152909002524D+03
 0.453018616177876D+03 -.109600320747873D+03 -.225513160400238D+02 -.438981861174860D+03
 0.901287393720676D+02 -.173116141012575D+02 -.105438581174719D+02 0.878198424845196D+02
0.135251978957D-04 0.000000000000D+00 0.000000000000D+00 0.293195886739D-05 0.000000000000D+00  6 1 2 25 1 2 21 0 0.10383750D+00 0.18903983D+00 0.26677319D+06 0.26677319D+06 0.26677319D+06 0.10883438D+01  1  2  2  1  6  1        1 0.104069022701D-03 0.100000000000D+01
0.193348813902D-05 0.000000000000D+00 -.519403211857D-07 0.293195886739D-05 0.000000000000D+00  6 1 2 25 1 2 21 2 0.10383750D+00 0.18903983D+00 0.26677319D+06 0.26677319D+06 0.26677319D+06 0.10883438D+01  1  2  3  1  6  1        1 0.176218527598D-04 0.100000000000D+01
-.875672489515D-05 0.000000000000D+00 0.000000000000D+00 0.293195886739D-05 0.000000000000D+00  6 1 2 25 1 2 21 2 0.10383750D+00 0.18903983D+00 0.26677319D+06 0.26677319D+06 0.26677319D+06 0.10883438D+01  1  2 15  1  6  1        1 -.798089802812D-04 0.100000000000D+01
0.119031598304D-02 0.000000000000D+00 0.000000000000D+00 0.293195886739D-05 0.000000000000D+00  6 1 2 25 1 2 21 2 0.11520988D+00 0.18903983D+00 0.27352666D+06 0.27352666D+06 0.27352666D+06 0.10875328D+01  1  2 12  1  6  1        1 0.922733661353D-02 0.100000000000D+01
0.119904158806D-07 0.000000000000D+00 0.000000000000D+00 0.293195886739D-05 0.000000000000D+00  6 1 2 25 1 2 21 2 0.11412900D+00 0.18903983D+00 0.27352666D+06 0.27352666D+06 0.27352666D+06 0.10875328D+01  1  2 12  1  6  1        1 0.943222206716D-07 0.100000000000D+01
-.253675409810D-02 0.000000000000D+00 0.000000000000D+00 0.293195886739D-05 0.000000000000D+00  6 1 2 25 1 2 21 2 0.10383750D+00 0.18903983D+00 0.26677319D+06 0.26677319D+06 0.26677319D+06 0.10883438D+01  1  2  4  1  6  1        1 -.231200317719D-01 0.100000000000D+01
-.143974519166D-02 0.000000000000D+00 -.376955908232D-04 0.293195886739D-05 0.000000000000D+00  6 1 2 25 1 2 21 2 0.11405529D+00 0.18903983D+00 0.26677319D+06 0.26677319D+06 0.26677319D+06 0.10883438D+01  1  2  5  1  6  1        1 -.113682259100D-01 0.100000000000D+01
0.143711417970D-02 0.000000000000D+00 0.375301683689D-04 0.293195886739D-05 0.000000000000D+00  6 1 2 25 1 2 21 2 0.10383750D+00 0.18903983D+00 0.26677319D+06 0.26677319D+06 0.26677319D+06 0.10883438D+01  1  2  6  1  6  1        1 0.130978897479D-01 0.100000000000D+01
0.202184580641D-04 0.000000000000D+00 0.000000000000D+00 0.293195886739D-05 0.000000000000D+00  6 21 2 25 1 2 -1 2 0.11520988D+00 0.18903983D+00 0.27352666D+06 0.27352666D+06 0.27352666D+06 0.10875328D+01  1  2 12  5  6  1        1 0.295392752402D-03 0.100000000000D+01
0.187588740946D-09 0.000000000000D+00 0.000000000000D+00 0.293195886739D-05 0.000000000000D+00  6 21 2 25 1 2 -1 2 0.11412900D+00 0.18903983D+00 0.27352666D+06 0.27352666D+06 0.27352666D+06 0.10875328D+01  1  2 12  5  6  1        1 0.281113385591D-08 0.100000000000D+01
-.222288363966D-04 0.000000000000D+00 -.579491358759D-06 0.293195886739D-05 0.000000000000D+00  6 21 2 25 1 2 -1 2 0.11405529D+00 0.18903983D+00 0.26677319D+06 0.26677319D+06 0.26677319D+06 0.10883438D+01  1  2  5  5  6  1        1 -.334918253196D-03 0.100000000000D+01
  </mgrwgt>
  </event>
  <event>
  5     66 0.17698235E-05 0.18867926E+03 0.75467711E-02 0.90802118E-01
        1 -1    0    0  501    0 0.00000000E+00 0.00000000E+00 0.19991646E+04 0.19991646E+04 0.32000000E+00 0.0000E+00 0.9000E+01
        2 -1    0    0  502    0 0.00000000E+00 0.00000000E+00 -.31031813E+04 0.31031813E+04 0.32000000E+00 0.0000E+00 0.9000E+01
       25  1    1    2    0    0 -.47700845E+03 0.22042249E+03 -.18974478E+03 0.57249561E+03 0.12500000E+03 0.0000E+00 0.9000E+01
        1  1    1    2  501    0 0.48333841E+03 -.31858435E+02 0.17719737E+04 0.18369872E+04 0.32000000E+00 0.0000E+00 0.9000E+01
        2  1    1    2  502    0 -.63299594E+01 -.18856406E+03 -.26862456E+04 0.26928632E+04 0.32000000E+00 0.0000E+00 0.9000E+01
#aMCatNLO 1  0  0  1  4 0.14427015D+03 0.00000000D+00  -5  6  0 0.00000000D+00 0.00000000D+00 0.00000000D+00 0.00000000D+00 0.00000000D+00
  <mgrwgt>
 0.1651479976D-01   11    2    0
 0.249073690576929D+04 0.000000000000000D+00 0.000000000000000D+00 0.249073690576929D+04
 0.249073690576929D+04 0.000000000000000D+00 0.000000000000000D+00 -.249073690576929D+04
 0.544329063486185D+03 -.477004326726037D+03 0.220431209988588D+03 -.674246490784691D+02
 0.227425295239269D+04 0.483334106142175D+03 -.318581510944352D+02 0.222207103655924D+04
 0.216289179565971D+04 -.632977941613763D+01 -.188573058894153D+03 -.215464638748077D+04
 0.000000000000000D+00 -.000000000000000D+00 0.000000000000000D+00 0.000000000000000D+00
 0.365836047724099D+04 0.000000000000000D+00 0.000000000000000D+00 0.365836047724099D+04
 0.249624170179730D+04 0.000000000000000D+00 0.000000000000000D+00 -.249624170179730D+04
 0.530364945048565D+03 -.461476730004387D+03 0.219442747197238D+03 -.674246490784691D+02
 0.228923486996820D+04 0.549269151826847D+03 -.360554741234628D+02 0.222207103655924D+04
 0.216396268703714D+04 0.561862958080874D+02 -.192552735551661D+03 -.215464638748077D+04
 0.117103967698439D+04 -.143978717630548D+03 0.916546247788586D+01 0.116211877544369D+04
0.705332598012D-02 0.000000000000D+00 0.000000000000D+00 0.102623202414D-03 0.000000000000D+00  6 1 2 25 1 2 21 0 0.30756379D+00 0.47741251D+00 0.36796309D+06 0.36796309D+06 0.36796309D+06 0.10780511D+01  1  2  2  1  6  1        1 0.483174551502D-03 0.100000000000D+01
0.126277379613D-02 0.000000000000D+00 -.270866289470D-04 0.102623202414D-03 0.000000000000D+00  6 1 2 25 1 2 21 2 0.30756379D+00 0.47741251D+00 0.36796309D+06 0.36796309D+06 0.36796309D+06 0.10780511D+01  1  2  3  1  6  1        1 0.100534313478D-03 0.100000000000D+01
-.513673508740D-02 0.000000000000D+00 0.000000000000D+00 0.102623202414D-03 0.000000000000D+00  6 1 2 25 1 2 21 2 0.30756379D+00 0.47741251D+00 0.36796309D+06 0.36796309D+06 0.36796309D+06 0.10780511D+01  1  2 15  1  6  1        1 -.408955378322D-03 0.100000000000D+01
0.306258280955D+00 0.000000000000D+00 0.000000000000D+00 0.102623202414D-03 0.000000000000D+00  6 1 2 25 1 2 21 2 0.48733582D+00 0.47741251D+00 0.50507025D+06 0.50507025D+06 0.50507025D+06 0.10682009D+01  1  2 12  1  6  1        1 0.341481117724D-02 0.100000000000D+01
0.100627420516D-08 0.000000000000D+00 0.000000000000D+00 0.102623202414D-03 0.000000000000D+00  6 1 2 25 1 2 21 2 0.45202239D+00 0.47741251D+00 0.50507025D+06 0.50507025D+06 0.50507025D+06 0.10682009D+01  1  2 12  1  6  1        1 0.167307653296D-10 0.100000000000D+01
-.123182285294D+00 0.000000000000D+00 0.000000000000D+00 0.102623202414D-03 0.000000000000D+00  6 1 2 25 1 2 21 2 0.30756379D+00 0.47741251D+00 0.36796309D+06 0.36796309D+06 0.36796309D+06 0.10780511D+01  1  2  4  1  6  1        1 -.980701889968D-02 0.100000000000D+01
-.401303960525D+00 0.000000000000D+00 -.455829735619D-02 0.102623202414D-03 0.000000000000D+00  6 1 2 25 1 2 21 2 0.45196838D+00 0.47741251D+00 0.36796309D+06 0.36796309D+06 0.36796309D+06 0.10780511D+01  1  2  5  1  6  1        1 -.709897544251D-02 0.100000000000D+01
0.375232411853D+00 0.000000000000D+00 0.424025788499D-02 0.102623202414D-03 0.000000000000D+00  6 1 2 25 1 2 21 2 0.30756379D+00 0.47741251D+00 0.36796309D+06 0.36796309D+06 0.36796309D+06 0.10780511D+01  1  2  6  1  6  1        1 0.298737058340D-01 0.100000000000D+01
0.161905874064D-01 0.000000000000D+00 0.000000000000D+00 0.102623202414D-03 0.000000000000D+00  6 21 2 25 1 2 -1 2 0.48733582D+00 0.47741251D+00 0.50507025D+06 0.50507025D+06 0.50507025D+06 0.10682009D+01  1  2 12  5  6  1        1 0.331016018647D-04 0.100000000000D+01
0.465824400803D-10 0.000000000000D+00 0.000000000000D+00 0.102623202414D-03 0.000000000000D+00  6 21 2 25 1 2 -1 2 0.45202239D+00 0.47741251D+00 0.50507025D+06 0.50507025D+06 0.50507025D+06 0.10682009D+01  1  2 12  5  6  1        1 0.176728276637D-12 0.100000000000D+01
-.184253586309D-01 0.000000000000D+00 -.210964941999D-03 0.102623202414D-03 0.000000000000D+00  6 21 2 25 1 2 -1 2 0.45196838D+00 0.47741251D+00 0.36796309D+06 0.36796309D+06 0.36796309D+06 0.10780511D+01  1  2  5  5  6  1        1 -.755780137729D-04 0.100000000000D+01
  </mgrwgt>
  </event>
  <event>
  5     66 0.17698235E-05 0.25277175E+02 0.75467711E-02 0.85317050E-01
        1 -1    0    0  501    0 0.00000000E+00 0.00000000E+00 0.54893370E+03 0.54893379E+03 0.32000000E+00 0.0000E+00 0.9000E+01
        2 -1    0    0  502    0 0.00000000E+00 0.00000000E+00 -.11133216E+04 0.11133217E+04 0.32000000E+00 0.0000E+00 0.9000E+01
       25  1    1    2    0    0 0.46788765E+03 0.26253707E+03 0.10657698E+03 0.56109556E+03 0.12500000E+03 0.0000E+00 0.9000E+01
        1  1    1    2  501    0 0.21369385E+02 0.13564200E+02 0.12465048E+03 0.12719467E+03 0.32000000E+00 0.0000E+00 0.9000E+01
        2  1    1    2  502    0 -.48925704E+03 -.27610127E+03 -.79561540E+03 0.97396526E+03 0.32000000E+00 0.0000E+00 0.9000E+01
#aMCatNLO 1  0  0  2  5 0.29603387D+03 0.00000000D+00  -5  6  0 0.00000000D+00 0.00000000D+00 0.00000000D+00 0.00000000D+00 0.00000000D+00
  <mgrwgt>
 0.7293189162D-02    3    2    0
 0.781754363064778D+03 0.000000000000000D+00 0.000000000000000D+00 0.781754363064778D+03
 0.781754363064778D+03 0.000000000000000D+00 0.000000000000000D+00 -.781754363064778D+03
 0.635207877098243D+03 0.468008388143816D+03 0.262606724339220D+03 0.316021999371101D+03
 0.179983731392133D+03 0.213409707402532D+02 0.135461638549368D+02 0.178199910152935D+03
 0.748317117639179D+03 -.489349358884070D+03 -.276152888194157D+03 -.494221909524036D+03
 0.000000000000000D+00 -.000000000000000D+00 -.000000000000000D+00 0.000000000000000D+00
 0.161914905884103D+04 0.000000000000000D+00 0.000000000000000D+00 0.161914905884103D+04
 0.137696200964151D+04 0.000000000000000D+00 0.000000000000000D+00 -.137696200964151D+04
 0.113836818652172D+04 0.957543060710613D+03 0.513321060237353D+03 0.316021999371101D+03
 0.235555819006673D+03 0.136036371696353D+03 0.722872150873293D+02 0.178199910152935D+03
 0.522298505061266D+03 -.138639617376078D+03 -.965375006381625D+02 -.494221909524036D+03
 0.109988855789288D+04 -.954939815030888D+03 -.489070774686520D+03 0.242187049199529D+03
0.864113633898D-03 0.000000000000D+00 0.000000000000D+00 0.210354747177D-05 0.000000000000D+00  6 1 2 25 1 2 21 0 0.84451349D-01 0.17128026D+00 0.32386694D+06 0.32386694D+06 0.32386694D+06 0.10821008D+01  1  2  2  2  6  2        2 0.104224691409D-01 0.100000000000D+01
0.357515820315D-03 0.000000000000D+00 -.331842388051D-05 0.210354747177D-05 0.000000000000D+00  6 1 2 25 1 2 21 2 0.84451349D-01 0.17128026D+00 0.32386694D+06 0.32386694D+06 0.32386694D+06 0.10821008D+01  1  2  3  2  6  2        2 0.504929138135D-02 0.100000000000D+01
-.579084950378D-03 0.000000000000D+00 0.000000000000D+00 0.210354747177D-05 0.000000000000D+00  6 1 2 25 1 2 21 2 0.84451349D-01 0.17128026D+00 0.32386694D+06 0.32386694D+06 0.32386694D+06 0.10821008D+01  1  2 15  2  6  2        2 -.817857136067D-02 0.100000000000D+01
  </mgrwgt>
  </event>
  <event>
  5     66 0.17698235E-05 0.12571205E+03 0.75467711E-02 0.89541603E-01
        1 -1    0    0  501    0 0.00000000E+00 0.00000000E+00 0.22992406E+04 0.22992406E+04 0.32000000E+00 0.0000E+00 0.9000E+01
        2 -1    0    0  502    0 0.00000000E+00 0.00000000E+00 -.14319025E+04 0.14319025E+04 0.32000000E+00 0.0000E+00 0.9000E+01
       25  1    1    2    0    0 -.62149790E+03 0.96066343E+02 -.16091485E+03 0.66106503E+03 0.12500000E+03 0.0000E+00 0.9000E+01
        1  1    1    2  501    0 0.49665638E+03 -.81364166E+02 0.20142134E+04 0.20761366E+04 0.32000000E+00 0.0000E+00 0.9000E+01
        2  1    1    2  502    0 0.12484152E+03 -.14702177E+02 -.98596042E+03 0.99394146E+03 0.32000000E+00 0.0000E+00 0.9000E+01
#aMCatNLO 1  0  0  5  1 0.83074673D+02 0.00000000D+00  -5  6  0 0.00000000D+00 0.00000000D+00 0.00000000D+00 0.00000000D+00 0.00000000D+00
  <mgrwgt>
 0.1019589365D-01    3    2    0
 0.181446642226919D+04 0.000000000000000D+00 0.000000000000000D+00 0.181446642226919D+04
 0.181446642226919D+04 -.000000000000000D+00 -.000000000000000D+00 -.181446642226919D+04
 0.718119126524636D+03 -.621500231371922D+03 0.960663948876864D+02 -.323386440746108D+03
 0.165318392150501D+04 0.496650969427774D+03 -.813632797837827D+02 0.157471740626437D+04
 0.125762979650874D+04 0.124849261944148D+03 -.147031151039037D+02 -.125133096551826D+04
 0.000000000000000D+00 0.000000000000000D+00 0.000000000000000D+00 0.000000000000000D+00
 0.181446642226919D+04 0.000000000000000D+00 0.000000000000000D+00 0.181446642226919D+04
 0.181446642226919D+04 -.000000000000000D+00 -.000000000000000D+00 -.181446642226919D+04
 0.738959414464726D+03 -.616221438559236D+03 0.954447276296988D+02 -.376294377919375D+03
 0.154675456496858D+04 0.508243901317339D+03 -.827285438575121D+02 0.145852453152358D+04
 0.245165828890394D+03 0.100973921211541D+03 -.223359465767457D+03 -.459346740005581D+01
 0.109805303621469D+04 0.700361603035627D+01 0.210643281995270D+03 -.107763668620415D+04
0.483757007356D-01 0.000000000000D+00 0.000000000000D+00 0.471756696795D-04 0.000000000000D+00  6 1 2 25 1 2 21 0 0.35372933D+00 0.22029269D+00 0.40333107D+06 0.40333107D+06 0.40333107D+06 0.10751681D+01  1  2  2  4  6  5        2 0.189404885858D-01 0.100000000000D+01
0.113929833444D-01 0.000000000000D+00 -.185775428439D-03 0.471756696795D-04 0.000000000000D+00  6 1 2 25 1 2 21 2 0.35372933D+00 0.22029269D+00 0.40333107D+06 0.40333107D+06 0.40333107D+06 0.10751681D+01  1  2  3  4  6  5        2 0.515648897641D-02 0.100000000000D+01
-.307136926413D-01 0.000000000000D+00 0.000000000000D+00 0.471756696795D-04 0.000000000000D+00  6 1 2 25 1 2 21 2 0.35372933D+00 0.22029269D+00 0.40333107D+06 0.40333107D+06 0.40333107D+06 0.10751681D+01  1  2 15  4  6  5        2 -.139010839165D-01 0.100000000000D+01
  </mgrwgt>
  </event>
  <event>
  5     66 0.17698235E-05 0.13791874E+02 0.75467711E-02 0.95527586E-01
        1 -1    0    0  501    0 0.00000000E+00 0.00000000E+00 0.52992941E+03 0.52992951E+03 0.32000000E+00 0.0000E+00 0.9000E+01
        2 -1    0    0  502    0 0.00000000E+00 0.00000000E+00 -.11639017E+04 0.11639017E+04 0.32000000E+00 0.0000E+00 0.9000E+01
       25  1    1    2    0    0 -.96363981E+02 0.44321825E+03 -.55225168E+03 0.72548973E+03 0.12500000E+03 0.0000E+00 0.9000E+01
        1  1    1    2  501    0 0.91242086E+02 -.43041245E+03 0.33400050E+03 0.55239156E+03 0.32000000E+00 0.0000E+00 0.9000E+01
        2  1    1    2  502    0 0.51218949E+01 -.12805805E+02 -.41572109E+03 0.41594993E+03 0.32000000E+00 0.0000E+00 0.9000E+01
#aMCatNLO 1  0  0  1  1 0.13183841D+04 0.00000000D+00  -5  6  0 0.00000000D+00 0.00000000D+00 0.00000000D+00 0.00000000D+00 0.00000000D+00
  <mgrwgt>
 0.1118010168D-01    7    2    0
 0.785357145138355D+03 0.000000000000000D+00 0.000000000000000D+00 0.785357145138355D+03
 0.785357145138355D+03 0.000000000000000D+00 0.000000000000000D+00 -.785357145138355D+03
 0.559465906284961D+03 -.963642802045729D+02 0.443220078223768D+03 -.302732535508201D+03
 0.730502322504201D+03 0.912425173006397D+02 -.430414480683360D+03 0.583139623965606D+03
 0.280746061487547D+03 0.512176290393316D+01 -.128055975404077D+02 -.280407088457405D+03
 0.000000000000000D+00 -.000000000000000D+00 0.000000000000000D+00 0.000000000000000D+00
 0.840954237826080D+03 0.000000000000000D+00 0.000000000000000D+00 0.840954237826080D+03
 0.820525238839139D+03 0.000000000000000D+00 0.000000000000000D+00 -.820525238839139D+03
 0.538317532154820D+03 -.770580013592074D+02 0.420209283329814D+03 -.302732535508201D+03
 0.752866107946709D+03 0.117329925386700D+03 -.461507577472818D+03 0.583139623965606D+03
 0.281884267890709D+03 0.150165177758726D+02 -.245989719502466D+02 -.280407088457405D+03
 0.884115686729810D+02 -.552884418033655D+02 0.658972660932505D+02 0.204289989869412D+02
0.376991520974D-03 0.000000000000D+00 0.000000000000D+00 0.148840476803D-04 0.000000000000D+00  6 1 2 25 1 2 21 0 0.81527612D-01 0.17906181D+00 0.21356189D+06 0.21356189D+06 0.21356189D+06 0.10956437D+01  1  2  2  1  6  1        1 0.454104275488D-02 0.100000000000D+01
0.256238802022D-03 0.000000000000D+00 -.144774670469D-05 0.148840476803D-04 0.000000000000D+00  6 1 2 25 1 2 21 2 0.81527612D-01 0.17906181D+00 0.21356189D+06 0.21356189D+06 0.21356189D+06 0.10956437D+01  1  2  3  1  6  1        1 0.370516517155D-02 0.100000000000D+01
-.248194836430D-03 0.000000000000D+00 0.000000000000D+00 0.148840476803D-04 0.000000000000D+00  6 1 2 25 1 2 21 2 0.81527612D-01 0.17906181D+00 0.21356189D+06 0.21356189D+06 0.21356189D+06 0.10956437D+01  1  2 15  1  6  1        1 -.358885093298D-02 0.100000000000D+01
-.435895559902D-04 0.000000000000D+00 0.000000000000D+00 0.148840476803D-04 0.000000000000D+00  6 1 2 25 1 2 21 2 0.81527612D-01 0.17906181D+00 0.21356189D+06 0.21356189D+06 0.21356189D+06 0.10956437D+01  1  2  4  1  6  1        1 -.630296830238D-03 0.100000000000D+01
-.390969446068D-02 0.000000000000D+00 -.969958431095D-03 0.148840476803D-04 0.000000000000D+00  6 1 2 25 1 2 21 2 0.90542787D-01 0.17906181D+00 0.21356189D+06 0.21356189D+06 0.21356189D+06 0.10956437D+01  1  2  5  1  6  1        1 -.486730913626D-01 0.100000000000D+01
0.399474367185D-02 0.000000000000D+00 0.964648014069D-03 0.148840476803D-04 0.000000000000D+00  6 1 2 25 1 2 21 2 0.81527612D-01 0.17906181D+00 0.21356189D+06 0.21356189D+06 0.21356189D+06 0.10956437D+01  1  2  6  1  6  1        1 0.577632466490D-01 0.100000000000D+01
-.626656956290D-04 0.000000000000D+00 -.164141902219D-04 0.148840476803D-04 0.000000000000D+00  6 21 2 25 1 2 -1 2 0.90542787D-01 0.17906181D+00 0.21356189D+06 0.21356189D+06 0.21356189D+06 0.10956437D+01  1  2  5  5  6  1        1 -.193711376808D-02 0.100000000000D+01
  </mgrwgt>
  </event>
  <event>
  6     66 0.17698235E-05 0.90126764E+02 0.75467711E-02 0.91036773E-01
        1 -1    0    0  501    0 0.00000000E+00 0.00000000E+00 0.99078644E+03 0.99078649E+03 0.32000000E+00 0.0000E+00 0.9000E+01
        2 -1    0    0  502    0 -.00000000E+00 -.00000000E+00 -.18651394E+04 0.18651394E+04 0.32000000E+00 0.0000E+00 0.9000E+01
       25  1    1    2    0    0 0.18020778E+02 -.59645454E+03 -.17014291E+03 0.63297423E+03 0.12500000E+03 0.0000E+00 0.9000E+01
        1  1    1    2  501    0 0.11629074E+02 0.67753705E+03 0.60563166E+03 0.90883525E+03 0.32000000E+00 0.0000E+00 0.9000E+01
        2  1    1    2  503    0 0.42723708E+00 0.84210227E+01 -.47150853E+02 0.47899911E+02 0.32000000E+00 0.0000E+00 0.9000E+01
       21  1    1    2  502  503 -.30077089E+02 -.89503532E+02 -.12626909E+04 0.12662165E+04 0.75000000E+00 0.0000E+00 0.9000E+01
#aMCatNLO 2  0  0  5  1 0.11165888D+02 0.00000000D+00  -5  6  0 0.00000000D+00 0.00000000D+00 0.00000000D+00 0.00000000D+00 0.00000000D+00
  <mgrwgt>
 0.6893418017D-03    2    2    0
 0.135939506344110D+04 0.000000000000000D+00 0.000000000000000D+00 0.135939506344110D+04
 0.135939506344110D+04 -.000000000000000D+00 -.000000000000000D+00 -.135939506344110D+04
 0.610162222040411D+03 0.180350119487761D+02 -.596412562327039D+03 0.252929050880926D+02
 0.115014894951540D+04 0.116547311395500D+02 0.677603415182065D+03 0.929279497808402D+03
 0.958478955326388D+03 -.296897430883259D+02 -.811908528550259D+02 -.954572402896494D+03
 0.000000000000000D+00 0.000000000000000D+00 -.000000000000000D+00 0.000000000000000D+00
 0.135939506344110D+04 0.000000000000000D+00 0.000000000000000D+00 0.135939506344110D+04
 0.135939506344110D+04 -.000000000000000D+00 -.000000000000000D+00 -.135939506344110D+04
 0.610179800846381D+03 0.180217150887254D+02 -.596448924494424D+03 0.248653899151991D+02
 0.114945750144540D+04 0.116296746024672D+02 0.677534894494321D+03 0.928473890338502D+03
 0.347174122497710D+02 0.412234504830821D+00 0.824559950743041D+01 -.337214896586252D+02
 0.924435412340641D+03 -.300636241960233D+02 -.893315695073272D+02 -.919617790595076D+03
-.298043387712D-09 0.000000000000D+00 0.000000000000D+00 0.846310108279D-05 0.000000000000D+00  6 1 2 25 1 2 21 2 0.15242869D+00 0.28694453D+00 0.48289869D+06 0.48289869D+06 0.48289869D+06 0.10695802D+01  1  2 13  4  6  5        2 -.603441417586D-09 0.100000000000D+01
0.340470408127D-03 0.000000000000D+00 0.000000000000D+00 0.846310108279D-05 0.495568722247D-08  6 1 2 25 1 2 21 2 0.15242869D+00 0.28694453D+00 0.48289869D+06 0.48289869D+06 0.48289869D+06 0.10695802D+01  1  2  1  4  6  5        2 0.689342405156D-03 0.100000000000D+01
  </mgrwgt>
  </event>
  <event>
  5     66 0.17698235E-05 0.11463731E+02 0.75467711E-02 0.90295930E-01
        1 -1    0    0  501    0 0.00000000E+00 0.00000000E+00 0.18020267E+04 0.18020267E+04 0.32000000E+00 0.0000E+00 0.9000E+01
        2 -1    0    0  502    0 0.00000000E+00 0.00000000E+00 -.24545619E+04 0.24545619E+04 0.32000000E+00 0.0000E+00 0.9000E+01
       25  1    1    2    0    0 -.30847655E+02 -.69854372E+03 0.95299318E+03 0.11885857E+04 0.12500000E+03 0.0000E+00 0.9000E+01
        1  1    1    2  501    0 -.10641693E+02 0.42704038E+01 0.67943497E+03 0.67953180E+03 0.32000000E+00 0.0000E+00 0.9000E+01
        2  1    1    2  502    0 0.41489347E+02 0.69427331E+03 -.22849634E+04 0.23884712E+04 0.32000000E+00 0.0000E+00 0.9000E+01
#aMCatNLO 1  0  0  2  5 0.74829477D+02 0.00000000D+00  -5  6  0 0.00000000D+00 0.00000000D+00 0.00000000D+00 0.00000000D+00 0.00000000D+00
  <mgrwgt>
 0.2840324415D-02    7    2    0
 0.210313721585863D+04 0.000000000000000D+00 0.000000000000000D+00 0.210313721585863D+04
 0.210313721585863D+04 0.000000000000000D+00 0.000000000000000D+00 -.210313721585863D+04
 0.135083046556130D+04 -.308532289731342D+02 -.698594722548822D+03 0.114896972918237D+04
 0.792867798286659D+03 -.106390679739832D+02 0.426935052274543D+01 0.792784919406703D+03
 0.206257616786930D+04 0.414922969471174D+02 0.694325372026076D+03 -.194175464858908D+04
 0.000000000000000D+00 -.000000000000000D+00 -.000000000000000D+00 -.000000000000000D+00
 0.212301516226840D+04 0.000000000000000D+00 0.000000000000000D+00 0.212301516226840D+04
 0.217509191939340D+04 0.000000000000000D+00 0.000000000000000D+00 -.217509191939340D+04
 0.134856542279238D+04 -.713733465768489D+01 -.694853451763575D+03 0.114896972918237D+04
 0.792818131561531D+03 0.329218238170657D+01 0.646705722798005D+01 0.792784919406703D+03
 0.206555643162415D+04 0.777605438064016D+02 0.700046823243641D+03 -.194175464858908D+04
 0.911670956837354D+02 -.739153915304232D+02 -.116604287080455D+02 -.520767571249996D+02
0.259913209625D-02 0.000000000000D+00 0.000000000000D+00 0.209543154595D-03 0.000000000000D+00  6 1 2 25 1 2 21 0 0.27723488D+00 0.37762491D+00 0.50224711D+06 0.50224711D+06 0.50224711D+06 0.10683728D+01  1  2  2  2  6  2        2 0.580396367145D-03 0.100000000000D+01
0.250405152584D-02 0.000000000000D+00 -.998135161681D-05 0.209543154595D-03 0.000000000000D+00  6 1 2 25 1 2 21 2 0.27723488D+00 0.37762491D+00 0.50224711D+06 0.50224711D+06 0.50224711D+06 0.10683728D+01  1  2  3  2  6  2        2 0.638241779972D-03 0.100000000000D+01
-.152078400745D-02 0.000000000000D+00 0.000000000000D+00 0.209543154595D-03 0.000000000000D+00  6 1 2 25 1 2 21 2 0.27723488D+00 0.37762491D+00 0.50224711D+06 0.50224711D+06 0.50224711D+06 0.10683728D+01  1  2 15  2  6  2        2 -.387622970956D-03 0.100000000000D+01
-.386150256244D-03 0.000000000000D+00 0.000000000000D+00 0.209543154595D-03 0.000000000000D+00  6 1 2 25 1 2 21 2 0.27723488D+00 0.37762491D+00 0.50224711D+06 0.50224711D+06 0.50224711D+06 0.10683728D+01  1  2  4  2  6  2        2 -.984233847981D-04 0.100000000000D+01
-.679964528171D-01 0.000000000000D+00 -.112998915444D-01 0.209543154595D-03 0.000000000000D+00  6 1 2 25 1 2 21 2 0.27723488D+00 0.39182337D+00 0.50224711D+06 0.50224711D+06 0.50224711D+06 0.10683728D+01  1  2  5  2  6  2        2 -.153091433203D-01 0.100000000000D+01
0.683746419159D-01 0.000000000000D+00 0.112921988273D-01 0.209543154595D-03 0.000000000000D+00  6 1 2 25 1 2 21 2 0.27723488D+00 0.37762491D+00 0.50224711D+06 0.50224711D+06 0.50224711D+06 0.10683728D+01  1  2  6  2  6  2        2 0.174275779516D-01 0.100000000000D+01
-.440070651351D-03 0.000000000000D+00 -.740481815505D-04 0.209543154595D-03 0.000000000000D+00  6 1 21 25 1 2 -2 2 0.27723488D+00 0.39182337D+00 0.50224711D+06 0.50224711D+06 0.50224711D+06 0.10683728D+01  1  2  5  6  6  2        2 -.107020078872D-04 0.100000000000D+01
  </mgrwgt>
  </event>
  <event>
  6     66 -.17698235E-05 0.84560556E+02 0.75467711E-02 0.95035604E-01
        1 -1    0    0  501    0 0.00000000E+00 0.00000000E+00 0.27593587E+04 0.27593587E+04 0.32000000E+00 0.0000E+00 0.9000E+01
        2 -1    0    0  502    0 0.00000000E+00 0.00000000E+00 -.61948481E+03 0.61948489E+03 0.32000000E+00 0.0000E+00 0.9000E+01
       25  1    1    2    0    0 -.37442572E+03 -.27690308E+03 0.78819492E+02 0.48857696E+03 0.12500000E+03 0.0000E+00 0.9000E+01
        1  1    1    2  501    0 0.30516270E+02 0.81191299E+02 0.23801850E+04 0.23817649E+04 0.32000000E+00 0.0000E+00 0.9000E+01
        2  1    1    2  503    0 0.30398354E+03 0.17502606E+03 -.28717758E+03 0.45333340E+03 0.32000000E+00 0.0000E+00 0.9000E+01
       21  1    1    2  502  503 0.39925917E+02 0.20685720E+02 -.31953085E+02 0.55168288E+02 0.75000000E+00 0.0000E+00 0.9000E+01
#aMCatNLO 2  0  0  5  2 0.37514715D+01 0.00000000D+00  -5  6  0 0.00000000D+00 0.00000000D+00 0.00000000D+00 0.00000000D+00 0.00000000D+00
  <mgrwgt>
 -.2849966386D-03    6    2    0
 0.130743296174593D+04 0.000000000000000D+00 0.000000000000000D+00 0.130743296174593D+04
 0.130743296174593D+04 -.000000000000000D+00 -.000000000000000D+00 -.130743296174593D+04
 0.566819093406425D+03 -.374431242674473D+03 -.276906299877883D+03 -.297964813773828D+03
 0.112984808491942D+04 0.305029520179266D+02 0.811838153168801D+02 0.112651473716275D+04
 0.918198745166020D+03 0.343928290656546D+03 0.195722484561003D+03 -.828549923388922D+03
 0.000000000000000D+00 0.000000000000000D+00 0.000000000000000D+00 0.000000000000000D+00
 0.130743296174593D+04 0.000000000000000D+00 0.000000000000000D+00 0.130743296174593D+04
 0.130743296174593D+04 -.000000000000000D+00 -.000000000000000D+00 -.130743296174593D+04
 0.566821291025665D+03 -.374424539526359D+03 -.276902485254780D+03 -.297980962177455D+03
 0.112981689876150D+04 0.305163132824701D+02 0.811914189364845D+02 0.112648254884032D+04
 0.823107230166721D+03 0.304836894900801D+03 0.175518954499901D+03 -.744159308529586D+03
 0.951205035379784D+02 0.390713313430881D+02 0.201921118183946D+02 -.843422781332745D+02
-.273946040762D-02 0.000000000000D+00 0.000000000000D+00 0.583091547554D-04 0.000000000000D+00  6 1 2 25 1 2 21 2 0.42451673D+00 0.95305363D-01 0.23263727D+06 0.23263727D+06 0.23263727D+06 0.10928187D+01  1  2 13  4  6  5        2 -.211819681298D-02 0.100000000000D+01
-.215661649857D-09 0.000000000000D+00 0.000000000000D+00 0.583091547554D-04 0.000000000000D+00  6 1 2 25 1 2 21 2 0.42451673D+00 0.95305363D-01 0.23263727D+06 0.23263727D+06 0.23263727D+06 0.10928187D+01  1  2 13  4  6  5        2 -.166753211011D-09 0.100000000000D+01
-.361934319836D-03 0.000000000000D+00 0.000000000000D+00 0.583091547554D-04 0.000000000000D+00  6 1 2 25 1 2 21 2 0.42451673D+00 0.95305363D-01 0.23262683D+06 0.23262683D+06 0.23262683D+06 0.10928201D+01  1  2  8  4  6  5        2 -.279855437608D-03 0.100000000000D+01
-.385316961891D-03 0.000000000000D+00 0.000000000000D+00 0.583091547554D-04 0.000000000000D+00  6 1 2 25 1 2 21 2 0.42451673D+00 0.95305363D-01 0.23262683D+06 0.23262683D+06 0.23262683D+06 0.10928201D+01  1  2  9  4  6  5        2 -.297935401751D-03 0.100000000000D+01
0.427289028888D-03 0.000000000000D+00 0.000000000000D+00 0.583091547554D-04 0.000000000000D+00  6 1 2 25 1 2 21 2 0.42451673D+00 0.95305363D-01 0.23262683D+06 0.23262683D+06 0.23262683D+06 0.10928201D+01  1  2 10  4  6  5        2 0.330389110982D-03 0.100000000000D+01
0.269083918858D-02 0.000000000000D+00 0.000000000000D+00 0.583091547554D-04 0.183241233217D-04  6 1 2 25 1 2 21 2 0.42451673D+00 0.95305363D-01 0.23263727D+06 0.23263727D+06 0.23263727D+06 0.10928187D+01  1  2  1  4  6  5        2 0.208060206953D-02 0.100000000000D+01
  </mgrwgt>
  </event>
  <event>
  5     66 0.17698235E-05 0.52196730E+02 0.75467711E-02 0.92023128E-01
        1 -1    0    0  501    0 0.00000000E+00 0.00000000E+00 0.45113514E+03 0.45113525E+03 0.32000000E+00 0.0000E+00 0.9000E+01
        2 -1    0    0  502    0 0.00000000E+00 0.00000000E+00 -.16266337E+04 0.16266338E+04 0.32000000E+00 0.0000E+00 0.9000E+01
       25  1    1    2    0    0 0.31817998E+03 -.38569517E+03 -.43721262E+03 0.67585438E+03 0.12500000E+03 0.0000E+00 0.9000E+01
        1  1    1    2  501    0 -.34814271E+03 0.34296229E+03 0.15069302E+03 0.51140490E+03 0.32000000E+00 0.0000E+00 0.9000E+01
        2  1    1    2  502    0 0.29962734E+02 0.42732881E+02 -.88897899E+03 0.89050974E+03 0.32000000E+00 0.0000E+00 0.9000E+01
#aMCatNLO 1  0  0  1  1 0.20252614D+03 0.00000000D+00  -5  6  0 0.00000000D+00 0.00000000D+00 0.00000000D+00 0.00000000D+00 0.00000000D+00
  <mgrwgt>
 0.2030188347D-01    4    2    0
 0.856639823932726D+03 0.000000000000000D+00 0.000000000000000D+00 0.856639823932726D+03
 0.856639823932726D+03 0.000000000000000D+00 0.000000000000000D+00 -.856639823932726D+03
 0.519636228256933D+03 0.318163298825958D+03 -.385687022795505D+03 -.664412932175117D+02
 0.723566614969437D+03 -.348129060933462D+03 0.342948846357137D+03 0.533611180555865D+03
 0.470076804639083D+03 0.299657621075038D+02 0.427381764383679D+02 -.467169887338354D+03
 0.000000000000000D+00 0.000000000000000D+00 0.000000000000000D+00 -.000000000000000D+00
 0.914357651586578D+03 0.000000000000000D+00 0.000000000000000D+00 0.914357651586578D+03
 0.106073994154343D+04 0.000000000000000D+00 0.000000000000000D+00 -.106073994154343D+04
 0.503192996005039D+03 0.261437171805056D+03 -.405973337773166D+03 -.664412932175117D+02
 0.753702245089007D+03 -.430058418261088D+03 0.313649388841676D+03 0.533611180555865D+03
 0.468313149384795D+03 -.220773614799217D+02 0.241265903322541D+02 -.467169887338354D+03
 0.249889202651163D+03 0.190698607935953D+03 0.681973585992362D+02 -.146382289956849D+03
0.324220844334D-02 0.000000000000D+00 0.000000000000D+00 0.652227718983D-05 0.000000000000D+00  6 1 2 25 1 2 21 0 0.69405417D-01 0.25025135D+00 0.27891466D+06 0.27891466D+06 0.27891466D+06 0.10869013D+01  1  2  2  1  6  1        1 0.266384774089D-01 0.100000000000D+01
0.117538103914D-02 0.000000000000D+00 -.124509341155D-04 0.652227718983D-05 0.000000000000D+00  6 1 2 25 1 2 21 2 0.69405417D-01 0.25025135D+00 0.27891466D+06 0.27891466D+06 0.27891466D+06 0.10869013D+01  1  2  3  1  6  1        1 0.114084680554D-01 0.100000000000D+01
-.181223209203D-02 0.000000000000D+00 0.000000000000D+00 0.652227718983D-05 0.000000000000D+00  6 1 2 25 1 2 21 2 0.69405417D-01 0.25025135D+00 0.27891466D+06 0.27891466D+06 0.27891466D+06 0.10869013D+01  1  2 15  1  6  1        1 -.175898634080D-01 0.100000000000D+01
-.159896554227D-04 0.000000000000D+00 0.000000000000D+00 0.652227718983D-05 0.000000000000D+00  6 1 2 25 1 2 21 2 0.69405417D-01 0.25025135D+00 0.27891466D+06 0.27891466D+06 0.27891466D+06 0.10869013D+01  1  2  4  1  6  1        1 -.155198584146D-03 0.100000000000D+01
  </mgrwgt>
  </event>
  <event>
  5     66 0.17698235E-05 0.18928435E+02 0.75467711E-02 0.94208473E-01
        1 -1    0    0  501    0 0.00000000E+00 0.00000000E+00 0.33090595E+04 0.33090595E+04 0.32000000E+00 0.0000E+00 0.9000E+01
        2 -1    0    0  502    0 0.00000000E+00 0.00000000E+00 -.37163941E+03 0.37163955E+03 0.32000000E+00 0.0000E+00 0.9000E+01
       25  1    1    2    0    0 0.20142665E+03 0.46708092E+03 0.26316412E+03 0.58618908E+03 0.12500000E+03 0.0000E+00 0.9000E+01
        1  1    1    2  501    0 -.18412858E+03 -.45939765E+03 0.28626745E+04 0.29051429E+04 0.32000000E+00 0.0000E+00 0.9000E+01
        2  1    1    2  502    0 -.17298066E+02 -.76832675E+01 -.18841855E+03 0.18936712E+03 0.32000000E+00 0.0000E+00 0.9000E+01
#aMCatNLO 1  0  0  4  1 0.23281113D+03 0.00000000D+00  -5  6  0 0.00000000D+00 0.00000000D+00 0.00000000D+00 0.00000000D+00 0.00000000D+00
  <mgrwgt>
 0.9749940157D-02    3    2    0
 0.110895320314736D+04 0.000000000000000D+00 0.000000000000000D+00 0.110895320314736D+04
 0.110895320314736D+04 -.000000000000000D+00 -.000000000000000D+00 -.110895320314736D+04
 0.624250747794987D+03 0.201426425204370D+03 0.467079106141986D+03 -.339600500526121D+03
 0.102983051566920D+04 -.184127684483523D+03 -.459395408266934D+03 0.903107826161128D+03
 0.563825142830541D+03 -.172987407208471D+02 -.768369787505145D+01 -.563507325635007D+03
 0.000000000000000D+00 0.000000000000000D+00 0.000000000000000D+00 -.000000000000000D+00
 0.110895320314736D+04 0.000000000000000D+00 0.000000000000000D+00 0.110895320314736D+04
 0.110895320314736D+04 -.000000000000000D+00 -.000000000000000D+00 -.110895320314736D+04
 0.488256403950531D+03 0.172020404427276D+03 0.393711589691150D+03 -.195370111844797D+03
 0.649986211843858D+03 -.469025771203896D+03 0.175324950698839D+03 0.414437043706483D+03
 0.441616271107130D+03 -.438747776137456D+02 -.739904531724752D+02 -.433157416691948D+03
 0.638047519393206D+03 0.340880144390366D+03 -.495046087217513D+03 0.214090484830262D+03
0.203646516590D-01 0.000000000000D+00 0.000000000000D+00 0.584987217946D-04 0.000000000000D+00  6 1 2 25 1 2 21 0 0.50908609D+00 0.57175306D-01 0.26917633D+06 0.26917633D+06 0.26917633D+06 0.10880527D+01  1  2  2  3  6  4        1 0.900527566398D-02 0.100000000000D+01
0.146798726032D-01 0.000000000000D+00 -.782056245064D-04 0.584987217946D-04 0.000000000000D+00  6 1 2 25 1 2 21 2 0.50908609D+00 0.57175306D-01 0.26917633D+06 0.26917633D+06 0.26917633D+06 0.10880527D+01  1  2  3  3  6  4        1 0.768496937960D-02 0.100000000000D+01
-.132574102163D-01 0.000000000000D+00 0.000000000000D+00 0.584987217946D-04 0.000000000000D+00  6 1 2 25 1 2 21 2 0.50908609D+00 0.57175306D-01 0.26917633D+06 0.26917633D+06 0.26917633D+06 0.10880527D+01  1  2 15  3  6  4        1 -.694030488672D-02 0.100000000000D+01
  </mgrwgt>
  </event>
  <event>
  5     66 0.17698235E-05 0.27286372E+03 0.75467711E-02 0.91084350E-01
        1 -1    0    0  501    0 0.00000000E+00 0.00000000E+00 0.19766661E+04 0.19766661E+04 0.32000000E+00 0.0000E+00 0.9000E+01
        2 -1    0    0  502    0 0.00000000E+00 0.00000000E+00 -.14099620E+04 0.14099620E+04 0.32000000E+00 0.0000E+00 0.9000E+01
       25  1    1    2    0    0 -.50087820E+03 -.28622477E+03 0.37065099E+02 0.59144096E+03 0.12500000E+03 0.0000E+00 0.9000E+01
        1  1    1    2  501    0 0.22105458E+03 0.15998085E+03 0.16300637E+04 0.16527453E+04 0.32000000E+00 0.0000E+00 0.9000E+01
        2  1    1    2  502    0 0.27982362E+03 0.12624392E+03 -.11004247E+04 0.11424419E+04 0.32000000E+00 0.0000E+00 0.9000E+01
#aMCatNLO 1  0  0  1  5 0.15453160D+03 0.00000000D+00  -5  6  0 0.00000000D+00 0.00000000D+00 0.00000000D+00 0.00000000D+00 0.00000000D+00
  <mgrwgt>
 0.2139446341D-02    9    2    0
 0.166943826564837D+04 0.000000000000000D+00 0.000000000000000D+00 0.166943826564837D+04
 0.166943826564837D+04 0.000000000000000D+00 0.000000000000000D+00 -.166943826564837D+04
 0.593618644633310D+03 -.500894958097323D+03 -.286230960692908D+03 -.627229890055002D+02
 0.139967198872427D+04 0.221048063993877D+03 0.159976133368289D+03 0.137281720056839D+04
 0.134558589793915D+04 0.279846894103447D+03 0.126254827324619D+03 -.131009421156289D+04
 0.000000000000000D+00 0.000000000000000D+00 -.000000000000000D+00 0.000000000000000D+00
 0.238851219112156D+04 0.000000000000000D+00 0.000000000000000D+00 0.238851219112156D+04
 0.167954837269443D+04 0.000000000000000D+00 0.000000000000000D+00 -.167954837269443D+04
 0.581468883803649D+03 -.501433865058306D+03 -.259057847699631D+03 -.627229890055002D+02
 0.140837006920462D+04 0.219760267659449D+03 0.224910227453577D+03 0.137281720056839D+04
 0.135261172092795D+04 0.278609473533720D+03 0.188648842239567D+03 -.131009421156289D+04
 0.725609889879771D+03 0.306412386513659D+01 -.154501221993514D+03 0.708963818427135D+03
0.248748446877D-03 0.000000000000D+00 0.000000000000D+00 0.195173077157D-04 0.000000000000D+00  6 1 2 25 1 2 21 0 0.30410248D+00 0.21691723D+00 0.34232353D+06 0.34232353D+06 0.34232353D+06 0.10803367D+01  1  2  2  1  6  1        1 0.167509680661D-03 0.100000000000D+01
0.321698290190D-04 0.000000000000D+00 -.955259532980D-06 0.195173077157D-04 0.000000000000D+00  6 1 2 25 1 2 21 2 0.30410248D+00 0.21691723D+00 0.34232353D+06 0.34232353D+06 0.34232353D+06 0.10803367D+01  1  2  3  1  6  1        1 0.252840451599D-04 0.100000000000D+01
-.156099799061D-03 0.000000000000D+00 0.000000000000D+00 0.195173077157D-04 0.000000000000D+00  6 1 2 25 1 2 21 2 0.30410248D+00 0.21691723D+00 0.34232353D+06 0.34232353D+06 0.34232353D+06 0.10803367D+01  1  2 15  1  6  1        1 -.122687452476D-03 0.100000000000D+01
0.381056003888D-09 0.000000000000D+00 0.000000000000D+00 0.195173077157D-04 0.000000000000D+00  6 1 2 25 1 2 21 2 0.43598204D+00 0.21691723D+00 0.47853715D+06 0.47853715D+06 0.47853715D+06 0.10698597D+01  1  2 12  1  6  1        1 0.727562702383D-10 0.100000000000D+01
-.881961729386D-03 0.000000000000D+00 0.000000000000D+00 0.195173077157D-04 0.000000000000D+00  6 1 2 25 1 2 21 2 0.30410248D+00 0.21691723D+00 0.34232353D+06 0.34232353D+06 0.34232353D+06 0.10803367D+01  1  2  4  1  6  1        1 -.693182428230D-03 0.100000000000D+01
-.507800496883D-02 0.000000000000D+00 -.169360125826D-03 0.195173077157D-04 0.000000000000D+00  6 1 2 25 1 2 21 2 0.43570965D+00 0.21691723D+00 0.34232353D+06 0.34232353D+06 0.34232353D+06 0.10803367D+01  1  2  5  1  6  1        1 -.102501726216D-02 0.100000000000D+01
0.483338881408D-02 0.000000000000D+00 0.158969857539D-03 0.195173077157D-04 0.000000000000D+00  6 1 2 25 1 2 21 2 0.30410248D+00 0.21691723D+00 0.34232353D+06 0.34232353D+06 0.34232353D+06 0.10803367D+01  1  2  6  1  6  1        1 0.379882718614D-02 0.100000000000D+01
0.168074412377D-10 0.000000000000D+00 0.000000000000D+00 0.195173077157D-04 0.000000000000D+00  6 21 2 25 1 2 -1 2 0.43598204D+00 0.21691723D+00 0.47853715D+06 0.47853715D+06 0.47853715D+06 0.10698597D+01  1  2 12  5  6  1        1 0.805461121344D-12 0.100000000000D+01
-.218716098054D-03 0.000000000000D+00 -.746068580325D-05 0.195173077157D-04 0.000000000000D+00  6 21 2 25 1 2 -1 2 0.43570965D+00 0.21691723D+00 0.34232353D+06 0.34232353D+06 0.34232353D+06 0.10803367D+01  1  2  5  5  6  1        1 -.112875018999D-04 0.100000000000D+01
  </mgrwgt>
  </event>
  <event>
  6     66 0.17698235E-05 0.53444237E+02 0.75467711E-02 0.91275869E-01
        1 -1    0    0  503    0 0.00000000E+00 0.00000000E+00 0.10239683E+04 0.10239684E+04 0.32000000E+00 0.0000E+00 0.9000E+01
        2 -1    0    0  502    0 0.00000000E+00 0.00000000E+00 -.15139290E+04 0.15139291E+04 0.32000000E+00 0.0000E+00 0.9000E+01
       25  1    1    2    0    0 -.19113796E+03 -.53374798E+03 -.40041749E+02 0.58193554E+03 0.12500000E+03 0.0000E+00 0.9000E+01
        1  1    1    2  501    0 0.23180515E+03 0.57067559E+03 0.36023770E+03 0.71356539E+03 0.32000000E+00 0.0000E+00 0.9000E+01
        2  1    1    2  502    0 0.95551646E+01 -.89151215E+02 -.10181774E+04 0.10221177E+04 0.32000000E+00 0.0000E+00 0.9000E+01
       21  1    1    2  503  501 -.50222350E+02 0.52223602E+02 0.20802073E+03 0.22027886E+03 0.75000000E+00 0.0000E+00 0.9000E+01
#aMCatNLO 2  0  0  1  4 0.18681326D+03 0.00000000D+00  -5  6  0 0.00000000D+00 0.00000000D+00 0.00000000D+00 0.00000000D+00 0.00000000D+00
  <mgrwgt>
 0.1893382492D-01    1    2    0
 0.110441481164975D+04 0.000000000000000D+00 0.000000000000000D+00 0.110441481164975D+04
 0.110441481164975D+04 0.000000000000000D+00 0.000000000000000D+00 -.110441481164975D+04
 0.589652947907222D+03 -.204618655157413D+03 -.519672700171134D+03 0.141905213555003D+03
 0.870712897291830D+03 0.212097722700054D+03 0.591119355524067D+03 0.603103152918799D+03
 0.748463778100444D+03 -.747906754264164D+01 -.714466553529329D+02 -.745008366473802D+03
 0.000000000000000D+00 -.000000000000000D+00 0.000000000000000D+00 0.000000000000000D+00
 0.139721861554714D+04 0.000000000000000D+00 0.000000000000000D+00 0.139721861554714D+04
 0.110950009561182D+04 0.000000000000000D+00 0.000000000000000D+00 -.110950009561182D+04
 0.597604334362479D+03 -.191124898200572D+03 -.533704154099021D+03 0.141905213555003D+03
 0.862027786882774D+03 0.231791164054891D+03 0.570641173210885D+03 0.603103152918799D+03
 0.750385501714008D+03 0.955608414586777D+01 -.891606209176315D+02 -.745008366473802D+03
 0.296701088199694D+03 -.502223500001873D+02 0.522236018057673D+02 0.287718519935325D+03
0.632116453476D-02 0.000000000000D+00 0.000000000000D+00 0.453709392661D-05 0.397624678767D-08  6 1 2 25 1 2 21 2 0.15753353D+00 0.23291207D+00 0.46141987D+06 0.46141987D+06 0.46141987D+06 0.10709838D+01  1  2  1  1  6  1        1 0.189338249239D-01 0.100000000000D+01
  </mgrwgt>
  </event>
  <event>
  5     66 0.17698235E-05 0.10161577E+03 0.75467711E-02 0.90394408E-01
        1 -1    0    0  501    0 0.00000000E+00 0.00000000E+00 0.19390427E+04 0.19390427E+04 0.32000000E+00 0.0000E+00 0.9000E+01
        2 -1    0    0  502    0 0.00000000E+00 0.00000000E+00 -.21230409E+04 0.21230409E+04 0.32000000E+00 0.0000E+00 0.9000E+01
       25  1    1    2    0    0 -.22250241E+03 0.43785863E+03 0.89915776E+02 0.51472065E+03 0.12500000E+03 0.0000E+00 0.9000E+01
        1  1    1    2  501    0 -.10049771E+02 0.10112057E+03 0.15899772E+04 0.15932213E+04 0.32000000E+00 0.0000E+00 0.9000E+01
        2  1    1    2  502    0 0.23255218E+03 -.53897920E+03 -.18638912E+04 0.19541417E+04 0.32000000E+00 0.0000E+00 0.9000E+01
#aMCatNLO 1  0  0  2  4 0.30928777D+02 0.00000000D+00  -5  6  0 0.00000000D+00 0.00000000D+00 0.00000000D+00 0.00000000D+00 0.00000000D+00
  <mgrwgt>
 0.6079708169D-01    7    2    0
 0.202895712268778D+04 0.000000000000000D+00 0.000000000000000D+00 0.202895712268778D+04
 0.202895712268778D+04 0.000000000000000D+00 0.000000000000000D+00 -.202895712268778D+04
 0.519373915243163D+03 -.222518406875618D+03 0.437896995974610D+03 0.113384493441390D+03
 0.166690395165950D+04 -.100494775960987D+02 0.101117615543735D+03 0.166380378046356D+04
 0.187163637847291D+04 0.232567884471717D+03 -.539014611518345D+03 -.177718827390495D+04
 0.000000000000000D+00 0.000000000000000D+00 -.000000000000000D+00 -.000000000000000D+00
 0.207391426919150D+04 0.000000000000000D+00 0.000000000000000D+00 0.207391426919150D+04
 0.246384652748509D+04 0.000000000000000D+00 0.000000000000000D+00 -.246384652748509D+04
 0.552447766057645D+03 -.240157248720262D+03 0.468019216225399D+03 0.113384493441390D+03
 0.167646443305858D+04 -.650708931872183D+02 0.195078841203747D+03 0.166380378046356D+04
 0.183761924207923D+04 0.171525106187114D+03 -.434770578468796D+03 -.177718827390495D+04
 0.471229355481137D+03 0.133703035720366D+03 -.228327478960350D+03 -.389932258293587D+03
0.742985047628D-01 0.000000000000D+00 0.000000000000D+00 0.112663690329D-03 0.000000000000D+00  6 1 2 25 1 2 21 0 0.29831426D+00 0.32662168D+00 0.35731071D+06 0.35731071D+06 0.35731071D+06 0.10789789D+01  1  2  2  2  6  2        2 0.214267186446D-01 0.100000000000D+01
0.228821145035D-01 0.000000000000D+00 -.285325821535D-03 0.112663690329D-03 0.000000000000D+00  6 1 2 25 1 2 21 2 0.29831426D+00 0.32662168D+00 0.35731071D+06 0.35731071D+06 0.35731071D+06 0.10789789D+01  1  2  3  2  6  2        2 0.768241326334D-02 0.100000000000D+01
-.426833211435D-01 0.000000000000D+00 0.000000000000D+00 0.112663690329D-03 0.000000000000D+00  6 1 2 25 1 2 21 2 0.29831426D+00 0.32662168D+00 0.35731071D+06 0.35731071D+06 0.35731071D+06 0.10789789D+01  1  2 15  2  6  2        2 -.143304462717D-01 0.100000000000D+01
-.350253116841D-01 0.000000000000D+00 0.000000000000D+00 0.112663690329D-03 0.000000000000D+00  6 1 2 25 1 2 21 2 0.29831426D+00 0.32662168D+00 0.35731071D+06 0.35731071D+06 0.35731071D+06 0.10789789D+01  1  2  4  2  6  2        2 -.117593554998D-01 0.100000000000D+01
-.355643829476D+00 0.000000000000D+00 -.709965519256D-01 0.112663690329D-03 0.000000000000D+00  6 1 2 25 1 2 21 2 0.29831426D+00 0.39922555D+00 0.35731071D+06 0.35731071D+06 0.35731071D+06 0.10789789D+01  1  2  5  2  6  2        2 -.642355710533D-01 0.100000000000D+01
0.363944808110D+00 0.000000000000D+00 0.695899451480D-01 0.112663690329D-03 0.000000000000D+00  6 1 2 25 1 2 21 2 0.29831426D+00 0.32662168D+00 0.35731071D+06 0.35731071D+06 0.35731071D+06 0.10789789D+01  1  2  6  2  6  2        2 0.122190386755D+00 0.100000000000D+01
-.938289476852D-02 0.000000000000D+00 -.203733187195D-02 0.112663690329D-03 0.000000000000D+00  6 1 21 25 1 2 -2 2 0.29831426D+00 0.39922555D+00 0.35731071D+06 0.35731071D+06 0.35731071D+06 0.10789789D+01  1  2  5  6  6  2        2 -.177064144857D-03 0.100000000000D+01
  </mgrwgt>
  </event>
  <event>
  5     66 0.17698235E-05 0.16384175E+03 0.75467711E-02 0.89773973E-01
        1 -1    0    0  501    0 0.00000000E+00 0.00000000E+00 0.12351936E+04 0.12351936E+04 0.32000000E+00 0.0000E+00 0.9000E+01
        2 -1    0    0  502    0 0.00000000E+00 0.00000000E+00 -.23219843E+04 0.23219843E+04 0.32000000E+00 0.0000E+00 0.9000E+01
       25  1    1    2    0    0 0.46969091E+03 -.34313280E+03 -.12441376E+04 0.13790768E+04 0.12500000E+03 0.0000E+00 0.9000E+01
        1  1    1    2  501    0 -.27949117E+02 -.16144430E+03 0.10493836E+04 0.10620977E+04 0.32000000E+00 0.0000E+00 0.9000E+01
        2  1    1    2  502    0 -.44174179E+03 0.50457711E+03 -.89203679E+03 0.11160034E+04 0.32000000E+00 0.0000E+00 0.9000E+01
#aMCatNLO 1  0  0  1  5 0.10542843D+03 0.00000000D+00  -5  6  0 0.00000000D+00 0.00000000D+00 0.00000000D+00 0.00000000D+00 0.00000000D+00
  <mgrwgt>
 0.4309980800D-02    9    2    0
 0.169354662789087D+04 0.000000000000000D+00 0.000000000000000D+00 0.169354662789087D+04
 0.169354662789087D+04 0.000000000000000D+00 0.000000000000000D+00 -.169354662789087D+04
 0.104915435838298D+04 0.469724680231413D+03 -.343164350846471D+03 -.864116207927853D+03
 0.145210406995050D+04 -.279484418498209D+02 -.161440404302225D+03 0.144283128272979D+04
 0.885834827448255D+03 -.441776238381592D+03 0.504604755148696D+03 -.578715074801941D+03
 0.000000000000000D+00 0.000000000000000D+00 0.000000000000000D+00 0.000000000000000D+00
 0.307742913730526D+04 0.000000000000000D+00 0.000000000000000D+00 0.307742913730526D+04
 0.169637599047256D+04 0.000000000000000D+00 0.000000000000000D+00 -.169637599047256D+04
 0.104846610829214D+04 0.448772085225563D+03 -.368188776249290D+03 -.864116207927853D+03
 0.145721868956152D+04 -.570089237100015D+02 -.196148365787523D+03 0.144283128272979D+04
 0.883048870674212D+03 -.459445165781960D+03 0.483502130125165D+03 -.578715074801941D+03
 0.138507145924995D+04 0.676820042663985D+02 0.808350119116480D+02 0.138105314683271D+04
0.124583279673D-03 0.000000000000D+00 0.000000000000D+00 0.107659264070D-05 0.000000000000D+00  6 1 2 25 1 2 21 0 0.19002978D+00 0.35722836D+00 0.51087457D+06 0.51087457D+06 0.51087457D+06 0.10678506D+01  1  2  2  1  6  1        1 0.805586704500D-04 0.100000000000D+01
0.250003340314D-04 0.000000000000D+00 -.478432597474D-06 0.107659264070D-05 0.000000000000D+00  6 1 2 25 1 2 21 2 0.19002978D+00 0.35722836D+00 0.51087457D+06 0.51087457D+06 0.51087457D+06 0.10678506D+01  1  2  3  1  6  1        1 0.184339900667D-04 0.100000000000D+01
-.803009051947D-04 0.000000000000D+00 0.000000000000D+00 0.107659264070D-05 0.000000000000D+00  6 1 2 25 1 2 21 2 0.19002978D+00 0.35722836D+00 0.51087457D+06 0.51087457D+06 0.51087457D+06 0.10678506D+01  1  2 15  1  6  1        1 -.592098524303D-04 0.100000000000D+01
0.344057241689D-07 0.000000000000D+00 0.000000000000D+00 0.107659264070D-05 0.000000000000D+00  6 1 2 25 1 2 21 2 0.34561863D+00 0.35722836D+00 0.61658849D+06 0.61658849D+06 0.61658849D+06 0.10621361D+01  1  2 12  1  6  1        1 0.507920106737D-08 0.100000000000D+01
-.304312348947D-02 0.000000000000D+00 0.000000000000D+00 0.107659264070D-05 0.000000000000D+00  6 1 2 25 1 2 21 2 0.19002978D+00 0.35722836D+00 0.51087457D+06 0.51087457D+06 0.51087457D+06 0.10678506D+01  1  2  4  1  6  1        1 -.224384634646D-02 0.100000000000D+01
-.138967197090D-01 0.000000000000D+00 -.736623675700D-04 0.107659264070D-05 0.000000000000D+00  6 1 2 25 1 2 21 2 0.34544752D+00 0.35722836D+00 0.51087457D+06 0.51087457D+06 0.51087457D+06 0.10678506D+01  1  2  5  1  6  1        1 -.211918341002D-02 0.100000000000D+01
0.117841578620D-01 0.000000000000D+00 0.622159600559D-04 0.107659264070D-05 0.000000000000D+00  6 1 2 25 1 2 21 2 0.19002978D+00 0.35722836D+00 0.51087457D+06 0.51087457D+06 0.51087457D+06 0.10678506D+01  1  2  6  1  6  1        1 0.868904586237D-02 0.100000000000D+01
0.225211758309D-08 0.000000000000D+00 0.000000000000D+00 0.107659264070D-05 0.000000000000D+00  6 21 2 25 1 2 -1 2 0.34561863D+00 0.35722836D+00 0.61658849D+06 0.61658849D+06 0.61658849D+06 0.10621361D+01  1  2 12  5  6  1        1 0.133165034266D-09 0.100000000000D+01
-.905011298058D-03 0.000000000000D+00 -.481825880848D-05 0.107659264070D-05 0.000000000000D+00  6 21 2 25 1 2 -1 2 0.34544752D+00 0.35722836D+00 0.51087457D+06 0.51087457D+06 0.51087457D+06 0.10678506D+01  1  2  5  5  6  1        1 -.558233262097D-04 0.100000000000D+01
  </mgrwgt>
  </event>
  <event>
  6     66 -.17698235E-05 0.10248320E+03 0.75467711E-02 0.90148472E-01
        1 -1    0    0  501    0 0.00000000E+00 0.00000000E+00 0.51780190E+03 0.51780200E+03 0.32000000E+00 0.0000E+00 0.9000E+01
        2 -1    0    0  503    0 0.00000000E+00 0.00000000E+00 -.19342596E+04 0.19342596E+04 0.32000000E+00 0.0000E+00 0.9000E+01
       25  1    1    2    0    0 0.66980636E+03 -.18030625E+03 -.60187288E+03 0.92683702E+03 0.12500000E+03 0.0000E+00 0.9000E+01
        1  1    1    2  501    0 -.61742338E+03 0.10615459E+03 0.47534567E+02 0.62828343E+03 0.32000000E+00 0.0000E+00 0.9000E+01
        2  1    1    2  502    0 -.34431385E+02 0.12454648E+03 -.24043347E+03 0.27295733E+03 0.32000000E+00 0.0000E+00 0.9000E+01
       21  1    1    2  503  502 -.17951594E+02 -.50394826E+02 -.62168591E+03 0.62398384E+03 0.75000000E+00 0.0000E+00 0.9000E+01
#aMCatNLO 2  0  0  2  5 0.53496712D+02 0.00000000D+00  -5  6  0 0.00000000D+00 0.00000000D+00 0.00000000D+00 0.00000000D+00 0.00000000D+00
  <mgrwgt>
 -.7132568269D-04    3    2    0
 0.822700475846738D+03 0.000000000000000D+00 0.000000000000000D+00 0.822700475846738D+03
 0.822700475846738D+03 0.000000000000000D+00 0.000000000000000D+00 -.822700475846738D+03
 0.737220464005517D+03 0.661753143381595D+03 -.202910371561093D+03 -.220860070827722D+03
 0.724467464887974D+03 -.625291515139276D+03 0.840286783362593D+02 0.356093821896838D+03
 0.183713022799986D+03 -.364616282423191D+02 0.118881693224834D+03 -.135233751069117D+03
 0.000000000000000D+00 -.000000000000000D+00 -.000000000000000D+00 -.000000000000000D+00
 0.824965375013225D+03 0.000000000000000D+00 0.000000000000000D+00 0.824965375013225D+03
 0.121406620775553D+04 0.000000000000000D+00 0.000000000000000D+00 -.121406620775553D+04
 0.738615173803805D+03 0.669801821044947D+03 -.180315624980397D+03 -.220860070827722D+03
 0.720601847620172D+03 -.617410625967332D+03 0.106152398668781D+03 0.356093821896838D+03
 0.187053366454286D+03 -.344396014806247D+02 0.124558052021993D+03 -.135233751069117D+03
 0.392761194890490D+03 -.179515935969905D+02 -.503948257103774D+02 -.389100832742304D+03
-.283632343035D-04 0.000000000000D+00 0.000000000000D+00 0.100100728006D-07 0.000000000000D+00  6 1 2 25 1 2 21 2 0.79443099D-01 0.30826023D+00 0.57306362D+06 0.57306362D+06 0.57306362D+06 0.10643492D+01  1  2 13  2  6  2        2 -.130582936934D-03 0.100000000000D+01
-.341252372754D-06 0.000000000000D+00 0.000000000000D+00 0.100100728006D-07 0.000000000000D+00  6 1 2 25 1 2 21 2 0.79443099D-01 0.29792429D+00 0.57306362D+06 0.57306362D+06 0.57306362D+06 0.10643492D+01  1  2 13  2  6  2        2 -.171160529982D-05 0.100000000000D+01
0.121684569703D-04 0.000000000000D+00 0.000000000000D+00 0.100100728006D-07 0.909413226254D-11  6 1 2 25 1 2 21 2 0.79661806D-01 0.29757828D+00 0.57306362D+06 0.57306362D+06 0.57306362D+06 0.10643492D+01  1  2  1  2  6  2        2 0.609688595479D-04 0.100000000000D+01
  </mgrwgt>
  </event>
  <event>
  5     66 0.17698235E-05 0.14776404E+03 0.75467711E-02 0.91357885E-01
        1 -1    0    0  501    0 0.00000000E+00 0.00000000E+00 0.29371203E+04 0.29371203E+04 0.32000000E+00 0.0000E+00 0.9000E+01
        2 -1    0    0  502    0 0.00000000E+00 0.00000000E+00 -.74196413E+03 0.74196420E+03 0.32000000E+00 0.0000E+00 0.9000E+01
       25  1    1    2    0    0 -.44383099E+03 0.15196818E+03 0.24875754E+03 0.54551406E+03 0.12500000E+03 0.0000E+00 0.9000E+01
        1  1    1    2  501    0 0.56957292E+03 -.74375697E+02 0.24976554E+04 0.25628554E+04 0.32000000E+00 0.0000E+00 0.9000E+01
        2  1    1    2  502    0 -.12574193E+03 -.77592480E+02 -.55125675E+03 0.57071511E+03 0.32000000E+00 0.0000E+00 0.9000E+01
#aMCatNLO 1  0  0  1  5 0.13483732D+03 0.00000000D+00  -5  6  0 0.00000000D+00 0.00000000D+00 0.00000000D+00 0.00000000D+00 0.00000000D+00
  <mgrwgt>
 0.5834638281D-01    9    2    0
 0.147622426490438D+04 0.000000000000000D+00 0.000000000000000D+00 0.147622426490438D+04
 0.147622426490438D+04 0.000000000000000D+00 0.000000000000000D+00 -.147622426490438D+04
 0.494797752555592D+03 -.443816486862007D+03 0.151972395450289D+03 -.955569617800399D+02
 0.133657411901488D+04 0.569565494885148D+03 -.743747276684774D+02 0.120685290012532D+04
 0.112107665823827D+04 -.125749008023141D+03 -.775976677818115D+02 -.111129593834528D+04
 0.000000000000000D+00 0.000000000000000D+00 -.000000000000000D+00 0.000000000000000D+00
 0.164070771975917D+04 0.000000000000000D+00 0.000000000000000D+00 0.164070771975917D+04
 0.150565753606724D+04 0.000000000000000D+00 0.000000000000000D+00 -.150565753606724D+04
 0.515959835660850D+03 -.466843987999225D+03 0.153346372436777D+03 -.955569617800399D+02
 0.131179925998592D+04 0.509229147468423D+03 -.707746517286114D+02 0.120685290012532D+04
 0.112776681757738D+04 -.176983098472216D+03 -.745406942621399D+02 -.111129593834528D+04
 0.190839342602257D+03 0.134597939003018D+03 -.803102644602565D+01 0.135050183691932D+03
0.398516045667D-01 0.000000000000D+00 0.000000000000D+00 0.890693361031D-05 0.000000000000D+00  6 1 2 25 1 2 21 0 0.45186467D+00 0.11414833D+00 0.36460338D+06 0.36460338D+06 0.36460338D+06 0.10783405D+01  1  2  2  1  6  1        1 0.148420070154D-01 0.100000000000D+01
0.751484618167D-02 0.000000000000D+00 -.153040654705D-03 0.890693361031D-05 0.000000000000D+00  6 1 2 25 1 2 21 2 0.45186467D+00 0.11414833D+00 0.36460338D+06 0.36460338D+06 0.36460338D+06 0.10783405D+01  1  2  3  1  6  1        1 0.325445861125D-02 0.100000000000D+01
-.249583490658D-01 0.000000000000D+00 0.000000000000D+00 0.890693361031D-05 0.000000000000D+00  6 1 2 25 1 2 21 2 0.45186467D+00 0.11414833D+00 0.36460338D+06 0.36460338D+06 0.36460338D+06 0.10783405D+01  1  2 15  1  6  1        1 -.108087260971D-01 0.100000000000D+01
0.546826513767D-07 0.000000000000D+00 0.000000000000D+00 0.890693361031D-05 0.000000000000D+00  6 1 2 25 1 2 21 2 0.50788809D+00 0.11414833D+00 0.45429964D+06 0.45429964D+06 0.45429964D+06 0.10714649D+01  1  2 12  1  6  1        1 0.120887488985D-07 0.100000000000D+01
-.207127521464D-01 0.000000000000D+00 0.000000000000D+00 0.890693361031D-05 0.000000000000D+00  6 1 2 25 1 2 21 2 0.45186467D+00 0.11414833D+00 0.36460338D+06 0.36460338D+06 0.36460338D+06 0.10783405D+01  1  2  4  1  6  1        1 -.897008308033D-02 0.100000000000D+01
-.296301232205D+00 0.000000000000D+00 -.581697720461D-01 0.890693361031D-05 0.000000000000D+00  6 1 2 25 1 2 21 2 0.50476703D+00 0.11414833D+00 0.36460338D+06 0.36460338D+06 0.36460338D+06 0.10783405D+01  1  2  5  1  6  1        1 -.702350960281D-01 0.100000000000D+01
0.301247973366D+00 0.000000000000D+00 0.578150716045D-01 0.890693361031D-05 0.000000000000D+00  6 1 2 25 1 2 21 2 0.45186467D+00 0.11414833D+00 0.36460338D+06 0.36460338D+06 0.36460338D+06 0.10783405D+01  1  2  6  1  6  1        1 0.130461627203D+00 0.100000000000D+01
0.101474799388D-08 0.000000000000D+00 0.000000000000D+00 0.890693361031D-05 0.000000000000D+00  6 21 2 25 1 2 -1 2 0.50788809D+00 0.11414833D+00 0.45429964D+06 0.45429964D+06 0.45429964D+06 0.10714649D+01  1  2 12  5  6  1        1 0.361475462374D-10 0.100000000000D+01
-.501974903464D-02 0.000000000000D+00 -.103099392194D-02 0.890693361031D-05 0.000000000000D+00  6 21 2 25 1 2 -1 2 0.50476703D+00 0.11414833D+00 0.36460338D+06 0.36460338D+06 0.36460338D+06 0.10783405D+01  1  2  5  5  6  1        1 -.197816940021D-03 0.100000000000D+01
  </mgrwgt>
  </event>
  <event>
  5     66 0.17698235E-05 0.15148980E+03 0.75467711E-02 0.89534855E-01
        1 -1    0    0  501    0 0.00000000E+00 0.00000000E+00 0.16102601E+04 0.16102601E+04 0.32000000E+00 0.0000E+00 0.9000E+01
        2 -1    0    0  502    0 0.00000000E+00 0.00000000E+00 -.84679686E+03 0.84679692E+03 0.32000000E+00 0.0000E+00 0.9000E+01
       25  1    1    2    0    0 0.18139885E+03 -.63832039E+03 0.94360416E+03 0.11603328E+04 0.12500000E+03 0.0000E+00 0.9000E+01
        1  1    1    2  501    0 -.33117971E+03 0.61575404E+03 0.32380372E+03 0.77050762E+03 0.32000000E+00 0.0000E+00 0.9000E+01
        2  1    1    2  502    0 0.14978086E+03 0.22566349E+02 -.50394467E+03 0.52621657E+03 0.32000000E+00 0.0000E+00 0.9000E+01
#aMCatNLO 1  0  0  1  5 0.10208878D+03 0.00000000D+00  -5  6  0 0.00000000D+00 0.00000000D+00 0.00000000D+00 0.00000000D+00 0.00000000D+00
  <mgrwgt>
 0.1437974892D-01    9    2    0
 0.116771712574806D+04 0.000000000000000D+00 0.000000000000000D+00 0.116771712574806D+04
 0.116771712574806D+04 0.000000000000000D+00 0.000000000000000D+00 -.116771712574806D+04
 0.912294510442843D+03 0.181326374170637D+03 -.638223895255161D+03 0.613552996357778D+03
 0.704664703505597D+03 -.331125251970772D+03 0.615652780244653D+03 0.887697361207768D+02
 0.718475037547681D+03 0.149798877800135D+03 0.225711150105072D+02 -.702322732478555D+03
 0.000000000000000D+00 0.000000000000000D+00 0.000000000000000D+00 0.000000000000000D+00
 0.122152849487235D+04 0.000000000000000D+00 0.000000000000000D+00 0.122152849487235D+04
 0.121827655382969D+04 0.000000000000000D+00 0.000000000000000D+00 -.121827655382969D+04
 0.917656224541374D+03 0.145026426268560D+03 -.654971757241250D+03 0.613552996357778D+03
 0.707206287077764D+03 -.359131931288875D+03 0.602731219002373D+03 0.887697361207768D+02
 0.712801977123735D+03 0.121407249505038D+03 0.947194821474871D+01 -.702322732478555D+03
 0.102140559959168D+03 0.926982555152764D+02 0.427685900241280D+02 0.325194104265838D+01
0.190466028596D-02 0.000000000000D+00 0.000000000000D+00 0.543050470718D-07 0.000000000000D+00  6 1 2 25 1 2 21 0 0.24773233D+00 0.13027645D+00 0.58193675D+06 0.58193675D+06 0.58193675D+06 0.10638835D+01  1  2  2  1  6  1        1 0.475040686888D-02 0.100000000000D+01
0.309113043838D-03 0.000000000000D+00 -.731439700664D-05 0.543050470718D-07 0.000000000000D+00  6 1 2 25 1 2 21 2 0.24773233D+00 0.13027645D+00 0.58193675D+06 0.58193675D+06 0.58193675D+06 0.10638835D+01  1  2  3  1  6  1        1 0.872607089736D-03 0.100000000000D+01
-.997467153387D-03 0.000000000000D+00 0.000000000000D+00 0.543050470718D-07 0.000000000000D+00  6 1 2 25 1 2 21 2 0.24773233D+00 0.13027645D+00 0.58193675D+06 0.58193675D+06 0.58193675D+06 0.10638835D+01  1  2 15  1  6  1        1 -.281578835697D-02 0.100000000000D+01
0.244356262243D-05 0.000000000000D+00 0.000000000000D+00 0.543050470718D-07 0.000000000000D+00  6 1 2 25 1 2 21 2 0.26762569D+00 0.13027645D+00 0.64630361D+06 0.64630361D+06 0.64630361D+06 0.10607206D+01  1  2 12  1  6  1        1 0.557666167056D-05 0.100000000000D+01
-.779140973305D-03 0.000000000000D+00 0.000000000000D+00 0.543050470718D-07 0.000000000000D+00  6 1 2 25 1 2 21 2 0.24773233D+00 0.13027645D+00 0.58193675D+06 0.58193675D+06 0.58193675D+06 0.10638835D+01  1  2  4  1  6  1        1 -.219946699359D-02 0.100000000000D+01
-.284597266321D-01 0.000000000000D+00 -.591610035993D-02 0.543050470718D-07 0.000000000000D+00  6 1 2 25 1 2 21 2 0.26562033D+00 0.13027645D+00 0.58193675D+06 0.58193675D+06 0.58193675D+06 0.10638835D+01  1  2  5  1  6  1        1 -.671079641322D-01 0.100000000000D+01
0.288164779334D-01 0.000000000000D+00 0.590175106421D-02 0.543050470718D-07 0.000000000000D+00  6 1 2 25 1 2 21 2 0.24773233D+00 0.13027645D+00 0.58193675D+06 0.58193675D+06 0.58193675D+06 0.10638835D+01  1  2  6  1  6  1        1 0.813471428888D-01 0.100000000000D+01
0.328295573798D-07 0.000000000000D+00 0.000000000000D+00 0.543050470718D-07 0.000000000000D+00  6 21 2 25 1 2 -1 2 0.26762569D+00 0.13027645D+00 0.64630361D+06 0.64630361D+06 0.64630361D+06 0.10607206D+01  1  2 12  5  6  1        1 0.453285625631D-07 0.100000000000D+01
-.326223887098D-03 0.000000000000D+00 -.698654604736D-04 0.543050470718D-07 0.000000000000D+00  6 21 2 25 1 2 -1 2 0.26562033D+00 0.13027645D+00 0.58193675D+06 0.58193675D+06 0.58193675D+06 0.10638835D+01  1  2  5  5  6  1        1 -.472810436104D-03 0.100000000000D+01
  </mgrwgt>
  </event>
  <event>
  5     66 0.17698235E-05 0.49103376E+02 0.75467711E-02 0.91607611E-01
        1 -1    0    0  501    0 0.00000000E+00 0.00000000E+00 0.17752416E+04 0.17752417E+04 0.32000000E+00 0.0000E+00 0.9000E+01
        2 -1    0    0  502    0 0.00000000E+00 0.00000000E+00 -.92800739E+03 0.92800744E+03 0.32000000E+00 0.0000E+00 0.9000E+01
       25  1    1    2    0    0 0.29258140E+03 0.57935331E+03 -.25515055E+01 0.66097326E+03 0.12500000E+03 0.0000E+00 0.9000E+01
        1  1    1    2  501    0 -.29114358E+03 -.53027518E+03 0.13815812E+04 0.15082185E+04 0.32000000E+00 0.0000E+00 0.9000E+01
        2  1    1    2  502    0 -.14378180E+01 -.49078132E+02 -.53179546E+03 0.53405734E+03 0.32000000E+00 0.0000E+00 0.9000E+01
#aMCatNLO 1  0  0  2  1 0.12694105D+01 0.00000000D+00  -5  6  0 0.00000000D+00 0.00000000D+00 0.00000000D+00 0.00000000D+00 0.00000000D+00
  <mgrwgt>
 0.1498952458D-02   10    2    0
 0.128352540219676D+04 0.000000000000000D+00 0.000000000000000D+00 0.128352540219676D+04
 0.128352540219676D+04 0.000000000000000D+00 0.000000000000000D+00 -.128352540219676D+04
 0.696852653975185D+03 0.292575682290901D+03 0.579346613909250D+03 -.220761392539906D+03
 0.113223613744871D+04 -.291137612862011D+03 -.530264300095060D+03 0.957087944426464D+03
 0.737962012969627D+03 -.143806942889057D+01 -.490823138141900D+02 -.736326551886558D+03
 0.000000000000000D+00 0.000000000000000D+00 0.000000000000000D+00 -.000000000000000D+00
 0.128356249418928D+04 0.000000000000000D+00 0.000000000000000D+00 0.128356249418928D+04
 0.129443256095976D+04 0.000000000000000D+00 0.000000000000000D+00 -.129443256095976D+04
 0.696602933182083D+03 0.292261709825461D+03 0.579204753996047D+03 -.220761392539906D+03
 0.113247544023540D+04 -.291647896134840D+03 -.530494857703643D+03 0.957087944426464D+03
 0.737972744838743D+03 -.177062604498181D+01 -.492325704700650D+02 -.736326551886558D+03
 0.109439368928195D+02 0.115681235436128D+01 0.522674177660888D+00 -.108700667704858D+02
0.215417680012D-04 0.000000000000D+00 0.000000000000D+00 0.227808165716D-04 0.000000000000D+00  6 1 2 25 1 2 21 0 0.27311410D+00 0.14277037D+00 0.43230241D+06 0.43230241D+06 0.43230241D+06 0.10730046D+01  1  2  2  2  6  2        2 0.374765152921D-04 0.100000000000D+01
0.102497068099D-04 0.000000000000D+00 -.827260612023D-07 0.227808165716D-04 0.000000000000D+00  6 1 2 25 1 2 21 2 0.27311410D+00 0.14277037D+00 0.43230241D+06 0.43230241D+06 0.43230241D+06 0.10730046D+01  1  2  3  2  6  2        2 0.205301677714D-04 0.100000000000D+01
-.134271012107D-04 0.000000000000D+00 0.000000000000D+00 0.227808165716D-04 0.000000000000D+00  6 1 2 25 1 2 21 2 0.27311410D+00 0.14277037D+00 0.43230241D+06 0.43230241D+06 0.43230241D+06 0.10730046D+01  1  2 15  2  6  2        2 -.268944903157D-04 0.100000000000D+01
-.752830727691D-02 0.000000000000D+00 0.000000000000D+00 0.227808165716D-04 0.000000000000D+00  6 1 2 25 1 2 21 2 0.27311410D+00 0.14277037D+00 0.43230241D+06 0.43230241D+06 0.43230241D+06 0.10730046D+01  1  2  4  2  6  2        2 -.150792031710D-01 0.100000000000D+01
-.854792920369D-01 0.000000000000D+00 -.553576875883D-03 0.227808165716D-04 0.000000000000D+00  6 1 2 25 1 2 21 2 0.27311410D+00 0.14398539D+00 0.43230241D+06 0.43230241D+06 0.43230241D+06 0.10730046D+01  1  2  5  2  6  2        2 -.169214009031D+00 0.100000000000D+01
0.854809337182D-01 0.000000000000D+00 0.553556999265D-03 0.227808165716D-04 0.000000000000D+00  6 1 2 25 1 2 21 2 0.27311410D+00 0.14277037D+00 0.43230241D+06 0.43230241D+06 0.43230241D+06 0.10730046D+01  1  2  6  2  6  2        2 0.171218352196D+00 0.100000000000D+01
0.735704934516D-02 0.000000000000D+00 0.000000000000D+00 0.227808165716D-04 0.151262878463D-04  6 1 2 25 1 2 21 2 0.27312200D+00 0.14398361D+00 0.43336487D+06 0.43336487D+06 0.43336487D+06 0.10729283D+01  1  2 11  2  6  2        2 0.145585700098D-01 0.100000000000D+01
0.204636938549D-14 0.000000000000D+00 0.000000000000D+00 0.227808165716D-04 0.000000000000D+00  6 1 21 25 1 2 -2 2 0.27311410D+00 0.14398614D+00 0.43336487D+06 0.43336487D+06 0.43336487D+06 0.10729283D+01  1  2 12  6  6  2        2 0.308037401069D-14 0.100000000000D+01
-.134103392459D-03 0.000000000000D+00 -.868519619878D-06 0.227808165716D-04 0.000000000000D+00  6 1 21 25 1 2 -2 2 0.27311410D+00 0.14398539D+00 0.43230241D+06 0.43230241D+06 0.43230241D+06 0.10730046D+01  1  2  5  6  6  2        2 -.201950786836D-03 0.100000000000D+01
0.123621624575D-03 0.000000000000D+00 0.000000000000D+00 0.227808165716D-04 0.132750758254D-06  6 1 21 25 1 2 -2 2 0.27312200D+00 0.14398361D+00 0.43336487D+06 0.43336487D+06 0.43336487D+06 0.10729283D+01  1  2 11  6  6  2        2 0.186081048254D-03 0.100000000000D+01
  </mgrwgt>
  </event>
  <event>
  5     66 -.17698235E-05 0.13390746E+03 0.75467711E-02 0.91947489E-01
        1 -1    0    0  501    0 0.00000000E+00 0.00000000E+00 0.12080155E+04 0.12080155E+04 0.32000000E+00 0.0000E+00 0.9000E+01
        2 -1    0    0  502    0 -.00000000E+00 -.00000000E+00 -.15461737E+04 0.15461738E+04 0.32000000E+00 0.0000E+00 0.9000E+01
       25  1    1    2    0    0 0.31369742E+03 0.53537146E+03 0.36465022E+02 0.63402158E+03 0.12500000E+03 0.0000E+00 0.9000E+01
        1  1    1    2  501    0 -.64488730E+02 -.11737054E+03 0.81966558E+03 0.83053380E+03 0.32000000E+00 0.0000E+00 0.9000E+01
        2  1    1    2  502    0 -.24920869E+03 -.41800092E+03 -.11942888E+04 0.12896339E+04 0.32000000E+00 0.0000E+00 0.9000E+01
#aMCatNLO 1  0  0  4  2 0.20158689D+02 0.00000000D+00  -5  6  0 0.00000000D+00 0.00000000D+00 0.00000000D+00 0.00000000D+00 0.00000000D+00
  <mgrwgt>
 -.3996865106D-02    5    2    0
 0.136667551140501D+04 0.000000000000000D+00 0.000000000000000D+00 0.136667551140501D+04
 0.136667551140501D+04 -.000000000000000D+00 -.000000000000000D+00 -.136667551140501D+04
 0.643424763690745D+03 0.313719337296929D+03 0.535407570929018D+03 0.115279386398242D+03
 0.938181200978338D+03 -.644825613296219D+02 -.117359309281294D+03 0.928575660718364D+03
 0.115174505814094D+04 -.249236775967307D+03 -.418048261647724D+03 -.104385504711661D+04
 0.000000000000000D+00 0.000000000000000D+00 -.000000000000000D+00 0.000000000000000D+00
 0.136667551140501D+04 0.000000000000000D+00 0.000000000000000D+00 0.136667551140501D+04
 0.136667551140501D+04 -.000000000000000D+00 -.000000000000000D+00 -.136667551140501D+04
 0.643457190685805D+03 0.313664102351909D+03 0.535307042431668D+03 0.116074792543861D+03
 0.655012541510491D+02 -.445721263263747D+01 0.122043278599856D+02 0.641997035226293D+02
 0.115054227700489D+04 -.249335593666899D+03 -.418228111466492D+03 -.104243203120662D+04
 0.873850300968273D+03 -.598712960523727D+02 -.129283258825162D+03 0.862157535140126D+03
0.868460986971D-03 0.000000000000D+00 0.000000000000D+00 0.101476655790D-04 0.000000000000D+00  6 1 2 25 1 2 21 0 0.18584854D+00 0.23787289D+00 0.39289552D+06 0.39289552D+06 0.39289552D+06 0.10759891D+01  1  2  2  3  6  4        1 0.161102306734D-02 0.100000000000D+01
0.183837173622D-03 0.000000000000D+00 -.333511886100D-05 0.101476655790D-04 0.000000000000D+00  6 1 2 25 1 2 21 2 0.18584854D+00 0.23787289D+00 0.39289552D+06 0.39289552D+06 0.39289552D+06 0.10759891D+01  1  2  3  3  6  4        1 0.394821279270D-03 0.100000000000D+01
-.503433206572D-03 0.000000000000D+00 0.000000000000D+00 0.101476655790D-04 0.000000000000D+00  6 1 2 25 1 2 21 2 0.18584854D+00 0.23787289D+00 0.39289552D+06 0.39289552D+06 0.39289552D+06 0.10759891D+01  1  2 15  3  6  4        1 -.108120756390D-02 0.100000000000D+01
0.910079191714D-09 0.000000000000D+00 0.000000000000D+00 0.101476655790D-04 0.000000000000D+00  6 1 2 25 1 2 21 2 0.18584854D+00 0.23787289D+00 0.40658425D+06 0.40658425D+06 0.40658425D+06 0.10749168D+01  1  2 12  3  6  4        1 0.194605064769D-08 0.100000000000D+01
-.229155671806D-02 0.000000000000D+00 0.000000000000D+00 0.101476655790D-04 0.000000000000D+00  6 1 2 25 1 2 21 2 0.18584854D+00 0.23787289D+00 0.39289552D+06 0.39289552D+06 0.39289552D+06 0.10759891D+01  1  2  5  3  6  4        1 -.492150383472D-02 0.100000000000D+01
  </mgrwgt>
  </event>
  <event>
  6     66 0.17698235E-05 0.95603400E+02 0.75467711E-02 0.93807122E-01
        1 -1    0    0  503    0 0.00000000E+00 0.00000000E+00 0.13864285E+04 0.13864285E+04 0.32000000E+00 0.0000E+00 0.9000E+01
        2 -1    0    0  502    0 0.00000000E+00 0.00000000E+00 -.24597482E+04 0.24597483E+04 0.32000000E+00 0.0000E+00 0.9000E+01
       25  1    1    2    0    0 0.15571510E+03 0.48788109E+03 0.28461947E+03 0.59908964E+03 0.12500000E+03 0.0000E+00 0.9000E+01
        1  1    1    2  501    0 -.43462360E+02 -.98050171E+02 0.83258234E+03 0.83946189E+03 0.32000000E+00 0.0000E+00 0.9000E+01
        2  1    1    2  502    0 -.13484322E+03 -.39543764E+03 -.22785661E+04 0.23165529E+04 0.32000000E+00 0.0000E+00 0.9000E+01
       21  1    1    2  503  501 0.22590480E+02 0.56067264E+01 0.88044537E+02 0.91072324E+02 0.75000000E+00 0.0000E+00 0.9000E+01
#aMCatNLO 2  0  0  1  5 0.23275850D+02 0.00000000D+00  -5  6  0 0.00000000D+00 0.00000000D+00 0.00000000D+00 0.00000000D+00 0.00000000D+00
  <mgrwgt>
 0.2109730197D-02    5    2    0
 0.178546214987010D+04 0.000000000000000D+00 0.000000000000000D+00 0.178546214987010D+04
 0.178546214987010D+04 0.000000000000000D+00 0.000000000000000D+00 -.178546214987010D+04
 0.724399850613805D+03 0.160298995485759D+03 0.489041882129793D+03 0.494239226628673D+03
 0.115300369048410D+04 -.361630063729010D+02 -.962305379558380D+02 0.114841169917620D+04
 0.169352075864230D+04 -.124135989112858D+03 -.392811344173955D+03 -.164265092580487D+04
 0.000000000000000D+00 0.000000000000000D+00 0.000000000000000D+00 0.000000000000000D+00
 0.190880080449107D+04 0.000000000000000D+00 0.000000000000000D+00 0.190880080449107D+04
 0.178659854144890D+04 0.000000000000000D+00 0.000000000000000D+00 -.178659854144890D+04
 0.722633303930014D+03 0.155721913505524D+03 0.487905897140502D+03 0.494239226628673D+03
 0.115340805117272D+04 -.434583717821819D+02 -.980411731229865D+02 0.114841169917620D+04
 0.169495880166689D+04 -.134854021859508D+03 -.395471450409216D+03 -.164265092580487D+04
 0.124399189170355D+03 0.225904801361661D+02 0.560672639169997D+01 0.122202263042171D+03
-.382569069510D-09 0.000000000000D+00 0.000000000000D+00 0.164627415750D-03 0.000000000000D+00  6 1 2 25 1 2 21 2 0.21336223D+00 0.37818187D+00 0.28919450D+06 0.28919450D+06 0.28919450D+06 0.10857325D+01  1  2 13  1  6  1        1 -.201040511850D-09 0.100000000000D+01
-.931288159862D-03 0.000000000000D+00 0.000000000000D+00 0.164627415750D-03 0.000000000000D+00  6 1 2 25 1 2 21 2 0.19951423D+00 0.37818187D+00 0.27267545D+06 0.27267545D+06 0.27267545D+06 0.10876338D+01  1  2  8  1  6  1        1 -.569492688913D-03 0.100000000000D+01
-.133834911426D-01 0.000000000000D+00 0.000000000000D+00 0.164627415750D-03 0.000000000000D+00  6 1 2 25 1 2 21 2 0.21334879D+00 0.37818187D+00 0.27267545D+06 0.27267545D+06 0.27267545D+06 0.10876338D+01  1  2  9  1  6  1        1 -.709789308939D-02 0.100000000000D+01
0.133534697448D-01 0.000000000000D+00 0.000000000000D+00 0.164627415750D-03 0.000000000000D+00  6 1 2 25 1 2 21 2 0.19951423D+00 0.37818187D+00 0.27267545D+06 0.27267545D+06 0.27267545D+06 0.10876338D+01  1  2 10  1  6  1        1 0.816578983720D-02 0.100000000000D+01
0.307056560189D-02 0.000000000000D+00 0.000000000000D+00 0.164627415750D-03 0.169334019493D-06  6 1 2 25 1 2 21 2 0.21329655D+00 0.37842257D+00 0.28919450D+06 0.28919450D+06 0.28919450D+06 0.10857325D+01  1  2  1  1  6  1        1 0.161132633869D-02 0.100000000000D+01
  </mgrwgt>
  </event>
  <event>
  6     66 -.17698235E-05 0.28444045E+02 0.75467711E-02 0.95371064E-01
        1 -1    0    0  501    0 0.00000000E+00 0.00000000E+00 0.11580880E+04 0.11580881E+04 0.32000000E+00 0.0000E+00 0.9000E+01
        2 -1    0    0  502    0 -.00000000E+00 -.00000000E+00 -.14760686E+04 0.14760686E+04 0.32000000E+00 0.0000E+00 0.9000E+01
       25  1    1    2    0    0 0.29824429E+03 0.34592596E+03 0.50971224E+03 0.69573415E+03 0.12500000E+03 0.0000E+00 0.9000E+01
        1  1    1    2  503    0 -.65258814E+01 -.24306788E+01 0.21795655E+03 0.21806801E+03 0.32000000E+00 0.0000E+00 0.9000E+01
        2  1    1    2  502    0 -.26737946E+03 -.33827532E+03 -.13488706E+04 0.14161123E+04 0.32000000E+00 0.0000E+00 0.9000E+01
       21  1    1    2  501  503 -.24338953E+02 -.52199610E+01 0.30322127E+03 0.30424222E+03 0.75000000E+00 0.0000E+00 0.9000E+01
#aMCatNLO 2  0  0  4  1 0.63825112D+01 0.00000000D+00  -5  6  0 0.00000000D+00 0.00000000D+00 0.00000000D+00 0.00000000D+00 0.00000000D+00
  <mgrwgt>
 -.9444164115D-02    3    2    0
 0.130744692005403D+04 0.000000000000000D+00 0.000000000000000D+00 0.130744692005403D+04
 0.130744692005403D+04 -.000000000000000D+00 -.000000000000000D+00 -.130744692005403D+04
 0.763343541202978D+03 0.298327286942398D+03 0.346057289000398D+03 0.598592970633289D+03
 0.588922496015556D+03 -.308403324310462D+02 -.764456644817477D+01 0.588064742024681D+03
 0.126262780288952D+04 -.267486954511351D+03 -.338412722552223D+03 -.118665771265797D+04
 0.000000000000000D+00 -.000000000000000D+00 0.000000000000000D+00 0.000000000000000D+00
 0.130744692005403D+04 0.000000000000000D+00 0.000000000000000D+00 0.130744692005403D+04
 0.130744692005403D+04 -.000000000000000D+00 -.000000000000000D+00 -.130744692005403D+04
 0.763374928772608D+03 0.298325114741901D+03 0.346056750564858D+03 0.598634390242748D+03
 0.246745488756932D+03 -.658918319945801D+01 -.244208102779849D+01 0.246645403620086D+03
 0.126256441696957D+04 -.267490547330788D+03 -.338413613124560D+03 -.118658920462744D+04
 0.342209005608938D+03 -.242453842116535D+02 -.520105641249952D+01 0.341309410764605D+03
-.717342201474D-02 0.000000000000D+00 0.000000000000D+00 0.153360059909D-03 0.000000000000D+00  6 1 2 25 1 2 21 2 0.17816739D+00 0.22708748D+00 0.21943319D+06 0.21943319D+06 0.21943319D+06 0.10947457D+01  1  2 13  3  6  4        1 -.196836271359D-01 0.100000000000D+01
-.313852482974D-09 0.000000000000D+00 0.000000000000D+00 0.153360059909D-03 0.000000000000D+00  6 1 2 25 1 2 21 2 0.17816739D+00 0.22708748D+00 0.21943319D+06 0.21943319D+06 0.21943319D+06 0.10947457D+01  1  2 13  3  6  4        1 -.861200587088D-09 0.100000000000D+01
0.373162909055D-02 0.000000000000D+00 0.000000000000D+00 0.153360059909D-03 0.294245350075D-05  6 1 2 25 1 2 21 2 0.17816739D+00 0.22708748D+00 0.21943319D+06 0.21943319D+06 0.21943319D+06 0.10947457D+01  1  2  1  3  6  4        1 0.102394638816D-01 0.100000000000D+01
  </mgrwgt>
  </event>
  <event>
  5     66 0.17698235E-05 0.42908619E+02 0.75467711E-02 0.87840376E-01
        1 -1    0    0  501    0 0.00000000E+00 0.00000000E+00 0.15815734E+04 0.15815734E+04 0.32000000E+00 0.0000E+00 0.9000E+01
        2 -1    0    0  502    0 0.00000000E+00 0.00000000E+00 -.16952632E+04 0.16952633E+04 0.32000000E+00 0.0000E+00 0.9000E+01
       25  1    1    2    0    0 -.44195786E+03 -.79223278E+03 -.47412939E+03 0.10312047E+04 0.12500000E+03 0.0000E+00 0.9000E+01
        1  1    1    2  501    0 -.39700848E+02 0.16287904E+02 0.10812899E+04 0.10821411E+04 0.32000000E+00 0.0000E+00 0.9000E+01
        2  1    1    2  502    0 0.48165870E+03 0.77594487E+03 -.72085037E+03 0.11634908E+04 0.32000000E+00 0.0000E+00 0.9000E+01
#aMCatNLO 1  0  0  1  1 0.46790094D+02 0.00000000D+00  -5  6  0 0.00000000D+00 0.00000000D+00 0.00000000D+00 0.00000000D+00 0.00000000D+00
  <mgrwgt>
 0.2196711207D-02    7    2    0
 0.163743193152087D+04 0.000000000000000D+00 0.000000000000000D+00 0.163743193152087D+04
 0.163743193152087D+04 0.000000000000000D+00 0.000000000000000D+00 -.163743193152087D+04
 0.101541758609426D+04 -.442001538839445D+03 -.792302642373004D+03 -.438564746305282D+03
 0.112023859532787D+04 -.396975758867093D+02 0.162865616715601D+02 0.111941652696384D+04
 0.113920768161961D+04 0.481699114726154D+03 0.776016080701444D+03 -.680851780658563D+03
 0.000000000000000D+00 -.000000000000000D+00 -.000000000000000D+00 0.000000000000000D+00
 0.208990656174148D+04 0.000000000000000D+00 0.000000000000000D+00 0.208990656174148D+04
 0.163880913296755D+04 0.000000000000000D+00 0.000000000000000D+00 -.163880913296755D+04
 0.100897965177959D+04 -.427543267161873D+03 -.792011777505864D+03 -.438564746305282D+03
 0.111979054064525D+04 -.236992583590721D+02 0.166084084735779D+02 0.111941652696384D+04
 0.114642791370022D+04 0.498023154185807D+03 0.776344480227645D+03 -.680851780658563D+03
 0.453517588583967D+03 -.467806286648624D+02 -.941111195359102D+00 0.451097428773934D+03
0.391836190719D-04 0.000000000000D+00 0.000000000000D+00 0.593531865946D-05 0.000000000000D+00  6 1 2 25 1 2 21 0 0.24331899D+00 0.26080973D+00 0.87618717D+06 0.87618717D+06 0.87618717D+06 0.10517066D+01  1  2  2  1  6  1        1 0.312792901474D-04 0.100000000000D+01
0.283267681151D-04 0.000000000000D+00 -.150475414520D-06 0.593531865946D-05 0.000000000000D+00  6 1 2 25 1 2 21 2 0.24331899D+00 0.26080973D+00 0.87618717D+06 0.87618717D+06 0.87618717D+06 0.10517066D+01  1  2  3  1  6  1        1 0.250114325033D-04 0.100000000000D+01
-.241562881239D-04 0.000000000000D+00 0.000000000000D+00 0.593531865946D-05 0.000000000000D+00  6 1 2 25 1 2 21 2 0.24331899D+00 0.26080973D+00 0.87618717D+06 0.87618717D+06 0.87618717D+06 0.10517066D+01  1  2 15  1  6  1        1 -.213290611723D-04 0.100000000000D+01
-.202121230607D-03 0.000000000000D+00 0.000000000000D+00 0.593531865946D-05 0.000000000000D+00  6 1 2 25 1 2 21 2 0.24331899D+00 0.26080973D+00 0.87618717D+06 0.87618717D+06 0.87618717D+06 0.10517066D+01  1  2  4  1  6  1        1 -.178465171045D-03 0.100000000000D+01
-.578633141825D-02 0.000000000000D+00 -.390901411544D-04 0.593531865946D-05 0.000000000000D+00  6 1 2 25 1 2 21 2 0.31063520D+00 0.26080973D+00 0.87618717D+06 0.87618717D+06 0.87618717D+06 0.10517066D+01  1  2  5  1  6  1        1 -.258875382654D-02 0.100000000000D+01
0.562829931760D-02 0.000000000000D+00 0.379524548015D-04 0.593531865946D-05 0.000000000000D+00  6 1 2 25 1 2 21 2 0.24331899D+00 0.26080973D+00 0.87618717D+06 0.87618717D+06 0.87618717D+06 0.10517066D+01  1  2  6  1  6  1        1 0.496956899278D-02 0.100000000000D+01
-.191856592441D-03 0.000000000000D+00 -.130036590299D-05 0.593531865946D-05 0.000000000000D+00  6 21 2 25 1 2 -1 2 0.31063520D+00 0.26080973D+00 0.87618717D+06 0.87618717D+06 0.87618717D+06 0.10517066D+01  1  2  5  5  6  1        1 -.406004493087D-04 0.100000000000D+01
  </mgrwgt>
  </event>
  <event>
  5     66 0.17698235E-05 0.17017869E+03 0.75467711E-02 0.89886699E-01
        1 -1    0    0  501    0 0.00000000E+00 0.00000000E+00 0.63948443E+03 0.63948451E+03 0.32000000E+00 0.0000E+00 0.9000E+01
        2 -1    0    0  502    0 -.00000000E+00 -.00000000E+00 -.22726776E+04 0.22726776E+04 0.32000000E+00 0.0000E+00 0.9000E+01
       25  1    1    2    0    0 0.61061497E+03 -.25850136E+03 -.90715315E+03 0.11305863E+04 0.12500000E+03 0.0000E+00 0.9000E+01
        1  1    1    2  501    0 -.56221727E+03 0.42164427E+03 0.28350355E+03 0.75779055E+03 0.32000000E+00 0.0000E+00 0.9000E+01
        2  1    1    2  502    0 -.48397695E+02 -.16314291E+03 -.10095436E+04 0.10237852E+04 0.32000000E+00 0.0000E+00 0.9000E+01
#aMCatNLO 1  0  0  5  2 0.24194044D+02 0.00000000D+00  -5  6  0 0.00000000D+00 0.00000000D+00 0.00000000D+00 0.00000000D+00 0.00000000D+00
  <mgrwgt>
 0.1459816706D-03    8    2    0
 0.120554638142422D+04 0.000000000000000D+00 0.000000000000000D+00 0.120554638142422D+04
 0.120554638142422D+04 -.000000000000000D+00 -.000000000000000D+00 -.120554638142422D+04
 0.751047644911681D+03 0.610614688344097D+03 -.258490277050030D+03 -.329818198370589D+03
 0.110729910234392D+04 -.562212213362294D+03 0.421640473928558D+03 0.855714929134239D+03
 0.552746015592841D+03 -.484024749818036D+02 -.163150196878528D+03 -.525896730763649D+03
 0.000000000000000D+00 0.000000000000000D+00 -.000000000000000D+00 0.000000000000000D+00
 0.120554638142422D+04 0.000000000000000D+00 0.000000000000000D+00 0.120554638142422D+04
 0.120554638142422D+04 -.000000000000000D+00 -.000000000000000D+00 -.120554638142422D+04
 0.751346371483917D+03 0.610556371409052D+03 -.258686845912212D+03 -.330451816496521D+03
 0.110651107388268D+04 -.562298144631216D+03 0.421350825445751D+03 0.854781279079911D+03
 0.300749832935857D+03 -.462104758585843D+02 -.750116063841310D+02 -.287555756053571D+03
 0.252485484545980D+03 -.204775091925228D+01 -.876523731494072D+02 -.236773706529818D+03
0.382076737291D-05 0.000000000000D+00 0.000000000000D+00 0.235265316249D-06 0.000000000000D+00  6 1 2 25 1 2 21 0 0.98382228D-01 0.34964271D+00 0.59883331D+06 0.59883331D+06 0.59883331D+06 0.10630177D+01  1  2  2  4  6  5        2 0.801193373041D-05 0.100000000000D+01
0.473365630870D-06 0.000000000000D+00 -.146727527431D-07 0.235265316249D-06 0.000000000000D+00  6 1 2 25 1 2 21 2 0.98382228D-01 0.34964271D+00 0.59883331D+06 0.59883331D+06 0.59883331D+06 0.10630177D+01  1  2  3  4  6  5        2 0.112166831802D-05 0.100000000000D+01
-.270834947462D-05 0.000000000000D+00 0.000000000000D+00 0.235265316249D-06 0.000000000000D+00  6 1 2 25 1 2 21 2 0.98382228D-01 0.34964271D+00 0.59883331D+06 0.59883331D+06 0.59883331D+06 0.10630177D+01  1  2 15  4  6  5        2 -.641759688853D-05 0.100000000000D+01
0.936605700581D-04 0.000000000000D+00 0.000000000000D+00 0.235265316249D-06 0.000000000000D+00  6 1 2 25 1 2 21 2 0.98382228D-01 0.34964271D+00 0.60311118D+06 0.60311118D+06 0.60311118D+06 0.10628027D+01  1  2 12  4  6  5        2 0.221736190431D-03 0.100000000000D+01
0.436447816053D-08 0.000000000000D+00 0.000000000000D+00 0.235265316249D-06 0.000000000000D+00  6 1 2 25 1 2 21 2 0.98382228D-01 0.34964271D+00 0.60311118D+06 0.60311118D+06 0.60311118D+06 0.10628027D+01  1  2 12  4  6  5        2 0.103326593030D-07 0.100000000000D+01
-.919301659638D-04 0.000000000000D+00 0.000000000000D+00 0.235265316249D-06 0.000000000000D+00  6 1 2 25 1 2 21 2 0.98382228D-01 0.34964271D+00 0.59883331D+06 0.59883331D+06 0.59883331D+06 0.10630177D+01  1  2  4  4  6  5        2 -.217834054497D-03 0.100000000000D+01
-.971386877666D-04 0.000000000000D+00 0.000000000000D+00 0.235265316249D-06 0.000000000000D+00  6 1 2 25 1 2 21 2 0.98382228D-01 0.34964271D+00 0.59883331D+06 0.59883331D+06 0.59883331D+06 0.10630177D+01  1  2  5  4  6  5        2 -.230175960011D-03 0.100000000000D+01
0.155948420443D-03 0.000000000000D+00 -.000000000000D+00 0.235265316249D-06 0.000000000000D+00  6 1 2 25 1 2 21 2 0.98382228D-01 0.34964271D+00 0.59883331D+06 0.59883331D+06 0.59883331D+06 0.10630177D+01  1  2  6  4  6  5        2 0.369529156847D-03 0.100000000000D+01
  </mgrwgt>
  </event>
  <event>
  5     66 -.17698235E-05 0.90321477E+02 0.75467711E-02 0.91660734E-01
        1 -1    0    0  501    0 0.00000000E+00 0.00000000E+00 0.10031108E+04 0.10031108E+04 0.32000000E+00 0.0000E+00 0.9000E+01
        2 -1    0    0  502    0 -.00000000E+00 -.00000000E+00 -.24643674E+04 0.24643675E+04 0.32000000E+00 0.0000E+00 0.9000E+01
       25  1    1    2    0    0 -.49206685E+03 -.31879953E+03 -.28581008E+03 0.66413502E+03 0.12500000E+03 0.0000E+00 0.9000E+01
        1  1    1    2  501    0 -.37662673E+02 0.82099603E+02 0.76894415E+03 0.77423125E+03 0.32000000E+00 0.0000E+00 0.9000E+01
        2  1    1    2  502    0 0.52972953E+03 0.23669992E+03 -.19443907E+04 0.20291120E+04 0.32000000E+00 0.0000E+00 0.9000E+01
#aMCatNLO 1  0  0  5  1 0.14862197D+03 0.00000000D+00  -5  6  0 0.00000000D+00 0.00000000D+00 0.00000000D+00 0.00000000D+00 0.00000000D+00
  <mgrwgt>
 -.2669816504D-02    4    2    0
 0.157227023133579D+04 0.000000000000000D+00 0.000000000000000D+00 0.157227023133579D+04
 0.157227023133579D+04 -.000000000000000D+00 -.000000000000000D+00 -.157227023133579D+04
 0.599574313410259D+03 -.492114944700467D+03 -.318818381291930D+03 -.648677533396330D+01
 0.121100546371353D+04 -.376607050268286D+02 0.820953135053079D+02 0.120763250367873D+04
 0.133396068554780D+04 0.529775649727295D+03 0.236723067786622D+03 -.120114572834477D+04
 0.000000000000000D+00 0.000000000000000D+00 0.000000000000000D+00 -.000000000000000D+00
 0.157227023133579D+04 0.000000000000000D+00 0.000000000000000D+00 0.157227023133579D+04
 0.157227023133579D+04 -.000000000000000D+00 -.000000000000000D+00 -.157227023133579D+04
 0.597464859523209D+03 -.490056468439473D+03 -.317898579078069D+03 -.111539018224401D+02
 0.120163047864575D+04 -.335118401224351D+02 0.839491775485228D+02 0.119822589663676D+04
 0.483867813599260D+03 0.272951500536814D+03 -.919689971683157D+01 -.399425783378625D+03
 0.861577310903367D+03 0.250616808025094D+03 0.243146301246378D+03 -.787646211435691D+03
0.128055694196D-02 0.000000000000D+00 0.000000000000D+00 0.349083418397D-04 0.000000000000D+00  6 1 2 25 1 2 21 0 0.15432474D+00 0.37913346D+00 0.40330076D+06 0.40330076D+06 0.40330076D+06 0.10751704D+01  1  2  2  4  6  5        2 0.103660575477D-02 0.100000000000D+01
0.440145669200D-03 0.000000000000D+00 -.491767583553D-05 0.349083418397D-04 0.000000000000D+00  6 1 2 25 1 2 21 2 0.15432474D+00 0.37913346D+00 0.40330076D+06 0.40330076D+06 0.40330076D+06 0.10751704D+01  1  2  3  4  6  5        2 0.411875325424D-03 0.100000000000D+01
-.812470896467D-03 0.000000000000D+00 0.000000000000D+00 0.349083418397D-04 0.000000000000D+00  6 1 2 25 1 2 21 2 0.15432474D+00 0.37913346D+00 0.40330076D+06 0.40330076D+06 0.40330076D+06 0.10751704D+01  1  2 15  4  6  5        2 -.760286283149D-03 0.100000000000D+01
-.358849884931D-02 0.000000000000D+00 0.000000000000D+00 0.349083418397D-04 0.000000000000D+00  6 1 2 25 1 2 21 2 0.15432474D+00 0.37913346D+00 0.40330076D+06 0.40330076D+06 0.40330076D+06 0.10751704D+01  1  2  5  4  6  5        2 -.335801130119D-02 0.100000000000D+01
  </mgrwgt>
  </event>
  <event>
  5     66 0.17698235E-05 0.10745995E+03 0.75467711E-02 0.87780100E-01
        1 -1    0    0  501    0 0.00000000E+00 0.00000000E+00 0.16784231E+04 0.16784232E+04 0.32000000E+00 0.0000E+00 0.9000E+01
        2 -1    0    0  502    0 0.00000000E+00 0.00000000E+00 -.15578902E+04 0.15578903E+04 0.32000000E+00 0.0000E+00 0.9000E+01
       25  1    1    2    0    0 -.27404210E+03 0.62620131E+03 -.61902650E+03 0.93061590E+03 0.12500000E+03 0.0000E+00 0.9000E+01
        1  1    1    2  501    0 -.52492672E+01 -.10733479E+03 0.14094384E+04 0.14135293E+04 0.32000000E+00 0.0000E+00 0.9000E+01
        2  1    1    2  502    0 0.27929137E+03 -.51886652E+03 -.66987904E+03 0.89216823E+03 0.32000000E+00 0.0000E+00 0.9000E+01
#aMCatNLO 1  0  0  1  4 0.21129540D+03 0.00000000D+00  -5  6  0 0.00000000D+00 0.00000000D+00 0.00000000D+00 0.00000000D+00 0.00000000D+00
  <mgrwgt>
 0.1822244312D-02    7    2    0
 0.161703405377489D+04 0.000000000000000D+00 0.000000000000000D+00 0.161703405377489D+04
 0.161703405377489D+04 0.000000000000000D+00 0.000000000000000D+00 -.161703405377489D+04
 0.954342335857797D+03 -.274064147972298D+03 0.626244079678396D+03 -.654103577023161D+03
 0.136194163035958D+04 -.524911455542189D+01 -.107331673029851D+03 0.135769560773669D+04
 0.917784141332402D+03 0.279313262527720D+03 -.518912406648545D+03 -.703592030713531D+03
 0.000000000000000D+00 0.000000000000000D+00 0.000000000000000D+00 0.000000000000000D+00
 0.198468864915443D+04 0.000000000000000D+00 0.000000000000000D+00 0.198468864915443D+04
 0.172334643133287D+04 0.000000000000000D+00 0.000000000000000D+00 -.172334643133287D+04
 0.910376418117942D+03 -.321368156484522D+03 0.531066136360152D+03 -.654103577023161D+03
 0.138207934157084D+04 -.748591783450234D+02 -.247390473840230D+03 0.135769560773669D+04
 0.962694259604818D+03 0.231609464785927D+03 -.614894745150790D+03 -.703592030713531D+03
 0.452885061193703D+03 0.164617870043619D+03 0.331219082630867D+03 0.261342217821563D+03
0.908736258615D-03 0.000000000000D+00 0.000000000000D+00 0.707259186087D-05 0.000000000000D+00  6 1 2 25 1 2 21 0 0.25821895D+00 0.23967543D+00 0.48420206D+06 0.48420206D+06 0.48420206D+06 0.10694972D+01  1  2  2  1  6  1        1 0.778876401473D-03 0.100000000000D+01
0.291867041878D-03 0.000000000000D+00 -.348978650883D-05 0.707259186087D-05 0.000000000000D+00  6 1 2 25 1 2 21 2 0.25821895D+00 0.23967543D+00 0.48420206D+06 0.48420206D+06 0.48420206D+06 0.10694972D+01  1  2  3  1  6  1        1 0.286137697295D-03 0.100000000000D+01
-.550727486943D-03 0.000000000000D+00 0.000000000000D+00 0.707259186087D-05 0.000000000000D+00  6 1 2 25 1 2 21 2 0.25821895D+00 0.23967543D+00 0.48420206D+06 0.48420206D+06 0.48420206D+06 0.10694972D+01  1  2 15  1  6  1        1 -.539916716656D-03 0.100000000000D+01
-.356112374401D-04 0.000000000000D+00 0.000000000000D+00 0.707259186087D-05 0.000000000000D+00  6 1 2 25 1 2 21 2 0.25821895D+00 0.23967543D+00 0.48420206D+06 0.48420206D+06 0.48420206D+06 0.10694972D+01  1  2  4  1  6  1        1 -.349121895140D-04 0.100000000000D+01
-.246453728444D-02 0.000000000000D+00 -.932335731372D-03 0.707259186087D-05 0.000000000000D+00  6 1 2 25 1 2 21 2 0.32517539D+00 0.23967543D+00 0.48420206D+06 0.48420206D+06 0.48420206D+06 0.10694972D+01  1  2  5  1  6  1        1 -.123504149926D-02 0.100000000000D+01
0.263343367740D-02 0.000000000000D+00 0.908093122726D-03 0.707259186087D-05 0.000000000000D+00  6 1 2 25 1 2 21 2 0.25821895D+00 0.23967543D+00 0.48420206D+06 0.48420206D+06 0.48420206D+06 0.10694972D+01  1  2  6  1  6  1        1 0.258173942348D-02 0.100000000000D+01
-.648762296437D-04 0.000000000000D+00 -.297123963933D-04 0.707259186087D-05 0.000000000000D+00  6 21 2 25 1 2 -1 2 0.32517539D+00 0.23967543D+00 0.48420206D+06 0.48420206D+06 0.48420206D+06 0.10694972D+01  1  2  5  5  6  1        1 -.146388049429D-04 0.100000000000D+01
  </mgrwgt>
  </event>
  <event>
  5     66 0.17698235E-05 0.15860408E+03 0.75467711E-02 0.94270479E-01
        1 -1    0    0  501    0 0.00000000E+00 0.00000000E+00 0.11254235E+04 0.11254235E+04 0.32000000E+00 0.0000E+00 0.9000E+01
        2 -1    0    0  502    0 -.00000000E+00 -.00000000E+00 -.12566966E+04 0.12566967E+04 0.32000000E+00 0.0000E+00 0.9000E+01
       25  1    1    2    0    0 -.44918649E+03 0.35450174E+02 0.25007084E+02 0.46826869E+03 0.12500000E+03 0.0000E+00 0.9000E+01
        1  1    1    2  501    0 0.81567754E+02 0.13603561E+03 0.83125255E+03 0.84625049E+03 0.32000000E+00 0.0000E+00 0.9000E+01
        2  1    1    2  502    0 0.36761873E+03 -.17148578E+03 -.98753275E+03 0.10676010E+04 0.32000000E+00 0.0000E+00 0.9000E+01
#aMCatNLO 1  0  0  4  1 0.16019298D+01 0.00000000D+00  -5  6  0 0.00000000D+00 0.00000000D+00 0.00000000D+00 0.00000000D+00 0.00000000D+00
  <mgrwgt>
 0.1932734774D-01    4    2    0
 0.118925018585707D+04 0.000000000000000D+00 0.000000000000000D+00 0.118925018585707D+04
 0.118925018585707D+04 -.000000000000000D+00 -.000000000000000D+00 -.118925018585707D+04
 0.470407260773703D+03 -.449224689597225D+03 0.354763613045859D+02 0.509568153781340D+02
 0.893350218957529D+03 0.815617078131571D+02 0.136025520698624D+03 0.879158324335688D+03
 0.101474289198292D+04 0.367662981784068D+03 -.171501882003210D+03 -.930115139713822D+03
 0.000000000000000D+00 0.000000000000000D+00 0.000000000000000D+00 -.000000000000000D+00
 0.118925018585707D+04 0.000000000000000D+00 0.000000000000000D+00 0.118925018585707D+04
 0.118925018585707D+04 -.000000000000000D+00 -.000000000000000D+00 -.118925018585707D+04
 0.478179916953295D+03 -.442600737345842D+03 0.465235374640328D+02 0.122356776437638D+03
 0.492535959070238D+03 0.959227398844794D+02 -.319744345908769D+03 0.362151973913808D+03
 0.886988902979485D+03 0.380942710733129D+03 -.149354454080653D+03 -.786972180063766D+03
 0.520795592711131D+03 -.342647132717666D+02 0.422575262525389D+03 0.302463429712321D+03
0.122319701399D-01 0.000000000000D+00 0.000000000000D+00 0.934910616749D-05 0.000000000000D+00  6 1 2 25 1 2 21 0 0.17314208D+00 0.19333795D+00 0.26622448D+06 0.26622448D+06 0.26622448D+06 0.10884107D+01  1  2  2  3  6  4        1 0.387227233754D-01 0.100000000000D+01
0.179105508395D-02 0.000000000000D+00 -.469739860890D-04 0.934910616749D-05 0.000000000000D+00  6 1 2 25 1 2 21 2 0.17314208D+00 0.19333795D+00 0.26622448D+06 0.26622448D+06 0.26622448D+06 0.10884107D+01  1  2  3  3  6  4        1 0.671682453823D-02 0.100000000000D+01
-.677357270079D-02 0.000000000000D+00 0.000000000000D+00 0.934910616749D-05 0.000000000000D+00  6 1 2 25 1 2 21 2 0.17314208D+00 0.19333795D+00 0.26622448D+06 0.26622448D+06 0.26622448D+06 0.10884107D+01  1  2 15  3  6  4        1 -.254022892628D-01 0.100000000000D+01
-.189299206355D-03 0.000000000000D+00 0.000000000000D+00 0.934910616749D-05 0.000000000000D+00  6 1 2 25 1 2 21 2 0.17314208D+00 0.19333795D+00 0.26622448D+06 0.26622448D+06 0.26622448D+06 0.10884107D+01  1  2  4  3  6  4        1 -.709910915476D-03 0.100000000000D+01
  </mgrwgt>
  </event>
  <event>
  6     66 0.17698235E-05 0.15407160E+03 0.75467711E-02 0.95292726E-01
        1 -1    0    0  503    0 0.00000000E+00 0.00000000E+00 0.48156937E+03 0.48156947E+03 0.32000000E+00 0.0000E+00 0.9000E+01
        2 -1    0    0  502    0 0.00000000E+00 0.00000000E+00 -.76044931E+03 0.76044938E+03 0.32000000E+00 0.0000E+00 0.9000E+01
       25  1    1    2    0    0 0.42640864E+03 0.15216443E+03 -.39259348E+03 0.61215438E+03 0.12500000E+03 0.0000E+00 0.9000E+01
        1  1    1    2  501    0 -.11461711E+03 -.10991082E+03 0.20894994E+03 0.26244552E+03 0.32000000E+00 0.0000E+00 0.9000E+01
        2  1    1    2  502    0 -.30265540E+03 -.40295086E+02 -.12967878E+03 0.33172379E+03 0.32000000E+00 0.0000E+00 0.9000E+01
       21  1    1    2  503  501 -.91361314E+01 -.19585201E+01 0.34442376E+02 0.35695161E+02 0.75000000E+00 0.0000E+00 0.9000E+01
#aMCatNLO 2  0  0  1  4 0.20729108D+01 0.00000000D+00  -5  6  0 0.00000000D+00 0.00000000D+00 0.00000000D+00 0.00000000D+00 0.00000000D+00
  <mgrwgt>
 0.6392097716D-02    1    2    0
 0.582442843777742D+03 0.000000000000000D+00 0.000000000000000D+00 0.582442843777742D+03
 0.582442843777742D+03 0.000000000000000D+00 0.000000000000000D+00 -.582442843777742D+03
 0.524739301501107D+03 0.422345490158817D+03 0.151281307323207D+03 -.241794515109339D+03
 0.328949370784996D+03 -.117151822207022D+03 -.110423745169549D+03 0.286861875466486D+03
 0.311197015269382D+03 -.305193667951795D+03 -.408575621536575D+02 -.450673603571469D+02
 0.000000000000000D+00 -.000000000000000D+00 -.000000000000000D+00 0.000000000000000D+00
 0.628205625781715D+03 0.000000000000000D+00 0.000000000000000D+00 0.628205625781715D+03
 0.582938717174917D+03 0.000000000000000D+00 0.000000000000000D+00 -.582938717174917D+03
 0.528322962023886D+03 0.426474977077413D+03 0.152166548858649D+03 -.241794515109339D+03
 0.327855482447726D+03 -.114576222317594D+03 -.109871611685233D+03 0.286861875466486D+03
 0.308744715985115D+03 -.302762623408486D+03 -.403364171187727D+02 -.450673603571469D+02
 0.462211824999048D+02 -.913613135133326D+01 -.195852005464328D+01 0.452669086067985D+02
0.215106382412D-03 0.000000000000D+00 0.000000000000D+00 0.234247017415D-07 0.364348405042D-08  6 1 2 25 1 2 21 2 0.74087222D-01 0.11699160D+00 0.22243963D+06 0.22243963D+06 0.22243963D+06 0.10942960D+01  1  2  1  1  6  1        1 0.639209771572D-02 0.100000000000D+01
  </mgrwgt>
  </event>
  <event>
  5     66 0.17698235E-05 0.40152465E+02 0.75467711E-02 0.95256612E-01
        1 -1    0    0  501    0 0.00000000E+00 0.00000000E+00 0.88865630E+03 0.88865635E+03 0.32000000E+00 0.0000E+00 0.9000E+01
        2 -1    0    0  502    0 -.00000000E+00 -.00000000E+00 -.98266820E+03 0.98266825E+03 0.32000000E+00 0.0000E+00 0.9000E+01
       25  1    1    2    0    0 0.32507266E+02 0.45181162E+03 -.26845085E+03 0.54118511E+03 0.12500000E+03 0.0000E+00 0.9000E+01
        1  1    1    2  501    0 0.44659895E+01 -.43615845E+03 0.68821496E+03 0.81479695E+03 0.32000000E+00 0.0000E+00 0.9000E+01
        2  1    1    2  502    0 -.36973256E+02 -.15653173E+02 -.51377602E+03 0.51534255E+03 0.32000000E+00 0.0000E+00 0.9000E+01
#aMCatNLO 1  0  0  4  1 0.17179565D+02 0.00000000D+00  -5  6  0 0.00000000D+00 0.00000000D+00 0.00000000D+00 0.00000000D+00 0.00000000D+00
  <mgrwgt>
 0.2522293931D-01    4    2    0
 0.934480811330173D+03 0.000000000000000D+00 0.000000000000000D+00 0.934480811330173D+03
 0.934480811330173D+03 -.000000000000000D+00 -.000000000000000D+00 -.934480811330173D+03
 0.528349107698599D+03 0.325092328950857D+02 0.451808706037972D+03 -.241536379311216D+03
 0.850437583561200D+03 0.446594829999393D+01 -.436154427552065D+03 0.730064006896604D+03
 0.490174931400548D+03 -.369751811950796D+02 -.156542784859069D+02 -.488527627585388D+03
 0.000000000000000D+00 0.000000000000000D+00 0.000000000000000D+00 0.000000000000000D+00
 0.934480811330173D+03 0.000000000000000D+00 0.000000000000000D+00 0.934480811330173D+03
 0.934480811330173D+03 -.000000000000000D+00 -.000000000000000D+00 -.934480811330173D+03
 0.404147064632343D+03 0.333586340980366D+02 0.368854298474504D+03 -.102681828377441D+03
 0.788013052415271D+03 -.191464116032695D+03 -.450436717944810D+03 0.617586290469404D+03
 0.373385646183864D+03 -.361885727186206D+02 -.924762089498291D+02 -.359938020718843D+03
 0.303415859428868D+03 0.194294054653279D+03 0.174058628420135D+03 -.154966441373119D+03
0.501447602753D-02 0.000000000000D+00 0.000000000000D+00 0.283775424884D-04 0.000000000000D+00  6 1 2 25 1 2 21 0 0.13671636D+00 0.15117973D+00 0.22384119D+06 0.22384119D+06 0.22384119D+06 0.10940886D+01  1  2  2  3  6  4        1 0.353415515889D-01 0.100000000000D+01
0.202010510570D-02 0.000000000000D+00 -.192569082876D-04 0.283775424884D-04 0.000000000000D+00  6 1 2 25 1 2 21 2 0.13671636D+00 0.15117973D+00 0.22384119D+06 0.22384119D+06 0.22384119D+06 0.10940886D+01  1  2  3  3  6  4        1 0.170427240563D-01 0.100000000000D+01
-.321252678595D-02 0.000000000000D+00 0.000000000000D+00 0.283775424884D-04 0.000000000000D+00  6 1 2 25 1 2 21 2 0.13671636D+00 0.15117973D+00 0.22384119D+06 0.22384119D+06 0.22384119D+06 0.10940886D+01  1  2 15  3  6  4        1 -.271026529174D-01 0.100000000000D+01
-.695585278881D-05 0.000000000000D+00 0.000000000000D+00 0.283775424884D-04 0.000000000000D+00  6 1 2 25 1 2 21 2 0.13671636D+00 0.15117973D+00 0.22384119D+06 0.22384119D+06 0.22384119D+06 0.10940886D+01  1  2  4  3  6  4        1 -.586834216306D-04 0.100000000000D+01
  </mgrwgt>
  </event>
  <event>
  5     66 0.17698235E-05 0.60028081E+02 0.75467711E-02 0.92964553E-01
        1 -1    0    0  501    0 0.00000000E+00 0.00000000E+00 0.88318295E+03 0.88318301E+03 0.32000000E+00 0.0000E+00 0.9000E+01
        2 -1    0    0  502    0 0.00000000E+00 0.00000000E+00 -.89240086E+03 0.89240092E+03 0.32000000E+00 0.0000E+00 0.9000E+01
       25  1    1    2    0    0 -.43656109E+03 -.21751892E+03 -.17292485E+03 0.53237963E+03 0.12500000E+03 0.0000E+00 0.9000E+01
        1  1    1    2  501    0 0.40304361E+03 0.16772741E+03 0.63363368E+03 0.76945979E+03 0.32000000E+00 0.0000E+00 0.9000E+01
        2  1    1    2  502    0 0.33517483E+02 0.49791513E+02 -.46992674E+03 0.47374451E+03 0.32000000E+00 0.0000E+00 0.9000E+01
#aMCatNLO 1  0  0  2  2 0.20803178D+03 0.00000000D+00  -5  6  0 0.00000000D+00 0.00000000D+00 0.00000000D+00 0.00000000D+00 0.00000000D+00
  <mgrwgt>
 0.2427319085D-02    7    2    0
 0.887780000852625D+03 0.000000000000000D+00 0.000000000000000D+00 0.887780000852625D+03
 0.887780000852625D+03 0.000000000000000D+00 0.000000000000000D+00 -.887780000852625D+03
 0.531463883579561D+03 -.436554297066140D+03 -.217519524670392D+03 -.170101327595420D+03
 0.772739330262004D+03 0.403033014100918D+03 0.167722998084157D+03 0.637620151808396D+03
 0.471356787863685D+03 0.335212829652227D+02 0.497965265862343D+02 -.467518824212975D+03
 0.000000000000000D+00 0.000000000000000D+00 0.000000000000000D+00 -.000000000000000D+00
 0.925747424238082D+03 0.000000000000000D+00 0.000000000000000D+00 0.925747424238082D+03
 0.123307187464132D+04 0.000000000000000D+00 0.000000000000000D+00 -.123307187464132D+04
 0.591760636302351D+03 -.498551478829957D+03 -.238888283479332D+03 -.170101327595420D+03
 0.726978037353235D+03 0.320255039983890D+03 0.139191659831750D+03 0.637620151808396D+03
 0.468966710269007D+03 -.183805459199319D+02 0.319073640205088D+02 -.467518824212975D+03
 0.371113914954804D+03 0.196676984765999D+03 0.677892596270731D+02 -.307324450403234D+03
0.125111471978D-03 0.000000000000D+00 0.000000000000D+00 0.107584587737D-04 0.000000000000D+00  6 1 2 25 1 2 21 0 0.13587431D+00 0.13729245D+00 0.25003727D+06 0.25003727D+06 0.25003727D+06 0.10904542D+01  1  2  2  2  6  2        2 0.101195399563D-02 0.100000000000D+01
0.375415103918D-04 0.000000000000D+00 -.480460995002D-06 0.107584587737D-04 0.000000000000D+00  6 1 2 25 1 2 21 2 0.13587431D+00 0.13729245D+00 0.25003727D+06 0.25003727D+06 0.25003727D+06 0.10904542D+01  1  2  3  2  6  2        2 0.361069052028D-03 0.100000000000D+01
-.780624128451D-04 0.000000000000D+00 0.000000000000D+00 0.107584587737D-04 0.000000000000D+00  6 1 2 25 1 2 21 2 0.13587431D+00 0.13729245D+00 0.25003727D+06 0.25003727D+06 0.25003727D+06 0.10904542D+01  1  2 15  2  6  2        2 -.750793484622D-03 0.100000000000D+01
-.536094719020D-05 0.000000000000D+00 0.000000000000D+00 0.107584587737D-04 0.000000000000D+00  6 1 2 25 1 2 21 2 0.13587431D+00 0.13729245D+00 0.25003727D+06 0.25003727D+06 0.25003727D+06 0.10904542D+01  1  2  4  2  6  2        2 -.515608482380D-04 0.100000000000D+01
-.464489293897D-03 0.000000000000D+00 -.988021536936D-04 0.107584587737D-04 0.000000000000D+00  6 1 2 25 1 2 21 2 0.13587431D+00 0.19422751D+00 0.25003727D+06 0.25003727D+06 0.25003727D+06 0.10904542D+01  1  2  5  2  6  2        2 -.266961699116D-02 0.100000000000D+01
0.475523594808D-03 0.000000000000D+00 0.931409003298D-04 0.107584587737D-04 0.000000000000D+00  6 1 2 25 1 2 21 2 0.13587431D+00 0.13729245D+00 0.25003727D+06 0.25003727D+06 0.25003727D+06 0.10904542D+01  1  2  6  2  6  2        2 0.457352013284D-02 0.100000000000D+01
-.171793717001D-04 0.000000000000D+00 -.424096937763D-05 0.107584587737D-04 0.000000000000D+00  6 1 21 25 1 2 -2 2 0.13587431D+00 0.19422751D+00 0.25003727D+06 0.25003727D+06 0.25003727D+06 0.10904542D+01  1  2  5  6  6  2        2 -.472527714863D-04 0.100000000000D+01
  </mgrwgt>
  </event>
  <event>
  5     66 0.17698235E-05 0.19051891E+03 0.75467711E-02 0.93295531E-01
        1 -1    0    0  501    0 0.00000000E+00 0.00000000E+00 0.26706938E+03 0.26706957E+03 0.32000000E+00 0.0000E+00 0.9000E+01
        2 -1    0    0  502    0 0.00000000E+00 0.00000000E+00 -.32417043E+04 0.32417043E+04 0.32000000E+00 0.0000E+00 0.9000E+01
       25  1    1    2    0    0 0.25399484E+02 0.49212516E+03 -.78266262E+03 0.93328350E+03 0.12500000E+03 0.0000E+00 0.9000E+01
        1  1    1    2  501    0 -.15540189E+03 -.11026455E+03 0.12223908E+03 0.22638577E+03 0.32000000E+00 0.0000E+00 0.9000E+01
        2  1    1    2  502    0 0.13000241E+03 -.38186061E+03 -.23142113E+04 0.23491046E+04 0.32000000E+00 0.0000E+00 0.9000E+01
#aMCatNLO 1  0  0  1  5 0.31699355D+02 0.00000000D+00  -5  6  0 0.00000000D+00 0.00000000D+00 0.00000000D+00 0.00000000D+00 0.00000000D+00
  <mgrwgt>
 0.3098068299D-02    9    2    0
 0.930462420223353D+03 0.000000000000000D+00 0.000000000000000D+00 0.930462420223353D+03
 0.930462420223353D+03 0.000000000000000D+00 0.000000000000000D+00 -.930462420223353D+03
 0.508689900979361D+03 0.253657902934708D+02 0.492172898693246D+03 0.162120274200219D+02
 0.622155393467754D+03 -.155379282445829D+03 -.110248510320163D+03 0.592266728915123D+03
 0.730079545999591D+03 0.130013492152358D+03 -.381924388373083D+03 -.608478756335145D+03
 0.000000000000000D+00 0.000000000000000D+00 -.000000000000000D+00 0.000000000000000D+00
 0.950733983084312D+03 0.000000000000000D+00 0.000000000000000D+00 0.950733983084312D+03
 0.943072822866296D+03 0.000000000000000D+00 0.000000000000000D+00 -.943072822866296D+03
 0.516761468125818D+03 0.231432557721813D+02 0.500618592162483D+03 0.162120274200219D+02
 0.621103067114024D+03 -.158073885945105D+03 -.100008941504461D+03 0.592266728915123D+03
 0.723330272100082D+03 0.126863412498043D+03 -.369953997403144D+03 -.608478756335145D+03
 0.326119986106848D+02 0.806721767488042D+01 -.306556532548778D+02 0.766116021801556D+01
0.105041931655D-02 0.000000000000D+00 0.000000000000D+00 0.914069242096D-06 0.000000000000D+00  6 1 2 25 1 2 21 0 0.41087613D-01 0.49872375D+00 0.30382019D+06 0.30382019D+06 0.30382019D+06 0.10841455D+01  1  2  2  1  6  1        1 0.197996907738D-02 0.100000000000D+01
0.107894851654D-03 0.000000000000D+00 -.403388675732D-05 0.914069242096D-06 0.000000000000D+00  6 1 2 25 1 2 21 2 0.41087613D-01 0.49872375D+00 0.30382019D+06 0.30382019D+06 0.30382019D+06 0.10841455D+01  1  2  3  1  6  1        1 0.239040559031D-03 0.100000000000D+01
-.600354941431D-03 0.000000000000D+00 0.000000000000D+00 0.914069242096D-06 0.000000000000D+00  6 1 2 25 1 2 21 2 0.41087613D-01 0.49872375D+00 0.30382019D+06 0.30382019D+06 0.30382019D+06 0.10841455D+01  1  2 15  1  6  1        1 -.133008367513D-02 0.100000000000D+01
0.513344454269D-07 0.000000000000D+00 0.000000000000D+00 0.914069242096D-06 0.000000000000D+00  6 1 2 25 1 2 21 2 0.42364381D-01 0.49872375D+00 0.31717266D+06 0.31717266D+06 0.31717266D+06 0.10827679D+01  1  2 12  1  6  1        1 0.108590554805D-06 0.100000000000D+01
-.808800911678D-04 0.000000000000D+00 0.000000000000D+00 0.914069242096D-06 0.000000000000D+00  6 1 2 25 1 2 21 2 0.41087613D-01 0.49872375D+00 0.30382019D+06 0.30382019D+06 0.30382019D+06 0.10841455D+01  1  2  4  1  6  1        1 -.179189478560D-03 0.100000000000D+01
-.413190112491D-01 0.000000000000D+00 -.695076217083D-02 0.914069242096D-06 0.000000000000D+00  6 1 2 25 1 2 21 2 0.42809922D-01 0.49872375D+00 0.30382019D+06 0.30382019D+06 0.30382019D+06 0.10841455D+01  1  2  5  1  6  1        1 -.866963199095D-01 0.100000000000D+01
0.415752311983D-01 0.000000000000D+00 0.694490613943D-02 0.914069242096D-06 0.000000000000D+00  6 1 2 25 1 2 21 2 0.41087613D-01 0.49872375D+00 0.30382019D+06 0.30382019D+06 0.30382019D+06 0.10841455D+01  1  2  6  1  6  1        1 0.921097379078D-01 0.100000000000D+01
0.130432565789D-08 0.000000000000D+00 0.000000000000D+00 0.914069242096D-06 0.000000000000D+00  6 21 2 25 1 2 -1 2 0.42364381D-01 0.49872375D+00 0.31717266D+06 0.31717266D+06 0.31717266D+06 0.10827679D+01  1  2 12  5  6  1        1 0.135677045970D-07 0.100000000000D+01
-.295247100757D-03 0.000000000000D+00 -.503689967320D-04 0.914069242096D-06 0.000000000000D+00  6 21 2 25 1 2 -1 2 0.42809922D-01 0.49872375D+00 0.30382019D+06 0.30382019D+06 0.30382019D+06 0.10841455D+01  1  2  5  5  6  1        1 -.302520833977D-02 0.100000000000D+01
  </mgrwgt>
  </event>
  <event>
  5     66 0.17698235E-05 0.41131955E+02 0.75467711E-02 0.94783904E-01
        1 -1    0    0  501    0 0.00000000E+00 0.00000000E+00 0.11390110E+04 0.11390111E+04 0.32000000E+00 0.0000E+00 0.9000E+01
        2 -1    0    0  502    0 -.00000000E+00 -.00000000E+00 -.12096771E+04 0.12096771E+04 0.32000000E+00 0.0000E+00 0.9000E+01
       25  1    1    2    0    0 0.42506712E+03 -.19635562E+03 -.53626622E+03 0.72280291E+03 0.12500000E+03 0.0000E+00 0.9000E+01
        1  1    1    2  501    0 -.24620688E+02 -.32951267E+02 0.95346753E+03 0.95435444E+03 0.32000000E+00 0.0000E+00 0.9000E+01
        2  1    1    2  502    0 -.40044643E+03 0.22930689E+03 -.48786739E+03 0.67153085E+03 0.32000000E+00 0.0000E+00 0.9000E+01
#aMCatNLO 1  0  0  5  2 0.24282275D+02 0.00000000D+00  -5  6  0 0.00000000D+00 0.00000000D+00 0.00000000D+00 0.00000000D+00 0.00000000D+00
  <mgrwgt>
 0.1676400780D-01    8    2    0
 0.117381243629910D+04 0.000000000000000D+00 0.000000000000000D+00 0.117381243629910D+04
 0.117381243629910D+04 -.000000000000000D+00 -.000000000000000D+00 -.117381243629910D+04
 0.707003365338525D+03 0.425107971072644D+03 -.196377639401856D+03 -.514730797867637D+03
 0.983450297858180D+03 -.246197676313473D+02 -.329500348729855D+02 0.982589767197374D+03
 0.657171209401500D+03 -.400488203441297D+03 0.229327674274842D+03 -.467858969329737D+03
 0.000000000000000D+00 0.000000000000000D+00 0.000000000000000D+00 0.000000000000000D+00
 0.117381243629910D+04 0.000000000000000D+00 0.000000000000000D+00 0.117381243629910D+04
 0.117381243629910D+04 -.000000000000000D+00 -.000000000000000D+00 -.117381243629910D+04
 0.707062964561492D+03 0.424456069046764D+03 -.196004347069734D+03 -.515492363894580D+03
 0.982398350187013D+03 -.255260481141910D+02 -.324310802731113D+02 0.981531030762734D+03
 0.559085201519625D+03 -.334159037218310D+03 0.176394308743961D+03 -.412066800708710D+03
 0.990783563300749D+02 -.647709837142625D+02 0.520411185988839D+02 -.539718661594441D+02
0.235848773378D-03 0.000000000000D+00 0.000000000000D+00 0.207713646334D-04 0.000000000000D+00  6 1 2 25 1 2 21 0 0.17523247D+00 0.18610418D+00 0.24369163D+06 0.24369163D+06 0.24369163D+06 0.10912951D+01  1  2  2  4  6  5        2 0.780819240045D-03 0.100000000000D+01
0.126885182079D-03 0.000000000000D+00 -.905721390181D-06 0.207713646334D-04 0.000000000000D+00  6 1 2 25 1 2 21 2 0.17523247D+00 0.18610418D+00 0.24369163D+06 0.24369163D+06 0.24369163D+06 0.10912951D+01  1  2  3  4  6  5        2 0.500278912655D-03 0.100000000000D+01
-.144970195438D-03 0.000000000000D+00 0.000000000000D+00 0.207713646334D-04 0.000000000000D+00  6 1 2 25 1 2 21 2 0.17523247D+00 0.18610418D+00 0.24369163D+06 0.24369163D+06 0.24369163D+06 0.10912951D+01  1  2 15  4  6  5        2 -.571583935593D-03 0.100000000000D+01
0.848035087004D-02 0.000000000000D+00 0.000000000000D+00 0.207713646334D-04 0.000000000000D+00  6 1 2 25 1 2 21 2 0.17523247D+00 0.18610418D+00 0.24313088D+06 0.24313088D+06 0.24313088D+06 0.10913705D+01  1  2 12  4  6  5        2 0.334453149491D-01 0.100000000000D+01
0.430165538603D-08 0.000000000000D+00 0.000000000000D+00 0.207713646334D-04 0.000000000000D+00  6 1 2 25 1 2 21 2 0.17523247D+00 0.18610418D+00 0.24313088D+06 0.24313088D+06 0.24313088D+06 0.10913705D+01  1  2 12  4  6  5        2 0.169651257823D-07 0.100000000000D+01
-.582434497082D-02 0.000000000000D+00 0.000000000000D+00 0.207713646334D-04 0.000000000000D+00  6 1 2 25 1 2 21 2 0.17523247D+00 0.18610418D+00 0.24369163D+06 0.24369163D+06 0.24369163D+06 0.10912951D+01  1  2  4  4  6  5        2 -.229640445101D-01 0.100000000000D+01
-.872655494444D-02 0.000000000000D+00 0.000000000000D+00 0.207713646334D-04 0.000000000000D+00  6 1 2 25 1 2 21 2 0.17523247D+00 0.18610418D+00 0.24369163D+06 0.24369163D+06 0.24369163D+06 0.10912951D+01  1  2  5  4  6  5        2 -.344067868865D-01 0.100000000000D+01
0.101400810043D-01 0.000000000000D+00 -.000000000000D+00 0.207713646334D-04 0.000000000000D+00  6 1 2 25 1 2 21 2 0.17523247D+00 0.18610418D+00 0.24369163D+06 0.24369163D+06 0.24369163D+06 0.10912951D+01  1  2  6  4  6  5        2 0.399799930612D-01 0.100000000000D+01
  </mgrwgt>
  </event>
  <event>
  6     66 -.17698235E-05 0.15218867E+03 0.75467711E-02 0.92567678E-01
        1 -1    0    0  503    0 0.00000000E+00 0.00000000E+00 0.18393408E+04 0.18393408E+04 0.32000000E+00 0.0000E+00 0.9000E+01
        2 -1    0    0  502    0 0.00000000E+00 0.00000000E+00 -.75508361E+03 0.75508368E+03 0.32000000E+00 0.0000E+00 0.9000E+01
       25  1    1    2    0    0 0.42342108E+03 0.35249740E+03 0.35305543E+03 0.66619289E+03 0.12500000E+03 0.0000E+00 0.9000E+01
        1  1    1    2  501    0 -.27489079E+03 -.39144177E+03 0.11043073E+04 0.12034477E+04 0.32000000E+00 0.0000E+00 0.9000E+01
        2  1    1    2  502    0 -.15124370E+03 0.33956134E+02 -.53795130E+03 0.55983870E+03 0.32000000E+00 0.0000E+00 0.9000E+01
       21  1    1    2  503  501 0.27134154E+01 0.49882373E+01 0.16484577E+03 0.16494525E+03 0.75000000E+00 0.0000E+00 0.9000E+01
#aMCatNLO 2  0  0  1  4 0.56784799D+01 0.00000000D+00  -5  6  0 0.00000000D+00 0.00000000D+00 0.00000000D+00 0.00000000D+00 0.00000000D+00
  <mgrwgt>
 -.1734280821D-02    6    2    0
 0.112439093423055D+04 0.000000000000000D+00 0.000000000000000D+00 0.112439093423055D+04
 0.112439093423055D+04 0.000000000000000D+00 0.000000000000000D+00 -.112439093423055D+04
 0.576670975350250D+03 0.424114353157385D+03 0.353742760291073D+03 0.109167251494914D+03
 0.847389691486480D+03 -.273846645298306D+03 -.389530944099272D+03 0.700958591990672D+03
 0.824721201624369D+03 -.150267707859079D+03 0.357881838081989D+02 -.810125843485586D+03
 0.000000000000000D+00 0.000000000000000D+00 0.000000000000000D+00 0.000000000000000D+00
 0.123512089998906D+04 0.000000000000000D+00 0.000000000000000D+00 0.123512089998906D+04
 0.112446732259848D+04 0.000000000000000D+00 0.000000000000000D+00 -.112446732259848D+04
 0.575376400335762D+03 0.423419315077737D+03 0.352465029305724D+03 0.109167251494914D+03
 0.848586876435509D+03 -.274869839588553D+03 -.391411944704798D+03 0.700958591990672D+03
 0.824825761145315D+03 -.151262890850238D+03 0.339586780859500D+02 -.810125843485586D+03
 0.110799184670951D+03 0.271341536105401D+01 0.498823731312401D+01 0.110653577390584D+03
-.460170353469D-02 0.000000000000D+00 0.000000000000D+00 0.243701313170D-05 0.000000000000D+00  6 1 2 25 1 2 21 2 0.28311492D+00 0.11615869D+00 0.36235393D+06 0.36235393D+06 0.36235393D+06 0.10785359D+01  1  2 13  1  6  1        1 -.111912264987D-01 0.100000000000D+01
-.180937751015D-07 0.000000000000D+00 0.000000000000D+00 0.243701313170D-05 0.000000000000D+00  6 1 2 25 1 2 21 2 0.28298690D+00 0.11615869D+00 0.36235393D+06 0.36235393D+06 0.36235393D+06 0.10785359D+01  1  2 13  1  6  1        1 -.440597501741D-07 0.100000000000D+01
-.512523706581D-04 0.000000000000D+00 0.000000000000D+00 0.243701313170D-05 0.000000000000D+00  6 1 2 25 1 2 21 2 0.25760616D+00 0.11615869D+00 0.35812578D+06 0.35812578D+06 0.35812578D+06 0.10789069D+01  1  2  8  1  6  1        1 -.160960731039D-03 0.100000000000D+01
-.608239652886D-04 0.000000000000D+00 0.000000000000D+00 0.243701313170D-05 0.000000000000D+00  6 1 2 25 1 2 21 2 0.28298177D+00 0.11615869D+00 0.35812578D+06 0.35812578D+06 0.35812578D+06 0.10789069D+01  1  2  9  1  6  1        1 -.148330753054D-03 0.100000000000D+01
0.605565111521D-04 0.000000000000D+00 0.000000000000D+00 0.243701313170D-05 0.000000000000D+00  6 1 2 25 1 2 21 2 0.25760616D+00 0.11615869D+00 0.35812578D+06 0.35812578D+06 0.35812578D+06 0.10789069D+01  1  2 10  1  6  1        1 0.190180867325D-03 0.100000000000D+01
0.393244296345D-02 0.000000000000D+00 0.000000000000D+00 0.243701313170D-05 0.395242994800D-06  6 1 2 25 1 2 21 2 0.28297520D+00 0.11616659D+00 0.36235393D+06 0.36235393D+06 0.36235393D+06 0.10785359D+01  1  2  1  1  6  1        1 0.957610035438D-02 0.100000000000D+01
  </mgrwgt>
  </event>
  <event>
  5     66 0.17698235E-05 0.34403948E+02 0.75467711E-02 0.94275700E-01
        1 -1    0    0  501    0 0.00000000E+00 0.00000000E+00 0.98323895E+03 0.98323900E+03 0.32000000E+00 0.0000E+00 0.9000E+01
        2 -1    0    0  502    0 0.00000000E+00 0.00000000E+00 -.18707930E+04 0.18707930E+04 0.32000000E+00 0.0000E+00 0.9000E+01
       25  1    1    2    0    0 -.14289648E+02 0.49981192E+03 -.10764511E+04 0.11934773E+04 0.12500000E+03 0.0000E+00 0.9000E+01
        1  1    1    2  501    0 -.10629306E+02 -.47608603E+03 0.86295030E+03 0.98562377E+03 0.32000000E+00 0.0000E+00 0.9000E+01
        2  1    1    2  502    0 0.24918954E+02 -.23725887E+02 -.67405322E+03 0.67493090E+03 0.32000000E+00 0.0000E+00 0.9000E+01
#aMCatNLO 1  0  0  1  4 0.41967934D+01 0.00000000D+00  -5  6  0 0.00000000D+00 0.00000000D+00 0.00000000D+00 0.00000000D+00 0.00000000D+00
  <mgrwgt>
 0.2434487890D-01   13    2    0
 0.135625832649060D+04 0.000000000000000D+00 0.000000000000000D+00 0.135625832649060D+04
 0.135625832649060D+04 0.000000000000000D+00 0.000000000000000D+00 -.135625832649060D+04
 0.903575347232886D+03 -.142870970168941D+02 0.499811786141636D+03 -.742164042122608D+03
 0.131941459259068D+04 -.106293570866316D+02 -.476088338741813D+03 0.123048030363075D+04
 0.489526713157627D+03 0.249164541035258D+02 -.237234473998226D+02 -.488316261508138D+03
 0.000000000000000D+00 -.000000000000000D+00 0.000000000000000D+00 0.000000000000000D+00
 0.161090840986404D+04 0.000000000000000D+00 0.000000000000000D+00 0.161090840986404D+04
 0.135627724136246D+04 0.000000000000000D+00 0.000000000000000D+00 -.135627724136246D+04
 0.902804237157493D+03 -.141623268065765D+02 0.498419957173846D+03 -.742164042122608D+03
 0.132014836310789D+04 -.104470372530955D+02 -.478122141723086D+03 0.123048030363075D+04
 0.489567299343594D+03 0.249840820632947D+02 -.244778466526507D+02 -.488316261508138D+03
 0.254665751617513D+03 -.374718003622755D+00 0.418003120189037D+01 0.254631168501584D+03
0.497677866694D-04 0.000000000000D+00 0.000000000000D+00 0.812687550661D-04 0.000000000000D+00  6 1 2 25 1 2 21 0 0.15126754D+00 0.28781431D+00 0.26317649D+06 0.26317649D+06 0.26317649D+06 0.10887849D+01  1  2  2  1  6  1        1 0.925118813613D-04 0.100000000000D+01
0.179523088500D-04 0.000000000000D+00 -.191121404970D-06 0.812687550661D-04 0.000000000000D+00  6 1 2 25 1 2 21 2 0.15126754D+00 0.28781431D+00 0.26317649D+06 0.26317649D+06 0.26317649D+06 0.10887849D+01  1  2  3  1  6  1        1 0.395597634292D-04 0.100000000000D+01
-.332218262490D-04 0.000000000000D+00 0.000000000000D+00 0.812687550661D-04 0.000000000000D+00  6 1 2 25 1 2 21 2 0.15126754D+00 0.28781431D+00 0.26317649D+06 0.26317649D+06 0.26317649D+06 0.10887849D+01  1  2 15  1  6  1        1 -.732077193011D-04 0.100000000000D+01
0.658518086924D-01 0.000000000000D+00 0.000000000000D+00 0.812687550661D-04 0.000000000000D+00  6 1 2 25 1 2 21 2 0.17970413D+00 0.28781431D+00 0.26597762D+06 0.26597762D+06 0.26597762D+06 0.10884408D+01  1  2 12  1  6  1        1 0.105695346318D+00 0.100000000000D+01
0.546864056280D-08 0.000000000000D+00 0.000000000000D+00 0.812687550661D-04 0.000000000000D+00  6 1 2 25 1 2 21 2 0.17967238D+00 0.28781431D+00 0.26597762D+06 0.26597762D+06 0.26597762D+06 0.10884408D+01  1  2 12  1  6  1        1 0.878042289424D-08 0.100000000000D+01
-.418547077706D+00 0.000000000000D+00 0.000000000000D+00 0.812687550661D-04 0.000000000000D+00  6 1 2 25 1 2 21 2 0.15126754D+00 0.28781431D+00 0.26317649D+06 0.26317649D+06 0.26317649D+06 0.10887849D+01  1  2  4  1  6  1        1 -.922311637817D+00 0.100000000000D+01
-.466416444268D+00 0.000000000000D+00 -.752183287309D-04 0.812687550661D-04 0.000000000000D+00  6 1 2 25 1 2 21 2 0.17967036D+00 0.28781431D+00 0.26317649D+06 0.26317649D+06 0.26317649D+06 0.10887849D+01  1  2  5  1  6  1        1 -.749970129352D+00 0.100000000000D+01
0.459609304991D+00 0.000000000000D+00 0.741183192906D-04 0.812687550661D-04 0.000000000000D+00  6 1 2 25 1 2 21 2 0.15126754D+00 0.28781431D+00 0.26317649D+06 0.26317649D+06 0.26317649D+06 0.10887849D+01  1  2  6  1  6  1        1 0.101279648914D+01 0.100000000000D+01
0.360282125743D+00 0.000000000000D+00 0.000000000000D+00 0.812687550661D-04 0.266220819482D-04  6 1 2 25 1 2 21 2 0.17966942D+00 0.28781833D+00 0.26597762D+06 0.26597762D+06 0.26597762D+06 0.10884408D+01  1  2 11  1  6  1        1 0.578466707729D+00 0.100000000000D+01
0.167782647927D-02 0.000000000000D+00 0.000000000000D+00 0.812687550661D-04 0.000000000000D+00  6 21 2 25 1 2 -1 2 0.17970413D+00 0.28781431D+00 0.26597762D+06 0.26597762D+06 0.26597762D+06 0.10884408D+01  1  2 12  5  6  1        1 0.294260368157D-02 0.100000000000D+01
0.139221730264D-09 0.000000000000D+00 0.000000000000D+00 0.812687550661D-04 0.000000000000D+00  6 21 2 25 1 2 -1 2 0.17967238D+00 0.28781431D+00 0.26597762D+06 0.26597762D+06 0.26597762D+06 0.10884408D+01  1  2 12  5  6  1        1 0.244309386535D-09 0.100000000000D+01
-.118728423364D-01 0.000000000000D+00 -.191482420525D-05 0.812687550661D-04 0.000000000000D+00  6 21 2 25 1 2 -1 2 0.17967036D+00 0.28781431D+00 0.26317649D+06 0.26317649D+06 0.26317649D+06 0.10887849D+01  1  2  5  5  6  1        1 -.208744548777D-01 0.100000000000D+01
0.999572398027D-02 0.000000000000D+00 0.000000000000D+00 0.812687550661D-04 0.738531688123D-06  6 21 2 25 1 2 -1 2 0.17966942D+00 0.28781833D+00 0.26597762D+06 0.26597762D+06 0.26597762D+06 0.10884408D+01  1  2 11  5  6  1        1 0.175410811213D-01 0.100000000000D+01
  </mgrwgt>
  </event>
  <event>
  5     66 0.17698235E-05 0.60762969E+02 0.75467711E-02 0.84498068E-01
        1 -1    0    0  501    0 0.00000000E+00 0.00000000E+00 0.16403130E+04 0.16403130E+04 0.32000000E+00 0.0000E+00 0.9000E+01
        2 -1    0    0  502    0 0.00000000E+00 0.00000000E+00 -.98460954E+03 0.98460959E+03 0.32000000E+00 0.0000E+00 0.9000E+01
       25  1    1    2    0    0 0.39687879E+03 0.56371344E+03 0.17810801E+03 0.72293366E+03 0.12500000E+03 0.0000E+00 0.9000E+01
        1  1    1    2  501    0 -.46095121E+02 -.39602061E+02 0.10491222E+04 0.10508809E+04 0.32000000E+00 0.0000E+00 0.9000E+01
        2  1    1    2  502    0 -.35078367E+03 -.52411138E+03 -.57152680E+03 0.85110805E+03 0.32000000E+00 0.0000E+00 0.9000E+01
#aMCatNLO 1  0  0  1  4 0.34803809D+02 0.00000000D+00  -5  6  0 0.00000000D+00 0.00000000D+00 0.00000000D+00 0.00000000D+00 0.00000000D+00
  <mgrwgt>
 0.2852770216D-02    6    2    0
 0.127085321336947D+04 0.000000000000000D+00 0.000000000000000D+00 0.127085321336947D+04
 0.127085321336947D+04 0.000000000000000D+00 0.000000000000000D+00 -.127085321336947D+04
 0.700722287679351D+03 0.396916184513497D+03 0.563771376322408D+03 -.247025532481285D+01
 0.814532626029960D+03 -.460892231879030D+02 -.395969936744962D+02 0.812263048811862D+03
 0.102645151302963D+04 -.350826961325594D+03 -.524174382647912D+03 -.809792793487049D+03
 0.000000000000000D+00 -.000000000000000D+00 -.000000000000000D+00 0.000000000000000D+00
 0.233398034951033D+04 0.000000000000000D+00 0.000000000000000D+00 0.233398034951033D+04
 0.165507422232016D+04 0.000000000000000D+00 0.000000000000000D+00 -.165507422232016D+04
 0.966965247110704D+03 0.716884957699475D+03 0.636762627972714D+03 -.247025532481285D+01
 0.858159670926092D+03 0.274839782401889D+03 0.336133061170762D+02 0.812263048811862D+03
 0.921379800395341D+03 0.228912459093614D+02 -.438921814283270D+03 -.809792793487049D+03
 0.124254985339835D+04 -.101461598601072D+04 -.231454119806520D+03 0.678906127190163D+03
0.102448184396D-02 0.000000000000D+00 0.000000000000D+00 0.114012251397D-04 0.000000000000D+00  6 1 2 25 1 2 21 0 0.25235585D+00 0.15147840D+00 0.48457274D+06 0.48457274D+06 0.48457274D+06 0.10694737D+01  1  2  2  1  6  1        1 0.200376745922D-02 0.100000000000D+01
0.461314287278D-03 0.000000000000D+00 -.393428003308D-05 0.114012251397D-04 0.000000000000D+00  6 1 2 25 1 2 21 2 0.25235585D+00 0.15147840D+00 0.48457274D+06 0.48457274D+06 0.48457274D+06 0.10694737D+01  1  2  3  1  6  1        1 0.103200110288D-02 0.100000000000D+01
-.587057196513D-03 0.000000000000D+00 0.000000000000D+00 0.114012251397D-04 0.000000000000D+00  6 1 2 25 1 2 21 2 0.25235585D+00 0.15147840D+00 0.48457274D+06 0.48457274D+06 0.48457274D+06 0.10694737D+01  1  2 15  1  6  1        1 -.131329917794D-02 0.100000000000D+01
-.173856929152D-03 0.000000000000D+00 -.532513043633D-03 0.114012251397D-04 0.000000000000D+00  6 1 2 25 1 2 21 2 0.50159123D+00 0.15147840D+00 0.48457274D+06 0.48457274D+06 0.48457274D+06 0.10694737D+01  1  2  5  1  6  1        1 -.280894509011D-04 0.100000000000D+01
0.517583222628D-03 0.000000000000D+00 0.427593345440D-03 0.114012251397D-04 0.000000000000D+00  6 1 2 25 1 2 21 2 0.25235585D+00 0.15147840D+00 0.48457274D+06 0.48457274D+06 0.48457274D+06 0.10694737D+01  1  2  6  1  6  1        1 0.115787971739D-02 0.100000000000D+01
0.188624172375D-04 0.000000000000D+00 -.395927209571D-04 0.114012251397D-04 0.000000000000D+00  6 21 2 25 1 2 -1 2 0.50159123D+00 0.15147840D+00 0.48457274D+06 0.48457274D+06 0.48457274D+06 0.10694737D+01  1  2  5  5  6  1        1 0.510565618741D-06 0.100000000000D+01
  </mgrwgt>
  </event>
  <event>
  5     66 0.17698235E-05 0.92909252E+02 0.75467711E-02 0.91515049E-01
        1 -1    0    0  501    0 0.00000000E+00 0.00000000E+00 0.32222456E+03 0.32222472E+03 0.32000000E+00 0.0000E+00 0.9000E+01
        2 -1    0    0  502    0 0.00000000E+00 0.00000000E+00 -.55873490E+04 0.55873490E+04 0.32000000E+00 0.0000E+00 0.9000E+01
       25  1    1    2    0    0 0.44771521E+01 -.48681001E+03 -.12141376E+04 0.13140621E+04 0.12500000E+03 0.0000E+00 0.9000E+01
        1  1    1    2  501    0 0.12355808E+02 0.39544669E+03 0.12774145E+03 0.41575080E+03 0.32000000E+00 0.0000E+00 0.9000E+01
        2  1    1    2  502    0 -.16832960E+02 0.91363323E+02 -.41787282E+04 0.41797608E+04 0.32000000E+00 0.0000E+00 0.9000E+01
#aMCatNLO 1  0  0  2  5 0.46992836D+01 0.00000000D+00  -5  6  0 0.00000000D+00 0.00000000D+00 0.00000000D+00 0.00000000D+00 0.00000000D+00
  <mgrwgt>
 0.5412621798D-03    7    2    0
 0.134178297829323D+04 0.000000000000000D+00 0.000000000000000D+00 0.134178297829323D+04
 0.134178297829323D+04 0.000000000000000D+00 0.000000000000000D+00 -.134178297829323D+04
 0.511603988596212D+03 0.447883994191603D+01 -.486808509905260D+03 -.954518508157279D+02
 0.116613815211194D+04 0.123555083296528D+02 0.395437103888176D+03 0.109697539994911D+04
 0.100582381587830D+04 -.168343482715689D+02 0.913714060170836D+02 -.100152354913338D+04
 0.000000000000000D+00 0.000000000000000D+00 -.000000000000000D+00 -.000000000000000D+00
 0.141334759984303D+04 0.000000000000000D+00 0.000000000000000D+00 0.141334759984303D+04
 0.151353944238425D+04 0.000000000000000D+00 0.000000000000000D+00 -.151353944238425D+04
 0.480804831955054D+03 -.170755199506984D+02 -.454032660967901D+03 -.954518508157279D+02
 0.119541117251149D+04 -.389355352332401D+02 0.473430953115539D+03 0.109697539994911D+04
 0.101574910533223D+04 -.607413646045468D+02 0.158137004336380D+03 -.100152354913338D+04
 0.234921932428500D+03 0.116752419788485D+03 -.177535296484018D+03 -.100191842541227D+03
0.491785819175D-01 0.000000000000D+00 0.000000000000D+00 0.814481078235D-04 0.000000000000D+00  6 1 2 25 1 2 21 0 0.49573022D-01 0.85959216D+00 0.24559956D+06 0.24559956D+06 0.24559956D+06 0.10910398D+01  1  2  2  2  6  2        2 0.219298118074D-03 0.100000000000D+01
0.131187995874D-01 0.000000000000D+00 -.188858703581D-03 0.814481078235D-04 0.000000000000D+00  6 1 2 25 1 2 21 2 0.49573022D-01 0.85959216D+00 0.24559956D+06 0.24559956D+06 0.24559956D+06 0.10910398D+01  1  2  3  2  6  2        2 0.696360575407D-04 0.100000000000D+01
-.285509041417D-01 0.000000000000D+00 0.000000000000D+00 0.814481078235D-04 0.000000000000D+00  6 1 2 25 1 2 21 2 0.49573022D-01 0.85959216D+00 0.24559956D+06 0.24559956D+06 0.24559956D+06 0.10910398D+01  1  2 15  2  6  2        2 -.151551396941D-03 0.100000000000D+01
-.347246392242D-03 0.000000000000D+00 0.000000000000D+00 0.814481078235D-04 0.000000000000D+00  6 1 2 25 1 2 21 2 0.49573022D-01 0.85959216D+00 0.24559956D+06 0.24559956D+06 0.24559956D+06 0.10910398D+01  1  2  4  2  6  2        2 -.184322274229D-05 0.100000000000D+01
-.491344905686D-01 0.000000000000D+00 -.154128233899D-01 0.814481078235D-04 0.000000000000D+00  6 1 2 25 1 2 21 2 0.49573022D-01 0.97037040D+00 0.24559956D+06 0.24559956D+06 0.24559956D+06 0.10910398D+01  1  2  5  2  6  2        2 -.531958793829D-06 0.100000000000D+01
0.765346759950D-01 0.000000000000D+00 0.310999372839D-01 0.814481078235D-04 0.000000000000D+00  6 1 2 25 1 2 21 2 0.49573022D-01 0.85959216D+00 0.24559956D+06 0.24559956D+06 0.24559956D+06 0.10910398D+01  1  2  6  2  6  2        2 0.406254632213D-03 0.100000000000D+01
-.867598840587D-03 0.000000000000D+00 -.294934722486D-03 0.814481078235D-04 0.000000000000D+00  6 1 21 25 1 2 -2 2 0.49573022D-01 0.97037040D+00 0.24559956D+06 0.24559956D+06 0.24559956D+06 0.10910398D+01  1  2  5  6  6  2        2 -.495139224121D-10 0.100000000000D+01
  </mgrwgt>
  </event>
  <event>
  6     66 0.17698235E-05 0.52017491E+02 0.75467711E-02 0.92768753E-01
        1 -1    0    0  503    0 0.00000000E+00 0.00000000E+00 0.11313084E+04 0.11313085E+04 0.32000000E+00 0.0000E+00 0.9000E+01
        2 -1    0    0  502    0 0.00000000E+00 0.00000000E+00 -.13400436E+04 0.13400436E+04 0.32000000E+00 0.0000E+00 0.9000E+01
       25  1    1    2    0    0 0.43599961E+03 0.26727156E+03 -.11361897E+03 0.53857591E+03 0.12500000E+03 0.0000E+00 0.9000E+01
        1  1    1    2  501    0 -.46661093E+03 -.27067312E+03 0.63182600E+03 0.83077909E+03 0.32000000E+00 0.0000E+00 0.9000E+01
        2  1    1    2  502    0 0.72198576E+02 0.12873528E+02 -.91055010E+03 0.91349874E+03 0.32000000E+00 0.0000E+00 0.9000E+01
       21  1    1    2  503  501 -.41587253E+02 -.94719619E+01 0.18360788E+03 0.18849837E+03 0.75000000E+00 0.0000E+00 0.9000E+01
#aMCatNLO 2  0  0  1  4 0.42652288D+02 0.00000000D+00  -5  6  0 0.00000000D+00 0.00000000D+00 0.00000000D+00 0.00000000D+00 0.00000000D+00
  <mgrwgt>
 0.8418146000D-02    3    2    0
 0.112424073479635D+04 0.000000000000000D+00 0.000000000000000D+00 0.112424073479635D+04
 0.112424073479635D+04 0.000000000000000D+00 0.000000000000000D+00 -.112424073479635D+04
 0.517768915614330D+03 0.426319306160189D+03 0.265062175003835D+03 -.212965385396448D+02
 0.963468908537674D+03 -.484323118476209D+03 -.274702228005954D+03 0.786283753206704D+03
 0.767243645440704D+03 0.580038123160195D+02 0.964005300211892D+01 -.764987214667059D+03
 0.000000000000000D+00 -.000000000000000D+00 -.000000000000000D+00 0.000000000000000D+00
 0.134576458718362D+04 0.000000000000000D+00 0.000000000000000D+00 0.134576458718362D+04
 0.112649793658370D+04 0.000000000000000D+00 0.000000000000000D+00 -.112649793658370D+04
 0.526863742113451D+03 0.435979046653938D+03 0.267262288919969D+03 -.212965385396448D+02
 0.953527129090676D+03 -.466596615179526D+03 -.270664818656017D+03 0.786283753206704D+03
 0.768495105620918D+03 0.722048213422135D+02 0.128744916086109D+02 -.764987214667059D+03
 0.223376546942280D+03 -.415872528166261D+02 -.947196187256340D+01 0.219266650599920D+03
-.907474825184D-02 0.000000000000D+00 0.000000000000D+00 0.174129624954D-04 0.000000000000D+00  6 1 2 25 1 2 21 2 0.17601172D+00 0.20574736D+00 0.34919066D+06 0.34919066D+06 0.34919066D+06 0.10797067D+01  1  2 13  1  6  1        1 -.287304430101D-01 0.100000000000D+01
-.524654990608D-08 0.000000000000D+00 0.000000000000D+00 0.174129624954D-04 0.000000000000D+00  6 1 2 25 1 2 21 2 0.17424916D+00 0.20574736D+00 0.34919066D+06 0.34919066D+06 0.34919066D+06 0.10797067D+01  1  2 13  1  6  1        1 -.169318490412D-07 0.100000000000D+01
0.115258162632D-01 0.000000000000D+00 0.000000000000D+00 0.174129624954D-04 0.828903588827D-07  6 1 2 25 1 2 21 2 0.17404736D+00 0.20616045D+00 0.34919066D+06 0.34919066D+06 0.34919066D+06 0.10797067D+01  1  2  1  1  6  1        1 0.371486059420D-01 0.100000000000D+01
  </mgrwgt>
  </event>
  <event>
  5     66 0.17698235E-05 0.57853299E+02 0.75467711E-02 0.95082960E-01
        1 -1    0    0  501    0 0.00000000E+00 0.00000000E+00 0.12429925E+04 0.12429926E+04 0.32000000E+00 0.0000E+00 0.9000E+01
        2 -1    0    0  502    0 0.00000000E+00 0.00000000E+00 -.39384059E+03 0.39384072E+03 0.32000000E+00 0.0000E+00 0.9000E+01
       25  1    1    2    0    0 -.92985825E+02 0.46158396E+03 0.11059049E+03 0.49956118E+03 0.12500000E+03 0.0000E+00 0.9000E+01
        1  1    1    2  501    0 0.66078535E+02 -.41037576E+03 0.88612721E+03 0.97877279E+03 0.32000000E+00 0.0000E+00 0.9000E+01
        2  1    1    2  502    0 0.26907291E+02 -.51208207E+02 -.14756576E+03 0.15849933E+03 0.32000000E+00 0.0000E+00 0.9000E+01
#aMCatNLO 1  0  0  4  1 0.74487989D+01 0.00000000D+00  -5  6  0 0.00000000D+00 0.00000000D+00 0.00000000D+00 0.00000000D+00 0.00000000D+00
  <mgrwgt>
 0.2240023846D-01    6    2    0
 0.699672109122859D+03 0.000000000000000D+00 0.000000000000000D+00 0.699672109122859D+03
 0.699672109122859D+03 -.000000000000000D+00 -.000000000000000D+00 -.699672109122859D+03
 0.517216608851292D+03 -.929868259208877D+02 0.461579488455238D+03 -.173740745118090D+03
 0.607148793236016D+03 0.660769026898342D+02 -.410365620962792D+03 0.442564749150552D+03
 0.274978816158410D+03 0.269099232310535D+02 -.512138674924466D+02 -.268824004032463D+03
 0.000000000000000D+00 0.000000000000000D+00 0.000000000000000D+00 0.000000000000000D+00
 0.699672109122859D+03 0.000000000000000D+00 0.000000000000000D+00 0.699672109122859D+03
 0.699672109122859D+03 -.000000000000000D+00 -.000000000000000D+00 -.699672109122859D+03
 0.483564370295219D+03 -.887161251168455D+02 0.435056623186817D+03 -.145136776816035D+03
 0.315091912188958D+03 -.210118743927470D+02 -.543207769649924D+02 0.309662182791695D+03
 0.263383901934335D+03 0.292073151089306D+02 -.654816464920959D+02 -.253436711064059D+03
 0.337304033827206D+03 0.805206844006619D+02 -.315254199729729D+03 0.889113050883992D+02
0.211748352148D-02 0.000000000000D+00 0.000000000000D+00 0.238693806364D-05 0.000000000000D+00  6 1 2 25 1 2 21 0 0.19122963D+00 0.60590874D-01 0.23072031D+06 0.23072031D+06 0.23072031D+06 0.10930909D+01  1  2  2  3  6  4        1 0.244005148496D-01 0.100000000000D+01
0.502330421369D-03 0.000000000000D+00 -.813169426870D-05 0.238693806364D-05 0.000000000000D+00  6 1 2 25 1 2 21 2 0.19122963D+00 0.60590874D-01 0.23072031D+06 0.23072031D+06 0.23072031D+06 0.10930909D+01  1  2  3  3  6  4        1 0.691641413881D-02 0.100000000000D+01
-.128157918425D-02 0.000000000000D+00 0.000000000000D+00 0.238693806364D-05 0.000000000000D+00  6 1 2 25 1 2 21 2 0.19122963D+00 0.60590874D-01 0.23072031D+06 0.23072031D+06 0.23072031D+06 0.10930909D+01  1  2 15  3  6  4        1 -.176456213139D-01 0.100000000000D+01
-.679425377022D-04 0.000000000000D+00 0.000000000000D+00 0.238693806364D-05 0.000000000000D+00  6 1 2 25 1 2 21 2 0.19122963D+00 0.60590874D-01 0.23072031D+06 0.23072031D+06 0.23072031D+06 0.10930909D+01  1  2  4  3  6  4        1 -.935477343995D-03 0.100000000000D+01
-.104747401083D-02 0.000000000000D+00 0.000000000000D+00 0.238693806364D-05 0.000000000000D+00  6 1 2 25 1 2 21 2 0.19122963D+00 0.60590874D-01 0.23072031D+06 0.23072031D+06 0.23072031D+06 0.10930909D+01  1  2  5  3  6  4        1 -.144223080075D-01 0.100000000000D+01
0.174938776440D-02 0.000000000000D+00 -.000000000000D+00 0.238693806364D-05 0.000000000000D+00  6 1 2 25 1 2 21 2 0.19122963D+00 0.60590874D-01 0.23072031D+06 0.23072031D+06 0.23072031D+06 0.10930909D+01  1  2  6  3  6  4        1 0.240867161399D-01 0.100000000000D+01
  </mgrwgt>
  </event>
  <event>
  5     66 -.17698235E-05 0.67642570E+02 0.75467711E-02 0.93036712E-01
        1 -1    0    0  501    0 0.00000000E+00 0.00000000E+00 0.14348321E+04 0.14348321E+04 0.32000000E+00 0.0000E+00 0.9000E+01
        2 -1    0    0  502    0 -.00000000E+00 -.00000000E+00 -.19622852E+04 0.19622852E+04 0.32000000E+00 0.0000E+00 0.9000E+01
       25  1    1    2    0    0 0.14156399E+03 -.51695874E+03 0.32077863E+02 0.55130817E+03 0.12500000E+03 0.0000E+00 0.9000E+01
        1  1    1    2  501    0 -.66427441E+02 -.12781714E+02 0.11000418E+04 0.11021198E+04 0.32000000E+00 0.0000E+00 0.9000E+01
        2  1    1    2  502    0 -.75136551E+02 0.52974046E+03 -.16595728E+04 0.17436893E+04 0.32000000E+00 0.0000E+00 0.9000E+01
#aMCatNLO 1  0  0  4  1 0.36832564D+01 0.00000000D+00  -5  6  0 0.00000000D+00 0.00000000D+00 0.00000000D+00 0.00000000D+00 0.00000000D+00
  <mgrwgt>
 -.1530813799D+00    9    2    0
 0.167796001897223D+04 0.000000000000000D+00 0.000000000000000D+00 0.167796001897223D+04
 0.167796001897223D+04 -.000000000000000D+00 -.000000000000000D+00 -.167796001897223D+04
 0.563172436888895D+03 0.141568098716933D+03 -.517003762820206D+03 0.119179596940065D+03
 0.128847929801424D+04 -.664241035451579D+02 -.127810716512660D+02 0.128670252354106D+04
 0.150426830304133D+04 -.751439951717751D+02 0.529784834471472D+03 -.140588212048112D+04
 0.000000000000000D+00 0.000000000000000D+00 0.000000000000000D+00 0.000000000000000D+00
 0.167796001897223D+04 0.000000000000000D+00 0.000000000000000D+00 0.167796001897223D+04
 0.167796001897223D+04 -.000000000000000D+00 -.000000000000000D+00 -.167796001897223D+04
 0.563173177159577D+03 0.141567914783008D+03 -.517003798212068D+03 0.119183159927476D+03
 0.581306169390614D+03 -.330072511899184D+02 -.783792369796530D+01 0.580315389157120D+03
 0.150425939982055D+04 -.751444864688515D+02 0.529784739937970D+03 -.140587260355648D+04
 0.707181291573720D+03 -.334161771242388D+02 -.494301802793715D+01 0.706374054471887D+03
0.552420064568D-04 0.000000000000D+00 0.000000000000D+00 0.135176147526D-03 0.000000000000D+00  6 1 2 25 1 2 21 0 0.22074340D+00 0.30189003D+00 0.33243730D+06 0.33243730D+06 0.33243730D+06 0.10812683D+01  1  2  2  3  6  4        1 0.427517484389D-04 0.100000000000D+01
0.226132588323D-04 0.000000000000D+00 -.212143850349D-06 0.135176147526D-03 0.000000000000D+00  6 1 2 25 1 2 21 2 0.22074340D+00 0.30189003D+00 0.33243730D+06 0.33243730D+06 0.33243730D+06 0.10812683D+01  1  2  3  3  6  4        1 0.204604212627D-04 0.100000000000D+01
-.340027159466D-04 0.000000000000D+00 0.000000000000D+00 0.135176147526D-03 0.000000000000D+00  6 1 2 25 1 2 21 2 0.22074340D+00 0.30189003D+00 0.33243730D+06 0.33243730D+06 0.33243730D+06 0.10812683D+01  1  2 15  3  6  4        1 -.307655741928D-04 0.100000000000D+01
0.150575637882D-01 0.000000000000D+00 0.000000000000D+00 0.135176147526D-03 0.000000000000D+00  6 1 2 25 1 2 21 2 0.22074340D+00 0.30189003D+00 0.33247321D+06 0.33247321D+06 0.33247321D+06 0.10812649D+01  1  2 12  3  6  4        1 0.136238384630D-01 0.100000000000D+01
0.165400937095D-09 0.000000000000D+00 0.000000000000D+00 0.135176147526D-03 0.000000000000D+00  6 1 2 25 1 2 21 2 0.22074340D+00 0.30189003D+00 0.33247321D+06 0.33247321D+06 0.33247321D+06 0.10812649D+01  1  2 12  3  6  4        1 0.149652073889D-09 0.100000000000D+01
-.631811484029D+00 0.000000000000D+00 0.000000000000D+00 0.135176147526D-03 0.000000000000D+00  6 1 2 25 1 2 21 2 0.22074340D+00 0.30189003D+00 0.33243730D+06 0.33243730D+06 0.33243730D+06 0.10812683D+01  1  2  4  3  6  4        1 -.571661484873D+00 0.100000000000D+01
-.248526036327D+00 0.000000000000D+00 0.000000000000D+00 0.135176147526D-03 0.000000000000D+00  6 1 2 25 1 2 21 2 0.22074340D+00 0.30189003D+00 0.33243730D+06 0.33243730D+06 0.33243730D+06 0.10812683D+01  1  2  5  3  6  4        1 -.224865749591D+00 0.100000000000D+01
0.412992859609D+00 0.000000000000D+00 -.000000000000D+00 0.135176147526D-03 0.000000000000D+00  6 1 2 25 1 2 21 2 0.22074340D+00 0.30189003D+00 0.33243730D+06 0.33243730D+06 0.33243730D+06 0.10812683D+01  1  2  6  3  6  4        1 0.373674928890D+00 0.100000000000D+01
0.283067253465D+00 0.000000000000D+00 0.000000000000D+00 0.135176147526D-03 0.205093622487D-04  6 1 2 25 1 2 21 2 0.22074340D+00 0.30189003D+00 0.33247321D+06 0.33247321D+06 0.33247321D+06 0.10812649D+01  1  2 11  3  6  4        1 0.256114640430D+00 0.100000000000D+01
  </mgrwgt>
  </event>
  <event>
  5     66 0.17698235E-05 0.77915282E+02 0.75467711E-02 0.93251983E-01
        1 -1    0    0  501    0 0.00000000E+00 0.00000000E+00 0.62011999E+03 0.62012007E+03 0.32000000E+00 0.0000E+00 0.9000E+01
        2 -1    0    0  502    0 0.00000000E+00 0.00000000E+00 -.18552265E+04 0.18552265E+04 0.32000000E+00 0.0000E+00 0.9000E+01
       25  1    1    2    0    0 -.47273346E+03 -.34793640E+02 -.36914638E+03 0.61366242E+03 0.12500000E+03 0.0000E+00 0.9000E+01
        1  1    1    2  501    0 -.77917548E+02 -.93267436E+00 0.43846977E+03 0.44534016E+03 0.32000000E+00 0.0000E+00 0.9000E+01
        2  1    1    2  502    0 0.55065101E+03 0.35726315E+02 -.13044299E+04 0.14163440E+04 0.32000000E+00 0.0000E+00 0.9000E+01
#aMCatNLO 1  0  0  1  4 0.93060252D+01 0.00000000D+00  -5  6  0 0.00000000D+00 0.00000000D+00 0.00000000D+00 0.00000000D+00 0.00000000D+00
  <mgrwgt>
 0.7382198492D-01   13    2    0
 0.107259645532232D+04 0.000000000000000D+00 0.000000000000000D+00 0.107259645532232D+04
 0.107259645532232D+04 0.000000000000000D+00 0.000000000000000D+00 -.107259645532232D+04
 0.495633866413748D+03 -.472806888668613D+03 -.347982829184082D+02 -.725992773357742D+02
 0.766253868695526D+03 -.779097004595309D+02 -.932580419550032D+00 0.762282231302113D+03
 0.883305175535357D+03 0.550716589128144D+03 0.357308633379582D+02 -.689682953966339D+03
 0.000000000000000D+00 0.000000000000000D+00 0.000000000000000D+00 0.000000000000000D+00
 0.122103179071232D+04 0.000000000000000D+00 0.000000000000000D+00 0.122103179071232D+04
 0.107275241607502D+04 0.000000000000000D+00 0.000000000000000D+00 -.107275241607502D+04
 0.497577756604552D+03 -.474780082923555D+03 -.356628890731536D+02 -.725992773357742D+02
 0.766572267209299D+03 -.809549363942460D+02 -.226692939467623D+01 0.762282231302113D+03
 0.881063071891404D+03 0.547211352974298D+03 0.341949533560284D+02 -.689682953966339D+03
 0.148571111082087D+03 0.852366634350334D+01 0.373486511180138D+01 0.148279374637294D+03
0.421059484870D-04 0.000000000000D+00 0.000000000000D+00 0.837084448103D-05 0.000000000000D+00  6 1 2 25 1 2 21 0 0.95403084D-01 0.28541947D+00 0.31364353D+06 0.31364353D+06 0.31364353D+06 0.10831257D+01  1  2  2  1  6  1        1 0.164277707650D-03 0.100000000000D+01
0.134929112107D-04 0.000000000000D+00 -.161697928941D-06 0.837084448103D-05 0.000000000000D+00  6 1 2 25 1 2 21 2 0.95403084D-01 0.28541947D+00 0.31364353D+06 0.31364353D+06 0.31364353D+06 0.10831257D+01  1  2  3  1  6  1        1 0.617587637890D-04 0.100000000000D+01
-.267223407677D-04 0.000000000000D+00 0.000000000000D+00 0.837084448103D-05 0.000000000000D+00  6 1 2 25 1 2 21 2 0.95403084D-01 0.28541947D+00 0.31364353D+06 0.31364353D+06 0.31364353D+06 0.10831257D+01  1  2 15  1  6  1        1 -.122311538674D-03 0.100000000000D+01
0.295228478730D-01 0.000000000000D+00 0.000000000000D+00 0.837084448103D-05 0.000000000000D+00  6 1 2 25 1 2 21 2 0.11245696D+00 0.28541947D+00 0.31969094D+06 0.31969094D+06 0.31969094D+06 0.10825151D+01  1  2 12  1  6  1        1 0.105190466119D+00 0.100000000000D+01
0.546331599022D-07 0.000000000000D+00 0.000000000000D+00 0.837084448103D-05 0.000000000000D+00  6 1 2 25 1 2 21 2 0.10861485D+00 0.28541947D+00 0.31969094D+06 0.31969094D+06 0.31969094D+06 0.10825151D+01  1  2 12  1  6  1        1 0.205361028146D-06 0.100000000000D+01
-.132960425630D-01 0.000000000000D+00 0.000000000000D+00 0.837084448103D-05 0.000000000000D+00  6 1 2 25 1 2 21 2 0.95403084D-01 0.28541947D+00 0.31364353D+06 0.31364353D+06 0.31364353D+06 0.10831257D+01  1  2  4  1  6  1        1 -.608576710508D-01 0.100000000000D+01
-.393842128030D-01 0.000000000000D+00 -.876052637171D-04 0.837084448103D-05 0.000000000000D+00  6 1 2 25 1 2 21 2 0.10861241D+00 0.28541947D+00 0.31364353D+06 0.31364353D+06 0.31364353D+06 0.10831257D+01  1  2  5  1  6  1        1 -.148389859833D+00 0.100000000000D+01
0.390673744423D-01 0.000000000000D+00 0.868738245916D-04 0.837084448103D-05 0.000000000000D+00  6 1 2 25 1 2 21 2 0.95403084D-01 0.28541947D+00 0.31364353D+06 0.31364353D+06 0.31364353D+06 0.10831257D+01  1  2  6  1  6  1        1 0.178816321576D+00 0.100000000000D+01
0.497663950245D-06 0.000000000000D+00 0.000000000000D+00 0.837084448103D-05 0.222199534591D-06  6 1 2 25 1 2 21 2 0.10860580D+00 0.28546097D+00 0.31969094D+06 0.31969094D+06 0.31969094D+06 0.10825151D+01  1  2 11  1  6  1        1 0.187027761433D-05 0.100000000000D+01
0.725079648995D-03 0.000000000000D+00 0.000000000000D+00 0.837084448103D-05 0.000000000000D+00  6 21 2 25 1 2 -1 2 0.11245696D+00 0.28541947D+00 0.31969094D+06 0.31969094D+06 0.31969094D+06 0.10825151D+01  1  2 12  5  6  1        1 0.497625359648D-02 0.100000000000D+01
0.110613945940D-08 0.000000000000D+00 0.000000000000D+00 0.837084448103D-05 0.000000000000D+00  6 21 2 25 1 2 -1 2 0.10861485D+00 0.28541947D+00 0.31969094D+06 0.31969094D+06 0.31969094D+06 0.10825151D+01  1  2 12  5  6  1        1 0.833088392347D-08 0.100000000000D+01
-.796817160663D-03 0.000000000000D+00 -.177345918501D-05 0.837084448103D-05 0.000000000000D+00  6 21 2 25 1 2 -1 2 0.10861241D+00 0.28541947D+00 0.31364353D+06 0.31364353D+06 0.31364353D+06 0.10831257D+01  1  2  5  5  6  1        1 -.601954213558D-02 0.100000000000D+01
0.275864894918D-07 0.000000000000D+00 0.000000000000D+00 0.837084448103D-05 0.112992897806D-07  6 21 2 25 1 2 -1 2 0.10860580D+00 0.28546097D+00 0.31969094D+06 0.31969094D+06 0.31969094D+06 0.10825151D+01  1  2 11  5  6  1        1 0.207743175226D-06 0.100000000000D+01
  </mgrwgt>
  </event>
  <event>
  5     66 0.17698235E-05 0.10176181E+03 0.75467711E-02 0.94271735E-01
        1 -1    0    0  501    0 0.00000000E+00 0.00000000E+00 0.26952443E+04 0.26952443E+04 0.32000000E+00 0.0000E+00 0.9000E+01
        2 -1    0    0  502    0 0.00000000E+00 0.00000000E+00 -.19947739E+03 0.19947765E+03 0.32000000E+00 0.0000E+00 0.9000E+01
       25  1    1    2    0    0 0.29615230E+02 0.45620264E+03 0.63520673E+03 0.79253423E+03 0.12500000E+03 0.0000E+00 0.9000E+01
        1  1    1    2  501    0 -.12966325E+03 -.43766273E+03 0.19272233E+04 0.19805431E+04 0.32000000E+00 0.0000E+00 0.9000E+01
        2  1    1    2  502    0 0.10004802E+03 -.18539907E+02 -.66663149E+02 0.12164461E+03 0.32000000E+00 0.0000E+00 0.9000E+01
#aMCatNLO 1  0  0  4  1 0.12360933D+02 0.00000000D+00  -5  6  0 0.00000000D+00 0.00000000D+00 0.00000000D+00 0.00000000D+00 0.00000000D+00
  <mgrwgt>
 0.1503262167D-01    8    2    0
 0.733239863458081D+03 0.000000000000000D+00 0.000000000000000D+00 0.733239863458081D+03
 0.733239863458081D+03 -.000000000000000D+00 -.000000000000000D+00 -.733239863458081D+03
 0.483340477529067D+03 0.296013154282053D+02 0.456193177961160D+03 -.948923796974476D+02
 0.629529775605552D+03 -.129659213668694D+03 -.437649122983942D+03 0.433542929634632D+03
 0.353609473781542D+03 0.100057898240489D+03 -.185440549772180D+02 -.338650549937184D+03
 0.000000000000000D+00 0.000000000000000D+00 -.000000000000000D+00 0.000000000000000D+00
 0.733239863458081D+03 0.000000000000000D+00 0.000000000000000D+00 0.733239863458081D+03
 0.733239863458081D+03 -.000000000000000D+00 -.000000000000000D+00 -.733239863458081D+03
 0.483209740098249D+03 0.295678205845554D+02 0.456080120134160D+03 -.947803826227100D+02
 0.354820336541373D+03 -.708158899668013D+02 -.238301685486808D+03 0.253169681529384D+03
 0.353528416287020D+03 0.100033393074968D+03 -.186267692240129D+02 -.338568611747445D+03
 0.274921233989520D+03 -.587853236927221D+02 -.199151665423339D+03 0.180179312840772D+03
0.154851615263D-03 0.000000000000D+00 0.000000000000D+00 0.745555824041D-06 0.000000000000D+00  6 1 2 25 1 2 21 0 0.41465299D+00 0.30688851D-01 0.26633219D+06 0.26633219D+06 0.26633219D+06 0.10883975D+01  1  2  2  3  6  4        1 0.393984375201D-03 0.100000000000D+01
0.235815783493D-04 0.000000000000D+00 -.594670975978D-06 0.745555824041D-06 0.000000000000D+00  6 1 2 25 1 2 21 2 0.41465299D+00 0.30688851D-01 0.26633219D+06 0.26633219D+06 0.26633219D+06 0.10883975D+01  1  2  3  3  6  4        1 0.710740758739D-04 0.100000000000D+01
-.909960980829D-04 0.000000000000D+00 0.000000000000D+00 0.745555824041D-06 0.000000000000D+00  6 1 2 25 1 2 21 2 0.41465299D+00 0.30688851D-01 0.26633219D+06 0.26633219D+06 0.26633219D+06 0.10883975D+01  1  2 15  3  6  4        1 -.274259147695D-03 0.100000000000D+01
0.200354986175D-01 0.000000000000D+00 0.000000000000D+00 0.745555824041D-06 0.000000000000D+00  6 1 2 25 1 2 21 2 0.41465299D+00 0.30688851D-01 0.26616506D+06 0.26616506D+06 0.26616506D+06 0.10884179D+01  1  2 12  3  6  4        1 0.603908506149D-01 0.100000000000D+01
0.211614536870D-05 0.000000000000D+00 0.000000000000D+00 0.745555824041D-06 0.000000000000D+00  6 1 2 25 1 2 21 2 0.41465299D+00 0.30688851D-01 0.26616506D+06 0.26616506D+06 0.26616506D+06 0.10884179D+01  1  2 12  3  6  4        1 0.637846959939D-05 0.100000000000D+01
-.255091909210D-01 0.000000000000D+00 0.000000000000D+00 0.745555824041D-06 0.000000000000D+00  6 1 2 25 1 2 21 2 0.41465299D+00 0.30688851D-01 0.26633219D+06 0.26633219D+06 0.26633219D+06 0.10883975D+01  1  2  4  3  6  4        1 -.768838346671D-01 0.100000000000D+01
-.200563568461D-01 0.000000000000D+00 0.000000000000D+00 0.745555824041D-06 0.000000000000D+00  6 1 2 25 1 2 21 2 0.41465299D+00 0.30688851D-01 0.26633219D+06 0.26633219D+06 0.26633219D+06 0.10883975D+01  1  2  5  3  6  4        1 -.604491780458D-01 0.100000000000D+01
0.304507766009D-01 0.000000000000D+00 -.000000000000D+00 0.745555824041D-06 0.000000000000D+00  6 1 2 25 1 2 21 2 0.41465299D+00 0.30688851D-01 0.26633219D+06 0.26633219D+06 0.26633219D+06 0.10883975D+01  1  2  6  3  6  4        1 0.917776059978D-01 0.100000000000D+01
  </mgrwgt>
  </event>
  <event>
  5     66 0.17698235E-05 0.96410351E+02 0.75467711E-02 0.87411681E-01
        1 -1    0    0  501    0 0.00000000E+00 0.00000000E+00 0.15975348E+04 0.15975348E+04 0.32000000E+00 0.0000E+00 0.9000E+01
        2 -1    0    0  502    0 -.00000000E+00 -.00000000E+00 -.21999683E+04 0.21999683E+04 0.32000000E+00 0.0000E+00 0.9000E+01
       25  1    1    2    0    0 -.12945527E+02 0.48780385E+03 0.73367601E+02 0.50904616E+03 0.12500000E+03 0.0000E+00 0.9000E+01
        1  1    1    2  501    0 0.87472229E+02 -.40549195E+02 0.12785585E+04 0.12821886E+04 0.32000000E+00 0.0000E+00 0.9000E+01
        2  1    1    2  502    0 -.74526702E+02 -.44725466E+03 -.19543597E+04 0.20062684E+04 0.32000000E+00 0.0000E+00 0.9000E+01
#aMCatNLO 1  0  0  4  1 0.12360933D+02 0.00000000D+00  -5  6  0 0.00000000D+00 0.00000000D+00 0.00000000D+00 0.00000000D+00 0.00000000D+00
  <mgrwgt>
 0.9909411135D-02    6    2    0
 0.187470690754806D+04 0.000000000000000D+00 0.000000000000000D+00 0.187470690754806D+04
 0.187470690754806D+04 -.000000000000000D+00 -.000000000000000D+00 -.187470690754806D+04
 0.527408923929056D+03 -.129376167255789D+02 0.487835964711835D+03 0.156153330566913D+03
 0.150401051117496D+04 0.874690660200460D+02 -.405477289133114D+02 0.150091727350122D+04
 0.171799437999209D+04 -.745314492944666D+02 -.447288235798524D+03 -.165707060406813D+04
 0.000000000000000D+00 0.000000000000000D+00 0.000000000000000D+00 0.000000000000000D+00
 0.187470690754806D+04 0.000000000000000D+00 0.000000000000000D+00 0.187470690754806D+04
 0.187470690754806D+04 -.000000000000000D+00 -.000000000000000D+00 -.187470690754806D+04
 0.545260391803350D+03 -.966366493529068D+01 0.486318270334746D+03 0.212332400702723D+03
 0.776263339079866D+03 0.553796830322414D+03 -.299642961488778D+02 0.543135326857472D+03
 0.155424573415174D+04 -.645440690060321D+02 -.451918050736719D+03 -.148569308428872D+04
 0.873644350061159D+03 -.479589096381091D+03 -.443592344914935D+01 0.730225356728528D+03
0.239823102960D-01 0.000000000000D+00 0.000000000000D+00 0.239472299484D-03 0.000000000000D+00  6 1 2 25 1 2 21 0 0.24577458D+00 0.33845667D+00 0.27753289D+06 0.27753289D+06 0.27753289D+06 0.10870619D+01  1  2  2  3  6  4        1 0.108325827027D-01 0.100000000000D+01
0.692963300422D-02 0.000000000000D+00 -.920983862241D-04 0.239472299484D-03 0.000000000000D+00  6 1 2 25 1 2 21 2 0.24577458D+00 0.33845667D+00 0.27753289D+06 0.27753289D+06 0.27753289D+06 0.10870619D+01  1  2  3  3  6  4        1 0.369879114388D-02 0.100000000000D+01
-.143118459981D-01 0.000000000000D+00 0.000000000000D+00 0.239472299484D-03 0.000000000000D+00  6 1 2 25 1 2 21 2 0.24577458D+00 0.33845667D+00 0.27753289D+06 0.27753289D+06 0.27753289D+06 0.10870619D+01  1  2 15  3  6  4        1 -.763915335749D-02 0.100000000000D+01
-.115852755956D-03 0.000000000000D+00 0.000000000000D+00 0.239472299484D-03 0.000000000000D+00  6 1 2 25 1 2 21 2 0.24577458D+00 0.33845667D+00 0.27753289D+06 0.27753289D+06 0.27753289D+06 0.10870619D+01  1  2  4  3  6  4        1 -.618380724439D-04 0.100000000000D+01
-.822703945284D-02 0.000000000000D+00 0.000000000000D+00 0.239472299484D-03 0.000000000000D+00  6 1 2 25 1 2 21 2 0.24577458D+00 0.33845667D+00 0.27753289D+06 0.27753289D+06 0.27753289D+06 0.10870619D+01  1  2  5  3  6  4        1 -.439130047002D-02 0.100000000000D+01
0.139955562998D-01 0.000000000000D+00 -.000000000000D+00 0.239472299484D-03 0.000000000000D+00  6 1 2 25 1 2 21 2 0.24577458D+00 0.33845667D+00 0.27753289D+06 0.27753289D+06 0.27753289D+06 0.10870619D+01  1  2  6  3  6  4        1 0.747032918826D-02 0.100000000000D+01
  </mgrwgt>
  </event>
  <event>
  5     66 0.17698235E-05 0.12462270E+03 0.75467711E-02 0.93311470E-01
        1 -1    0    0  501    0 0.00000000E+00 0.00000000E+00 0.11720879E+04 0.11720880E+04 0.32000000E+00 0.0000E+00 0.9000E+01
        2 -1    0    0  502    0 0.00000000E+00 0.00000000E+00 -.10941908E+04 0.10941908E+04 0.32000000E+00 0.0000E+00 0.9000E+01
       25  1    1    2    0    0 -.50287544E+03 -.32191873E+02 -.40369928E+03 0.65766110E+03 0.12500000E+03 0.0000E+00 0.9000E+01
        1  1    1    2  501    0 0.12051701E+03 -.31743512E+02 0.97398951E+03 0.98193058E+03 0.32000000E+00 0.0000E+00 0.9000E+01
        2  1    1    2  502    0 0.38235843E+03 0.63935384E+02 -.49239308E+03 0.62668712E+03 0.32000000E+00 0.0000E+00 0.9000E+01
#aMCatNLO 1  0  0  2  4 0.71977418D+02 0.00000000D+00  -5  6  0 0.00000000D+00 0.00000000D+00 0.00000000D+00 0.00000000D+00 0.00000000D+00
  <mgrwgt>
 0.1690257083D-02    9    2    0
 0.113246982963546D+04 0.000000000000000D+00 0.000000000000000D+00 0.113246982963546D+04
 0.113246982963546D+04 0.000000000000000D+00 0.000000000000000D+00 -.113246982963546D+04
 0.671936552750729D+03 -.502915735505656D+03 -.321981279435938D+02 -.426512337993013D+03
 0.948976935387024D+03 0.120512419154195D+03 -.317423031845420D+02 0.940758421123453D+03
 0.644026171133168D+03 0.382403316351462D+03 0.639404311281358D+02 -.514246083130441D+03
 0.000000000000000D+00 -.000000000000000D+00 0.000000000000000D+00 -.000000000000000D+00
 0.115782233294891D+04 0.000000000000000D+00 0.000000000000000D+00 0.115782233294891D+04
 0.118530726773687D+04 0.000000000000000D+00 0.000000000000000D+00 -.118530726773687D+04
 0.665561425445800D+03 -.492793648482053D+03 -.508788423308441D+02 -.426512337993013D+03
 0.952167427744540D+03 0.134900140856771D+03 -.582954161129664D+02 0.940758421123453D+03
 0.648354201071748D+03 0.392183956627789D+03 0.458898703000724D+02 -.514246083130441D+03
 0.770465464236995D+02 -.342904490025073D+02 0.632843881437381D+02 -.274849347879603D+02
0.217572167741D-03 0.000000000000D+00 0.000000000000D+00 0.612502001101D-05 0.000000000000D+00  6 1 2 25 1 2 21 0 0.18032123D+00 0.16833705D+00 0.26602461D+06 0.26602461D+06 0.26602461D+06 0.10884351D+01  1  2  2  2  6  2        2 0.792875708722D-03 0.100000000000D+01
0.430200372624D-04 0.000000000000D+00 -.835534412194D-06 0.612502001101D-05 0.000000000000D+00  6 1 2 25 1 2 21 2 0.18032123D+00 0.16833705D+00 0.26602461D+06 0.26602461D+06 0.26602461D+06 0.10884351D+01  1  2  3  2  6  2        2 0.185728095015D-03 0.100000000000D+01
-.129856534193D-03 0.000000000000D+00 0.000000000000D+00 0.612502001101D-05 0.000000000000D+00  6 1 2 25 1 2 21 2 0.18032123D+00 0.16833705D+00 0.26602461D+06 0.26602461D+06 0.26602461D+06 0.10884351D+01  1  2 15  2  6  2        2 -.560622636699D-03 0.100000000000D+01
0.187595207395D-08 0.000000000000D+00 0.000000000000D+00 0.612502001101D-05 0.000000000000D+00  6 1 2 25 1 2 21 2 0.18032123D+00 0.17838314D+00 0.31625651D+06 0.31625651D+06 0.31625651D+06 0.10828603D+01  1  2 12  2  6  2        2 0.725896365318D-08 0.100000000000D+01
-.676640947213D-04 0.000000000000D+00 0.000000000000D+00 0.612502001101D-05 0.000000000000D+00  6 1 2 25 1 2 21 2 0.18032123D+00 0.16833705D+00 0.26602461D+06 0.26602461D+06 0.26602461D+06 0.10884351D+01  1  2  4  2  6  2        2 -.292122559933D-03 0.100000000000D+01
-.391197167379D-02 0.000000000000D+00 -.796375469990D-03 0.612502001101D-05 0.000000000000D+00  6 1 2 25 1 2 21 2 0.18032123D+00 0.17862143D+00 0.26602461D+06 0.26602461D+06 0.26602461D+06 0.10884351D+01  1  2  5  2  6  2        2 -.154201902419D-01 0.100000000000D+01
0.395364168143D-02 0.000000000000D+00 0.794977274158D-03 0.612502001101D-05 0.000000000000D+00  6 1 2 25 1 2 21 2 0.18032123D+00 0.16833705D+00 0.26602461D+06 0.26602461D+06 0.26602461D+06 0.10884351D+01  1  2  6  2  6  2        2 0.170688447661D-01 0.100000000000D+01
0.239256819992D-10 0.000000000000D+00 0.000000000000D+00 0.612502001101D-05 0.000000000000D+00  6 1 21 25 1 2 -2 2 0.18032123D+00 0.17838314D+00 0.31625651D+06 0.31625651D+06 0.31625651D+06 0.10828603D+01  1  2 12  6  6  2        2 0.505820612492D-10 0.100000000000D+01
-.389048353005D-04 0.000000000000D+00 -.811829476137D-05 0.612502001101D-05 0.000000000000D+00  6 1 21 25 1 2 -2 2 0.18032123D+00 0.17862143D+00 0.26602461D+06 0.26602461D+06 0.26602461D+06 0.10884351D+01  1  2  5  6  6  2        2 -.842633579578D-04 0.100000000000D+01
  </mgrwgt>
  </event>
  <event>
  5     66 0.17698235E-05 0.24168112E+03 0.75467711E-02 0.92129497E-01
        1 -1    0    0  501    0 0.00000000E+00 0.00000000E+00 0.12392958E+04 0.12392959E+04 0.32000000E+00 0.0000E+00 0.9000E+01
        2 -1    0    0  502    0 0.00000000E+00 0.00000000E+00 -.33845753E+04 0.33845753E+04 0.32000000E+00 0.0000E+00 0.9000E+01
       25  1    1    2    0    0 -.48836673E+03 0.21902998E+02 -.27222538E+03 0.57333538E+03 0.12500000E+03 0.0000E+00 0.9000E+01
        1  1    1    2  501    0 0.27213623E+03 -.12982331E+03 0.10628048E+04 0.11047472E+04 0.32000000E+00 0.0000E+00 0.9000E+01
        2  1    1    2  502    0 0.21623050E+03 0.10792031E+03 -.29358589E+04 0.29457885E+04 0.32000000E+00 0.0000E+00 0.9000E+01
#aMCatNLO 1  0  0  2  4 0.19897471D+03 0.00000000D+00  -5  6  0 0.00000000D+00 0.00000000D+00 0.00000000D+00 0.00000000D+00 0.00000000D+00
  <mgrwgt>
 0.2889286564D-01    9    2    0
 0.204804544273292D+04 0.000000000000000D+00 0.000000000000000D+00 0.204804544273292D+04
 0.204804544273292D+04 0.000000000000000D+00 0.000000000000000D+00 -.204804544273292D+04
 0.504642760486031D+03 -.488376167458364D+03 0.218946357554749D+02 -.697565013290796D+01
 0.180369587126847D+04 0.272131817262008D+03 -.129821203059633D+03 0.177831648625905D+04
 0.178775225371134D+04 0.216244350196356D+03 0.107926567304158D+03 -.177134083612615D+04
 0.000000000000000D+00 0.000000000000000D+00 -.000000000000000D+00 -.000000000000000D+00
 0.206370493838562D+04 0.000000000000000D+00 0.000000000000000D+00 0.206370493838562D+04
 0.279776745646129D+04 0.000000000000000D+00 0.000000000000000D+00 -.279776745646129D+04
 0.509572153070752D+03 -.491780991520538D+03 0.462771635848748D+02 -.697565013290796D+01
 0.179774879179884D+04 0.260041396106203D+03 -.432396279422538D+02 0.177831648625905D+04
 0.179359986357479D+04 0.204221381788911D+03 0.194025101746307D+03 -.177134083612615D+04
 0.760551586402532D+03 0.275182136254242D+02 -.197062637388928D+03 -.734062518075670D+03
0.200462422252D-01 0.000000000000D+00 0.000000000000D+00 0.110591009201D-03 0.000000000000D+00  6 1 2 25 1 2 21 0 0.19066090D+00 0.52070389D+00 0.27446456D+06 0.27446456D+06 0.27446456D+06 0.10874219D+01  1  2  2  2  6  2        2 0.299318574601D-02 0.100000000000D+01
0.273915836207D-02 0.000000000000D+00 -.769828484417D-04 0.110591009201D-03 0.000000000000D+00  6 1 2 25 1 2 21 2 0.19066090D+00 0.52070389D+00 0.27446456D+06 0.27446456D+06 0.27446456D+06 0.10874219D+01  1  2  3  2  6  2        2 0.483630817590D-03 0.100000000000D+01
-.131343661490D-01 0.000000000000D+00 0.000000000000D+00 0.110591009201D-03 0.000000000000D+00  6 1 2 25 1 2 21 2 0.19066090D+00 0.52070389D+00 0.27446456D+06 0.27446456D+06 0.27446456D+06 0.10874219D+01  1  2 15  2  6  2        2 -.231902774485D-02 0.100000000000D+01
0.890832347118D-09 0.000000000000D+00 0.000000000000D+00 0.110591009201D-03 0.000000000000D+00  6 1 2 25 1 2 21 2 0.19066090D+00 0.71309912D+00 0.39300738D+06 0.39300738D+06 0.39300738D+06 0.10759802D+01  1  2 12  2  6  2        2 0.130175467059D-10 0.100000000000D+01
-.153734609438D-01 0.000000000000D+00 0.000000000000D+00 0.110591009201D-03 0.000000000000D+00  6 1 2 25 1 2 21 2 0.19066090D+00 0.52070389D+00 0.27446456D+06 0.27446456D+06 0.27446456D+06 0.10874219D+01  1  2  4  2  6  2        2 -.271436642306D-02 0.100000000000D+01
-.191366041649D+00 0.000000000000D+00 -.949297919081D-02 0.110591009201D-03 0.000000000000D+00  6 1 2 25 1 2 21 2 0.19066090D+00 0.71198540D+00 0.27446456D+06 0.27446456D+06 0.27446456D+06 0.10874219D+01  1  2  5  2  6  2        2 -.305473689383D-02 0.100000000000D+01
0.189765546628D+00 0.000000000000D+00 0.926100950624D-02 0.110591009201D-03 0.000000000000D+00  6 1 2 25 1 2 21 2 0.19066090D+00 0.52070389D+00 0.27446456D+06 0.27446456D+06 0.27446456D+06 0.10874219D+01  1  2  6  2  6  2        2 0.335053524970D-01 0.100000000000D+01
0.356234454941D-10 0.000000000000D+00 0.000000000000D+00 0.110591009201D-03 0.000000000000D+00  6 1 21 25 1 2 -2 2 0.19066090D+00 0.71309912D+00 0.39300738D+06 0.39300738D+06 0.39300738D+06 0.10759802D+01  1  2 12  6  6  2        2 0.507912235865D-14 0.100000000000D+01
-.739801178067D-02 0.000000000000D+00 -.378252952647D-03 0.110591009201D-03 0.000000000000D+00  6 1 21 25 1 2 -2 2 0.19066090D+00 0.71198540D+00 0.27446456D+06 0.27446456D+06 0.27446456D+06 0.10874219D+01  1  2  5  6  6  2        2 -.117237510222D-05 0.100000000000D+01
  </mgrwgt>
  </event>
  <event>
  5     66 0.17698235E-05 0.81287317E+02 0.75467711E-02 0.92060763E-01
        1 -1    0    0  501    0 0.00000000E+00 0.00000000E+00 0.80323215E+03 0.80323221E+03 0.32000000E+00 0.0000E+00 0.9000E+01
        2 -1    0    0  502    0 0.00000000E+00 0.00000000E+00 -.19692983E+04 0.19692983E+04 0.32000000E+00 0.0000E+00 0.9000E+01
       25  1    1    2    0    0 0.58914328E+03 -.12857182E+03 -.67621299E+03 0.91460895E+03 0.12500000E+03 0.0000E+00 0.9000E+01
        1  1    1    2  501    0 -.79393828E+02 -.17465104E+02 0.62137089E+03 0.62666602E+03 0.32000000E+00 0.0000E+00 0.9000E+01
        2  1    1    2  502    0 -.50974945E+03 0.14603692E+03 -.11112241E+04 0.12312556E+04 0.32000000E+00 0.0000E+00 0.9000E+01
#aMCatNLO 1  0  0  1  4 0.24099177D+02 0.00000000D+00  -5  6  0 0.00000000D+00 0.00000000D+00 0.00000000D+00 0.00000000D+00 0.00000000D+00
  <mgrwgt>
 0.6375945174D-02   11    2    0
 0.125769783477892D+04 0.000000000000000D+00 0.000000000000000D+00 0.125769783477892D+04
 0.125769783477892D+04 0.000000000000000D+00 0.000000000000000D+00 -.125769783477892D+04
 0.694655583512578D+03 0.589197097566805D+03 -.128587417044813D+03 -.321299604888952D+03
 0.978718576752496D+03 -.793891309421005D+02 -.174640707589879D+02 0.975337082552086D+03
 0.842021509292769D+03 -.509807966624704D+03 0.146051487803801D+03 -.654037477663134D+03
 0.000000000000000D+00 0.000000000000000D+00 -.000000000000000D+00 0.000000000000000D+00
 0.206737492795825D+04 0.000000000000000D+00 0.000000000000000D+00 0.206737492795825D+04
 0.125793488939546D+04 0.000000000000000D+00 0.000000000000000D+00 -.125793488939546D+04
 0.688912025617201D+03 0.582684365895676D+03 -.127358834318442D+03 -.321299604888952D+03
 0.979479895819345D+03 -.886067659362417D+02 -.157252263379911D+02 0.975337082552086D+03
 0.847119188608582D+03 -.517759092429922D+03 0.147551413842946D+03 -.654037477663134D+03
 0.809798707308581D+03 0.236814924704876D+02 -.446735318651246D+01 0.809440038562787D+03
0.671602187841D-05 0.000000000000D+00 0.000000000000D+00 0.103296435839D-04 0.000000000000D+00  6 1 2 25 1 2 21 0 0.12357418D+00 0.30296898D+00 0.37668128D+06 0.37668128D+06 0.37668128D+06 0.10773132D+01  1  2  2  1  6  1        1 0.150806362486D-04 0.100000000000D+01
0.239643077240D-05 0.000000000000D+00 -.257912923823D-07 0.103296435839D-04 0.000000000000D+00  6 1 2 25 1 2 21 2 0.12357418D+00 0.30296898D+00 0.37668128D+06 0.37668128D+06 0.37668128D+06 0.10773132D+01  1  2  3  1  6  1        1 0.624534465316D-05 0.100000000000D+01
-.454177048918D-05 0.000000000000D+00 0.000000000000D+00 0.103296435839D-04 0.000000000000D+00  6 1 2 25 1 2 21 2 0.12357418D+00 0.30296898D+00 0.37668128D+06 0.37668128D+06 0.37668128D+06 0.10773132D+01  1  2 15  1  6  1        1 -.118363202339D-04 0.100000000000D+01
0.558312725893D-02 0.000000000000D+00 0.000000000000D+00 0.103296435839D-04 0.000000000000D+00  6 1 2 25 1 2 21 2 0.21337407D+00 0.30296898D+00 0.39807408D+06 0.39807408D+06 0.39807408D+06 0.10755788D+01  1  2 12  1  6  1        1 0.526314777293D-02 0.100000000000D+01
0.410434631450D-08 0.000000000000D+00 0.000000000000D+00 0.103296435839D-04 0.000000000000D+00  6 1 2 25 1 2 21 2 0.20314344D+00 0.30296898D+00 0.39807408D+06 0.39807408D+06 0.39807408D+06 0.10755788D+01  1  2 12  1  6  1        1 0.430030994154D-08 0.100000000000D+01
-.266207368550D-02 0.000000000000D+00 0.000000000000D+00 0.103296435839D-04 0.000000000000D+00  6 1 2 25 1 2 21 2 0.12357418D+00 0.30296898D+00 0.37668128D+06 0.37668128D+06 0.37668128D+06 0.10773132D+01  1  2  4  1  6  1        1 -.693763736035D-02 0.100000000000D+01
-.644576775037D-02 0.000000000000D+00 -.469421532880D-05 0.103296435839D-04 0.000000000000D+00  6 1 2 25 1 2 21 2 0.20313997D+00 0.30296898D+00 0.37668128D+06 0.37668128D+06 0.37668128D+06 0.10773132D+01  1  2  5  1  6  1        1 -.680587458125D-02 0.100000000000D+01
0.572653622945D-02 0.000000000000D+00 0.416857658891D-05 0.103296435839D-04 0.000000000000D+00  6 1 2 25 1 2 21 2 0.12357418D+00 0.30296898D+00 0.37668128D+06 0.37668128D+06 0.37668128D+06 0.10773132D+01  1  2  6  1  6  1        1 0.149239414022D-01 0.100000000000D+01
0.338178754618D-03 0.000000000000D+00 0.000000000000D+00 0.103296435839D-04 0.000000000000D+00  6 21 2 25 1 2 -1 2 0.21337407D+00 0.30296898D+00 0.39807408D+06 0.39807408D+06 0.39807408D+06 0.10755788D+01  1  2 12  5  6  1        1 0.272218941001D-03 0.100000000000D+01
0.230340039055D-09 0.000000000000D+00 0.000000000000D+00 0.103296435839D-04 0.000000000000D+00  6 21 2 25 1 2 -1 2 0.20314344D+00 0.30296898D+00 0.39807408D+06 0.39807408D+06 0.39807408D+06 0.10755788D+01  1  2 12  5  6  1        1 0.220363892650D-09 0.100000000000D+01
-.361522816090D-03 0.000000000000D+00 -.263436923795D-06 0.103296435839D-04 0.000000000000D+00  6 21 2 25 1 2 -1 2 0.20313997D+00 0.30296898D+00 0.37668128D+06 0.37668128D+06 0.37668128D+06 0.10773132D+01  1  2  5  5  6  1        1 -.349345181825D-03 0.100000000000D+01
  </mgrwgt>
  </event>
  <event>
  6     66 -.17698235E-05 0.39709691E+02 0.75467711E-02 0.93360651E-01
        1 -1    0    0  501    0 0.00000000E+00 0.00000000E+00 0.32424666E+03 0.32424682E+03 0.32000000E+00 0.0000E+00 0.9000E+01
        2 -1    0    0  502    0 -.00000000E+00 -.00000000E+00 -.12979310E+04 0.12979310E+04 0.32000000E+00 0.0000E+00 0.9000E+01
       25  1    1    2    0    0 0.46654449E+03 0.28052905E+03 -.53143376E+03 0.77097805E+03 0.12500000E+03 0.0000E+00 0.9000E+01
        1  1    1    2  503    0 -.34382079E+02 0.94187283E+01 0.70763278E+02 0.79236252E+02 0.32000000E+00 0.0000E+00 0.9000E+01
        2  1    1    2  502    0 -.37603786E+03 -.27789185E+03 -.53496168E+03 0.71050155E+03 0.32000000E+00 0.0000E+00 0.9000E+01
       21  1    1    2  501  503 -.56124547E+02 -.12055927E+02 0.21947817E+02 0.61462015E+02 0.75000000E+00 0.0000E+00 0.9000E+01
#aMCatNLO 2  0  0  4  1 0.26513268D+02 0.00000000D+00  -5  6  0 0.00000000D+00 0.00000000D+00 0.00000000D+00 0.00000000D+00 0.00000000D+00
  <mgrwgt>
 -.3293841676D-02    3    2    0
 0.648729491133152D+03 0.000000000000000D+00 0.000000000000000D+00 0.648729491133152D+03
 0.648729491133152D+03 -.000000000000000D+00 -.000000000000000D+00 -.648729491133152D+03
 0.566559189695230D+03 0.467768783283922D+03 0.280786460344762D+03 -.878387414541788D+02
 0.243677410678064D+03 -.921646460837535D+02 -.268551016009661D+01 0.225559629637492D+03
 0.487222381893010D+03 -.375604137200169D+03 -.278100950184666D+03 -.137720888183312D+03
 0.000000000000000D+00 0.000000000000000D+00 -.000000000000000D+00 0.000000000000000D+00
 0.648729491133152D+03 0.000000000000000D+00 0.000000000000000D+00 0.648729491133152D+03
 0.648729491133152D+03 -.000000000000000D+00 -.000000000000000D+00 -.648729491133152D+03
 0.565317676897706D+03 0.466746568029704D+03 0.280756674851434D+03 -.853370175942318D+02
 0.151430529995545D+03 -.341285249712870D+02 0.941270438634477D+01 0.147233998091986D+03
 0.487312208876779D+03 -.376484254246334D+03 -.278126595194656D+03 -.135566929117596D+03
 0.933985664962743D+02 -.561337888120830D+02 -.120427840431233D+02 0.736699486198418D+02
-.246373190865D-03 0.000000000000D+00 0.000000000000D+00 0.679717606442D-07 0.000000000000D+00  6 1 2 25 1 2 21 2 0.49884117D-01 0.19968171D+00 0.31344828D+06 0.31344828D+06 0.31344828D+06 0.10831457D+01  1  2 13  3  6  4        1 -.561928951311D-02 0.100000000000D+01
-.821170443310D-06 0.000000000000D+00 0.000000000000D+00 0.679717606442D-07 0.000000000000D+00  6 1 2 25 1 2 21 2 0.49884117D-01 0.19968171D+00 0.31344828D+06 0.31344828D+06 0.31344828D+06 0.10831457D+01  1  2 13  3  6  4        1 -.187292880543D-04 0.100000000000D+01
0.102778544679D-03 0.000000000000D+00 0.000000000000D+00 0.679717606442D-07 0.949711551353D-10  6 1 2 25 1 2 21 2 0.49884117D-01 0.19968171D+00 0.31344828D+06 0.31344828D+06 0.31344828D+06 0.10831457D+01  1  2  1  3  6  4        1 0.234417712520D-02 0.100000000000D+01
  </mgrwgt>
  </event>
  <event>
  5     66 0.17698235E-05 0.10807015E+03 0.75467711E-02 0.92406724E-01
        1 -1    0    0  501    0 0.00000000E+00 0.00000000E+00 0.71378116E+03 0.71378123E+03 0.32000000E+00 0.0000E+00 0.9000E+01
        2 -1    0    0  502    0 0.00000000E+00 0.00000000E+00 -.26819878E+04 0.26819878E+04 0.32000000E+00 0.0000E+00 0.9000E+01
       25  1    1    2    0    0 -.57082650E+02 0.58616627E+03 -.70289073E+03 0.92548890E+03 0.12500000E+03 0.0000E+00 0.9000E+01
        1  1    1    2  501    0 0.45610934E+02 -.97979002E+02 0.56535868E+03 0.57559602E+03 0.32000000E+00 0.0000E+00 0.9000E+01
        2  1    1    2  502    0 0.11471716E+02 -.48818726E+03 -.18306745E+04 0.18946841E+04 0.32000000E+00 0.0000E+00 0.9000E+01
#aMCatNLO 1  0  0  2  5 0.40037583D+02 0.00000000D+00  -5  6  0 0.00000000D+00 0.00000000D+00 0.00000000D+00 0.00000000D+00 0.00000000D+00
  <mgrwgt>
 0.7043516685D-02   11    2    0
 0.138360127041599D+04 0.000000000000000D+00 0.000000000000000D+00 0.138360127041599D+04
 0.138360127041599D+04 0.000000000000000D+00 0.000000000000000D+00 -.138360127041599D+04
 0.635796649611654D+03 -.570830578701143D+02 0.586211455055520D+03 -.204230345745413D+03
 0.110840864751821D+04 0.456088156329381D+02 -.979744520750800D+02 0.110312763204005D+04
 0.102299724370211D+04 0.114742422371762D+02 -.488237002980440D+03 -.898897286294640D+03
 0.000000000000000D+00 -.000000000000000D+00 -.000000000000000D+00 -.000000000000000D+00
 0.138758927191700D+04 0.000000000000000D+00 0.000000000000000D+00 0.138758927191700D+04
 0.148802204432888D+04 0.000000000000000D+00 0.000000000000000D+00 -.148802204432888D+04
 0.643658368611151D+03 -.541814794415957D+02 0.595000360206107D+03 -.204230345745413D+03
 0.110738544154403D+04 0.506338460085995D+02 -.827535933464560D+02 0.110312763204005D+04
 0.101644835966854D+04 0.160993453354447D+02 -.474227527295470D+03 -.898897286294640D+03
 0.108119146422155D+03 -.125517119024485D+02 -.380192395641804D+02 -.100432772411872D+03
0.588522067085D-03 0.000000000000D+00 0.000000000000D+00 0.183609886918D-04 0.000000000000D+00  6 1 2 25 1 2 21 0 0.10981249D+00 0.41261351D+00 0.35912717D+06 0.35912717D+06 0.35912717D+06 0.10788186D+01  1  2  2  2  6  2        2 0.626892071490D-03 0.100000000000D+01
0.164826635996D-03 0.000000000000D+00 -.226007969903D-05 0.183609886918D-04 0.000000000000D+00  6 1 2 25 1 2 21 2 0.10981249D+00 0.41261351D+00 0.35912717D+06 0.35912717D+06 0.35912717D+06 0.10788186D+01  1  2  3  2  6  2        2 0.204340408480D-03 0.100000000000D+01
-.349476330812D-03 0.000000000000D+00 0.000000000000D+00 0.183609886918D-04 0.000000000000D+00  6 1 2 25 1 2 21 2 0.10981249D+00 0.41261351D+00 0.35912717D+06 0.35912717D+06 0.35912717D+06 0.10788186D+01  1  2 15  2  6  2        2 -.433256043603D-03 0.100000000000D+01
0.101169720746D-01 0.000000000000D+00 0.000000000000D+00 0.183609886918D-04 0.000000000000D+00  6 1 2 25 1 2 21 2 0.10981249D+00 0.45704836D+00 0.37329153D+06 0.37329153D+06 0.37329153D+06 0.10775979D+01  1  2 12  2  6  2        2 0.829407712621D-02 0.100000000000D+01
0.295667285866D-08 0.000000000000D+00 0.000000000000D+00 0.183609886918D-04 0.000000000000D+00  6 1 2 25 1 2 21 2 0.10981249D+00 0.44447694D+00 0.37329153D+06 0.37329153D+06 0.37329153D+06 0.10775979D+01  1  2 12  2  6  2        2 0.272682106826D-08 0.100000000000D+01
-.625503779701D-02 0.000000000000D+00 0.000000000000D+00 0.183609886918D-04 0.000000000000D+00  6 1 2 25 1 2 21 2 0.10981249D+00 0.41261351D+00 0.35912717D+06 0.35912717D+06 0.35912717D+06 0.10788186D+01  1  2  4  2  6  2        2 -.775455356941D-02 0.100000000000D+01
-.196069441129D-01 0.000000000000D+00 -.123658213181D-02 0.183609886918D-04 0.000000000000D+00  6 1 2 25 1 2 21 2 0.10981249D+00 0.44410331D+00 0.35912717D+06 0.35912717D+06 0.35912717D+06 0.10788186D+01  1  2  5  2  6  2        2 -.182458781053D-01 0.100000000000D+01
0.196480643353D-01 0.000000000000D+00 0.123324531793D-02 0.183609886918D-04 0.000000000000D+00  6 1 2 25 1 2 21 2 0.10981249D+00 0.41261351D+00 0.35912717D+06 0.35912717D+06 0.35912717D+06 0.10788186D+01  1  2  6  2  6  2        2 0.243582808558D-01 0.100000000000D+01
0.190825355068D-03 0.000000000000D+00 0.000000000000D+00 0.183609886918D-04 0.000000000000D+00  6 1 21 25 1 2 -2 2 0.10981249D+00 0.45704836D+00 0.37329153D+06 0.37329153D+06 0.37329153D+06 0.10775979D+01  1  2 12  6  6  2        2 0.107024192900D-04 0.100000000000D+01
0.421526700265D-10 0.000000000000D+00 0.000000000000D+00 0.183609886918D-04 0.000000000000D+00  6 1 21 25 1 2 -2 2 0.10981249D+00 0.44447694D+00 0.37329153D+06 0.37329153D+06 0.37329153D+06 0.10775979D+01  1  2 12  6  6  2        2 0.292536513297D-11 0.100000000000D+01
-.242879425717D-03 0.000000000000D+00 -.153221009289D-04 0.183609886918D-04 0.000000000000D+00  6 1 21 25 1 2 -2 2 0.10981249D+00 0.44410331D+00 0.35912717D+06 0.35912717D+06 0.35912717D+06 0.10788186D+01  1  2  5  6  6  2        2 -.170912078805D-04 0.100000000000D+01
  </mgrwgt>
  </event>
  <event>
  5     66 0.17698235E-05 0.38798837E+03 0.75467711E-02 0.86970065E-01
        1 -1    0    0  501    0 0.00000000E+00 0.00000000E+00 0.10362757E+04 0.10362758E+04 0.32000000E+00 0.0000E+00 0.9000E+01
        2 -1    0    0  502    0 0.00000000E+00 0.00000000E+00 -.11753153E+04 0.11753153E+04 0.32000000E+00 0.0000E+00 0.9000E+01
       25  1    1    2    0    0 0.70696052E+03 -.46228236E+03 0.15030261E+03 0.86701443E+03 0.12500000E+03 0.0000E+00 0.9000E+01
        1  1    1    2  501    0 0.10051233E+03 0.38104719E+03 0.15008865E+03 0.42169467E+03 0.32000000E+00 0.0000E+00 0.9000E+01
        2  1    1    2  502    0 -.80747285E+03 0.81235165E+02 -.43943081E+03 0.92288195E+03 0.32000000E+00 0.0000E+00 0.9000E+01
#aMCatNLO 1  0  0  2  5 0.27631530D+02 0.00000000D+00  -5  6  0 0.00000000D+00 0.00000000D+00 0.00000000D+00 0.00000000D+00 0.00000000D+00
  <mgrwgt>
 0.2898257422D-04   11    2    0
 0.110360805801623D+04 0.000000000000000D+00 0.000000000000000D+00 0.110360805801623D+04
 0.110360805801623D+04 0.000000000000000D+00 0.000000000000000D+00 -.110360805801623D+04
 0.878289750795835D+03 0.707099301753743D+03 -.462199016905310D+03 0.205305948730530D+03
 0.431797793888311D+03 0.100468781081587D+03 0.380882099046499D+03 0.176873359952044D+03
 0.897128571348320D+03 -.807568082835330D+03 0.813169178588112D+02 -.382179308682575D+03
 0.000000000000000D+00 -.000000000000000D+00 -.000000000000000D+00 -.000000000000000D+00
 0.110856852353778D+04 0.000000000000000D+00 0.000000000000000D+00 0.110856852353778D+04
 0.114285655959161D+04 0.000000000000000D+00 0.000000000000000D+00 -.114285655959161D+04
 0.885465704960277D+03 0.717782199700013D+03 -.459415602554450D+03 0.205305948730530D+03
 0.434250936107833D+03 0.105714355329906D+03 0.382248826194386D+03 0.176873359952044D+03
 0.887672423947022D+03 -.796757714070820D+03 0.841335445558519D+02 -.382179308682575D+03
 0.440360181142503D+02 -.267388409590983D+02 -.696676819578721D+01 -.342880360538307D+02
0.252679226396D-05 0.000000000000D+00 0.000000000000D+00 0.374473701745D-09 0.000000000000D+00  6 1 2 25 1 2 21 0 0.15942704D+00 0.18081774D+00 0.10604044D+07 0.10604044D+07 0.10604044D+07 0.10461726D+01  1  2  2  2  6  2        2 0.960796344022D-05 0.100000000000D+01
-.357992371471D-08 0.000000000000D+00 -.970354761328D-08 0.374473701745D-09 0.000000000000D+00  6 1 2 25 1 2 21 2 0.15942704D+00 0.18081774D+00 0.10604044D+07 0.10604044D+07 0.10604044D+07 0.10461726D+01  1  2  3  2  6  2        2 -.148984901988D-07 0.100000000000D+01
-.142919490925D-05 0.000000000000D+00 0.000000000000D+00 0.374473701745D-09 0.000000000000D+00  6 1 2 25 1 2 21 2 0.15942704D+00 0.18081774D+00 0.10604044D+07 0.10604044D+07 0.10604044D+07 0.10461726D+01  1  2 15  2  6  2        2 -.594784918463D-05 0.100000000000D+01
0.143465744195D-04 0.000000000000D+00 0.000000000000D+00 0.374473701745D-09 0.000000000000D+00  6 1 2 25 1 2 21 2 0.15942704D+00 0.18898947D+00 0.10886337D+07 0.10886337D+07 0.10886337D+07 0.10454177D+01  1  2 12  2  6  2        2 0.553712085406D-04 0.100000000000D+01
0.152015473651D-05 0.000000000000D+00 0.000000000000D+00 0.374473701745D-09 0.000000000000D+00  6 1 2 25 1 2 21 2 0.15942704D+00 0.18872122D+00 0.10886337D+07 0.10886337D+07 0.10886337D+07 0.10454177D+01  1  2 12  2  6  2        2 0.588099093482D-05 0.100000000000D+01
-.174355795827D-04 0.000000000000D+00 0.000000000000D+00 0.374473701745D-09 0.000000000000D+00  6 1 2 25 1 2 21 2 0.15942704D+00 0.18081774D+00 0.10604044D+07 0.10604044D+07 0.10604044D+07 0.10461726D+01  1  2  4  2  6  2        2 -.725612700782D-04 0.100000000000D+01
-.146313558306D-03 0.000000000000D+00 -.144071097989D-04 0.374473701745D-09 0.000000000000D+00  6 1 2 25 1 2 21 2 0.15942704D+00 0.18764191D+00 0.10604044D+07 0.10604044D+07 0.10604044D+07 0.10461726D+01  1  2  5  2  6  2        2 -.573109199748D-03 0.100000000000D+01
0.146756446896D-03 0.000000000000D+00 0.143972293310D-04 0.374473701745D-09 0.000000000000D+00  6 1 2 25 1 2 21 2 0.15942704D+00 0.18081774D+00 0.10604044D+07 0.10604044D+07 0.10604044D+07 0.10461726D+01  1  2  6  2  6  2        2 0.610753094182D-03 0.100000000000D+01
0.391770099339D-06 0.000000000000D+00 0.000000000000D+00 0.374473701745D-09 0.000000000000D+00  6 1 21 25 1 2 -2 2 0.15942704D+00 0.18898947D+00 0.10886337D+07 0.10886337D+07 0.10886337D+07 0.10454177D+01  1  2 12  6  6  2        2 0.710518420830D-06 0.100000000000D+01
0.402604548711D-07 0.000000000000D+00 0.000000000000D+00 0.374473701745D-09 0.000000000000D+00  6 1 21 25 1 2 -2 2 0.15942704D+00 0.18872122D+00 0.10886337D+07 0.10886337D+07 0.10886337D+07 0.10454177D+01  1  2 12  6  6  2        2 0.733666236579D-07 0.100000000000D+01
-.955061604176D-06 0.000000000000D+00 -.947391377350D-07 0.374473701745D-09 0.000000000000D+00  6 1 21 25 1 2 -2 2 0.15942704D+00 0.18764191D+00 0.10604044D+07 0.10604044D+07 0.10604044D+07 0.10461726D+01  1  2  5  6  6  2        2 -.178135041883D-05 0.100000000000D+01
  </mgrwgt>
  </event>
  <event>
  5     66 0.17698235E-05 0.33648611E+02 0.75467711E-02 0.85678052E-01
        1 -1    0    0  501    0 0.00000000E+00 0.00000000E+00 0.18930861E+04 0.18930861E+04 0.32000000E+00 0.0000E+00 0.9000E+01
        2 -1    0    0  502    0 -.00000000E+00 -.00000000E+00 -.22488608E+04 0.22488608E+04 0.32000000E+00 0.0000E+00 0.9000E+01
       25  1    1    2    0    0 -.92559626E+03 -.26152742E+03 0.31758930E+03 0.10205944E+04 0.12500000E+03 0.0000E+00 0.9000E+01
        1  1    1    2  501    0 0.24692031E+02 -.22864191E+02 0.11061238E+04 0.11066357E+04 0.32000000E+00 0.0000E+00 0.9000E+01
        2  1    1    2  502    0 0.90090423E+03 0.28439162E+03 -.17794878E+04 0.20147168E+04 0.32000000E+00 0.0000E+00 0.9000E+01
#aMCatNLO 1  0  0  4  2 0.23586434D+03 0.00000000D+00  -5  6  0 0.00000000D+00 0.00000000D+00 0.00000000D+00 0.00000000D+00 0.00000000D+00
  <mgrwgt>
 0.5027549514D-02    6    2    0
 0.206331945986530D+04 0.000000000000000D+00 0.000000000000000D+00 0.206331945986530D+04
 0.206331945986530D+04 -.000000000000000D+00 -.000000000000000D+00 -.206331945986530D+04
 0.105186681909861D+04 -.925661423287172D+03 -.261550401783739D+03 0.406867450019486D+03
 0.120597719742030D+04 0.246894297636273D+02 -.228617821787660D+02 0.120550768212869D+04
 0.186879490321168D+04 0.900971993523542D+03 0.284412183962507D+03 -.161237513214818D+04
 0.000000000000000D+00 0.000000000000000D+00 0.000000000000000D+00 0.000000000000000D+00
 0.206331945986530D+04 0.000000000000000D+00 0.000000000000000D+00 0.206331945986530D+04
 0.206331945986530D+04 -.000000000000000D+00 -.000000000000000D+00 -.206331945986530D+04
 0.106285796050778D+04 -.925076834335962D+03 -.262091716240761D+03 0.435411101222387D+03
 0.456338625940857D+03 0.231627372573802D+03 -.104874974240188D+03 0.378939232038947D+03
 0.182629483532458D+04 0.901993454403800D+03 0.283466337242994D+03 -.156250039020666D+04
 0.781147497957378D+03 -.208543992641642D+03 0.835003532379574D+02 0.748150056945324D+03
0.116232749483D-01 0.000000000000D+00 0.000000000000D+00 0.445627696143D-04 0.000000000000D+00  6 1 2 25 1 2 21 0 0.29124402D+00 0.34597858D+00 0.94910110D+06 0.94910110D+06 0.94910110D+06 0.10493775D+01  1  2  2  3  6  4        1 0.278255000950D-02 0.100000000000D+01
0.934435527782D-02 0.000000000000D+00 -.446364362799D-04 0.445627696143D-04 0.000000000000D+00  6 1 2 25 1 2 21 2 0.29124402D+00 0.34597858D+00 0.94910110D+06 0.94910110D+06 0.94910110D+06 0.10493775D+01  1  2  3  3  6  4        1 0.246335688381D-02 0.100000000000D+01
-.657090375578D-02 0.000000000000D+00 0.000000000000D+00 0.445627696143D-04 0.000000000000D+00  6 1 2 25 1 2 21 2 0.29124402D+00 0.34597858D+00 0.94910110D+06 0.94910110D+06 0.94910110D+06 0.10493775D+01  1  2 15  3  6  4        1 -.173222020336D-02 0.100000000000D+01
-.148571430134D-03 0.000000000000D+00 0.000000000000D+00 0.445627696143D-04 0.000000000000D+00  6 1 2 25 1 2 21 2 0.29124402D+00 0.34597858D+00 0.94910110D+06 0.94910110D+06 0.94910110D+06 0.10493775D+01  1  2  4  3  6  4        1 -.391663677457D-04 0.100000000000D+01
-.756043783330D-02 0.000000000000D+00 0.000000000000D+00 0.445627696143D-04 0.000000000000D+00  6 1 2 25 1 2 21 2 0.29124402D+00 0.34597858D+00 0.94910110D+06 0.94910110D+06 0.94910110D+06 0.10493775D+01  1  2  5  3  6  4        1 -.199308095931D-02 0.100000000000D+01
0.134516087878D-01 0.000000000000D+00 -.000000000000D+00 0.445627696143D-04 0.000000000000D+00  6 1 2 25 1 2 21 2 0.29124402D+00 0.34597858D+00 0.94910110D+06 0.94910110D+06 0.94910110D+06 0.10493775D+01  1  2  6  3  6  4        1 0.354611015105D-02 0.100000000000D+01
  </mgrwgt>
  </event>
  <event>
  5     66 0.17698235E-05 0.29398491E+02 0.75467711E-02 0.92382448E-01
        1 -1    0    0  501    0 0.00000000E+00 0.00000000E+00 0.11751022E+04 0.11751022E+04 0.32000000E+00 0.0000E+00 0.9000E+01
        2 -1    0    0  502    0 0.00000000E+00 0.00000000E+00 -.82901080E+03 0.82901086E+03 0.32000000E+00 0.0000E+00 0.9000E+01
       25  1    1    2    0    0 -.54906563E+03 -.25269253E+03 0.11730874E+02 0.61732422E+03 0.12500000E+03 0.0000E+00 0.9000E+01
        1  1    1    2  501    0 0.51967199E+03 0.25239310E+03 0.76305572E+03 0.95708693E+03 0.32000000E+00 0.0000E+00 0.9000E+01
        2  1    1    2  502    0 0.29393639E+02 0.29943184E+00 -.42869521E+03 0.42970194E+03 0.32000000E+00 0.0000E+00 0.9000E+01
#aMCatNLO 1  0  0  5  2 0.24455459D+01 0.00000000D+00  -5  6  0 0.00000000D+00 0.00000000D+00 0.00000000D+00 0.00000000D+00 0.00000000D+00
  <mgrwgt>
 0.4958796052D-02    9    2    0
 0.987001779145274D+03 0.000000000000000D+00 0.000000000000000D+00 0.987001779145274D+03
 0.987001779145274D+03 -.000000000000000D+00 -.000000000000000D+00 -.987001779145274D+03
 0.624654087385147D+03 -.549050398352923D+03 -.252683652371746D+03 -.962411594877249D+02
 0.837872980524475D+03 0.519653433848036D+03 0.252384088730623D+03 0.606872072135904D+03
 0.511476490380925D+03 0.293969645048864D+02 0.299563641122909D+00 -.510630912648179D+03
 0.000000000000000D+00 0.000000000000000D+00 0.000000000000000D+00 0.000000000000000D+00
 0.987001779145274D+03 0.000000000000000D+00 0.000000000000000D+00 0.987001779145274D+03
 0.987001779145274D+03 -.000000000000000D+00 -.000000000000000D+00 -.987001779145274D+03
 0.624654931547857D+03 -.549049927613237D+03 -.252683647574772D+03 -.962493363263643D+02
 0.837865430082154D+03 0.519654065266332D+03 0.252384095164960D+03 0.606861104278970D+03
 0.335161826365476D+03 0.186282629025299D+02 0.255781883010177D+01 -.334633972030199D+03
 0.176321370295061D+03 0.107675994443745D+02 -.225826642029011D+01 -.175977795922407D+03
0.172525498601D-05 0.000000000000D+00 0.000000000000D+00 0.982996952536D-05 0.000000000000D+00  6 1 2 25 1 2 21 0 0.18078496D+00 0.12754013D+00 0.37472405D+06 0.37472405D+06 0.37472405D+06 0.10774772D+01  1  2  2  4  6  5        2 0.905496026945D-05 0.100000000000D+01
0.105225316263D-05 0.000000000000D+00 -.662543341634D-08 0.982996952536D-05 0.000000000000D+00  6 1 2 25 1 2 21 2 0.18078496D+00 0.12754013D+00 0.37472405D+06 0.37472405D+06 0.37472405D+06 0.10774772D+01  1  2  3  4  6  5        2 0.641164823148D-05 0.100000000000D+01
-.105142028673D-05 0.000000000000D+00 0.000000000000D+00 0.982996952536D-05 0.000000000000D+00  6 1 2 25 1 2 21 2 0.18078496D+00 0.12754013D+00 0.37472405D+06 0.37472405D+06 0.37472405D+06 0.10774772D+01  1  2 15  4  6  5        2 -.640657330513D-05 0.100000000000D+01
0.189950925781D-04 0.000000000000D+00 0.000000000000D+00 0.982996952536D-05 0.000000000000D+00  6 1 2 25 1 2 21 2 0.18078496D+00 0.12754013D+00 0.37497298D+06 0.37497298D+06 0.37497298D+06 0.10774563D+01  1  2 12  4  6  5        2 0.115733586019D-03 0.100000000000D+01
0.418861205268D-10 0.000000000000D+00 0.000000000000D+00 0.982996952536D-05 0.000000000000D+00  6 1 2 25 1 2 21 2 0.18078496D+00 0.12754013D+00 0.37497298D+06 0.37497298D+06 0.37497298D+06 0.10774563D+01  1  2 12  4  6  5        2 0.255204385716D-09 0.100000000000D+01
-.466136186636D-02 0.000000000000D+00 0.000000000000D+00 0.982996952536D-05 0.000000000000D+00  6 1 2 25 1 2 21 2 0.18078496D+00 0.12754013D+00 0.37472405D+06 0.37472405D+06 0.37472405D+06 0.10774772D+01  1  2  4  4  6  5        2 -.284028726432D-01 0.100000000000D+01
-.444892189146D-02 0.000000000000D+00 0.000000000000D+00 0.982996952536D-05 0.000000000000D+00  6 1 2 25 1 2 21 2 0.18078496D+00 0.12754013D+00 0.37472405D+06 0.37472405D+06 0.37472405D+06 0.10774772D+01  1  2  5  4  6  5        2 -.271084214239D-01 0.100000000000D+01
0.622497355068D-02 0.000000000000D+00 -.000000000000D+00 0.982996952536D-05 0.000000000000D+00  6 1 2 25 1 2 21 2 0.18078496D+00 0.12754013D+00 0.37472405D+06 0.37472405D+06 0.37472405D+06 0.10774772D+01  1  2  6  4  6  5        2 0.379303594177D-01 0.100000000000D+01
0.367891305159D-02 0.000000000000D+00 0.000000000000D+00 0.982996952536D-05 0.398867079912D-05  6 1 2 25 1 2 21 2 0.18078496D+00 0.12754013D+00 0.37497298D+06 0.37497298D+06 0.37497298D+06 0.10774563D+01  1  2 11  4  6  5        2 0.224149368246D-01 0.100000000000D+01
  </mgrwgt>
  </event>
  <event>
  5     66 -.17698235E-05 0.14767244E+02 0.75467711E-02 0.95494271E-01
        1 -1    0    0  501    0 0.00000000E+00 0.00000000E+00 0.36079182E+03 0.36079196E+03 0.32000000E+00 0.0000E+00 0.9000E+01
        2 -1    0    0  502    0 0.00000000E+00 0.00000000E+00 -.14927086E+04 0.14927086E+04 0.32000000E+00 0.0000E+00 0.9000E+01
       25  1    1    2    0    0 0.25957124E+01 -.45245371E+03 0.14545173E+02 0.46963567E+03 0.12500000E+03 0.0000E+00 0.9000E+01
        1  1    1    2  501    0 -.45297550E+01 0.14078149E+02 0.80028586E+02 0.81384212E+02 0.32000000E+00 0.0000E+00 0.9000E+01
        2  1    1    2  502    0 0.19340426E+01 0.43837556E+03 -.12264905E+04 0.13024807E+04 0.32000000E+00 0.0000E+00 0.9000E+01
#aMCatNLO 1  0  0  2  5 0.51237567D+01 0.00000000D+00  -5  6  0 0.00000000D+00 0.00000000D+00 0.00000000D+00 0.00000000D+00 0.00000000D+00
  <mgrwgt>
 -.1764341372D-02   13    2    0
 0.733864569506332D+03 0.000000000000000D+00 0.000000000000000D+00 0.733864569506332D+03
 0.733864569506332D+03 0.000000000000000D+00 0.000000000000000D+00 -.733864569506332D+03
 0.604486247544932D+03 0.258967896682882D+01 -.452531067944225D+03 0.380772306738634D+03
 0.164251433482204D+03 -.452310735847641D+01 0.140574889111069D+02 0.163586252192220D+03
 0.698991457985528D+03 0.193342839164759D+01 0.438473579033118D+03 -.544358558930855D+03
 0.000000000000000D+00 -.000000000000000D+00 0.000000000000000D+00 -.000000000000000D+00
 0.733951308856751D+03 0.000000000000000D+00 0.000000000000000D+00 0.733951308856751D+03
 0.813647888243155D+03 0.000000000000000D+00 0.000000000000000D+00 -.813647888243155D+03
 0.605950696212308D+03 0.340537408782037D+01 -.454480032661988D+03 0.380772306738634D+03
 0.164201069195470D+03 -.430176819224110D+01 0.135286366297208D+02 0.163586252192220D+03
 0.697586316945325D+03 0.287456099915069D+01 0.436224902781958D+03 -.544358558930855D+03
 0.798611147468027D+02 -.197816689472997D+01 0.472649325030916D+01 -.796965793864038D+02
0.120530939813D-05 0.000000000000D+00 0.000000000000D+00 0.668068474506D-05 0.000000000000D+00  6 1 2 25 1 2 21 0 0.55506447D-01 0.22964749D+00 0.21285766D+06 0.21285766D+06 0.21285766D+06 0.10957532D+01  1  2  2  2  6  2        2 0.160684285712D-04 0.100000000000D+01
0.617206817399D-06 0.000000000000D+00 -.462870545406D-08 0.668068474506D-05 0.000000000000D+00  6 1 2 25 1 2 21 2 0.55506447D-01 0.22964749D+00 0.21285766D+06 0.21285766D+06 0.21285766D+06 0.10957532D+01  1  2  3  2  6  2        2 0.987941124068D-05 0.100000000000D+01
-.847881572464D-06 0.000000000000D+00 0.000000000000D+00 0.668068474506D-05 0.000000000000D+00  6 1 2 25 1 2 21 2 0.55506447D-01 0.22964749D+00 0.21285766D+06 0.21285766D+06 0.21285766D+06 0.10957532D+01  1  2 15  2  6  2        2 -.135717404630D-04 0.100000000000D+01
0.468787605307D-03 0.000000000000D+00 0.000000000000D+00 0.668068474506D-05 0.000000000000D+00  6 1 2 25 1 2 21 2 0.55506447D-01 0.25474783D+00 0.21479665D+06 0.21479665D+06 0.21479665D+06 0.10954526D+01  1  2 12  2  6  2        2 0.611032956062D-02 0.100000000000D+01
0.941857026052D-08 0.000000000000D+00 0.000000000000D+00 0.668068474506D-05 0.000000000000D+00  6 1 2 25 1 2 21 2 0.55506447D-01 0.25467632D+00 0.21479665D+06 0.21479665D+06 0.21479665D+06 0.10954526D+01  1  2 12  2  6  2        2 0.122835933049D-06 0.100000000000D+01
-.125804311654D-02 0.000000000000D+00 0.000000000000D+00 0.668068474506D-05 0.000000000000D+00  6 1 2 25 1 2 21 2 0.55506447D-01 0.22964749D+00 0.21285766D+06 0.21285766D+06 0.21285766D+06 0.10957532D+01  1  2  4  2  6  2        2 -.201370512387D-01 0.100000000000D+01
-.106089615388D-02 0.000000000000D+00 -.240715858190D-05 0.668068474506D-05 0.000000000000D+00  6 1 2 25 1 2 21 2 0.55506447D-01 0.25462465D+00 0.21285766D+06 0.21285766D+06 0.21285766D+06 0.10957532D+01  1  2  5  2  6  2        2 -.138553012208D-01 0.100000000000D+01
0.105552674175D-02 0.000000000000D+00 0.239438572050D-05 0.668068474506D-05 0.000000000000D+00  6 1 2 25 1 2 21 2 0.55506447D-01 0.22964749D+00 0.21285766D+06 0.21285766D+06 0.21285766D+06 0.10957532D+01  1  2  6  2  6  2        2 0.168954432506D-01 0.100000000000D+01
0.705921070033D-03 0.000000000000D+00 0.000000000000D+00 0.668068474506D-05 0.198455103740D-05  6 1 2 25 1 2 21 2 0.55513008D-01 0.25461400D+00 0.21479665D+06 0.21479665D+06 0.21479665D+06 0.10954526D+01  1  2 11  2  6  2        2 0.920973935730D-02 0.100000000000D+01
0.786095230716D-05 0.000000000000D+00 0.000000000000D+00 0.668068474506D-05 0.000000000000D+00  6 1 21 25 1 2 -2 2 0.55506447D-01 0.25474783D+00 0.21479665D+06 0.21479665D+06 0.21479665D+06 0.10954526D+01  1  2 12  6  6  2        2 0.302895896187D-04 0.100000000000D+01
0.157569524848D-09 0.000000000000D+00 0.000000000000D+00 0.668068474506D-05 0.000000000000D+00  6 1 21 25 1 2 -2 2 0.55506447D-01 0.25467632D+00 0.21479665D+06 0.21479665D+06 0.21479665D+06 0.10954526D+01  1  2 12  6  6  2        2 0.607820959992D-09 0.100000000000D+01
-.177066200086D-04 0.000000000000D+00 -.401889444844D-07 0.668068474506D-05 0.000000000000D+00  6 1 21 25 1 2 -2 2 0.55506447D-01 0.25462465D+00 0.21285766D+06 0.21285766D+06 0.21285766D+06 0.10957532D+01  1  2  5  6  6  2        2 -.684550587203D-04 0.100000000000D+01
0.988566654597D-05 0.000000000000D+00 0.000000000000D+00 0.668068474506D-05 0.277402378888D-07  6 1 21 25 1 2 -2 2 0.55513008D-01 0.25461400D+00 0.21479665D+06 0.21479665D+06 0.21479665D+06 0.10954526D+01  1  2 11  6  6  2        2 0.381648449797D-04 0.100000000000D+01
  </mgrwgt>
  </event>
  <event>
  5     66 0.17698235E-05 0.43889370E+02 0.75467711E-02 0.91083156E-01
        1 -1    0    0  501    0 0.00000000E+00 0.00000000E+00 0.26335504E+04 0.26335505E+04 0.32000000E+00 0.0000E+00 0.9000E+01
        2 -1    0    0  502    0 0.00000000E+00 0.00000000E+00 -.80322676E+03 0.80322682E+03 0.32000000E+00 0.0000E+00 0.9000E+01
       25  1    1    2    0    0 0.49982148E+03 0.37734558E+03 -.45838358E+03 0.78609905E+03 0.12500000E+03 0.0000E+00 0.9000E+01
        1  1    1    2  501    0 -.45865321E+03 -.36210964E+03 0.24317875E+04 0.25010152E+04 0.32000000E+00 0.0000E+00 0.9000E+01
        2  1    1    2  502    0 -.41168274E+02 -.15235938E+02 -.14308028E+03 0.14966305E+03 0.32000000E+00 0.0000E+00 0.9000E+01
#aMCatNLO 1  0  0  1  5 0.11221700D+03 0.00000000D+00  -5  6  0 0.00000000D+00 0.00000000D+00 0.00000000D+00 0.00000000D+00 0.00000000D+00
  <mgrwgt>
 0.8868638422D-02    7    2    0
 0.145442026589000D+04 0.000000000000000D+00 0.000000000000000D+00 0.145442026589000D+04
 0.145442026589000D+04 0.000000000000000D+00 0.000000000000000D+00 -.145442026589000D+04
 0.121726365269374D+04 0.499816746250289D+03 0.377344475207007D+03 -.103629154554490D+04
 0.142479304869048D+04 -.458655654109073D+03 -.362111573405564D+03 0.129944042993753D+04
 0.266783830395773D+03 -.411610921412156D+02 -.152329018014427D+02 -.263148884392639D+03
 0.000000000000000D+00 -.000000000000000D+00 0.000000000000000D+00 0.000000000000000D+00
 0.155626981884807D+04 0.000000000000000D+00 0.000000000000000D+00 0.155626981884807D+04
 0.148674394015297D+04 0.000000000000000D+00 0.000000000000000D+00 -.148674394015297D+04
 0.121701445285889D+04 0.526275354071703D+03 0.338575342865230D+03 -.103629154554490D+04
 0.142741726369183D+04 -.427654465745517D+03 -.407536834724352D+03 0.129944042993753D+04
 0.266572559487021D+03 -.353639453333941D+02 -.237273151626491D+02 -.263148884392639D+03
 0.132009482963302D+03 -.632569429927926D+02 0.926888070217710D+02 0.695258786950999D+02
0.388966119596D-02 0.000000000000D+00 0.000000000000D+00 0.894511234149D-05 0.000000000000D+00  6 1 2 25 1 2 21 0 0.40516161D+00 0.12357335D+00 0.40124423D+06 0.40124423D+06 0.40124423D+06 0.10753304D+01  1  2  2  1  6  1        1 0.215204487273D-02 0.100000000000D+01
0.850549440727D-03 0.000000000000D+00 -.149373231638D-04 0.894511234149D-05 0.000000000000D+00  6 1 2 25 1 2 21 2 0.40516161D+00 0.12357335D+00 0.40124423D+06 0.40124423D+06 0.40124423D+06 0.10753304D+01  1  2  3  1  6  1        1 0.544155421111D-03 0.100000000000D+01
-.265807670292D-02 0.000000000000D+00 0.000000000000D+00 0.894511234149D-05 0.000000000000D+00  6 1 2 25 1 2 21 2 0.40516161D+00 0.12357335D+00 0.40124423D+06 0.40124423D+06 0.40124423D+06 0.10753304D+01  1  2 15  1  6  1        1 -.170055587408D-02 0.100000000000D+01
-.632616725432D-03 0.000000000000D+00 0.000000000000D+00 0.894511234149D-05 0.000000000000D+00  6 1 2 25 1 2 21 2 0.40516161D+00 0.12357335D+00 0.40124423D+06 0.40124423D+06 0.40124423D+06 0.10753304D+01  1  2  4  1  6  1        1 -.404728760194D-03 0.100000000000D+01
-.435150181956D-01 0.000000000000D+00 -.893666040558D-02 0.894511234149D-05 0.000000000000D+00  6 1 2 25 1 2 21 2 0.43660487D+00 0.12357335D+00 0.40124423D+06 0.40124423D+06 0.40124423D+06 0.10753304D+01  1  2  5  1  6  1        1 -.198652477315D-01 0.100000000000D+01
0.440846754921D-01 0.000000000000D+00 0.891175626832D-02 0.894511234149D-05 0.000000000000D+00  6 1 2 25 1 2 21 2 0.40516161D+00 0.12357335D+00 0.40124423D+06 0.40124423D+06 0.40124423D+06 0.10753304D+01  1  2  6  1  6  1        1 0.282040220219D-01 0.100000000000D+01
-.530014957966D-03 0.000000000000D+00 -.112344306411D-03 0.894511234149D-05 0.000000000000D+00  6 21 2 25 1 2 -1 2 0.43660487D+00 0.12357335D+00 0.40124423D+06 0.40124423D+06 0.40124423D+06 0.10753304D+01  1  2  5  5  6  1        1 -.610515280339D-04 0.100000000000D+01
  </mgrwgt>
  </event>
  <event>
  5     66 0.17698235E-05 0.23572614E+02 0.75467711E-02 0.92154398E-01
        1 -1    0    0  501    0 0.00000000E+00 0.00000000E+00 0.52196350E+03 0.52196360E+03 0.32000000E+00 0.0000E+00 0.9000E+01
        2 -1    0    0  502    0 -.00000000E+00 -.00000000E+00 -.97097292E+03 0.97097297E+03 0.32000000E+00 0.0000E+00 0.9000E+01
       25  1    1    2    0    0 -.28739331E+00 0.62044676E+03 0.10532404E+02 0.63300095E+03 0.12500000E+03 0.0000E+00 0.9000E+01
        1  1    1    2  501    0 -.15255949E+02 -.18069428E+02 0.59882912E+02 0.64384111E+02 0.32000000E+00 0.0000E+00 0.9000E+01
        2  1    1    2  502    0 0.15543342E+02 -.60237734E+03 -.51942473E+03 0.79555151E+03 0.32000000E+00 0.0000E+00 0.9000E+01
#aMCatNLO 1  0  0  5  2 0.29291465D+02 0.00000000D+00  -5  6  0 0.00000000D+00 0.00000000D+00 0.00000000D+00 0.00000000D+00 0.00000000D+00
  <mgrwgt>
 0.1116954192D-02    6    2    0
 0.711907674664080D+03 0.000000000000000D+00 0.000000000000000D+00 0.711907674664080D+03
 0.711907674664080D+03 -.000000000000000D+00 -.000000000000000D+00 -.711907674664080D+03
 0.667211770639168D+03 -.324110628793387D+00 0.620543450190361D+03 0.210884490320166D+03
 0.861166331530239D+02 -.152070393730563D+02 -.180114983301790D+02 0.828275702107745D+02
 0.670486945535968D+03 0.155311500018497D+02 -.602531951860182D+03 -.293712060530940D+03
 0.000000000000000D+00 0.000000000000000D+00 0.000000000000000D+00 -.000000000000000D+00
 0.711907674664080D+03 0.000000000000000D+00 0.000000000000000D+00 0.711907674664080D+03
 0.711907674664080D+03 -.000000000000000D+00 -.000000000000000D+00 -.711907674664080D+03
 0.642597714513722D+03 0.261714267554611D+00 0.597816336087232D+03 0.199805862053991D+03
 0.853908784220366D+02 -.151303309881116D+02 -.209874050015642D+02 0.813769256803029D+02
 0.627359714745040D+03 -.842976833666348D+01 -.588269352081253D+03 -.217826353072054D+03
 0.684670416473605D+02 0.232983850572204D+02 0.114404209955851D+02 -.633564346622398D+02
0.172622740958D-03 0.000000000000D+00 0.000000000000D+00 0.216554797603D-06 0.000000000000D+00  6 1 2 25 1 2 21 0 0.80302089D-01 0.14938046D+00 0.39646719D+06 0.39646719D+06 0.39646719D+06 0.10757055D+01  1  2  2  4  6  5        2 0.271364653293D-02 0.100000000000D+01
0.648581052240D-04 0.000000000000D+00 -.662916777890D-06 0.216554797603D-06 0.000000000000D+00  6 1 2 25 1 2 21 2 0.80302089D-01 0.14938046D+00 0.39646719D+06 0.39646719D+06 0.39646719D+06 0.10757055D+01  1  2  3  4  6  5        2 0.117979426983D-02 0.100000000000D+01
-.997980782247D-04 0.000000000000D+00 0.000000000000D+00 0.216554797603D-06 0.000000000000D+00  6 1 2 25 1 2 21 2 0.80302089D-01 0.14938046D+00 0.39646719D+06 0.39646719D+06 0.39646719D+06 0.10757055D+01  1  2 15  4  6  5        2 -.181536602746D-02 0.100000000000D+01
-.107175833798D-03 0.000000000000D+00 0.000000000000D+00 0.216554797603D-06 0.000000000000D+00  6 1 2 25 1 2 21 2 0.80302089D-01 0.14938046D+00 0.39646719D+06 0.39646719D+06 0.39646719D+06 0.10757055D+01  1  2  4  4  6  5        2 -.194957028335D-02 0.100000000000D+01
-.506426668996D-03 0.000000000000D+00 0.000000000000D+00 0.216554797603D-06 0.000000000000D+00  6 1 2 25 1 2 21 2 0.80302089D-01 0.14938046D+00 0.39646719D+06 0.39646719D+06 0.39646719D+06 0.10757055D+01  1  2  5  4  6  5        2 -.921209893665D-02 0.100000000000D+01
0.560765782435D-03 0.000000000000D+00 -.000000000000D+00 0.216554797603D-06 0.000000000000D+00  6 1 2 25 1 2 21 2 0.80302089D-01 0.14938046D+00 0.39646719D+06 0.39646719D+06 0.39646719D+06 0.10757055D+01  1  2  6  4  6  5        2 0.102005486368D-01 0.100000000000D+01
  </mgrwgt>
  </event>
  <event>
  6     66 0.17698235E-05 0.14317686E+03 0.75467711E-02 0.92592019E-01
        1 -1    0    0  501    0 0.00000000E+00 0.00000000E+00 0.14775024E+04 0.14775024E+04 0.32000000E+00 0.0000E+00 0.9000E+01
        2 -1    0    0  502    0 0.00000000E+00 0.00000000E+00 -.13239849E+04 0.13239850E+04 0.32000000E+00 0.0000E+00 0.9000E+01
       25  1    1    2    0    0 -.27495076E+03 -.51108597E+03 -.65338959E+03 0.88280788E+03 0.12500000E+03 0.0000E+00 0.9000E+01
        1  1    1    2  503    0 0.22230578E+03 0.23867764E+03 0.71563790E+03 0.78646334E+03 0.32000000E+00 0.0000E+00 0.9000E+01
        2  1    1    2  502    0 0.17307129E+02 0.19693145E+02 -.49350021E+03 0.49419623E+03 0.32000000E+00 0.0000E+00 0.9000E+01
       21  1    1    2  501  503 0.35337855E+02 0.25271518E+03 0.58476936E+03 0.63801998E+03 0.75000000E+00 0.0000E+00 0.9000E+01
#aMCatNLO 2  0  0  4  1 0.41536141D+02 0.00000000D+00  -5  6  0 0.00000000D+00 0.00000000D+00 0.00000000D+00 0.00000000D+00 0.00000000D+00
  <mgrwgt>
 0.7422320710D-02    1    2    0
 0.139863899544794D+04 0.000000000000000D+00 0.000000000000000D+00 0.139863899544794D+04
 0.139863899544794D+04 -.000000000000000D+00 -.000000000000000D+00 -.139863899544794D+04
 0.923394912288090D+03 -.275660335373103D+03 -.512436021359085D+03 -.706012653962511D+03
 0.134983140627753D+04 0.258751118163383D+03 0.493505081637703D+03 0.122944923385235D+04
 0.524051672330267D+03 0.169092172097199D+02 0.189309397213824D+02 -.523436579889837D+03
 0.000000000000000D+00 0.000000000000000D+00 0.000000000000000D+00 0.000000000000000D+00
 0.139863899544794D+04 0.000000000000000D+00 0.000000000000000D+00 0.139863899544794D+04
 0.139863899544794D+04 -.000000000000000D+00 -.000000000000000D+00 -.139863899544794D+04
 0.919857198630328D+03 -.274951227600907D+03 -.511083570047988D+03 -.702643346755516D+03
 0.748104654143504D+03 0.222258370728005D+03 0.238577344216210D+03 0.673307241175412D+03
 0.522183082126848D+03 0.173117086494602D+02 0.196985946487790D+02 -.521524152242246D+03
 0.607133055995203D+03 0.353811482234414D+02 0.252807631182999D+03 0.550860257822350D+03
0.394908906535D-02 0.000000000000D+00 0.000000000000D+00 0.653447594918D-04 0.180603318045D-07  6 1 2 25 1 2 21 2 0.22730807D+00 0.20369000D+00 0.36073129D+06 0.36073129D+06 0.36073129D+06 0.10786777D+01  1  2  1  3  6  4        1 0.742232071029D-02 0.100000000000D+01
  </mgrwgt>
  </event>
  <event>
  6     66 0.17698235E-05 0.36152261E+02 0.75467711E-02 0.93927525E-01
       21 -1    0    0  501  503 0.00000000E+00 0.00000000E+00 0.11447027E+04 0.11447030E+04 0.75000000E+00 0.0000E+00 0.9000E+01
        2 -1    0    0  502    0 0.00000000E+00 0.00000000E+00 -.39460409E+03 0.39460422E+03 0.32000000E+00 0.0000E+00 0.9000E+01
       25  1    1    2    0    0 0.11270057E+03 -.47405271E+03 0.36578821E+03 0.62197541E+03 0.12500000E+03 0.0000E+00 0.9000E+01
        1  1    1    2  501    0 -.55233452E+02 -.90584685E+01 0.27414065E+03 0.27979633E+03 0.32000000E+00 0.0000E+00 0.9000E+01
        2  1    1    2  502    0 -.35080350E+02 0.18224029E+02 -.11420120E+03 0.12085017E+03 0.32000000E+00 0.0000E+00 0.9000E+01
       -1  1    1    2    0  503 -.22386767E+02 0.46488715E+03 0.22437096E+03 0.51668526E+03 0.32000000E+00 0.0000E+00 0.9000E+01
#aMCatNLO 2  0  0  1  5 0.20617369D+03 0.00000000D+00  -5  6  0 0.00000000D+00 0.00000000D+00 0.00000000D+00 0.00000000D+00 0.00000000D+00
  <mgrwgt>
 0.2405540548D-01    1    2    0
 0.371734036392192D+03 0.000000000000000D+00 0.000000000000000D+00 0.371734036392192D+03
 0.371734036392192D+03 0.000000000000000D+00 0.000000000000000D+00 -.371734036392192D+03
 0.297067864944663D+03 0.101592519286549D+03 -.243732251081634D+03 0.538318325015261D+02
 0.186872496843079D+03 -.600124271418911D+02 0.909635868157852D+02 0.151807327025124D+03
 0.259527710996643D+03 -.415800921446579D+02 0.152768664265849D+03 -.205639159526650D+03
 0.000000000000000D+00 -.000000000000000D+00 0.000000000000000D+00 -.000000000000000D+00
 0.648470502483926D+03 0.000000000000000D+00 0.000000000000000D+00 0.648470502483926D+03
 0.696569214696504D+03 0.000000000000000D+00 0.000000000000000D+00 -.696569214696504D+03
 0.505940993889359D+03 0.112685161863355D+03 -.474083829510257D+03 0.538318325015261D+02
 0.161783869483103D+03 -.551961409811132D+02 -.905217693187787D+01 0.151807327025124D+03
 0.209410250106683D+03 -.351022542777526D+02 0.182488537595261D+02 -.205639159526650D+03
 0.467904603701283D+03 -.223867666044896D+02 0.464887152682608D+03 -.480987122125782D+02
0.135873859647D-02 0.000000000000D+00 0.000000000000D+00 0.967540741424D-06 0.130165781036D-10  6 21 2 25 1 2 -1 2 0.17610812D+00 0.60708346D-01 0.28301912D+06 0.28301912D+06 0.28301912D+06 0.10864291D+01  1  2  1  5  6  1        1 0.240554054841D-01 0.100000000000D+01
  </mgrwgt>
  </event>
  <event>
  5     66 -.17698235E-05 0.37789672E+02 0.75467711E-02 0.92417767E-01
        1 -1    0    0  501    0 0.00000000E+00 0.00000000E+00 0.91478318E+03 0.91478323E+03 0.32000000E+00 0.0000E+00 0.9000E+01
        2 -1    0    0  502    0 -.00000000E+00 -.00000000E+00 -.22551041E+04 0.22551041E+04 0.32000000E+00 0.0000E+00 0.9000E+01
       25  1    1    2    0    0 -.53993643E+03 0.18525801E+03 0.20971750E+02 0.58473643E+03 0.12500000E+03 0.0000E+00 0.9000E+01
        1  1    1    2  501    0 -.16968792E+02 0.33771010E+02 0.56591211E+03 0.56717285E+03 0.32000000E+00 0.0000E+00 0.9000E+01
        2  1    1    2  502    0 0.55690522E+03 -.21902902E+03 -.19272048E+04 0.20179781E+04 0.32000000E+00 0.0000E+00 0.9000E+01
#aMCatNLO 1  0  0  4  1 0.20758589D+00 0.00000000D+00  -5  6  0 0.00000000D+00 0.00000000D+00 0.00000000D+00 0.00000000D+00 0.00000000D+00
  <mgrwgt>
 -.2651748869D-03    1    2    0
 0.143629085491579D+04 0.000000000000000D+00 0.000000000000000D+00 0.143629085491579D+04
 0.143629085491579D+04 -.000000000000000D+00 -.000000000000000D+00 -.143629085491579D+04
 0.655140454038491D+03 -.539996104236424D+03 0.185284094567299D+03 0.296070981738537D+03
 0.889810739857299D+03 -.169666436850039D+02 0.337667338288443D+02 0.889007926541711D+03
 0.132763051593579D+04 0.556962747921428D+03 -.219050828396143D+03 -.118507890828025D+04
 0.000000000000000D+00 0.000000000000000D+00 0.000000000000000D+00 0.000000000000000D+00
 0.143629085491579D+04 0.000000000000000D+00 0.000000000000000D+00 0.143629085491579D+04
 0.143629085491579D+04 -.000000000000000D+00 -.000000000000000D+00 -.143629085491579D+04
 0.655642609814584D+03 -.540016111317935D+03 0.185323912330235D+03 0.297119300686021D+03
 0.814728614302489D+03 -.121465293601685D+02 0.556886846956904D+02 0.812732395801115D+03
 0.132570633531309D+04 0.556922248827320D+03 -.218970227768437D+03 -.118295686125971D+04
 0.765041504014160D+02 -.475960814921581D+01 -.220423692574883D+02 0.731051647725722D+02
-.181461650073D-03 0.000000000000D+00 0.000000000000D+00 0.704540540035D-04 0.000000000000D+00  6 1 2 25 1 2 21 2 0.14073588D+00 0.34693910D+00 0.37252939D+06 0.37252939D+06 0.37252939D+06 0.10776622D+01  1  2 14  3  6  4        1 -.265174886929D-03 0.100000000000D+01
  </mgrwgt>
  </event>
  <event>
  5     66 -.17698235E-05 0.10075430E+03 0.75467711E-02 0.93931550E-01
        1 -1    0    0  501    0 0.00000000E+00 0.00000000E+00 0.34255787E+04 0.34255787E+04 0.32000000E+00 0.0000E+00 0.9000E+01
        2 -1    0    0  502    0 0.00000000E+00 0.00000000E+00 -.56312032E+03 0.56312041E+03 0.32000000E+00 0.0000E+00 0.9000E+01
       25  1    1    2    0    0 -.17074636E+03 0.49336226E+03 0.14858129E+04 0.15798182E+04 0.12500000E+03 0.0000E+00 0.9000E+01
        1  1    1    2  501    0 0.47814060E+02 -.88708392E+02 0.18044848E+04 0.18072966E+04 0.32000000E+00 0.0000E+00 0.9000E+01
        2  1    1    2  502    0 0.12293230E+03 -.40465387E+03 -.42783934E+03 0.60158433E+03 0.32000000E+00 0.0000E+00 0.9000E+01
#aMCatNLO 1  0  0  5  2 0.35611934D+02 0.00000000D+00  -5  6  0 0.00000000D+00 0.00000000D+00 0.00000000D+00 0.00000000D+00 0.00000000D+00
  <mgrwgt>
 -.8392696216D-02    8    2    0
 0.138888919154544D+04 0.000000000000000D+00 0.000000000000000D+00 0.138888919154544D+04
 0.138888919154544D+04 -.000000000000000D+00 -.000000000000000D+00 -.138888919154544D+04
 0.737524259329667D+03 -.170751404854111D+03 0.493391059121912D+03 0.505693833874490D+03
 0.735517145233863D+03 0.478047995623238D+02 -.886912108543940D+02 0.728583585588475D+03
 0.130473697852735D+04 0.122946605291787D+03 -.404699848267518D+03 -.123427741946297D+04
 0.000000000000000D+00 0.000000000000000D+00 0.000000000000000D+00 -.000000000000000D+00
 0.138888919154544D+04 0.000000000000000D+00 0.000000000000000D+00 0.138888919154544D+04
 0.138888919154544D+04 -.000000000000000D+00 -.000000000000000D+00 -.138888919154544D+04
 0.737070081567897D+03 -.170702653512244D+03 0.493230585714701D+03 0.505204412631083D+03
 0.735056153786662D+03 0.478534179651293D+02 -.888512466698743D+02 0.728095498938089D+03
 0.621911973058181D+03 0.905224195580816D+02 -.206179638784626D+03 -.579715577107526D+03
 0.683740174678142D+03 0.323268159890330D+02 -.198199700260200D+03 -.653584334461648D+03
0.866502149542D-03 0.000000000000D+00 0.000000000000D+00 0.332564514843D-04 0.000000000000D+00  6 1 2 25 1 2 21 0 0.52701212D+00 0.86633903D-01 0.28120472D+06 0.28120472D+06 0.28120472D+06 0.10866369D+01  1  2  2  4  6  5        2 0.193123008366D-03 0.100000000000D+01
0.159263727347D-03 0.000000000000D+00 -.332759640950D-05 0.332564514843D-04 0.000000000000D+00  6 1 2 25 1 2 21 2 0.52701212D+00 0.86633903D-01 0.28120472D+06 0.28120472D+06 0.28120472D+06 0.10866369D+01  1  2  3  4  6  5        2 0.419131325956D-04 0.100000000000D+01
-.545231884402D-03 0.000000000000D+00 0.000000000000D+00 0.332564514843D-04 0.000000000000D+00  6 1 2 25 1 2 21 2 0.52701212D+00 0.86633903D-01 0.28120472D+06 0.28120472D+06 0.28120472D+06 0.10866369D+01  1  2 15  4  6  5        2 -.143487639320D-03 0.100000000000D+01
0.462401676563D-01 0.000000000000D+00 0.000000000000D+00 0.332564514843D-04 0.000000000000D+00  6 1 2 25 1 2 21 2 0.52701212D+00 0.86633903D-01 0.28281525D+06 0.28281525D+06 0.28281525D+06 0.10864523D+01  1  2 12  4  6  5        2 0.121585096022D-01 0.100000000000D+01
0.606817963466D-08 0.000000000000D+00 0.000000000000D+00 0.332564514843D-04 0.000000000000D+00  6 1 2 25 1 2 21 2 0.52701212D+00 0.86633903D-01 0.28281525D+06 0.28281525D+06 0.28281525D+06 0.10864523D+01  1  2 12  4  6  5        2 0.159558289028D-08 0.100000000000D+01
-.108242948534D+00 0.000000000000D+00 0.000000000000D+00 0.332564514843D-04 0.000000000000D+00  6 1 2 25 1 2 21 2 0.52701212D+00 0.86633903D-01 0.28120472D+06 0.28120472D+06 0.28120472D+06 0.10866369D+01  1  2  4  4  6  5        2 -.284860911521D-01 0.100000000000D+01
-.472612937938D-01 0.000000000000D+00 0.000000000000D+00 0.332564514843D-04 0.000000000000D+00  6 1 2 25 1 2 21 2 0.52701212D+00 0.86633903D-01 0.28120472D+06 0.28120472D+06 0.28120472D+06 0.10866369D+01  1  2  5  4  6  5        2 -.124376649122D-01 0.100000000000D+01
0.770648118617D-01 0.000000000000D+00 -.000000000000D+00 0.332564514843D-04 0.000000000000D+00  6 1 2 25 1 2 21 2 0.52701212D+00 0.86633903D-01 0.28120472D+06 0.28120472D+06 0.28120472D+06 0.10866369D+01  1  2  6  4  6  5        2 0.202810001487D-01 0.100000000000D+01
  </mgrwgt>
  </event>
  <event>
  5     66 0.17698235E-05 0.25222894E+02 0.75467711E-02 0.94792610E-01
        1 -1    0    0  501    0 0.00000000E+00 0.00000000E+00 0.11684213E+04 0.11684213E+04 0.32000000E+00 0.0000E+00 0.9000E+01
        2 -1    0    0  502    0 0.00000000E+00 0.00000000E+00 -.18967783E+04 0.18967783E+04 0.32000000E+00 0.0000E+00 0.9000E+01
       25  1    1    2    0    0 -.98551634E+02 0.44608739E+03 -.89675263E+02 0.48205086E+03 0.12500000E+03 0.0000E+00 0.9000E+01
        1  1    1    2  501    0 0.10442638E+03 -.42156034E+03 0.92362543E+03 0.10206381E+04 0.32000000E+00 0.0000E+00 0.9000E+01
        2  1    1    2  502    0 -.58747476E+01 -.24527042E+02 -.15623071E+04 0.15625107E+04 0.32000000E+00 0.0000E+00 0.9000E+01
#aMCatNLO 1  0  0  2  4 0.11245772D+03 0.00000000D+00  -5  6  0 0.00000000D+00 0.00000000D+00 0.00000000D+00 0.00000000D+00 0.00000000D+00
  <mgrwgt>
 0.5527767598D-01    7    2    0
 0.148870287434001D+04 0.000000000000000D+00 0.000000000000000D+00 0.148870287434001D+04
 0.148870287434001D+04 0.000000000000000D+00 0.000000000000000D+00 -.148870287434001D+04
 0.474322529546174D+03 -.985484296351848D+02 0.446078367424670D+03 0.256740952569155D+02
 0.127664444289927D+04 0.104423639750032D+03 -.421549276982179D+03 0.120050528700325D+04
 0.122643877623457D+04 -.587521011484745D+01 -.245290904424913D+02 -.122617938226016D+04
 0.000000000000000D+00 0.000000000000000D+00 0.000000000000000D+00 -.000000000000000D+00
 0.148895873307271D+04 0.000000000000000D+00 0.000000000000000D+00 0.148895873307271D+04
 0.290729582555888D+04 0.000000000000000D+00 0.000000000000000D+00 -.290729582555888D+04
 0.469840991887578D+03 -.992404192927424D+02 0.441155004130342D+03 0.256740952569155D+02
 0.128095865192410D+04 0.102549139359393D+03 -.434885959572279D+03 0.120050528700325D+04
 0.122677122696938D+04 -.767319945832065D+01 -.373214127562274D+02 -.122617938226016D+04
 0.141868368785054D+04 0.436447939167030D+01 0.310523681981643D+02 -.141833709248617D+04
0.575304529480D-04 0.000000000000D+00 0.000000000000D+00 0.440233711409D-03 0.000000000000D+00  6 1 2 25 1 2 21 0 0.17975713D+00 0.29181205D+00 0.21768775D+06 0.21768775D+06 0.21768775D+06 0.10950099D+01  1  2  2  2  6  2        2 0.765651610684D-04 0.100000000000D+01
0.428944825085D-04 0.000000000000D+00 -.220932087436D-06 0.440233711409D-03 0.000000000000D+00  6 1 2 25 1 2 21 2 0.17975713D+00 0.29181205D+00 0.21768775D+06 0.21768775D+06 0.21768775D+06 0.10950099D+01  1  2  3  2  6  2        2 0.684495999370D-04 0.100000000000D+01
-.388891516759D-04 0.000000000000D+00 0.000000000000D+00 0.440233711409D-03 0.000000000000D+00  6 1 2 25 1 2 21 2 0.17975713D+00 0.29181205D+00 0.21768775D+06 0.21768775D+06 0.21768775D+06 0.10950099D+01  1  2 15  2  6  2        2 -.620580251453D-04 0.100000000000D+01
-.549660305351D-02 0.000000000000D+00 0.000000000000D+00 0.440233711409D-03 0.000000000000D+00  6 1 2 25 1 2 21 2 0.17975713D+00 0.29181205D+00 0.21768775D+06 0.21768775D+06 0.21768775D+06 0.10950099D+01  1  2  4  2  6  2        2 -.877129779922D-02 0.100000000000D+01
-.545134420901D-01 0.000000000000D+00 -.260316581413D-04 0.440233711409D-03 0.000000000000D+00  6 1 2 25 1 2 21 2 0.17975713D+00 0.56989558D+00 0.21768775D+06 0.21768775D+06 0.21768775D+06 0.10950099D+01  1  2  5  2  6  2        2 -.663061396071D-02 0.100000000000D+01
0.442481122729D-01 0.000000000000D+00 0.211210291476D-04 0.440233711409D-03 0.000000000000D+00  6 1 2 25 1 2 21 2 0.17975713D+00 0.29181205D+00 0.21768775D+06 0.21768775D+06 0.21768775D+06 0.10950099D+01  1  2  6  2  6  2        2 0.706096776537D-01 0.100000000000D+01
-.395224697598D-02 0.000000000000D+00 -.188803639038D-05 0.440233711409D-03 0.000000000000D+00  6 1 21 25 1 2 -2 2 0.17975713D+00 0.56989558D+00 0.21768775D+06 0.21768775D+06 0.21768775D+06 0.10950099D+01  1  2  5  6  6  2        2 -.130466512773D-04 0.100000000000D+01
  </mgrwgt>
  </event>
  <event>
  6     66 0.17698235E-05 0.67793025E+02 0.75467711E-02 0.94899434E-01
        1 -1    0    0  501    0 0.00000000E+00 0.00000000E+00 0.10649503E+04 0.10649504E+04 0.32000000E+00 0.0000E+00 0.9000E+01
        2 -1    0    0  502    0 -.00000000E+00 -.00000000E+00 -.18999839E+04 0.18999839E+04 0.32000000E+00 0.0000E+00 0.9000E+01
       25  1    1    2    0    0 0.12771450E+03 0.45027487E+03 0.70017508E+02 0.48947513E+03 0.12500000E+03 0.0000E+00 0.9000E+01
        1  1    1    2  503    0 -.10397734E+03 -.34263909E+03 0.42647287E+03 0.55685909E+03 0.32000000E+00 0.0000E+00 0.9000E+01
        2  1    1    2  502    0 -.36015712E+02 -.12761204E+02 -.16170353E+04 0.16174867E+04 0.32000000E+00 0.0000E+00 0.9000E+01
       21  1    1    2  501  503 0.12278550E+02 -.94874573E+02 0.28551139E+03 0.30111337E+03 0.75000000E+00 0.0000E+00 0.9000E+01
#aMCatNLO 2  0  0  4  1 0.21502904D+02 0.00000000D+00  -5  6  0 0.00000000D+00 0.00000000D+00 0.00000000D+00 0.00000000D+00 0.00000000D+00
  <mgrwgt>
 0.2211224597D-01    1    2    0
 0.142245865223588D+04 0.000000000000000D+00 0.000000000000000D+00 0.142245865223588D+04
 0.142245865223588D+04 -.000000000000000D+00 -.000000000000000D+00 -.142245865223588D+04
 0.530725574190492D+03 0.127918669954398D+03 0.451191239683673D+03 0.214727534819445D+03
 0.109775400806343D+04 -.923718870309665D+02 -.440725163137334D+03 0.100114565737620D+04
 0.121643772221784D+04 -.355467829234315D+02 -.104660765463389D+02 -.121587319219565D+04
 0.000000000000000D+00 0.000000000000000D+00 0.000000000000000D+00 0.000000000000000D+00
 0.142245865223588D+04 0.000000000000000D+00 0.000000000000000D+00 0.142245865223588D+04
 0.142245865223588D+04 -.000000000000000D+00 -.000000000000000D+00 -.142245865223588D+04
 0.530749991885021D+03 0.127707941016487D+03 0.450185808826689D+03 0.217011458725891D+03
 0.705141485602626D+03 -.103946900487563D+03 -.342485773310063D+03 0.607554978316461D+03
 0.121125290888583D+04 -.360287390650706D+02 -.127655878584520D+02 -.121064965163849D+04
 0.397772918098281D+03 0.122676985361467D+02 -.949344476581745D+02 0.386083214596136D+03
0.118421979319D-01 0.000000000000D+00 0.000000000000D+00 0.195221905668D-03 0.231920475173D-06  6 1 2 25 1 2 21 2 0.16383852D+00 0.29230522D+00 0.23824978D+06 0.23824978D+06 0.23824978D+06 0.10920355D+01  1  2  1  3  6  4        1 0.221122459677D-01 0.100000000000D+01
  </mgrwgt>
  </event>
  <event>
  5     66 0.17698235E-05 0.41096595E+02 0.75467711E-02 0.93457301E-01
        1 -1    0    0  501    0 0.00000000E+00 0.00000000E+00 0.88485075E+03 0.88485080E+03 0.32000000E+00 0.0000E+00 0.9000E+01
        2 -1    0    0  502    0 0.00000000E+00 0.00000000E+00 -.17183647E+04 0.17183647E+04 0.32000000E+00 0.0000E+00 0.9000E+01
       25  1    1    2    0    0 -.48750019E+03 -.18082232E+03 -.27231194E+03 0.60010994E+03 0.12500000E+03 0.0000E+00 0.9000E+01
        1  1    1    2  501    0 0.47625339E+03 0.22034635E+03 0.62506053E+03 0.81613147E+03 0.32000000E+00 0.0000E+00 0.9000E+01
        2  1    1    2  502    0 0.11246798E+02 -.39524028E+02 -.11862625E+04 0.11869741E+04 0.32000000E+00 0.0000E+00 0.9000E+01
#aMCatNLO 1  0  0  2  5 0.70044637D+01 0.00000000D+00  -5  6  0 0.00000000D+00 0.00000000D+00 0.00000000D+00 0.00000000D+00 0.00000000D+00
  <mgrwgt>
 0.2929137010D-01   13    2    0
 0.123308409071396D+04 0.000000000000000D+00 0.000000000000000D+00 0.123308409071396D+04
 0.123308409071396D+04 0.000000000000000D+00 0.000000000000000D+00 -.123308409071396D+04
 0.541398630122191D+03 -.487489485982554D+03 -.180813479643196D+03 -.845456287100046D+02
 0.107271547492640D+04 0.476241536386602D+03 0.220340859906948D+03 0.935608034714409D+03
 0.852054076379330D+03 0.112479495959518D+02 -.395273802637515D+02 -.851062406004404D+03
 0.000000000000000D+00 -.000000000000000D+00 0.000000000000000D+00 -.000000000000000D+00
 0.123311756037483D+04 0.000000000000000D+00 0.000000000000000D+00 0.123311756037483D+04
 0.166352066817661D+04 0.000000000000000D+00 0.000000000000000D+00 -.166352066817661D+04
 0.541172727327826D+03 -.486738642066873D+03 -.182155021309771D+03 -.845456287100046D+02
 0.107283431924617D+04 0.477729635067266D+03 0.217682056469386D+03 0.935608034714409D+03
 0.852171081947850D+03 0.124299567516689D+02 -.416392863689590D+02 -.851062406004404D+03
 0.430460100029588D+03 -.342094975206110D+01 0.611225120934439D+01 -.430403107801780D+03
0.583341827390D-05 0.000000000000D+00 0.000000000000D+00 0.560455961686D-04 0.000000000000D+00  6 1 2 25 1 2 21 0 0.13613089D+00 0.26436380D+00 0.30282840D+06 0.30282840D+06 0.30282840D+06 0.10842505D+01  1  2  2  2  6  2        2 0.155577759894D-04 0.100000000000D+01
0.312542104280D-05 0.000000000000D+00 -.224018621461D-07 0.560455961686D-04 0.000000000000D+00  6 1 2 25 1 2 21 2 0.13613089D+00 0.26436380D+00 0.30282840D+06 0.30282840D+06 0.30282840D+06 0.10842505D+01  1  2  3  2  6  2        2 0.979923507806D-05 0.100000000000D+01
-.387406491318D-05 0.000000000000D+00 0.000000000000D+00 0.560455961686D-04 0.000000000000D+00  6 1 2 25 1 2 21 2 0.13613089D+00 0.26436380D+00 0.30282840D+06 0.30282840D+06 0.30282840D+06 0.10842505D+01  1  2 15  2  6  2        2 -.121464827529D-04 0.100000000000D+01
0.208154573871D-01 0.000000000000D+00 0.000000000000D+00 0.560455961686D-04 0.000000000000D+00  6 1 2 25 1 2 21 2 0.13613089D+00 0.36661437D+00 0.30801055D+06 0.30801055D+06 0.30801055D+06 0.10837062D+01  1  2 12  2  6  2        2 0.279386113999D-01 0.100000000000D+01
0.252141882397D-08 0.000000000000D+00 0.000000000000D+00 0.560455961686D-04 0.000000000000D+00  6 1 2 25 1 2 21 2 0.13613089D+00 0.35664974D+00 0.30801055D+06 0.30801055D+06 0.30801055D+06 0.10837062D+01  1  2 12  2  6  2        2 0.368330120150D-08 0.100000000000D+01
-.117975270987D-01 0.000000000000D+00 0.000000000000D+00 0.560455961686D-04 0.000000000000D+00  6 1 2 25 1 2 21 2 0.13613089D+00 0.26436380D+00 0.30282840D+06 0.30282840D+06 0.30282840D+06 0.10842505D+01  1  2  4  2  6  2        2 -.369891735536D-01 0.100000000000D+01
-.245491707424D-01 0.000000000000D+00 -.438459039024D-05 0.560455961686D-04 0.000000000000D+00  6 1 2 25 1 2 21 2 0.13613089D+00 0.35664877D+00 0.30282840D+06 0.30282840D+06 0.30282840D+06 0.10842505D+01  1  2  5  2  6  2        2 -.359454750012D-01 0.100000000000D+01
0.234897881486D-01 0.000000000000D+00 0.419512325001D-05 0.560455961686D-04 0.000000000000D+00  6 1 2 25 1 2 21 2 0.13613089D+00 0.26436380D+00 0.30282840D+06 0.30282840D+06 0.30282840D+06 0.10842505D+01  1  2  6  2  6  2        2 0.736483030127D-01 0.100000000000D+01
0.454462022859D-03 0.000000000000D+00 0.000000000000D+00 0.560455961686D-04 0.334153112479D-05  6 1 2 25 1 2 21 2 0.13613459D+00 0.35664611D+00 0.30801055D+06 0.30801055D+06 0.30801055D+06 0.10837062D+01  1  2 11  2  6  2        2 0.663870751165D-03 0.100000000000D+01
0.856184568994D-03 0.000000000000D+00 0.000000000000D+00 0.560455961686D-04 0.000000000000D+00  6 1 21 25 1 2 -2 2 0.13613089D+00 0.36661437D+00 0.30801055D+06 0.30801055D+06 0.30801055D+06 0.10837062D+01  1  2 12  6  6  2        2 0.151644484213D-03 0.100000000000D+01
0.973317658688D-10 0.000000000000D+00 0.000000000000D+00 0.560455961686D-04 0.000000000000D+00  6 1 21 25 1 2 -2 2 0.13613089D+00 0.35664974D+00 0.30801055D+06 0.30801055D+06 0.30801055D+06 0.10837062D+01  1  2 12  6  6  2        2 0.200903369599D-10 0.100000000000D+01
-.947542424702D-03 0.000000000000D+00 -.169252771060D-06 0.560455961686D-04 0.000000000000D+00  6 1 21 25 1 2 -2 2 0.13613089D+00 0.35664877D+00 0.30282840D+06 0.30282840D+06 0.30282840D+06 0.10842505D+01  1  2  5  6  6  2        2 -.196226003893D-03 0.100000000000D+01
0.319785183902D-04 0.000000000000D+00 0.000000000000D+00 0.560455961686D-04 0.228915064339D-06  6 1 21 25 1 2 -2 2 0.13613459D+00 0.35664611D+00 0.30801055D+06 0.30801055D+06 0.30801055D+06 0.10837062D+01  1  2 11  6  6  2        2 0.660078241531D-05 0.100000000000D+01
  </mgrwgt>
  </event>
  <event>
  5     66 -.17698235E-05 0.97432821E+02 0.75467711E-02 0.94323254E-01
        1 -1    0    0  501    0 0.00000000E+00 0.00000000E+00 0.11333685E+04 0.11333686E+04 0.32000000E+00 0.0000E+00 0.9000E+01
        2 -1    0    0  502    0 0.00000000E+00 0.00000000E+00 -.71205321E+03 0.71205329E+03 0.32000000E+00 0.0000E+00 0.9000E+01
       25  1    1    2    0    0 0.31950630E+03 0.33784809E+03 0.23233120E+03 0.53462921E+03 0.12500000E+03 0.0000E+00 0.9000E+01
        1  1    1    2  501    0 -.36940912E+03 -.25418133E+03 0.67761365E+03 0.81254637E+03 0.32000000E+00 0.0000E+00 0.9000E+01
        2  1    1    2  502    0 0.49902822E+02 -.83666758E+02 -.48862954E+03 0.49824627E+03 0.32000000E+00 0.0000E+00 0.9000E+01
#aMCatNLO 1  0  0  4  1 0.55697270D+02 0.00000000D+00  -5  6  0 0.00000000D+00 0.00000000D+00 0.00000000D+00 0.00000000D+00 0.00000000D+00
  <mgrwgt>
 -.2004023629D-01    8    2    0
 0.898342255421687D+03 0.000000000000000D+00 0.000000000000000D+00 0.898342255421687D+03
 0.898342255421687D+03 -.000000000000000D+00 -.000000000000000D+00 -.898342255421687D+03
 0.494644195192011D+03 0.319466750924571D+03 0.337837782260434D+03 0.113377721657310D+03
 0.675628704202130D+03 -.369375630617581D+03 -.254158283980282D+03 0.505410087089595D+03
 0.626411611449233D+03 0.499088796930104D+02 -.836794982801523D+02 -.618787808746904D+03
 0.000000000000000D+00 0.000000000000000D+00 0.000000000000000D+00 0.000000000000000D+00
 0.898342255421687D+03 0.000000000000000D+00 0.000000000000000D+00 0.898342255421687D+03
 0.898342255421687D+03 -.000000000000000D+00 -.000000000000000D+00 -.898342255421687D+03
 0.493380436079232D+03 0.317882772904161D+03 0.336747885953911D+03 0.115545050530372D+03
 0.457704746856993D+03 -.294475200586585D+03 -.164892980986929D+03 0.309173569950859D+03
 0.623732207159298D+03 0.479046783114327D+02 -.850585399430824D+02 -.616045495743974D+03
 0.221867120747851D+03 -.713122506290089D+02 -.867963650238997D+02 0.191326875262742D+03
0.262082340630D-03 0.000000000000D+00 0.000000000000D+00 0.369796079415D-05 0.000000000000D+00  6 1 2 25 1 2 21 0 0.17436440D+00 0.10954666D+00 0.26382454D+06 0.26382454D+06 0.26382454D+06 0.10887049D+01  1  2  2  3  6  4        1 0.181841212055D-02 0.100000000000D+01
0.593705657642D-04 0.000000000000D+00 -.100646519588D-05 0.369796079415D-05 0.000000000000D+00  6 1 2 25 1 2 21 2 0.17436440D+00 0.10954666D+00 0.26382454D+06 0.26382454D+06 0.26382454D+06 0.10887049D+01  1  2  3  3  6  4        1 0.488254370323D-03 0.100000000000D+01
-.154707572706D-03 0.000000000000D+00 0.000000000000D+00 0.369796079415D-05 0.000000000000D+00  6 1 2 25 1 2 21 2 0.17436440D+00 0.10954666D+00 0.26382454D+06 0.26382454D+06 0.26382454D+06 0.10887049D+01  1  2 15  3  6  4        1 -.127229120227D-02 0.100000000000D+01
0.216945917581D-02 0.000000000000D+00 0.000000000000D+00 0.369796079415D-05 0.000000000000D+00  6 1 2 25 1 2 21 2 0.17436440D+00 0.10954666D+00 0.26374070D+06 0.26374070D+06 0.26374070D+06 0.10887153D+01  1  2 12  3  6  4        1 0.178419016218D-01 0.100000000000D+01
0.163851552749D-07 0.000000000000D+00 0.000000000000D+00 0.369796079415D-05 0.000000000000D+00  6 1 2 25 1 2 21 2 0.17436440D+00 0.10954666D+00 0.26374070D+06 0.26374070D+06 0.26374070D+06 0.10887153D+01  1  2 12  3  6  4        1 0.134753551361D-06 0.100000000000D+01
-.559070044659D-02 0.000000000000D+00 0.000000000000D+00 0.369796079415D-05 0.000000000000D+00  6 1 2 25 1 2 21 2 0.17436440D+00 0.10954666D+00 0.26382454D+06 0.26382454D+06 0.26382454D+06 0.10887049D+01  1  2  4  3  6  4        1 -.459770576730D-01 0.100000000000D+01
-.226945225193D-02 0.000000000000D+00 0.000000000000D+00 0.369796079415D-05 0.000000000000D+00  6 1 2 25 1 2 21 2 0.17436440D+00 0.10954666D+00 0.26382454D+06 0.26382454D+06 0.26382454D+06 0.10887049D+01  1  2  5  3  6  4        1 -.186636250806D-01 0.100000000000D+01
0.312798121754D-02 0.000000000000D+00 -.000000000000D+00 0.369796079415D-05 0.000000000000D+00  6 1 2 25 1 2 21 2 0.17436440D+00 0.10954666D+00 0.26382454D+06 0.26382454D+06 0.26382454D+06 0.10887049D+01  1  2  6  3  6  4        1 0.257240347990D-01 0.100000000000D+01
  </mgrwgt>
  </event>
  <event>
  6     66 0.17698235E-05 0.32892055E+02 0.75467711E-02 0.92670201E-01
        1 -1    0    0  501    0 0.00000000E+00 0.00000000E+00 0.82257560E+03 0.82257566E+03 0.32000000E+00 0.0000E+00 0.9000E+01
        2 -1    0    0  502    0 -.00000000E+00 -.00000000E+00 -.30981511E+04 0.30981511E+04 0.32000000E+00 0.0000E+00 0.9000E+01
       25  1    1    2    0    0 -.37004738E+03 0.39600777E+03 0.97625804E+02 0.56472384E+03 0.12500000E+03 0.0000E+00 0.9000E+01
        1  1    1    2  501    0 -.55216830E+01 0.51530991E+02 0.45804174E+03 0.46096450E+03 0.32000000E+00 0.0000E+00 0.9000E+01
        2  1    1    2  503    0 0.35435822E+03 -.41620604E+03 -.23688860E+04 0.24311352E+04 0.32000000E+00 0.0000E+00 0.9000E+01
       21  1    1    2  502  503 0.21210843E+02 -.31332725E+02 -.46235702E+03 0.46390324E+03 0.75000000E+00 0.0000E+00 0.9000E+01
#aMCatNLO 2  0  0  5  2 0.55961499D+02 0.00000000D+00  -5  6  0 0.00000000D+00 0.00000000D+00 0.00000000D+00 0.00000000D+00 0.00000000D+00
  <mgrwgt>
 0.4398444947D-01    1    2    0
 0.159639080570725D+04 0.000000000000000D+00 0.000000000000000D+00 0.159639080570725D+04
 0.159639080570725D+04 -.000000000000000D+00 -.000000000000000D+00 -.159639080570725D+04
 0.764861638297476D+03 -.370539463100988D+03 0.396599210906094D+03 0.524211691907567D+03
 0.894465121088461D+03 -.605866345800091D+01 0.521650050601763D+02 0.892922145367652D+03
 0.153345485202857D+04 0.376598126558989D+03 -.448764215966270D+03 -.141713383727522D+04
 0.000000000000000D+00 0.000000000000000D+00 0.000000000000000D+00 -.000000000000000D+00
 0.159639080570725D+04 0.000000000000000D+00 0.000000000000000D+00 0.159639080570725D+04
 0.159639080570725D+04 -.000000000000000D+00 -.000000000000000D+00 -.159639080570725D+04
 0.763168690957643D+03 -.370079480353781D+03 0.396051083386729D+03 0.522480782830600D+03
 0.892403780011607D+03 -.552076257325380D+01 0.515240282422173D+02 0.890898031355614D+03
 0.129700288883093D+04 0.354379548652882D+03 -.416228777175111D+03 -.117617398125603D+04
 0.240206251614327D+03 0.212206942741524D+02 -.313463344538351D+02 -.237204832930184D+03
0.803575213393D-01 0.000000000000D+00 0.000000000000D+00 0.801617956873D-04 0.697735682801D-06  6 1 2 25 1 2 21 2 0.12655010D+00 0.47663863D+00 0.35557425D+06 0.35557425D+06 0.35557425D+06 0.10791330D+01  1  2  1  4  6  5        2 0.439844494693D-01 0.100000000000D+01
  </mgrwgt>
  </event>
  <event>
  5     66 -.17698235E-05 0.73974296E+02 0.75467711E-02 0.94849434E-01
        1 -1    0    0  501    0 0.00000000E+00 0.00000000E+00 0.57956541E+03 0.57956550E+03 0.32000000E+00 0.0000E+00 0.9000E+01
        2 -1    0    0  502    0 0.00000000E+00 0.00000000E+00 -.10378914E+04 0.10378914E+04 0.32000000E+00 0.0000E+00 0.9000E+01
       25  1    1    2    0    0 0.23367663E+03 -.42152180E+03 0.25124651E+03 0.55770530E+03 0.12500000E+03 0.0000E+00 0.9000E+01
        1  1    1    2  501    0 -.43523328E+02 0.59938703E+02 0.11657094E+03 0.13811522E+03 0.32000000E+00 0.0000E+00 0.9000E+01
        2  1    1    2  502    0 -.19015330E+03 0.36158309E+03 -.82614343E+03 0.92163642E+03 0.32000000E+00 0.0000E+00 0.9000E+01
#aMCatNLO 1  0  0  1  4 0.17119823D+02 0.00000000D+00  -5  6  0 0.00000000D+00 0.00000000D+00 0.00000000D+00 0.00000000D+00 0.00000000D+00
  <mgrwgt>
 -.4254778053D-03    5    2    0
 0.775581111335950D+03 0.000000000000000D+00 0.000000000000000D+00 0.775581111335950D+03
 0.775581111335950D+03 0.000000000000000D+00 0.000000000000000D+00 -.775581111335950D+03
 0.655937334197837D+03 0.233664130548987D+03 -.421524965695247D+03 0.427020565997672D+03
 0.178221588740826D+03 -.434648611685535D+02 0.598581847904737D+02 0.162144189690818D+03
 0.717003299733236D+03 -.190199269380433D+03 0.361666780904773D+03 -.589164755688490D+03
 0.000000000000000D+00 0.000000000000000D+00 -.000000000000000D+00 0.000000000000000D+00
 0.158638649580329D+04 0.000000000000000D+00 0.000000000000000D+00 0.158638649580329D+04
 0.866673035138085D+03 0.000000000000000D+00 0.000000000000000D+00 -.866673035138085D+03
 0.545840751380912D+03 0.156319953479860D+03 -.274835649483762D+03 0.427020565997672D+03
 0.205739710273553D+03 -.681758881501766D+02 0.106724591392462D+03 0.162144189690818D+03
 0.859798662701771D+03 -.291679277752184D+03 0.554131599864364D+03 -.589164755688490D+03
 0.841680406585143D+03 0.203535212422501D+03 -.386020541773064D+03 0.719713460665207D+03
0.168233341631D-03 0.000000000000D+00 0.000000000000D+00 0.751191446571D-06 0.000000000000D+00  6 1 2 25 1 2 21 0 0.89163920D-01 0.15967561D+00 0.24034864D+06 0.24034864D+06 0.24034864D+06 0.10917477D+01  1  2  2  1  6  1        1 0.210932477478D-02 0.100000000000D+01
0.214321327708D-04 0.000000000000D+00 -.646060328717D-06 0.751191446571D-06 0.000000000000D+00  6 1 2 25 1 2 21 2 0.89163920D-01 0.15967561D+00 0.24034864D+06 0.24034864D+06 0.24034864D+06 0.10917477D+01  1  2  3  1  6  1        1 0.320288525624D-03 0.100000000000D+01
-.109967075531D-03 0.000000000000D+00 0.000000000000D+00 0.751191446571D-06 0.000000000000D+00  6 1 2 25 1 2 21 2 0.89163920D-01 0.15967561D+00 0.24034864D+06 0.24034864D+06 0.24034864D+06 0.10917477D+01  1  2 15  1  6  1        1 -.164338252593D-02 0.100000000000D+01
-.273610758700D-03 0.000000000000D+00 -.103883341206D-03 0.751191446571D-06 0.000000000000D+00  6 1 2 25 1 2 21 2 0.19189849D+00 0.15967561D+00 0.24034864D+06 0.24034864D+06 0.24034864D+06 0.10917477D+01  1  2  5  1  6  1        1 -.114356973544D-02 0.100000000000D+01
-.161996640680D-04 0.000000000000D+00 -.861914062837D-05 0.751191446571D-06 0.000000000000D+00  6 21 2 25 1 2 -1 2 0.19189849D+00 0.15967561D+00 0.24034864D+06 0.24034864D+06 0.24034864D+06 0.10917477D+01  1  2  5  5  6  1        1 -.681388442944D-04 0.100000000000D+01
  </mgrwgt>
  </event>
  <event>
  5     66 -.17698235E-05 0.17982271E+03 0.75467711E-02 0.92732959E-01
        1 -1    0    0  501    0 0.00000000E+00 0.00000000E+00 0.14580277E+04 0.14580277E+04 0.32000000E+00 0.0000E+00 0.9000E+01
        2 -1    0    0  502    0 0.00000000E+00 0.00000000E+00 -.17288892E+04 0.17288893E+04 0.32000000E+00 0.0000E+00 0.9000E+01
       25  1    1    2    0    0 -.58079124E+03 0.49990771E+02 0.27632605E+03 0.65711386E+03 0.12500000E+03 0.0000E+00 0.9000E+01
        1  1    1    2  501    0 0.17983708E+03 0.90570884E+00 0.95623564E+03 0.97299995E+03 0.32000000E+00 0.0000E+00 0.9000E+01
        2  1    1    2  502    0 0.40095417E+03 -.50896479E+02 -.15034232E+04 0.15568032E+04 0.32000000E+00 0.0000E+00 0.9000E+01
#aMCatNLO 1  0  0  2  5 0.10534737D+02 0.00000000D+00  -5  6  0 0.00000000D+00 0.00000000D+00 0.00000000D+00 0.00000000D+00 0.00000000D+00
  <mgrwgt>
 -.1081542433D-01   11    2    0
 0.158769282081008D+04 0.000000000000000D+00 0.000000000000000D+00 0.158769282081008D+04
 0.158769282081008D+04 0.000000000000000D+00 0.000000000000000D+00 -.158769282081008D+04
 0.683144390315065D+03 -.580813854610812D+03 0.499956000764845D+02 0.333492075294248D+03
 0.105800259649652D+04 0.179820426201695D+03 0.905624980493679D+00 0.104260888561216D+04
 0.143423865480858D+04 0.400993428409117D+03 -.509012250569782D+02 -.137610096090640D+04
 0.000000000000000D+00 0.000000000000000D+00 -.000000000000000D+00 -.000000000000000D+00
 0.158785055909569D+04 0.000000000000000D+00 0.000000000000000D+00 0.158785055909569D+04
 0.177390984646759D+04 0.000000000000000D+00 0.000000000000000D+00 -.177390984646759D+04
 0.684793698361911D+03 -.582635149037791D+03 0.513490811780559D+02 0.333492075294248D+03
 0.105753137827409D+04 0.177003770776843D+03 0.299880103742578D+01 0.104260888561216D+04
 0.143307804008699D+04 0.397175837569281D+03 -.480642114590057D+02 -.137610096090640D+04
 0.186357288840284D+03 0.845554069166745D+01 -.628367075647595D+01 -.186059287371893D+03
0.201562140307D-04 0.000000000000D+00 0.000000000000D+00 0.179144564203D-04 0.000000000000D+00  6 1 2 25 1 2 21 0 0.22431196D+00 0.26598296D+00 0.34824535D+06 0.34824535D+06 0.34824535D+06 0.10797926D+01  1  2  2  2  6  2        2 0.201031389575D-04 0.100000000000D+01
0.290488481729D-05 0.000000000000D+00 -.774051691311D-07 0.179144564203D-04 0.000000000000D+00  6 1 2 25 1 2 21 2 0.22431196D+00 0.26598296D+00 0.34824535D+06 0.34824535D+06 0.34824535D+06 0.10797926D+01  1  2  3  2  6  2        2 0.337803801956D-05 0.100000000000D+01
-.134169005833D-04 0.000000000000D+00 0.000000000000D+00 0.179144564203D-04 0.000000000000D+00  6 1 2 25 1 2 21 2 0.22431196D+00 0.26598296D+00 0.34824535D+06 0.34824535D+06 0.34824535D+06 0.10797926D+01  1  2 15  2  6  2        2 -.156022710454D-04 0.100000000000D+01
0.195713970673D-01 0.000000000000D+00 0.000000000000D+00 0.179144564203D-04 0.000000000000D+00  6 1 2 25 1 2 21 2 0.22431196D+00 0.29793759D+00 0.35149422D+06 0.35149422D+06 0.35149422D+06 0.10794984D+01  1  2 12  2  6  2        2 0.175017694315D-01 0.100000000000D+01
0.229970056589D-08 0.000000000000D+00 0.000000000000D+00 0.179144564203D-04 0.000000000000D+00  6 1 2 25 1 2 21 2 0.22431196D+00 0.29719897D+00 0.35149422D+06 0.35149422D+06 0.35149422D+06 0.10794984D+01  1  2 12  2  6  2        2 0.206901492743D-08 0.100000000000D+01
-.287731405481D-01 0.000000000000D+00 0.000000000000D+00 0.179144564203D-04 0.000000000000D+00  6 1 2 25 1 2 21 2 0.22431196D+00 0.26598296D+00 0.34824535D+06 0.34824535D+06 0.34824535D+06 0.10797926D+01  1  2  4  2  6  2        2 -.334597647849D-01 0.100000000000D+01
-.201371578963D-01 0.000000000000D+00 -.358608663632D-04 0.179144564203D-04 0.000000000000D+00  6 1 2 25 1 2 21 2 0.22431196D+00 0.29718933D+00 0.34824535D+06 0.34824535D+06 0.34824535D+06 0.10797926D+01  1  2  5  2  6  2        2 -.181424334847D-01 0.100000000000D+01
0.200180477602D-01 0.000000000000D+00 0.356413215031D-04 0.179144564203D-04 0.000000000000D+00  6 1 2 25 1 2 21 2 0.22431196D+00 0.26598296D+00 0.34824535D+06 0.34824535D+06 0.34824535D+06 0.10797926D+01  1  2  6  2  6  2        2 0.232786257165D-01 0.100000000000D+01
0.354155876012D-03 0.000000000000D+00 0.000000000000D+00 0.179144564203D-04 0.000000000000D+00  6 1 21 25 1 2 -2 2 0.22431196D+00 0.29793759D+00 0.35149422D+06 0.35149422D+06 0.35149422D+06 0.10794984D+01  1  2 12  6  6  2        2 0.667370721458D-04 0.100000000000D+01
0.408396051143D-10 0.000000000000D+00 0.000000000000D+00 0.179144564203D-04 0.000000000000D+00  6 1 21 25 1 2 -2 2 0.22431196D+00 0.29719897D+00 0.35149422D+06 0.35149422D+06 0.35149422D+06 0.10794984D+01  1  2 12  6  6  2        2 0.778307877049D-11 0.100000000000D+01
-.357376607470D-03 0.000000000000D+00 -.636682684582D-06 0.179144564203D-04 0.000000000000D+00  6 1 21 25 1 2 -2 2 0.22431196D+00 0.29718933D+00 0.34824535D+06 0.34824535D+06 0.34824535D+06 0.10797926D+01  1  2  5  6  6  2        2 -.682392597242D-04 0.100000000000D+01
  </mgrwgt>
  </event>
  <event>
  6     66 0.17698235E-05 0.17045460E+03 0.75467711E-02 0.93882436E-01
        1 -1    0    0  501    0 0.00000000E+00 0.00000000E+00 0.73207574E+03 0.73207581E+03 0.32000000E+00 0.0000E+00 0.9000E+01
        2 -1    0    0  502    0 0.00000000E+00 0.00000000E+00 -.72011220E+03 0.72011228E+03 0.32000000E+00 0.0000E+00 0.9000E+01
       25  1    1    2    0    0 0.97809139E+02 -.51651798E+03 -.29124031E+03 0.61384312E+03 0.12500000E+03 0.0000E+00 0.9000E+01
        1  1    1    2  503    0 -.38044861E+02 0.32059411E+03 0.41431884E+03 0.52525060E+03 0.32000000E+00 0.0000E+00 0.9000E+01
        2  1    1    2  502    0 -.53740103E+02 0.16819456E+03 -.17163751E+03 0.24624571E+03 0.32000000E+00 0.0000E+00 0.9000E+01
       21  1    1    2  501  503 -.60241747E+01 0.27729304E+02 0.60522522E+02 0.66848659E+02 0.75000000E+00 0.0000E+00 0.9000E+01
#aMCatNLO 2  0  0  4  1 0.13493784D+02 0.00000000D+00  -5  6  0 0.00000000D+00 0.00000000D+00 0.00000000D+00 0.00000000D+00 0.00000000D+00
  <mgrwgt>
 0.3951352359D-02    6    2    0
 0.726069401514129D+03 0.000000000000000D+00 0.000000000000000D+00 0.726069401514129D+03
 0.726069401514129D+03 -.000000000000000D+00 -.000000000000000D+00 -.726069401514129D+03
 0.616748803247524D+03 0.978903154530142D+02 -.516984044460002D+03 -.296477773570872D+03
 0.587399856121636D+03 -.441257676661217D+02 0.348771824542560D+03 0.470584447261964D+03
 0.247990143659097D+03 -.537645477868926D+02 0.168212219917443D+03 -.174106673691092D+03
 0.000000000000000D+00 0.000000000000000D+00 0.000000000000000D+00 0.000000000000000D+00
 0.726069401514129D+03 0.000000000000000D+00 0.000000000000000D+00 0.726069401514129D+03
 0.726069401514129D+03 -.000000000000000D+00 -.000000000000000D+00 -.726069401514129D+03
 0.616155024375048D+03 0.978404573497238D+02 -.516589964026447D+03 -.295946055955079D+03
 0.521750702537733D+03 -.380359912966756D+02 0.320541626652132D+03 0.409914777176796D+03
 0.247951994302342D+03 -.537846034747626D+02 0.168370740872904D+03 -.173892787445255D+03
 0.662810818131340D+02 -.601986257828562D+01 0.276775965014113D+02 0.599240662235381D+02
-.251051161143D-03 0.000000000000D+00 0.000000000000D+00 0.643229464751D-07 0.000000000000D+00  6 1 2 25 1 2 21 2 0.11262705D+00 0.11078650D+00 0.28531422D+06 0.28531422D+06 0.28531422D+06 0.10861683D+01  1  2 13  3  6  4        1 -.423846131892D-02 0.100000000000D+01
-.386738145674D-06 0.000000000000D+00 0.000000000000D+00 0.643229464751D-07 0.000000000000D+00  6 1 2 25 1 2 21 2 0.11262705D+00 0.11078650D+00 0.28531422D+06 0.28531422D+06 0.28531422D+06 0.10861683D+01  1  2 13  3  6  4        1 -.652924552719D-05 0.100000000000D+01
-.543931544036D-05 0.000000000000D+00 0.000000000000D+00 0.643229464751D-07 0.000000000000D+00  6 1 2 25 1 2 21 2 0.11262705D+00 0.11078650D+00 0.28566984D+06 0.28566984D+06 0.28566984D+06 0.10861281D+01  1  2  8  3  6  4        1 -.918202372618D-04 0.100000000000D+01
-.210438483126D-05 0.000000000000D+00 0.000000000000D+00 0.643229464751D-07 0.000000000000D+00  6 1 2 25 1 2 21 2 0.11262705D+00 0.11078650D+00 0.28566984D+06 0.28566984D+06 0.28566984D+06 0.10861281D+01  1  2  9  3  6  4        1 -.355237927667D-04 0.100000000000D+01
0.235514113230D-05 0.000000000000D+00 0.000000000000D+00 0.643229464751D-07 0.000000000000D+00  6 1 2 25 1 2 21 2 0.11262705D+00 0.11078650D+00 0.28566984D+06 0.28566984D+06 0.28566984D+06 0.10861281D+01  1  2 10  3  6  4        1 0.397567708519D-04 0.100000000000D+01
0.490671056013D-03 0.000000000000D+00 0.000000000000D+00 0.643229464751D-07 0.356622326882D-08  6 1 2 25 1 2 21 2 0.11262705D+00 0.11078650D+00 0.28531422D+06 0.28531422D+06 0.28531422D+06 0.10861683D+01  1  2  1  3  6  4        1 0.828393018281D-02 0.100000000000D+01
  </mgrwgt>
  </event>
  <event>
  6     66 0.17698235E-05 0.11707572E+02 0.75467711E-02 0.94348310E-01
        1 -1    0    0  501    0 0.00000000E+00 0.00000000E+00 0.16964226E+04 0.16964226E+04 0.32000000E+00 0.0000E+00 0.9000E+01
        2 -1    0    0  502    0 0.00000000E+00 0.00000000E+00 -.78319641E+03 0.78319647E+03 0.32000000E+00 0.0000E+00 0.9000E+01
       25  1    1    2    0    0 0.42143001E+03 -.27028422E+03 -.24763750E+03 0.57236889E+03 0.12500000E+03 0.0000E+00 0.9000E+01
        1  1    1    2  503    0 -.30283408E+03 0.20173184E+03 0.10762900E+04 0.11361357E+04 0.32000000E+00 0.0000E+00 0.9000E+01
        2  1    1    2  502    0 -.18738021E+02 -.67113843E+01 -.33383058E+03 0.33442356E+03 0.32000000E+00 0.0000E+00 0.9000E+01
       21  1    1    2  501  503 -.99857918E+02 0.75263767E+02 0.41840431E+03 0.43669093E+03 0.75000000E+00 0.0000E+00 0.9000E+01
#aMCatNLO 2  0  0  4  1 0.12520763D+02 0.00000000D+00  -5  6  0 0.00000000D+00 0.00000000D+00 0.00000000D+00 0.00000000D+00 0.00000000D+00
  <mgrwgt>
 0.1841428493D-01    3    2    0
 0.115266309565331D+04 0.000000000000000D+00 0.000000000000000D+00 0.115266309565331D+04
 0.115266309565331D+04 -.000000000000000D+00 -.000000000000000D+00 -.115266309565331D+04
 0.713697837754748D+03 0.421466021268583D+03 -.270302753096865D+03 -.492993324701346D+03
 0.109943477705392D+04 -.402749522417623D+03 0.277035180973018D+03 0.984784829133359D+03
 0.492193576497955D+03 -.187164988509599D+02 -.673242787615304D+01 -.491791504432013D+03
 0.000000000000000D+00 0.000000000000000D+00 0.000000000000000D+00 0.000000000000000D+00
 0.115266309565331D+04 0.000000000000000D+00 0.000000000000000D+00 0.115266309565331D+04
 0.115266309565331D+04 -.000000000000000D+00 -.000000000000000D+00 -.115266309565331D+04
 0.713595135137436D+03 0.421425587804035D+03 -.270274940544535D+03 -.492894458631345D+03
 0.795664773053931D+03 -.302836423595740D+03 0.201730184433441D+03 0.707585658638694D+03
 0.492126249373937D+03 -.187443834279453D+02 -.671324719833341D+01 -.491723322331592D+03
 0.303940033741316D+03 -.998447807803499D+02 0.752580033094265D+02 0.277032122324244D+03
-.337749431429D-01 0.000000000000D+00 0.000000000000D+00 0.638728889299D-04 0.000000000000D+00  6 1 2 25 1 2 21 2 0.26098810D+00 0.12049176D+00 0.26257054D+06 0.26257054D+06 0.26257054D+06 0.10888599D+01  1  2 13  3  6  4        1 -.101629114266D+00 0.100000000000D+01
-.604312209642D-08 0.000000000000D+00 0.000000000000D+00 0.638728889299D-04 0.000000000000D+00  6 1 2 25 1 2 21 2 0.26098810D+00 0.12049176D+00 0.26257054D+06 0.26257054D+06 0.26257054D+06 0.10888599D+01  1  2 13  3  6  4        1 -.181838099168D-07 0.100000000000D+01
0.398946662677D-01 0.000000000000D+00 0.000000000000D+00 0.638728889299D-04 0.167044045925D-05  6 1 2 25 1 2 21 2 0.26098810D+00 0.12049176D+00 0.26257054D+06 0.26257054D+06 0.26257054D+06 0.10888599D+01  1  2  1  3  6  4        1 0.120043417381D+00 0.100000000000D+01
  </mgrwgt>
  </event>
  <event>
  6     66 0.17698235E-05 0.39363818E+02 0.75467711E-02 0.94823740E-01
        1 -1    0    0  501    0 0.00000000E+00 0.00000000E+00 0.24712938E+03 0.24712959E+03 0.32000000E+00 0.0000E+00 0.9000E+01
        2 -1    0    0  502    0 -.00000000E+00 -.00000000E+00 -.22516542E+04 0.22516543E+04 0.32000000E+00 0.0000E+00 0.9000E+01
       25  1    1    2    0    0 -.21455285E+03 0.41593055E+03 -.11798500E+03 0.49857457E+03 0.12500000E+03 0.0000E+00 0.9000E+01
        1  1    1    2  503    0 0.14112246E+02 -.48804310E+02 0.95756828E+01 0.51699248E+02 0.32000000E+00 0.0000E+00 0.9000E+01
        2  1    1    2  502    0 0.22154494E+03 -.36465361E+03 -.17766456E+04 0.18271628E+04 0.32000000E+00 0.0000E+00 0.9000E+01
       21  1    1    2  501  503 -.21104337E+02 -.24726297E+01 -.11946998E+03 0.12134721E+03 0.75000000E+00 0.0000E+00 0.9000E+01
#aMCatNLO 2  0  0  4  2 0.37078704D+02 0.00000000D+00  -5  6  0 0.00000000D+00 0.00000000D+00 0.00000000D+00 0.00000000D+00 0.00000000D+00
  <mgrwgt>
 0.1193545261D-01    3    2    0
 0.745955903202537D+03 0.000000000000000D+00 0.000000000000000D+00 0.745955903202537D+03
 0.745955903202537D+03 -.000000000000000D+00 -.000000000000000D+00 -.745955903202537D+03
 0.675681006434835D+03 -.211527269289218D+03 0.439560986474941D+03 0.450513236179598D+03
 0.136221092204874D+03 -.134363968832975D+02 -.985366686396969D+02 0.930922882610256D+02
 0.680009707765366D+03 0.224963666172516D+03 -.341024317835244D+03 -.543605524440623D+03
 0.000000000000000D+00 0.000000000000000D+00 0.000000000000000D+00 -.000000000000000D+00
 0.745955903202537D+03 0.000000000000000D+00 0.000000000000000D+00 0.745955903202537D+03
 0.745955903202537D+03 -.000000000000000D+00 -.000000000000000D+00 -.745955903202537D+03
 0.677018392425187D+03 -.214791885293315D+03 0.415619717976735D+03 0.473131693847567D+03
 0.985194959965664D+02 0.143054733681856D+02 -.479650119380986D+02 0.848575403420795D+02
 0.673626491931100D+03 0.221696789285472D+03 -.364982166661921D+03 -.520971402545939D+03
 0.427474260522214D+02 -.212103773603434D+02 -.267253937671492D+01 -.370178316437076D+02
-.119385362483D-05 0.000000000000D+00 0.000000000000D+00 0.805561370154D-07 0.000000000000D+00  6 1 2 25 1 2 21 2 0.38019923D-01 0.34640836D+00 0.24143527D+06 0.24143527D+06 0.24143527D+06 0.10915999D+01  1  2 13  3  6  4        1 -.119888256210D-04 0.100000000000D+01
-.727329989078D-04 0.000000000000D+00 0.000000000000D+00 0.805561370154D-07 0.000000000000D+00  6 1 2 25 1 2 21 2 0.38019923D-01 0.34640836D+00 0.25581343D+06 0.25581343D+06 0.25581343D+06 0.10897089D+01  1  2  8  3  6  4        1 -.725638216048D-03 0.100000000000D+01
0.126199200455D-02 0.000000000000D+00 0.000000000000D+00 0.805561370154D-07 0.227051932794D-08  6 1 2 25 1 2 21 2 0.38019923D-01 0.34640836D+00 0.24143527D+06 0.24143527D+06 0.24143527D+06 0.10915999D+01  1  2  1  3  6  4        1 0.126730796497D-01 0.100000000000D+01
  </mgrwgt>
  </event>
  <event>
  5     66 -.17698235E-05 0.30348152E+02 0.75467711E-02 0.90878410E-01
        1 -1    0    0  501    0 0.00000000E+00 0.00000000E+00 0.86318631E+03 0.86318637E+03 0.32000000E+00 0.0000E+00 0.9000E+01
        2 -1    0    0  502    0 -.00000000E+00 -.00000000E+00 -.33884233E+04 0.33884233E+04 0.32000000E+00 0.0000E+00 0.9000E+01
       25  1    1    2    0    0 -.25361052E+03 0.63882688E+03 0.45606059E+03 0.83428673E+03 0.12500000E+03 0.0000E+00 0.9000E+01
        1  1    1    2  501    0 -.25038397E+02 -.17186224E+02 0.18046516E+03 0.18300291E+03 0.32000000E+00 0.0000E+00 0.9000E+01
        2  1    1    2  502    0 0.27864892E+03 -.62164066E+03 -.31617627E+04 0.32343200E+04 0.32000000E+00 0.0000E+00 0.9000E+01
#aMCatNLO 1  0  0  5  2 0.12749307D+02 0.00000000D+00  -5  6  0 0.00000000D+00 0.00000000D+00 0.00000000D+00 0.00000000D+00 0.00000000D+00
  <mgrwgt>
 -.9820437981D-03    6    2    0
 0.171021657299187D+04 0.000000000000000D+00 0.000000000000000D+00 0.171021657299187D+04
 0.171021657299187D+04 -.000000000000000D+00 -.000000000000000D+00 -.171021657299187D+04
 0.137395589167013D+04 -.253652715795461D+03 0.638873471578211D+03 0.118305992212493D+04
 0.360457022903019D+03 -.250210532623511D+02 -.171743192431564D+02 0.359177191664900D+03
 0.168602023141059D+04 0.278673769057813D+03 -.621699152335055D+03 -.154223711378983D+04
 0.000000000000000D+00 0.000000000000000D+00 0.000000000000000D+00 0.000000000000000D+00
 0.171021657299187D+04 0.000000000000000D+00 0.000000000000000D+00 0.171021657299187D+04
 0.171021657299187D+04 -.000000000000000D+00 -.000000000000000D+00 -.171021657299187D+04
 0.137377414308186D+04 -.253622359833341D+03 0.638805749826063D+03 0.118289192607864D+04
 0.360413399704300D+03 -.250130893375966D+02 -.171920861298133D+02 0.359133117691346D+03
 0.103485650539012D+04 0.152260048890944D+03 -.380896121556581D+03 -.950085790254302D+03
 0.651389097807446D+03 0.126375400279994D+03 -.240717542139668D+03 -.591939253515686D+03
0.874897699627D-05 0.000000000000D+00 0.000000000000D+00 0.251508656351D-04 0.000000000000D+00  6 1 2 25 1 2 21 0 0.13279790D+00 0.52129589D+00 0.49724097D+06 0.49724097D+06 0.49724097D+06 0.10686803D+01  1  2  2  4  6  5        2 0.235206125009D-05 0.100000000000D+01
0.317803262744D-05 0.000000000000D+00 -.335983753242D-07 0.251508656351D-04 0.000000000000D+00  6 1 2 25 1 2 21 2 0.13279790D+00 0.52129589D+00 0.49724097D+06 0.49724097D+06 0.49724097D+06 0.10686803D+01  1  2  3  4  6  5        2 0.975765124563D-06 0.100000000000D+01
-.593440333033D-05 0.000000000000D+00 0.000000000000D+00 0.251508656351D-04 0.000000000000D+00  6 1 2 25 1 2 21 2 0.13279790D+00 0.52129589D+00 0.49724097D+06 0.49724097D+06 0.49724097D+06 0.10686803D+01  1  2 15  4  6  5        2 -.182206556183D-05 0.100000000000D+01
-.492331691481D-02 0.000000000000D+00 0.000000000000D+00 0.251508656351D-04 0.000000000000D+00  6 1 2 25 1 2 21 2 0.13279790D+00 0.52129589D+00 0.49724097D+06 0.49724097D+06 0.49724097D+06 0.10686803D+01  1  2  4  4  6  5        2 -.151162731973D-02 0.100000000000D+01
-.379770625346D-02 0.000000000000D+00 0.000000000000D+00 0.251508656351D-04 0.000000000000D+00  6 1 2 25 1 2 21 2 0.13279790D+00 0.52129589D+00 0.49724097D+06 0.49724097D+06 0.49724097D+06 0.10686803D+01  1  2  5  4  6  5        2 -.116602620233D-02 0.100000000000D+01
0.551763691232D-02 0.000000000000D+00 -.000000000000D+00 0.251508656351D-04 0.000000000000D+00  6 1 2 25 1 2 21 2 0.13279790D+00 0.52129589D+00 0.49724097D+06 0.49724097D+06 0.49724097D+06 0.10686803D+01  1  2  6  4  6  5        2 0.169410396311D-02 0.100000000000D+01
  </mgrwgt>
  </event>
  <event>
  5     66 0.17698235E-05 0.50240749E+02 0.75467711E-02 0.92169207E-01
        1 -1    0    0  501    0 0.00000000E+00 0.00000000E+00 0.18551250E+04 0.18551250E+04 0.32000000E+00 0.0000E+00 0.9000E+01
        2 -1    0    0  502    0 0.00000000E+00 0.00000000E+00 -.84774828E+03 0.84774834E+03 0.32000000E+00 0.0000E+00 0.9000E+01
       25  1    1    2    0    0 -.40024923E+03 0.27907335E+03 0.84609291E+03 0.98467233E+03 0.12500000E+03 0.0000E+00 0.9000E+01
        1  1    1    2  501    0 0.17284986E+02 0.47188826E+02 0.85764469E+03 0.85911586E+03 0.32000000E+00 0.0000E+00 0.9000E+01
        2  1    1    2  502    0 0.38296425E+03 -.32626218E+03 -.69636093E+03 0.85908513E+03 0.32000000E+00 0.0000E+00 0.9000E+01
#aMCatNLO 1  0  0  1  4 0.20538320D+03 0.00000000D+00  -5  6  0 0.00000000D+00 0.00000000D+00 0.00000000D+00 0.00000000D+00 0.00000000D+00
  <mgrwgt>
 0.2516603868D-01    7    2    0
 0.125406503760716D+04 0.000000000000000D+00 0.000000000000000D+00 0.125406503760716D+04
 0.125406503760716D+04 0.000000000000000D+00 0.000000000000000D+00 -.125406503760716D+04
 0.721449279212947D+03 -.400292026191175D+03 0.279125218624260D+03 0.516448902189369D+03
 0.581189543625680D+03 0.172801145265764D+02 0.471755281969800D+02 0.579013948710314D+03
 0.120549125237570D+04 0.383011911664598D+03 -.326300746821240D+03 -.109546285089968D+04
 0.000000000000000D+00 0.000000000000000D+00 0.000000000000000D+00 0.000000000000000D+00
 0.234208633070447D+04 0.000000000000000D+00 0.000000000000000D+00 0.234208633070447D+04
 0.126799252798846D+04 0.000000000000000D+00 0.000000000000000D+00 -.126799252798846D+04
 0.742526959832410D+03 -.453481292848814D+03 0.251707239747936D+03 0.516448902189369D+03
 0.580107114595332D+03 -.249121806591856D+02 0.254262631508397D+02 0.579013948710314D+03
 0.119389105623407D+04 0.295837419331657D+03 -.371237414301981D+03 -.109546285089968D+04
 0.109355372803112D+04 0.182556054176343D+03 0.941039114032054D+02 0.107409380271601D+04
0.996306717346D-03 0.000000000000D+00 0.000000000000D+00 0.411869432840D-04 0.000000000000D+00  6 1 2 25 1 2 21 0 0.28540385D+00 0.13042282D+00 0.27939499D+06 0.27939499D+06 0.27939499D+06 0.10868456D+01  1  2  2  1  6  1        1 0.178398458612D-02 0.100000000000D+01
0.323600538165D-03 0.000000000000D+00 -.382608012819D-05 0.411869432840D-04 0.000000000000D+00  6 1 2 25 1 2 21 2 0.28540385D+00 0.13042282D+00 0.27939499D+06 0.27939499D+06 0.27939499D+06 0.10868456D+01  1  2  3  1  6  1        1 0.684451980006D-03 0.100000000000D+01
-.538223212980D-03 0.000000000000D+00 0.000000000000D+00 0.411869432840D-04 0.000000000000D+00  6 1 2 25 1 2 21 2 0.28540385D+00 0.13042282D+00 0.27939499D+06 0.27939499D+06 0.27939499D+06 0.10868456D+01  1  2 15  1  6  1        1 -.113840337194D-02 0.100000000000D+01
-.321958065155D-03 0.000000000000D+00 0.000000000000D+00 0.411869432840D-04 0.000000000000D+00  6 1 2 25 1 2 21 2 0.28540385D+00 0.13042282D+00 0.27939499D+06 0.27939499D+06 0.27939499D+06 0.10868456D+01  1  2  4  1  6  1        1 -.680977962593D-03 0.100000000000D+01
-.147793402750D-01 0.000000000000D+00 -.510229734550D-03 0.411869432840D-04 0.000000000000D+00  6 1 2 25 1 2 21 2 0.53400239D+00 0.13042282D+00 0.27939499D+06 0.27939499D+06 0.27939499D+06 0.10868456D+01  1  2  5  1  6  1        1 -.216706984173D-02 0.100000000000D+01
0.126252241705D-01 0.000000000000D+00 0.424218735730D-03 0.411869432840D-04 0.000000000000D+00  6 1 2 25 1 2 21 2 0.28540385D+00 0.13042282D+00 0.27939499D+06 0.27939499D+06 0.27939499D+06 0.10868456D+01  1  2  6  1  6  1        1 0.267037864971D-01 0.100000000000D+01
-.979591798051D-03 0.000000000000D+00 -.348063185018D-04 0.411869432840D-04 0.000000000000D+00  6 21 2 25 1 2 -1 2 0.53400239D+00 0.13042282D+00 0.27939499D+06 0.27939499D+06 0.27939499D+06 0.10868456D+01  1  2  5  5  6  1        1 -.197332068127D-04 0.100000000000D+01
  </mgrwgt>
  </event>
  <event>
  6     66 0.17698235E-05 0.37391706E+02 0.75467711E-02 0.92774120E-01
        1 -1    0    0  501    0 0.00000000E+00 0.00000000E+00 0.15153010E+04 0.15153010E+04 0.32000000E+00 0.0000E+00 0.9000E+01
        2 -1    0    0  502    0 -.00000000E+00 -.00000000E+00 -.17911237E+04 0.17911237E+04 0.32000000E+00 0.0000E+00 0.9000E+01
       25  1    1    2    0    0 0.51398839E+03 0.22144492E+03 0.57089487E+03 0.80917728E+03 0.12500000E+03 0.0000E+00 0.9000E+01
        1  1    1    2  501    0 -.55908412E+02 0.49582949E+02 0.77860644E+03 0.78218432E+03 0.32000000E+00 0.0000E+00 0.9000E+01
        2  1    1    2  503    0 -.34704955E+03 -.19089753E+03 -.10145095E+04 0.10890890E+04 0.32000000E+00 0.0000E+00 0.9000E+01
       21  1    1    2  502  503 -.11103043E+03 -.80130336E+02 -.61081453E+03 0.62597411E+03 0.75000000E+00 0.0000E+00 0.9000E+01
#aMCatNLO 2  0  0  5  2 0.52917890D+02 0.00000000D+00  -5  6  0 0.00000000D+00 0.00000000D+00 0.00000000D+00 0.00000000D+00 0.00000000D+00
  <mgrwgt>
 0.2501683901D-01    1    2    0
 0.164745000855995D+04 0.000000000000000D+00 0.000000000000000D+00 0.164745000855995D+04
 0.164745000855995D+04 -.000000000000000D+00 -.000000000000000D+00 -.164745000855995D+04
 0.861170542337771D+03 0.514413572629866D+03 0.221708253396645D+03 0.642038806973781D+03
 0.851214643347445D+03 -.555098294369953D+02 0.498058345877240D+02 0.847941275517364D+03
 0.158251483143468D+04 -.458903743192871D+03 -.271514087984369D+03 -.148998008249115D+04
 0.000000000000000D+00 0.000000000000000D+00 0.000000000000000D+00 -.000000000000000D+00
 0.164745000855995D+04 0.000000000000000D+00 0.000000000000000D+00 0.164745000855995D+04
 0.164745000855995D+04 -.000000000000000D+00 -.000000000000000D+00 -.164745000855995D+04
 0.859920114210064D+03 0.514019101694144D+03 0.221474861497063D+03 0.640758028932491D+03
 0.849965624542188D+03 -.558997369468368D+02 0.495751426757420D+02 0.846675314120677D+03
 0.100777462619336D+04 -.347023321327397D+03 -.190878894749448D+03 -.926687519713791D+03
 0.577239652174283D+03 -.111096043419910D+03 -.801711094233570D+02 -.560745823339377D+03
0.254382893936D-01 0.000000000000D+00 0.000000000000D+00 0.589985357012D-04 0.867747192524D-07  6 1 2 25 1 2 21 2 0.23312323D+00 0.27555749D+00 0.34884674D+06 0.34884674D+06 0.34884674D+06 0.10797379D+01  1  2  1  4  6  5        2 0.250168390094D-01 0.100000000000D+01
  </mgrwgt>
  </event>
  <event>
  5     66 0.17698235E-05 0.40296072E+02 0.75467711E-02 0.89763003E-01
        1 -1    0    0  501    0 0.00000000E+00 0.00000000E+00 0.12954182E+04 0.12954182E+04 0.32000000E+00 0.0000E+00 0.9000E+01
        2 -1    0    0  502    0 0.00000000E+00 0.00000000E+00 -.26039950E+04 0.26039950E+04 0.32000000E+00 0.0000E+00 0.9000E+01
       25  1    1    2    0    0 -.56432472E+03 0.10197129E+03 -.12109554E+04 0.13456963E+04 0.12500000E+03 0.0000E+00 0.9000E+01
        1  1    1    2  501    0 0.60461127E+03 -.10293671E+03 0.11511274E+04 0.13043179E+04 0.32000000E+00 0.0000E+00 0.9000E+01
        2  1    1    2  502    0 -.40286545E+02 0.96541888E+00 -.12487489E+04 0.12493990E+04 0.32000000E+00 0.0000E+00 0.9000E+01
#aMCatNLO 1  0  0  2  2 0.16124356D+00 0.00000000D+00  -5  6  0 0.00000000D+00 0.00000000D+00 0.00000000D+00 0.00000000D+00 0.00000000D+00
  <mgrwgt>
 0.1657857239D+00    7    2    0
 0.183664434786459D+04 0.000000000000000D+00 0.000000000000000D+00 0.183664434786459D+04
 0.183664434786459D+04 0.000000000000000D+00 0.000000000000000D+00 -.183664434786459D+04
 0.997183861712317D+03 -.564328016634238D+03 0.101971565196187D+03 -.806155285036696D+03
 0.179469335145550D+04 0.604612523762592D+03 -.102936923991426D+03 0.168664516468260D+04
 0.881411482561368D+03 -.402845071283542D+02 0.965358795238998D+00 -.880489879645899D+03
 0.000000000000000D+00 0.000000000000000D+00 -.000000000000000D+00 -.000000000000000D+00
 0.190594232304952D+04 0.000000000000000D+00 0.000000000000000D+00 0.190594232304952D+04
 0.218761891189849D+04 0.000000000000000D+00 0.000000000000000D+00 -.218761891189849D+04
 0.102752217429064D+04 -.599641616794956D+03 0.175272377954715D+03 -.806155285036696D+03
 0.177190915277407D+04 0.542406172555570D+03 0.261854560962724D+02 0.168664516468260D+04
 0.885740335711019D+03 -.711060148554469D+02 0.649418878536471D+02 -.880489879645899D+03
 0.408389572172270D+03 0.128341459094832D+03 -.266399721904635D+03 -.281676588848971D+03
0.143026010730D+00 0.000000000000D+00 0.000000000000D+00 0.138575598704D-03 0.000000000000D+00  6 1 2 25 1 2 21 0 0.19929511D+00 0.40061461D+00 0.38473535D+06 0.38473535D+06 0.38473535D+06 0.10766479D+01  1  2  2  2  6  2        2 0.590356922774D-01 0.100000000000D+01
0.646605260276D-01 0.000000000000D+00 -.549257540815D-03 0.138575598704D-03 0.000000000000D+00  6 1 2 25 1 2 21 2 0.19929511D+00 0.40061461D+00 0.38473535D+06 0.38473535D+06 0.38473535D+06 0.10766479D+01  1  2  3  2  6  2        2 0.309375744922D-01 0.100000000000D+01
-.916659283042D-01 0.000000000000D+00 0.000000000000D+00 0.138575598704D-03 0.000000000000D+00  6 1 2 25 1 2 21 2 0.19929511D+00 0.40061461D+00 0.38473535D+06 0.38473535D+06 0.38473535D+06 0.10766479D+01  1  2 15  2  6  2        2 -.438586207000D-01 0.100000000000D+01
-.105892613730D-02 0.000000000000D+00 0.000000000000D+00 0.138575598704D-03 0.000000000000D+00  6 1 2 25 1 2 21 2 0.19929511D+00 0.40061461D+00 0.38473535D+06 0.38473535D+06 0.38473535D+06 0.10766479D+01  1  2  4  2  6  2        2 -.506655424368D-03 0.100000000000D+01
-.439763982933D+00 0.000000000000D+00 -.130693067095D+00 0.138575598704D-03 0.000000000000D+00  6 1 2 25 1 2 21 2 0.19929511D+00 0.48195398D+00 0.38473535D+06 0.38473535D+06 0.38473535D+06 0.10766479D+01  1  2  5  2  6  2        2 -.989549354913D-01 0.100000000000D+01
0.458272223024D+00 0.000000000000D+00 0.128491591393D+00 0.138575598704D-03 0.000000000000D+00  6 1 2 25 1 2 21 2 0.19929511D+00 0.40061461D+00 0.38473535D+06 0.38473535D+06 0.38473535D+06 0.10766479D+01  1  2  6  2  6  2        2 0.219265630958D+00 0.100000000000D+01
-.105282438000D-01 0.000000000000D+00 -.351913951596D-02 0.138575598704D-03 0.000000000000D+00  6 1 21 25 1 2 -2 2 0.19929511D+00 0.48195398D+00 0.38473535D+06 0.38473535D+06 0.38473535D+06 0.10766479D+01  1  2  5  6  6  2        2 -.132962220178D-03 0.100000000000D+01
  </mgrwgt>
  </event>
  <event>
  5     66 0.17698235E-05 0.19570224E+03 0.75467711E-02 0.95433779E-01
        1 -1    0    0  501    0 0.00000000E+00 0.00000000E+00 0.45421325E+03 0.45421337E+03 0.32000000E+00 0.0000E+00 0.9000E+01
        2 -1    0    0  502    0 -.00000000E+00 -.00000000E+00 -.12002698E+04 0.12002698E+04 0.32000000E+00 0.0000E+00 0.9000E+01
       25  1    1    2    0    0 0.23208325E+03 -.39363636E+03 -.54346791E+03 0.72096781E+03 0.12500000E+03 0.0000E+00 0.9000E+01
        1  1    1    2  501    0 -.86140357E+02 0.17574614E+03 0.30487544E+03 0.36229270E+03 0.32000000E+00 0.0000E+00 0.9000E+01
        2  1    1    2  502    0 -.14594290E+03 0.21789021E+03 -.50746404E+03 0.57122266E+03 0.32000000E+00 0.0000E+00 0.9000E+01
#aMCatNLO 1  0  0  4  1 0.49028683D+02 0.00000000D+00  -5  6  0 0.00000000D+00 0.00000000D+00 0.00000000D+00 0.00000000D+00 0.00000000D+00
  <mgrwgt>
 0.7129377118D-02    4    2    0
 0.738362081911010D+03 0.000000000000000D+00 0.000000000000000D+00 0.738362081911010D+03
 0.738362081911010D+03 -.000000000000000D+00 -.000000000000000D+00 -.738362081911010D+03
 0.533180420100350D+03 0.232104412534655D+03 -.393666473143396D+03 -.244562077974424D+03
 0.559874625583030D+03 -.861319222504886D+02 0.175728935872498D+03 0.524557174613305D+03
 0.383669118138640D+03 -.145972490284167D+03 0.217937537270898D+03 -.279995096638881D+03
 0.000000000000000D+00 0.000000000000000D+00 0.000000000000000D+00 0.000000000000000D+00
 0.738362081911010D+03 0.000000000000000D+00 0.000000000000000D+00 0.738362081911010D+03
 0.738362081911010D+03 -.000000000000000D+00 -.000000000000000D+00 -.738362081911010D+03
 0.429551537978246D+03 0.207124882705867D+03 -.342702485800325D+03 -.924327483624463D+02
 0.485857568529485D+03 -.122699885564640D+03 0.152439504665593D+03 0.444707220986028D+03
 0.346601989866375D+03 -.164920473440268D+03 0.256595781856084D+03 -.164598850400705D+03
 0.214713067447913D+03 0.804954762990405D+02 -.663328007213523D+02 -.187675622222877D+03
0.139363967916D-02 0.000000000000D+00 0.000000000000D+00 0.543040506878D-06 0.000000000000D+00  6 1 2 25 1 2 21 0 0.69878974D-01 0.18465690D+00 0.21705920D+06 0.21705920D+06 0.21705920D+06 0.10951056D+01  1  2  2  3  6  4        1 0.198069261768D-01 0.100000000000D+01
0.112946222285D-03 0.000000000000D+00 -.535194332173D-05 0.543040506878D-06 0.000000000000D+00  6 1 2 25 1 2 21 2 0.69878974D-01 0.18465690D+00 0.21705920D+06 0.21705920D+06 0.21705920D+06 0.10951056D+01  1  2  3  3  6  4        1 0.192508661424D-02 0.100000000000D+01
-.796485875934D-03 0.000000000000D+00 0.000000000000D+00 0.543040506878D-06 0.000000000000D+00  6 1 2 25 1 2 21 2 0.69878974D-01 0.18465690D+00 0.21705920D+06 0.21705920D+06 0.21705920D+06 0.10951056D+01  1  2 15  3  6  4        1 -.135755253002D-01 0.100000000000D+01
-.602613075043D-04 0.000000000000D+00 0.000000000000D+00 0.543040506878D-06 0.000000000000D+00  6 1 2 25 1 2 21 2 0.69878974D-01 0.18465690D+00 0.21705920D+06 0.21705920D+06 0.21705920D+06 0.10951056D+01  1  2  4  3  6  4        1 -.102711037241D-02 0.100000000000D+01
  </mgrwgt>
  </event>
  <event>
  6     66 -.17698235E-05 0.17904222E+02 0.75467711E-02 0.93578338E-01
        1 -1    0    0  501    0 0.00000000E+00 0.00000000E+00 0.11266067E+04 0.11266068E+04 0.32000000E+00 0.0000E+00 0.9000E+01
        2 -1    0    0  502    0 0.00000000E+00 0.00000000E+00 -.44903104E+03 0.44903116E+03 0.32000000E+00 0.0000E+00 0.9000E+01
       25  1    1    2    0    0 0.36677027E+03 0.37718750E+03 0.52878761E+03 0.75632809E+03 0.12500000E+03 0.0000E+00 0.9000E+01
        1  1    1    2  503    0 -.30786093E+01 0.13878568E+02 0.19589962E+03 0.19641500E+03 0.32000000E+00 0.0000E+00 0.9000E+01
        2  1    1    2  502    0 -.35657475E+03 -.39650982E+03 -.12235464E+03 0.54711640E+03 0.32000000E+00 0.0000E+00 0.9000E+01
       21  1    1    2  501  503 -.71169107E+01 0.54437576E+01 0.75243085E+02 0.75778422E+02 0.75000000E+00 0.0000E+00 0.9000E+01
#aMCatNLO 2  0  0  4  1 0.42893082D+01 0.00000000D+00  -5  6  0 0.00000000D+00 0.00000000D+00 0.00000000D+00 0.00000000D+00 0.00000000D+00
  <mgrwgt>
 -.4407346365D-03    6    2    0
 0.711253480250413D+03 0.000000000000000D+00 0.000000000000000D+00 0.711253480250413D+03
 0.711253480250413D+03 -.000000000000000D+00 -.000000000000000D+00 -.711253480250413D+03
 0.586434376511169D+03 0.367014059315226D+03 0.377540345278649D+03 0.225929736656958D+03
 0.171506896252017D+03 -.101621034557246D+02 0.192589954564018D+02 0.170118894333832D+03
 0.664565687737640D+03 -.356851955859501D+03 -.396799340735050D+03 -.396048630990791D+03
 0.000000000000000D+00 -.000000000000000D+00 0.000000000000000D+00 0.000000000000000D+00
 0.711253480250413D+03 0.000000000000000D+00 0.000000000000000D+00 0.711253480250413D+03
 0.711253480250413D+03 -.000000000000000D+00 -.000000000000000D+00 -.711253480250413D+03
 0.586480297510478D+03 0.367007541090785D+03 0.377552698474563D+03 0.226038855122412D+03
 0.123625099504330D+03 -.303987062636744D+01 0.138087097902649D+02 0.122813858940914D+03
 0.664487617163100D+03 -.356859341791255D+03 -.396785343079280D+03 -.395924986653868D+03
 0.479139463229174D+02 -.710832867316300D+01 0.542393481445203D+01 0.470722725905418D+02
-.650516768553D-04 0.000000000000D+00 0.000000000000D+00 0.172221396509D-05 0.000000000000D+00  6 1 2 25 1 2 21 2 0.17332412D+00 0.69081711D-01 0.30134929D+06 0.30134929D+06 0.30134929D+06 0.10844077D+01  1  2 13  3  6  4        1 -.912918202290D-03 0.100000000000D+01
-.699036126799D-08 0.000000000000D+00 0.000000000000D+00 0.172221396509D-05 0.000000000000D+00  6 1 2 25 1 2 21 2 0.17332412D+00 0.69081711D-01 0.30134929D+06 0.30134929D+06 0.30134929D+06 0.10844077D+01  1  2 13  3  6  4        1 -.981008999403D-07 0.100000000000D+01
-.749477301738D-05 0.000000000000D+00 0.000000000000D+00 0.172221396509D-05 0.000000000000D+00  6 1 2 25 1 2 21 2 0.17332412D+00 0.69081711D-01 0.30063399D+06 0.30063399D+06 0.30063399D+06 0.10844840D+01  1  2  8  3  6  4        1 -.105204033686D-03 0.100000000000D+01
-.167395717703D-04 0.000000000000D+00 0.000000000000D+00 0.172221396509D-05 0.000000000000D+00  6 1 2 25 1 2 21 2 0.17332412D+00 0.69081711D-01 0.30063399D+06 0.30063399D+06 0.30063399D+06 0.10844840D+01  1  2  9  3  6  4        1 -.234973156401D-03 0.100000000000D+01
0.220357981445D-04 0.000000000000D+00 0.000000000000D+00 0.172221396509D-05 0.000000000000D+00  6 1 2 25 1 2 21 2 0.17332412D+00 0.69081711D-01 0.30063399D+06 0.30063399D+06 0.30063399D+06 0.10844840D+01  1  2 10  3  6  4        1 0.309316218772D-03 0.100000000000D+01
0.358523602826D-04 0.000000000000D+00 0.000000000000D+00 0.172221396509D-05 0.133451930038D-06  6 1 2 25 1 2 21 2 0.17332412D+00 0.69081711D-01 0.30134929D+06 0.30134929D+06 0.30134929D+06 0.10844077D+01  1  2  1  3  6  4        1 0.503142637965D-03 0.100000000000D+01
  </mgrwgt>
  </event>
  <event>
  5     66 0.17698235E-05 0.57333630E+02 0.75467711E-02 0.90533860E-01
        1 -1    0    0  501    0 0.00000000E+00 0.00000000E+00 0.17508824E+04 0.17508824E+04 0.32000000E+00 0.0000E+00 0.9000E+01
        2 -1    0    0  502    0 0.00000000E+00 0.00000000E+00 -.15067784E+04 0.15067784E+04 0.32000000E+00 0.0000E+00 0.9000E+01
       25  1    1    2    0    0 0.26864008E+03 -.59486950E+03 0.92794823E+03 0.11413808E+04 0.12500000E+03 0.0000E+00 0.9000E+01
        1  1    1    2  501    0 -.23557169E+03 0.64169911E+03 0.55229816E+03 0.87880892E+03 0.32000000E+00 0.0000E+00 0.9000E+01
        2  1    1    2  502    0 -.33068389E+02 -.46829602E+02 -.12361424E+04 0.12374711E+04 0.32000000E+00 0.0000E+00 0.9000E+01
#aMCatNLO 1  0  0  2  4 0.43573736D+02 0.00000000D+00  -5  6  0 0.00000000D+00 0.00000000D+00 0.00000000D+00 0.00000000D+00 0.00000000D+00
  <mgrwgt>
 0.2394399934D-01    9    2    0
 0.162425115030141D+04 0.000000000000000D+00 0.000000000000000D+00 0.162425115030141D+04
 0.162425115030141D+04 0.000000000000000D+00 0.000000000000000D+00 -.162425115030141D+04
 0.107493054276053D+04 0.268601770841547D+03 -.594752170731043D+03 0.844969594642874D+03
 0.839636946701159D+03 -.235530198592232D+03 0.641586092028772D+03 0.487732523348604D+03
 0.133393481114113D+04 -.330715722493150D+02 -.468339212977296D+02 -.133270211799148D+04
 0.000000000000000D+00 0.000000000000000D+00 -.000000000000000D+00 -.000000000000000D+00
 0.162757410614773D+04 0.000000000000000D+00 0.000000000000000D+00 0.162757410614773D+04
 0.177381211617218D+04 0.000000000000000D+00 0.000000000000000D+00 -.177381211617218D+04
 0.107117496981222D+04 0.254216176736665D+03 -.594299028744501D+03 0.844969594642874D+03
 0.843141141284093D+03 -.246810055244445D+03 0.641941404198296D+03 0.487732523348604D+03
 0.133447841417812D+04 -.509582555175216D+02 -.462704960314736D+02 -.133270211799148D+04
 0.152591697045475D+03 0.435521340253013D+02 -.137187942232084D+01 -.146238010024449D+03
0.279424188422D-02 0.000000000000D+00 0.000000000000D+00 0.701087265074D-05 0.000000000000D+00  6 1 2 25 1 2 21 0 0.26936652D+00 0.23181206D+00 0.49367644D+06 0.49367644D+06 0.49367644D+06 0.10689013D+01  1  2  2  2  6  2        2 0.228262080525D-02 0.100000000000D+01
0.149635339030D-02 0.000000000000D+00 -.107306245762D-04 0.701087265074D-05 0.000000000000D+00  6 1 2 25 1 2 21 2 0.26936652D+00 0.23181206D+00 0.49367644D+06 0.49367644D+06 0.49367644D+06 0.10689013D+01  1  2  3  2  6  2        2 0.139662282802D-02 0.100000000000D+01
-.149763586492D-02 0.000000000000D+00 0.000000000000D+00 0.701087265074D-05 0.000000000000D+00  6 1 2 25 1 2 21 2 0.26936652D+00 0.23181206D+00 0.49367644D+06 0.49367644D+06 0.49367644D+06 0.10689013D+01  1  2 15  2  6  2        2 -.139781982690D-02 0.100000000000D+01
0.662451770582D-07 0.000000000000D+00 0.000000000000D+00 0.701087265074D-05 0.000000000000D+00  6 1 2 25 1 2 21 2 0.26936652D+00 0.25373898D+00 0.53182075D+06 0.53182075D+06 0.53182075D+06 0.10666218D+01  1  2 12  2  6  2        2 0.510501060083D-07 0.100000000000D+01
-.154548972293D-02 0.000000000000D+00 0.000000000000D+00 0.701087265074D-05 0.000000000000D+00  6 1 2 25 1 2 21 2 0.26936652D+00 0.23181206D+00 0.49367644D+06 0.49367644D+06 0.49367644D+06 0.10689013D+01  1  2  4  2  6  2        2 -.144248426977D-02 0.100000000000D+01
-.155310128154D+00 0.000000000000D+00 -.641307853311D-02 0.701087265074D-05 0.000000000000D+00  6 1 2 25 1 2 21 2 0.26936652D+00 0.25334685D+00 0.49367644D+06 0.49367644D+06 0.49367644D+06 0.10689013D+01  1  2  5  2  6  2        2 -.121323837663D+00 0.100000000000D+01
0.155291914648D+00 0.000000000000D+00 0.638785797760D-02 0.701087265074D-05 0.000000000000D+00  6 1 2 25 1 2 21 2 0.26936652D+00 0.23181206D+00 0.49367644D+06 0.49367644D+06 0.49367644D+06 0.10689013D+01  1  2  6  2  6  2        2 0.144941852914D+00 0.100000000000D+01
0.101066839963D-08 0.000000000000D+00 0.000000000000D+00 0.701087265074D-05 0.000000000000D+00  6 1 21 25 1 2 -2 2 0.26936652D+00 0.25373898D+00 0.53182075D+06 0.53182075D+06 0.53182075D+06 0.10666218D+01  1  2 12  6  6  2        2 0.221975880581D-09 0.100000000000D+01
-.228933669254D-02 0.000000000000D+00 -.939580261334D-04 0.701087265074D-05 0.000000000000D+00  6 1 21 25 1 2 -2 2 0.26936652D+00 0.25334685D+00 0.49367644D+06 0.49367644D+06 0.49367644D+06 0.10689013D+01  1  2  5  6  6  2        2 -.513006717996D-03 0.100000000000D+01
  </mgrwgt>
  </event>
  <event>
  5     66 0.17698235E-05 0.41751513E+02 0.75467711E-02 0.94816858E-01
        1 -1    0    0  501    0 0.00000000E+00 0.00000000E+00 0.11757985E+04 0.11757986E+04 0.32000000E+00 0.0000E+00 0.9000E+01
        2 -1    0    0  502    0 0.00000000E+00 0.00000000E+00 -.12961544E+04 0.12961545E+04 0.32000000E+00 0.0000E+00 0.9000E+01
       25  1    1    2    0    0 -.41362214E+03 -.24224057E+03 -.43432346E+03 0.65880622E+03 0.12500000E+03 0.0000E+00 0.9000E+01
        1  1    1    2  501    0 0.37206837E+03 0.24628781E+03 0.10161110E+04 0.11097632E+04 0.32000000E+00 0.0000E+00 0.9000E+01
        2  1    1    2  502    0 0.41553771E+02 -.40472382E+01 -.70214343E+03 0.70338368E+03 0.32000000E+00 0.0000E+00 0.9000E+01
#aMCatNLO 1  0  0  1  4 0.37324872D+01 0.00000000D+00  -5  6  0 0.00000000D+00 0.00000000D+00 0.00000000D+00 0.00000000D+00 0.00000000D+00
  <mgrwgt>
 0.9638991057D-02    7    2    0
 0.123451066806771D+04 0.000000000000000D+00 0.000000000000000D+00 0.123451066806771D+04
 0.123451066806771D+04 0.000000000000000D+00 0.000000000000000D+00 -.123451066806771D+04
 0.638406149471081D+03 -.413622278096737D+03 -.242239930071766D+03 -.402708131310238D+03
 0.116060951681248D+04 0.372067389139320D+03 0.246287157737339D+03 0.107141165962873D+04
 0.670005669851866D+03 0.415548889574172D+02 -.404722766557290D+01 -.668703528318497D+03
 0.000000000000000D+00 -.000000000000000D+00 -.000000000000000D+00 0.000000000000000D+00
 0.155098949723432D+04 0.000000000000000D+00 0.000000000000000D+00 0.155098949723432D+04
 0.132250817451511D+04 0.000000000000000D+00 0.000000000000000D+00 -.132250817451511D+04
 0.583282646004277D+03 -.349258400505806D+03 -.201092953090089D+03 -.402708131310238D+03
 0.122573450621112D+04 0.497790367983517D+03 0.326660197867831D+03 0.107141165962873D+04
 0.679387772139952D+03 0.112646802580618D+03 0.414008939039291D+02 -.668703528318497D+03
 0.385092747394085D+03 -.261178770058329D+03 -.166968138681670D+03 0.228481322719214D+03
0.176521470555D-02 0.000000000000D+00 0.000000000000D+00 0.972802177471D-04 0.000000000000D+00  6 1 2 25 1 2 21 0 0.18089209D+00 0.19940838D+00 0.24172726D+06 0.24172726D+06 0.24172726D+06 0.10915602D+01  1  2  2  1  6  1        1 0.491123537173D-02 0.100000000000D+01
0.725150848024D-03 0.000000000000D+00 -.677888926103D-05 0.972802177471D-04 0.000000000000D+00  6 1 2 25 1 2 21 2 0.18089209D+00 0.19940838D+00 0.24172726D+06 0.24172726D+06 0.24172726D+06 0.10915602D+01  1  2  3  1  6  1        1 0.240390329561D-02 0.100000000000D+01
-.120278603972D-02 0.000000000000D+00 0.000000000000D+00 0.972802177471D-04 0.000000000000D+00  6 1 2 25 1 2 21 2 0.18089209D+00 0.19940838D+00 0.24172726D+06 0.24172726D+06 0.24172726D+06 0.10915602D+01  1  2 15  1  6  1        1 -.398728255324D-02 0.100000000000D+01
-.175049317490D-03 0.000000000000D+00 0.000000000000D+00 0.972802177471D-04 0.000000000000D+00  6 1 2 25 1 2 21 2 0.18089209D+00 0.19940838D+00 0.24172726D+06 0.24172726D+06 0.24172726D+06 0.10915602D+01  1  2  4  1  6  1        1 -.580295303184D-03 0.100000000000D+01
-.409409703368D-02 0.000000000000D+00 -.179968098495D-02 0.972802177471D-04 0.000000000000D+00  6 1 2 25 1 2 21 2 0.23509565D+00 0.19940838D+00 0.24172726D+06 0.24172726D+06 0.24172726D+06 0.10915602D+01  1  2  5  1  6  1        1 -.777109871287D-02 0.100000000000D+01
0.447141297517D-02 0.000000000000D+00 0.173959012975D-02 0.972802177471D-04 0.000000000000D+00  6 1 2 25 1 2 21 2 0.18089209D+00 0.19940838D+00 0.24172726D+06 0.24172726D+06 0.24172726D+06 0.10915602D+01  1  2  6  1  6  1        1 0.148229081112D-01 0.100000000000D+01
-.110881691015D-03 0.000000000000D+00 -.630591737503D-04 0.972802177471D-04 0.000000000000D+00  6 21 2 25 1 2 -1 2 0.23509565D+00 0.19940838D+00 0.24172726D+06 0.24172726D+06 0.24172726D+06 0.10915602D+01  1  2  5  5  6  1        1 -.160379152611D-03 0.100000000000D+01
  </mgrwgt>
  </event>
  <event>
  5     66 0.17698235E-05 0.19381139E+02 0.75467711E-02 0.88982212E-01
        1 -1    0    0  501    0 0.00000000E+00 0.00000000E+00 0.80237528E+03 0.80237535E+03 0.32000000E+00 0.0000E+00 0.9000E+01
        2 -1    0    0  502    0 0.00000000E+00 0.00000000E+00 -.32040556E+04 0.32040556E+04 0.32000000E+00 0.0000E+00 0.9000E+01
       25  1    1    2    0    0 0.56825985E+03 0.47923799E+03 -.44787712E+02 0.75512863E+03 0.12500000E+03 0.0000E+00 0.9000E+01
        1  1    1    2  501    0 0.16173740E+02 -.10685763E+02 0.39693869E+03 0.39741188E+03 0.32000000E+00 0.0000E+00 0.9000E+01
        2  1    1    2  502    0 -.58443359E+03 -.46855222E+03 -.27538313E+04 0.28538904E+04 0.32000000E+00 0.0000E+00 0.9000E+01
#aMCatNLO 1  0  0  1  4 0.36928092D+01 0.00000000D+00  -5  6  0 0.00000000D+00 0.00000000D+00 0.00000000D+00 0.00000000D+00 0.00000000D+00
  <mgrwgt>
 0.4524679670D-02    7    2    0
 0.160338864724062D+04 0.000000000000000D+00 0.000000000000000D+00 0.160338864724062D+04
 0.160338864724062D+04 0.000000000000000D+00 0.000000000000000D+00 -.160338864724062D+04
 0.910022853473658D+03 0.568318781670767D+03 0.479281461327274D+03 0.509725060275231D+03
 0.793639600958159D+03 0.161705797436733D+02 -.106836750040708D+02 0.793402916334561D+03
 0.150311484004942D+04 -.584489361414440D+03 -.468597786323203D+03 -.130312797660979D+04
 0.000000000000000D+00 0.000000000000000D+00 0.000000000000000D+00 0.000000000000000D+00
 0.210872808451436D+04 0.000000000000000D+00 0.000000000000000D+00 0.210872808451436D+04
 0.161366020665540D+04 0.000000000000000D+00 0.000000000000000D+00 -.161366020665540D+04
 0.880044074136754D+03 0.543012032091499D+03 0.451852706481317D+03 0.509725060275231D+03
 0.794199945699119D+03 -.627721657026399D+01 -.350137494768264D+02 0.793402916334561D+03
 0.153532214224787D+04 -.627444718355216D+03 -.515155008188407D+03 -.130312797660979D+04
 0.512822129086020D+03 0.907099028339816D+02 0.983160511839169D+02 0.495067877858956D+03
0.113830113065D-02 0.000000000000D+00 0.000000000000D+00 0.493439544677D-04 0.000000000000D+00  6 1 2 25 1 2 21 0 0.12344236D+00 0.49293163D+00 0.57942018D+06 0.57942018D+06 0.57942018D+06 0.10640148D+01  1  2  2  1  6  1        1 0.453801153165D-03 0.100000000000D+01
0.998463638214D-03 0.000000000000D+00 -.437137606328D-05 0.493439544677D-04 0.000000000000D+00  6 1 2 25 1 2 21 2 0.12344236D+00 0.49293163D+00 0.57942018D+06 0.57942018D+06 0.57942018D+06 0.10640148D+01  1  2  3  1  6  1        1 0.450646481167D-03 0.100000000000D+01
-.715096832370D-03 0.000000000000D+00 0.000000000000D+00 0.493439544677D-04 0.000000000000D+00  6 1 2 25 1 2 21 2 0.12344236D+00 0.49293163D+00 0.57942018D+06 0.57942018D+06 0.57942018D+06 0.10640148D+01  1  2 15  1  6  1        1 -.322751734633D-03 0.100000000000D+01
-.533742795074D-04 0.000000000000D+00 0.000000000000D+00 0.493439544677D-04 0.000000000000D+00  6 1 2 25 1 2 21 2 0.12344236D+00 0.49293163D+00 0.57942018D+06 0.57942018D+06 0.57942018D+06 0.10640148D+01  1  2  4  1  6  1        1 -.240899421113D-04 0.100000000000D+01
-.268561431840D-01 0.000000000000D+00 -.119012451284D-02 0.493439544677D-04 0.000000000000D+00  6 1 2 25 1 2 21 2 0.16274581D+00 0.49293163D+00 0.57942018D+06 0.57942018D+06 0.57942018D+06 0.10640148D+01  1  2  5  1  6  1        1 -.754434386550D-02 0.100000000000D+01
0.262210643687D-01 0.000000000000D+00 0.114606236688D-02 0.493439544677D-04 0.000000000000D+00  6 1 2 25 1 2 21 2 0.12344236D+00 0.49293163D+00 0.57942018D+06 0.57942018D+06 0.57942018D+06 0.10640148D+01  1  2  6  1  6  1        1 0.118346126368D-01 0.100000000000D+01
-.954837939480D-03 0.000000000000D+00 -.433531055838D-04 0.493439544677D-04 0.000000000000D+00  6 21 2 25 1 2 -1 2 0.16274581D+00 0.49293163D+00 0.57942018D+06 0.57942018D+06 0.57942018D+06 0.10640148D+01  1  2  5  5  6  1        1 -.323195058535D-03 0.100000000000D+01
  </mgrwgt>
  </event>
  <event>
  5     66 0.17698235E-05 0.32917235E+02 0.75467711E-02 0.92890763E-01
        1 -1    0    0  501    0 0.00000000E+00 0.00000000E+00 0.41025822E+03 0.41025835E+03 0.32000000E+00 0.0000E+00 0.9000E+01
        2 -1    0    0  502    0 0.00000000E+00 0.00000000E+00 -.10922911E+04 0.10922911E+04 0.32000000E+00 0.0000E+00 0.9000E+01
       25  1    1    2    0    0 0.39638432E+03 0.28053302E+03 -.36930152E+03 0.62275831E+03 0.12500000E+03 0.0000E+00 0.9000E+01
        1  1    1    2  501    0 -.31471790E+02 -.96996336E+01 0.19536484E+03 0.19812137E+03 0.32000000E+00 0.0000E+00 0.9000E+01
        2  1    1    2  502    0 -.36491253E+03 -.27083338E+03 -.50809616E+03 0.68166978E+03 0.32000000E+00 0.0000E+00 0.9000E+01
#aMCatNLO 1  0  0  1  2 0.18842248D+03 0.00000000D+00  -5  6  0 0.00000000D+00 0.00000000D+00 0.00000000D+00 0.00000000D+00 0.00000000D+00
  <mgrwgt>
 0.6505662615D-02    7    2    0
 0.669418794169993D+03 0.000000000000000D+00 0.000000000000000D+00 0.669418794169993D+03
 0.669418794169993D+03 0.000000000000000D+00 0.000000000000000D+00 -.669418794169993D+03
 0.510849554649454D+03 0.396460024087761D+03 0.280591782861286D+03 -.971080232349644D+02
 0.321720182496534D+03 -.314571023037427D+02 -.969510695083018D+01 0.320031766300577D+03
 0.506267851193998D+03 -.365002921784019D+03 -.270896675910456D+03 -.222923743065613D+03
 0.000000000000000D+00 -.000000000000000D+00 -.000000000000000D+00 0.000000000000000D+00
 0.824150755895563D+03 0.000000000000000D+00 0.000000000000000D+00 0.824150755895563D+03
 0.735932414576051D+03 0.000000000000000D+00 0.000000000000000D+00 -.735932414576051D+03
 0.584209734548525D+03 0.460347968115097D+03 0.322995037139826D+03 -.971080232349644D+02
 0.320447489392500D+03 0.600824106397491D+01 0.151711257264087D+02 0.320031766300577D+03
 0.447374254521868D+03 -.309365538426714D+03 -.233969425396916D+03 -.222923743065613D+03
 0.208051692008720D+03 -.156990670752358D+03 -.104196737469318D+03 0.882183413195122D+02
0.184273692124D-03 0.000000000000D+00 0.000000000000D+00 0.176489095721D-05 0.000000000000D+00  6 1 2 25 1 2 21 0 0.63116663D-01 0.16804479D+00 0.24452939D+06 0.24452939D+06 0.24452939D+06 0.10911827D+01  1  2  2  1  6  1        1 0.346642023993D-02 0.100000000000D+01
0.831278210305D-04 0.000000000000D+00 -.707659498135D-06 0.176489095721D-05 0.000000000000D+00  6 1 2 25 1 2 21 2 0.63116663D-01 0.16804479D+00 0.24452939D+06 0.24452939D+06 0.24452939D+06 0.10911827D+01  1  2  3  1  6  1        1 0.186191234806D-02 0.100000000000D+01
-.113521183948D-03 0.000000000000D+00 0.000000000000D+00 0.176489095721D-05 0.000000000000D+00  6 1 2 25 1 2 21 2 0.63116663D-01 0.16804479D+00 0.24452939D+06 0.24452939D+06 0.24452939D+06 0.10911827D+01  1  2 15  1  6  1        1 -.254266852589D-02 0.100000000000D+01
-.265865910500D-04 0.000000000000D+00 0.000000000000D+00 0.176489095721D-05 0.000000000000D+00  6 1 2 25 1 2 21 2 0.63116663D-01 0.16804479D+00 0.24452939D+06 0.24452939D+06 0.24452939D+06 0.10911827D+01  1  2  4  1  6  1        1 -.595491395722D-03 0.100000000000D+01
-.556958032011D-03 0.000000000000D+00 -.201059401307D-03 0.176489095721D-05 0.000000000000D+00  6 1 2 25 1 2 21 2 0.83922659D-01 0.16804479D+00 0.24452939D+06 0.24452939D+06 0.24452939D+06 0.10911827D+01  1  2  5  1  6  1        1 -.840272734670D-02 0.100000000000D+01
0.597711352359D-03 0.000000000000D+00 0.193166169934D-03 0.176489095721D-05 0.000000000000D+00  6 1 2 25 1 2 21 2 0.63116663D-01 0.16804479D+00 0.24452939D+06 0.24452939D+06 0.24452939D+06 0.10911827D+01  1  2  6  1  6  1        1 0.133876496910D-01 0.100000000000D+01
-.165814711575D-04 0.000000000000D+00 -.748698008660D-05 0.176489095721D-05 0.000000000000D+00  6 21 2 25 1 2 -1 2 0.83922659D-01 0.16804479D+00 0.24452939D+06 0.24452939D+06 0.24452939D+06 0.10911827D+01  1  2  5  5  6  1        1 -.669432395972D-03 0.100000000000D+01
  </mgrwgt>
  </event>
  <event>
  6     66 0.17698235E-05 0.22360898E+02 0.75467711E-02 0.92489800E-01
        1 -1    0    0  501    0 0.00000000E+00 0.00000000E+00 0.13429419E+04 0.13429420E+04 0.32000000E+00 0.0000E+00 0.9000E+01
        2 -1    0    0  502    0 0.00000000E+00 0.00000000E+00 -.12771985E+04 0.12771985E+04 0.32000000E+00 0.0000E+00 0.9000E+01
       25  1    1    2    0    0 -.58548791E+03 0.94820303E+02 0.54080821E+03 0.81233337E+03 0.12500000E+03 0.0000E+00 0.9000E+01
        1  1    1    2  501    0 0.54291082E+03 -.93861042E+02 0.55045083E+03 0.77881851E+03 0.32000000E+00 0.0000E+00 0.9000E+01
        2  1    1    2  503    0 0.28262866E+02 -.17886450E+02 -.94151162E+03 0.94210559E+03 0.32000000E+00 0.0000E+00 0.9000E+01
       21  1    1    2  502  503 0.14314219E+02 0.16927189E+02 -.84003954E+02 0.86882987E+02 0.75000000E+00 0.0000E+00 0.9000E+01
#aMCatNLO 2  0  0  5  1 0.20167987D+02 0.00000000D+00  -5  6  0 0.00000000D+00 0.00000000D+00 0.00000000D+00 0.00000000D+00 0.00000000D+00
  <mgrwgt>
 0.1214767951D-02    5    2    0
 0.130965776498671D+04 0.000000000000000D+00 0.000000000000000D+00 0.130965776498671D+04
 0.130965776498671D+04 -.000000000000000D+00 -.000000000000000D+00 -.130965776498671D+04
 0.799577607456760D+03 -.585450864854217D+03 0.948085981963169D+02 0.521495891542565D+03
 0.765636064028519D+03 0.542808368700987D+03 -.938478185334267D+02 0.531742648624099D+03
 0.105410185848814D+04 0.426424961532279D+02 -.960779662890100D+00 -.105323854016666D+04
 0.000000000000000D+00 0.000000000000000D+00 0.000000000000000D+00 0.000000000000000D+00
 0.130965776498671D+04 0.000000000000000D+00 0.000000000000000D+00 0.130965776498671D+04
 0.130965776498671D+04 -.000000000000000D+00 -.000000000000000D+00 -.130965776498671D+04
 0.799052312812094D+03 -.585419667319494D+03 0.948078952835046D+02 0.520725335198705D+03
 0.765145077751130D+03 0.542838242155261D+03 -.938484916133333D+02 0.531004796101195D+03
 0.966125089042975D+03 0.282605311952323D+02 -.178985389466770D+02 -.965545789881782D+03
 0.889930503672153D+02 0.143208939689979D+02 0.169391352765058D+02 -.861843414181177D+02
-.722329414717D-08 0.000000000000D+00 0.000000000000D+00 0.160253383856D-04 0.000000000000D+00  6 1 2 25 1 2 21 2 0.20660646D+00 0.19649208D+00 0.36760065D+06 0.36760065D+06 0.36760065D+06 0.10780821D+01  1  2 13  4  6  5        2 -.177945347686D-07 0.100000000000D+01
-.685810292672D-04 0.000000000000D+00 0.000000000000D+00 0.160253383856D-04 0.000000000000D+00  6 1 2 25 1 2 21 2 0.20660646D+00 0.19649208D+00 0.35977344D+06 0.35977344D+06 0.35977344D+06 0.10787618D+01  1  2  8  4  6  5        2 -.169401742207D-03 0.100000000000D+01
-.324410271437D-02 0.000000000000D+00 0.000000000000D+00 0.160253383856D-04 0.000000000000D+00  6 1 2 25 1 2 21 2 0.20660646D+00 0.19649208D+00 0.35977344D+06 0.35977344D+06 0.35977344D+06 0.10787618D+01  1  2  9  4  6  5        2 -.801324590173D-02 0.100000000000D+01
0.352950423195D-02 0.000000000000D+00 0.000000000000D+00 0.160253383856D-04 0.000000000000D+00  6 1 2 25 1 2 21 2 0.20660646D+00 0.19649208D+00 0.35977344D+06 0.35977344D+06 0.35977344D+06 0.10787618D+01  1  2 10  4  6  5        2 0.871821511586D-02 0.100000000000D+01
0.275713495389D-03 0.000000000000D+00 0.000000000000D+00 0.160253383856D-04 0.423464766107D-08  6 1 2 25 1 2 21 2 0.20660646D+00 0.19649208D+00 0.36760065D+06 0.36760065D+06 0.36760065D+06 0.10780821D+01  1  2  1  4  6  5        2 0.679218273534D-03 0.100000000000D+01
  </mgrwgt>
  </event>
  <event>
  5     66 0.17698235E-05 0.21996954E+03 0.75467711E-02 0.93188752E-01
        1 -1    0    0  501    0 0.00000000E+00 0.00000000E+00 0.56109757E+03 0.56109766E+03 0.32000000E+00 0.0000E+00 0.9000E+01
        2 -1    0    0  502    0 0.00000000E+00 0.00000000E+00 -.29916135E+04 0.29916135E+04 0.32000000E+00 0.0000E+00 0.9000E+01
       25  1    1    2    0    0 0.37661316E+03 -.29741989E+03 -.22069155E+04 0.22619454E+04 0.12500000E+03 0.0000E+00 0.9000E+01
        1  1    1    2  501    0 -.85458772E+02 0.22829783E+03 0.47327048E+03 0.53236092E+03 0.32000000E+00 0.0000E+00 0.9000E+01
        2  1    1    2  502    0 -.29115438E+03 0.69122067E+02 -.69687090E+03 0.75840483E+03 0.32000000E+00 0.0000E+00 0.9000E+01
#aMCatNLO 1  0  0  1  5 0.12231538D+03 0.00000000D+00  -5  6  0 0.00000000D+00 0.00000000D+00 0.00000000D+00 0.00000000D+00 0.00000000D+00
  <mgrwgt>
 0.1965235078D-02    9    2    0
 0.129560305496013D+04 0.000000000000000D+00 0.000000000000000D+00 0.129560305496013D+04
 0.129560305496013D+04 0.000000000000000D+00 0.000000000000000D+00 -.129560305496013D+04
 0.103120751483695D+04 0.376634842882142D+03 -.297430722630023D+03 -.904126705179713D+03
 0.117380712104950D+04 -.854576549395274D+02 0.228294843336581D+03 0.114821670913843D+04
 0.386191474033817D+03 -.291177187942615D+03 0.691358792934418D+02 -.244090003958716D+03
 0.000000000000000D+00 -.000000000000000D+00 0.000000000000000D+00 0.000000000000000D+00
 0.202063526928251D+04 0.000000000000000D+00 0.000000000000000D+00 0.202063526928251D+04
 0.130221473634112D+04 0.000000000000000D+00 0.000000000000000D+00 -.130221473634112D+04
 0.105059888439775D+04 0.389626454507169D+03 -.344788547992606D+03 -.904126705179713D+03
 0.116365446432764D+04 -.708706149934485D+02 0.175121264086979D+03 0.114821670913843D+04
 0.379838044601548D+03 -.286396744380199D+03 0.517099110672645D+02 -.244090003958716D+03
 0.728758612296681D+03 -.323590951335212D+02 0.117957372838362D+03 0.718420532941394D+03
0.155522175457D-03 0.000000000000D+00 0.000000000000D+00 0.443685471947D-06 0.000000000000D+00  6 1 2 25 1 2 21 0 0.86322712D-01 0.46024824D+00 0.26986203D+06 0.26986203D+06 0.26986203D+06 0.10879701D+01  1  2  2  1  6  1        1 0.156419859030D-03 0.100000000000D+01
0.968110495011D-05 0.000000000000D+00 -.597246103685D-06 0.443685471947D-06 0.000000000000D+00  6 1 2 25 1 2 21 2 0.86322712D-01 0.46024824D+00 0.26986203D+06 0.26986203D+06 0.26986203D+06 0.10879701D+01  1  2  3  1  6  1        1 0.115254640952D-04 0.100000000000D+01
-.115586281438D-03 0.000000000000D+00 0.000000000000D+00 0.443685471947D-06 0.000000000000D+00  6 1 2 25 1 2 21 2 0.86322712D-01 0.46024824D+00 0.26986203D+06 0.26986203D+06 0.26986203D+06 0.10879701D+01  1  2 15  1  6  1        1 -.137606765290D-03 0.100000000000D+01
0.141105450753D-06 0.000000000000D+00 0.000000000000D+00 0.443685471947D-06 0.000000000000D+00  6 1 2 25 1 2 21 2 0.13557521D+00 0.46024824D+00 0.32338744D+06 0.32338744D+06 0.32338744D+06 0.10821480D+01  1  2 12  1  6  1        1 0.818588321996D-07 0.100000000000D+01
-.384416718588D-03 0.000000000000D+00 0.000000000000D+00 0.443685471947D-06 0.000000000000D+00  6 1 2 25 1 2 21 2 0.86322712D-01 0.46024824D+00 0.26986203D+06 0.26986203D+06 0.26986203D+06 0.10879701D+01  1  2  4  1  6  1        1 -.457652417830D-03 0.100000000000D+01
-.537700610400D-02 0.000000000000D+00 -.120583163656D-03 0.443685471947D-06 0.000000000000D+00  6 1 2 25 1 2 21 2 0.13487316D+00 0.46024824D+00 0.26986203D+06 0.26986203D+06 0.26986203D+06 0.10879701D+01  1  2  5  1  6  1        1 -.323357382218D-02 0.100000000000D+01
0.494165956230D-02 0.000000000000D+00 0.109498697272D-03 0.443685471947D-06 0.000000000000D+00  6 1 2 25 1 2 21 2 0.86322712D-01 0.46024824D+00 0.26986203D+06 0.26986203D+06 0.26986203D+06 0.10879701D+01  1  2  6  1  6  1        1 0.588310116970D-02 0.100000000000D+01
0.735028724887D-08 0.000000000000D+00 0.000000000000D+00 0.443685471947D-06 0.000000000000D+00  6 21 2 25 1 2 -1 2 0.13557521D+00 0.46024824D+00 0.32338744D+06 0.32338744D+06 0.32338744D+06 0.10821480D+01  1  2 12  5  6  1        1 0.659245503001D-08 0.100000000000D+01
-.272899940651D-03 0.000000000000D+00 -.622646087724D-05 0.443685471947D-06 0.000000000000D+00  6 21 2 25 1 2 -1 2 0.13487316D+00 0.46024824D+00 0.26986203D+06 0.26986203D+06 0.26986203D+06 0.10879701D+01  1  2  5  5  6  1        1 -.257066860895D-03 0.100000000000D+01
  </mgrwgt>
  </event>
  <event>
  5     66 0.17698235E-05 0.93206634E+02 0.75467711E-02 0.93590635E-01
        1 -1    0    0  501    0 0.00000000E+00 0.00000000E+00 0.19651021E+04 0.19651021E+04 0.32000000E+00 0.0000E+00 0.9000E+01
        2 -1    0    0  502    0 0.00000000E+00 0.00000000E+00 -.11191057E+04 0.11191058E+04 0.32000000E+00 0.0000E+00 0.9000E+01
       25  1    1    2    0    0 -.33294090E+03 -.36511795E+03 0.14266884E+01 0.50969383E+03 0.12500000E+03 0.0000E+00 0.9000E+01
        1  1    1    2  501    0 0.39473100E+03 0.29534477E+03 0.16713271E+04 0.17425199E+04 0.32000000E+00 0.0000E+00 0.9000E+01
        2  1    1    2  502    0 -.61790101E+02 0.69773176E+02 -.82675747E+03 0.83199419E+03 0.32000000E+00 0.0000E+00 0.9000E+01
#aMCatNLO 1  0  0  5  2 0.10317540D+02 0.00000000D+00  -5  6  0 0.00000000D+00 0.00000000D+00 0.00000000D+00 0.00000000D+00 0.00000000D+00
  <mgrwgt>
 0.8452301652D-02    8    2    0
 0.148295555223500D+04 0.000000000000000D+00 0.000000000000000D+00 0.148295555223500D+04
 0.148295555223500D+04 -.000000000000000D+00 -.000000000000000D+00 -.148295555223500D+04
 0.529595128130409D+03 -.332931441794720D+03 -.365118685521319D+03 -.143843666134929D+03
 0.133527269382512D+04 0.394725343221636D+03 0.295340534303961D+03 0.124093474409036D+04
 0.110104328251448D+04 -.617939014269164D+02 0.697781512173585D+02 -.109709107795543D+04
 0.000000000000000D+00 0.000000000000000D+00 0.000000000000000D+00 0.000000000000000D+00
 0.148295555223500D+04 0.000000000000000D+00 0.000000000000000D+00 0.148295555223500D+04
 0.148295555223500D+04 -.000000000000000D+00 -.000000000000000D+00 -.148295555223500D+04
 0.529605124994543D+03 -.332933581110931D+03 -.365116269788915D+03 -.143881647629448D+03
 0.133518345347041D+04 0.394719949576657D+03 0.295346624849570D+03 0.124083898512955D+04
 0.381668482561411D+03 -.196593899282521D+02 0.140389774424328D+02 -.380903197782258D+03
 0.719454043443646D+03 -.421269785374736D+02 0.557306674969120D+02 -.716054139717845D+03
0.276190241605D-04 0.000000000000D+00 0.000000000000D+00 0.559607736677D-04 0.000000000000D+00  6 1 2 25 1 2 21 0 0.30232341D+00 0.17217012D+00 0.30023700D+06 0.30023700D+06 0.30023700D+06 0.10845265D+01  1  2  2  4  6  5        2 0.280777092184D-04 0.100000000000D+01
0.783844235080D-05 0.000000000000D+00 -.106064325032D-06 0.559607736677D-04 0.000000000000D+00  6 1 2 25 1 2 21 2 0.30232341D+00 0.17217012D+00 0.30023700D+06 0.30023700D+06 0.30023700D+06 0.10845265D+01  1  2  3  4  6  5        2 0.937267250012D-05 0.100000000000D+01
-.186664304815D-04 0.000000000000D+00 0.000000000000D+00 0.559607736677D-04 0.000000000000D+00  6 1 2 25 1 2 21 2 0.30232341D+00 0.17217012D+00 0.30023700D+06 0.30023700D+06 0.30023700D+06 0.10845265D+01  1  2 15  4  6  5        2 -.223200390868D-04 0.100000000000D+01
0.749448877012D-02 0.000000000000D+00 0.000000000000D+00 0.559607736677D-04 0.000000000000D+00  6 1 2 25 1 2 21 2 0.30232341D+00 0.17217012D+00 0.30068158D+06 0.30068158D+06 0.30068158D+06 0.10844790D+01  1  2 12  4  6  5        2 0.895958711855D-02 0.100000000000D+01
0.346551425027D-09 0.000000000000D+00 0.000000000000D+00 0.559607736677D-04 0.000000000000D+00  6 1 2 25 1 2 21 2 0.30232341D+00 0.17217012D+00 0.30068158D+06 0.30068158D+06 0.30068158D+06 0.10844790D+01  1  2 12  4  6  5        2 0.414298797267D-09 0.100000000000D+01
-.649043062070D-02 0.000000000000D+00 0.000000000000D+00 0.559607736677D-04 0.000000000000D+00  6 1 2 25 1 2 21 2 0.30232341D+00 0.17217012D+00 0.30023700D+06 0.30023700D+06 0.30023700D+06 0.10845265D+01  1  2  4  4  6  5        2 -.776081239998D-02 0.100000000000D+01
-.770623082980D-02 0.000000000000D+00 0.000000000000D+00 0.559607736677D-04 0.000000000000D+00  6 1 2 25 1 2 21 2 0.30232341D+00 0.17217012D+00 0.30023700D+06 0.30023700D+06 0.30023700D+06 0.10845265D+01  1  2  5  4  6  5        2 -.921458301861D-02 0.100000000000D+01
0.137597605081D-01 0.000000000000D+00 -.000000000000D+00 0.559607736677D-04 0.000000000000D+00  6 1 2 25 1 2 21 2 0.30232341D+00 0.17217012D+00 0.30023700D+06 0.30023700D+06 0.30023700D+06 0.10845265D+01  1  2  6  4  6  5        2 0.164529791955D-01 0.100000000000D+01
  </mgrwgt>
  </event>
  <event>
  5     66 0.17698235E-05 0.14955022E+03 0.75467711E-02 0.92001430E-01
        1 -1    0    0  501    0 0.00000000E+00 0.00000000E+00 0.16620503E+04 0.16620503E+04 0.32000000E+00 0.0000E+00 0.9000E+01
        2 -1    0    0  502    0 0.00000000E+00 0.00000000E+00 -.71827109E+03 0.71827116E+03 0.32000000E+00 0.0000E+00 0.9000E+01
       25  1    1    2    0    0 0.44988718E+03 -.19846038E+03 0.30677916E+03 0.59289413E+03 0.12500000E+03 0.0000E+00 0.9000E+01
        1  1    1    2  501    0 -.14545572E+03 -.34825152E+02 0.11428617E+04 0.11526071E+04 0.32000000E+00 0.0000E+00 0.9000E+01
        2  1    1    2  502    0 -.30443146E+03 0.23328553E+03 -.50586164E+03 0.63482026E+03 0.32000000E+00 0.0000E+00 0.9000E+01
#aMCatNLO 1  0  0  1  4 0.47552916D+02 0.00000000D+00  -5  6  0 0.00000000D+00 0.00000000D+00 0.00000000D+00 0.00000000D+00 0.00000000D+00
  <mgrwgt>
 0.1750744277D-01    7    2    0
 0.109261282608228D+04 0.000000000000000D+00 0.000000000000000D+00 0.109261282608228D+04
 0.109261282608228D+04 0.000000000000000D+00 0.000000000000000D+00 -.109261282608228D+04
 0.513383324022155D+03 0.449914794384378D+03 -.198493196798258D+03 0.781956904369298D+02
 0.761836288197024D+03 -.145439824824060D+03 -.348213462581519D+02 0.747013561599611D+03
 0.910006039945387D+03 -.304474969560318D+03 0.233314543056410D+03 -.825209252036540D+03
 0.000000000000000D+00 0.000000000000000D+00 0.000000000000000D+00 0.000000000000000D+00
 0.133736909399104D+04 0.000000000000000D+00 0.000000000000000D+00 0.133736909399104D+04
 0.112482987639817D+04 0.000000000000000D+00 0.000000000000000D+00 -.112482987639817D+04
 0.497620080323990D+03 0.419823028041661D+03 -.222788696896133D+03 0.781956904369298D+02
 0.774415851119470D+03 -.191165230120502D+03 -.717391388597147D+02 0.747013561599611D+03
 0.919594828588645D+03 -.358931682168486D+03 0.189347264717432D+03 -.825209252036540D+03
 0.270568210357102D+03 0.130273884247327D+03 0.105180571038416D+03 0.212539217592875D+03
0.174299181144D-02 0.000000000000D+00 0.000000000000D+00 0.735410414596D-05 0.000000000000D+00  6 1 2 25 1 2 21 0 0.25570005D+00 0.11050325D+00 0.27067705D+06 0.27067705D+06 0.27067705D+06 0.10878723D+01  1  2  2  1  6  1        1 0.518617656301D-02 0.100000000000D+01
0.263020426457D-03 0.000000000000D+00 -.669354749621D-05 0.735410414596D-05 0.000000000000D+00  6 1 2 25 1 2 21 2 0.25570005D+00 0.11050325D+00 0.27067705D+06 0.27067705D+06 0.27067705D+06 0.10878723D+01  1  2  3  1  6  1        1 0.926183960368D-03 0.100000000000D+01
-.966009101398D-03 0.000000000000D+00 0.000000000000D+00 0.735410414596D-05 0.000000000000D+00  6 1 2 25 1 2 21 2 0.25570005D+00 0.11050325D+00 0.27067705D+06 0.27067705D+06 0.27067705D+06 0.10878723D+01  1  2 15  1  6  1        1 -.340164506360D-02 0.100000000000D+01
-.216523421549D-03 0.000000000000D+00 0.000000000000D+00 0.735410414596D-05 0.000000000000D+00  6 1 2 25 1 2 21 2 0.25570005D+00 0.11050325D+00 0.27067705D+06 0.27067705D+06 0.27067705D+06 0.10878723D+01  1  2  4  1  6  1        1 -.762452265720D-03 0.100000000000D+01
-.941055300075D-02 0.000000000000D+00 -.192226384913D-02 0.735410414596D-05 0.000000000000D+00  6 1 2 25 1 2 21 2 0.31624524D+00 0.11050325D+00 0.27067705D+06 0.27067705D+06 0.27067705D+06 0.10878723D+01  1  2  5  1  6  1        1 -.181565446152D-01 0.100000000000D+01
0.964309306154D-02 0.000000000000D+00 0.187965952769D-02 0.735410414596D-05 0.000000000000D+00  6 1 2 25 1 2 21 2 0.25570005D+00 0.11050325D+00 0.27067705D+06 0.27067705D+06 0.27067705D+06 0.10878723D+01  1  2  6  1  6  1        1 0.339565950912D-01 0.100000000000D+01
-.257497604631D-03 0.000000000000D+00 -.576147758739D-04 0.735410414596D-05 0.000000000000D+00  6 21 2 25 1 2 -1 2 0.31624524D+00 0.11050325D+00 0.27067705D+06 0.27067705D+06 0.27067705D+06 0.10878723D+01  1  2  5  5  6  1        1 -.240870902431D-03 0.100000000000D+01
  </mgrwgt>
  </event>
  <event>
  5     66 -.17698235E-05 0.18203698E+02 0.75467711E-02 0.93272796E-01
        1 -1    0    0  501    0 0.00000000E+00 0.00000000E+00 0.62695619E+03 0.62695627E+03 0.32000000E+00 0.0000E+00 0.9000E+01
        2 -1    0    0  502    0 -.00000000E+00 -.00000000E+00 -.27255474E+04 0.27255474E+04 0.32000000E+00 0.0000E+00 0.9000E+01
       25  1    1    2    0    0 -.46788946E+03 -.30135567E+03 -.70669346E+03 0.90817203E+03 0.12500000E+03 0.0000E+00 0.9000E+01
        1  1    1    2  501    0 0.17995421E+02 0.27527010E+01 0.48804187E+03 0.48838139E+03 0.32000000E+00 0.0000E+00 0.9000E+01
        2  1    1    2  502    0 0.44989404E+03 0.29860297E+03 -.18799396E+04 0.19559503E+04 0.32000000E+00 0.0000E+00 0.9000E+01
#aMCatNLO 1  0  0  4  1 0.91951351D+01 0.00000000D+00  -5  6  0 0.00000000D+00 0.00000000D+00 0.00000000D+00 0.00000000D+00 0.00000000D+00
  <mgrwgt>
 -.1024460317D-02    1    2    0
 0.130721039000335D+04 0.000000000000000D+00 0.000000000000000D+00 0.130721039000335D+04
 0.130721039000335D+04 -.000000000000000D+00 -.000000000000000D+00 -.130721039000335D+04
 0.597336179120460D+03 -.467935519923473D+03 -.301386366892089D+03 -.177166921099189D+03
 0.101794953308559D+04 0.179943913126089D+02 0.275254350930837D+01 0.101778675433250D+04
 0.999135067800662D+03 0.449941128610867D+03 0.298633823382781D+03 -.840619833233308D+03
 0.000000000000000D+00 0.000000000000000D+00 0.000000000000000D+00 0.000000000000000D+00
 0.130721039000335D+04 0.000000000000000D+00 0.000000000000000D+00 0.130721039000335D+04
 0.130721039000335D+04 -.000000000000000D+00 -.000000000000000D+00 -.130721039000335D+04
 0.586834915122734D+03 -.467280067869294D+03 -.301286104523329D+03 -.140093679373242D+03
 0.370952768292642D+03 -.255262583363076D+03 0.341808451506593D+02 0.266980597915971D+03
 0.948958631847507D+03 0.451019420441647D+03 0.298798766176810D+03 -.779630210210962D+03
 0.707674464743824D+03 0.271523230790726D+03 -.316935068041398D+02 0.652743291668233D+03
-.709921171861D-03 0.000000000000D+00 0.000000000000D+00 0.697989003071D-04 0.000000000000D+00  6 1 2 25 1 2 21 2 0.96454807D-01 0.41931500D+00 0.31848459D+06 0.31848459D+06 0.31848459D+06 0.10826359D+01  1  2 14  3  6  4        1 -.102446031686D-02 0.100000000000D+01
  </mgrwgt>
  </event>
  <event>
  6     66 0.17698235E-05 0.20245485E+03 0.75467711E-02 0.92782996E-01
        1 -1    0    0  501    0 0.00000000E+00 0.00000000E+00 0.13817188E+04 0.13817188E+04 0.32000000E+00 0.0000E+00 0.9000E+01
        2 -1    0    0  502    0 0.00000000E+00 0.00000000E+00 -.91463881E+03 0.91463887E+03 0.32000000E+00 0.0000E+00 0.9000E+01
       25  1    1    2    0    0 0.45101085E+03 0.32961573E+03 -.17929467E+03 0.59985739E+03 0.12500000E+03 0.0000E+00 0.9000E+01
        1  1    1    2  503    0 -.10082113E+03 -.99612348E+00 0.39239798E+03 0.40514463E+03 0.32000000E+00 0.0000E+00 0.9000E+01
        2  1    1    2  502    0 -.22935914E+03 -.30822425E+03 -.44144531E+03 0.58521951E+03 0.32000000E+00 0.0000E+00 0.9000E+01
       21  1    1    2  501  503 -.12083058E+03 -.20395352E+02 0.69542195E+03 0.70613615E+03 0.75000000E+00 0.0000E+00 0.9000E+01
#aMCatNLO 2  0  0  4  1 0.21535783D+02 0.00000000D+00  -5  6  0 0.00000000D+00 0.00000000D+00 0.00000000D+00 0.00000000D+00 0.00000000D+00
  <mgrwgt>
 0.8094373437D-03    3    2    0
 0.112417690620528D+04 0.000000000000000D+00 0.000000000000000D+00 0.112417690620528D+04
 0.112417690620528D+04 -.000000000000000D+00 -.000000000000000D+00 -.112417690620528D+04
 0.650125998136405D+03 0.451182594151320D+03 0.329761276037906D+03 -.307783334528682D+03
 0.908386037878253D+03 -.221766359092068D+03 -.214025401038662D+02 0.880639998560309D+03
 0.689841776395896D+03 -.229416235059252D+03 -.308358735934039D+03 -.572856664031628D+03
 0.000000000000000D+00 0.000000000000000D+00 0.000000000000000D+00 0.000000000000000D+00
 0.112417690620528D+04 0.000000000000000D+00 0.000000000000000D+00 0.112417690620528D+04
 0.112417690620528D+04 -.000000000000000D+00 -.000000000000000D+00 -.112417690620528D+04
 0.649922101294464D+03 0.451104839778155D+03 0.329753772009356D+03 -.307474569883980D+03
 0.332009169633741D+03 -.100734588770857D+03 -.997211000471370D+00 0.316356818981784D+03
 0.689600751437131D+03 -.229498737921351D+03 -.308366698236446D+03 -.572529043013467D+03
 0.576821790045218D+03 -.120871513085948D+03 -.203898627724387D+02 0.563646793915662D+03
-.630125808791D-03 0.000000000000D+00 0.000000000000D+00 0.111112793381D-05 0.000000000000D+00  6 1 2 25 1 2 21 2 0.21257213D+00 0.14071367D+00 0.34827877D+06 0.34827877D+06 0.34827877D+06 0.10797896D+01  1  2 13  3  6  4        1 -.243248733248D-02 0.100000000000D+01
-.601008343434D-08 0.000000000000D+00 0.000000000000D+00 0.111112793381D-05 0.000000000000D+00  6 1 2 25 1 2 21 2 0.21257213D+00 0.14071367D+00 0.34827877D+06 0.34827877D+06 0.34827877D+06 0.10797896D+01  1  2 13  3  6  4        1 -.232008459536D-07 0.100000000000D+01
0.839813223613D-03 0.000000000000D+00 0.000000000000D+00 0.111112793381D-05 0.408728651801D-08  6 1 2 25 1 2 21 2 0.21257213D+00 0.14071367D+00 0.34827877D+06 0.34827877D+06 0.34827877D+06 0.10797896D+01  1  2  1  3  6  4        1 0.324194787705D-02 0.100000000000D+01
  </mgrwgt>
  </event>
  <event>
  5     66 0.17698235E-05 0.39094617E+02 0.75467711E-02 0.93636003E-01
        1 -1    0    0  501    0 0.00000000E+00 0.00000000E+00 0.12603793E+04 0.12603793E+04 0.32000000E+00 0.0000E+00 0.9000E+01
        2 -1    0    0  502    0 0.00000000E+00 0.00000000E+00 -.46963065E+03 0.46963076E+03 0.32000000E+00 0.0000E+00 0.9000E+01
       25  1    1    2    0    0 -.30687112E+03 -.39592195E+03 0.32062485E+03 0.60774120E+03 0.12500000E+03 0.0000E+00 0.9000E+01
        1  1    1    2  501    0 0.31785129E+03 0.35840732E+03 0.72249844E+03 0.86688485E+03 0.32000000E+00 0.0000E+00 0.9000E+01
        2  1    1    2  502    0 -.10980177E+02 0.37514631E+02 -.25237468E+03 0.25538401E+03 0.32000000E+00 0.0000E+00 0.9000E+01
#aMCatNLO 1  0  0  5  1 0.37976807D+02 0.00000000D+00  -5  6  0 0.00000000D+00 0.00000000D+00 0.00000000D+00 0.00000000D+00 0.00000000D+00
  <mgrwgt>
 0.1734517357D-01    7    2    0
 0.769358736819143D+03 0.000000000000000D+00 0.000000000000000D+00 0.769358736819143D+03
 0.769358736819143D+03 -.000000000000000D+00 -.000000000000000D+00 -.769358736819143D+03
 0.518502882013370D+03 -.306845107191268D+03 -.395900118397861D+03 0.482640145606312D+02
 0.603315926283315D+03 0.317826643044941D+03 0.358379525241899D+03 0.366797556923802D+03
 0.416898665341600D+03 -.109815358536732D+02 0.375205931559631D+02 -.415061571484433D+03
 0.000000000000000D+00 0.000000000000000D+00 0.000000000000000D+00 -.000000000000000D+00
 0.769358736819143D+03 0.000000000000000D+00 0.000000000000000D+00 0.769358736819143D+03
 0.769358736819143D+03 -.000000000000000D+00 -.000000000000000D+00 -.769358736819143D+03
 0.517539715191937D+03 -.307027285740245D+03 -.395277669287919D+03 0.413783370163648D+02
 0.598812776956817D+03 0.317615259783837D+03 0.359101758037525D+03 0.358808048925244D+03
 0.374094869465354D+03 0.206302952672222D+02 0.561767983815753D+02 -.369277036384722D+03
 0.482701120241763D+02 -.312182693108142D+02 -.200008871311803D+02 -.309093495568864D+02
0.143422627035D-02 0.000000000000D+00 0.000000000000D+00 0.406074376488D-05 0.000000000000D+00  6 1 2 25 1 2 21 0 0.19390451D+00 0.72250881D-01 0.26747275D+06 0.26747275D+06 0.26747275D+06 0.10882587D+01  1  2  2  4  6  5        2 0.131316814997D-01 0.100000000000D+01
0.638227418851D-03 0.000000000000D+00 -.550780651860D-05 0.406074376488D-05 0.000000000000D+00  6 1 2 25 1 2 21 2 0.19390451D+00 0.72250881D-01 0.26747275D+06 0.26747275D+06 0.26747275D+06 0.10882587D+01  1  2  3  4  6  5        2 0.692057944109D-02 0.100000000000D+01
-.815343238689D-03 0.000000000000D+00 0.000000000000D+00 0.406074376488D-05 0.000000000000D+00  6 1 2 25 1 2 21 2 0.19390451D+00 0.72250881D-01 0.26747275D+06 0.26747275D+06 0.26747275D+06 0.10882587D+01  1  2 15  4  6  5        2 -.884112385091D-02 0.100000000000D+01
0.921532938555D-07 0.000000000000D+00 0.000000000000D+00 0.406074376488D-05 0.000000000000D+00  6 1 2 25 1 2 21 2 0.19390451D+00 0.72250881D-01 0.29823255D+06 0.29823255D+06 0.29823255D+06 0.10847418D+01  1  2 12  4  6  5        2 0.988262733136D-06 0.100000000000D+01
-.242673678133D-03 0.000000000000D+00 0.000000000000D+00 0.406074376488D-05 0.000000000000D+00  6 1 2 25 1 2 21 2 0.19390451D+00 0.72250881D-01 0.26747275D+06 0.26747275D+06 0.26747275D+06 0.10882587D+01  1  2  4  4  6  5        2 -.263141698112D-02 0.100000000000D+01
-.660158427763D-02 0.000000000000D+00 0.000000000000D+00 0.406074376488D-05 0.000000000000D+00  6 1 2 25 1 2 21 2 0.19390451D+00 0.72250881D-01 0.26747275D+06 0.26747275D+06 0.26747275D+06 0.10882587D+01  1  2  5  4  6  5        2 -.715838697634D-01 0.100000000000D+01
0.740985792718D-02 0.000000000000D+00 -.000000000000D+00 0.406074376488D-05 0.000000000000D+00  6 1 2 25 1 2 21 2 0.19390451D+00 0.72250881D-01 0.26747275D+06 0.26747275D+06 0.26747275D+06 0.10882587D+01  1  2  6  4  6  5        2 0.803483349628D-01 0.100000000000D+01
  </mgrwgt>
  </event>
  <event>
  5     66 0.17698235E-05 0.88720350E+02 0.75467711E-02 0.91606973E-01
        1 -1    0    0  501    0 0.00000000E+00 0.00000000E+00 0.66604454E+03 0.66604462E+03 0.32000000E+00 0.0000E+00 0.9000E+01
        2 -1    0    0  502    0 0.00000000E+00 0.00000000E+00 -.27112286E+04 0.27112286E+04 0.32000000E+00 0.0000E+00 0.9000E+01
       25  1    1    2    0    0 -.47758918E+03 -.26122502E+02 -.81661892E+03 0.95460215E+03 0.12500000E+03 0.0000E+00 0.9000E+01
        1  1    1    2  501    0 0.88115895E+02 0.10357819E+02 0.57279224E+03 0.57962294E+03 0.32000000E+00 0.0000E+00 0.9000E+01
        2  1    1    2  502    0 0.38947329E+03 0.15764683E+02 -.18013574E+04 0.18430482E+04 0.32000000E+00 0.0000E+00 0.9000E+01
#aMCatNLO 1  0  0  1  5 0.17014920D+02 0.00000000D+00  -5  6  0 0.00000000D+00 0.00000000D+00 0.00000000D+00 0.00000000D+00 0.00000000D+00
  <mgrwgt>
 0.2528597992D-02    7    2    0
 0.134380028084207D+04 0.000000000000000D+00 0.000000000000000D+00 0.134380028084207D+04
 0.134380028084207D+04 0.000000000000000D+00 0.000000000000000D+00 -.134380028084207D+04
 0.578150854598802D+03 -.477621936488057D+03 -.261238262307873D+02 -.299713600228265D+03
 0.116421021886152D+04 0.881136847602206D+02 0.103575590754098D+02 0.116082476422136D+04
 0.945239488223819D+03 0.389508251727836D+03 0.157662671553775D+02 -.861111163993092D+03
 0.000000000000000D+00 -.000000000000000D+00 -.000000000000000D+00 0.000000000000000D+00
 0.147874550696652D+04 0.000000000000000D+00 0.000000000000000D+00 0.147874550696652D+04
 0.145613041634275D+04 0.000000000000000D+00 0.000000000000000D+00 -.145613041634275D+04
 0.557653167572863D+03 -.453024259991893D+03 0.171123639821240D+02 -.299713600228265D+03
 0.117329877909215D+04 0.138736229685357D+03 0.993385643254877D+02 0.116082476422136D+04
 0.966978466046454D+03 0.430920429983168D+03 0.885578910495197D+02 -.861111163993092D+03
 0.236945510597807D+03 -.116632399676631D+03 -.205008819357131D+03 0.226150906237637D+02
0.136695548132D-02 0.000000000000D+00 0.000000000000D+00 0.671509563942D-04 0.000000000000D+00  6 1 2 25 1 2 21 0 0.10246840D+00 0.41711210D+00 0.23665615D+06 0.23665615D+06 0.23665615D+06 0.10922558D+01  1  2  2  1  6  1        1 0.160646978273D-02 0.100000000000D+01
0.401816416986D-03 0.000000000000D+00 -.524946897592D-05 0.671509563942D-04 0.000000000000D+00  6 1 2 25 1 2 21 2 0.10246840D+00 0.41711210D+00 0.23665615D+06 0.23665615D+06 0.23665615D+06 0.10922558D+01  1  2  3  1  6  1        1 0.563371108563D-03 0.100000000000D+01
-.828095092974D-03 0.000000000000D+00 0.000000000000D+00 0.671509563942D-04 0.000000000000D+00  6 1 2 25 1 2 21 2 0.10246840D+00 0.41711210D+00 0.23665615D+06 0.23665615D+06 0.23665615D+06 0.10922558D+01  1  2 15  1  6  1        1 -.116103979530D-02 0.100000000000D+01
-.337103492075D-04 0.000000000000D+00 0.000000000000D+00 0.671509563942D-04 0.000000000000D+00  6 1 2 25 1 2 21 2 0.10246840D+00 0.41711210D+00 0.23665615D+06 0.23665615D+06 0.23665615D+06 0.10922558D+01  1  2  4  1  6  1        1 -.472639643385D-04 0.100000000000D+01
-.344114788569D-02 0.000000000000D+00 -.202571213960D-02 0.671509563942D-04 0.000000000000D+00  6 1 2 25 1 2 21 2 0.12359960D+00 0.41711210D+00 0.23665615D+06 0.23665615D+06 0.23665615D+06 0.10922558D+01  1  2  5  1  6  1        1 -.361220501949D-02 0.100000000000D+01
0.378924761400D-02 0.000000000000D+00 0.199062081232D-02 0.671509563942D-04 0.000000000000D+00  6 1 2 25 1 2 21 2 0.10246840D+00 0.41711210D+00 0.23665615D+06 0.23665615D+06 0.23665615D+06 0.10922558D+01  1  2  6  1  6  1        1 0.531275612114D-02 0.100000000000D+01
-.728241892118D-04 0.000000000000D+00 -.551514884477D-04 0.671509563942D-04 0.000000000000D+00  6 21 2 25 1 2 -1 2 0.12359960D+00 0.41711210D+00 0.23665615D+06 0.23665615D+06 0.23665615D+06 0.10922558D+01  1  2  5  5  6  1        1 -.133490241427D-03 0.100000000000D+01
  </mgrwgt>
  </event>
  <event>
  5     66 0.17698235E-05 0.87738675E+02 0.75467711E-02 0.89856913E-01
        1 -1    0    0  501    0 0.00000000E+00 0.00000000E+00 0.17602275E+04 0.17602275E+04 0.32000000E+00 0.0000E+00 0.9000E+01
        2 -1    0    0  502    0 0.00000000E+00 0.00000000E+00 -.14932199E+04 0.14932199E+04 0.32000000E+00 0.0000E+00 0.9000E+01
       25  1    1    2    0    0 0.47177893E+02 -.53203628E+03 -.27402364E+03 0.61319027E+03 0.12500000E+03 0.0000E+00 0.9000E+01
        1  1    1    2  501    0 -.47237353E+02 -.73939853E+02 0.15017944E+04 0.15043553E+04 0.32000000E+00 0.0000E+00 0.9000E+01
        2  1    1    2  502    0 0.59460293E-01 0.60597613E+03 -.96076312E+03 0.11359018E+04 0.32000000E+00 0.0000E+00 0.9000E+01
#aMCatNLO 1  0  0  2  4 0.52973640D+02 0.00000000D+00  -5  6  0 0.00000000D+00 0.00000000D+00 0.00000000D+00 0.00000000D+00 0.00000000D+00
  <mgrwgt>
 0.1126380453D-01    7    2    0
 0.162123619137844D+04 0.000000000000000D+00 0.000000000000000D+00 0.162123619137844D+04
 0.162123619137844D+04 0.000000000000000D+00 0.000000000000000D+00 -.162123619137844D+04
 0.637860731930529D+03 0.471783063182812D+02 -.532082285802289D+03 -.325428889140622D+03
 0.138574358612446D+04 -.472361436169360D+02 -.739379598205981D+02 0.138296319955335D+04
 0.121886806470188D+04 0.578372986548104D-01 0.606020245622887D+03 -.105753431041273D+04
 0.000000000000000D+00 0.000000000000000D+00 0.000000000000000D+00 -.000000000000000D+00
 0.168015665887623D+04 0.000000000000000D+00 0.000000000000000D+00 0.168015665887623D+04
 0.190653085934047D+04 0.000000000000000D+00 0.000000000000000D+00 -.190653085934047D+04
 0.673321189245735D+03 0.229254184166417D+02 -.575592639972414D+03 -.325428889140622D+03
 0.139641370610225D+04 -.986976134887681D+02 -.166261265371656D+03 0.138296319955335D+04
 0.118211086890676D+04 -.443529892926466D+02 0.526345989847150D+03 -.105753431041273D+04
 0.334841753961959D+03 0.120125184364773D+03 0.215507915496921D+03 -.226374200464237D+03
0.663258982285D-02 0.000000000000D+00 0.000000000000D+00 0.295571093814D-04 0.000000000000D+00  6 1 2 25 1 2 21 0 0.27080424D+00 0.22972614D+00 0.38586415D+06 0.38586415D+06 0.38586415D+06 0.10765559D+01  1  2  2  2  6  2        2 0.554162437485D-02 0.100000000000D+01
0.241088702147D-02 0.000000000000D+00 -.254708913207D-04 0.295571093814D-04 0.000000000000D+00  6 1 2 25 1 2 21 2 0.27080424D+00 0.22972614D+00 0.38586415D+06 0.38586415D+06 0.38586415D+06 0.10765559D+01  1  2  3  2  6  2        2 0.233455413620D-02 0.100000000000D+01
-.381547384972D-02 0.000000000000D+00 0.000000000000D+00 0.295571093814D-04 0.000000000000D+00  6 1 2 25 1 2 21 2 0.27080424D+00 0.22972614D+00 0.38586415D+06 0.38586415D+06 0.38586415D+06 0.10765559D+01  1  2 15  2  6  2        2 -.369466929726D-02 0.100000000000D+01
-.259320309162D-02 0.000000000000D+00 0.000000000000D+00 0.295571093814D-04 0.000000000000D+00  6 1 2 25 1 2 21 2 0.27080424D+00 0.22972614D+00 0.38586415D+06 0.38586415D+06 0.38586415D+06 0.10765559D+01  1  2  4  2  6  2        2 -.251109776178D-02 0.100000000000D+01
-.292157782358D-01 0.000000000000D+00 -.808813643587D-02 0.295571093814D-04 0.000000000000D+00  6 1 2 25 1 2 21 2 0.27080424D+00 0.27423249D+00 0.38586415D+06 0.38586415D+06 0.38586415D+06 0.10765559D+01  1  2  5  2  6  2        2 -.196298526356D-01 0.100000000000D+01
0.302969760884D-01 0.000000000000D+00 0.796294961889D-02 0.295571093814D-04 0.000000000000D+00  6 1 2 25 1 2 21 2 0.27080424D+00 0.22972614D+00 0.38586415D+06 0.38586415D+06 0.38586415D+06 0.10765559D+01  1  2  6  2  6  2        2 0.293377210178D-01 0.100000000000D+01
-.685355904682D-03 0.000000000000D+00 -.210606655324D-03 0.295571093814D-04 0.000000000000D+00  6 1 21 25 1 2 -2 2 0.27080424D+00 0.27423249D+00 0.38586415D+06 0.38586415D+06 0.38586415D+06 0.10765559D+01  1  2  5  6  6  2        2 -.114475305330D-03 0.100000000000D+01
  </mgrwgt>
  </event>
  <event>
  5     66 0.17698235E-05 0.26502575E+02 0.75467711E-02 0.91971919E-01
        1 -1    0    0  501    0 0.00000000E+00 0.00000000E+00 0.19313630E+04 0.19313630E+04 0.32000000E+00 0.0000E+00 0.9000E+01
        2 -1    0    0  502    0 0.00000000E+00 0.00000000E+00 -.37369067E+03 0.37369080E+03 0.32000000E+00 0.0000E+00 0.9000E+01
       25  1    1    2    0    0 0.42626984E+03 0.37119146E+03 0.12030317E+04 0.13350653E+04 0.12500000E+03 0.0000E+00 0.9000E+01
        1  1    1    2  501    0 -.26328760E+02 0.33235584E+01 0.41762008E+03 0.41846253E+03 0.32000000E+00 0.0000E+00 0.9000E+01
        2  1    1    2  502    0 -.39994108E+03 -.37451502E+03 -.62979497E+02 0.55152596E+03 0.32000000E+00 0.0000E+00 0.9000E+01
#aMCatNLO 1  0  0  2  5 0.74520870D+02 0.00000000D+00  -5  6  0 0.00000000D+00 0.00000000D+00 0.00000000D+00 0.00000000D+00 0.00000000D+00
  <mgrwgt>
 0.1193133750D-01    7    2    0
 0.849548412638847D+03 0.000000000000000D+00 0.000000000000000D+00 0.849548412638847D+03
 0.849548412638847D+03 0.000000000000000D+00 0.000000000000000D+00 -.849548412638847D+03
 0.708490039859099D+03 0.426316115889079D+03 0.371265020169335D+03 0.408350328408659D+03
 0.184596431672388D+03 -.262939090134804D+02 0.331915905272729D+01 0.182684033561097D+03
 0.806010353746208D+03 -.400022206875599D+03 -.374584179222062D+03 -.591034361969756D+03
 0.000000000000000D+00 -.000000000000000D+00 -.000000000000000D+00 -.000000000000000D+00
 0.897275359209551D+03 0.000000000000000D+00 0.000000000000000D+00 0.897275359209551D+03
 0.928364294154842D+03 0.000000000000000D+00 0.000000000000000D+00 -.928364294154842D+03
 0.738002748114736D+03 0.429668866440062D+03 0.421494639023505D+03 0.408350328408659D+03
 0.185152899865291D+03 -.254368862302733D+02 0.161587446691458D+02 0.182684033561097D+03
 0.780062079644529D+03 -.396345931909584D+03 -.319507642051132D+03 -.591034361969756D+03
 0.122421925739837D+03 -.788604830020468D+01 -.118145741641519D+03 -.310889349452907D+02
0.174480099657D-02 0.000000000000D+00 0.000000000000D+00 0.287148151863D-05 0.000000000000D+00  6 1 2 25 1 2 21 0 0.29713278D+00 0.57490884D-01 0.33263993D+06 0.33263993D+06 0.33263993D+06 0.10812490D+01  1  2  2  2  6  2        2 0.721210241149D-02 0.100000000000D+01
0.681145118717D-03 0.000000000000D+00 -.670049524350D-05 0.287148151863D-05 0.000000000000D+00  6 1 2 25 1 2 21 2 0.29713278D+00 0.57490884D-01 0.33263993D+06 0.33263993D+06 0.33263993D+06 0.10812490D+01  1  2  3  2  6  2        2 0.329159984010D-02 0.100000000000D+01
-.100873364676D-02 0.000000000000D+00 0.000000000000D+00 0.287148151863D-05 0.000000000000D+00  6 1 2 25 1 2 21 2 0.29713278D+00 0.57490884D-01 0.33263993D+06 0.33263993D+06 0.33263993D+06 0.10812490D+01  1  2 15  2  6  2        2 -.487465507591D-02 0.100000000000D+01
-.326255874851D-03 0.000000000000D+00 0.000000000000D+00 0.287148151863D-05 0.000000000000D+00  6 1 2 25 1 2 21 2 0.29713278D+00 0.57490884D-01 0.33263993D+06 0.33263993D+06 0.33263993D+06 0.10812490D+01  1  2  4  2  6  2        2 -.157661525567D-02 0.100000000000D+01
-.116975931761D-01 0.000000000000D+00 -.314671709609D-02 0.287148151863D-05 0.000000000000D+00  6 1 2 25 1 2 21 2 0.29713278D+00 0.66352842D-01 0.33263993D+06 0.33263993D+06 0.33263993D+06 0.10812490D+01  1  2  5  2  6  2        2 -.481939348651D-01 0.100000000000D+01
0.120566609599D-01 0.000000000000D+00 0.311465581528D-02 0.287148151863D-05 0.000000000000D+00  6 1 2 25 1 2 21 2 0.29713278D+00 0.57490884D-01 0.33263993D+06 0.33263993D+06 0.33263993D+06 0.10812490D+01  1  2  6  2  6  2        2 0.582632132234D-01 0.100000000000D+01
-.237062962545D-03 0.000000000000D+00 -.691861923597D-04 0.287148151863D-05 0.000000000000D+00  6 1 21 25 1 2 -2 2 0.29713278D+00 0.66352842D-01 0.33263993D+06 0.33263993D+06 0.33263993D+06 0.10812490D+01  1  2  5  6  6  2        2 -.219037278066D-02 0.100000000000D+01
  </mgrwgt>
  </event>
  <event>
  5     66 0.17698235E-05 0.63966287E+02 0.75467711E-02 0.91519119E-01
        1 -1    0    0  501    0 0.00000000E+00 0.00000000E+00 0.31473848E+03 0.31473865E+03 0.32000000E+00 0.0000E+00 0.9000E+01
        2 -1    0    0  502    0 -.00000000E+00 -.00000000E+00 -.24027741E+04 0.24027741E+04 0.32000000E+00 0.0000E+00 0.9000E+01
       25  1    1    2    0    0 0.39040294E+03 0.36761355E+03 -.95203947E+03 0.10997992E+04 0.12500000E+03 0.0000E+00 0.9000E+01
        1  1    1    2  501    0 -.51679527E+02 -.37714558E+02 0.19499991E+03 0.20522726E+03 0.32000000E+00 0.0000E+00 0.9000E+01
        2  1    1    2  502    0 -.33872341E+03 -.32989899E+03 -.13309960E+04 0.14124862E+04 0.32000000E+00 0.0000E+00 0.9000E+01
#aMCatNLO 1  0  0  4  2 0.39617933D+01 0.00000000D+00  -5  6  0 0.00000000D+00 0.00000000D+00 0.00000000D+00 0.00000000D+00 0.00000000D+00
  <mgrwgt>
 0.2707137821D-02    6    2    0
 0.869623890940200D+03 0.000000000000000D+00 0.000000000000000D+00 0.869623890940200D+03
 0.869623890940200D+03 -.000000000000000D+00 -.000000000000000D+00 -.869623890940200D+03
 0.575480577514674D+03 0.390455271470707D+03 0.367665267133653D+03 -.167092272175879D+03
 0.554665274462125D+03 -.516702115299555D+02 -.377077599869387D+02 0.550964500463833D+03
 0.609101929903601D+03 -.338785059940751D+03 -.329957507146715D+03 -.383872228287954D+03
 0.000000000000000D+00 0.000000000000000D+00 0.000000000000000D+00 0.000000000000000D+00
 0.869623890940200D+03 0.000000000000000D+00 0.000000000000000D+00 0.869623890940200D+03
 0.869623890940200D+03 -.000000000000000D+00 -.000000000000000D+00 -.869623890940200D+03
 0.564605274631796D+03 0.387741132980049D+03 0.365684549816139D+03 -.138151148975177D+03
 0.285450546362615D+03 -.172953004740694D+03 -.370264333965903D+02 0.224049806515892D+03
 0.593157436389091D+03 -.341647211431944D+03 -.332046241028007D+03 -.353352828039660D+03
 0.296034524496899D+03 0.126859083192589D+03 0.338812460845837D+01 0.267454170498944D+03
0.553779011545D-03 0.000000000000D+00 0.000000000000D+00 0.340055143747D-05 0.000000000000D+00  6 1 2 25 1 2 21 0 0.48421319D-01 0.36965756D+00 0.29570137D+06 0.29570137D+06 0.29570137D+06 0.10850159D+01  1  2  2  3  6  4        1 0.275179211104D-02 0.100000000000D+01
0.188202801827D-03 0.000000000000D+00 -.212665721770D-05 0.340055143747D-05 0.000000000000D+00  6 1 2 25 1 2 21 2 0.48421319D-01 0.36965756D+00 0.29570137D+06 0.29570137D+06 0.29570137D+06 0.10850159D+01  1  2  3  3  6  4        1 0.110097489978D-02 0.100000000000D+01
-.373779845826D-03 0.000000000000D+00 0.000000000000D+00 0.340055143747D-05 0.000000000000D+00  6 1 2 25 1 2 21 2 0.48421319D-01 0.36965756D+00 0.29570137D+06 0.29570137D+06 0.29570137D+06 0.10850159D+01  1  2 15  3  6  4        1 -.218658927658D-02 0.100000000000D+01
-.231645231776D-04 0.000000000000D+00 0.000000000000D+00 0.340055143747D-05 0.000000000000D+00  6 1 2 25 1 2 21 2 0.48421319D-01 0.36965756D+00 0.29570137D+06 0.29570137D+06 0.29570137D+06 0.10850159D+01  1  2  4  3  6  4        1 -.135511046256D-03 0.100000000000D+01
-.312853569985D-03 0.000000000000D+00 0.000000000000D+00 0.340055143747D-05 0.000000000000D+00  6 1 2 25 1 2 21 2 0.48421319D-01 0.36965756D+00 0.29570137D+06 0.29570137D+06 0.29570137D+06 0.10850159D+01  1  2  5  3  6  4        1 -.183017428282D-02 0.100000000000D+01
0.513961845588D-03 0.000000000000D+00 -.000000000000D+00 0.340055143747D-05 0.000000000000D+00  6 1 2 25 1 2 21 2 0.48421319D-01 0.36965756D+00 0.29570137D+06 0.29570137D+06 0.29570137D+06 0.10850159D+01  1  2  6  3  6  4        1 0.300664541623D-02 0.100000000000D+01
  </mgrwgt>
  </event>
  <event>
  5     66 0.17698235E-05 0.98591511E+02 0.75467711E-02 0.93007431E-01
        1 -1    0    0  501    0 0.00000000E+00 0.00000000E+00 0.17560457E+04 0.17560458E+04 0.32000000E+00 0.0000E+00 0.9000E+01
        2 -1    0    0  502    0 0.00000000E+00 0.00000000E+00 -.68083865E+03 0.68083872E+03 0.32000000E+00 0.0000E+00 0.9000E+01
       25  1    1    2    0    0 -.35538584E+03 -.38857552E+03 0.94222961E+03 0.10866056E+04 0.12500000E+03 0.0000E+00 0.9000E+01
        1  1    1    2  501    0 0.25749527E+03 0.37695968E+03 0.66643026E+03 0.80779441E+03 0.32000000E+00 0.0000E+00 0.9000E+01
        2  1    1    2  502    0 0.97890562E+02 0.11615839E+02 -.53345277E+03 0.54248452E+03 0.32000000E+00 0.0000E+00 0.9000E+01
#aMCatNLO 1  0  0  1  4 0.56372313D+02 0.00000000D+00  -5  6  0 0.00000000D+00 0.00000000D+00 0.00000000D+00 0.00000000D+00 0.00000000D+00
  <mgrwgt>
 0.4475817876D-01   11    2    0
 0.109342761112256D+04 0.000000000000000D+00 0.000000000000000D+00 0.109342761112256D+04
 0.109342761112256D+04 0.000000000000000D+00 0.000000000000000D+00 -.109342761112256D+04
 0.747626522395933D+03 -.355335865112466D+03 -.388484116375719D+03 0.515884610429879D+03
 0.572346917054551D+03 0.257431291512699D+03 0.376866008394421D+03 0.345372458845243D+03
 0.866881782794627D+03 0.979045735997667D+02 0.116181079812980D+02 -.861257069275123D+03
 0.000000000000000D+00 0.000000000000000D+00 -.000000000000000D+00 0.000000000000000D+00
 0.116997201884662D+04 0.000000000000000D+00 0.000000000000000D+00 0.116997201884662D+04
 0.110421939157723D+04 0.000000000000000D+00 0.000000000000000D+00 -.110421939157723D+04
 0.737864473582364D+03 -.355343931631104D+03 -.369340954064859D+03 0.515884610429879D+03
 0.582249025079002D+03 0.257425021821592D+03 0.391745006371226D+03 0.345372458845243D+03
 0.867468179975590D+03 0.978951557262573D+02 0.339682554618480D+02 -.861257069275123D+03
 0.866097317868943D+02 0.237540832540052D-01 -.563723077682147D+02 0.657526272693873D+02
0.212765728227D-02 0.000000000000D+00 0.000000000000D+00 0.253746617987D-05 0.000000000000D+00  6 1 2 25 1 2 21 0 0.27016089D+00 0.10474442D+00 0.30036265D+06 0.30036265D+06 0.30036265D+06 0.10845131D+01  1  2  2  1  6  1        1 0.581720105708D-02 0.100000000000D+01
0.545370157626D-03 0.000000000000D+00 -.817076418896D-05 0.253746617987D-05 0.000000000000D+00  6 1 2 25 1 2 21 2 0.27016089D+00 0.10474442D+00 0.30036265D+06 0.30036265D+06 0.30036265D+06 0.10845131D+01  1  2  3  1  6  1        1 0.175377282021D-02 0.100000000000D+01
-.120980182126D-02 0.000000000000D+00 0.000000000000D+00 0.253746617987D-05 0.000000000000D+00  6 1 2 25 1 2 21 2 0.27016089D+00 0.10474442D+00 0.30036265D+06 0.30036265D+06 0.30036265D+06 0.10845131D+01  1  2 15  1  6  1        1 -.389041740237D-02 0.100000000000D+01
0.145599636057D-01 0.000000000000D+00 0.000000000000D+00 0.253746617987D-05 0.000000000000D+00  6 1 2 25 1 2 21 2 0.30169895D+00 0.10474442D+00 0.33425569D+06 0.33425569D+06 0.33425569D+06 0.10810947D+01  1  2 12  1  6  1        1 0.337743779634D-01 0.100000000000D+01
0.143453617274D-06 0.000000000000D+00 0.000000000000D+00 0.253746617987D-05 0.000000000000D+00  6 1 2 25 1 2 21 2 0.29071129D+00 0.10474442D+00 0.33425569D+06 0.33425569D+06 0.33425569D+06 0.10810947D+01  1  2 12  1  6  1        1 0.371260666966D-06 0.100000000000D+01
-.601403355276D-02 0.000000000000D+00 0.000000000000D+00 0.253746617987D-05 0.000000000000D+00  6 1 2 25 1 2 21 2 0.27016089D+00 0.10474442D+00 0.30036265D+06 0.30036265D+06 0.30036265D+06 0.10845131D+01  1  2  4  1  6  1        1 -.193396144567D-01 0.100000000000D+01
-.447386564469D-01 0.000000000000D+00 -.626022809909D-02 0.253746617987D-05 0.000000000000D+00  6 1 2 25 1 2 21 2 0.29017809D+00 0.10474442D+00 0.30036265D+06 0.30036265D+06 0.30036265D+06 0.10845131D+01  1  2  5  1  6  1        1 -.117918817124D+00 0.100000000000D+01
0.450868544031D-01 0.000000000000D+00 0.624427037200D-02 0.253746617987D-05 0.000000000000D+00  6 1 2 25 1 2 21 2 0.27016089D+00 0.10474442D+00 0.30036265D+06 0.30036265D+06 0.30036265D+06 0.10845131D+01  1  2  6  1  6  1        1 0.144987947535D+00 0.100000000000D+01
0.287438510865D-03 0.000000000000D+00 0.000000000000D+00 0.253746617987D-05 0.000000000000D+00  6 21 2 25 1 2 -1 2 0.30169895D+00 0.10474442D+00 0.33425569D+06 0.33425569D+06 0.33425569D+06 0.10810947D+01  1  2 12  5  6  1        1 0.345353583539D-03 0.100000000000D+01
0.197882831926D-08 0.000000000000D+00 0.000000000000D+00 0.253746617987D-05 0.000000000000D+00  6 21 2 25 1 2 -1 2 0.29071129D+00 0.10474442D+00 0.33425569D+06 0.33425569D+06 0.33425569D+06 0.10810947D+01  1  2 12  5  6  1        1 0.281180329724D-08 0.100000000000D+01
-.529368629219D-03 0.000000000000D+00 -.756061521194D-04 0.253746617987D-05 0.000000000000D+00  6 21 2 25 1 2 -1 2 0.29017809D+00 0.10474442D+00 0.30036265D+06 0.30036265D+06 0.30036265D+06 0.10845131D+01  1  2  5  5  6  1        1 -.771999292060D-03 0.100000000000D+01
  </mgrwgt>
  </event>
  <event>
  5     66 -.17698235E-05 0.12157676E+03 0.75467711E-02 0.93688472E-01
        1 -1    0    0  501    0 0.00000000E+00 0.00000000E+00 0.10442113E+04 0.10442113E+04 0.32000000E+00 0.0000E+00 0.9000E+01
        2 -1    0    0  502    0 0.00000000E+00 0.00000000E+00 -.20822563E+04 0.20822563E+04 0.32000000E+00 0.0000E+00 0.9000E+01
       25  1    1    2    0    0 -.51068131E+03 -.58750802E+02 -.38254762E+03 0.65285124E+03 0.12500000E+03 0.0000E+00 0.9000E+01
        1  1    1    2  501    0 0.82528419E+02 0.89279714E+02 0.87533786E+03 0.88374107E+03 0.32000000E+00 0.0000E+00 0.9000E+01
        2  1    1    2  502    0 0.42815289E+03 -.30528912E+02 -.15308352E+04 0.15898753E+04 0.32000000E+00 0.0000E+00 0.9000E+01
#aMCatNLO 1  0  0  1  4 0.15213377D+02 0.00000000D+00  -5  6  0 0.00000000D+00 0.00000000D+00 0.00000000D+00 0.00000000D+00 0.00000000D+00
  <mgrwgt>
 -.1747662438D-01   11    2    0
 0.147455606596423D+04 0.000000000000000D+00 0.000000000000000D+00 0.147455606596423D+04
 0.147455606596423D+04 0.000000000000000D+00 0.000000000000000D+00 -.147455606596423D+04
 0.557479798066061D+03 -.510716632446850D+03 -.587473241705622D+02 -.175715675159401D+03
 0.124495647199734D+04 0.825259116668549D+02 0.892770015009744D+02 0.123900593544770D+04
 0.114667586186505D+04 0.428190720779995D+03 -.305296773304122D+02 -.106329026028830D+04
 0.000000000000000D+00 0.000000000000000D+00 0.000000000000000D+00 0.000000000000000D+00
 0.186389613744625D+04 0.000000000000000D+00 0.000000000000000D+00 0.186389613744625D+04
 0.147472430819425D+04 0.000000000000000D+00 0.000000000000000D+00 -.147472430819425D+04
 0.560127863953113D+03 -.513537757007089D+03 -.593396798784791D+02 -.175715675159401D+03
 0.124446176356950D+04 0.762419900692029D+02 0.879575571634452D+02 0.123900593544770D+04
 0.114456174423135D+04 0.422407057242630D+03 -.317440817410915D+02 -.106329026028830D+04
 0.389469073886541D+03 0.148887096952566D+02 0.312620445612536D+01 0.389171829252002D+03
0.150439015283D-04 0.000000000000D+00 0.000000000000D+00 0.408923810026D-04 0.000000000000D+00  6 1 2 25 1 2 21 0 0.16064790D+00 0.32034712D+00 0.29155547D+06 0.29155547D+06 0.29155547D+06 0.10854705D+01  1  2  2  1  6  1        1 0.191048534017D-04 0.100000000000D+01
0.356824496758D-05 0.000000000000D+00 -.577725430189D-07 0.408923810026D-04 0.000000000000D+00  6 1 2 25 1 2 21 2 0.16064790D+00 0.32034712D+00 0.29155547D+06 0.29155547D+06 0.29155547D+06 0.10854705D+01  1  2  3  1  6  1        1 0.533917204696D-05 0.100000000000D+01
-.875170483112D-05 0.000000000000D+00 0.000000000000D+00 0.408923810026D-04 0.000000000000D+00  6 1 2 25 1 2 21 2 0.16064790D+00 0.32034712D+00 0.29155547D+06 0.29155547D+06 0.29155547D+06 0.10854705D+01  1  2 15  1  6  1        1 -.130951933576D-04 0.100000000000D+01
0.157216711502D-01 0.000000000000D+00 0.000000000000D+00 0.408923810026D-04 0.000000000000D+00  6 1 2 25 1 2 21 2 0.20801357D+00 0.32034712D+00 0.29542810D+06 0.29542810D+06 0.29542810D+06 0.10850456D+01  1  2 12  1  6  1        1 0.141556431949D-01 0.100000000000D+01
0.113146110787D-08 0.000000000000D+00 0.000000000000D+00 0.408923810026D-04 0.000000000000D+00  6 1 2 25 1 2 21 2 0.20307613D+00 0.32034712D+00 0.29542810D+06 0.29542810D+06 0.29542810D+06 0.10850456D+01  1  2 12  1  6  1        1 0.107198033773D-08 0.100000000000D+01
-.271595226582D-01 0.000000000000D+00 0.000000000000D+00 0.408923810026D-04 0.000000000000D+00  6 1 2 25 1 2 21 2 0.16064790D+00 0.32034712D+00 0.29155547D+06 0.29155547D+06 0.29155547D+06 0.10854705D+01  1  2  4  1  6  1        1 -.406388478098D-01 0.100000000000D+01
-.178650075250D-01 0.000000000000D+00 -.172282433516D-04 0.408923810026D-04 0.000000000000D+00  6 1 2 25 1 2 21 2 0.20307334D+00 0.32034712D+00 0.29155547D+06 0.29155547D+06 0.29155547D+06 0.10854705D+01  1  2  5  1  6  1        1 -.169585561848D-01 0.100000000000D+01
0.173897860669D-01 0.000000000000D+00 0.167657371673D-04 0.408923810026D-04 0.000000000000D+00  6 1 2 25 1 2 21 2 0.16064790D+00 0.32034712D+00 0.29155547D+06 0.29155547D+06 0.29155547D+06 0.10854705D+01  1  2  6  1  6  1        1 0.260203715032D-01 0.100000000000D+01
0.545152989055D-03 0.000000000000D+00 0.000000000000D+00 0.408923810026D-04 0.000000000000D+00  6 21 2 25 1 2 -1 2 0.20801357D+00 0.32034712D+00 0.29542810D+06 0.29542810D+06 0.29542810D+06 0.10850456D+01  1  2 12  5  6  1        1 0.439353202782D-03 0.100000000000D+01
0.365020086385D-10 0.000000000000D+00 0.000000000000D+00 0.408923810026D-04 0.000000000000D+00  6 21 2 25 1 2 -1 2 0.20307613D+00 0.32034712D+00 0.29542810D+06 0.29542810D+06 0.29542810D+06 0.10850456D+01  1  2 12  5  6  1        1 0.319785449611D-10 0.100000000000D+01
-.576057408306D-03 0.000000000000D+00 -.555775180309D-06 0.408923810026D-04 0.000000000000D+00  6 21 2 25 1 2 -1 2 0.20307334D+00 0.32034712D+00 0.29155547D+06 0.29155547D+06 0.29155547D+06 0.10854705D+01  1  2  5  5  6  1        1 -.505938221377D-03 0.100000000000D+01
  </mgrwgt>
  </event>
  <event>
  6     66 -.17698235E-05 0.64900587E+02 0.75467711E-02 0.92448490E-01
        1 -1    0    0  501    0 0.00000000E+00 0.00000000E+00 0.23072203E+04 0.23072203E+04 0.32000000E+00 0.0000E+00 0.9000E+01
        2 -1    0    0  502    0 0.00000000E+00 0.00000000E+00 -.13777599E+04 0.13777599E+04 0.32000000E+00 0.0000E+00 0.9000E+01
       25  1    1    2    0    0 -.53938323E+03 -.26542655E+03 0.13393096E+04 0.14733502E+04 0.12500000E+03 0.0000E+00 0.9000E+01
        1  1    1    2  503    0 0.17473241E+01 -.68681953E+00 0.26651911E+03 0.26652592E+03 0.32000000E+00 0.0000E+00 0.9000E+01
        2  1    1    2  502    0 0.47418868E+03 0.24829420E+03 -.12541388E+04 0.13635868E+04 0.32000000E+00 0.0000E+00 0.9000E+01
       21  1    1    2  501  503 0.63447232E+02 0.17819171E+02 0.57777046E+03 0.58151728E+03 0.75000000E+00 0.0000E+00 0.9000E+01
#aMCatNLO 2  0  0  4  1 0.19661458D+02 0.00000000D+00  -5  6  0 0.00000000D+00 0.00000000D+00 0.00000000D+00 0.00000000D+00 0.00000000D+00
  <mgrwgt>
 -.2566097613D-03    3    2    0
 0.178291773171769D+04 0.000000000000000D+00 0.000000000000000D+00 0.178291773171769D+04
 0.178291773171769D+04 -.000000000000000D+00 -.000000000000000D+00 -.178291773171769D+04
 0.117373715675988D+04 -.539506700315826D+03 -.265496011279514D+03 0.100023912214419D+04
 0.655383100909411D+03 0.652397196573582D+02 0.171442200571953D+02 0.651902495512400D+03
 0.173671520576609D+04 0.474266980658468D+03 0.248351791222319D+03 -.165214161765659D+04
 0.000000000000000D+00 0.000000000000000D+00 0.000000000000000D+00 0.000000000000000D+00
 0.178291773171769D+04 0.000000000000000D+00 0.000000000000000D+00 0.178291773171769D+04
 0.178291773171769D+04 -.000000000000000D+00 -.000000000000000D+00 -.178291773171769D+04
 0.117409702232742D+04 -.539461700179608D+03 -.265484185780539D+03 0.100068878227843D+04
 0.205345726471910D+03 0.174300867019905D+01 -.684475394748927D+00 0.205337188045629D+03
 0.173610317607024D+04 0.474333542982858D+03 0.248369283007122D+03 -.165147649914282D+04
 0.450289538565822D+03 0.633851485265507D+02 0.177993781681662D+02 0.445450528818762D+03
-.840112167618D-03 0.000000000000D+00 0.000000000000D+00 0.503933253449D-04 0.000000000000D+00  6 1 2 25 1 2 21 2 0.35495697D+00 0.21196306D+00 0.37041821D+06 0.37041821D+06 0.37041821D+06 0.10778414D+01  1  2 13  3  6  4        1 -.407714632887D-03 0.100000000000D+01
-.406686469967D-10 0.000000000000D+00 0.000000000000D+00 0.503933253449D-04 0.000000000000D+00  6 1 2 25 1 2 21 2 0.35495697D+00 0.21196306D+00 0.37041821D+06 0.37041821D+06 0.37041821D+06 0.10778414D+01  1  2 13  3  6  4        1 -.197368912383D-10 0.100000000000D+01
0.311357620076D-03 0.000000000000D+00 0.000000000000D+00 0.503933253449D-04 0.476826908172D-07  6 1 2 25 1 2 21 2 0.35495697D+00 0.21196306D+00 0.37041821D+06 0.37041821D+06 0.37041821D+06 0.10778414D+01  1  2  1  3  6  4        1 0.151104891298D-03 0.100000000000D+01
  </mgrwgt>
  </event>
  <event>
  5     66 -.17698235E-05 0.62040032E+02 0.75467711E-02 0.94688172E-01
        1 -1    0    0  501    0 0.00000000E+00 0.00000000E+00 0.69303748E+03 0.69303756E+03 0.32000000E+00 0.0000E+00 0.9000E+01
        2 -1    0    0  502    0 -.00000000E+00 -.00000000E+00 -.25594576E+04 0.25594577E+04 0.32000000E+00 0.0000E+00 0.9000E+01
       25  1    1    2    0    0 -.84268928E+01 -.48944286E+03 -.88865740E+03 0.10222340E+04 0.12500000E+03 0.0000E+00 0.9000E+01
        1  1    1    2  501    0 0.27568246E+01 0.61980380E+02 0.59612642E+03 0.59934629E+03 0.32000000E+00 0.0000E+00 0.9000E+01
        2  1    1    2  502    0 0.56700681E+01 0.42746248E+03 -.15738892E+04 0.16309149E+04 0.32000000E+00 0.0000E+00 0.9000E+01
#aMCatNLO 1  0  0  5  2 0.16669923D+02 0.00000000D+00  -5  6  0 0.00000000D+00 0.00000000D+00 0.00000000D+00 0.00000000D+00 0.00000000D+00
  <mgrwgt>
 -.1116108095D-01    8    2    0
 0.133184091633149D+04 0.000000000000000D+00 0.000000000000000D+00 0.133184091633149D+04
 0.133184091633149D+04 -.000000000000000D+00 -.000000000000000D+00 -.133184091633149D+04
 0.625536501169545D+03 -.842739611136566D+01 -.489479860026124D+03 -.368794468395371D+03
 0.114950396872016D+04 0.275675226614877D+01 0.619787536991373D+02 0.114782856233423D+04
 0.888641362773278D+03 0.567064384521693D+01 0.427501106326987D+03 -.779034093938855D+03
 0.000000000000000D+00 0.000000000000000D+00 0.000000000000000D+00 -.000000000000000D+00
 0.133184091633149D+04 0.000000000000000D+00 0.000000000000000D+00 0.133184091633149D+04
 0.133184091633149D+04 -.000000000000000D+00 -.000000000000000D+00 -.133184091633149D+04
 0.625607545830152D+03 -.842417440862195D+01 -.489236980817910D+03 -.369237066510575D+03
 0.114871632093360D+04 0.276267019592718D+01 0.624248973111314D+02 0.114701555605332D+04
 0.818160568252547D+03 0.771662124716213D+01 0.407954595547132D+03 -.709154579179910D+03
 0.711973976466869D+02 -.205511703446732D+01 0.188574879596469D+02 -.686239103628383D+02
0.748662281632D-04 0.000000000000D+00 0.000000000000D+00 0.682465775383D-04 0.000000000000D+00  6 1 2 25 1 2 21 0 0.10662116D+00 0.39376272D+00 0.24742548D+06 0.24742548D+06 0.24742548D+06 0.10907975D+01  1  2  2  4  6  5        2 0.101475439094D-03 0.100000000000D+01
0.305739532917D-04 0.000000000000D+00 -.287506028877D-06 0.682465775383D-04 0.000000000000D+00  6 1 2 25 1 2 21 2 0.10662116D+00 0.39376272D+00 0.24742548D+06 0.24742548D+06 0.24742548D+06 0.10907975D+01  1  2  3  4  6  5        2 0.493077093042D-04 0.100000000000D+01
-.447482185063D-04 0.000000000000D+00 0.000000000000D+00 0.682465775383D-04 0.000000000000D+00  6 1 2 25 1 2 21 2 0.10662116D+00 0.39376272D+00 0.24742548D+06 0.24742548D+06 0.24742548D+06 0.10907975D+01  1  2 15  4  6  5        2 -.721670543860D-04 0.100000000000D+01
0.389245318985D-02 0.000000000000D+00 0.000000000000D+00 0.682465775383D-04 0.000000000000D+00  6 1 2 25 1 2 21 2 0.10662116D+00 0.39376272D+00 0.24726068D+06 0.24726068D+06 0.24726068D+06 0.10908193D+01  1  2 12  4  6  5        2 0.627807471154D-02 0.100000000000D+01
0.280344335740D-09 0.000000000000D+00 0.000000000000D+00 0.682465775383D-04 0.000000000000D+00  6 1 2 25 1 2 21 2 0.10662116D+00 0.39376272D+00 0.24726068D+06 0.24726068D+06 0.24726068D+06 0.10908193D+01  1  2 12  4  6  5        2 0.452162838932D-09 0.100000000000D+01
-.112603298707D-01 0.000000000000D+00 0.000000000000D+00 0.682465775383D-04 0.000000000000D+00  6 1 2 25 1 2 21 2 0.10662116D+00 0.39376272D+00 0.24742548D+06 0.24742548D+06 0.24742548D+06 0.10907975D+01  1  2  4  4  6  5        2 -.181599372065D-01 0.100000000000D+01
-.477909546926D-02 0.000000000000D+00 0.000000000000D+00 0.682465775383D-04 0.000000000000D+00  6 1 2 25 1 2 21 2 0.10662116D+00 0.39376272D+00 0.24742548D+06 0.24742548D+06 0.24742548D+06 0.10907975D+01  1  2  5  4  6  5        2 -.770741839917D-02 0.100000000000D+01
0.517727909976D-02 0.000000000000D+00 -.000000000000D+00 0.682465775383D-04 0.000000000000D+00  6 1 2 25 1 2 21 2 0.10662116D+00 0.39376272D+00 0.24742548D+06 0.24742548D+06 0.24742548D+06 0.10907975D+01  1  2  6  4  6  5        2 0.834958339874D-02 0.100000000000D+01
  </mgrwgt>
  </event>
  <event>
  5     66 0.17698235E-05 0.42069637E+02 0.75467711E-02 0.86127431E-01
        1 -1    0    0  501    0 0.00000000E+00 0.00000000E+00 0.17915325E+04 0.17915325E+04 0.32000000E+00 0.0000E+00 0.9000E+01
        2 -1    0    0  502    0 0.00000000E+00 0.00000000E+00 -.42584676E+04 0.42584676E+04 0.32000000E+00 0.0000E+00 0.9000E+01
       25  1    1    2    0    0 -.68591764E+03 0.85354176E+03 -.19016119E+04 0.21979011E+04 0.12500000E+03 0.0000E+00 0.9000E+01
        1  1    1    2  501    0 0.72442598E+03 -.87047956E+03 0.14480378E+04 0.18382985E+04 0.32000000E+00 0.0000E+00 0.9000E+01
        2  1    1    2  502    0 -.38508341E+02 0.16937801E+02 -.20133610E+04 0.20138005E+04 0.32000000E+00 0.0000E+00 0.9000E+01
#aMCatNLO 1  0  0  2  4 0.41516185D+01 0.00000000D+00  -5  6  0 0.00000000D+00 0.00000000D+00 0.00000000D+00 0.00000000D+00 0.00000000D+00
  <mgrwgt>
 0.1382648019D-01   11    2    0
 0.276209757457077D+04 0.000000000000000D+00 0.000000000000000D+00 0.276209757457077D+04
 0.276209757457077D+04 0.000000000000000D+00 0.000000000000000D+00 -.276209757457077D+04
 0.155787277557200D+04 -.685915540848555D+03 0.853539940149049D+03 -.110105950168971D+04
 0.265991600614438D+04 0.724424701584040D+03 -.870478031017344D+03 0.240678831827689D+04
 0.130640636742515D+04 -.385091607354851D+02 0.169380908682950D+02 -.130572881658718D+04
 0.000000000000000D+00 0.000000000000000D+00 0.000000000000000D+00 -.000000000000000D+00
 0.276213267287963D+04 0.000000000000000D+00 0.000000000000000D+00 0.276213267287963D+04
 0.288765776028966D+04 0.000000000000000D+00 0.000000000000000D+00 -.288765776028966D+04
 0.155762649863017D+04 -.686566258457701D+03 0.852566745610619D+03 -.110105950168971D+04
 0.266015796975982D+04 0.723313526291287D+03 -.872139872822369D+03 0.240678831827689D+04
 0.130641224079177D+04 -.390548861323586D+02 0.161219196624533D+02 -.130572881658718D+04
 0.125593723987534D+03 0.230761829877355D+01 0.345120754929596D+01 -.125525087410030D+03
0.124569107925D-02 0.000000000000D+00 0.000000000000D+00 0.527732787981D-04 0.000000000000D+00  6 1 2 25 1 2 21 0 0.27562038D+00 0.65514886D+00 0.12957953D+07 0.12957953D+07 0.12957953D+07 0.10404539D+01  1  2  2  2  6  2        2 0.131916830138D-04 0.100000000000D+01
0.846347177938D-03 0.000000000000D+00 -.478378174233D-05 0.527732787981D-04 0.000000000000D+00  6 1 2 25 1 2 21 2 0.27562038D+00 0.65514886D+00 0.12957953D+07 0.12957953D+07 0.12957953D+07 0.10404539D+01  1  2  3  2  6  2        2 0.970251042290D-05 0.100000000000D+01
-.852484580623D-03 0.000000000000D+00 0.000000000000D+00 0.527732787981D-04 0.000000000000D+00  6 1 2 25 1 2 21 2 0.27562038D+00 0.65514886D+00 0.12957953D+07 0.12957953D+07 0.12957953D+07 0.10404539D+01  1  2 15  2  6  2        2 -.977286950848D-05 0.100000000000D+01
0.127317361014D-08 0.000000000000D+00 0.000000000000D+00 0.527732787981D-04 0.000000000000D+00  6 1 2 25 1 2 21 2 0.27562038D+00 0.68493524D+00 0.13009840D+07 0.13009840D+07 0.13009840D+07 0.10403409D+01  1  2 12  2  6  2        2 0.953237014389D-11 0.100000000000D+01
-.891509523108D+00 0.000000000000D+00 0.000000000000D+00 0.527732787981D-04 0.000000000000D+00  6 1 2 25 1 2 21 2 0.27562038D+00 0.65514886D+00 0.12957953D+07 0.12957953D+07 0.12957953D+07 0.10404539D+01  1  2  4  2  6  2        2 -.102202508209D-01 0.100000000000D+01
-.402502467039D+01 0.000000000000D+00 -.250146750365D-02 0.527732787981D-04 0.000000000000D+00  6 1 2 25 1 2 21 2 0.27562038D+00 0.68493214D+00 0.12957953D+07 0.12957953D+07 0.12957953D+07 0.10404539D+01  1  2  5  2  6  2        2 -.301604671749D-01 0.100000000000D+01
0.422597480391D+01 0.000000000000D+00 0.261605855781D-02 0.527732787981D-04 0.000000000000D+00  6 1 2 25 1 2 21 2 0.27562038D+00 0.65514886D+00 0.12957953D+07 0.12957953D+07 0.12957953D+07 0.10404539D+01  1  2  6  2  6  2        2 0.484465071199D-01 0.100000000000D+01
0.767717943657D+00 0.000000000000D+00 0.000000000000D+00 0.527732787981D-04 0.684959858676D-05  6 1 2 25 1 2 21 2 0.27562388D+00 0.68493079D+00 0.13009840D+07 0.13009840D+07 0.13009840D+07 0.10403409D+01  1  2 11  2  6  2        2 0.574815181934D-02 0.100000000000D+01
0.267191123595D-10 0.000000000000D+00 0.000000000000D+00 0.527732787981D-04 0.000000000000D+00  6 1 21 25 1 2 -2 2 0.27562038D+00 0.68493524D+00 0.13009840D+07 0.13009840D+07 0.13009840D+07 0.10403409D+01  1  2 12  6  6  2        2 0.228633343551D-14 0.100000000000D+01
-.342536734379D-01 0.000000000000D+00 -.195290482430D-04 0.527732787981D-04 0.000000000000D+00  6 1 21 25 1 2 -2 2 0.27562038D+00 0.68493214D+00 0.12957953D+07 0.12957953D+07 0.12957953D+07 0.10404539D+01  1  2  5  6  6  2        2 -.293379093561D-05 0.100000000000D+01
0.274813824734D-01 0.000000000000D+00 0.000000000000D+00 0.527732787981D-04 0.131951697670D-06  6 1 21 25 1 2 -2 2 0.27562388D+00 0.68493079D+00 0.13009840D+07 0.13009840D+07 0.13009840D+07 0.10403409D+01  1  2 11  6  6  2        2 0.235170112061D-05 0.100000000000D+01
  </mgrwgt>
  </event>
  <event>
  6     66 0.17698235E-05 0.39316168E+02 0.75467711E-02 0.92197608E-01
        1 -1    0    0  501    0 0.00000000E+00 0.00000000E+00 0.23212120E+04 0.23212120E+04 0.32000000E+00 0.0000E+00 0.9000E+01
        2 -1    0    0  502    0 0.00000000E+00 0.00000000E+00 -.22259037E+04 0.22259037E+04 0.32000000E+00 0.0000E+00 0.9000E+01
       25  1    1    2    0    0 0.46333561E+03 0.39870017E+03 -.12503612E+04 0.13973796E+04 0.12500000E+03 0.0000E+00 0.9000E+01
        1  1    1    2  503    0 -.39931066E+03 -.30026081E+03 0.16910972E+04 0.17633535E+04 0.32000000E+00 0.0000E+00 0.9000E+01
        2  1    1    2  502    0 0.39264714E+01 -.10661713E+02 -.85994820E+03 0.86002331E+03 0.32000000E+00 0.0000E+00 0.9000E+01
       21  1    1    2  501  503 -.67951426E+02 -.87777649E+02 0.51452043E+03 0.52635934E+03 0.75000000E+00 0.0000E+00 0.9000E+01
#aMCatNLO 2  0  0  4  1 0.87402790D+00 0.00000000D+00  -5  6  0 0.00000000D+00 0.00000000D+00 0.00000000D+00 0.00000000D+00 0.00000000D+00
  <mgrwgt>
 0.2534984693D-01    1    2    0
 0.227305837070161D+04 0.000000000000000D+00 0.000000000000000D+00 0.227305837070161D+04
 0.227305837070161D+04 -.000000000000000D+00 -.000000000000000D+00 -.227305837070161D+04
 0.142444140543704D+04 0.463467394049521D+03 0.398810821105832D+03 -.128045156923067D+04
 0.224296708156147D+04 -.467475963425093D+03 -.388216070613416D+03 0.215908680582918D+04
 0.878708254404704D+03 0.400856937557258D+01 -.105947504924161D+02 -.878635236598514D+03
 0.000000000000000D+00 0.000000000000000D+00 0.000000000000000D+00 0.000000000000000D+00
 0.227305837070161D+04 0.000000000000000D+00 0.000000000000000D+00 0.227305837070161D+04
 0.227305837070161D+04 -.000000000000000D+00 -.000000000000000D+00 -.227305837070161D+04
 0.142381559794624D+04 0.463334514045816D+03 0.398700470720064D+03 -.127983784898577D+04
 0.172820714444068D+04 -.399301538599576D+03 -.300247110130733D+03 0.165442131521144D+04
 0.878330146404866D+03 0.392659809667100D+01 -.106628236561466D+02 -.878256643642768D+03
 0.515763852611433D+03 -.679595735429112D+02 -.877905369331843D+02 0.503673177417099D+03
0.157907417928D+00 0.000000000000D+00 0.000000000000D+00 0.526179302840D-03 0.196523271903D-05  6 1 2 25 1 2 21 2 0.35710954D+00 0.34244672D+00 0.38805773D+06 0.38805773D+06 0.38805773D+06 0.10763779D+01  1  2  1  3  6  4        1 0.253498469283D-01 0.100000000000D+01
  </mgrwgt>
  </event>
  <event>
  5     66 0.17698235E-05 0.23247724E+03 0.75467711E-02 0.94101004E-01
        1 -1    0    0  501    0 0.00000000E+00 0.00000000E+00 0.54315376E+03 0.54315386E+03 0.32000000E+00 0.0000E+00 0.9000E+01
        2 -1    0    0  502    0 0.00000000E+00 0.00000000E+00 -.18575478E+04 0.18575478E+04 0.32000000E+00 0.0000E+00 0.9000E+01
       25  1    1    2    0    0 0.52964450E+02 -.46532124E+03 -.92756565E+03 0.10465812E+04 0.12500000E+03 0.0000E+00 0.9000E+01
        1  1    1    2  501    0 0.10873943E+03 0.20548710E+03 0.42615252E+03 0.48544338E+03 0.32000000E+00 0.0000E+00 0.9000E+01
        2  1    1    2  502    0 -.16170388E+03 0.25983414E+03 -.81298088E+03 0.86867712E+03 0.32000000E+00 0.0000E+00 0.9000E+01
#aMCatNLO 1  0  0  1  4 0.22303961D+02 0.00000000D+00  -5  6  0 0.00000000D+00 0.00000000D+00 0.00000000D+00 0.00000000D+00 0.00000000D+00
  <mgrwgt>
 0.1002645803D-02   11    2    0
 0.100445717339159D+04 0.000000000000000D+00 0.000000000000000D+00 0.100445717339159D+04
 0.100445717339159D+04 0.000000000000000D+00 0.000000000000000D+00 -.100445717339159D+04
 0.643793881084088D+03 0.529800515808447D+02 -.465349626371471D+03 -.423660714123620D+03
 0.858911870496875D+03 0.108735865692642D+03 0.205480360809104D+03 0.826851821135004D+03
 0.506208595202209D+03 -.161715917273487D+03 0.259869265562367D+03 -.403191107011383D+03
 0.000000000000000D+00 0.000000000000000D+00 -.000000000000000D+00 0.000000000000000D+00
 0.118006356170262D+04 0.000000000000000D+00 0.000000000000000D+00 0.118006356170262D+04
 0.100522754127251D+04 0.000000000000000D+00 0.000000000000000D+00 -.100522754127251D+04
 0.640398953763764D+03 0.471294710879356D+02 -.461276741495775D+03 -.423660714123620D+03
 0.859277432025721D+03 0.100908065580632D+03 0.210929688226242D+03 0.826851821135004D+03
 0.509361771978004D+03 -.166342696070384D+03 0.263090200204308D+03 -.403191107011383D+03
 0.176252945207632D+03 0.183051594018157D+02 -.127431469347761D+02 0.174836020430109D+03
0.492116005142D-05 0.000000000000D+00 0.000000000000D+00 0.906943840706D-06 0.000000000000D+00  6 1 2 25 1 2 21 0 0.83562127D-01 0.28577659D+00 0.26178847D+06 0.26178847D+06 0.26178847D+06 0.10889569D+01  1  2  2  1  6  1        1 0.234383349051D-04 0.100000000000D+01
0.369515237745D-06 0.000000000000D+00 -.188985503686D-07 0.906943840706D-06 0.000000000000D+00  6 1 2 25 1 2 21 2 0.83562127D-01 0.28577659D+00 0.26178847D+06 0.26178847D+06 0.26178847D+06 0.10889569D+01  1  2  3  1  6  1        1 0.208695463518D-05 0.100000000000D+01
-.305095888147D-05 0.000000000000D+00 0.000000000000D+00 0.906943840706D-06 0.000000000000D+00  6 1 2 25 1 2 21 2 0.83562127D-01 0.28577659D+00 0.26178847D+06 0.26178847D+06 0.26178847D+06 0.10889569D+01  1  2 15  1  6  1        1 -.172312590363D-04 0.100000000000D+01
0.777049430254D-03 0.000000000000D+00 0.000000000000D+00 0.906943840706D-06 0.000000000000D+00  6 1 2 25 1 2 21 2 0.10028845D+00 0.28577659D+00 0.27437982D+06 0.27437982D+06 0.27437982D+06 0.10874319D+01  1  2 12  1  6  1        1 0.334706128247D-02 0.100000000000D+01
0.189962540147D-07 0.000000000000D+00 0.000000000000D+00 0.906943840706D-06 0.000000000000D+00  6 1 2 25 1 2 21 2 0.98241426D-01 0.28577659D+00 0.27437982D+06 0.27437982D+06 0.27437982D+06 0.10874319D+01  1  2 12  1  6  1        1 0.843701589860D-07 0.100000000000D+01
-.592509162078D-03 0.000000000000D+00 0.000000000000D+00 0.906943840706D-06 0.000000000000D+00  6 1 2 25 1 2 21 2 0.83562127D-01 0.28577659D+00 0.26178847D+06 0.26178847D+06 0.26178847D+06 0.10889569D+01  1  2  4  1  6  1        1 -.334638362881D-02 0.100000000000D+01
-.914904955256D-03 0.000000000000D+00 -.850081472593D-05 0.906943840706D-06 0.000000000000D+00  6 1 2 25 1 2 21 2 0.98202786D-01 0.28577659D+00 0.26178847D+06 0.26178847D+06 0.26178847D+06 0.10889569D+01  1  2  5  1  6  1        1 -.408902674829D-02 0.100000000000D+01
0.904572832034D-03 0.000000000000D+00 0.839122163924D-05 0.906943840706D-06 0.000000000000D+00  6 1 2 25 1 2 21 2 0.83562127D-01 0.28577659D+00 0.26178847D+06 0.26178847D+06 0.26178847D+06 0.10889569D+01  1  2  6  1  6  1        1 0.510886229264D-02 0.100000000000D+01
0.207123712774D-04 0.000000000000D+00 0.000000000000D+00 0.906943840706D-06 0.000000000000D+00  6 21 2 25 1 2 -1 2 0.10028845D+00 0.28577659D+00 0.27437982D+06 0.27437982D+06 0.27437982D+06 0.10874319D+01  1  2 12  5  6  1        1 0.196589325708D-03 0.100000000000D+01
0.460608076848D-09 0.000000000000D+00 0.000000000000D+00 0.906943840706D-06 0.000000000000D+00  6 21 2 25 1 2 -1 2 0.98241426D-01 0.28577659D+00 0.27437982D+06 0.27437982D+06 0.27437982D+06 0.10874319D+01  1  2 12  5  6  1        1 0.461117098938D-08 0.100000000000D+01
-.220736277840D-04 0.000000000000D+00 -.205721727119D-06 0.906943840706D-06 0.000000000000D+00  6 21 2 25 1 2 -1 2 0.98202786D-01 0.28577659D+00 0.26178847D+06 0.26178847D+06 0.26178847D+06 0.10889569D+01  1  2  5  5  6  1        1 -.222839732062D-03 0.100000000000D+01
  </mgrwgt>
  </event>
  <event>
  5     66 0.17698235E-05 0.64056556E+02 0.75467711E-02 0.86632501E-01
        1 -1    0    0  501    0 0.00000000E+00 0.00000000E+00 0.22791916E+04 0.22791916E+04 0.32000000E+00 0.0000E+00 0.9000E+01
        2 -1    0    0  502    0 0.00000000E+00 0.00000000E+00 -.14208285E+04 0.14208285E+04 0.32000000E+00 0.0000E+00 0.9000E+01
       25  1    1    2    0    0 0.96456895E+03 -.30925433E+03 -.18494171E+02 0.10207833E+04 0.12500000E+03 0.0000E+00 0.9000E+01
        1  1    1    2  501    0 0.63369032E+02 0.94006923E+01 0.14590250E+04 0.14604308E+04 0.32000000E+00 0.0000E+00 0.9000E+01
        2  1    1    2  502    0 -.10279380E+04 0.29985364E+03 -.58216773E+03 0.12188060E+04 0.32000000E+00 0.0000E+00 0.9000E+01
#aMCatNLO 1  0  0  1  4 0.59098748D+01 0.00000000D+00  -5  6  0 0.00000000D+00 0.00000000D+00 0.00000000D+00 0.00000000D+00 0.00000000D+00
  <mgrwgt>
 0.6633383630D-02   13    2    0
 0.179953892925805D+04 0.000000000000000D+00 0.000000000000000D+00 0.179953892925805D+04
 0.179953892925805D+04 0.000000000000000D+00 0.000000000000000D+00 -.179953892925805D+04
 0.105389677922633D+04 0.964656632860770D+03 -.309279225074678D+03 -.262406865151362D+03
 0.115331292472344D+04 0.633631268110541D+02 0.939981625344049D+01 0.115153265691828D+04
 0.139186815456631D+04 -.102801975967182D+04 0.299879408821238D+03 -.889125791766917D+03
 0.000000000000000D+00 -.000000000000000D+00 -.000000000000000D+00 0.000000000000000D+00
 0.268316423299081D+04 0.000000000000000D+00 0.000000000000000D+00 0.268316423299081D+04
 0.179955123699117D+04 0.000000000000000D+00 0.000000000000000D+00 -.179955123699117D+04
 0.105359351300024D+04 0.964874159978135D+03 -.307562649169409D+03 -.262406865151362D+03
 0.115334287232662D+04 0.636012110329059D+02 0.112786148308622D+02 0.115153265691828D+04
 0.139214632534837D+04 -.102773240430570D+04 0.302147021722596D+03 -.889125791766917D+03
 0.883632759306747D+03 -.742966705336689D+00 -.586298738404974D+01 0.883612995999642D+03
0.112446103126D-04 0.000000000000D+00 0.000000000000D+00 0.362478969055D-05 0.000000000000D+00  6 1 2 25 1 2 21 0 0.35064486D+00 0.21858900D+00 0.11616829D+07 0.11616829D+07 0.11616829D+07 0.10435586D+01  1  2  2  1  6  1        1 0.420514409495D-05 0.100000000000D+01
0.662057242575D-05 0.000000000000D+00 -.431822643741D-07 0.362478969055D-05 0.000000000000D+00  6 1 2 25 1 2 21 2 0.35064486D+00 0.21858900D+00 0.11616829D+07 0.11616829D+07 0.11616829D+07 0.10435586D+01  1  2  3  1  6  1        1 0.269628428051D-05 0.100000000000D+01
-.761648811803D-05 0.000000000000D+00 0.000000000000D+00 0.362478969055D-05 0.000000000000D+00  6 1 2 25 1 2 21 2 0.35064486D+00 0.21858900D+00 0.11616829D+07 0.11616829D+07 0.11616829D+07 0.10435586D+01  1  2 15  1  6  1        1 -.310187939421D-05 0.100000000000D+01
0.151076850717D+00 0.000000000000D+00 0.000000000000D+00 0.362478969055D-05 0.000000000000D+00  6 1 2 25 1 2 21 2 0.52570693D+00 0.21858900D+00 0.11686941D+07 0.11686941D+07 0.11686941D+07 0.10433869D+01  1  2 12  1  6  1        1 0.877958205538D-02 0.100000000000D+01
0.780083764369D-07 0.000000000000D+00 0.000000000000D+00 0.362478969055D-05 0.000000000000D+00  6 1 2 25 1 2 21 2 0.52282312D+00 0.21858900D+00 0.11686941D+07 0.11686941D+07 0.11686941D+07 0.10433869D+01  1  2 12  1  6  1        1 0.469594112765D-08 0.100000000000D+01
-.166634493422D+00 0.000000000000D+00 0.000000000000D+00 0.362478969055D-05 0.000000000000D+00  6 1 2 25 1 2 21 2 0.35064486D+00 0.21858900D+00 0.11616829D+07 0.11616829D+07 0.11616829D+07 0.10435586D+01  1  2  4  1  6  1        1 -.678633109514D-01 0.100000000000D+01
-.199340278333D+00 0.000000000000D+00 -.664757290163D-05 0.362478969055D-05 0.000000000000D+00  6 1 2 25 1 2 21 2 0.52282225D+00 0.21858900D+00 0.11616829D+07 0.11616829D+07 0.11616829D+07 0.10435586D+01  1  2  5  1  6  1        1 -.120115752948D-01 0.100000000000D+01
0.184431440065D+00 0.000000000000D+00 0.615029768691D-05 0.362478969055D-05 0.000000000000D+00  6 1 2 25 1 2 21 2 0.35064486D+00 0.21858900D+00 0.11616829D+07 0.11616829D+07 0.11616829D+07 0.10435586D+01  1  2  6  1  6  1        1 0.751112684373D-01 0.100000000000D+01
0.434772257007D-01 0.000000000000D+00 0.000000000000D+00 0.362478969055D-05 0.579886245594D-06  6 1 2 25 1 2 21 2 0.52282156D+00 0.21859049D+00 0.11686941D+07 0.11686941D+07 0.11686941D+07 0.10433869D+01  1  2 11  1  6  1        1 0.261725456272D-02 0.100000000000D+01
0.718427207054D-02 0.000000000000D+00 0.000000000000D+00 0.362478969055D-05 0.000000000000D+00  6 21 2 25 1 2 -1 2 0.52570693D+00 0.21858900D+00 0.11686941D+07 0.11686941D+07 0.11686941D+07 0.10433869D+01  1  2 12  5  6  1        1 0.574040787639D-04 0.100000000000D+01
0.370959149229D-08 0.000000000000D+00 0.000000000000D+00 0.362478969055D-05 0.000000000000D+00  6 21 2 25 1 2 -1 2 0.52282312D+00 0.21858900D+00 0.11686941D+07 0.11686941D+07 0.11686941D+07 0.10433869D+01  1  2 12  5  6  1        1 0.313124295523D-10 0.100000000000D+01
-.947905668964D-02 0.000000000000D+00 -.316113865665D-06 0.362478969055D-05 0.000000000000D+00  6 21 2 25 1 2 -1 2 0.52282225D+00 0.21858900D+00 0.11616829D+07 0.11616829D+07 0.11616829D+07 0.10435586D+01  1  2  5  5  6  1        1 -.801088080321D-04 0.100000000000D+01
0.225862964170D-02 0.000000000000D+00 0.000000000000D+00 0.362478969055D-05 0.299990900318D-07  6 21 2 25 1 2 -1 2 0.52282156D+00 0.21859049D+00 0.11686941D+07 0.11686941D+07 0.11686941D+07 0.10433869D+01  1  2 11  5  6  1        1 0.190652734826D-04 0.100000000000D+01
  </mgrwgt>
  </event>
  <event>
  5     66 0.17698235E-05 0.22422553E+03 0.75467711E-02 0.92645109E-01
        1 -1    0    0  501    0 0.00000000E+00 0.00000000E+00 0.41204156E+03 0.41204168E+03 0.32000000E+00 0.0000E+00 0.9000E+01
        2 -1    0    0  502    0 0.00000000E+00 0.00000000E+00 -.15579608E+04 0.15579608E+04 0.32000000E+00 0.0000E+00 0.9000E+01
       25  1    1    2    0    0 -.50803663E+03 0.14584479E+03 -.45794216E+02 0.54506333E+03 0.12500000E+03 0.0000E+00 0.9000E+01
        1  1    1    2  501    0 0.30878761E+03 -.43110030E+02 -.99367088E+01 0.31194086E+03 0.32000000E+00 0.0000E+00 0.9000E+01
        2  1    1    2  502    0 0.19924902E+03 -.10273476E+03 -.10901883E+04 0.11129983E+04 0.32000000E+00 0.0000E+00 0.9000E+01
#aMCatNLO 1  0  0  1  5 0.12126732D+03 0.00000000D+00  -5  6  0 0.00000000D+00 0.00000000D+00 0.00000000D+00 0.00000000D+00 0.00000000D+00
  <mgrwgt>
 0.2666501302D-02    9    2    0
 0.801214539698808D+03 0.000000000000000D+00 0.000000000000000D+00 0.801214539698808D+03
 0.801214539698808D+03 0.000000000000000D+00 0.000000000000000D+00 -.801214539698808D+03
 0.637382121769366D+03 -.507953743015868D+03 0.145847384110456D+03 0.333680243130345D+03
 0.376232561355819D+03 0.308658901564263D+03 -.430920606707199D+02 0.210769298088346D+03
 0.588814396272431D+03 0.199294841451604D+03 -.102755323439736D+03 -.544449541218690D+03
 0.000000000000000D+00 0.000000000000000D+00 -.000000000000000D+00 0.000000000000000D+00
 0.879874350750033D+03 0.000000000000000D+00 0.000000000000000D+00 0.879874350750033D+03
 0.851646174684817D+03 0.000000000000000D+00 0.000000000000000D+00 -.851646174684817D+03
 0.651308265866358D+03 -.509309816859753D+03 0.194521111914880D+03 0.333680243130345D+03
 0.373398026013495D+03 0.307870074052347D+03 -.147785762887761D+02 0.210769298088346D+03
 0.582304821424646D+03 0.198062486376694D+03 -.585222488582626D+02 -.544449541218690D+03
 0.124509412130350D+03 0.337725643071177D+01 -.121220286767842D+03 0.282281760652165D+02
0.184029385716D-03 0.000000000000D+00 0.000000000000D+00 0.113001005947D-06 0.000000000000D+00  6 1 2 25 1 2 21 0 0.63391021D-01 0.23968628D+00 0.29102644D+06 0.29102644D+06 0.29102644D+06 0.10855290D+01  1  2  2  1  6  1        1 0.186249440428D-02 0.100000000000D+01
0.127722265794D-04 0.000000000000D+00 -.706721297200D-06 0.113001005947D-06 0.000000000000D+00  6 1 2 25 1 2 21 2 0.63391021D-01 0.23968628D+00 0.29102644D+06 0.29102644D+06 0.29102644D+06 0.10855290D+01  1  2  3  1  6  1        1 0.152320115519D-03 0.100000000000D+01
-.107948267165D-03 0.000000000000D+00 0.000000000000D+00 0.113001005947D-06 0.000000000000D+00  6 1 2 25 1 2 21 2 0.63391021D-01 0.23968628D+00 0.29102644D+06 0.29102644D+06 0.29102644D+06 0.10855290D+01  1  2 15  1  6  1        1 -.128737870586D-02 0.100000000000D+01
0.235502014472D-06 0.000000000000D+00 0.000000000000D+00 0.113001005947D-06 0.000000000000D+00  6 1 2 25 1 2 21 2 0.72256918D-01 0.23968628D+00 0.35722033D+06 0.35722033D+06 0.35722033D+06 0.10789869D+01  1  2 12  1  6  1        1 0.229525762128D-05 0.100000000000D+01
-.459753470027D-04 0.000000000000D+00 0.000000000000D+00 0.113001005947D-06 0.000000000000D+00  6 1 2 25 1 2 21 2 0.63391021D-01 0.23968628D+00 0.29102644D+06 0.29102644D+06 0.29102644D+06 0.10855290D+01  1  2  4  1  6  1        1 -.548296737688D-03 0.100000000000D+01
-.123255533047D-02 0.000000000000D+00 -.346286967489D-03 0.113001005947D-06 0.000000000000D+00  6 1 2 25 1 2 21 2 0.73679218D-01 0.23968628D+00 0.29102644D+06 0.29102644D+06 0.29102644D+06 0.10855290D+01  1  2  5  1  6  1        1 -.119518776413D-01 0.100000000000D+01
0.127407942437D-02 0.000000000000D+00 0.342407085717D-03 0.113001005947D-06 0.000000000000D+00  6 1 2 25 1 2 21 2 0.63391021D-01 0.23968628D+00 0.29102644D+06 0.29102644D+06 0.29102644D+06 0.10855290D+01  1  2  6  1  6  1        1 0.151945257074D-01 0.100000000000D+01
0.480496379076D-08 0.000000000000D+00 0.000000000000D+00 0.113001005947D-06 0.000000000000D+00  6 21 2 25 1 2 -1 2 0.72256918D-01 0.23968628D+00 0.35722033D+06 0.35722033D+06 0.35722033D+06 0.10789869D+01  1  2 12  5  6  1        1 0.143826031453D-06 0.100000000000D+01
-.257613275060D-04 0.000000000000D+00 -.791612132540D-05 0.113001005947D-06 0.000000000000D+00  6 21 2 25 1 2 -1 2 0.73679218D-01 0.23968628D+00 0.29102644D+06 0.29102644D+06 0.29102644D+06 0.10855290D+01  1  2  5  5  6  1        1 -.757724923695D-03 0.100000000000D+01
  </mgrwgt>
  </event>
  <event>
  5     66 0.17698235E-05 0.77442865E+02 0.75467711E-02 0.90482277E-01
        1 -1    0    0  501    0 0.00000000E+00 0.00000000E+00 0.21844679E+04 0.21844680E+04 0.32000000E+00 0.0000E+00 0.9000E+01
        2 -1    0    0  502    0 -.00000000E+00 -.00000000E+00 -.24700246E+04 0.24700246E+04 0.32000000E+00 0.0000E+00 0.9000E+01
       25  1    1    2    0    0 -.40195181E+03 -.37391439E+03 0.91905986E+03 0.10778095E+04 0.12500000E+03 0.0000E+00 0.9000E+01
        1  1    1    2  501    0 0.43912938E+03 0.44184405E+03 0.11035411E+04 0.12672268E+04 0.32000000E+00 0.0000E+00 0.9000E+01
        2  1    1    2  502    0 -.37177572E+02 -.67929657E+02 -.23081576E+04 0.23094562E+04 0.32000000E+00 0.0000E+00 0.9000E+01
#aMCatNLO 1  0  0  5  2 0.15277753D+02 0.00000000D+00  -5  6  0 0.00000000D+00 0.00000000D+00 0.00000000D+00 0.00000000D+00 0.00000000D+00
  <mgrwgt>
 0.4040503248D-02    4    2    0
 0.232286235829203D+04 0.000000000000000D+00 0.000000000000000D+00 0.232286235829203D+04
 0.232286235829203D+04 -.000000000000000D+00 -.000000000000000D+00 -.232286235829203D+04
 0.113643249279315D+04 -.401906490706129D+03 -.373866767007507D+03 0.987192293290269D+03
 0.133731862036340D+04 0.439086484620837D+03 0.441800892035630D+03 0.118340023795438D+04
 0.217197360342751D+04 -.371799939147114D+02 -.679341250281307D+02 -.217059253124465D+04
 0.000000000000000D+00 0.000000000000000D+00 0.000000000000000D+00 0.000000000000000D+00
 0.232286235829203D+04 0.000000000000000D+00 0.000000000000000D+00 0.232286235829203D+04
 0.232286235829203D+04 -.000000000000000D+00 -.000000000000000D+00 -.232286235829203D+04
 0.111203103468749D+04 -.402398934682902D+03 -.374766545279772D+03 0.958443089605880D+03
 0.130694326467557D+04 0.438507355441119D+03 0.440742725264741D+03 0.114959029503170D+04
 0.211968903151820D+04 -.211973118776652D+02 -.171895647082455D+03 -.211260127587338D+04
 0.107061385702800D+03 -.149111088805558D+02 0.105919467097479D+03 0.456789123579999D+01
0.416123042775D-01 0.000000000000D+00 0.000000000000D+00 0.783469124305D-04 0.000000000000D+00  6 1 2 25 1 2 21 0 0.33607199D+00 0.38000378D+00 0.39897717D+06 0.39897717D+06 0.39897717D+06 0.10755078D+01  1  2  2  4  6  5        2 0.516703844213D-02 0.100000000000D+01
0.174670173232D-01 0.000000000000D+00 -.159802205197D-03 0.783469124305D-04 0.000000000000D+00  6 1 2 25 1 2 21 2 0.33607199D+00 0.38000378D+00 0.39897717D+06 0.39897717D+06 0.39897717D+06 0.10755078D+01  1  2  3  4  6  5        2 0.250879860558D-02 0.100000000000D+01
-.228358969892D-01 0.000000000000D+00 0.000000000000D+00 0.783469124305D-04 0.000000000000D+00  6 1 2 25 1 2 21 2 0.33607199D+00 0.38000378D+00 0.39897717D+06 0.39897717D+06 0.39897717D+06 0.10755078D+01  1  2 15  4  6  5        2 -.327993414466D-02 0.100000000000D+01
-.247440026320D-02 0.000000000000D+00 0.000000000000D+00 0.783469124305D-04 0.000000000000D+00  6 1 2 25 1 2 21 2 0.33607199D+00 0.38000378D+00 0.39897717D+06 0.39897717D+06 0.39897717D+06 0.10755078D+01  1  2  4  4  6  5        2 -.355399654967D-03 0.100000000000D+01
  </mgrwgt>
  </event>
  <event>
  5     66 0.17698235E-05 0.25233057E+03 0.75467711E-02 0.92509089E-01
        1 -1    0    0  501    0 0.00000000E+00 0.00000000E+00 0.37062808E+03 0.37062822E+03 0.32000000E+00 0.0000E+00 0.9000E+01
        2 -1    0    0  502    0 0.00000000E+00 0.00000000E+00 -.27646184E+04 0.27646184E+04 0.32000000E+00 0.0000E+00 0.9000E+01
       25  1    1    2    0    0 -.34440654E+03 0.38897303E+03 -.56404559E+03 0.77697381E+03 0.12500000E+03 0.0000E+00 0.9000E+01
        1  1    1    2  501    0 0.23139323E+03 -.10070841E+03 0.18927482E+03 0.31545217E+03 0.32000000E+00 0.0000E+00 0.9000E+01
        2  1    1    2  502    0 0.11301330E+03 -.28826462E+03 -.20192196E+04 0.20428207E+04 0.32000000E+00 0.0000E+00 0.9000E+01
#aMCatNLO 1  0  0  2  5 0.84851424D+02 0.00000000D+00  -5  6  0 0.00000000D+00 0.00000000D+00 0.00000000D+00 0.00000000D+00 0.00000000D+00
  <mgrwgt>
 0.1136674998D-02    4    2    0
 0.101224772337092D+04 0.000000000000000D+00 0.000000000000000D+00 0.101224772337092D+04
 0.101224772337092D+04 0.000000000000000D+00 0.000000000000000D+00 -.101224772337092D+04
 0.536302777489315D+03 -.344401731163998D+03 0.389003667957700D+03 0.453791034447593D+02
 0.712266591015417D+03 0.231367263625032D+03 -.100697106957199D+03 0.666072802815006D+03
 0.775926078237101D+03 0.113034467538966D+03 -.288306561000501D+03 -.711451906259766D+03
 0.000000000000000D+00 -.000000000000000D+00 0.000000000000000D+00 0.000000000000000D+00
 0.118084241974123D+04 0.000000000000000D+00 0.000000000000000D+00 0.118084241974123D+04
 0.102386913122247D+04 0.000000000000000D+00 0.000000000000000D+00 -.102386913122247D+04
 0.520907671605503D+03 -.322349244390546D+03 0.386977394622555D+03 0.453791034447593D+02
 0.722934558555923D+03 0.261304306335180D+03 -.103447845774088D+03 0.666072802815006D+03
 0.782430598957046D+03 0.145540427011433D+03 -.291293342472768D+03 -.711451906259766D+03
 0.178438721845226D+03 -.844954889560673D+02 0.776379362430147D+01 0.156973288518755D+03
0.148479267036D-02 0.000000000000D+00 0.000000000000D+00 0.150118233068D-05 0.000000000000D+00  6 1 2 25 1 2 21 0 0.57019716D-01 0.42532592D+00 0.30051402D+06 0.30051402D+06 0.30051402D+06 0.10844969D+01  1  2  2  2  6  2        2 0.362981814480D-02 0.100000000000D+01
0.134786650701D-03 0.000000000000D+00 -.570199480907D-05 0.150118233068D-05 0.000000000000D+00  6 1 2 25 1 2 21 2 0.57019716D-01 0.42532592D+00 0.30051402D+06 0.30051402D+06 0.30051402D+06 0.10844969D+01  1  2  3  2  6  2        2 0.387545354009D-03 0.100000000000D+01
-.958082954248D-03 0.000000000000D+00 0.000000000000D+00 0.150118233068D-05 0.000000000000D+00  6 1 2 25 1 2 21 2 0.57019716D-01 0.42532592D+00 0.30051402D+06 0.30051402D+06 0.30051402D+06 0.10844969D+01  1  2 15  2  6  2        2 -.275472827423D-02 0.100000000000D+01
-.438084392649D-04 0.000000000000D+00 0.000000000000D+00 0.150118233068D-05 0.000000000000D+00  6 1 2 25 1 2 21 2 0.57019716D-01 0.42532592D+00 0.30051402D+06 0.30051402D+06 0.30051402D+06 0.10844969D+01  1  2  4  2  6  2        2 -.125960226886D-03 0.100000000000D+01
  </mgrwgt>
  </event>
  <event>
  6     66 0.17698235E-05 0.44152239E+02 0.75467711E-02 0.91770688E-01
        1 -1    0    0  501    0 0.00000000E+00 0.00000000E+00 0.57020060E+03 0.57020069E+03 0.32000000E+00 0.0000E+00 0.9000E+01
        2 -1    0    0  503    0 0.00000000E+00 0.00000000E+00 -.20156865E+04 0.20156866E+04 0.32000000E+00 0.0000E+00 0.9000E+01
       25  1    1    2    0    0 -.79423789E+02 0.59387091E+03 -.16944982E+03 0.63508192E+03 0.12500000E+03 0.0000E+00 0.9000E+01
        1  1    1    2  501    0 -.40763002E+02 -.16536988E+02 0.26360316E+03 0.26724861E+03 0.32000000E+00 0.0000E+00 0.9000E+01
        2  1    1    2  502    0 0.54292494E+02 -.57164761E+03 -.11188285E+04 0.12575794E+04 0.32000000E+00 0.0000E+00 0.9000E+01
       21  1    1    2  503  502 0.65894297E+02 -.56863175E+01 -.42081075E+03 0.42597728E+03 0.75000000E+00 0.0000E+00 0.9000E+01
#aMCatNLO 2  0  0  2  2 0.12596990D+01 0.00000000D+00  -5  6  0 0.00000000D+00 0.00000000D+00 0.00000000D+00 0.00000000D+00 0.00000000D+00
  <mgrwgt>
 0.3870046676D-02    1    2    0
 0.950115446489771D+03 0.000000000000000D+00 0.000000000000000D+00 0.950115446489771D+03
 0.950115446489771D+03 0.000000000000000D+00 0.000000000000000D+00 -.950115446489771D+03
 0.626080779471458D+03 -.576712091233966D+02 0.592080079418221D+03 0.149891139224259D+03
 0.444390687819546D+03 -.253239286960029D+02 -.178620927918959D+02 0.443308840084678D+03
 0.829759425688540D+03 0.829951378193995D+02 -.574217986626325D+03 -.593199979308937D+03
 0.000000000000000D+00 0.000000000000000D+00 -.000000000000000D+00 -.000000000000000D+00
 0.955016892932416D+03 0.000000000000000D+00 0.000000000000000D+00 0.955016892932416D+03
 0.120348081121117D+04 0.000000000000000D+00 0.000000000000000D+00 -.120348081121117D+04
 0.630231522419905D+03 -.794471835827434D+02 0.593959226929370D+03 0.149891139224259D+03
 0.445484491183118D+03 -.407483571130418D+02 -.165310489699587D+02 0.443308840084678D+03
 0.825665547049892D+03 0.543012438955349D+02 -.571741860496913D+03 -.593199979308937D+03
 0.257116143490670D+03 0.658942968002504D+02 -.568631746249851D+01 -.248463918278753D+03
0.948760480819D-03 0.000000000000D+00 0.000000000000D+00 0.747575538282D-05 0.749707045606D-08  6 1 2 25 1 2 21 2 0.87723127D-01 0.31010545D+00 0.42027680D+06 0.42027680D+06 0.42027680D+06 0.10738829D+01  1  2  1  2  6  2        2 0.387004667627D-02 0.100000000000D+01
  </mgrwgt>
  </event>
  <event>
  5     66 0.17698235E-05 0.60022035E+02 0.75467711E-02 0.95296986E-01
        1 -1    0    0  501    0 0.00000000E+00 0.00000000E+00 0.71724387E+03 0.71724394E+03 0.32000000E+00 0.0000E+00 0.9000E+01
        2 -1    0    0  502    0 0.00000000E+00 0.00000000E+00 -.28987090E+04 0.28987090E+04 0.32000000E+00 0.0000E+00 0.9000E+01
       25  1    1    2    0    0 0.19347635E+03 0.42046347E+03 -.59216650E+02 0.48306753E+03 0.12500000E+03 0.0000E+00 0.9000E+01
        1  1    1    2  501    0 -.16089452E+03 -.37006166E+03 0.42434902E+03 0.58558080E+03 0.32000000E+00 0.0000E+00 0.9000E+01
        2  1    1    2  502    0 -.32581832E+02 -.50401811E+02 -.25465975E+04 0.25473046E+04 0.32000000E+00 0.0000E+00 0.9000E+01
#aMCatNLO 1  0  0  2  4 0.11526822D+03 0.00000000D+00  -5  6  0 0.00000000D+00 0.00000000D+00 0.00000000D+00 0.00000000D+00 0.00000000D+00
  <mgrwgt>
 0.4547711304D-02    7    2    0
 0.144190200840688D+04 0.000000000000000D+00 0.000000000000000D+00 0.144190200840688D+04
 0.144190200840688D+04 0.000000000000000D+00 0.000000000000000D+00 -.144190200840688D+04
 0.560952530177598D+03 0.193468157976217D+03 0.420442204970956D+03 0.291275068004626D+03
 0.105517513156644D+04 -.160883058975631D+03 -.370035300658780D+03 0.974979525875938D+03
 0.126767635506972D+04 -.325850990005861D+02 -.504069043121759D+02 -.126625459388056D+04
 0.000000000000000D+00 0.000000000000000D+00 0.000000000000000D+00 -.000000000000000D+00
 0.147237833812057D+04 0.000000000000000D+00 0.000000000000000D+00 0.147237833812057D+04
 0.148238627850888D+04 0.000000000000000D+00 0.000000000000000D+00 -.148238627850888D+04
 0.549990212325772D+03 0.188505000024723D+03 0.408030554467098D+03 0.291275068004626D+03
 0.106518780692934D+04 -.170355820960227D+03 -.393724373665946D+03 0.974979525875938D+03
 0.126946113140105D+04 -.439198092500420D+02 -.787522569190559D+02 -.126625459388056D+04
 0.701254659732884D+02 0.257706301855467D+02 0.644460761179040D+02 -.100079403883094D+02
0.134327196436D-02 0.000000000000D+00 0.000000000000D+00 0.179406183174D-03 0.000000000000D+00  6 1 2 25 1 2 21 0 0.11034522D+00 0.44595523D+00 0.22227496D+06 0.22227496D+06 0.22227496D+06 0.10943204D+01  1  2  2  2  6  2        2 0.109155428098D-02 0.100000000000D+01
0.556150477262D-03 0.000000000000D+00 -.515851803476D-05 0.179406183174D-03 0.000000000000D+00  6 1 2 25 1 2 21 2 0.11034522D+00 0.44595523D+00 0.22227496D+06 0.22227496D+06 0.22227496D+06 0.10943204D+01  1  2  3  2  6  2        2 0.541206158547D-03 0.100000000000D+01
-.866069364207D-03 0.000000000000D+00 0.000000000000D+00 0.179406183174D-03 0.000000000000D+00  6 1 2 25 1 2 21 2 0.11034522D+00 0.44595523D+00 0.22227496D+06 0.22227496D+06 0.22227496D+06 0.10943204D+01  1  2 15  2  6  2        2 -.842797215505D-03 0.100000000000D+01
-.323625799188D-04 0.000000000000D+00 0.000000000000D+00 0.179406183174D-03 0.000000000000D+00  6 1 2 25 1 2 21 2 0.11034522D+00 0.44595523D+00 0.22227496D+06 0.22227496D+06 0.22227496D+06 0.10943204D+01  1  2  4  2  6  2        2 -.314929650781D-04 0.100000000000D+01
-.270105937763D-01 0.000000000000D+00 -.547263180506D-02 0.179406183174D-03 0.000000000000D+00  6 1 2 25 1 2 21 2 0.11034522D+00 0.46185282D+00 0.22227496D+06 0.22227496D+06 0.22227496D+06 0.10943204D+01  1  2  5  2  6  2        2 -.226596788526D-01 0.100000000000D+01
0.271889617565D-01 0.000000000000D+00 0.546927622532D-02 0.179406183174D-03 0.000000000000D+00  6 1 2 25 1 2 21 2 0.11034522D+00 0.44595523D+00 0.22227496D+06 0.22227496D+06 0.22227496D+06 0.10943204D+01  1  2  6  2  6  2        2 0.264583672023D-01 0.100000000000D+01
-.166027260161D-03 0.000000000000D+00 -.341269934447D-04 0.179406183174D-03 0.000000000000D+00  6 1 21 25 1 2 -2 2 0.11034522D+00 0.46185282D+00 0.22227496D+06 0.22227496D+06 0.22227496D+06 0.10943204D+01  1  2  5  6  6  2        2 -.944730440064D-05 0.100000000000D+01
  </mgrwgt>
  </event>
  <event>
  5     66 -.17698235E-05 0.10162005E+03 0.75467711E-02 0.91197242E-01
        1 -1    0    0  501    0 0.00000000E+00 0.00000000E+00 0.77649933E+03 0.77649939E+03 0.32000000E+00 0.0000E+00 0.9000E+01
        2 -1    0    0  502    0 -.00000000E+00 -.00000000E+00 -.12227039E+04 0.12227040E+04 0.32000000E+00 0.0000E+00 0.9000E+01
       25  1    1    2    0    0 -.59339653E+03 -.27747114E+02 -.33443689E+03 0.69308180E+03 0.12500000E+03 0.0000E+00 0.9000E+01
        1  1    1    2  501    0 -.54590836E+02 -.85738031E+02 0.43747659E+03 0.44912920E+03 0.32000000E+00 0.0000E+00 0.9000E+01
        2  1    1    2  502    0 0.64798737E+03 0.11348515E+03 -.54924430E+03 0.85699236E+03 0.32000000E+00 0.0000E+00 0.9000E+01
#aMCatNLO 1  0  0  4  1 0.13198340D+02 0.00000000D+00  -5  6  0 0.00000000D+00 0.00000000D+00 0.00000000D+00 0.00000000D+00 0.00000000D+00
  <mgrwgt>
 -.1061242202D-01    8    2    0
 0.974386411690032D+03 0.000000000000000D+00 0.000000000000000D+00 0.974386411690032D+03
 0.974386411690032D+03 -.000000000000000D+00 -.000000000000000D+00 -.974386411690032D+03
 0.634523703282295D+03 -.593497669776151D+03 -.277685803817927D+02 -.184349537403641D+03
 0.560796287588201D+03 -.545788543852393D+02 -.857192128880456D+02 0.551512322045988D+03
 0.753452832509567D+03 0.648076524161391D+03 0.113487793269838D+03 -.367162784642347D+03
 0.000000000000000D+00 0.000000000000000D+00 0.000000000000000D+00 0.000000000000000D+00
 0.974386411690032D+03 0.000000000000000D+00 0.000000000000000D+00 0.974386411690032D+03
 0.974386411690032D+03 -.000000000000000D+00 -.000000000000000D+00 -.974386411690032D+03
 0.634485522597104D+03 -.593517451214296D+03 -.277996482619566D+02 -.184149648508807D+03
 0.299141501911774D+03 -.421046048738774D+02 -.472163701672155D+02 0.292375537284977D+03
 0.753311441972448D+03 0.648053036574630D+03 0.113450904671269D+03 -.366925445591173D+03
 0.261834356898739D+03 -.124309804864563D+02 -.384348862420964D+02 0.258699556815003D+03
0.239313651122D-04 0.000000000000D+00 0.000000000000D+00 0.463443336520D-06 0.000000000000D+00  6 1 2 25 1 2 21 0 0.11946144D+00 0.18810830D+00 0.46697536D+06 0.46697536D+06 0.46697536D+06 0.10706141D+01  1  2  2  3  6  4        1 0.145413707110D-03 0.100000000000D+01
0.572023252846D-05 0.000000000000D+00 -.919027433040D-07 0.463443336520D-06 0.000000000000D+00  6 1 2 25 1 2 21 2 0.11946144D+00 0.18810830D+00 0.46697536D+06 0.46697536D+06 0.46697536D+06 0.10706141D+01  1  2  3  3  6  4        1 0.398398282143D-04 0.100000000000D+01
-.156667292199D-04 0.000000000000D+00 0.000000000000D+00 0.463443336520D-06 0.000000000000D+00  6 1 2 25 1 2 21 2 0.11946144D+00 0.18810830D+00 0.46697536D+06 0.46697536D+06 0.46697536D+06 0.10706141D+01  1  2 15  3  6  4        1 -.109114410594D-03 0.100000000000D+01
0.193082353574D-02 0.000000000000D+00 0.000000000000D+00 0.463443336520D-06 0.000000000000D+00  6 1 2 25 1 2 21 2 0.11946144D+00 0.18810830D+00 0.46836305D+06 0.46836305D+06 0.46836305D+06 0.10705225D+01  1  2 12  3  6  4        1 0.134433694299D-01 0.100000000000D+01
0.122164824037D-06 0.000000000000D+00 0.000000000000D+00 0.463443336520D-06 0.000000000000D+00  6 1 2 25 1 2 21 2 0.11946144D+00 0.18810830D+00 0.46836305D+06 0.46836305D+06 0.46836305D+06 0.10705225D+01  1  2 12  3  6  4        1 0.850573255641D-06 0.100000000000D+01
-.458770230660D-02 0.000000000000D+00 0.000000000000D+00 0.463443336520D-06 0.000000000000D+00  6 1 2 25 1 2 21 2 0.11946144D+00 0.18810830D+00 0.46697536D+06 0.46697536D+06 0.46697536D+06 0.10706141D+01  1  2  4  3  6  4        1 -.319520702846D-01 0.100000000000D+01
-.201420138777D-02 0.000000000000D+00 0.000000000000D+00 0.463443336520D-06 0.000000000000D+00  6 1 2 25 1 2 21 2 0.11946144D+00 0.18810830D+00 0.46697536D+06 0.46697536D+06 0.46697536D+06 0.10706141D+01  1  2  5  3  6  4        1 -.140283523229D-01 0.100000000000D+01
0.313690080938D-02 0.000000000000D+00 -.000000000000D+00 0.463443336520D-06 0.000000000000D+00  6 1 2 25 1 2 21 2 0.11946144D+00 0.18810830D+00 0.46697536D+06 0.46697536D+06 0.46697536D+06 0.10706141D+01  1  2  6  3  6  4        1 0.218476414637D-01 0.100000000000D+01
  </mgrwgt>
  </event>
  <event>
  6     66 0.17698235E-05 0.16196649E+03 0.75467711E-02 0.92481734E-01
        1 -1    0    0  503    0 0.00000000E+00 0.00000000E+00 0.37366364E+03 0.37366378E+03 0.32000000E+00 0.0000E+00 0.9000E+01
        2 -1    0    0  502    0 0.00000000E+00 0.00000000E+00 -.37207870E+04 0.37207870E+04 0.32000000E+00 0.0000E+00 0.9000E+01
       25  1    1    2    0    0 0.58218596E+02 0.44807111E+03 -.38188265E+03 0.60466229E+03 0.12500000E+03 0.0000E+00 0.9000E+01
        1  1    1    2  501    0 -.16009587E+03 -.40158591E+03 0.10771971E+02 0.43245586E+03 0.32000000E+00 0.0000E+00 0.9000E+01
        2  1    1    2  502    0 0.18919291E+03 -.95883159E+02 -.29445677E+04 0.29521969E+04 0.32000000E+00 0.0000E+00 0.9000E+01
       21  1    1    2  503  501 -.87315634E+02 0.49397966E+02 -.31445003E+02 0.10513577E+03 0.75000000E+00 0.0000E+00 0.9000E+01
#aMCatNLO 2  0  0  1  5 0.10032038D+03 0.00000000D+00  -5  6  0 0.00000000D+00 0.00000000D+00 0.00000000D+00 0.00000000D+00 0.00000000D+00
  <mgrwgt>
 0.5544511735D-03    2    2    0
 0.110802158245408D+04 0.000000000000000D+00 0.000000000000000D+00 0.110802158245408D+04
 0.110802158245408D+04 0.000000000000000D+00 0.000000000000000D+00 -.110802158245408D+04
 0.524849502872925D+03 0.376749891065909D+02 0.459646247926813D+03 0.217135723980595D+03
 0.791901720528912D+03 -.191302458234776D+03 -.383882893817891D+03 0.665691841833731D+03
 0.899291941506323D+03 0.153627469128185D+03 -.757633541089220D+02 -.882827565814325D+03
 0.000000000000000D+00 -.000000000000000D+00 0.000000000000000D+00 0.000000000000000D+00
 0.123048864556186D+04 0.000000000000000D+00 0.000000000000000D+00 0.123048864556186D+04
 0.112989319313839D+04 0.000000000000000D+00 0.000000000000000D+00 -.112989319313839D+04
 0.516625484385199D+03 0.581823750912211D+02 0.448044394805257D+03 0.217135723980595D+03
 0.793732295272629D+03 -.160080192515261D+03 -.401546585390845D+03 0.665691841833731D+03
 0.907954977298558D+03 0.189213451112291D+03 -.958957754948265D+02 -.882827565814325D+03
 0.142069081743869D+03 -.873156336882517D+02 0.493979660804150D+02 0.100595452423474D+03
-.491241126931D-07 0.000000000000D+00 0.000000000000D+00 0.286533825651D-05 0.000000000000D+00  6 1 2 25 1 2 21 2 0.58089163D-01 0.56134766D+00 0.36814891D+06 0.36814891D+06 0.36814891D+06 0.10780351D+01  1  2 13  1  6  1        1 -.345312153264D-07 0.100000000000D+01
0.880603059221D-03 0.000000000000D+00 0.000000000000D+00 0.286533825651D-05 0.205539683505D-09  6 1 2 25 1 2 21 2 0.57486676D-01 0.57242829D+00 0.36814891D+06 0.36814891D+06 0.36814891D+06 0.10780351D+01  1  2  1  1  6  1        1 0.554485704698D-03 0.100000000000D+01
  </mgrwgt>
  </event>
  <event>
  5     66 0.17698235E-05 0.43218780E+02 0.75467711E-02 0.90516489E-01
        1 -1    0    0  501    0 0.00000000E+00 0.00000000E+00 0.12003960E+04 0.12003960E+04 0.32000000E+00 0.0000E+00 0.9000E+01
        2 -1    0    0  502    0 0.00000000E+00 0.00000000E+00 -.19213451E+04 0.19213451E+04 0.32000000E+00 0.0000E+00 0.9000E+01
       25  1    1    2    0    0 -.16076571E+03 -.52950787E+03 -.30353786E+03 0.64341622E+03 0.12500000E+03 0.0000E+00 0.9000E+01
        1  1    1    2  501    0 0.18342196E+03 0.49270721E+03 0.96303801E+03 0.10971993E+04 0.32000000E+00 0.0000E+00 0.9000E+01
        2  1    1    2  502    0 -.22656242E+02 0.36800668E+02 -.13804493E+04 0.13811256E+04 0.32000000E+00 0.0000E+00 0.9000E+01
#aMCatNLO 1  0  0  1  4 0.82390449D+01 0.00000000D+00  -5  6  0 0.00000000D+00 0.00000000D+00 0.00000000D+00 0.00000000D+00 0.00000000D+00
  <mgrwgt>
 0.1286933393D-01    7    2    0
 0.151867539856447D+04 0.000000000000000D+00 0.000000000000000D+00 0.151867539856447D+04
 0.151867539856447D+04 0.000000000000000D+00 0.000000000000000D+00 -.151867539856447D+04
 0.589221160342510D+03 -.160761217348437D+03 -.529502614426169D+03 -.159183504509336D+03
 0.135624994408554D+04 0.183418991661794D+03 0.492699242461572D+03 0.125020751909736D+04
 0.109187969270088D+04 -.226577743133571D+02 0.368033719645972D+02 -.109102401458803D+04
 0.000000000000000D+00 -.000000000000000D+00 0.000000000000000D+00 0.000000000000000D+00
 0.183162234374712D+04 0.000000000000000D+00 0.000000000000000D+00 0.183162234374712D+04
 0.162046080243926D+04 0.000000000000000D+00 0.000000000000000D+00 -.162046080243926D+04
 0.641042806750756D+03 -.136542038808468D+03 -.592729081129853D+03 -.159183504509336D+03
 0.132093790281314D+04 0.236122551372047D+03 0.355111592340128D+03 0.125020751909736D+04
 0.109382470169679D+04 0.203703614196456D+02 -.755256645778544D+02 -.109102401458803D+04
 0.396277734925695D+03 -.119950873983225D+03 0.313143153367579D+03 0.211161541307854D+03
0.509105260938D-02 0.000000000000D+00 0.000000000000D+00 0.150298280859D-03 0.000000000000D+00  6 1 2 25 1 2 21 0 0.18467631D+00 0.29559155D+00 0.32277342D+06 0.32277342D+06 0.32277342D+06 0.10822087D+01  1  2  2  1  6  1        1 0.604733979706D-02 0.100000000000D+01
0.278244796161D-02 0.000000000000D+00 -.195509825250D-04 0.150298280859D-03 0.000000000000D+00  6 1 2 25 1 2 21 2 0.18467631D+00 0.29559155D+00 0.32277342D+06 0.32277342D+06 0.32277342D+06 0.10822087D+01  1  2  3  1  6  1        1 0.387084588609D-02 0.100000000000D+01
-.321939066692D-02 0.000000000000D+00 0.000000000000D+00 0.150298280859D-03 0.000000000000D+00  6 1 2 25 1 2 21 2 0.18467631D+00 0.29559155D+00 0.32277342D+06 0.32277342D+06 0.32277342D+06 0.10822087D+01  1  2 15  1  6  1        1 -.447870554659D-02 0.100000000000D+01
-.706532270365D-03 0.000000000000D+00 0.000000000000D+00 0.150298280859D-03 0.000000000000D+00  6 1 2 25 1 2 21 2 0.18467631D+00 0.29559155D+00 0.32277342D+06 0.32277342D+06 0.32277342D+06 0.10822087D+01  1  2  4  1  6  1        1 -.982903389340D-03 0.100000000000D+01
-.136145602807D-01 0.000000000000D+00 -.595600753718D-02 0.150298280859D-03 0.000000000000D+00  6 1 2 25 1 2 21 2 0.23028297D+00 0.29559155D+00 0.32277342D+06 0.32277342D+06 0.32277342D+06 0.10822087D+01  1  2  5  1  6  1        1 -.118253836471D-01 0.100000000000D+01
0.147114913061D-01 0.000000000000D+00 0.581383483011D-02 0.150298280859D-03 0.000000000000D+00  6 1 2 25 1 2 21 2 0.18467631D+00 0.29559155D+00 0.32277342D+06 0.32277342D+06 0.32277342D+06 0.10822087D+01  1  2  6  1  6  1        1 0.204661206198D-01 0.100000000000D+01
-.338765277186D-03 0.000000000000D+00 -.183691754789D-03 0.150298280859D-03 0.000000000000D+00  6 21 2 25 1 2 -1 2 0.23028297D+00 0.29559155D+00 0.32277342D+06 0.32277342D+06 0.32277342D+06 0.10822087D+01  1  2  5  5  6  1        1 -.227979792620D-03 0.100000000000D+01
  </mgrwgt>
  </event>
  <event>
  5     66 0.17698235E-05 0.17260002E+02 0.75467711E-02 0.89710296E-01
        1 -1    0    0  501    0 0.00000000E+00 0.00000000E+00 0.47704559E+03 0.47704570E+03 0.32000000E+00 0.0000E+00 0.9000E+01
        2 -1    0    0  502    0 0.00000000E+00 0.00000000E+00 -.26501564E+04 0.26501565E+04 0.32000000E+00 0.0000E+00 0.9000E+01
       25  1    1    2    0    0 -.28606138E+03 -.54734832E+03 -.31500209E+03 0.70446619E+03 0.12500000E+03 0.0000E+00 0.9000E+01
        1  1    1    2  501    0 0.14692379E+02 0.90663821E+01 0.23955310E+03 0.24017464E+03 0.32000000E+00 0.0000E+00 0.9000E+01
        2  1    1    2  502    0 0.27136900E+03 0.53828194E+03 -.20976619E+04 0.21825613E+04 0.32000000E+00 0.0000E+00 0.9000E+01
#aMCatNLO 1  0  0  2  4 0.30339464D+03 0.00000000D+00  -5  6  0 0.00000000D+00 0.00000000D+00 0.00000000D+00 0.00000000D+00 0.00000000D+00
  <mgrwgt>
 0.1604598408D-02    7    2    0
 0.112438678510968D+04 0.000000000000000D+00 0.000000000000000D+00 0.112438678510968D+04
 0.112438678510968D+04 0.000000000000000D+00 0.000000000000000D+00 -.112438678510968D+04
 0.675363176266849D+03 -.286095329970971D+03 -.547419534151203D+03 0.242840967828182D+03
 0.565336415124378D+03 0.146884938645111D+02 0.906398444342560D+01 0.565072875476858D+03
 0.100807397882814D+04 0.271406836106460D+03 0.538355549707777D+03 -.807913843305039D+03
 0.000000000000000D+00 0.000000000000000D+00 0.000000000000000D+00 -.000000000000000D+00
 0.120589294339480D+04 0.000000000000000D+00 0.000000000000000D+00 0.120589294339480D+04
 0.148509856121041D+04 0.000000000000000D+00 0.000000000000000D+00 -.148509856121041D+04
 0.760647670779795D+03 -.364569164089196D+03 -.609161282422236D+03 0.242840967828182D+03
 0.568433297300558D+03 -.472687375339035D+02 -.396828090267136D+02 0.565072875476858D+03
 0.941543456047591D+03 0.164865889362853D+03 0.454531120988120D+03 -.807913843305039D+03
 0.420367080477265D+03 0.246972012260246D+03 0.194312970460830D+03 -.279205617815604D+03
0.298202200609D-03 0.000000000000D+00 0.000000000000D+00 0.230944978364D-04 0.000000000000D+00  6 1 2 25 1 2 21 0 0.73391639D-01 0.40771639D+00 0.39084587D+06 0.39084587D+06 0.39084587D+06 0.10761532D+01  1  2  2  2  6  2        2 0.593263275158D-03 0.100000000000D+01
0.252674839880D-03 0.000000000000D+00 -.114517496878D-05 0.230944978364D-04 0.000000000000D+00  6 1 2 25 1 2 21 2 0.73391639D-01 0.40771639D+00 0.39084587D+06 0.39084587D+06 0.39084587D+06 0.10761532D+01  1  2  3  2  6  2        2 0.582165968895D-03 0.100000000000D+01
-.186409630833D-03 0.000000000000D+00 0.000000000000D+00 0.230944978364D-04 0.000000000000D+00  6 1 2 25 1 2 21 2 0.73391639D-01 0.40771639D+00 0.39084587D+06 0.39084587D+06 0.39084587D+06 0.10761532D+01  1  2 15  2  6  2        2 -.429490104344D-03 0.100000000000D+01
-.765919203740D-04 0.000000000000D+00 0.000000000000D+00 0.230944978364D-04 0.000000000000D+00  6 1 2 25 1 2 21 2 0.73391639D-01 0.40771639D+00 0.39084587D+06 0.39084587D+06 0.39084587D+06 0.10761532D+01  1  2  4  2  6  2        2 -.176468735689D-03 0.100000000000D+01
-.556080670027D-03 0.000000000000D+00 -.182831835158D-03 0.230944978364D-04 0.000000000000D+00  6 1 2 25 1 2 21 2 0.73391639D-01 0.54729346D+00 0.39084587D+06 0.39084587D+06 0.39084587D+06 0.10761532D+01  1  2  5  2  6  2        2 -.327887213999D-03 0.100000000000D+01
0.591725306320D-03 0.000000000000D+00 0.175184409970D-03 0.230944978364D-04 0.000000000000D+00  6 1 2 25 1 2 21 2 0.73391639D-01 0.40771639D+00 0.39084587D+06 0.39084587D+06 0.39084587D+06 0.10761532D+01  1  2  6  2  6  2        2 0.136334245403D-02 0.100000000000D+01
-.172240706798D-04 0.000000000000D+00 -.697200593551D-05 0.230944978364D-04 0.000000000000D+00  6 1 21 25 1 2 -2 2 0.73391639D-01 0.54729346D+00 0.39084587D+06 0.39084587D+06 0.39084587D+06 0.10761532D+01  1  2  5  6  6  2        2 -.327236150306D-06 0.100000000000D+01
  </mgrwgt>
  </event>
  <event>
  5     66 -.17698235E-05 0.29609199E+02 0.75467711E-02 0.94570374E-01
        1 -1    0    0  501    0 0.00000000E+00 0.00000000E+00 0.22138709E+04 0.22138709E+04 0.32000000E+00 0.0000E+00 0.9000E+01
        2 -1    0    0  502    0 0.00000000E+00 0.00000000E+00 -.15296165E+03 0.15296199E+03 0.32000000E+00 0.0000E+00 0.9000E+01
       25  1    1    2    0    0 0.22689651E+03 0.43934254E+03 0.70469343E+03 0.86989754E+03 0.12500000E+03 0.0000E+00 0.9000E+01
        1  1    1    2  501    0 -.21750056E+03 -.41126435E+03 0.13816659E+04 0.14578908E+04 0.32000000E+00 0.0000E+00 0.9000E+01
        2  1    1    2  502    0 -.93959459E+01 -.28078184E+02 -.25450087E+02 0.39044558E+02 0.32000000E+00 0.0000E+00 0.9000E+01
#aMCatNLO 1  0  0  5  2 0.54415656D+00 0.00000000D+00  -5  6  0 0.00000000D+00 0.00000000D+00 0.00000000D+00 0.00000000D+00 0.00000000D+00
  <mgrwgt>
 -.2494713314D-01    9    2    0
 0.581925918693826D+03 0.000000000000000D+00 0.000000000000000D+00 0.581925918693826D+03
 0.581925918693826D+03 -.000000000000000D+00 -.000000000000000D+00 -.581925918693826D+03
 0.521193942234276D+03 0.226896485926091D+03 0.439342573107338D+03 -.107304303508857D+03
 0.518188845903629D+03 -.217500285030925D+03 -.411263824945213D+03 0.228200289924957D+03
 0.124469049249748D+03 -.939620089516632D+01 -.280787481621248D+02 -.120895986416100D+03
 0.000000000000000D+00 0.000000000000000D+00 0.000000000000000D+00 -.000000000000000D+00
 0.581925918693826D+03 0.000000000000000D+00 0.000000000000000D+00 0.581925918693826D+03
 0.581925918693826D+03 -.000000000000000D+00 -.000000000000000D+00 -.581925918693826D+03
 0.521193877252778D+03 0.226896273108565D+03 0.439341937142888D+03 -.107307041720299D+03
 0.518188237647002D+03 -.217500496621279D+03 -.411264457242492D+03 0.228197567502903D+03
 0.929871687089738D+02 -.753439820138546D+01 -.211348533970904D+02 -.902394833769432D+02
 0.314825537788992D+02 -.186137828590050D+01 -.694262650330572D+01 -.306510424056614D+02
0.989717845511D-05 0.000000000000D+00 0.000000000000D+00 0.431929631130D-06 0.000000000000D+00  6 1 2 25 1 2 21 0 0.34059555D+00 0.23532589D-01 0.25244259D+06 0.25244259D+06 0.25244259D+06 0.10901416D+01  1  2  2  4  6  5        2 0.737612973726D-04 0.100000000000D+01
0.319835738309D-05 0.000000000000D+00 -.380077712545D-07 0.431929631130D-06 0.000000000000D+00  6 1 2 25 1 2 21 2 0.34059555D+00 0.23532589D-01 0.25244259D+06 0.25244259D+06 0.25244259D+06 0.10901416D+01  1  2  3  4  6  5        2 0.283276109086D-04 0.100000000000D+01
-.636146432663D-05 0.000000000000D+00 0.000000000000D+00 0.431929631130D-06 0.000000000000D+00  6 1 2 25 1 2 21 2 0.34059555D+00 0.23532589D-01 0.25244259D+06 0.25244259D+06 0.25244259D+06 0.10901416D+01  1  2 15  4  6  5        2 -.563430113239D-04 0.100000000000D+01
0.876030319210D-11 0.000000000000D+00 0.000000000000D+00 0.431929631130D-06 0.000000000000D+00  6 1 2 25 1 2 21 2 0.34059555D+00 0.23532589D-01 0.25245078D+06 0.25245078D+06 0.25245078D+06 0.10901405D+01  1  2 12  4  6  5        2 0.775890782848D-10 0.100000000000D+01
0.815813907852D-14 0.000000000000D+00 0.000000000000D+00 0.431929631130D-06 0.000000000000D+00  6 1 2 25 1 2 21 2 0.34059555D+00 0.23532589D-01 0.25245078D+06 0.25245078D+06 0.25245078D+06 0.10901405D+01  1  2 12  4  6  5        2 0.722557744567D-13 0.100000000000D+01
-.552505564271D-01 0.000000000000D+00 0.000000000000D+00 0.431929631130D-06 0.000000000000D+00  6 1 2 25 1 2 21 2 0.34059555D+00 0.23532589D-01 0.25244259D+06 0.25244259D+06 0.25244259D+06 0.10901416D+01  1  2  4  4  6  5        2 -.489350024867D+00 0.100000000000D+01
-.317343861762D-01 0.000000000000D+00 0.000000000000D+00 0.431929631130D-06 0.000000000000D+00  6 1 2 25 1 2 21 2 0.34059555D+00 0.23532589D-01 0.25244259D+06 0.25244259D+06 0.25244259D+06 0.10901416D+01  1  2  5  4  6  5        2 -.281069072760D+00 0.100000000000D+01
0.494833918999D-01 0.000000000000D+00 -.000000000000D+00 0.431929631130D-06 0.000000000000D+00  6 1 2 25 1 2 21 2 0.34059555D+00 0.23532589D-01 0.25244259D+06 0.25244259D+06 0.25244259D+06 0.10901416D+01  1  2  6  4  6  5        2 0.438270682191D+00 0.100000000000D+01
0.346798245943D-01 0.000000000000D+00 0.000000000000D+00 0.431929631130D-06 0.588045503940D-05  6 1 2 25 1 2 21 2 0.34059555D+00 0.23532589D-01 0.25245078D+06 0.25245078D+06 0.25245078D+06 0.10901405D+01  1  2 11  4  6  5        2 0.307155536326D+00 0.100000000000D+01
  </mgrwgt>
  </event>
  <event>
  6     66 0.17698235E-05 0.18398562E+02 0.75467711E-02 0.90737956E-01
        1 -1    0    0  501    0 0.00000000E+00 0.00000000E+00 0.13013415E+04 0.13013416E+04 0.32000000E+00 0.0000E+00 0.9000E+01
        2 -1    0    0  503    0 0.00000000E+00 0.00000000E+00 -.10745604E+04 0.10745604E+04 0.32000000E+00 0.0000E+00 0.9000E+01
       25  1    1    2    0    0 0.51577899E+03 0.45699350E+03 0.47795901E+03 0.84790379E+03 0.12500000E+03 0.0000E+00 0.9000E+01
        1  1    1    2  501    0 -.63859318E+01 0.19484514E+02 0.41427605E+03 0.41478329E+03 0.32000000E+00 0.0000E+00 0.9000E+01
        2  1    1    2  502    0 -.48113198E+03 -.48114383E+03 -.29495614E+03 0.74161081E+03 0.32000000E+00 0.0000E+00 0.9000E+01
       21  1    1    2  503  502 -.28261076E+02 0.46658180E+01 -.37049778E+03 0.37160412E+03 0.75000000E+00 0.0000E+00 0.9000E+01
#aMCatNLO 2  0  0  2  2 0.28643643D+02 0.00000000D+00  -5  6  0 0.00000000D+00 0.00000000D+00 0.00000000D+00 0.00000000D+00 0.00000000D+00
  <mgrwgt>
 0.4537827193D-02    1    2    0
 0.956510256478046D+03 0.000000000000000D+00 0.000000000000000D+00 0.956510256478046D+03
 0.956510256478046D+03 0.000000000000000D+00 0.000000000000000D+00 -.956510256478046D+03
 0.732785457404402D+03 0.504984872593930D+03 0.458876134993942D+03 0.236162015929091D+03
 0.305160916549372D+03 -.108881240144575D+02 0.202151016809505D+02 0.304295881353539D+03
 0.875074139002317D+03 -.494096748579473D+03 -.479091236674893D+03 -.540457897282630D+03
 0.000000000000000D+00 -.000000000000000D+00 0.000000000000000D+00 -.000000000000000D+00
 0.957024002970966D+03 0.000000000000000D+00 0.000000000000000D+00 0.957024002970966D+03
 0.146116435974202D+04 0.000000000000000D+00 0.000000000000000D+00 -.146116435974202D+04
 0.739208552982137D+03 0.515857156370106D+03 0.457081153905957D+03 0.236162015929091D+03
 0.304984967110390D+03 -.638153013893445D+01 0.194710766955541D+02 0.304295881353539D+03
 0.869041421383433D+03 -.481214549890377D+03 -.481218048621180D+03 -.540457897282630D+03
 0.504953421237022D+03 -.282610763407947D+02 0.466581801966925D+01 -.504140356771049D+03
0.136273426215D-02 0.000000000000D+00 0.000000000000D+00 0.284185446404D-05 0.265037996604D-07  6 1 2 25 1 2 21 2 0.20020634D+00 0.16531694D+00 0.51132897D+06 0.51132897D+06 0.51132897D+06 0.10678234D+01  1  2  1  2  6  2        2 0.453782719330D-02 0.100000000000D+01
  </mgrwgt>
  </event>
  <event>
  5     66 0.17698235E-05 0.68668311E+02 0.75467711E-02 0.92090019E-01
        1 -1    0    0  501    0 0.00000000E+00 0.00000000E+00 0.16743137E+04 0.16743137E+04 0.32000000E+00 0.0000E+00 0.9000E+01
        2 -1    0    0  502    0 0.00000000E+00 0.00000000E+00 -.13043376E+04 0.13043377E+04 0.32000000E+00 0.0000E+00 0.9000E+01
       25  1    1    2    0    0 0.41603308E+03 0.35067715E+03 0.34608398E+03 0.65685394E+03 0.12500000E+03 0.0000E+00 0.9000E+01
        1  1    1    2  501    0 0.32866647E+02 0.60300204E+02 0.10910913E+04 0.10932505E+04 0.32000000E+00 0.0000E+00 0.9000E+01
        2  1    1    2  502    0 -.44889972E+03 -.41097735E+03 -.10671992E+04 0.12285470E+04 0.32000000E+00 0.0000E+00 0.9000E+01
#aMCatNLO 1  0  0  1  5 0.24974000D+02 0.00000000D+00  -5  6  0 0.00000000D+00 0.00000000D+00 0.00000000D+00 0.00000000D+00 0.00000000D+00
  <mgrwgt>
 0.4591089889D-01    9    2    0
 0.147779242767683D+04 0.000000000000000D+00 0.000000000000000D+00 0.147779242767683D+04
 0.147779242767683D+04 0.000000000000000D+00 0.000000000000000D+00 -.147779242767683D+04
 0.618751194205767D+03 0.416080646260010D+03 0.350723026076306D+03 0.266642635598275D+03
 0.965099548980030D+03 0.328631831123844D+02 0.602938477404881D+02 0.962653521554784D+03
 0.137173411216786D+04 -.448943829372394D+03 -.411016873816794D+03 -.122929615715306D+04
 0.000000000000000D+00 0.000000000000000D+00 0.000000000000000D+00 0.000000000000000D+00
 0.191620222672656D+04 0.000000000000000D+00 0.000000000000000D+00 0.191620222672656D+04
 0.147820088642660D+04 0.000000000000000D+00 0.000000000000000D+00 -.147820088642660D+04
 0.615023190486030D+03 0.414774264781321D+03 0.345676928637039D+03 0.266642635598275D+03
 0.964571197550637D+03 0.308199520690812D+02 0.524015566267202D+02 0.962653521554784D+03
 0.137609597766001D+04 -.451853368085852D+03 -.422255410255761D+03 -.122929615715306D+04
 0.438712747456484D+03 0.625915123544989D+01 0.241769249920019D+02 0.438001340299958D+03
0.223014573354D-03 0.000000000000D+00 0.000000000000D+00 0.372588394873D-04 0.000000000000D+00  6 1 2 25 1 2 21 0 0.25758673D+00 0.20066733D+00 0.38173459D+06 0.38173459D+06 0.38173459D+06 0.10768940D+01  1  2  2  1  6  1        1 0.271497368196D-03 0.100000000000D+01
0.832556947517D-04 0.000000000000D+00 -.856434682767D-06 0.372588394873D-04 0.000000000000D+00  6 1 2 25 1 2 21 2 0.25758673D+00 0.20066733D+00 0.38173459D+06 0.38173459D+06 0.38173459D+06 0.10768940D+01  1  2  3  1  6  1        1 0.117541771213D-03 0.100000000000D+01
-.142343585851D-03 0.000000000000D+00 0.000000000000D+00 0.372588394873D-04 0.000000000000D+00  6 1 2 25 1 2 21 2 0.25758673D+00 0.20066733D+00 0.38173459D+06 0.38173459D+06 0.38173459D+06 0.10768940D+01  1  2 15  1  6  1        1 -.200963036242D-03 0.100000000000D+01
0.769137662111D-08 0.000000000000D+00 0.000000000000D+00 0.372588394873D-04 0.000000000000D+00  6 1 2 25 1 2 21 2 0.33403753D+00 0.20066733D+00 0.39590861D+06 0.39590861D+06 0.39590861D+06 0.10757497D+01  1  2 12  1  6  1        1 0.502901666831D-08 0.100000000000D+01
-.165240998565D-01 0.000000000000D+00 0.000000000000D+00 0.372588394873D-04 0.000000000000D+00  6 1 2 25 1 2 21 2 0.25758673D+00 0.20066733D+00 0.38173459D+06 0.38173459D+06 0.38173459D+06 0.10768940D+01  1  2  4  1  6  1        1 -.233289983421D-01 0.100000000000D+01
-.987815289432D-01 0.000000000000D+00 -.207499530480D-03 0.372588394873D-04 0.000000000000D+00  6 1 2 25 1 2 21 2 0.33403058D+00 0.20066733D+00 0.38173459D+06 0.38173459D+06 0.38173459D+06 0.10768940D+01  1  2  5  1  6  1        1 -.649297488801D-01 0.100000000000D+01
0.955959941177D-01 0.000000000000D+00 0.200684629100D-03 0.372588394873D-04 0.000000000000D+00  6 1 2 25 1 2 21 2 0.25758673D+00 0.20066733D+00 0.38173459D+06 0.38173459D+06 0.38173459D+06 0.10768940D+01  1  2  6  1  6  1        1 0.134964010606D+00 0.100000000000D+01
0.267842259924D-09 0.000000000000D+00 0.000000000000D+00 0.372588394873D-04 0.000000000000D+00  6 21 2 25 1 2 -1 2 0.33403753D+00 0.20066733D+00 0.39590861D+06 0.39590861D+06 0.39590861D+06 0.10757497D+01  1  2 12  5  6  1        1 0.760429394706D-10 0.100000000000D+01
-.343603312962D-02 0.000000000000D+00 -.722547910256D-05 0.372588394873D-04 0.000000000000D+00  6 21 2 25 1 2 -1 2 0.33403058D+00 0.20066733D+00 0.38173459D+06 0.38173459D+06 0.38173459D+06 0.10768940D+01  1  2  5  5  6  1        1 -.982445704598D-03 0.100000000000D+01
  </mgrwgt>
  </event>
  <event>
  5     66 0.17698235E-05 0.45442110E+02 0.75467711E-02 0.91482079E-01
        1 -1    0    0  501    0 0.00000000E+00 0.00000000E+00 0.35863521E+03 0.35863535E+03 0.32000000E+00 0.0000E+00 0.9000E+01
        2 -1    0    0  502    0 0.00000000E+00 0.00000000E+00 -.21344495E+04 0.21344496E+04 0.32000000E+00 0.0000E+00 0.9000E+01
       25  1    1    2    0    0 -.45006571E+03 -.42654642E+02 0.87394109E+02 0.47711769E+03 0.12500000E+03 0.0000E+00 0.9000E+01
        1  1    1    2  501    0 -.24658247E+02 0.38293654E+02 0.36167001E+02 0.58160016E+02 0.32000000E+00 0.0000E+00 0.9000E+01
        2  1    1    2  502    0 0.47472396E+03 0.43609879E+01 -.18993754E+04 0.19578072E+04 0.32000000E+00 0.0000E+00 0.9000E+01
#aMCatNLO 1  0  0  1  4 0.15758847D+03 0.00000000D+00  -5  6  0 0.00000000D+00 0.00000000D+00 0.00000000D+00 0.00000000D+00 0.00000000D+00
  <mgrwgt>
 0.1060329279D-01    7    2    0
 0.874922257971129D+03 0.000000000000000D+00 0.000000000000000D+00 0.874922257971129D+03
 0.874922257971129D+03 0.000000000000000D+00 0.000000000000000D+00 -.874922257971129D+03
 0.768715597284043D+03 -.450203048373382D+03 -.425769777522565D+02 0.608936027599420D+03
 0.119294032791108D+03 -.246020319341698D+02 0.382063530838766D+02 0.110299958605188D+03
 0.861834885867106D+03 0.474805080307552D+03 0.437062466837993D+01 -.719235986204608D+03
 0.000000000000000D+00 0.000000000000000D+00 -.000000000000000D+00 0.000000000000000D+00
 0.104454680519859D+04 0.000000000000000D+00 0.000000000000000D+00 0.104454680519859D+04
 0.103764258302011D+04 0.000000000000000D+00 0.000000000000000D+00 -.103764258302011D+04
 0.817006491461615D+03 -.525154119249243D+03 0.726957524027928D+02 0.608936027599420D+03
 0.129041599695999D+03 -.363399157182483D+02 0.562589024900678D+02 0.110299958605188D+03
 0.830308289283916D+03 0.394823888172446D+03 0.127379545965041D+03 -.719235986204608D+03
 0.305833007777171D+03 0.166670146795046D+03 -.256334200857902D+03 0.690422217847728D+01
0.144748733456D-02 0.000000000000D+00 0.000000000000D+00 0.113391007817D-05 0.000000000000D+00  6 1 2 25 1 2 21 0 0.55174660D-01 0.32837687D+00 0.24474660D+06 0.24474660D+06 0.24474660D+06 0.10911537D+01  1  2  2  1  6  1        1 0.863895808018D-02 0.100000000000D+01
0.234013060248D-03 0.000000000000D+00 -.555873249687D-05 0.113391007817D-05 0.000000000000D+00  6 1 2 25 1 2 21 2 0.55174660D-01 0.32837687D+00 0.24474660D+06 0.24474660D+06 0.24474660D+06 0.10911537D+01  1  2  3  1  6  1        1 0.166287082684D-02 0.100000000000D+01
-.905268165653D-03 0.000000000000D+00 0.000000000000D+00 0.113391007817D-05 0.000000000000D+00  6 1 2 25 1 2 21 2 0.55174660D-01 0.32837687D+00 0.24474660D+06 0.24474660D+06 0.24474660D+06 0.10911537D+01  1  2 15  1  6  1        1 -.643273508553D-02 0.100000000000D+01
-.219836773360D-04 0.000000000000D+00 0.000000000000D+00 0.113391007817D-05 0.000000000000D+00  6 1 2 25 1 2 21 2 0.55174660D-01 0.32837687D+00 0.24474660D+06 0.24474660D+06 0.24474660D+06 0.10911537D+01  1  2  4  1  6  1        1 -.156213570601D-03 0.100000000000D+01
-.143100728942D-02 0.000000000000D+00 -.130923749521D-02 0.113391007817D-05 0.000000000000D+00  6 1 2 25 1 2 21 2 0.79954850D-01 0.32837687D+00 0.24474660D+06 0.24474660D+06 0.24474660D+06 0.10911537D+01  1  2  5  1  6  1        1 -.611788151795D-02 0.100000000000D+01
0.187161085010D-02 0.000000000000D+00 0.122404668152D-02 0.113391007817D-05 0.000000000000D+00  6 1 2 25 1 2 21 2 0.55174660D-01 0.32837687D+00 0.24474660D+06 0.24474660D+06 0.24474660D+06 0.10911537D+01  1  2  6  1  6  1        1 0.132994589214D-01 0.100000000000D+01
-.242202481300D-04 0.000000000000D+00 -.589866888598D-04 0.113391007817D-05 0.000000000000D+00  6 21 2 25 1 2 -1 2 0.79954850D-01 0.32837687D+00 0.24474660D+06 0.24474660D+06 0.24474660D+06 0.10911537D+01  1  2  5  5  6  1        1 -.291164860327D-03 0.100000000000D+01
  </mgrwgt>
  </event>
  <event>
  5     66 0.17698235E-05 0.85764119E+02 0.75467711E-02 0.92964996E-01
        1 -1    0    0  501    0 0.00000000E+00 0.00000000E+00 0.36220230E+03 0.36220244E+03 0.32000000E+00 0.0000E+00 0.9000E+01
        2 -1    0    0  502    0 0.00000000E+00 0.00000000E+00 -.13404720E+04 0.13404720E+04 0.32000000E+00 0.0000E+00 0.9000E+01
       25  1    1    2    0    0 0.31646771E+03 -.36638062E+03 -.36991473E+03 0.62197144E+03 0.12500000E+03 0.0000E+00 0.9000E+01
        1  1    1    2  501    0 -.26673399E+02 -.81562780E+02 0.13846076E+03 0.16289703E+03 0.32000000E+00 0.0000E+00 0.9000E+01
        2  1    1    2  502    0 -.28979431E+03 0.44794340E+03 -.74681572E+03 0.91780600E+03 0.32000000E+00 0.0000E+00 0.9000E+01
#aMCatNLO 1  0  0  2  5 0.38028575D+02 0.00000000D+00  -5  6  0 0.00000000D+00 0.00000000D+00 0.00000000D+00 0.00000000D+00 0.00000000D+00
  <mgrwgt>
 0.1257168143D-01   11    2    0
 0.696794223310434D+03 0.000000000000000D+00 0.000000000000000D+00 0.696794223310434D+03
 0.696794223310434D+03 0.000000000000000D+00 0.000000000000000D+00 -.696794223310434D+03
 0.500367770476377D+03 0.316524344946854D+03 -.366499690524470D+03 -.152715956249900D+02
 0.296052085149851D+03 -.266580486765673D+02 -.815158421843528D+02 0.283357288657462D+03
 0.597168590994641D+03 -.289866296270287D+03 0.448015532708823D+03 -.268085693032472D+03
 0.000000000000000D+00 0.000000000000000D+00 -.000000000000000D+00 -.000000000000000D+00
 0.699425406778167D+03 0.000000000000000D+00 0.000000000000000D+00 0.699425406778167D+03
 0.849487776966438D+03 0.000000000000000D+00 0.000000000000000D+00 -.849487776966438D+03
 0.491350210001032D+03 0.303018593478287D+03 -.365713739476063D+03 -.152715956249900D+02
 0.296759285461718D+03 -.347312743282450D+02 -.810460304763757D+02 0.283357288657462D+03
 0.605997721039123D+03 -.306251665403009D+03 0.448969059662015D+03 -.268085693032472D+03
 0.154805967242731D+03 0.379643462529664D+02 -.220928970957667D+01 -.150062370188271D+03
0.873823009201D-04 0.000000000000D+00 0.000000000000D+00 0.268545451295D-06 0.000000000000D+00  6 1 2 25 1 2 21 0 0.55723444D-01 0.20622647D+00 0.31332538D+06 0.31332538D+06 0.31332538D+06 0.10831582D+01  1  2  2  2  6  2        2 0.138545477392D-02 0.100000000000D+01
0.156246880038D-04 0.000000000000D+00 -.335571043822D-06 0.268545451295D-06 0.000000000000D+00  6 1 2 25 1 2 21 2 0.55723444D-01 0.20622647D+00 0.31332538D+06 0.31332538D+06 0.31332538D+06 0.10831582D+01  1  2  3  2  6  2        2 0.290645785242D-03 0.100000000000D+01
-.513006741486D-04 0.000000000000D+00 0.000000000000D+00 0.268545451295D-06 0.000000000000D+00  6 1 2 25 1 2 21 2 0.55723444D-01 0.20622647D+00 0.31332538D+06 0.31332538D+06 0.31332538D+06 0.10831582D+01  1  2 15  2  6  2        2 -.954279836996D-03 0.100000000000D+01
0.259723575040D-02 0.000000000000D+00 0.000000000000D+00 0.268545451295D-06 0.000000000000D+00  6 1 2 25 1 2 21 2 0.55723444D-01 0.25312398D+00 0.33685786D+06 0.33685786D+06 0.33685786D+06 0.10808481D+01  1  2 12  2  6  2        2 0.325378873254D-01 0.100000000000D+01
0.137234529139D-05 0.000000000000D+00 0.000000000000D+00 0.268545451295D-06 0.000000000000D+00  6 1 2 25 1 2 21 2 0.55723444D-01 0.25234981D+00 0.33685786D+06 0.33685786D+06 0.33685786D+06 0.10808481D+01  1  2 12  2  6  2        2 0.173018245747D-04 0.100000000000D+01
-.197790044076D-02 0.000000000000D+00 0.000000000000D+00 0.268545451295D-06 0.000000000000D+00  6 1 2 25 1 2 21 2 0.55723444D-01 0.20622647D+00 0.31332538D+06 0.31332538D+06 0.31332538D+06 0.10831582D+01  1  2  4  2  6  2        2 -.367923139711D-01 0.100000000000D+01
-.287298598947D-02 0.000000000000D+00 -.989712329749D-04 0.268545451295D-06 0.000000000000D+00  6 1 2 25 1 2 21 2 0.55723444D-01 0.25174678D+00 0.31332538D+06 0.31332538D+06 0.31332538D+06 0.10831582D+01  1  2  5  2  6  2        2 -.366763842049D-01 0.100000000000D+01
0.283802663650D-02 0.000000000000D+00 0.970348128857D-04 0.268545451295D-06 0.000000000000D+00  6 1 2 25 1 2 21 2 0.55723444D-01 0.20622647D+00 0.31332538D+06 0.31332538D+06 0.31332538D+06 0.10831582D+01  1  2  6  2  6  2        2 0.527921248798D-01 0.100000000000D+01
0.757153623163D-04 0.000000000000D+00 0.000000000000D+00 0.268545451295D-06 0.000000000000D+00  6 1 21 25 1 2 -2 2 0.55723444D-01 0.25312398D+00 0.33685786D+06 0.33685786D+06 0.33685786D+06 0.10808481D+01  1  2 12  6  6  2        2 0.277619192803D-03 0.100000000000D+01
0.395489254716D-07 0.000000000000D+00 0.000000000000D+00 0.268545451295D-06 0.000000000000D+00  6 1 21 25 1 2 -2 2 0.55723444D-01 0.25234981D+00 0.33685786D+06 0.33685786D+06 0.33685786D+06 0.10808481D+01  1  2 12  6  6  2        2 0.146789786819D-06 0.100000000000D+01
-.809074134143D-04 0.000000000000D+00 -.282625143603D-05 0.268545451295D-06 0.000000000000D+00  6 1 21 25 1 2 -2 2 0.55723444D-01 0.25174678D+00 0.31332538D+06 0.31332538D+06 0.31332538D+06 0.10831582D+01  1  2  5  6  6  2        2 -.306521124294D-03 0.100000000000D+01
  </mgrwgt>
  </event>
  <event>
  5     66 0.17698235E-05 0.82926549E+02 0.75467711E-02 0.84652801E-01
        1 -1    0    0  501    0 0.00000000E+00 0.00000000E+00 0.12178167E+04 0.12178168E+04 0.32000000E+00 0.0000E+00 0.9000E+01
        2 -1    0    0  502    0 0.00000000E+00 0.00000000E+00 -.85301170E+03 0.85301176E+03 0.32000000E+00 0.0000E+00 0.9000E+01
       25  1    1    2    0    0 0.35560821E+03 -.40577021E+03 0.21745576E+03 0.59499468E+03 0.12500000E+03 0.0000E+00 0.9000E+01
        1  1    1    2  501    0 -.32748507E+03 0.32777032E+03 0.74235242E+03 0.87508118E+03 0.32000000E+00 0.0000E+00 0.9000E+01
        2  1    1    2  502    0 -.28123140E+02 0.77999890E+02 -.59500316E+03 0.60075266E+03 0.32000000E+00 0.0000E+00 0.9000E+01
#aMCatNLO 1  0  0  2  5 0.14048082D+02 0.00000000D+00  -5  6  0 0.00000000D+00 0.00000000D+00 0.00000000D+00 0.00000000D+00 0.00000000D+00
  <mgrwgt>
 0.3362702207D-02    5    2    0
 0.101922127822120D+04 0.000000000000000D+00 0.000000000000000D+00 0.101922127822120D+04
 0.101922127822120D+04 0.000000000000000D+00 0.000000000000000D+00 -.101922127822120D+04
 0.565527466161808D+03 0.355583396420069D+03 -.405751923651498D+03 0.114551908001884D+03
 0.756063673396886D+03 -.327456033171007D+03 0.327741257605426D+03 0.597486813773756D+03
 0.716851416883710D+03 -.281273632490620D+02 0.780106660460714D+02 -.712038721775640D+03
 0.000000000000000D+00 0.000000000000000D+00 0.000000000000000D+00 -.000000000000000D+00
 0.153853593787736D+04 0.000000000000000D+00 0.000000000000000D+00 0.153853593787736D+04
 0.188491209974575D+04 0.000000000000000D+00 0.000000000000000D+00 -.188491209974575D+04
 0.636798168290765D+03 0.132033735329561D+03 -.599442958292551D+03 0.114551908001884D+03
 0.870691330266519D+03 -.629920290212169D+03 0.656759312593428D+02 0.597486813773756D+03
 0.793592320644084D+03 -.308965745085907D+03 -.165317266009592D+03 -.712038721775640D+03
 0.112236621842174D+04 0.806852299968516D+03 0.699084293042800D+03 -.346376161868387D+03
0.928701608102D-03 0.000000000000D+00 0.000000000000D+00 0.806980916126D-05 0.000000000000D+00  6 1 2 25 1 2 21 0 0.18735643D+00 0.13123258D+00 0.30251392D+06 0.30251392D+06 0.30251392D+06 0.10842838D+01  1  2  2  2  6  2        2 0.442503959863D-02 0.100000000000D+01
0.275279978269D-03 0.000000000000D+00 -.356645870786D-05 0.806980916126D-05 0.000000000000D+00  6 1 2 25 1 2 21 2 0.18735643D+00 0.13123258D+00 0.30251392D+06 0.30251392D+06 0.30251392D+06 0.10842838D+01  1  2  3  2  6  2        2 0.154206102129D-02 0.100000000000D+01
-.540464360021D-03 0.000000000000D+00 0.000000000000D+00 0.806980916126D-05 0.000000000000D+00  6 1 2 25 1 2 21 2 0.18735643D+00 0.13123258D+00 0.30251392D+06 0.30251392D+06 0.30251392D+06 0.10842838D+01  1  2 15  2  6  2        2 -.302756861660D-02 0.100000000000D+01
0.328198862749D-03 0.000000000000D+00 -.493156375755D-03 0.806980916126D-05 0.000000000000D+00  6 1 2 25 1 2 21 2 0.18735643D+00 0.30694455D+00 0.30251392D+06 0.30251392D+06 0.30251392D+06 0.10842838D+01  1  2  5  2  6  2        2 0.407920657238D-03 0.100000000000D+01
0.615618578741D-04 0.000000000000D+00 -.456923298417D-04 0.806980916126D-05 0.000000000000D+00  6 1 21 25 1 2 -2 2 0.18735643D+00 0.30694455D+00 0.30251392D+06 0.30251392D+06 0.30251392D+06 0.10842838D+01  1  2  5  6  6  2        2 0.152495459483D-04 0.100000000000D+01
  </mgrwgt>
  </event>
  <event>
  6     66 0.17698235E-05 0.49152070E+02 0.75467711E-02 0.89505607E-01
        1 -1    0    0  501    0 0.00000000E+00 0.00000000E+00 0.84888136E+03 0.84888142E+03 0.32000000E+00 0.0000E+00 0.9000E+01
        2 -1    0    0  502    0 -.00000000E+00 -.00000000E+00 -.32238451E+04 0.32238451E+04 0.32000000E+00 0.0000E+00 0.9000E+01
       25  1    1    2    0    0 -.50364782E+03 -.58366998E+03 -.29711489E+03 0.83560399E+03 0.12500000E+03 0.0000E+00 0.9000E+01
        1  1    1    2  503    0 0.42483526E+03 0.57102969E+03 0.26085347E+03 0.75802674E+03 0.32000000E+00 0.0000E+00 0.9000E+01
        2  1    1    2  502    0 0.54998456E+02 -.36113654E+02 -.23978929E+04 0.23987955E+04 0.32000000E+00 0.0000E+00 0.9000E+01
       21  1    1    2  501  503 0.23814107E+02 0.48753946E+02 0.59190594E+02 0.80300360E+02 0.75000000E+00 0.0000E+00 0.9000E+01
#aMCatNLO 2  0  0  4  1 0.38285192D+02 0.00000000D+00  -5  6  0 0.00000000D+00 0.00000000D+00 0.00000000D+00 0.00000000D+00 0.00000000D+00
  <mgrwgt>
 0.3557383582D-02    6    2    0
 0.165428600606969D+04 0.000000000000000D+00 0.000000000000000D+00 0.165428600606969D+04
 0.165428600606969D+04 -.000000000000000D+00 -.000000000000000D+00 -.165428600606969D+04
 0.815820196885468D+03 -.504101079370806D+03 -.584260915689308D+03 0.233364259948526D+03
 0.125917949946829D+04 0.449875984046813D+03 0.621478134369017D+03 0.998453573963424D+03
 0.123357231578561D+04 0.542250953239934D+02 -.372172186797086D+02 -.123181783391195D+04
 0.000000000000000D+00 0.000000000000000D+00 0.000000000000000D+00 0.000000000000000D+00
 0.165428600606969D+04 0.000000000000000D+00 0.000000000000000D+00 0.165428600606969D+04
 0.165428600606969D+04 -.000000000000000D+00 -.000000000000000D+00 -.165428600606969D+04
 0.815312370366956D+03 -.503577643958325D+03 -.583537819380220D+03 0.234525971124193D+03
 0.112008908806708D+04 0.424749806632712D+03 0.570906937542059D+03 0.865015858605363D+03
 0.123182147989248D+04 0.550162477074834D+02 -.361242865723529D+02 -.123006195239603D+04
 0.141349073812851D+03 0.238115896181289D+02 0.487551684105134D+02 0.130520122666472D+03
-.738686290461D-02 0.000000000000D+00 0.000000000000D+00 0.150577457017D-04 0.000000000000D+00  6 1 2 25 1 2 21 2 0.13059714D+00 0.49597618D+00 0.65004649D+06 0.65004649D+06 0.65004649D+06 0.10605473D+01  1  2 13  3  6  4        1 -.289952767000D-02 0.100000000000D+01
-.108546818006D-08 0.000000000000D+00 0.000000000000D+00 0.150577457017D-04 0.000000000000D+00  6 1 2 25 1 2 21 2 0.13059714D+00 0.49597618D+00 0.65004649D+06 0.65004649D+06 0.65004649D+06 0.10605473D+01  1  2 13  3  6  4        1 -.426073295745D-09 0.100000000000D+01
-.571490766642D-03 0.000000000000D+00 0.000000000000D+00 0.150577457017D-04 0.000000000000D+00  6 1 2 25 1 2 21 2 0.13059714D+00 0.49597618D+00 0.65182826D+06 0.65182826D+06 0.65182826D+06 0.10604652D+01  1  2  8  3  6  4        1 -.224233809342D-03 0.100000000000D+01
-.126406522057D-03 0.000000000000D+00 0.000000000000D+00 0.150577457017D-04 0.000000000000D+00  6 1 2 25 1 2 21 2 0.13059714D+00 0.49597618D+00 0.65182826D+06 0.65182826D+06 0.65182826D+06 0.10604652D+01  1  2  9  3  6  4        1 -.495976796493D-04 0.100000000000D+01
0.141387095987D-03 0.000000000000D+00 0.000000000000D+00 0.150577457017D-04 0.000000000000D+00  6 1 2 25 1 2 21 2 0.13059714D+00 0.49597618D+00 0.65182826D+06 0.65182826D+06 0.65182826D+06 0.10604652D+01  1  2 10  3  6  4        1 0.554755544192D-04 0.100000000000D+01
0.170059721168D-01 0.000000000000D+00 0.000000000000D+00 0.150577457017D-04 0.129151376107D-06  6 1 2 25 1 2 21 2 0.13059714D+00 0.49597618D+00 0.65004649D+06 0.65004649D+06 0.65004649D+06 0.10605473D+01  1  2  1  3  6  4        1 0.667526761289D-02 0.100000000000D+01
  </mgrwgt>
  </event>
  <event>
  6     66 0.17698235E-05 0.21382857E+02 0.75467711E-02 0.92235402E-01
        1 -1    0    0  501    0 0.00000000E+00 0.00000000E+00 0.19547977E+04 0.19547978E+04 0.32000000E+00 0.0000E+00 0.9000E+01
        2 -1    0    0  503    0 0.00000000E+00 0.00000000E+00 -.22667312E+04 0.22667312E+04 0.32000000E+00 0.0000E+00 0.9000E+01
       25  1    1    2    0    0 0.52356473E+03 -.28589316E+03 -.72437365E+03 0.94667688E+03 0.12500000E+03 0.0000E+00 0.9000E+01
        1  1    1    2  501    0 0.17866219E+02 0.23935017E+02 0.17786659E+04 0.17789166E+04 0.32000000E+00 0.0000E+00 0.9000E+01
        2  1    1    2  502    0 -.52302973E+03 0.25829720E+03 -.12654828E+04 0.13934577E+04 0.32000000E+00 0.0000E+00 0.9000E+01
       21  1    1    2  503  502 -.18401215E+02 0.36609385E+01 -.10074285E+03 0.10247776E+03 0.75000000E+00 0.0000E+00 0.9000E+01
#aMCatNLO 2  0  0  2  5 0.18761855D+02 0.00000000D+00  -5  6  0 0.00000000D+00 0.00000000D+00 0.00000000D+00 0.00000000D+00 0.00000000D+00
  <mgrwgt>
 0.6940514815D-02    6    2    0
 0.205679542858084D+04 0.000000000000000D+00 0.000000000000000D+00 0.205679542858084D+04
 0.205679542858084D+04 0.000000000000000D+00 0.000000000000000D+00 -.205679542858084D+04
 0.908158364868456D+03 0.519525096443452D+03 -.285098186727665D+03 -.676712135084459D+03
 0.187251604228946D+04 0.948971322651463D+01 0.256012435303168D+02 0.187231697377980D+04
 0.133291645000376D+04 -.529014809669967D+03 0.259496943197348D+03 -.119560483869534D+04
 0.000000000000000D+00 -.000000000000000D+00 0.000000000000000D+00 -.000000000000000D+00
 0.205772851128771D+04 0.000000000000000D+00 0.000000000000000D+00 0.205772851128771D+04
 0.215334284541991D+04 0.000000000000000D+00 0.000000000000000D+00 -.215334284541991D+04
 0.910745514785148D+03 0.523593302189317D+03 -.285907559944090D+03 -.676712135084459D+03
 0.187255518437053D+04 0.178660328624230D+02 0.239347671549739D+02 0.187231697377980D+04
 0.133033294366191D+04 -.523058119705654D+03 0.258311854335861D+03 -.119560483869534D+04
 0.974377138900332D+02 -.184012153460865D+02 0.366093845325471D+01 -.956143341322022D+02
-.562775497070D-01 0.000000000000D+00 0.000000000000D+00 0.218471676868D-03 0.000000000000D+00  6 1 2 25 1 2 21 2 0.30060154D+00 0.35102424D+00 0.38534128D+06 0.38534128D+06 0.38534128D+06 0.10765985D+01  1  2 13  2  6  2        2 -.148740104341D-01 0.100000000000D+01
-.231238659025D-09 0.000000000000D+00 0.000000000000D+00 0.218471676868D-03 0.000000000000D+00  6 1 2 25 1 2 21 2 0.30060154D+00 0.34880889D+00 0.38534128D+06 0.38534128D+06 0.38534128D+06 0.10765985D+01  1  2 13  2  6  2        2 -.622705469434D-10 0.100000000000D+01
-.151125042070D+00 0.000000000000D+00 0.000000000000D+00 0.218471676868D-03 0.000000000000D+00  6 1 2 25 1 2 21 2 0.30060154D+00 0.33309206D+00 0.37343502D+06 0.37343502D+06 0.37343502D+06 0.10775857D+01  1  2  8  2  6  2        2 -.466676053246D-01 0.100000000000D+01
-.887664831680D-01 0.000000000000D+00 0.000000000000D+00 0.218471676868D-03 0.000000000000D+00  6 1 2 25 1 2 21 2 0.30060154D+00 0.34877831D+00 0.37343502D+06 0.37343502D+06 0.37343502D+06 0.10775857D+01  1  2  9  2  6  2        2 -.240299624793D-01 0.100000000000D+01
0.886725792248D-01 0.000000000000D+00 0.000000000000D+00 0.218471676868D-03 0.000000000000D+00  6 1 2 25 1 2 21 2 0.30060154D+00 0.33309206D+00 0.37343502D+06 0.37343502D+06 0.37343502D+06 0.10775857D+01  1  2 10  2  6  2        2 0.273822053161D-01 0.100000000000D+01
0.242020283433D+00 0.000000000000D+00 0.000000000000D+00 0.218471676868D-03 0.102111349399D-04  6 1 2 25 1 2 21 2 0.30073791D+00 0.34872764D+00 0.38534128D+06 0.38534128D+06 0.38534128D+06 0.10765985D+01  1  2  1  2  6  2        2 0.651298877992D-01 0.100000000000D+01
  </mgrwgt>
  </event>
  <event>
  5     66 -.17698235E-05 0.31366014E+02 0.75467711E-02 0.94948913E-01
        1 -1    0    0  501    0 0.00000000E+00 0.00000000E+00 0.52081264E+03 0.52081273E+03 0.32000000E+00 0.0000E+00 0.9000E+01
        2 -1    0    0  502    0 -.00000000E+00 -.00000000E+00 -.56140139E+03 0.56140148E+03 0.32000000E+00 0.0000E+00 0.9000E+01
       25  1    1    2    0    0 -.23789566E+01 -.47714558E+03 0.69751438E+02 0.49816044E+03 0.12500000E+03 0.0000E+00 0.9000E+01
        1  1    1    2  501    0 -.74002438E+01 0.44734780E+03 0.22096176E+02 0.44795442E+03 0.32000000E+00 0.0000E+00 0.9000E+01
        2  1    1    2  502    0 0.97792004E+01 0.29797784E+02 -.13243637E+03 0.13609936E+03 0.32000000E+00 0.0000E+00 0.9000E+01
#aMCatNLO 1  0  0  5  2 0.25098794D+01 0.00000000D+00  -5  6  0 0.00000000D+00 0.00000000D+00 0.00000000D+00 0.00000000D+00 0.00000000D+00
  <mgrwgt>
 -.4388774551D-01    9    2    0
 0.540726401590084D+03 0.000000000000000D+00 0.000000000000000D+00 0.540726401590084D+03
 0.540726401590084D+03 -.000000000000000D+00 -.000000000000000D+00 -.540726401590084D+03
 0.501120210848200D+03 -.238048715446815D+01 -.477130670381728D+03 0.885275233051005D+02
 0.449079608405568D+03 -.739992430475769D+01 0.447328482870121D+03 0.389225412723449D+02
 0.131252983926400D+03 0.978041145922584D+01 0.298021875116060D+02 -.127450064577445D+03
 0.000000000000000D+00 0.000000000000000D+00 0.000000000000000D+00 -.000000000000000D+00
 0.540726401590084D+03 0.000000000000000D+00 0.000000000000000D+00 0.540726401590084D+03
 0.540726401590084D+03 -.000000000000000D+00 -.000000000000000D+00 -.540726401590084D+03
 0.501102738545711D+03 -.237713198131475D+01 -.477120446732153D+03 0.884838015213235D+02
 0.449085291067561D+03 -.739691748999670D+01 0.447337645026304D+03 0.388833590010204D+02
 0.727684644123355D+02 0.563818204488746D+01 0.189437647110478D+02 -.700328072743804D+02
 0.584963091545603D+02 0.413586742642398D+01 0.108390369948014D+02 -.573343532479635D+02
0.506125041904D-05 0.000000000000D+00 0.000000000000D+00 0.141290103588D-06 0.000000000000D+00  6 1 2 25 1 2 21 0 0.80125035D-01 0.86369460D-01 0.23619324D+06 0.23619324D+06 0.23619324D+06 0.10923201D+01  1  2  2  4  6  5        2 0.161647023984D-03 0.100000000000D+01
0.153531041054D-05 0.000000000000D+00 -.194365342670D-07 0.141290103588D-06 0.000000000000D+00  6 1 2 25 1 2 21 2 0.80125035D-01 0.86369460D-01 0.23619324D+06 0.23619324D+06 0.23619324D+06 0.10923201D+01  1  2  3  4  6  5        2 0.585067425061D-04 0.100000000000D+01
-.334763144976D-05 0.000000000000D+00 0.000000000000D+00 0.141290103588D-06 0.000000000000D+00  6 1 2 25 1 2 21 2 0.80125035D-01 0.86369460D-01 0.23619324D+06 0.23619324D+06 0.23619324D+06 0.10923201D+01  1  2 15  4  6  5        2 -.127569649689D-03 0.100000000000D+01
0.352423073860D-05 0.000000000000D+00 0.000000000000D+00 0.141290103588D-06 0.000000000000D+00  6 1 2 25 1 2 21 2 0.80125035D-01 0.86369460D-01 0.23619300D+06 0.23619300D+06 0.23619300D+06 0.10923201D+01  1  2 12  4  6  5        2 0.134299407587D-03 0.100000000000D+01
0.154330621725D-07 0.000000000000D+00 0.000000000000D+00 0.141290103588D-06 0.000000000000D+00  6 1 2 25 1 2 21 2 0.80125035D-01 0.86369460D-01 0.23619300D+06 0.23619300D+06 0.23619300D+06 0.10923201D+01  1  2 12  4  6  5        2 0.588114473983D-06 0.100000000000D+01
-.287786772638D-02 0.000000000000D+00 0.000000000000D+00 0.141290103588D-06 0.000000000000D+00  6 1 2 25 1 2 21 2 0.80125035D-01 0.86369460D-01 0.23619324D+06 0.23619324D+06 0.23619324D+06 0.10923201D+01  1  2  4  4  6  5        2 -.109668158880D+00 0.100000000000D+01
-.690514259892D-03 0.000000000000D+00 0.000000000000D+00 0.141290103588D-06 0.000000000000D+00  6 1 2 25 1 2 21 2 0.80125035D-01 0.86369460D-01 0.23619324D+06 0.23619324D+06 0.23619324D+06 0.10923201D+01  1  2  5  4  6  5        2 -.263137276494D-01 0.100000000000D+01
0.139665092252D-02 0.000000000000D+00 -.000000000000D+00 0.141290103588D-06 0.000000000000D+00  6 1 2 25 1 2 21 2 0.80125035D-01 0.86369460D-01 0.23619324D+06 0.23619324D+06 0.23619324D+06 0.10923201D+01  1  2  6  4  6  5        2 0.532227850043D-01 0.100000000000D+01
0.101407718480D-02 0.000000000000D+00 0.000000000000D+00 0.141290103588D-06 0.765462765667D-07  6 1 2 25 1 2 21 2 0.80125035D-01 0.86369460D-01 0.23619300D+06 0.23619300D+06 0.23619300D+06 0.10923201D+01  1  2 11  4  6  5        2 0.386438843733D-01 0.100000000000D+01
  </mgrwgt>
  </event>
  <event>
  5     66 -.17698235E-05 0.14926990E+03 0.75467711E-02 0.94184486E-01
        1 -1    0    0  501    0 0.00000000E+00 0.00000000E+00 0.63524384E+03 0.63524392E+03 0.32000000E+00 0.0000E+00 0.9000E+01
        2 -1    0    0  502    0 0.00000000E+00 0.00000000E+00 -.14137791E+04 0.14137791E+04 0.32000000E+00 0.0000E+00 0.9000E+01
       25  1    1    2    0    0 -.43026727E+03 -.19892233E+03 -.47426775E+03 0.68209598E+03 0.12500000E+03 0.0000E+00 0.9000E+01
        1  1    1    2  501    0 0.76584152E+02 0.12813857E+03 0.48054346E+03 0.50319653E+03 0.32000000E+00 0.0000E+00 0.9000E+01
        2  1    1    2  502    0 0.35368312E+03 0.70783760E+02 -.78481093E+03 0.86373051E+03 0.32000000E+00 0.0000E+00 0.9000E+01
#aMCatNLO 1  0  0  2  5 0.48300875D+02 0.00000000D+00  -5  6  0 0.00000000D+00 0.00000000D+00 0.00000000D+00 0.00000000D+00 0.00000000D+00
  <mgrwgt>
 -.1306537414D-01   11    2    0
 0.947678509762244D+03 0.000000000000000D+00 0.000000000000000D+00 0.947678509762244D+03
 0.947678509762244D+03 0.000000000000000D+00 0.000000000000000D+00 -.947678509762244D+03
 0.542598942216787D+03 -.430312468754091D+03 -.198929568596634D+03 -.232479715389306D+03
 0.741328787346319D+03 0.765787875812867D+02 0.128129589190943D+03 0.726145211796307D+03
 0.611429289961382D+03 0.353733681172804D+03 0.707999794056908D+02 -.493665496407001D+03
 0.000000000000000D+00 0.000000000000000D+00 -.000000000000000D+00 -.000000000000000D+00
 0.949613723345487D+03 0.000000000000000D+00 0.000000000000000D+00 0.949613723345487D+03
 0.130634491999104D+04 0.000000000000000D+00 0.000000000000000D+00 -.130634491999104D+04
 0.552642629041219D+03 -.444035277168767D+03 -.196404506047478D+03 -.232479715389306D+03
 0.740241067465187D+03 0.580154862931649D+02 0.131545325638973D+03 0.726145211796307D+03
 0.603088667728392D+03 0.338516401545244D+03 0.736000318240059D+02 -.493665496407001D+03
 0.359986279101728D+03 0.475033893303579D+02 -.874085141550127D+01 -.356731196645552D+03
0.489460891677D-04 0.000000000000D+00 0.000000000000D+00 0.284351369220D-05 0.000000000000D+00  6 1 2 25 1 2 21 0 0.97729830D-01 0.21750448D+00 0.25014577D+06 0.25014577D+06 0.25014577D+06 0.10904401D+01  1  2  2  2  6  2        2 0.325332746211D-03 0.100000000000D+01
0.709402318174D-05 0.000000000000D+00 -.187965870205D-06 0.284351369220D-05 0.000000000000D+00  6 1 2 25 1 2 21 2 0.97729830D-01 0.21750448D+00 0.25014577D+06 0.25014577D+06 0.25014577D+06 0.10904401D+01  1  2  3  2  6  2        2 0.560668277105D-04 0.100000000000D+01
-.307793063412D-04 0.000000000000D+00 0.000000000000D+00 0.284351369220D-05 0.000000000000D+00  6 1 2 25 1 2 21 2 0.97729830D-01 0.21750448D+00 0.25014577D+06 0.25014577D+06 0.25014577D+06 0.10904401D+01  1  2 15  2  6  2        2 -.243260843878D-03 0.100000000000D+01
0.283471416581D-02 0.000000000000D+00 0.000000000000D+00 0.284351369220D-05 0.000000000000D+00  6 1 2 25 1 2 21 2 0.97729830D-01 0.30381367D+00 0.27032807D+06 0.27032807D+06 0.27032807D+06 0.10879141D+01  1  2 12  2  6  2        2 0.109703785269D-01 0.100000000000D+01
0.214090695662D-07 0.000000000000D+00 0.000000000000D+00 0.284351369220D-05 0.000000000000D+00  6 1 2 25 1 2 21 2 0.97729830D-01 0.30005791D+00 0.27032807D+06 0.27032807D+06 0.27032807D+06 0.10879141D+01  1  2 12  2  6  2        2 0.854383823487D-07 0.100000000000D+01
-.438922464866D-02 0.000000000000D+00 0.000000000000D+00 0.284351369220D-05 0.000000000000D+00  6 1 2 25 1 2 21 2 0.97729830D-01 0.21750448D+00 0.25014577D+06 0.25014577D+06 0.25014577D+06 0.10904401D+01  1  2  4  2  6  2        2 -.346897516197D-01 0.100000000000D+01
-.299391655591D-02 0.000000000000D+00 -.370680813359D-04 0.284351369220D-05 0.000000000000D+00  6 1 2 25 1 2 21 2 0.97729830D-01 0.30000487D+00 0.25014577D+06 0.25014577D+06 0.25014577D+06 0.10904401D+01  1  2  5  2  6  2        2 -.120678289790D-01 0.100000000000D+01
0.285858822075D-02 0.000000000000D+00 0.352306700624D-04 0.284351369220D-05 0.000000000000D+00  6 1 2 25 1 2 21 2 0.97729830D-01 0.21750448D+00 0.25014577D+06 0.25014577D+06 0.25014577D+06 0.10904401D+01  1  2  6  2  6  2        2 0.225925358802D-01 0.100000000000D+01
0.118444314354D-03 0.000000000000D+00 0.000000000000D+00 0.284351369220D-05 0.000000000000D+00  6 1 21 25 1 2 -2 2 0.97729830D-01 0.30381367D+00 0.27032807D+06 0.27032807D+06 0.27032807D+06 0.10879141D+01  1  2 12  6  6  2        2 0.939485524022D-04 0.100000000000D+01
0.870435816387D-09 0.000000000000D+00 0.000000000000D+00 0.284351369220D-05 0.000000000000D+00  6 1 21 25 1 2 -2 2 0.97729830D-01 0.30005791D+00 0.27032807D+06 0.27032807D+06 0.27032807D+06 0.10879141D+01  1  2 12  6  6  2        2 0.730987730177D-09 0.100000000000D+01
-.120752073190D-03 0.000000000000D+00 -.150649296286D-05 0.284351369220D-05 0.000000000000D+00  6 1 21 25 1 2 -2 2 0.97729830D-01 0.30000487D+00 0.25014577D+06 0.25014577D+06 0.25014577D+06 0.10904401D+01  1  2  5  6  6  2        2 -.102881404362D-03 0.100000000000D+01
  </mgrwgt>
  </event>
  <event>
  5     66 -.17698235E-05 0.81152244E+02 0.75467711E-02 0.94185579E-01
        1 -1    0    0  501    0 0.00000000E+00 0.00000000E+00 0.70888527E+03 0.70888534E+03 0.32000000E+00 0.0000E+00 0.9000E+01
        2 -1    0    0  502    0 0.00000000E+00 0.00000000E+00 -.67536185E+03 0.67536193E+03 0.32000000E+00 0.0000E+00 0.9000E+01
       25  1    1    2    0    0 -.25044120E+01 -.46254125E+03 0.21078927E+02 0.47960400E+03 0.12500000E+03 0.0000E+00 0.9000E+01
        1  1    1    2  501    0 -.69543292E+02 0.41889229E+02 0.35076231E+03 0.36003511E+03 0.32000000E+00 0.0000E+00 0.9000E+01
        2  1    1    2  502    0 0.72047704E+02 0.42065202E+03 -.33831782E+03 0.54460816E+03 0.32000000E+00 0.0000E+00 0.9000E+01
#aMCatNLO 1  0  0  2  5 0.49019002D+02 0.00000000D+00  -5  6  0 0.00000000D+00 0.00000000D+00 0.00000000D+00 0.00000000D+00 0.00000000D+00
  <mgrwgt>
 -.8828392855D-02   11    2    0
 0.691920638874536D+03 0.000000000000000D+00 0.000000000000000D+00 0.691920638874536D+03
 0.691920638874536D+03 0.000000000000000D+00 0.000000000000000D+00 -.691920638874536D+03
 0.479314641165936D+03 -.253542761817403D+01 -.462622177527216D+03 0.958215543604882D+01
 0.351502259555704D+03 -.695153770000775D+02 0.418724145298100D+02 0.342006069733779D+03
 0.553024377027432D+03 0.720508046182515D+02 0.420749762997406D+03 -.351588225169827D+03
 0.000000000000000D+00 0.000000000000000D+00 0.000000000000000D+00 -.000000000000000D+00
 0.694260747838887D+03 0.000000000000000D+00 0.000000000000000D+00 0.694260747838887D+03
 0.100750028321908D+04 0.000000000000000D+00 0.000000000000000D+00 -.100750028321908D+04
 0.487446521576618D+03 -.176161385644675D+02 -.470719624996049D+03 0.958215543604882D+01
 0.353190509663855D+03 -.805080278926674D+02 0.359700128815744D+02 0.342006069733779D+03
 0.544072160088968D+03 0.549369647226807D+02 0.411560645850481D+03 -.351588225169827D+03
 0.317051839728529D+03 0.431872017344541D+02 0.231889662639936D+02 -.313239535380194D+03
0.439208893988D-04 0.000000000000D+00 0.000000000000D+00 0.114157275389D-05 0.000000000000D+00  6 1 2 25 1 2 21 0 0.10905928D+00 0.10390183D+00 0.24366338D+06 0.24366338D+06 0.24366338D+06 0.10912989D+01  1  2  2  2  6  2        2 0.718198945258D-03 0.100000000000D+01
0.880813251378D-05 0.000000000000D+00 -.168667779927D-06 0.114157275389D-05 0.000000000000D+00  6 1 2 25 1 2 21 2 0.10905928D+00 0.10390183D+00 0.24366338D+06 0.24366338D+06 0.24366338D+06 0.10912989D+01  1  2  3  2  6  2        2 0.171531902680D-03 0.100000000000D+01
-.245667018113D-04 0.000000000000D+00 0.000000000000D+00 0.114157275389D-05 0.000000000000D+00  6 1 2 25 1 2 21 2 0.10905928D+00 0.10390183D+00 0.24366338D+06 0.24366338D+06 0.24366338D+06 0.10912989D+01  1  2 15  2  6  2        2 -.478418449960D-03 0.100000000000D+01
0.189980973826D-02 0.000000000000D+00 0.000000000000D+00 0.114157275389D-05 0.000000000000D+00  6 1 2 25 1 2 21 2 0.10905928D+00 0.15261416D+00 0.27027550D+06 0.27027550D+06 0.27027550D+06 0.10879204D+01  1  2 12  2  6  2        2 0.222095468211D-01 0.100000000000D+01
0.166828974388D-06 0.000000000000D+00 0.000000000000D+00 0.114157275389D-05 0.000000000000D+00  6 1 2 25 1 2 21 2 0.10905928D+00 0.15161052D+00 0.27027550D+06 0.27027550D+06 0.27027550D+06 0.10879204D+01  1  2 12  2  6  2        2 0.196864766022D-05 0.100000000000D+01
-.225700106381D-02 0.000000000000D+00 0.000000000000D+00 0.114157275389D-05 0.000000000000D+00  6 1 2 25 1 2 21 2 0.10905928D+00 0.10390183D+00 0.24366338D+06 0.24366338D+06 0.24366338D+06 0.10912989D+01  1  2  4  2  6  2        2 -.439534357846D-01 0.100000000000D+01
-.196973837710D-02 0.000000000000D+00 -.339798161018D-04 0.114157275389D-05 0.000000000000D+00  6 1 2 25 1 2 21 2 0.10905928D+00 0.15147264D+00 0.24366338D+06 0.24366338D+06 0.24366338D+06 0.10912989D+01  1  2  5  2  6  2        2 -.235229315261D-01 0.100000000000D+01
0.185170002331D-02 0.000000000000D+00 0.317007192982D-04 0.114157275389D-05 0.000000000000D+00  6 1 2 25 1 2 21 2 0.10905928D+00 0.10390183D+00 0.24366338D+06 0.24366338D+06 0.24366338D+06 0.10912989D+01  1  2  6  2  6  2        2 0.360604961034D-01 0.100000000000D+01
0.878489355356D-04 0.000000000000D+00 0.000000000000D+00 0.114157275389D-05 0.000000000000D+00  6 1 21 25 1 2 -2 2 0.10905928D+00 0.15261416D+00 0.27027550D+06 0.27027550D+06 0.27027550D+06 0.10879204D+01  1  2 12  6  6  2        2 0.727733920662D-03 0.100000000000D+01
0.761774448612D-08 0.000000000000D+00 0.000000000000D+00 0.114157275389D-05 0.000000000000D+00  6 1 21 25 1 2 -2 2 0.10905928D+00 0.15161052D+00 0.27027550D+06 0.27027550D+06 0.27027550D+06 0.10879204D+01  1  2 12  6  6  2        2 0.643635232863D-07 0.100000000000D+01
-.887161287951D-04 0.000000000000D+00 -.154887019737D-05 0.114157275389D-05 0.000000000000D+00  6 1 21 25 1 2 -2 2 0.10905928D+00 0.15147264D+00 0.24366338D+06 0.24366338D+06 0.24366338D+06 0.10912989D+01  1  2  5  6  6  2        2 -.763147798228D-03 0.100000000000D+01
  </mgrwgt>
  </event>
  <event>
  5     66 0.17698235E-05 0.90984832E+02 0.75467711E-02 0.94828019E-01
        1 -1    0    0  501    0 0.00000000E+00 0.00000000E+00 0.91769591E+03 0.91769597E+03 0.32000000E+00 0.0000E+00 0.9000E+01
        2 -1    0    0  502    0 0.00000000E+00 0.00000000E+00 -.85734611E+03 0.85734617E+03 0.32000000E+00 0.0000E+00 0.9000E+01
       25  1    1    2    0    0 -.45339976E+03 0.22260151E+02 -.58013742E+02 0.47440220E+03 0.12500000E+03 0.0000E+00 0.9000E+01
        1  1    1    2  501    0 0.40819332E+03 -.10120733E+03 0.64292062E+03 0.76825239E+03 0.32000000E+00 0.0000E+00 0.9000E+01
        2  1    1    2  502    0 0.45206442E+02 0.78947182E+02 -.52455707E+03 0.53238755E+03 0.32000000E+00 0.0000E+00 0.9000E+01
#aMCatNLO 1  0  0  4  1 0.51503450D+02 0.00000000D+00  -5  6  0 0.00000000D+00 0.00000000D+00 0.00000000D+00 0.00000000D+00 0.00000000D+00
  <mgrwgt>
 0.4089894136D-01    3    2    0
 0.887007962549123D+03 0.000000000000000D+00 0.000000000000000D+00 0.887007962549123D+03
 0.887007962549123D+03 -.000000000000000D+00 -.000000000000000D+00 -.887007962549123D+03
 0.476628182813530D+03 -.453389695347768D+03 0.222473174474943D+02 -.741098216903575D+02
 0.746795281640584D+03 0.408176869374210D+03 -.101203254280998D+03 0.617132673994372D+03
 0.550592460644131D+03 0.452128259735583D+02 0.789559368335037D+02 -.543022852304015D+03
 0.000000000000000D+00 -.000000000000000D+00 0.000000000000000D+00 0.000000000000000D+00
 0.887007962549123D+03 0.000000000000000D+00 0.000000000000000D+00 0.887007962549123D+03
 0.887007962549123D+03 -.000000000000000D+00 -.000000000000000D+00 -.887007962549123D+03
 0.439118291311074D+03 -.420050633411651D+03 0.139812401271807D+02 -.237036718449647D+02
 0.130518979078365D+03 -.173232611415603D+02 0.107089018395104D+03 -.725744491005815D+02
 0.497328402545967D+03 0.833638858457144D+02 0.694967741444203D+02 -.485341324120608D+03
 0.707050252162841D+03 0.354010008707497D+03 -.190567032666705D+03 0.581619445066154D+03
0.829073787768D-02 0.000000000000D+00 0.000000000000D+00 0.645700745739D-05 0.000000000000D+00  6 1 2 25 1 2 21 0 0.14118400D+00 0.13189941D+00 0.24125391D+06 0.24125391D+06 0.24125391D+06 0.10916245D+01  1  2  2  3  6  4        1 0.664490181553D-01 0.100000000000D+01
0.179649182838D-02 0.000000000000D+00 -.318386164517D-04 0.645700745739D-05 0.000000000000D+00  6 1 2 25 1 2 21 2 0.14118400D+00 0.13189941D+00 0.24125391D+06 0.24125391D+06 0.24125391D+06 0.10916245D+01  1  2  3  3  6  4        1 0.171580201181D-01 0.100000000000D+01
-.447165503825D-02 0.000000000000D+00 0.000000000000D+00 0.645700745739D-05 0.000000000000D+00  6 1 2 25 1 2 21 2 0.14118400D+00 0.13189941D+00 0.24125391D+06 0.24125391D+06 0.24125391D+06 0.10916245D+01  1  2 15  3  6  4        1 -.427080969116D-01 0.100000000000D+01
  </mgrwgt>
  </event>
  <event>
  5     66 0.17698235E-05 0.30394219E+02 0.75467711E-02 0.94739494E-01
        1 -1    0    0  501    0 0.00000000E+00 0.00000000E+00 0.43190939E+03 0.43190951E+03 0.32000000E+00 0.0000E+00 0.9000E+01
        2 -1    0    0  502    0 -.00000000E+00 -.00000000E+00 -.27853889E+04 0.27853889E+04 0.32000000E+00 0.0000E+00 0.9000E+01
       25  1    1    2    0    0 -.46625337E+03 0.12572856E+03 -.15623596E+03 0.52271842E+03 0.12500000E+03 0.0000E+00 0.9000E+01
        1  1    1    2  501    0 0.28136045E+02 0.11516263E+02 0.22609733E+03 0.22813235E+03 0.32000000E+00 0.0000E+00 0.9000E+01
        2  1    1    2  502    0 0.43811732E+03 -.13724482E+03 -.24233409E+04 0.24664477E+04 0.32000000E+00 0.0000E+00 0.9000E+01
#aMCatNLO 1  0  0  4  5 0.21874143D+01 0.00000000D+00  -5  6  0 0.00000000D+00 0.00000000D+00 0.00000000D+00 0.00000000D+00 0.00000000D+00
  <mgrwgt>
 0.7067164587D-03    7    2    0
 0.109682990980102D+04 0.000000000000000D+00 0.000000000000000D+00 0.109682990980102D+04
 0.109682990980102D+04 -.000000000000000D+00 -.000000000000000D+00 -.109682990980102D+04
 0.599138962842216D+03 -.466308073526974D+03 0.125749859118039D+03 0.331792480763206D+03
 0.577015138061922D+03 0.281291520273297D+02 0.115134418239577D+02 0.576214075683863D+03
 0.101750571869791D+04 0.438178921499644D+03 -.137263300941997D+03 -.908006556447070D+03
 0.000000000000000D+00 0.000000000000000D+00 0.000000000000000D+00 0.000000000000000D+00
 0.109682990980102D+04 0.000000000000000D+00 0.000000000000000D+00 0.109682990980102D+04
 0.109682990980102D+04 -.000000000000000D+00 -.000000000000000D+00 -.109682990980102D+04
 0.599220423994196D+03 -.466300427155886D+03 0.125752988826627D+03 0.331949113520720D+03
 0.572683909987398D+03 0.266294106905476D+02 0.131944379152789D+02 0.571912267793609D+03
 0.101727326455937D+04 0.438191904812795D+03 -.137257986788889D+03 -.907740598632928D+03
 0.448222106108798D+01 0.147911165254312D+01 -.168943995301678D+01 0.387921731859953D+01
0.117753723233D-03 0.000000000000D+00 0.000000000000D+00 0.632313805793D-04 0.000000000000D+00  6 1 2 25 1 2 21 0 0.66447609D-01 0.42852138D+00 0.24425812D+06 0.24425812D+06 0.24425812D+06 0.10912191D+01  1  2  2  3  6  4        1 0.230657059801D-03 0.100000000000D+01
0.609859389164D-04 0.000000000000D+00 -.452205302482D-06 0.632313805793D-04 0.000000000000D+00  6 1 2 25 1 2 21 2 0.66447609D-01 0.42852138D+00 0.24425812D+06 0.24425812D+06 0.24425812D+06 0.10912191D+01  1  2  3  3  6  4        1 0.142247848378D-03 0.100000000000D+01
-.743732957314D-04 0.000000000000D+00 0.000000000000D+00 0.632313805793D-04 0.000000000000D+00  6 1 2 25 1 2 21 2 0.66447609D-01 0.42852138D+00 0.24425812D+06 0.24425812D+06 0.24425812D+06 0.10912191D+01  1  2 15  3  6  4        1 -.173473451136D-03 0.100000000000D+01
-.349151885964D-03 0.000000000000D+00 0.000000000000D+00 0.632313805793D-04 0.000000000000D+00  6 1 2 25 1 2 21 2 0.66447609D-01 0.42852138D+00 0.24425812D+06 0.24425812D+06 0.24425812D+06 0.10912191D+01  1  2  4  3  6  4        1 -.814386158813D-03 0.100000000000D+01
-.318732762461D-01 0.000000000000D+00 0.000000000000D+00 0.632313805793D-04 0.000000000000D+00  6 1 2 25 1 2 21 2 0.66447609D-01 0.42852138D+00 0.24425812D+06 0.24425812D+06 0.24425812D+06 0.10912191D+01  1  2  5  3  6  4        1 -.743434478069D-01 0.100000000000D+01
0.321218276617D-01 0.000000000000D+00 -.000000000000D+00 0.632313805793D-04 0.000000000000D+00  6 1 2 25 1 2 21 2 0.66447609D-01 0.42852138D+00 0.24425812D+06 0.24425812D+06 0.24425812D+06 0.10912191D+01  1  2  6  3  6  4        1 0.749231864270D-01 0.100000000000D+01
0.318223882638D-03 0.000000000000D+00 0.000000000000D+00 0.632313805793D-04 0.106182330004D-05  6 1 2 25 1 2 21 2 0.66447609D-01 0.42852138D+00 0.24503698D+06 0.24503698D+06 0.24503698D+06 0.10911148D+01  1  2 11  3  6  4        1 0.741932540381D-03 0.100000000000D+01
  </mgrwgt>
  </event>
  <event>
  5     66 -.17698235E-05 0.43570979E+02 0.75467711E-02 0.93764056E-01
        1 -1    0    0  501    0 0.00000000E+00 0.00000000E+00 0.58430920E+03 0.58430929E+03 0.32000000E+00 0.0000E+00 0.9000E+01
        2 -1    0    0  502    0 0.00000000E+00 0.00000000E+00 -.13652394E+04 0.13652394E+04 0.32000000E+00 0.0000E+00 0.9000E+01
       25  1    1    2    0    0 0.27195858E+03 -.40605761E+03 -.47427222E+03 0.69238962E+03 0.12500000E+03 0.0000E+00 0.9000E+01
        1  1    1    2  501    0 0.30855750E+02 -.30772601E+02 0.38354450E+03 0.38601233E+03 0.32000000E+00 0.0000E+00 0.9000E+01
        2  1    1    2  502    0 -.30281433E+03 0.43683021E+03 -.69020244E+03 0.87114675E+03 0.32000000E+00 0.0000E+00 0.9000E+01
#aMCatNLO 1  0  0  1  4 0.84669948D+02 0.00000000D+00  -5  6  0 0.00000000D+00 0.00000000D+00 0.00000000D+00 0.00000000D+00 0.00000000D+00
  <mgrwgt>
 -.5649530975D-02    5    2    0
 0.893152868730578D+03 0.000000000000000D+00 0.000000000000000D+00 0.893152868730578D+03
 0.893152868730578D+03 0.000000000000000D+00 0.000000000000000D+00 -.893152868730578D+03
 0.548382819040854D+03 0.272006823000877D+03 -.406126971648372D+03 -.214876446731339D+03
 0.588871706238574D+03 0.308508751236668D+02 -.307677388756106D+02 0.587257572243147D+03
 0.649051212181729D+03 -.302857698124544D+03 0.436894710523982D+03 -.372381125511808D+03
 0.000000000000000D+00 0.000000000000000D+00 -.000000000000000D+00 0.000000000000000D+00
 0.294198546979721D+04 0.000000000000000D+00 0.000000000000000D+00 0.294198546979721D+04
 0.914566037608628D+03 0.000000000000000D+00 0.000000000000000D+00 -.914566037608628D+03
 0.508831679631597D+03 0.187997326930403D+03 -.402206160947155D+03 -.214876446731339D+03
 0.591208185142606D+03 -.629218806627132D+02 -.263912666722611D+02 0.587257572243147D+03
 0.709017804512702D+03 -.410774013938115D+03 0.441931277408312D+03 -.372381125511808D+03
 0.204749383811893D+04 0.285698567670424D+03 -.133338497888955D+02 0.202741943218858D+04
0.445356915747D-03 0.000000000000D+00 0.000000000000D+00 0.466181195385D-05 0.000000000000D+00  6 1 2 25 1 2 21 0 0.89893733D-01 0.21003683D+00 0.29143987D+06 0.29143987D+06 0.29143987D+06 0.10854832D+01  1  2  2  1  6  1        1 0.353276808441D-02 0.100000000000D+01
0.211065201741D-03 0.000000000000D+00 -.171028782164D-05 0.466181195385D-05 0.000000000000D+00  6 1 2 25 1 2 21 2 0.89893733D-01 0.21003683D+00 0.29143987D+06 0.29143987D+06 0.29143987D+06 0.10854832D+01  1  2  3  1  6  1        1 0.197273983574D-02 0.100000000000D+01
-.298733083009D-03 0.000000000000D+00 0.000000000000D+00 0.466181195385D-05 0.000000000000D+00  6 1 2 25 1 2 21 2 0.89893733D-01 0.21003683D+00 0.29143987D+06 0.29143987D+06 0.29143987D+06 0.10854832D+01  1  2 15  1  6  1        1 -.279213554980D-02 0.100000000000D+01
-.856120428035D-02 0.000000000000D+00 -.290914667371D-03 0.466181195385D-05 0.000000000000D+00  6 1 2 25 1 2 21 2 0.29742185D+00 0.21003683D+00 0.29143987D+06 0.29143987D+06 0.29143987D+06 0.10854832D+01  1  2  5  1  6  1        1 -.779248921764D-02 0.100000000000D+01
-.117542176118D-02 0.000000000000D+00 -.403298181203D-04 0.466181195385D-05 0.000000000000D+00  6 21 2 25 1 2 -1 2 0.29742185D+00 0.21003683D+00 0.29143987D+06 0.29143987D+06 0.29143987D+06 0.10854832D+01  1  2  5  5  6  1        1 -.570414127789D-03 0.100000000000D+01
  </mgrwgt>
  </event>
  <event>
  5     66 0.17698235E-05 0.50077384E+02 0.75467711E-02 0.94962880E-01
        1 -1    0    0  501    0 0.00000000E+00 0.00000000E+00 0.13136602E+04 0.13136602E+04 0.32000000E+00 0.0000E+00 0.9000E+01
        2 -1    0    0  502    0 0.00000000E+00 0.00000000E+00 -.11000676E+04 0.11000676E+04 0.32000000E+00 0.0000E+00 0.9000E+01
       25  1    1    2    0    0 -.36346343E+03 0.28659430E+03 -.93616283E+02 0.48849868E+03 0.12500000E+03 0.0000E+00 0.9000E+01
        1  1    1    2  501    0 0.31750938E+03 -.30648314E+03 0.10717510E+04 0.11590490E+04 0.32000000E+00 0.0000E+00 0.9000E+01
        2  1    1    2  502    0 0.45954050E+02 0.19888842E+02 -.76454216E+03 0.76618023E+03 0.32000000E+00 0.0000E+00 0.9000E+01
#aMCatNLO 1  0  0  1  5 0.61644962D+02 0.00000000D+00  -5  6  0 0.00000000D+00 0.00000000D+00 0.00000000D+00 0.00000000D+00 0.00000000D+00
  <mgrwgt>
 0.5312226341D-01    7    2    0
 0.120212940667982D+04 0.000000000000000D+00 0.000000000000000D+00 0.120212940667982D+04
 0.120212940667982D+04 0.000000000000000D+00 0.000000000000000D+00 -.120212940667982D+04
 0.498717136399512D+03 -.363461280978122D+03 0.286587180013120D+03 -.137322494954031D+03
 0.106838023352506D+04 0.317503443751038D+03 -.306477417441731D+03 0.972984829887668D+03
 0.837161443435074D+03 0.459578372270841D+02 0.198902374286110D+02 -.835662334933637D+03
 0.000000000000000D+00 -.000000000000000D+00 0.000000000000000D+00 0.000000000000000D+00
 0.188755135444895D+04 0.000000000000000D+00 0.000000000000000D+00 0.188755135444895D+04
 0.128926511512363D+04 0.000000000000000D+00 0.000000000000000D+00 -.128926511512363D+04
 0.431163880547444D+03 -.324721466787794D+03 0.214419666251756D+03 -.137322494954031D+03
 0.115969366362333D+04 0.410327328962979D+03 -.479396910047058D+03 0.972984829887668D+03
 0.851001632680966D+03 0.116288473835228D+03 -.111127096839630D+03 -.835662334933637D+03
 0.734957292720847D+03 -.201894336010413D+03 0.376104340634933D+03 0.598286239325319D+03
0.862188659421D-02 0.000000000000D+00 0.000000000000D+00 0.915802764161D-04 0.000000000000D+00  6 1 2 25 1 2 21 0 0.20210157D+00 0.16924118D+00 0.23561602D+06 0.23561602D+06 0.23561602D+06 0.10924005D+01  1  2  2  1  6  1        1 0.249752073532D-01 0.100000000000D+01
0.364698524977D-02 0.000000000000D+00 -.331103147166D-04 0.915802764161D-04 0.000000000000D+00  6 1 2 25 1 2 21 2 0.20210157D+00 0.16924118D+00 0.23561602D+06 0.23561602D+06 0.23561602D+06 0.10924005D+01  1  2  3  1  6  1        1 0.126067908103D-01 0.100000000000D+01
-.555730544318D-02 0.000000000000D+00 0.000000000000D+00 0.915802764161D-04 0.000000000000D+00  6 1 2 25 1 2 21 2 0.20210157D+00 0.16924118D+00 0.23561602D+06 0.23561602D+06 0.23561602D+06 0.10924005D+01  1  2 15  1  6  1        1 -.192103291878D-01 0.100000000000D+01
-.193771067829D-02 0.000000000000D+00 0.000000000000D+00 0.915802764161D-04 0.000000000000D+00  6 1 2 25 1 2 21 2 0.20210157D+00 0.16924118D+00 0.23561602D+06 0.23561602D+06 0.23561602D+06 0.10924005D+01  1  2  4  1  6  1        1 -.669822099598D-02 0.100000000000D+01
-.151566009054D-01 0.000000000000D+00 -.562856660311D-02 0.915802764161D-04 0.000000000000D+00  6 1 2 25 1 2 21 2 0.32490446D+00 0.16924118D+00 0.23561602D+06 0.23561602D+06 0.23561602D+06 0.10924005D+01  1  2  5  1  6  1        1 -.153558926812D-01 0.100000000000D+01
0.165124352090D-01 0.000000000000D+00 0.504880385940D-02 0.915802764161D-04 0.000000000000D+00  6 1 2 25 1 2 21 2 0.20210157D+00 0.16924118D+00 0.23561602D+06 0.23561602D+06 0.23561602D+06 0.10924005D+01  1  2  6  1  6  1        1 0.570796979397D-01 0.100000000000D+01
-.581515968259D-03 0.000000000000D+00 -.304738922020D-03 0.915802764161D-04 0.000000000000D+00  6 21 2 25 1 2 -1 2 0.32490446D+00 0.16924118D+00 0.23561602D+06 0.23561602D+06 0.23561602D+06 0.10924005D+01  1  2  5  5  6  1        1 -.274989827748D-03 0.100000000000D+01
  </mgrwgt>
  </event>
  <event>
  5     66 -.17698235E-05 0.17746829E+02 0.75467711E-02 0.92846740E-01
        1 -1    0    0  501    0 0.00000000E+00 0.00000000E+00 0.34199563E+03 0.34199578E+03 0.32000000E+00 0.0000E+00 0.9000E+01
        2 -1    0    0  502    0 0.00000000E+00 0.00000000E+00 -.26997725E+04 0.26997725E+04 0.32000000E+00 0.0000E+00 0.9000E+01
       25  1    1    2    0    0 0.32312554E+03 -.44212736E+03 -.13453233E+04 0.14578774E+04 0.12500000E+03 0.0000E+00 0.9000E+01
        1  1    1    2  501    0 -.31903040E+03 0.45939552E+03 0.11850647E+02 0.55943291E+03 0.32000000E+00 0.0000E+00 0.9000E+01
        2  1    1    2  502    0 -.40951392E+01 -.17268153E+02 -.10243043E+04 0.10244580E+04 0.32000000E+00 0.0000E+00 0.9000E+01
#aMCatNLO 1  0  0  1  1 0.39110298D+03 0.00000000D+00  -5  6  0 0.00000000D+00 0.00000000D+00 0.00000000D+00 0.00000000D+00 0.00000000D+00
  <mgrwgt>
 -.2296526138D-01    5    2    0
 0.960890560074679D+03 0.000000000000000D+00 0.000000000000000D+00 0.960890560074679D+03
 0.960890560074679D+03 0.000000000000000D+00 0.000000000000000D+00 -.960890560074679D+03
 0.656972499306265D+03 0.323125891093237D+03 -.442127985241310D+03 -.340735040781518D+03
 0.900002379928463D+03 -.319030625622600D+03 0.459395838306386D+03 0.705109358566828D+03
 0.364806240914629D+03 -.409526547063678D+01 -.172678530650759D+02 -.364374317785310D+03
 0.000000000000000D+00 0.000000000000000D+00 0.000000000000000D+00 0.000000000000000D+00
 0.473379940622883D+04 0.000000000000000D+00 0.000000000000000D+00 0.473379940622883D+04
 0.961068298594035D+03 0.000000000000000D+00 0.000000000000000D+00 -.961068298594035D+03
 0.652577533917695D+03 0.312909790739591D+03 -.442966739854159D+03 -.340735040781518D+03
 0.904502125591480D+03 -.333107979407710D+03 0.458240069958852D+03 0.705109358566828D+03
 0.364936967860627D+03 -.978815971988164D+01 -.177352468011128D+02 -.364374317785310D+03
 0.377285107745306D+04 0.299863483880005D+02 0.246191669642033D+01 0.377273110763480D+04
0.161211555125D-04 0.000000000000D+00 0.000000000000D+00 0.132938500202D-04 0.000000000000D+00  6 1 2 25 1 2 21 0 0.52614726D-01 0.41534963D+00 0.32419330D+06 0.32419330D+06 0.32419330D+06 0.10820686D+01  1  2  2  1  6  1        1 0.477942346597D-04 0.100000000000D+01
0.109784009262D-04 0.000000000000D+00 -.619094819659D-07 0.132938500202D-04 0.000000000000D+00  6 1 2 25 1 2 21 2 0.52614726D-01 0.41534963D+00 0.32419330D+06 0.32419330D+06 0.32419330D+06 0.10820686D+01  1  2  3  1  6  1        1 0.381090430808D-04 0.100000000000D+01
-.106851131690D-04 0.000000000000D+00 0.000000000000D+00 0.132938500202D-04 0.000000000000D+00  6 1 2 25 1 2 21 2 0.52614726D-01 0.41534963D+00 0.32419330D+06 0.32419330D+06 0.32419330D+06 0.10820686D+01  1  2 15  1  6  1        1 -.370909607707D-04 0.100000000000D+01
-.870016550310D-01 0.000000000000D+00 -.136331383428D-04 0.132938500202D-04 0.000000000000D+00  6 1 2 25 1 2 21 2 0.25921092D+00 0.41534963D+00 0.32419330D+06 0.32419330D+06 0.32419330D+06 0.10820686D+01  1  2  5  1  6  1        1 -.204219867409D-01 0.100000000000D+01
-.168939935203D-01 0.000000000000D+00 -.264723004229D-05 0.132938500202D-04 0.000000000000D+00  6 21 2 25 1 2 -1 2 0.25921092D+00 0.41534963D+00 0.32419330D+06 0.32419330D+06 0.32419330D+06 0.10820686D+01  1  2  5  5  6  1        1 -.259208695896D-02 0.100000000000D+01
  </mgrwgt>
  </event>
  <event>
  5     66 0.17698235E-05 0.66916589E+02 0.75467711E-02 0.90474569E-01
        1 -1    0    0  501    0 0.00000000E+00 0.00000000E+00 0.12513019E+04 0.12513019E+04 0.32000000E+00 0.0000E+00 0.9000E+01
        2 -1    0    0  502    0 0.00000000E+00 0.00000000E+00 -.13035987E+04 0.13035988E+04 0.32000000E+00 0.0000E+00 0.9000E+01
       25  1    1    2    0    0 -.33063690E+03 -.56936704E+03 -.13176974E+03 0.68299916E+03 0.12500000E+03 0.0000E+00 0.9000E+01
        1  1    1    2  501    0 0.49886421E+02 -.44610761E+02 0.84703677E+03 0.84967651E+03 0.32000000E+00 0.0000E+00 0.9000E+01
        2  1    1    2  502    0 0.28075048E+03 0.61397780E+03 -.76756388E+03 0.10222250E+04 0.32000000E+00 0.0000E+00 0.9000E+01
#aMCatNLO 1  0  0  1  5 0.65121146D+02 0.00000000D+00  -5  6  0 0.00000000D+00 0.00000000D+00 0.00000000D+00 0.00000000D+00 0.00000000D+00
  <mgrwgt>
 0.1008018424D-01    9    2    0
 0.127718269783888D+04 0.000000000000000D+00 0.000000000000000D+00 0.127718269783888D+04
 0.127718269783888D+04 0.000000000000000D+00 0.000000000000000D+00 -.127718269783888D+04
 0.680508133736857D+03 -.330666887523498D+03 -.569438292878965D+03 -.117752962513189D+03
 0.867104825255060D+03 0.498811569733966D+02 -.446060539957672D+02 0.864518911364309D+03
 0.100675243668584D+04 0.280785730550101D+03 0.614044346874732D+03 -.746765948851120D+03
 0.000000000000000D+00 0.000000000000000D+00 0.000000000000000D+00 0.000000000000000D+00
 0.151191769968404D+04 0.000000000000000D+00 0.000000000000000D+00 0.151191769968404D+04
 0.128212222372812D+04 0.000000000000000D+00 0.000000000000000D+00 -.128212222372812D+04
 0.694289774135270D+03 -.346706435888125D+03 -.576491264115879D+03 -.117752962513189D+03
 0.866680214710838D+03 0.296533628785950D+02 -.535006965813075D+02 0.864518911364309D+03
 0.994225373224766D+03 0.257440640937415D+03 0.603778955242848D+03 -.746765948851120D+03
 0.238844561341286D+03 0.596124320721158D+02 0.262130054543387D+02 0.229795475955924D+03
0.378022054913D-03 0.000000000000D+00 0.000000000000D+00 0.741168031047D-05 0.000000000000D+00  6 1 2 25 1 2 21 0 0.19250799D+00 0.20055366D+00 0.49868777D+06 0.49868777D+06 0.49868777D+06 0.10685911D+01  1  2  2  1  6  1        1 0.879241558401D-03 0.100000000000D+01
0.163771294516D-03 0.000000000000D+00 -.145170422636D-05 0.741168031047D-05 0.000000000000D+00  6 1 2 25 1 2 21 2 0.19250799D+00 0.20055366D+00 0.49868777D+06 0.49868777D+06 0.49868777D+06 0.10685911D+01  1  2  3  1  6  1        1 0.434962611829D-03 0.100000000000D+01
-.218919333117D-03 0.000000000000D+00 0.000000000000D+00 0.741168031047D-05 0.000000000000D+00  6 1 2 25 1 2 21 2 0.19250799D+00 0.20055366D+00 0.49868777D+06 0.49868777D+06 0.49868777D+06 0.10685911D+01  1  2 15  1  6  1        1 -.581431106067D-03 0.100000000000D+01
0.106157066348D-07 0.000000000000D+00 0.000000000000D+00 0.741168031047D-05 0.000000000000D+00  6 1 2 25 1 2 21 2 0.22840175D+00 0.20055366D+00 0.53794441D+06 0.53794441D+06 0.53794441D+06 0.10662725D+01  1  2 12  1  6  1        1 0.192613382954D-07 0.100000000000D+01
-.305040843334D-03 0.000000000000D+00 0.000000000000D+00 0.741168031047D-05 0.000000000000D+00  6 1 2 25 1 2 21 2 0.19250799D+00 0.20055366D+00 0.49868777D+06 0.49868777D+06 0.49868777D+06 0.10685911D+01  1  2  4  1  6  1        1 -.810162503286D-03 0.100000000000D+01
-.132361117080D-01 0.000000000000D+00 -.549077941382D-03 0.741168031047D-05 0.000000000000D+00  6 1 2 25 1 2 21 2 0.22821099D+00 0.20055366D+00 0.49868777D+06 0.49868777D+06 0.49868777D+06 0.10685911D+01  1  2  5  1  6  1        1 -.242932906403D-01 0.100000000000D+01
0.131466540603D-01 0.000000000000D+00 0.541226076452D-03 0.741168031047D-05 0.000000000000D+00  6 1 2 25 1 2 21 2 0.19250799D+00 0.20055366D+00 0.49868777D+06 0.49868777D+06 0.49868777D+06 0.10685911D+01  1  2  6  1  6  1        1 0.349163936440D-01 0.100000000000D+01
0.268871140027D-09 0.000000000000D+00 0.000000000000D+00 0.741168031047D-05 0.000000000000D+00  6 21 2 25 1 2 -1 2 0.22840175D+00 0.20055366D+00 0.53794441D+06 0.53794441D+06 0.53794441D+06 0.10662725D+01  1  2 12  5  6  1        1 0.374313686600D-09 0.100000000000D+01
-.329174573557D-03 0.000000000000D+00 -.138531107929D-04 0.741168031047D-05 0.000000000000D+00  6 21 2 25 1 2 -1 2 0.22821099D+00 0.20055366D+00 0.49868777D+06 0.49868777D+06 0.49868777D+06 0.10685911D+01  1  2  5  5  6  1        1 -.465548963491D-03 0.100000000000D+01
  </mgrwgt>
  </event>
  <event>
  6     66 0.17698235E-05 0.13321526E+03 0.75467711E-02 0.90801245E-01
        1 -1    0    0  501    0 0.00000000E+00 0.00000000E+00 0.88448464E+03 0.88448470E+03 0.32000000E+00 0.0000E+00 0.9000E+01
        2 -1    0    0  503    0 0.00000000E+00 0.00000000E+00 -.11293766E+04 0.11293766E+04 0.32000000E+00 0.0000E+00 0.9000E+01
       25  1    1    2    0    0 -.48343609E+03 0.35934981E+03 0.33384115E+03 0.69994118E+03 0.12500000E+03 0.0000E+00 0.9000E+01
        1  1    1    2  501    0 0.50312877E+02 0.64635674E+02 0.16564766E+03 0.18479287E+03 0.32000000E+00 0.0000E+00 0.9000E+01
        2  1    1    2  502    0 0.26835923E+03 -.48026867E+03 -.24870795E+03 0.60376354E+03 0.32000000E+00 0.0000E+00 0.9000E+01
       21  1    1    2  503  502 0.16476398E+03 0.56283184E+02 -.49567283E+03 0.52536376E+03 0.75000000E+00 0.0000E+00 0.9000E+01
#aMCatNLO 2  0  0  2  2 0.17411194D+03 0.00000000D+00  -5  6  0 0.00000000D+00 0.00000000D+00 0.00000000D+00 0.00000000D+00 0.00000000D+00
  <mgrwgt>
 0.3667105747D-02    1    2    0
 0.728426224253604D+03 0.000000000000000D+00 0.000000000000000D+00 0.728426224253604D+03
 0.728426224253604D+03 0.000000000000000D+00 0.000000000000000D+00 -.728426224253604D+03
 0.617049199605150D+03 -.411887479367269D+03 0.383961268749251D+03 0.219196631302352D+03
 0.168240590103256D+03 0.686770276001514D+02 0.708415788690352D+02 0.136271173553478D+03
 0.671562658798801D+03 0.343210451767118D+03 -.454802847618286D+03 -.355467804855831D+03
 0.000000000000000D+00 0.000000000000000D+00 0.000000000000000D+00 -.000000000000000D+00
 0.746133022328885D+03 0.000000000000000D+00 0.000000000000000D+00 0.746133022328885D+03
 0.133879044908535D+04 0.000000000000000D+00 0.000000000000000D+00 -.133879044908535D+04
 0.653189332229043D+03 -.483462165817579D+03 0.359511439020374D+03 0.219196631302352D+03
 0.158933898767256D+03 0.502415834937339D+02 0.645440525824050D+02 0.136271173553478D+03
 0.655096596678203D+03 0.268456602110192D+03 -.480338675804678D+03 -.355467804855831D+03
 0.617703643739736D+03 0.164763980213653D+03 0.562831842018988D+02 -.592657426756467D+03
0.578558011996D-03 0.000000000000D+00 0.000000000000D+00 0.386930469738D-07 0.151897975206D-10  6 1 2 25 1 2 21 2 0.13607453D+00 0.17375020D+00 0.50515482D+06 0.50515482D+06 0.50515482D+06 0.10681957D+01  1  2  1  2  6  2        2 0.366710574712D-02 0.100000000000D+01
  </mgrwgt>
  </event>
  <event>
  5     66 0.17698235E-05 0.17372177E+03 0.75467711E-02 0.92274616E-01
        1 -1    0    0  501    0 0.00000000E+00 0.00000000E+00 0.11030638E+04 0.11030638E+04 0.32000000E+00 0.0000E+00 0.9000E+01
        2 -1    0    0  502    0 0.00000000E+00 0.00000000E+00 -.21954918E+04 0.21954918E+04 0.32000000E+00 0.0000E+00 0.9000E+01
       25  1    1    2    0    0 0.53919940E+03 0.67478234E+02 -.67590792E+03 0.87622247E+03 0.12500000E+03 0.0000E+00 0.9000E+01
        1  1    1    2  501    0 -.12696444E+03 0.11857680E+03 0.95887453E+03 0.97448494E+03 0.32000000E+00 0.0000E+00 0.9000E+01
        2  1    1    2  502    0 -.41223496E+03 -.18605503E+03 -.13753946E+04 0.14478483E+04 0.32000000E+00 0.0000E+00 0.9000E+01
#aMCatNLO 1  0  0  2  5 0.51291341D+02 0.00000000D+00  -5  6  0 0.00000000D+00 0.00000000D+00 0.00000000D+00 0.00000000D+00 0.00000000D+00
  <mgrwgt>
 0.1413937329D-02   11    2    0
 0.155620295850554D+04 0.000000000000000D+00 0.000000000000000D+00 0.155620295850554D+04
 0.155620295850554D+04 0.000000000000000D+00 0.000000000000000D+00 -.155620295850554D+04
 0.691396312574421D+03 0.539230217689018D+03 0.674913082602000D+02 -.408753662591404D+03
 0.136929802077281D+04 -.126961971114947D+03 0.118574492835348D+03 0.135823334417609D+04
 0.105171158366386D+04 -.412268246574071D+03 -.186065801095548D+03 -.949479681584688D+03
 0.000000000000000D+00 0.000000000000000D+00 0.000000000000000D+00 -.000000000000000D+00
 0.155765356125203D+04 0.000000000000000D+00 0.000000000000000D+00 0.155765356125203D+04
 0.208711684749025D+04 0.000000000000000D+00 0.000000000000000D+00 -.208711684749025D+04
 0.686677413322245D+03 0.534364841757636D+03 0.572322389775125D+02 -.408753662591404D+03
 0.136861492413738D+04 -.136628344904724D+03 0.981921010489262D+02 0.135823334417609D+04
 0.105753618238190D+04 -.419715078424497D+03 -.201768095217830D+03 -.949479681584688D+03
 0.531941888900760D+03 0.219785815715852D+02 0.463437551913908D+02 -.529463286238215D+03
0.421922678727D-04 0.000000000000D+00 0.000000000000D+00 0.100555134782D-04 0.000000000000D+00  6 1 2 25 1 2 21 0 0.16970213D+00 0.33776798D+00 0.35026360D+06 0.35026360D+06 0.35026360D+06 0.10796095D+01  1  2  2  2  6  2        2 0.413216616659D-04 0.100000000000D+01
0.714477313790D-05 0.000000000000D+00 -.162029418110D-06 0.100555134782D-04 0.000000000000D+00  6 1 2 25 1 2 21 2 0.16970213D+00 0.33776798D+00 0.35026360D+06 0.35026360D+06 0.35026360D+06 0.10796095D+01  1  2  3  2  6  2        2 0.815580296771D-05 0.100000000000D+01
-.279905478674D-04 0.000000000000D+00 0.000000000000D+00 0.100555134782D-04 0.000000000000D+00  6 1 2 25 1 2 21 2 0.16970213D+00 0.33776798D+00 0.35026360D+06 0.35026360D+06 0.35026360D+06 0.10796095D+01  1  2 15  2  6  2        2 -.319513844539D-04 0.100000000000D+01
0.441211058363D-02 0.000000000000D+00 0.000000000000D+00 0.100555134782D-04 0.000000000000D+00  6 1 2 25 1 2 21 2 0.16970213D+00 0.45836580D+00 0.38254526D+06 0.38254526D+06 0.38254526D+06 0.10768273D+01  1  2 12  2  6  2        2 0.171103335456D-02 0.100000000000D+01
0.108218109068D-08 0.000000000000D+00 0.000000000000D+00 0.100555134782D-04 0.000000000000D+00  6 1 2 25 1 2 21 2 0.16970213D+00 0.45314507D+00 0.38254526D+06 0.38254526D+06 0.38254526D+06 0.10768273D+01  1  2 12  2  6  2        2 0.440850690492D-09 0.100000000000D+01
-.305069067246D-02 0.000000000000D+00 0.000000000000D+00 0.100555134782D-04 0.000000000000D+00  6 1 2 25 1 2 21 2 0.16970213D+00 0.33776798D+00 0.35026360D+06 0.35026360D+06 0.35026360D+06 0.10796095D+01  1  2  4  2  6  2        2 -.348238237377D-02 0.100000000000D+01
-.463793688262D-02 0.000000000000D+00 -.289741750423D-04 0.100555134782D-04 0.000000000000D+00  6 1 2 25 1 2 21 2 0.16970213D+00 0.45309973D+00 0.35026360D+06 0.35026360D+06 0.35026360D+06 0.10796095D+01  1  2  5  2  6  2        2 -.191600473189D-02 0.100000000000D+01
0.445409509620D-02 0.000000000000D+00 0.277674948133D-04 0.100555134782D-04 0.000000000000D+00  6 1 2 25 1 2 21 2 0.16970213D+00 0.33776798D+00 0.35026360D+06 0.35026360D+06 0.35026360D+06 0.10796095D+01  1  2  6  2  6  2        2 0.508437725074D-02 0.100000000000D+01
0.172725276414D-03 0.000000000000D+00 0.000000000000D+00 0.100555134782D-04 0.000000000000D+00  6 1 21 25 1 2 -2 2 0.16970213D+00 0.45836580D+00 0.38254526D+06 0.38254526D+06 0.38254526D+06 0.10768273D+01  1  2 12  6  6  2        2 0.453015539730D-05 0.100000000000D+01
0.412104451845D-10 0.000000000000D+00 0.000000000000D+00 0.100555134782D-04 0.000000000000D+00  6 1 21 25 1 2 -2 2 0.16970213D+00 0.45314507D+00 0.38254526D+06 0.38254526D+06 0.38254526D+06 0.10768273D+01  1  2 12  6  6  2        2 0.118176818394D-11 0.100000000000D+01
-.175944643868D-03 0.000000000000D+00 -.110309117392D-05 0.100555134782D-04 0.000000000000D+00  6 1 21 25 1 2 -2 2 0.16970213D+00 0.45309973D+00 0.35026360D+06 0.35026360D+06 0.35026360D+06 0.10796095D+01  1  2  5  6  6  2        2 -.514284827079D-05 0.100000000000D+01
  </mgrwgt>
  </event>
  <event>
  5     66 -.17698235E-05 0.45281255E+02 0.75467711E-02 0.93668859E-01
        1 -1    0    0  501    0 0.00000000E+00 0.00000000E+00 0.19589649E+04 0.19589649E+04 0.32000000E+00 0.0000E+00 0.9000E+01
        2 -1    0    0  502    0 0.00000000E+00 0.00000000E+00 -.14468002E+04 0.14468003E+04 0.32000000E+00 0.0000E+00 0.9000E+01
       25  1    1    2    0    0 -.52554598E+03 -.64213134E+02 -.20890043E+03 0.58274033E+03 0.12500000E+03 0.0000E+00 0.9000E+01
        1  1    1    2  501    0 0.49696919E+03 0.29091227E+02 0.17365674E+04 0.18065136E+04 0.32000000E+00 0.0000E+00 0.9000E+01
        2  1    1    2  502    0 0.28576787E+02 0.35121908E+02 -.10155023E+04 0.10165113E+04 0.32000000E+00 0.0000E+00 0.9000E+01
#aMCatNLO 1  0  0  5  1 0.29070980D+02 0.00000000D+00  -5  6  0 0.00000000D+00 0.00000000D+00 0.00000000D+00 0.00000000D+00 0.00000000D+00
  <mgrwgt>
 -.1417208917D-01    5    2    0
 0.168351745074876D+04 0.000000000000000D+00 0.000000000000000D+00 0.168351745074876D+04
 0.168351745074876D+04 -.000000000000000D+00 -.000000000000000D+00 -.168351745074876D+04
 0.621195806587073D+03 -.525543901580463D+03 -.642146652872671D+02 -.299898840269504D+03
 0.156313023869942D+04 0.496965566117772D+03 0.290910146272051D+02 0.148174055829544D+04
 0.118270885621104D+04 0.285783354626885D+02 0.351236506600596D+02 -.118184171802594D+04
 0.000000000000000D+00 0.000000000000000D+00 0.000000000000000D+00 -.000000000000000D+00
 0.168351745074876D+04 0.000000000000000D+00 0.000000000000000D+00 0.168351745074876D+04
 0.168351745074876D+04 -.000000000000000D+00 -.000000000000000D+00 -.168351745074876D+04
 0.621347427513829D+03 -.525535921776813D+03 -.642048578638746D+02 -.300228840764720D+03
 0.156235024659171D+04 0.496985638433890D+03 0.291156841192462D+02 0.148091047844017D+04
 0.326732490207934D+03 0.291828265949654D+02 0.293979497378354D+02 -.324096040303823D+03
 0.856604737184057D+03 -.632543252044158D+00 0.569122400679057D+01 -.856585597371626D+03
0.675266999659D-03 0.000000000000D+00 0.000000000000D+00 0.302202757630D-03 0.000000000000D+00  6 1 2 25 1 2 21 0 0.30137922D+00 0.22258466D+00 0.29544972D+06 0.29544972D+06 0.29544972D+06 0.10850433D+01  1  2  2  4  6  5        2 0.451211612749D-03 0.100000000000D+01
0.340532162521D-03 0.000000000000D+00 -.259320308057D-05 0.302202757630D-03 0.000000000000D+00  6 1 2 25 1 2 21 2 0.30137922D+00 0.22258466D+00 0.29544972D+06 0.29544972D+06 0.29544972D+06 0.10850433D+01  1  2  3  4  6  5        2 0.267890313712D-03 0.100000000000D+01
-.440365434487D-03 0.000000000000D+00 0.000000000000D+00 0.302202757630D-03 0.000000000000D+00  6 1 2 25 1 2 21 2 0.30137922D+00 0.22258466D+00 0.29544972D+06 0.29544972D+06 0.29544972D+06 0.10850433D+01  1  2 15  4  6  5        2 -.346427290507D-03 0.100000000000D+01
0.937392643207D-10 0.000000000000D+00 0.000000000000D+00 0.302202757630D-03 0.000000000000D+00  6 1 2 25 1 2 21 2 0.30137922D+00 0.22258466D+00 0.29647291D+06 0.29647291D+06 0.29647291D+06 0.10849321D+01  1  2 12  4  6  5        2 0.737061651370D-10 0.100000000000D+01
-.184887606756D-01 0.000000000000D+00 0.000000000000D+00 0.302202757630D-03 0.000000000000D+00  6 1 2 25 1 2 21 2 0.30137922D+00 0.22258466D+00 0.29544972D+06 0.29544972D+06 0.29544972D+06 0.10850433D+01  1  2  5  4  6  5        2 -.145447638804D-01 0.100000000000D+01
  </mgrwgt>
  </event>
  <event>
  6     66 0.17698235E-05 0.13904649E+02 0.75467711E-02 0.90888641E-01
        1 -1    0    0  501    0 0.00000000E+00 0.00000000E+00 0.40061234E+03 0.40061247E+03 0.32000000E+00 0.0000E+00 0.9000E+01
        2 -1    0    0  502    0 -.00000000E+00 -.00000000E+00 -.19629965E+04 0.19629966E+04 0.32000000E+00 0.0000E+00 0.9000E+01
       25  1    1    2    0    0 -.45144782E+03 -.51558488E+03 -.25746571E+03 0.74266176E+03 0.12500000E+03 0.0000E+00 0.9000E+01
        1  1    1    2  503    0 -.39388302E+01 -.10296335E+02 0.73590760E+02 0.74412574E+02 0.32000000E+00 0.0000E+00 0.9000E+01
        2  1    1    2  502    0 0.45065052E+03 0.49357691E+03 -.13107300E+04 0.14712979E+04 0.32000000E+00 0.0000E+00 0.9000E+01
       21  1    1    2  501  503 0.47361281E+01 0.32304302E+02 -.67779209E+02 0.75236843E+02 0.75000000E+00 0.0000E+00 0.9000E+01
#aMCatNLO 2  0  0  4  1 0.36033216D+02 0.00000000D+00  -5  6  0 0.00000000D+00 0.00000000D+00 0.00000000D+00 0.00000000D+00 0.00000000D+00
  <mgrwgt>
 0.9359935092D-03    2    2    0
 0.886792436278516D+03 0.000000000000000D+00 0.000000000000000D+00 0.886792436278516D+03
 0.886792436278516D+03 -.000000000000000D+00 -.000000000000000D+00 -.886792436278516D+03
 0.755825971672264D+03 -.451873399505519D+03 -.520082597934815D+03 0.284556534978589D+03
 0.197560921925065D+03 0.111475069908521D+01 0.307706765071914D+02 0.195146715755224D+03
 0.820197978959703D+03 0.450758648806434D+03 0.489311921427624D+03 -.479703250733813D+03
 0.000000000000000D+00 0.000000000000000D+00 0.000000000000000D+00 -.000000000000000D+00
 0.886792436278516D+03 0.000000000000000D+00 0.000000000000000D+00 0.886792436278516D+03
 0.886792436278516D+03 -.000000000000000D+00 -.000000000000000D+00 -.886792436278516D+03
 0.763500466424420D+03 -.451717728405612D+03 -.515785578824901D+03 0.311808102445464D+03
 0.163121905990900D+03 -.395067442152134D+01 -.104864314164186D+02 0.162736545194581D+03
 0.806385966192642D+03 0.450925309574972D+03 0.493912290460203D+03 -.450527847074422D+03
 0.405765339490704D+02 0.474309325216165D+01 0.323597197811170D+02 -.240168005656238D+02
-.136325687641D-03 0.000000000000D+00 0.000000000000D+00 0.954995155137D-06 0.000000000000D+00  6 1 2 25 1 2 21 2 0.61632680D-01 0.30199948D+00 0.48740959D+06 0.48740959D+06 0.48740959D+06 0.10692941D+01  1  2  8  3  6  4        1 -.958584526736D-03 0.100000000000D+01
0.270007952150D-03 0.000000000000D+00 0.000000000000D+00 0.954995155137D-06 0.249465420614D-07  6 1 2 25 1 2 21 2 0.61632680D-01 0.30199948D+00 0.49676533D+06 0.49676533D+06 0.49676533D+06 0.10687097D+01  1  2  1  3  6  4        1 0.189457803593D-02 0.100000000000D+01
  </mgrwgt>
  </event>
  <event>
  5     66 -.17698235E-05 0.10073247E+02 0.75467711E-02 0.92885827E-01
        1 -1    0    0  501    0 0.00000000E+00 0.00000000E+00 0.17942392E+04 0.17942392E+04 0.32000000E+00 0.0000E+00 0.9000E+01
        2 -1    0    0  502    0 0.00000000E+00 0.00000000E+00 -.25318067E+04 0.25318067E+04 0.32000000E+00 0.0000E+00 0.9000E+01
       25  1    1    2    0    0 0.51665526E+03 -.21650811E+03 -.27006448E+03 0.63432503E+03 0.12500000E+03 0.0000E+00 0.9000E+01
        1  1    1    2  501    0 0.98987323E+01 0.18678210E+01 0.15732235E+04 0.15732558E+04 0.32000000E+00 0.0000E+00 0.9000E+01
        2  1    1    2  502    0 -.52655399E+03 0.21464028E+03 -.20407265E+04 0.21184651E+04 0.32000000E+00 0.0000E+00 0.9000E+01
#aMCatNLO 1  0  0  2  1 0.19629856D+02 0.00000000D+00  -5  6  0 0.00000000D+00 0.00000000D+00 0.00000000D+00 0.00000000D+00 0.00000000D+00
  <mgrwgt>
 -.4328294183D-01    7    2    0
 0.213135326891191D+04 0.000000000000000D+00 0.000000000000000D+00 0.213135326891191D+04
 0.213135326891191D+04 0.000000000000000D+00 0.000000000000000D+00 -.213135326891191D+04
 0.597046428137187D+03 0.516686773415653D+03 -.216520931734374D+03 -.164295166239219D+03
 0.186881342069063D+04 0.989856854030226D+01 0.186779014770498D+01 0.186878627217085D+04
 0.179684668899601D+04 -.526585341955956D+03 0.214653141586669D+03 -.170449110593163D+04
 0.000000000000000D+00 0.000000000000000D+00 0.000000000000000D+00 -.000000000000000D+00
 0.213176411903830D+04 0.000000000000000D+00 0.000000000000000D+00 0.213176411903830D+04
 0.237949563714338D+04 0.000000000000000D+00 0.000000000000000D+00 -.237949563714338D+04
 0.595491169835857D+03 0.514309127902630D+03 -.217894361237141D+03 -.164295166239219D+03
 0.186878946244011D+04 0.244664858436567D+01 -.243675679324127D+01 0.186878627217085D+04
 0.179847110326595D+04 -.533753578186994D+03 0.210512462470045D+03 -.170449110593163D+04
 0.248508020639761D+03 0.169978016999985D+02 0.981865556033652D+01 -.247731518105079D+03
0.107660587886D-02 0.000000000000D+00 0.000000000000D+00 0.774247949211D-03 0.000000000000D+00  6 1 2 25 1 2 21 0 0.27603680D+00 0.38950872D+00 0.33219315D+06 0.33219315D+06 0.33219315D+06 0.10812917D+01  1  2  2  2  6  2        2 0.228797871445D-03 0.100000000000D+01
0.149028644365D-02 0.000000000000D+00 -.413445005164D-05 0.774247949211D-03 0.000000000000D+00  6 1 2 25 1 2 21 2 0.27603680D+00 0.38950872D+00 0.33219315D+06 0.33219315D+06 0.33219315D+06 0.10812917D+01  1  2  3  2  6  2        2 0.370297476629D-03 0.100000000000D+01
-.729134302650D-03 0.000000000000D+00 0.000000000000D+00 0.774247949211D-03 0.000000000000D+00  6 1 2 25 1 2 21 2 0.27603680D+00 0.38950872D+00 0.33219315D+06 0.33219315D+06 0.33219315D+06 0.10812917D+01  1  2 15  2  6  2        2 -.181170937671D-03 0.100000000000D+01
-.326661155599D+00 0.000000000000D+00 0.000000000000D+00 0.774247949211D-03 0.000000000000D+00  6 1 2 25 1 2 21 2 0.27603680D+00 0.38950872D+00 0.33219315D+06 0.33219315D+06 0.33219315D+06 0.10812917D+01  1  2  4  2  6  2        2 -.811668133643D-01 0.100000000000D+01
-.461523891356D+00 0.000000000000D+00 -.160327382111D-02 0.774247949211D-03 0.000000000000D+00  6 1 2 25 1 2 21 2 0.27603680D+00 0.43487960D+00 0.33219315D+06 0.33219315D+06 0.33219315D+06 0.10812917D+01  1  2  5  2  6  2        2 -.764545401036D-01 0.100000000000D+01
0.458921688735D+00 0.000000000000D+00 0.159359070907D-02 0.774247949211D-03 0.000000000000D+00  6 1 2 25 1 2 21 2 0.27603680D+00 0.38950872D+00 0.33219315D+06 0.33219315D+06 0.33219315D+06 0.10812917D+01  1  2  6  2  6  2        2 0.114030120876D+00 0.100000000000D+01
-.814021765601D-02 0.000000000000D+00 -.283000573180D-04 0.774247949211D-03 0.000000000000D+00  6 1 21 25 1 2 -2 2 0.27603680D+00 0.43487960D+00 0.33219315D+06 0.33219315D+06 0.33219315D+06 0.10812917D+01  1  2  5  6  6  2        2 -.109633649860D-03 0.100000000000D+01
  </mgrwgt>
  </event>
  <event>
  5     66 -.17698235E-05 0.13681858E+02 0.75467711E-02 0.90078969E-01
        1 -1    0    0  501    0 0.00000000E+00 0.00000000E+00 0.84325767E+03 0.84325773E+03 0.32000000E+00 0.0000E+00 0.9000E+01
        2 -1    0    0  502    0 -.00000000E+00 -.00000000E+00 -.14100689E+04 0.14100689E+04 0.32000000E+00 0.0000E+00 0.9000E+01
       25  1    1    2    0    0 -.57556353E+03 0.47268504E+03 0.69183275E+02 0.75836393E+03 0.12500000E+03 0.0000E+00 0.9000E+01
        1  1    1    2  501    0 -.50307963E+01 0.12731132E+02 0.29492461E+03 0.29524230E+03 0.32000000E+00 0.0000E+00 0.9000E+01
        2  1    1    2  502    0 0.58059432E+03 -.48541618E+03 -.93091908E+03 0.11997204E+04 0.32000000E+00 0.0000E+00 0.9000E+01
#aMCatNLO 1  0  0  5  4 0.31469206D+02 0.00000000D+00  -5  6  0 0.00000000D+00 0.00000000D+00 0.00000000D+00 0.00000000D+00 0.00000000D+00
  <mgrwgt>
 -.1333553192D-02    6    2    0
 0.109043638338913D+04 0.000000000000000D+00 0.000000000000000D+00 0.109043638338913D+04
 0.109043638338913D+04 -.000000000000000D+00 -.000000000000000D+00 -.109043638338913D+04
 0.801694069351524D+03 -.575648620487154D+03 0.472759281304229D+03 0.268729805762871D+03
 0.381500953429172D+03 -.502814582369418D+01 0.127244244587323D+02 0.381255536666862D+03
 0.997677743997559D+03 0.580676766310848D+03 -.485483705762961D+03 -.649985342429733D+03
 0.000000000000000D+00 0.000000000000000D+00 0.000000000000000D+00 0.000000000000000D+00
 0.109043638338913D+04 0.000000000000000D+00 0.000000000000000D+00 0.109043638338913D+04
 0.109043638338913D+04 -.000000000000000D+00 -.000000000000000D+00 -.109043638338913D+04
 0.801011384484905D+03 -.575218220250794D+03 0.472399438593392D+03 0.268248033697510D+03
 0.381263491146106D+03 -.482330843673299D+01 0.125531670234942D+02 0.381026250243105D+03
 0.556128954422099D+03 0.305194709842702D+03 -.259932519181639D+03 -.385448684655341D+03
 0.442468936725144D+03 0.274846818844825D+03 -.225020086435247D+03 -.263825599285274D+03
0.903126021124D-05 0.000000000000D+00 0.000000000000D+00 0.490658427940D-05 0.000000000000D+00  6 1 2 25 1 2 21 0 0.12973196D+00 0.21693368D+00 0.58207984D+06 0.58207984D+06 0.58207984D+06 0.10638760D+01  1  2  2  4  6  5        2 0.371053758356D-04 0.100000000000D+01
0.819801327169D-05 0.000000000000D+00 -.346824171966D-07 0.490658427940D-05 0.000000000000D+00  6 1 2 25 1 2 21 2 0.12973196D+00 0.21693368D+00 0.58207984D+06 0.58207984D+06 0.58207984D+06 0.10638760D+01  1  2  3  4  6  5        2 0.381223040297D-04 0.100000000000D+01
-.625478131994D-05 0.000000000000D+00 0.000000000000D+00 0.490658427940D-05 0.000000000000D+00  6 1 2 25 1 2 21 2 0.12973196D+00 0.21693368D+00 0.58207984D+06 0.58207984D+06 0.58207984D+06 0.10638760D+01  1  2 15  4  6  5        2 -.290859098681D-04 0.100000000000D+01
-.536840770260D-03 0.000000000000D+00 0.000000000000D+00 0.490658427940D-05 0.000000000000D+00  6 1 2 25 1 2 21 2 0.12973196D+00 0.21693368D+00 0.58207984D+06 0.58207984D+06 0.58207984D+06 0.10638760D+01  1  2  4  4  6  5        2 -.249641057914D-02 0.100000000000D+01
-.455616873215D-03 0.000000000000D+00 0.000000000000D+00 0.490658427940D-05 0.000000000000D+00  6 1 2 25 1 2 21 2 0.12973196D+00 0.21693368D+00 0.58207984D+06 0.58207984D+06 0.58207984D+06 0.10638760D+01  1  2  5  4  6  5        2 -.211870417699D-02 0.100000000000D+01
0.695761053372D-03 0.000000000000D+00 -.000000000000D+00 0.490658427940D-05 0.000000000000D+00  6 1 2 25 1 2 21 2 0.12973196D+00 0.21693368D+00 0.58207984D+06 0.58207984D+06 0.58207984D+06 0.10638760D+01  1  2  6  4  6  5        2 0.323541979375D-02 0.100000000000D+01
  </mgrwgt>
  </event>
  <event>
  5     66 0.17698235E-05 0.22432918E+03 0.75467711E-02 0.91514015E-01
        1 -1    0    0  501    0 0.00000000E+00 0.00000000E+00 0.11187052E+04 0.11187053E+04 0.32000000E+00 0.0000E+00 0.9000E+01
        2 -1    0    0  502    0 -.00000000E+00 -.00000000E+00 -.22137104E+04 0.22137104E+04 0.32000000E+00 0.0000E+00 0.9000E+01
       25  1    1    2    0    0 0.39378892E+03 -.34637833E+03 0.29456288E+03 0.61436141E+03 0.12500000E+03 0.0000E+00 0.9000E+01
        1  1    1    2  501    0 -.37551186E+03 0.12281695E+03 0.59862489E+03 0.71724823E+03 0.32000000E+00 0.0000E+00 0.9000E+01
        2  1    1    2  502    0 -.18277059E+02 0.22356138E+03 -.19881929E+04 0.20008061E+04 0.32000000E+00 0.0000E+00 0.9000E+01
#aMCatNLO 1  0  0  5  1 0.18385448D+03 0.00000000D+00  -5  6  0 0.00000000D+00 0.00000000D+00 0.00000000D+00 0.00000000D+00 0.00000000D+00
  <mgrwgt>
 0.3140215253D-02    7    2    0
 0.157368660692694D+04 0.000000000000000D+00 0.000000000000000D+00 0.157368660692694D+04
 0.157368660692694D+04 -.000000000000000D+00 -.000000000000000D+00 -.157368660692694D+04
 0.753041320585171D+03 0.393747125713610D+03 -.346385498728464D+03 0.525762796108247D+03
 0.967570121182807D+03 -.375467206888167D+03 0.122802347499864D+03 0.883253021169944D+03
 0.142676177208590D+04 -.182799188254430D+02 0.223583151228601D+03 -.140901581727819D+04
 0.000000000000000D+00 0.000000000000000D+00 0.000000000000000D+00 -.000000000000000D+00
 0.157368660692694D+04 0.000000000000000D+00 0.000000000000000D+00 0.157368660692694D+04
 0.157368660692694D+04 -.000000000000000D+00 -.000000000000000D+00 -.157368660692694D+04
 0.744280903108861D+03 0.393600432022986D+03 -.344591276449458D+03 0.514455649049355D+03
 0.954710485090261D+03 -.375655534044531D+03 0.125105792032843D+03 0.868736767313802D+03
 0.780596234454155D+03 0.535652699284758D+02 0.289494911410073D+03 -.722948088986457D+03
 0.667785591200603D+03 -.715101679069310D+02 -.700094269934564D+02 -.660244327376699D+03
0.162378011605D-02 0.000000000000D+00 0.000000000000D+00 0.623596033690D-05 0.000000000000D+00  6 1 2 25 1 2 21 0 0.17210850D+00 0.34057083D+00 0.33552084D+06 0.33552084D+06 0.33552084D+06 0.10809746D+01  1  2  2  4  6  5        2 0.151815859465D-02 0.100000000000D+01
0.184908453630D-03 0.000000000000D+00 -.623574319677D-05 0.623596033690D-05 0.000000000000D+00  6 1 2 25 1 2 21 2 0.17210850D+00 0.34057083D+00 0.33552084D+06 0.33552084D+06 0.33552084D+06 0.10809746D+01  1  2  3  4  6  5        2 0.202012219113D-03 0.100000000000D+01
-.942399593804D-03 0.000000000000D+00 0.000000000000D+00 0.623596033690D-05 0.000000000000D+00  6 1 2 25 1 2 21 2 0.17210850D+00 0.34057083D+00 0.33552084D+06 0.33552084D+06 0.33552084D+06 0.10809746D+01  1  2 15  4  6  5        2 -.102957019811D-02 0.100000000000D+01
0.173433553999D-08 0.000000000000D+00 0.000000000000D+00 0.623596033690D-05 0.000000000000D+00  6 1 2 25 1 2 21 2 0.17210850D+00 0.34057083D+00 0.44108214D+06 0.44108214D+06 0.44108214D+06 0.10723801D+01  1  2 12  4  6  5        2 0.182386472560D-08 0.100000000000D+01
-.412613651409D-03 0.000000000000D+00 0.000000000000D+00 0.623596033690D-05 0.000000000000D+00  6 1 2 25 1 2 21 2 0.17210850D+00 0.34057083D+00 0.33552084D+06 0.33552084D+06 0.33552084D+06 0.10809746D+01  1  2  4  4  6  5        2 -.450779819533D-03 0.100000000000D+01
-.475032227209D-02 0.000000000000D+00 0.000000000000D+00 0.623596033690D-05 0.000000000000D+00  6 1 2 25 1 2 21 2 0.17210850D+00 0.34057083D+00 0.33552084D+06 0.33552084D+06 0.33552084D+06 0.10809746D+01  1  2  5  4  6  5        2 -.518972023642D-02 0.100000000000D+01
0.740514740644D-02 0.000000000000D+00 -.000000000000D+00 0.623596033690D-05 0.000000000000D+00  6 1 2 25 1 2 21 2 0.17210850D+00 0.34057083D+00 0.33552084D+06 0.33552084D+06 0.33552084D+06 0.10809746D+01  1  2  6  4  6  5        2 0.809011286974D-02 0.100000000000D+01
  </mgrwgt>
  </event>
  <event>
  5     66 0.17698235E-05 0.47031978E+02 0.75467711E-02 0.91032640E-01
        1 -1    0    0  501    0 0.00000000E+00 0.00000000E+00 0.32033058E+04 0.32033059E+04 0.32000000E+00 0.0000E+00 0.9000E+01
        2 -1    0    0  502    0 0.00000000E+00 0.00000000E+00 -.31747913E+03 0.31747930E+03 0.32000000E+00 0.0000E+00 0.9000E+01
       25  1    1    2    0    0 0.88369786E+02 0.50438736E+03 0.64208328E+03 0.83072966E+03 0.12500000E+03 0.0000E+00 0.9000E+01
        1  1    1    2  501    0 -.38033327E+02 -.27676875E+02 0.22089316E+04 0.22094323E+04 0.32000000E+00 0.0000E+00 0.9000E+01
        2  1    1    2  502    0 -.50336458E+02 -.47671049E+03 0.34811871E+02 0.48062315E+03 0.32000000E+00 0.0000E+00 0.9000E+01
#aMCatNLO 1  0  0  4  1 0.10028824D+03 0.00000000D+00  -5  6  0 0.00000000D+00 0.00000000D+00 0.00000000D+00 0.00000000D+00 0.00000000D+00
  <mgrwgt>
 0.1422063370D-01    6    2    0
 0.100845578919665D+04 0.000000000000000D+00 0.000000000000000D+00 0.100845578919665D+04
 0.100845578919665D+04 -.000000000000000D+00 -.000000000000000D+00 -.100845578919665D+04
 0.531499051907184D+03 0.883746915283947D+02 0.504451996172595D+03 -.677077516461810D+02
 0.696199332856022D+03 -.380287163206028D+02 -.276735194426355D+02 0.694608885723351D+03
 0.789213193630090D+03 -.503459752077917D+02 -.476778476729959D+03 -.626901134077170D+03
 0.000000000000000D+00 0.000000000000000D+00 0.000000000000000D+00 0.000000000000000D+00
 0.100845578919665D+04 0.000000000000000D+00 0.000000000000000D+00 0.100845578919665D+04
 0.100845578919665D+04 -.000000000000000D+00 -.000000000000000D+00 -.100845578919665D+04
 0.527093710455066D+03 0.867283109667643D+02 0.503253924060506D+03 -.376359880412899D+02
 0.325381115862878D+03 -.196400380671471D+03 0.525722408407324D+02 0.254039210605877D+03
 0.756084586637285D+03 -.527493056648085D+02 -.478527381730291D+03 -.583003394361223D+03
 0.408352165438065D+03 0.162421375369516D+03 -.772987831709464D+02 0.366600171796635D+03
0.187604399077D-01 0.000000000000D+00 0.000000000000D+00 0.197594537858D-04 0.000000000000D+00  6 1 2 25 1 2 21 0 0.49281630D+00 0.48842957D-01 0.27753405D+06 0.27753405D+06 0.27753405D+06 0.10870618D+01  1  2  2  3  6  4        1 0.119113855706D-01 0.100000000000D+01
0.870350209919D-02 0.000000000000D+00 -.720450289830D-04 0.197594537858D-04 0.000000000000D+00  6 1 2 25 1 2 21 2 0.49281630D+00 0.48842957D-01 0.27753405D+06 0.27753405D+06 0.27753405D+06 0.10870618D+01  1  2  3  3  6  4        1 0.653012919248D-02 0.100000000000D+01
-.114653724321D-01 0.000000000000D+00 0.000000000000D+00 0.197594537858D-04 0.000000000000D+00  6 1 2 25 1 2 21 2 0.49281630D+00 0.48842957D-01 0.27753405D+06 0.27753405D+06 0.27753405D+06 0.10870618D+01  1  2 15  3  6  4        1 -.860232609452D-02 0.100000000000D+01
-.523292812753D-03 0.000000000000D+00 0.000000000000D+00 0.197594537858D-04 0.000000000000D+00  6 1 2 25 1 2 21 2 0.49281630D+00 0.48842957D-01 0.27753405D+06 0.27753405D+06 0.27753405D+06 0.10870618D+01  1  2  4  3  6  4        1 -.392620077967D-03 0.100000000000D+01
-.898698188009D-02 0.000000000000D+00 0.000000000000D+00 0.197594537858D-04 0.000000000000D+00  6 1 2 25 1 2 21 2 0.49281630D+00 0.48842957D-01 0.27753405D+06 0.27753405D+06 0.27753405D+06 0.10870618D+01  1  2  5  3  6  4        1 -.674282054036D-02 0.100000000000D+01
0.153499625299D-01 0.000000000000D+00 -.000000000000D+00 0.197594537858D-04 0.000000000000D+00  6 1 2 25 1 2 21 2 0.49281630D+00 0.48842957D-01 0.27753405D+06 0.27753405D+06 0.27753405D+06 0.10870618D+01  1  2  6  3  6  4        1 0.115168856487D-01 0.100000000000D+01
  </mgrwgt>
  </event>
  <event>
  5     66 0.17698235E-05 0.59550141E+02 0.75467711E-02 0.93490976E-01
        1 -1    0    0  501    0 0.00000000E+00 0.00000000E+00 0.19533868E+04 0.19533869E+04 0.32000000E+00 0.0000E+00 0.9000E+01
        2 -1    0    0  502    0 0.00000000E+00 0.00000000E+00 -.11246875E+04 0.11246875E+04 0.32000000E+00 0.0000E+00 0.9000E+01
       25  1    1    2    0    0 -.16044488E+02 -.49976129E+03 0.47190943E+03 0.69881491E+03 0.12500000E+03 0.0000E+00 0.9000E+01
        1  1    1    2  501    0 -.54080286E+02 -.24944824E+02 0.12980149E+04 0.12993805E+04 0.32000000E+00 0.0000E+00 0.9000E+01
        2  1    1    2  502    0 0.70124774E+02 0.52470611E+03 -.94122500E+03 0.10798790E+04 0.32000000E+00 0.0000E+00 0.9000E+01
#aMCatNLO 1  0  0  1  4 0.21266667D+01 0.00000000D+00  -5  6  0 0.00000000D+00 0.00000000D+00 0.00000000D+00 0.00000000D+00 0.00000000D+00
  <mgrwgt>
 0.2207391176D-01   13    2    0
 0.148221113535724D+04 0.000000000000000D+00 0.000000000000000D+00 0.148221113535724D+04
 0.148221113535724D+04 0.000000000000000D+00 0.000000000000000D+00 -.148221113535724D+04
 0.593773625033088D+03 -.160556922633380D+02 -.499815486213050D+03 0.294735156152928D+03
 0.986241466073915D+03 -.540749316073443D+02 -.249423544122959D+02 0.984441979058014D+03
 0.138440717960748D+04 0.701306238706822D+02 0.524757840625346D+03 -.127917713521094D+04
 0.000000000000000D+00 0.000000000000000D+00 0.000000000000000D+00 0.000000000000000D+00
 0.157736240916140D+04 0.000000000000000D+00 0.000000000000000D+00 0.157736240916140D+04
 0.148222339977007D+04 0.000000000000000D+00 0.000000000000000D+00 -.148222339977007D+04
 0.594085728020154D+03 -.162779017287419D+02 -.500179037825512D+03 0.294735156152928D+03
 0.986277218673718D+03 -.544439250587241D+02 -.255460558072532D+02 0.984441979058014D+03
 0.138406008685230D+04 0.696127345854845D+02 0.523910534303952D+03 -.127917713521094D+04
 0.951627753853049D+02 0.110909220198152D+01 0.181455932881376D+01 0.951390093913307D+02
0.202588195808D-04 0.000000000000D+00 0.000000000000D+00 0.907411707909D-04 0.000000000000D+00  6 1 2 25 1 2 21 0 0.30052106D+00 0.17302885D+00 0.30494296D+06 0.30494296D+06 0.30494296D+06 0.10840272D+01  1  2  2  1  6  1        1 0.207839541040D-04 0.100000000000D+01
0.791106999201D-05 0.000000000000D+00 -.777992014600D-07 0.907411707909D-04 0.000000000000D+00  6 1 2 25 1 2 21 2 0.30052106D+00 0.17302885D+00 0.30494296D+06 0.30494296D+06 0.30494296D+06 0.10840272D+01  1  2  3  1  6  1        1 0.953739114001D-05 0.100000000000D+01
-.126085243687D-04 0.000000000000D+00 0.000000000000D+00 0.907411707909D-04 0.000000000000D+00  6 1 2 25 1 2 21 2 0.30052106D+00 0.17302885D+00 0.30494296D+06 0.30494296D+06 0.30494296D+06 0.10840272D+01  1  2 15  1  6  1        1 -.152005264426D-04 0.100000000000D+01
0.279655449837D-03 0.000000000000D+00 0.000000000000D+00 0.907411707909D-04 0.000000000000D+00  6 1 2 25 1 2 21 2 0.32191121D+00 0.17302885D+00 0.30614083D+06 0.30614083D+06 0.30614083D+06 0.10839014D+01  1  2 12  1  6  1        1 0.272175430992D-03 0.100000000000D+01
0.938519345594D-11 0.000000000000D+00 0.000000000000D+00 0.907411707909D-04 0.000000000000D+00  6 1 2 25 1 2 21 2 0.31981450D+00 0.17302885D+00 0.30614083D+06 0.30614083D+06 0.30614083D+06 0.10839014D+01  1  2 12  1  6  1        1 0.932793457257D-11 0.100000000000D+01
-.132018761597D+00 0.000000000000D+00 0.000000000000D+00 0.907411707909D-04 0.000000000000D+00  6 1 2 25 1 2 21 2 0.30052106D+00 0.17302885D+00 0.30494296D+06 0.30494296D+06 0.30494296D+06 0.10840272D+01  1  2  4  1  6  1        1 -.159158567481D+00 0.100000000000D+01
-.245702791158D+00 0.000000000000D+00 -.652858201340D-04 0.907411707909D-04 0.000000000000D+00  6 1 2 25 1 2 21 2 0.31981403D+00 0.17302885D+00 0.30494296D+06 0.30494296D+06 0.30494296D+06 0.10840272D+01  1  2  5  1  6  1        1 -.244338025831D+00 0.100000000000D+01
0.245232111351D+00 0.000000000000D+00 0.651596448050D-04 0.907411707909D-04 0.000000000000D+00  6 1 2 25 1 2 21 2 0.30052106D+00 0.17302885D+00 0.30494296D+06 0.30494296D+06 0.30494296D+06 0.10840272D+01  1  2  6  1  6  1        1 0.295645793604D+00 0.100000000000D+01
0.130464160034D+00 0.000000000000D+00 0.000000000000D+00 0.907411707909D-04 0.698996746708D-04  6 1 2 25 1 2 21 2 0.31981315D+00 0.17303028D+00 0.30614083D+06 0.30614083D+06 0.30614083D+06 0.10839014D+01  1  2 11  1  6  1        1 0.129668297695D+00 0.100000000000D+01
0.467150787169D-05 0.000000000000D+00 0.000000000000D+00 0.907411707909D-04 0.000000000000D+00  6 21 2 25 1 2 -1 2 0.32191121D+00 0.17302885D+00 0.30614083D+06 0.30614083D+06 0.30614083D+06 0.10839014D+01  1  2 12  5  6  1        1 0.212756540602D-05 0.100000000000D+01
0.143194405202D-12 0.000000000000D+00 0.000000000000D+00 0.907411707909D-04 0.000000000000D+00  6 21 2 25 1 2 -1 2 0.31981450D+00 0.17302885D+00 0.30614083D+06 0.30614083D+06 0.30614083D+06 0.10839014D+01  1  2 12  5  6  1        1 0.673268961451D-13 0.100000000000D+01
-.261854586377D-02 0.000000000000D+00 -.695416811692D-06 0.907411707909D-04 0.000000000000D+00  6 21 2 25 1 2 -1 2 0.31981403D+00 0.17302885D+00 0.30494296D+06 0.30494296D+06 0.30494296D+06 0.10840272D+01  1  2  5  5  6  1        1 -.123210507586D-02 0.100000000000D+01
0.255027909772D-02 0.000000000000D+00 0.000000000000D+00 0.907411707909D-04 0.131180250522D-05  6 21 2 25 1 2 -1 2 0.31981315D+00 0.17303028D+00 0.30614083D+06 0.30614083D+06 0.30614083D+06 0.10839014D+01  1  2 11  5  6  1        1 0.119909502192D-02 0.100000000000D+01
  </mgrwgt>
  </event>
  <event>
  6     66 0.17698235E-05 0.98286158E+01 0.75467711E-02 0.91171271E-01
        1 -1    0    0  501    0 0.00000000E+00 0.00000000E+00 0.27876738E+03 0.27876756E+03 0.32000000E+00 0.0000E+00 0.9000E+01
        2 -1    0    0  502    0 -.00000000E+00 -.00000000E+00 -.18400361E+04 0.18400362E+04 0.32000000E+00 0.0000E+00 0.9000E+01
       25  1    1    2    0    0 -.45261988E+03 0.49012777E+03 -.53648592E+03 0.86517752E+03 0.12500000E+03 0.0000E+00 0.9000E+01
        1  1    1    2  501    0 0.45406541E+03 -.49555449E+03 -.88161979E+03 0.11086042E+04 0.32000000E+00 0.0000E+00 0.9000E+01
        2  1    1    2  503    0 -.57959172E+01 0.11826400E+02 -.11668000E+03 0.11742138E+03 0.32000000E+00 0.0000E+00 0.9000E+01
       21  1    1    2  502  503 0.43503902E+01 -.63996777E+01 -.26483054E+02 0.27600660E+02 0.75000000E+00 0.0000E+00 0.9000E+01
#aMCatNLO 2  0  0  5  1 0.23991794D+03 0.00000000D+00  -5  6  0 0.00000000D+00 0.00000000D+00 0.00000000D+00 0.00000000D+00 0.00000000D+00
  <mgrwgt>
 0.1530826315D-01    1    2    0
 0.716199883736086D+03 0.000000000000000D+00 0.000000000000000D+00 0.716199883736086D+03
 0.716199883736086D+03 -.000000000000000D+00 -.000000000000000D+00 -.716199883736086D+03
 0.695354694473753D+03 -.452619587944634D+03 0.489977993064401D+03 0.151493320143490D+03
 0.678883555598226D+03 0.454172615275216D+03 -.495822893545357D+03 -.936470812789695D+02
 0.581615174001926D+02 -.155302733058210D+01 0.584490048095565D+01 -.578462388645199D+02
 0.000000000000000D+00 0.000000000000000D+00 0.000000000000000D+00 -.000000000000000D+00
 0.716199883736086D+03 0.000000000000000D+00 0.000000000000000D+00 0.716199883736086D+03
 0.716199883736086D+03 -.000000000000000D+00 -.000000000000000D+00 -.716199883736086D+03
 0.695075644422808D+03 -.452678288778226D+03 0.490198916755661D+03 0.149306866386564D+03
 0.678985560717687D+03 0.454115289103017D+03 -.495607143464945D+03 -.957823324654032D+02
 0.462303633331149D+02 -.583792348886427D+01 0.118894277783073D+02 -.442922865785274D+02
 0.121081989985607D+02 0.440092316407365D+01 -.648120106902334D+01 -.923224734263316D+01
0.113872411481D-02 0.000000000000D+00 0.000000000000D+00 0.558806042431D-07 0.187432094415D-08  6 1 2 25 1 2 21 2 0.42887305D-01 0.28308250D+00 0.47068210D+06 0.47068210D+06 0.47068210D+06 0.10703700D+01  1  2  1  4  6  5        2 0.153082631544D-01 0.100000000000D+01
  </mgrwgt>
  </event>
  <event>
  6     66 0.17698235E-05 0.25446359E+02 0.75467711E-02 0.88069662E-01
        1 -1    0    0  503    0 0.00000000E+00 0.00000000E+00 0.17014788E+04 0.17014788E+04 0.32000000E+00 0.0000E+00 0.9000E+01
        2 -1    0    0  502    0 0.00000000E+00 0.00000000E+00 -.11374836E+04 0.11374836E+04 0.32000000E+00 0.0000E+00 0.9000E+01
       25  1    1    2    0    0 0.34130888E+03 -.81433201E+03 0.24620052E+03 0.92513138E+03 0.12500000E+03 0.0000E+00 0.9000E+01
        1  1    1    2  501    0 -.35061816E+03 0.83047394E+03 0.63784215E+03 0.11042929E+04 0.32000000E+00 0.0000E+00 0.9000E+01
        2  1    1    2  502    0 0.18220201E+02 0.22958439E+02 -.56276548E+03 0.56352831E+03 0.32000000E+00 0.0000E+00 0.9000E+01
       21  1    1    2  503  501 -.89109251E+01 -.39100366E+02 0.24271801E+03 0.24600983E+03 0.75000000E+00 0.0000E+00 0.9000E+01
#aMCatNLO 2  0  0  1  4 0.12219373D+02 0.00000000D+00  -5  6  0 0.00000000D+00 0.00000000D+00 0.00000000D+00 0.00000000D+00 0.00000000D+00
  <mgrwgt>
 0.1164150053D-01    1    2    0
 0.128632963768091D+04 0.000000000000000D+00 0.000000000000000D+00 0.128632963768091D+04
 0.128632963768091D+04 0.000000000000000D+00 0.000000000000000D+00 -.128632963768091D+04
 0.912848813537374D+03 0.338146840804019D+03 -.828078966011331D+03 0.132702285136532D+03
 0.102188875422117D+04 -.354158899672262D+03 0.814815189902817D+03 0.504880486937518D+03
 0.637921707603282D+03 0.160120588682435D+02 0.132637761085143D+02 -.637582772074050D+03
 0.000000000000000D+00 -.000000000000000D+00 -.000000000000000D+00 0.000000000000000D+00
 0.150223392639198D+04 0.000000000000000D+00 0.000000000000000D+00 0.150223392639198D+04
 0.128834947704108D+04 0.000000000000000D+00 0.000000000000000D+00 -.128834947704108D+04
 0.901545457713765D+03 0.341288910481277D+03 -.814291836767610D+03 0.132702285136532D+03
 0.103317010656030D+04 -.350600060100426D+03 0.830431069299037D+03 0.504880486937518D+03
 0.638256256471515D+03 0.182220747105770D+02 0.229611339581708D+02 -.637582772074050D+03
 0.217611582687469D+03 -.891092509142787D+01 -.391003664895982D+02 0.213884449350904D+03
0.763155000790D-02 0.000000000000D+00 0.000000000000D+00 0.316980536686D-05 0.751026586291D-08  6 1 2 25 1 2 21 2 0.26176584D+00 0.17499739D+00 0.86727252D+06 0.86727252D+06 0.86727252D+06 0.10520057D+01  1  2  1  1  6  1        1 0.116415005345D-01 0.100000000000D+01
  </mgrwgt>
  </event>
  <event>
  5     66 0.17698235E-05 0.16620746E+03 0.75467711E-02 0.93139761E-01
        1 -1    0    0  501    0 0.00000000E+00 0.00000000E+00 0.47139822E+03 0.47139833E+03 0.32000000E+00 0.0000E+00 0.9000E+01
        2 -1    0    0  502    0 0.00000000E+00 0.00000000E+00 -.16317657E+04 0.16317658E+04 0.32000000E+00 0.0000E+00 0.9000E+01
       25  1    1    2    0    0 -.41244970E+03 0.30889000E+03 -.67332779E+03 0.85704323E+03 0.12500000E+03 0.0000E+00 0.9000E+01
        1  1    1    2  501    0 0.15646259E+03 0.56140300E+02 0.29919543E+03 0.34227223E+03 0.32000000E+00 0.0000E+00 0.9000E+01
        2  1    1    2  502    0 0.25598711E+03 -.36503030E+03 -.78623515E+03 0.90384863E+03 0.32000000E+00 0.0000E+00 0.9000E+01
#aMCatNLO 1  0  0  2  4 0.43315375D+01 0.00000000D+00  -5  6  0 0.00000000D+00 0.00000000D+00 0.00000000D+00 0.00000000D+00 0.00000000D+00
  <mgrwgt>
 0.4105008955D-03    1    2    0
 0.877047097059786D+03 0.000000000000000D+00 0.000000000000000D+00 0.877047097059786D+03
 0.877047097059786D+03 0.000000000000000D+00 0.000000000000000D+00 -.877047097059786D+03
 0.582207052099045D+03 -.412486141686581D+03 0.308948168338972D+03 -.240304522867074D+03
 0.608227973914314D+03 0.156441761082223D+03 0.561328272679413D+02 0.585078071153168D+03
 0.563659168106213D+03 0.256044380604359D+03 -.365080995606913D+03 -.344773548286094D+03
 0.000000000000000D+00 -.000000000000000D+00 0.000000000000000D+00 0.000000000000000D+00
 0.170759916462256D+04 0.000000000000000D+00 0.000000000000000D+00 0.170759916462256D+04
 0.924600985227485D+03 0.000000000000000D+00 0.000000000000000D+00 -.924600985227485D+03
 0.497701355008696D+03 -.343620688106678D+03 0.237192322329820D+03 -.240304522867074D+03
 0.631233552195598D+03 0.235481871918106D+03 -.262247225172402D+02 0.585078071153168D+03
 0.655169147784392D+03 0.333768717462366D+03 -.446067546291221D+03 -.344773548286094D+03
 0.848096094861359D+03 -.225629901273794D+03 0.235099946478641D+03 0.782998179395077D+03
0.460149183279D-04 0.000000000000D+00 0.000000000000D+00 0.327909223216D-06 0.000000000000D+00  6 1 2 25 1 2 21 2 0.72522814D-01 0.25104089D+00 0.32628435D+06 0.32628435D+06 0.32628435D+06 0.10818636D+01  1  2 14  2  6  2        2 0.410500895459D-03 0.100000000000D+01
  </mgrwgt>
  </event>
  <event>
  5     66 -.17698235E-05 0.63207460E+02 0.75467711E-02 0.93129666E-01
        1 -1    0    0  501    0 0.00000000E+00 0.00000000E+00 0.10907171E+04 0.10907172E+04 0.32000000E+00 0.0000E+00 0.9000E+01
        2 -1    0    0  502    0 -.00000000E+00 -.00000000E+00 -.31802508E+04 0.31802508E+04 0.32000000E+00 0.0000E+00 0.9000E+01
       25  1    1    2    0    0 0.45654619E+03 -.28366733E+03 -.50829647E+01 0.55186268E+03 0.12500000E+03 0.0000E+00 0.9000E+01
        1  1    1    2  501    0 -.40395496E+03 0.31872059E+03 0.73595390E+03 0.89799258E+03 0.32000000E+00 0.0000E+00 0.9000E+01
        2  1    1    2  502    0 -.52591231E+02 -.35053257E+02 -.28204046E+04 0.28211127E+04 0.32000000E+00 0.0000E+00 0.9000E+01
#aMCatNLO 1  0  0  5  1 0.74995519D+01 0.00000000D+00  -5  6  0 0.00000000D+00 0.00000000D+00 0.00000000D+00 0.00000000D+00 0.00000000D+00
  <mgrwgt>
 -.2198084520D-02    6    2    0
 0.186245915228713D+04 0.000000000000000D+00 0.000000000000000D+00 0.186245915228713D+04
 0.186245915228713D+04 -.000000000000000D+00 -.000000000000000D+00 -.186245915228713D+04
 0.629939137725426D+03 0.456532499747741D+03 -.283650672518057D+03 0.303839908327372D+03
 0.144241049177940D+04 -.403937172163859D+03 0.318706549366774D+03 0.134751954461904D+04
 0.165256867506943D+04 -.525953275838810D+02 -.350558768487156D+02 -.165135945294641D+04
 0.000000000000000D+00 0.000000000000000D+00 -.000000000000000D+00 0.000000000000000D+00
 0.186245915228713D+04 0.000000000000000D+00 0.000000000000000D+00 0.186245915228713D+04
 0.186245915228713D+04 -.000000000000000D+00 -.000000000000000D+00 -.186245915228713D+04
 0.629774260161530D+03 0.456521905096084D+03 -.283657734073157D+03 0.303507263224335D+03
 0.144170225145512D+04 -.403961428609733D+03 0.318690381942434D+03 0.134675795394115D+04
 0.153895506385609D+02 0.580094947181552D+01 0.388205089440415D+01 -.137155727163013D+02
 0.163805224231905D+04 -.583614259581664D+02 -.389146987636803D+02 -.163654964444918D+04
0.173078036433D-01 0.000000000000D+00 0.000000000000D+00 0.221941552458D-03 0.000000000000D+00  6 1 2 25 1 2 21 0 0.16780264D+00 0.48926936D+00 0.31897356D+06 0.31897356D+06 0.31897356D+06 0.10825869D+01  1  2  2  4  6  5        2 0.446525193759D-02 0.100000000000D+01
0.803572012816D-02 0.000000000000D+00 -.664665232395D-04 0.221941552458D-03 0.000000000000D+00  6 1 2 25 1 2 21 2 0.16780264D+00 0.48926936D+00 0.31897356D+06 0.31897356D+06 0.31897356D+06 0.10825869D+01  1  2  3  4  6  5        2 0.242970942950D-02 0.100000000000D+01
-.113157444691D-01 0.000000000000D+00 0.000000000000D+00 0.221941552458D-03 0.000000000000D+00  6 1 2 25 1 2 21 2 0.16780264D+00 0.48926936D+00 0.31897356D+06 0.31897356D+06 0.31897356D+06 0.10825869D+01  1  2 15  4  6  5        2 -.342146946382D-02 0.100000000000D+01
0.866927685009D-10 0.000000000000D+00 0.000000000000D+00 0.221941552458D-03 0.000000000000D+00  6 1 2 25 1 2 21 2 0.16780264D+00 0.48926936D+00 0.32688492D+06 0.32688492D+06 0.32688492D+06 0.10818049D+01  1  2 12  4  6  5        2 0.261113452170D-10 0.100000000000D+01
-.188570986500D-01 0.000000000000D+00 0.000000000000D+00 0.221941552458D-03 0.000000000000D+00  6 1 2 25 1 2 21 2 0.16780264D+00 0.48926936D+00 0.31897356D+06 0.31897356D+06 0.31897356D+06 0.10825869D+01  1  2  5  4  6  5        2 -.570170061579D-02 0.100000000000D+01
0.100015811206D-03 0.000000000000D+00 0.000000000000D+00 0.221941552458D-03 0.755678729693D-07  6 1 2 25 1 2 21 2 0.16780264D+00 0.48926936D+00 0.32688492D+06 0.32688492D+06 0.32688492D+06 0.10818049D+01  1  2 11  4  6  5        2 0.301241662795D-04 0.100000000000D+01
  </mgrwgt>
  </event>
  <event>
  5     66 -.17698235E-05 0.33739339E+02 0.75467711E-02 0.94435299E-01
        1 -1    0    0  501    0 0.00000000E+00 0.00000000E+00 0.27393378E+03 0.27393396E+03 0.32000000E+00 0.0000E+00 0.9000E+01
        2 -1    0    0  502    0 -.00000000E+00 -.00000000E+00 -.13223557E+04 0.13223558E+04 0.32000000E+00 0.0000E+00 0.9000E+01
       25  1    1    2    0    0 0.33342759E+03 0.34089349E+03 -.20790454E+03 0.53500619E+03 0.12500000E+03 0.0000E+00 0.9000E+01
        1  1    1    2  501    0 -.14083187E+02 0.30749972E+02 0.40746412E+02 0.52955353E+02 0.32000000E+00 0.0000E+00 0.9000E+01
        2  1    1    2  502    0 -.31934440E+03 -.37164346E+03 -.88126381E+03 0.10083282E+04 0.32000000E+00 0.0000E+00 0.9000E+01
#aMCatNLO 1  0  0  4  1 0.36036582D+02 0.00000000D+00  -5  6  0 0.00000000D+00 0.00000000D+00 0.00000000D+00 0.00000000D+00 0.00000000D+00
  <mgrwgt>
 -.6235203144D-03    1    2    0
 0.601862175010332D+03 0.000000000000000D+00 0.000000000000000D+00 0.601862175010332D+03
 0.601862175010332D+03 -.000000000000000D+00 -.000000000000000D+00 -.601862175010332D+03
 0.528599307680750D+03 0.333489004754923D+03 0.341044057239820D+03 0.190437031087817D+03
 0.105457399709568D+03 -.140489563404609D+02 0.306752314744306D+02 0.999145642698681D+02
 0.569667642630345D+03 -.319440048414462D+03 -.371719288714250D+03 -.290351595357685D+03
 0.000000000000000D+00 0.000000000000000D+00 0.000000000000000D+00 -.000000000000000D+00
 0.601862175010332D+03 0.000000000000000D+00 0.000000000000000D+00 0.601862175010332D+03
 0.601862175010332D+03 -.000000000000000D+00 -.000000000000000D+00 -.601862175010332D+03
 0.530840285570440D+03 0.332823697798958D+03 0.342496723500658D+03 0.195168617762304D+03
 0.978622470732546D+02 -.172947388802145D+02 0.215542154922517D+02 0.938793225572357D+02
 0.566481224423066D+03 -.320153527265996D+03 -.370161441398583D+03 -.285277415693428D+03
 0.854059295390293D+01 0.462456834725294D+01 0.611050240567263D+01 -.377052462611127D+01
-.221478022674D-04 0.000000000000D+00 0.000000000000D+00 0.376892238171D-06 0.000000000000D+00  6 1 2 25 1 2 21 2 0.42143675D-01 0.20343936D+00 0.25855308D+06 0.25855308D+06 0.25855308D+06 0.10893617D+01  1  2 14  3  6  4        1 -.623520314371D-03 0.100000000000D+01
  </mgrwgt>
  </event>
  <event>
  5     66 0.17698235E-05 0.82477368E+02 0.75467711E-02 0.92082642E-01
        1 -1    0    0  501    0 0.00000000E+00 0.00000000E+00 0.37838828E+03 0.37838842E+03 0.32000000E+00 0.0000E+00 0.9000E+01
        2 -1    0    0  502    0 0.00000000E+00 0.00000000E+00 -.47344332E+04 0.47344332E+04 0.32000000E+00 0.0000E+00 0.9000E+01
       25  1    1    2    0    0 0.46895990E+03 -.62802124E+02 -.37332636E+03 0.61552016E+03 0.12500000E+03 0.0000E+00 0.9000E+01
        1  1    1    2  501    0 -.80952307E+02 0.15835862E+02 0.24141851E+03 0.25512163E+03 0.32000000E+00 0.0000E+00 0.9000E+01
        2  1    1    2  502    0 -.38800759E+03 0.46966262E+02 -.42241370E+04 0.42421798E+04 0.32000000E+00 0.0000E+00 0.9000E+01
#aMCatNLO 1  0  0  2  1 0.88479449D+02 0.00000000D+00  -5  6  0 0.00000000D+00 0.00000000D+00 0.00000000D+00 0.00000000D+00 0.00000000D+00
  <mgrwgt>
 0.1179853481D-01    7    2    0
 0.133845224365914D+04 0.000000000000000D+00 0.000000000000000D+00 0.133845224365914D+04
 0.133845224365914D+04 0.000000000000000D+00 0.000000000000000D+00 -.133845224365914D+04
 0.568207093540030D+03 0.468994592354018D+03 -.628057355182458D+02 0.288675965535597D+03
 0.880029699855279D+03 -.809431795257693D+02 0.158340763195497D+02 0.876156239687156D+03
 0.122866769392297D+04 -.388051412828249D+03 0.469716591986961D+02 -.116483220522275D+04
 0.000000000000000D+00 -.000000000000000D+00 -.000000000000000D+00 -.000000000000000D+00
 0.144542234656924D+04 0.000000000000000D+00 0.000000000000000D+00 0.144542234656924D+04
 0.150046667526329D+04 0.000000000000000D+00 0.000000000000000D+00 -.150046667526329D+04
 0.574649799065722D+03 0.480781836264096D+03 -.106020944577006D+02 0.288675965535597D+03
 0.883674152189217D+03 -.627526189895397D+02 0.963968864359635D+02 0.876156239687156D+03
 0.123034656003313D+04 -.362689531583737D+03 0.159294994085885D+03 -.116483220522275D+04
 0.257218510544453D+03 -.553396856908188D+02 -.245089786064148D+03 -.550443286940487D+02
0.713834130922D-01 0.000000000000D+00 0.000000000000D+00 0.992115777776D-04 0.000000000000D+00  6 1 2 25 1 2 21 0 0.58213593D-01 0.72837435D+00 0.23173378D+06 0.23173378D+06 0.23173378D+06 0.10929467D+01  1  2  2  2  6  2        2 0.481871146560D-02 0.100000000000D+01
0.184536120538D-01 0.000000000000D+00 -.274131101959D-03 0.992115777776D-04 0.000000000000D+00  6 1 2 25 1 2 21 2 0.58213593D-01 0.72837435D+00 0.23173378D+06 0.23173378D+06 0.23173378D+06 0.10929467D+01  1  2  3  2  6  2        2 0.148803428772D-02 0.100000000000D+01
-.405272707092D-01 0.000000000000D+00 0.000000000000D+00 0.992115777776D-04 0.000000000000D+00  6 1 2 25 1 2 21 2 0.58213593D-01 0.72837435D+00 0.23173378D+06 0.23173378D+06 0.23173378D+06 0.10929467D+01  1  2 15  2  6  2        2 -.326797638464D-02 0.100000000000D+01
-.105099534346D-02 0.000000000000D+00 0.000000000000D+00 0.992115777776D-04 0.000000000000D+00  6 1 2 25 1 2 21 2 0.58213593D-01 0.72837435D+00 0.23173378D+06 0.23173378D+06 0.23173378D+06 0.10929467D+01  1  2  4  2  6  2        2 -.847485631945D-04 0.100000000000D+01
-.116861258538D+00 0.000000000000D+00 -.431272735136D-01 0.992115777776D-04 0.000000000000D+00  6 1 2 25 1 2 21 2 0.58213593D-01 0.82262246D+00 0.23173378D+06 0.23173378D+06 0.23173378D+06 0.10929467D+01  1  2  5  2  6  2        2 -.140083860957D-02 0.100000000000D+01
0.127057440475D+00 0.000000000000D+00 0.538280382947D-01 0.992115777776D-04 0.000000000000D+00  6 1 2 25 1 2 21 2 0.58213593D-01 0.72837435D+00 0.23173378D+06 0.23173378D+06 0.23173378D+06 0.10929467D+01  1  2  6  2  6  2        2 0.102454645403D-01 0.100000000000D+01
-.203874013741D-02 0.000000000000D+00 -.827910545210D-03 0.992115777776D-04 0.000000000000D+00  6 1 21 25 1 2 -2 2 0.58213593D-01 0.82262246D+00 0.23173378D+06 0.23173378D+06 0.23173378D+06 0.10929467D+01  1  2  5  6  6  2        2 -.111922797339D-06 0.100000000000D+01
  </mgrwgt>
  </event>
  <event>
  5     66 -.17698235E-05 0.37174699E+03 0.75467711E-02 0.90109590E-01
        1 -1    0    0  501    0 0.00000000E+00 0.00000000E+00 0.27839557E+04 0.27839557E+04 0.32000000E+00 0.0000E+00 0.9000E+01
        2 -1    0    0  502    0 0.00000000E+00 0.00000000E+00 -.27469527E+04 0.27469528E+04 0.32000000E+00 0.0000E+00 0.9000E+01
       25  1    1    2    0    0 -.76238694E+02 0.59002732E+03 0.38934618E+03 0.72191414E+03 0.12500000E+03 0.0000E+00 0.9000E+01
        1  1    1    2  501    0 -.30549802E+03 -.31387920E+03 0.21849032E+04 0.22283742E+04 0.32000000E+00 0.0000E+00 0.9000E+01
        2  1    1    2  502    0 0.38173671E+03 -.27614812E+03 -.25372465E+04 0.25806202E+04 0.32000000E+00 0.0000E+00 0.9000E+01
#aMCatNLO 1  0  0  5  2 0.31739423D+02 0.00000000D+00  -5  6  0 0.00000000D+00 0.00000000D+00 0.00000000D+00 0.00000000D+00 0.00000000D+00
  <mgrwgt>
 -.1146108217D-02    8    2    0
 0.276539234659224D+04 0.000000000000000D+00 0.000000000000000D+00 0.276539234659224D+04
 0.276539234659224D+04 -.000000000000000D+00 -.000000000000000D+00 -.276539234659224D+04
 0.719369652931087D+03 -.762659191426625D+02 0.590034616912824D+03 0.384591156918688D+03
 0.221374833821037D+04 -.305490031289174D+03 -.313870992751821D+03 0.216998676162347D+04
 0.259766670204301D+04 0.381755950431837D+03 -.276163624161003D+03 -.255457791854216D+04
 0.000000000000000D+00 0.000000000000000D+00 0.000000000000000D+00 -.000000000000000D+00
 0.276539234659224D+04 0.000000000000000D+00 0.000000000000000D+00 0.276539234659224D+04
 0.276539234659224D+04 -.000000000000000D+00 -.000000000000000D+00 -.276539234659224D+04
 0.719298768901778D+03 -.762493440754179D+02 0.590022626449713D+03 0.384480242339011D+03
 0.221341196653095D+04 -.305439025457226D+03 -.313907890553645D+03 0.216964544835287D+04
 0.172085891775725D+04 0.283686967126336D+03 -.176469664907664D+03 -.168811598442604D+04
 0.877215039994487D+03 0.980014024063082D+02 -.996450709884040D+02 -.866009706265838D+03
0.138454700010D-03 0.000000000000D+00 0.000000000000D+00 0.679357425018D-05 0.000000000000D+00  6 1 2 25 1 2 21 0 0.42830088D+00 0.42260812D+00 0.57539831D+06 0.57539831D+06 0.57539831D+06 0.10642259D+01  1  2  2  4  6  5        2 0.431002012629D-05 0.100000000000D+01
0.117827927731D-04 0.000000000000D+00 -.531702503997D-06 0.679357425018D-05 0.000000000000D+00  6 1 2 25 1 2 21 2 0.42830088D+00 0.42260812D+00 0.57539831D+06 0.57539831D+06 0.57539831D+06 0.10642259D+01  1  2  3  4  6  5        2 0.415420051112D-06 0.100000000000D+01
-.817999545163D-04 0.000000000000D+00 0.000000000000D+00 0.679357425018D-05 0.000000000000D+00  6 1 2 25 1 2 21 2 0.42830088D+00 0.42260812D+00 0.57539831D+06 0.57539831D+06 0.57539831D+06 0.10642259D+01  1  2 15  4  6  5        2 -.288398021932D-05 0.100000000000D+01
0.534225850178D-01 0.000000000000D+00 0.000000000000D+00 0.679357425018D-05 0.000000000000D+00  6 1 2 25 1 2 21 2 0.42830088D+00 0.42260812D+00 0.57741915D+06 0.57741915D+06 0.57741915D+06 0.10641196D+01  1  2 12  4  6  5        2 0.188229077380D-02 0.100000000000D+01
0.147726043845D-08 0.000000000000D+00 0.000000000000D+00 0.679357425018D-05 0.000000000000D+00  6 1 2 25 1 2 21 2 0.42830088D+00 0.42260812D+00 0.57741915D+06 0.57741915D+06 0.57741915D+06 0.10641196D+01  1  2 12  4  6  5        2 0.520497780644D-10 0.100000000000D+01
-.107437595496D+00 0.000000000000D+00 0.000000000000D+00 0.679357425018D-05 0.000000000000D+00  6 1 2 25 1 2 21 2 0.42830088D+00 0.42260812D+00 0.57539831D+06 0.57539831D+06 0.57539831D+06 0.10642259D+01  1  2  4  4  6  5        2 -.378787374703D-02 0.100000000000D+01
-.550733113133D-01 0.000000000000D+00 0.000000000000D+00 0.679357425018D-05 0.000000000000D+00  6 1 2 25 1 2 21 2 0.42830088D+00 0.42260812D+00 0.57539831D+06 0.57539831D+06 0.57539831D+06 0.10642259D+01  1  2  5  4  6  5        2 -.194169228308D-02 0.100000000000D+01
0.765624895456D-01 0.000000000000D+00 -.000000000000D+00 0.679357425018D-05 0.000000000000D+00  6 1 2 25 1 2 21 2 0.42830088D+00 0.42260812D+00 0.57539831D+06 0.57539831D+06 0.57539831D+06 0.10642259D+01  1  2  6  4  6  5        2 0.269932552771D-02 0.100000000000D+01
  </mgrwgt>
  </event>
  <event>
  5     66 -.17698235E-05 0.27628144E+02 0.75467711E-02 0.92920199E-01
        1 -1    0    0  501    0 0.00000000E+00 0.00000000E+00 0.83780523E+03 0.83780529E+03 0.32000000E+00 0.0000E+00 0.9000E+01
        2 -1    0    0  502    0 -.00000000E+00 -.00000000E+00 -.12194313E+04 0.12194314E+04 0.32000000E+00 0.0000E+00 0.9000E+01
       25  1    1    2    0    0 -.36654356E+02 -.55974780E+03 -.16467667E+03 0.59783321E+03 0.12500000E+03 0.0000E+00 0.9000E+01
        1  1    1    2  501    0 0.92439872E+01 0.56318654E+03 0.49322659E+03 0.74869026E+03 0.32000000E+00 0.0000E+00 0.9000E+01
        2  1    1    2  502    0 0.27410369E+02 -.34387407E+01 -.71017601E+03 0.71071318E+03 0.32000000E+00 0.0000E+00 0.9000E+01
#aMCatNLO 1  0  0  4  2 0.36364718D+02 0.00000000D+00  -5  6  0 0.00000000D+00 0.00000000D+00 0.00000000D+00 0.00000000D+00 0.00000000D+00
  <mgrwgt>
 -.3275586481D-02    1    2    0
 0.101076507713672D+04 0.000000000000000D+00 0.000000000000000D+00 0.101076507713672D+04
 0.101076507713672D+04 -.000000000000000D+00 -.000000000000000D+00 -.101076507713672D+04
 0.577277069122133D+03 -.366569326635117D+02 -.559726933810138D+03 -.546428713506460D+02
 0.854994691352418D+03 0.924364752251573D+01 0.563165850002135D+03 0.643253218112952D+03
 0.589258393798882D+03 0.274132851409959D+02 -.343891619199653D+01 -.588610346762306D+03
 0.000000000000000D+00 0.000000000000000D+00 0.000000000000000D+00 0.000000000000000D+00
 0.101076507713672D+04 0.000000000000000D+00 0.000000000000000D+00 0.101076507713672D+04
 0.101076507713672D+04 -.000000000000000D+00 -.000000000000000D+00 -.101076507713672D+04
 0.574174107719425D+03 -.366095941242611D+02 -.556842850591913D+03 -.513486449492726D+02
 0.785106485567153D+03 0.223993014299203D+02 0.484674873700497D+03 0.617236366215136D+03
 0.585892462455279D+03 0.274615980230815D+02 -.495471492324314D+00 -.585248317130369D+03
 0.763570985315763D+02 -.132513053287407D+02 0.726634483837412D+02 0.193605958645061D+02
-.511069922098D-03 0.000000000000D+00 0.000000000000D+00 0.152991362160D-04 0.000000000000D+00  6 1 2 25 1 2 21 2 0.12889312D+00 0.18760483D+00 0.33962959D+06 0.33962959D+06 0.33962959D+06 0.10805876D+01  1  2 14  3  6  4        1 -.327558648112D-02 0.100000000000D+01
  </mgrwgt>
  </event>
  <event>
  5     66 -.17698235E-05 0.66630508E+02 0.75467711E-02 0.94198303E-01
        1 -1    0    0  501    0 0.00000000E+00 0.00000000E+00 0.70588380E+03 0.70588388E+03 0.32000000E+00 0.0000E+00 0.9000E+01
        2 -1    0    0  502    0 0.00000000E+00 0.00000000E+00 -.13403665E+04 0.13403665E+04 0.32000000E+00 0.0000E+00 0.9000E+01
       25  1    1    2    0    0 0.47462129E+03 0.35303318E+02 -.42894969E+03 0.65278980E+03 0.12500000E+03 0.0000E+00 0.9000E+01
        1  1    1    2  501    0 -.47888680E-02 -.66636599E+02 0.52090764E+03 0.52515265E+03 0.32000000E+00 0.0000E+00 0.9000E+01
        2  1    1    2  502    0 -.47461650E+03 0.31333281E+02 -.72644062E+03 0.86830793E+03 0.32000000E+00 0.0000E+00 0.9000E+01
#aMCatNLO 1  0  0  1  4 0.42527912D+01 0.00000000D+00  -5  6  0 0.00000000D+00 0.00000000D+00 0.00000000D+00 0.00000000D+00 0.00000000D+00
  <mgrwgt>
 -.1059957033D-01   13    2    0
 0.972698873122937D+03 0.000000000000000D+00 0.000000000000000D+00 0.972698873122937D+03
 0.972698873122937D+03 0.000000000000000D+00 0.000000000000000D+00 -.972698873122937D+03
 0.546768826930775D+03 0.474685982399652D+03 0.352987353427522D+02 -.238240146700205D+03
 0.722203007568539D+03 -.478843028449761D-02 -.666305076541392D+02 0.719122770858958D+03
 0.676425911746560D+03 -.474681193969367D+03 0.313317723113870D+02 -.480882624158753D+03
 0.000000000000000D+00 0.000000000000000D+00 -.000000000000000D+00 0.000000000000000D+00
 0.112636979674293D+04 0.000000000000000D+00 0.000000000000000D+00 0.112636979674293D+04
 0.972730621440442D+03 0.000000000000000D+00 0.000000000000000D+00 -.972730621440442D+03
 0.545819868207440D+03 0.473562295081982D+03 0.357031330129136D+02 -.238240146700205D+03
 0.722155419405068D+03 -.149025798875797D+01 -.660959101561555D+02 0.719122770858958D+03
 0.677427107094423D+03 -.476073582041869D+03 0.318328712235363D+02 -.480882624158753D+03
 0.153698023476438D+03 0.400154494864543D+01 -.144009408029436D+01 0.153639175302484D+03
0.102675675980D-04 0.000000000000D+00 0.000000000000D+00 0.764278135181D-05 0.000000000000D+00  6 1 2 25 1 2 21 0 0.10859752D+00 0.20621024D+00 0.26753751D+06 0.26753751D+06 0.26753751D+06 0.10882509D+01  1  2  2  1  6  1        1 0.637860392728D-04 0.100000000000D+01
0.359140204534D-05 0.000000000000D+00 -.394301630888D-07 0.764278135181D-05 0.000000000000D+00  6 1 2 25 1 2 21 2 0.10859752D+00 0.20621024D+00 0.26753751D+06 0.26753751D+06 0.26753751D+06 0.10882509D+01  1  2  3  1  6  1        1 0.264228798769D-04 0.100000000000D+01
-.621960325443D-05 0.000000000000D+00 0.000000000000D+00 0.764278135181D-05 0.000000000000D+00  6 1 2 25 1 2 21 2 0.10859752D+00 0.20621024D+00 0.26753751D+06 0.26753751D+06 0.26753751D+06 0.10882509D+01  1  2 15  1  6  1        1 -.457592404301D-04 0.100000000000D+01
0.605591577282D-02 0.000000000000D+00 0.000000000000D+00 0.764278135181D-05 0.000000000000D+00  6 1 2 25 1 2 21 2 0.12694390D+00 0.20621024D+00 0.26966396D+06 0.26966396D+06 0.26966396D+06 0.10879939D+01  1  2 12  1  6  1        1 0.348467389513D-01 0.100000000000D+01
0.168486572026D-07 0.000000000000D+00 0.000000000000D+00 0.764278135181D-05 0.000000000000D+00  6 1 2 25 1 2 21 2 0.12575709D+00 0.20621024D+00 0.26966396D+06 0.26966396D+06 0.26966396D+06 0.10879939D+01  1  2 12  1  6  1        1 0.984283729653D-07 0.100000000000D+01
-.445977447177D-01 0.000000000000D+00 0.000000000000D+00 0.764278135181D-05 0.000000000000D+00  6 1 2 25 1 2 21 2 0.10859752D+00 0.20621024D+00 0.26753751D+06 0.26753751D+06 0.26753751D+06 0.10882509D+01  1  2  4  1  6  1        1 -.328117219008D+00 0.100000000000D+01
-.424582323318D-01 0.000000000000D+00 -.188079723144D-04 0.764278135181D-05 0.000000000000D+00  6 1 2 25 1 2 21 2 0.12575586D+00 0.20621024D+00 0.26753751D+06 0.26753751D+06 0.26753751D+06 0.10882509D+01  1  2  5  1  6  1        1 -.248266353089D+00 0.100000000000D+01
0.420083897257D-01 0.000000000000D+00 0.186074058535D-04 0.764278135181D-05 0.000000000000D+00  6 1 2 25 1 2 21 2 0.10859752D+00 0.20621024D+00 0.26753751D+06 0.26753751D+06 0.26753751D+06 0.10882509D+01  1  2  6  1  6  1        1 0.309066660188D+00 0.100000000000D+01
0.379831543568D-01 0.000000000000D+00 0.000000000000D+00 0.764278135181D-05 0.303202923228D-05  6 1 2 25 1 2 21 2 0.12575419D+00 0.20621697D+00 0.26966396D+06 0.26966396D+06 0.26966396D+06 0.10879939D+01  1  2 11  1  6  1        1 0.221889918762D+00 0.100000000000D+01
0.142652551972D-03 0.000000000000D+00 0.000000000000D+00 0.764278135181D-05 0.000000000000D+00  6 21 2 25 1 2 -1 2 0.12694390D+00 0.20621024D+00 0.26966396D+06 0.26966396D+06 0.26966396D+06 0.10879939D+01  1  2 12  5  6  1        1 0.138204462962D-02 0.100000000000D+01
0.377468993024D-09 0.000000000000D+00 0.000000000000D+00 0.764278135181D-05 0.000000000000D+00  6 21 2 25 1 2 -1 2 0.12575709D+00 0.20621024D+00 0.26966396D+06 0.26966396D+06 0.26966396D+06 0.10879939D+01  1  2 12  5  6  1        1 0.375433684616D-08 0.100000000000D+01
-.951036191646D-03 0.000000000000D+00 -.421341634833D-06 0.764278135181D-05 0.000000000000D+00  6 21 2 25 1 2 -1 2 0.12575586D+00 0.20621024D+00 0.26753751D+06 0.26753751D+06 0.26753751D+06 0.10882509D+01  1  2  5  5  6  1        1 -.947075147724D-02 0.100000000000D+01
0.806828041276D-03 0.000000000000D+00 0.000000000000D+00 0.764278135181D-05 0.607588736256D-07  6 21 2 25 1 2 -1 2 0.12575419D+00 0.20621697D+00 0.26966396D+06 0.26966396D+06 0.26966396D+06 0.10879939D+01  1  2 11  5  6  1        1 0.802483885286D-02 0.100000000000D+01
  </mgrwgt>
  </event>
  <event>
  6     66 0.17698235E-05 0.50731848E+02 0.75467711E-02 0.92664752E-01
        1 -1    0    0  501    0 0.00000000E+00 0.00000000E+00 0.12428794E+04 0.12428795E+04 0.32000000E+00 0.0000E+00 0.9000E+01
        2 -1    0    0  502    0 -.00000000E+00 -.00000000E+00 -.18992519E+04 0.18992520E+04 0.32000000E+00 0.0000E+00 0.9000E+01
       25  1    1    2    0    0 0.40919201E+03 0.36637970E+03 -.80076385E+03 0.97904031E+03 0.12500000E+03 0.0000E+00 0.9000E+01
        1  1    1    2  503    0 -.22008497E+02 0.49085247E+02 0.98566359E+03 0.98713047E+03 0.32000000E+00 0.0000E+00 0.9000E+01
        2  1    1    2  502    0 -.39262909E+03 -.41262891E+03 -.92808542E+03 0.10889274E+04 0.32000000E+00 0.0000E+00 0.9000E+01
       21  1    1    2  501  503 0.54455844E+01 -.28360359E+01 0.86813173E+02 0.87033252E+02 0.75000000E+00 0.0000E+00 0.9000E+01
#aMCatNLO 2  0  0  4  2 0.94544111D+01 0.00000000D+00  -5  6  0 0.00000000D+00 0.00000000D+00 0.00000000D+00 0.00000000D+00 0.00000000D+00
  <mgrwgt>
 0.3796789405D-02    5    2    0
 0.153640530302031D+04 0.000000000000000D+00 0.000000000000000D+00 0.153640530302031D+04
 0.153640530302031D+04 -.000000000000000D+00 -.000000000000000D+00 -.153640530302031D+04
 0.830241613794265D+03 0.409323005548311D+03 0.366505228862251D+03 -.609757928707149D+03
 0.132715485028316D+04 -.165644800428823D+02 0.462535889183755D+02 0.132624515838634D+04
 0.915414141963196D+03 -.392758525505430D+03 -.412758817780624D+03 -.716487229679187D+03
 0.000000000000000D+00 0.000000000000000D+00 0.000000000000000D+00 0.000000000000000D+00
 0.153640530302031D+04 0.000000000000000D+00 0.000000000000000D+00 0.153640530302031D+04
 0.153640530302031D+04 -.000000000000000D+00 -.000000000000000D+00 -.153640530302031D+04
 0.830152576490979D+03 0.409321472021251D+03 0.366509510984602D+03 -.609635145931395D+03
 0.122024879615849D+04 -.220171076220688D+02 0.491005307640811D+02 0.121906173320996D+04
 0.915306782943450D+03 -.392760216344927D+03 -.412754096389140D+03 -.716351851587583D+03
 0.107102450447705D+03 0.545585194574361D+01 -.285594535954165D+01 0.106925264309014D+03
-.247342009232D-08 0.000000000000D+00 0.000000000000D+00 0.324103625687D-04 0.000000000000D+00  6 1 2 25 1 2 21 2 0.19121222D+00 0.29219261D+00 0.35593096D+06 0.35593096D+06 0.35593096D+06 0.10791013D+01  1  2 13  3  6  4        1 -.325777128152D-08 0.100000000000D+01
-.480932340353D-03 0.000000000000D+00 0.000000000000D+00 0.324103625687D-04 0.000000000000D+00  6 1 2 25 1 2 21 2 0.19121222D+00 0.29219261D+00 0.34949421D+06 0.34949421D+06 0.34949421D+06 0.10796792D+01  1  2  8  3  6  4        1 -.635014249792D-03 0.100000000000D+01
-.491158697370D-02 0.000000000000D+00 0.000000000000D+00 0.324103625687D-04 0.000000000000D+00  6 1 2 25 1 2 21 2 0.19121222D+00 0.29219261D+00 0.34949421D+06 0.34949421D+06 0.34949421D+06 0.10796792D+01  1  2  9  3  6  4        1 -.648516944212D-02 0.100000000000D+01
0.532389313643D-02 0.000000000000D+00 0.000000000000D+00 0.324103625687D-04 0.000000000000D+00  6 1 2 25 1 2 21 2 0.19121222D+00 0.29219261D+00 0.34949421D+06 0.34949421D+06 0.34949421D+06 0.10796792D+01  1  2 10  3  6  4        1 0.702957094446D-02 0.100000000000D+01
0.295146154181D-02 0.000000000000D+00 0.000000000000D+00 0.324103625687D-04 0.782416219242D-06  6 1 2 25 1 2 21 2 0.19121222D+00 0.29219261D+00 0.35593096D+06 0.35593096D+06 0.35593096D+06 0.10791013D+01  1  2  1  3  6  4        1 0.388740541056D-02 0.100000000000D+01
  </mgrwgt>
  </event>
  <event>
  5     66 0.17698235E-05 0.44143688E+02 0.75467711E-02 0.91746893E-01
        1 -1    0    0  501    0 0.00000000E+00 0.00000000E+00 0.20881778E+04 0.20881778E+04 0.32000000E+00 0.0000E+00 0.9000E+01
        2 -1    0    0  502    0 0.00000000E+00 0.00000000E+00 -.79724250E+03 0.79724257E+03 0.32000000E+00 0.0000E+00 0.9000E+01
       25  1    1    2    0    0 0.31090283E+03 -.43346646E+03 0.13112562E+04 0.14211163E+04 0.12500000E+03 0.0000E+00 0.9000E+01
        1  1    1    2  501    0 -.38865748E+02 -.20983583E+02 0.62663708E+03 0.62819184E+03 0.32000000E+00 0.0000E+00 0.9000E+01
        2  1    1    2  502    0 -.27203708E+03 0.45445004E+03 -.64695796E+03 0.83611226E+03 0.32000000E+00 0.0000E+00 0.9000E+01
#aMCatNLO 1  0  0  4  2 0.61455575D+02 0.00000000D+00  -5  6  0 0.00000000D+00 0.00000000D+00 0.00000000D+00 0.00000000D+00 0.00000000D+00
  <mgrwgt>
 0.2121672103D-02    6    2    0
 0.129026517523846D+04 0.000000000000000D+00 0.000000000000000D+00 0.129026517523846D+04
 0.129026517523846D+04 -.000000000000000D+00 -.000000000000000D+00 -.129026517523846D+04
 0.933254556452403D+03 0.310915936822945D+03 -.433532826324771D+03 0.755459883691741D+03
 0.388712844057510D+03 -.388439074818445D+02 -.209717910668870D+02 0.386198148579543D+03
 0.125856294996701D+04 -.272072029341100D+03 0.454504617391658D+03 -.114165803227128D+04
 0.000000000000000D+00 0.000000000000000D+00 0.000000000000000D+00 0.000000000000000D+00
 0.129026517523846D+04 0.000000000000000D+00 0.000000000000000D+00 0.129026517523846D+04
 0.129026517523846D+04 -.000000000000000D+00 -.000000000000000D+00 -.129026517523846D+04
 0.955947913006188D+03 0.308086393074822D+03 -.435060494475252D+03 0.783592083248665D+03
 0.171171637875201D+03 -.123749762521199D+03 -.355729687105437D+02 0.112784262137696D+03
 0.122519987620240D+04 -.275792072952213D+03 0.452496169157957D+03 -.110467220750794D+04
 0.228210923393133D+03 0.914554423985902D+02 0.181372940278392D+02 0.208295862121581D+03
0.152469572207D-02 0.000000000000D+00 0.000000000000D+00 0.219658334281D-04 0.000000000000D+00  6 1 2 25 1 2 21 0 0.32125813D+00 0.12265270D+00 0.31461106D+06 0.31461106D+06 0.31461106D+06 0.10830272D+01  1  2  2  3  6  4        1 0.205200627560D-02 0.100000000000D+01
0.418240517334D-03 0.000000000000D+00 -.585523303435D-05 0.219658334281D-04 0.000000000000D+00  6 1 2 25 1 2 21 2 0.32125813D+00 0.12265270D+00 0.31461106D+06 0.31461106D+06 0.31461106D+06 0.10830272D+01  1  2  3  3  6  4        1 0.660237705660D-03 0.100000000000D+01
-.104968046356D-02 0.000000000000D+00 0.000000000000D+00 0.219658334281D-04 0.000000000000D+00  6 1 2 25 1 2 21 2 0.32125813D+00 0.12265270D+00 0.31461106D+06 0.31461106D+06 0.31461106D+06 0.10830272D+01  1  2 15  3  6  4        1 -.165703367372D-02 0.100000000000D+01
-.419326054632D-04 0.000000000000D+00 0.000000000000D+00 0.219658334281D-04 0.000000000000D+00  6 1 2 25 1 2 21 2 0.32125813D+00 0.12265270D+00 0.31461106D+06 0.31461106D+06 0.31461106D+06 0.10830272D+01  1  2  4  3  6  4        1 -.661951343208D-04 0.100000000000D+01
-.589616634773D-03 0.000000000000D+00 0.000000000000D+00 0.219658334281D-04 0.000000000000D+00  6 1 2 25 1 2 21 2 0.32125813D+00 0.12265270D+00 0.31461106D+06 0.31461106D+06 0.31461106D+06 0.10830272D+01  1  2  5  3  6  4        1 -.930773366106D-03 0.100000000000D+01
0.130712037053D-02 0.000000000000D+00 -.000000000000D+00 0.219658334281D-04 0.000000000000D+00  6 1 2 25 1 2 21 2 0.32125813D+00 0.12265270D+00 0.31461106D+06 0.31461106D+06 0.31461106D+06 0.10830272D+01  1  2  6  3  6  4        1 0.206343029594D-02 0.100000000000D+01
  </mgrwgt>
  </event>
  <event>
  5     66 0.17698235E-05 0.10243875E+03 0.75467711E-02 0.88963538E-01
        1 -1    0    0  501    0 0.00000000E+00 0.00000000E+00 0.28647827E+03 0.28647845E+03 0.32000000E+00 0.0000E+00 0.9000E+01
        2 -1    0    0  502    0 0.00000000E+00 0.00000000E+00 -.43138669E+04 0.43138669E+04 0.32000000E+00 0.0000E+00 0.9000E+01
       25  1    1    2    0    0 -.12254172E+03 0.80167335E+03 -.88325223E+03 0.12055937E+04 0.12500000E+03 0.0000E+00 0.9000E+01
        1  1    1    2  501    0 0.95038100E+02 -.38419549E+02 0.47517989E+02 0.11298833E+03 0.32000000E+00 0.0000E+00 0.9000E+01
        2  1    1    2  502    0 0.27503620E+02 -.76325380E+03 -.31916544E+04 0.32817633E+04 0.32000000E+00 0.0000E+00 0.9000E+01
#aMCatNLO 1  0  0  2  5 0.15429015D+02 0.00000000D+00  -5  6  0 0.00000000D+00 0.00000000D+00 0.00000000D+00 0.00000000D+00 0.00000000D+00
  <mgrwgt>
 0.6482839583D-04   11    2    0
 0.111167871539074D+04 0.000000000000000D+00 0.000000000000000D+00 0.111167871539074D+04
 0.111167871539074D+04 0.000000000000000D+00 0.000000000000000D+00 -.111167871539074D+04
 0.894717954727922D+03 -.122496905588802D+03 0.801761855265775D+03 0.356465501941585D+03
 0.319635536269083D+03 0.949720332552174D+02 -.383928412211880D+02 0.302775789468640D+03
 0.100900393978448D+04 0.275248723335844D+02 -.763369014044587D+03 -.659241291410225D+03
 0.000000000000000D+00 0.000000000000000D+00 0.000000000000000D+00 -.000000000000000D+00
 0.111212580882528D+04 0.000000000000000D+00 0.000000000000000D+00 0.111212580882528D+04
 0.125329459910418D+04 0.000000000000000D+00 0.000000000000000D+00 -.125329459910418D+04
 0.893637795452247D+03 -.128328713584652D+03 0.799642167882606D+03 0.356465501941585D+03
 0.319114832559087D+03 0.928890754835832D+02 -.391499339292037D+02 0.302775789468640D+03
 0.101065833704391D+04 0.209387763547846D+02 -.765762862497851D+03 -.659241291410225D+03
 0.142009442874214D+03 0.145008617462843D+02 0.527062854444795D+01 -.141168790278893D+03
0.196984372843D-04 0.000000000000D+00 0.000000000000D+00 0.140250005003D-06 0.000000000000D+00  6 1 2 25 1 2 21 0 0.44073595D-01 0.66367184D+00 0.71144619D+06 0.71144619D+06 0.71144619D+06 0.10578505D+01  1  2  2  2  6  2        2 0.457908763669D-05 0.100000000000D+01
0.369679468005D-05 0.000000000000D+00 -.756471858893D-07 0.140250005003D-06 0.000000000000D+00  6 1 2 25 1 2 21 2 0.44073595D-01 0.66367184D+00 0.71144619D+06 0.71144619D+06 0.71144619D+06 0.10578505D+01  1  2  3  2  6  2        2 0.961659011933D-06 0.100000000000D+01
-.118956293551D-04 0.000000000000D+00 0.000000000000D+00 0.140250005003D-06 0.000000000000D+00  6 1 2 25 1 2 21 2 0.44073595D-01 0.66367184D+00 0.71144619D+06 0.71144619D+06 0.71144619D+06 0.10578505D+01  1  2 15  2  6  2        2 -.309444807246D-05 0.100000000000D+01
0.222040848479D-02 0.000000000000D+00 0.000000000000D+00 0.140250005003D-06 0.000000000000D+00  6 1 2 25 1 2 21 2 0.44073595D-01 0.74909656D+00 0.72398327D+06 0.72398327D+06 0.72398327D+06 0.10573310D+01  1  2 12  2  6  2        2 0.149160708287D-03 0.100000000000D+01
0.360309049925D-06 0.000000000000D+00 0.000000000000D+00 0.140250005003D-06 0.000000000000D+00  6 1 2 25 1 2 21 2 0.44073595D-01 0.74870341D+00 0.72398327D+06 0.72398327D+06 0.72398327D+06 0.10573310D+01  1  2 12  2  6  2        2 0.243776280546D-07 0.100000000000D+01
-.229982859818D-02 0.000000000000D+00 0.000000000000D+00 0.140250005003D-06 0.000000000000D+00  6 1 2 25 1 2 21 2 0.44073595D-01 0.66367184D+00 0.71144619D+06 0.71144619D+06 0.71144619D+06 0.10578505D+01  1  2  4  2  6  2        2 -.598261761542D-03 0.100000000000D+01
-.228387140339D-02 0.000000000000D+00 -.149327419864D-04 0.140250005003D-06 0.000000000000D+00  6 1 2 25 1 2 21 2 0.44073595D-01 0.74825212D+00 0.71144619D+06 0.71144619D+06 0.71144619D+06 0.10578505D+01  1  2  5  2  6  2        2 -.156242584836D-03 0.100000000000D+01
0.256677085077D-02 0.000000000000D+00 0.168017680057D-04 0.140250005003D-06 0.000000000000D+00  6 1 2 25 1 2 21 2 0.44073595D-01 0.66367184D+00 0.71144619D+06 0.71144619D+06 0.71144619D+06 0.10578505D+01  1  2  6  2  6  2        2 0.667702302628D-03 0.100000000000D+01
0.424478821402D-04 0.000000000000D+00 0.000000000000D+00 0.140250005003D-06 0.000000000000D+00  6 1 21 25 1 2 -2 2 0.44073595D-01 0.74909656D+00 0.72398327D+06 0.72398327D+06 0.72398327D+06 0.10573310D+01  1  2 12  6  6  2        2 0.214872838650D-07 0.100000000000D+01
0.686298996344D-08 0.000000000000D+00 0.000000000000D+00 0.140250005003D-06 0.000000000000D+00  6 1 21 25 1 2 -2 2 0.44073595D-01 0.74870341D+00 0.72398327D+06 0.72398327D+06 0.72398327D+06 0.10573310D+01  1  2 12  6  6  2        2 0.350852219833D-11 0.100000000000D+01
-.432500979897D-04 0.000000000000D+00 -.283235348508D-06 0.140250005003D-06 0.000000000000D+00  6 1 21 25 1 2 -2 2 0.44073595D-01 0.74825212D+00 0.71144619D+06 0.71144619D+06 0.71144619D+06 0.10578505D+01  1  2  5  6  6  2        2 -.224357061851D-07 0.100000000000D+01
  </mgrwgt>
  </event>
  <event>
  6     66 0.17698235E-05 0.79801113E+02 0.75467711E-02 0.91224533E-01
        1 -1    0    0  501    0 0.00000000E+00 0.00000000E+00 0.54102305E+03 0.54102314E+03 0.32000000E+00 0.0000E+00 0.9000E+01
        2 -1    0    0  502    0 -.00000000E+00 -.00000000E+00 -.26386459E+04 0.26386460E+04 0.32000000E+00 0.0000E+00 0.9000E+01
       25  1    1    2    0    0 -.62326305E+03 -.87814560E+02 -.25671448E+03 0.69115523E+03 0.12500000E+03 0.0000E+00 0.9000E+01
        1  1    1    2  503    0 -.11804596E+02 0.11650964E+01 0.25585712E+03 0.25613214E+03 0.32000000E+00 0.0000E+00 0.9000E+01
        2  1    1    2  502    0 0.62536183E+03 0.15118773E+01 -.20288395E+04 0.21230331E+04 0.32000000E+00 0.0000E+00 0.9000E+01
       21  1    1    2  501  503 0.97058174E+01 0.85137586E+02 -.67926009E+02 0.10934860E+03 0.75000000E+00 0.0000E+00 0.9000E+01
#aMCatNLO 2  0  0  4  2 0.83950067D+02 0.00000000D+00  -5  6  0 0.00000000D+00 0.00000000D+00 0.00000000D+00 0.00000000D+00 0.00000000D+00
  <mgrwgt>
 0.6575029152D-02    3    2    0
 0.119480895731779D+04 0.000000000000000D+00 0.000000000000000D+00 0.119480895731779D+04
 0.119480895731779D+04 -.000000000000000D+00 -.000000000000000D+00 -.119480895731779D+04
 0.687157888383979D+03 -.623463119027095D+03 -.910022911925777D+02 0.244076393326017D+03
 0.631788880464955D+03 -.229657001406569D+01 0.944359360586134D+02 0.624686936974086D+03
 0.107067114578664D+04 0.625759689041160D+03 -.343364486603575D+01 -.868763330300102D+03
 0.000000000000000D+00 0.000000000000000D+00 0.000000000000000D+00 0.000000000000000D+00
 0.119480895731779D+04 0.000000000000000D+00 0.000000000000000D+00 0.119480895731779D+04
 0.119480895731779D+04 -.000000000000000D+00 -.000000000000000D+00 -.119480895731779D+04
 0.694726532022568D+03 -.623542044253768D+03 -.877568522928771D+02 0.265544738640370D+03
 0.564867432257117D+03 -.118067359458568D+02 0.104778460934385D+01 0.564743055874497D+03
 0.104411217407111D+04 0.625638904878303D+03 0.153305129852839D+01 -.835908991756809D+03
 0.859117762847857D+02 0.970987532132204D+01 0.851760163850049D+02 0.562119724194203D+01
-.219499967863D-07 0.000000000000D+00 0.000000000000D+00 0.338158490245D-05 0.000000000000D+00  6 1 2 25 1 2 21 2 0.83234324D-01 0.40594554D+00 0.46593993D+06 0.46593993D+06 0.46593993D+06 0.10706826D+01  1  2 13  3  6  4        1 -.420341846174D-07 0.100000000000D+01
-.955384462451D-04 0.000000000000D+00 0.000000000000D+00 0.338158490245D-05 0.000000000000D+00  6 1 2 25 1 2 21 2 0.83234324D-01 0.40594554D+00 0.46415764D+06 0.46415764D+06 0.46415764D+06 0.10708010D+01  1  2  8  3  6  4        1 -.183046864521D-03 0.100000000000D+01
0.352904834089D-02 0.000000000000D+00 0.000000000000D+00 0.338158490245D-05 0.163099638983D-08  6 1 2 25 1 2 21 2 0.83234324D-01 0.40594554D+00 0.46593993D+06 0.46593993D+06 0.46593993D+06 0.10706826D+01  1  2  1  3  6  4        1 0.675811805027D-02 0.100000000000D+01
  </mgrwgt>
  </event>
  <event>
  6     66 -.17698235E-05 0.16459587E+03 0.75467711E-02 0.93930441E-01
        1 -1    0    0  501    0 0.00000000E+00 0.00000000E+00 0.10230576E+04 0.10230577E+04 0.32000000E+00 0.0000E+00 0.9000E+01
        2 -1    0    0  502    0 -.00000000E+00 -.00000000E+00 -.12149451E+04 0.12149452E+04 0.32000000E+00 0.0000E+00 0.9000E+01
       25  1    1    2    0    0 0.10338809E+03 -.48801267E+03 -.90946515E+02 0.52224681E+03 0.12500000E+03 0.0000E+00 0.9000E+01
        1  1    1    2  501    0 0.37245803E+02 0.34267000E+03 0.75548509E+03 0.83040220E+03 0.32000000E+00 0.0000E+00 0.9000E+01
        2  1    1    2  503    0 -.43014953E+02 0.66833111E+02 -.52611364E+03 0.53208328E+03 0.32000000E+00 0.0000E+00 0.9000E+01
       21  1    1    2  502  503 -.97618940E+02 0.78509560E+02 -.33031245E+03 0.35327056E+03 0.75000000E+00 0.0000E+00 0.9000E+01
#aMCatNLO 2  0  0  5  2 0.47707119D+02 0.00000000D+00  -5  6  0 0.00000000D+00 0.00000000D+00 0.00000000D+00 0.00000000D+00 0.00000000D+00
  <mgrwgt>
 -.1649982196D-02    3    2    0
 0.111488070185185D+04 0.000000000000000D+00 0.000000000000000D+00 0.111488070185185D+04
 0.111488070185185D+04 -.000000000000000D+00 -.000000000000000D+00 -.111488070185185D+04
 0.516511500720881D+03 0.103628061912978D+03 -.488256916599762D+03 -.450059835309667D+02
 0.900439785557785D+03 0.376552410465873D+02 0.342241816830136D+03 0.832012276982667D+03
 0.812810117425024D+03 -.141283302959565D+03 0.146015099769627D+03 -.787006293451700D+03
 0.000000000000000D+00 -.000000000000000D+00 0.000000000000000D+00 0.000000000000000D+00
 0.111488070185185D+04 0.000000000000000D+00 0.000000000000000D+00 0.111488070185185D+04
 0.111488070185185D+04 -.000000000000000D+00 -.000000000000000D+00 -.111488070185185D+04
 0.516350291738615D+03 0.103392643472378D+03 -.488013613630679D+03 -.463173613828859D+02
 0.898474215022433D+03 0.372452176224634D+02 0.342665572574284D+03 0.829728277327446D+03
 0.488502610994376D+03 -.429568887659466D+02 0.667799090974218D+02 -.482006172571279D+03
 0.326434285948266D+03 -.976809723288944D+02 0.785681319589739D+02 -.301404743373281D+03
-.607184083179D-03 0.000000000000D+00 0.000000000000D+00 0.446773413864D-05 0.000000000000D+00  6 1 2 25 1 2 21 2 0.15739349D+00 0.18691464D+00 0.28287143D+06 0.28287143D+06 0.28287143D+06 0.10864459D+01  1  2 13  4  6  5        2 -.284503344577D-02 0.100000000000D+01
-.153894356804D-08 0.000000000000D+00 0.000000000000D+00 0.446773413864D-05 0.000000000000D+00  6 1 2 25 1 2 21 2 0.15739349D+00 0.18691464D+00 0.28287143D+06 0.28287143D+06 0.28287143D+06 0.10864459D+01  1  2 13  4  6  5        2 -.721090365099D-08 0.100000000000D+01
0.255048135586D-03 0.000000000000D+00 0.000000000000D+00 0.446773413864D-05 0.175788186186D-08  6 1 2 25 1 2 21 2 0.15739349D+00 0.18691464D+00 0.28287143D+06 0.28287143D+06 0.28287143D+06 0.10864459D+01  1  2  1  4  6  5        2 0.119505846106D-02 0.100000000000D+01
  </mgrwgt>
  </event>
  <event>
  5     66 -.17698235E-05 0.40947716E+02 0.75467711E-02 0.94556412E-01
        1 -1    0    0  501    0 0.00000000E+00 0.00000000E+00 0.93218247E+03 0.93218253E+03 0.32000000E+00 0.0000E+00 0.9000E+01
        2 -1    0    0  502    0 -.00000000E+00 -.00000000E+00 -.20609118E+04 0.20609119E+04 0.32000000E+00 0.0000E+00 0.9000E+01
       25  1    1    2    0    0 -.45513674E+03 0.15159028E+03 -.16657751E+03 0.52297431E+03 0.12500000E+03 0.0000E+00 0.9000E+01
        1  1    1    2  501    0 -.98839196E+00 -.40938088E+02 0.72130088E+03 0.72246243E+03 0.32000000E+00 0.0000E+00 0.9000E+01
        2  1    1    2  502    0 0.45612513E+03 -.11065219E+03 -.16834527E+04 0.17476576E+04 0.32000000E+00 0.0000E+00 0.9000E+01
#aMCatNLO 1  0  0  5  2 0.47707119D+02 0.00000000D+00  -5  6  0 0.00000000D+00 0.00000000D+00 0.00000000D+00 0.00000000D+00 0.00000000D+00
  <mgrwgt>
 -.6178992467D-02    1    2    0
 0.138605411250856D+04 0.000000000000000D+00 0.000000000000000D+00 0.138605411250856D+04
 0.138605411250856D+04 -.000000000000000D+00 -.000000000000000D+00 -.138605411250856D+04
 0.496886394486756D+03 -.455181699705458D+03 0.151599836024892D+03 0.331390856320006D+02
 0.107368977622535D+04 -.988336395975508D+00 -.409357867600958D+02 0.107290867277898D+04
 0.120153205430501D+04 0.456170036101433D+03 -.110664049264796D+03 -.110604775841098D+04
 0.000000000000000D+00 0.000000000000000D+00 0.000000000000000D+00 -.000000000000000D+00
 0.138605411250856D+04 0.000000000000000D+00 0.000000000000000D+00 0.138605411250856D+04
 0.138605411250856D+04 -.000000000000000D+00 -.000000000000000D+00 -.138605411250856D+04
 0.492270249646116D+03 -.451091096735107D+03 0.150607480866051D+03 0.232208492555558D+02
 0.105249997741507D+04 0.780440454486355D+01 -.430688517131679D+02 0.105158944828318D+04
 0.688291168628903D+02 0.405873733444610D+02 -.546508396861852D+02 0.101684893036325D+02
 0.115850888109305D+04 0.402699318845783D+03 -.528877894666982D+02 -.108497878684237D+04
-.323234078364D-02 0.000000000000D+00 0.000000000000D+00 0.173589582672D-03 0.000000000000D+00  6 1 2 25 1 2 21 2 0.14341269D+00 0.31706336D+00 0.25307397D+06 0.25307397D+06 0.25307397D+06 0.10900601D+01  1  2 14  4  6  5        2 -.617899246730D-02 0.100000000000D+01
  </mgrwgt>
  </event>
  <event>
  6     66 -.17698235E-05 0.12945268E+03 0.75467711E-02 0.92323219E-01
        1 -1    0    0  503    0 0.00000000E+00 0.00000000E+00 0.77905645E+03 0.77905651E+03 0.32000000E+00 0.0000E+00 0.9000E+01
        2 -1    0    0  502    0 0.00000000E+00 0.00000000E+00 -.21819751E+04 0.21819751E+04 0.32000000E+00 0.0000E+00 0.9000E+01
       25  1    1    2    0    0 -.36540531E+03 0.29658919E+03 -.36117816E+03 0.60626797E+03 0.12500000E+03 0.0000E+00 0.9000E+01
        1  1    1    2  501    0 -.79768313E+02 0.10994620E+03 0.44520354E+03 0.46546476E+03 0.32000000E+00 0.0000E+00 0.9000E+01
        2  1    1    2  502    0 0.44699175E+03 -.39392484E+03 -.16352688E+04 0.17404260E+04 0.32000000E+00 0.0000E+00 0.9000E+01
       21  1    1    2  503  501 -.18181225E+01 -.12610542E+02 0.14832480E+03 0.14887290E+03 0.75000000E+00 0.0000E+00 0.9000E+01
#aMCatNLO 2  0  0  1  4 0.12740932D+02 0.00000000D+00  -5  6  0 0.00000000D+00 0.00000000D+00 0.00000000D+00 0.00000000D+00 0.00000000D+00
  <mgrwgt>
 -.5180467966D-02    3    2    0
 0.117278708417626D+04 0.000000000000000D+00 0.000000000000000D+00 0.117278708417626D+04
 0.117278708417626D+04 0.000000000000000D+00 0.000000000000000D+00 -.117278708417626D+04
 0.486760706069665D+03 -.365838021050933D+03 0.294019138279554D+03 -.320355061193827D+02
 0.851886831818892D+03 -.804218635210822D+02 0.105355225719465D+03 0.841512789271694D+03
 0.100692663046396D+04 0.446259884572015D+03 -.399374363999019D+03 -.809477283152311D+03
 0.000000000000000D+00 -.000000000000000D+00 -.000000000000000D+00 0.000000000000000D+00
 0.144923371782319D+04 0.000000000000000D+00 0.000000000000000D+00 0.144923371782319D+04
 0.117295119681783D+04 0.000000000000000D+00 0.000000000000000D+00 -.117295119681783D+04
 0.488065054542283D+03 -.365460215997979D+03 0.296639603451305D+03 -.320355061193827D+02
 0.852403484848876D+03 -.797613460015890D+02 0.109936591536653D+03 0.841512789271694D+03
 0.100514023246094D+04 0.447039684468991D+03 -.393965652667651D+03 -.809477283152311D+03
 0.276576142788925D+03 -.181812246942248D+01 -.126105423203072D+02 0.276282521005354D+03
-.821557873200D-02 0.000000000000D+00 0.000000000000D+00 0.278267546549D-05 0.000000000000D+00  6 1 2 25 1 2 21 2 0.12152583D+00 0.33564137D+00 0.37911125D+06 0.37911125D+06 0.37911125D+06 0.10771109D+01  1  2 13  1  6  1        1 -.167590506510D-01 0.100000000000D+01
-.248000673543D-07 0.000000000000D+00 0.000000000000D+00 0.278267546549D-05 0.000000000000D+00  6 1 2 25 1 2 21 2 0.11986271D+00 0.33564137D+00 0.37911125D+06 0.37911125D+06 0.37911125D+06 0.10771109D+01  1  2 13  1  6  1        1 -.517115067087D-07 0.100000000000D+01
0.555454022435D-02 0.000000000000D+00 0.000000000000D+00 0.278267546549D-05 0.695656340391D-07  6 1 2 25 1 2 21 2 0.11985479D+00 0.33568834D+00 0.37911125D+06 0.37911125D+06 0.37911125D+06 0.10771109D+01  1  2  1  1  6  1        1 0.115786343965D-01 0.100000000000D+01
  </mgrwgt>
  </event>
  <event>
  5     66 -.17698235E-05 0.67325229E+02 0.75467711E-02 0.90975698E-01
        1 -1    0    0  501    0 0.00000000E+00 0.00000000E+00 0.13104645E+04 0.13104645E+04 0.32000000E+00 0.0000E+00 0.9000E+01
        2 -1    0    0  502    0 0.00000000E+00 0.00000000E+00 -.51327337E+03 0.51327347E+03 0.32000000E+00 0.0000E+00 0.9000E+01
       25  1    1    2    0    0 -.11913954E+02 0.57350985E+03 0.33584879E+03 0.67636891E+03 0.12500000E+03 0.0000E+00 0.9000E+01
        1  1    1    2  501    0 -.39196029E+02 -.61732189E+03 0.67960594E+03 0.91895973E+03 0.32000000E+00 0.0000E+00 0.9000E+01
        2  1    1    2  502    0 0.51109983E+02 0.43812040E+02 -.21826361E+03 0.22840935E+03 0.32000000E+00 0.0000E+00 0.9000E+01
#aMCatNLO 1  0  0  1  4 0.31600529D+01 0.00000000D+00  -5  6  0 0.00000000D+00 0.00000000D+00 0.00000000D+00 0.00000000D+00 0.00000000D+00
  <mgrwgt>
 -.1383419861D-01    7    2    0
 0.820138187588091D+03 0.000000000000000D+00 0.000000000000000D+00 0.820138187588091D+03
 0.820138187588091D+03 0.000000000000000D+00 0.000000000000000D+00 -.820138187588091D+03
 0.588770214310396D+03 -.119214551459643D+02 0.573480885624597D+03 0.447539717739124D+02
 0.691420114385441D+03 -.391944473755904D+02 -.617296990279359D+03 0.308982193117571D+03
 0.360086046480344D+03 0.511159025215547D+02 0.438161046547615D+02 -.353736164891483D+03
 0.000000000000000D+00 -.000000000000000D+00 -.000000000000000D+00 0.000000000000000D+00
 0.151460055301405D+04 0.000000000000000D+00 0.000000000000000D+00 0.151460055301405D+04
 0.826200011205324D+03 0.000000000000000D+00 0.000000000000000D+00 -.826200011205324D+03
 0.624797920388290D+03 0.361093181706684D+01 0.610517390827979D+03 0.447539717739124D+02
 0.654212374027078D+03 -.219717765403520D+02 -.576230054493917D+03 0.308982193117571D+03
 0.364862891554837D+03 0.603944812119853D+02 0.659405938762855D+02 -.353736164891483D+03
 0.696927378249172D+03 -.420336364887001D+02 -.100227930210348D+03 0.688400541808727D+03
0.126975443441D-03 0.000000000000D+00 0.000000000000D+00 0.538892207753D-06 0.000000000000D+00  6 1 2 25 1 2 21 0 0.20160993D+00 0.78965144D-01 0.40508902D+06 0.40508902D+06 0.40508902D+06 0.10750320D+01  1  2  2  1  6  1        1 0.952660903209D-03 0.100000000000D+01
0.355260787875D-04 0.000000000000D+00 -.487619136217D-06 0.538892207753D-06 0.000000000000D+00  6 1 2 25 1 2 21 2 0.20160993D+00 0.78965144D-01 0.40508902D+06 0.40508902D+06 0.40508902D+06 0.10750320D+01  1  2  3  1  6  1        1 0.308041122297D-03 0.100000000000D+01
-.704777734981D-04 0.000000000000D+00 0.000000000000D+00 0.538892207753D-06 0.000000000000D+00  6 1 2 25 1 2 21 2 0.20160993D+00 0.78965144D-01 0.40508902D+06 0.40508902D+06 0.40508902D+06 0.10750320D+01  1  2 15  1  6  1        1 -.611101849297D-03 0.100000000000D+01
-.384645840555D-02 0.000000000000D+00 0.000000000000D+00 0.538892207753D-06 0.000000000000D+00  6 1 2 25 1 2 21 2 0.20160993D+00 0.78965144D-01 0.40508902D+06 0.40508902D+06 0.40508902D+06 0.10750320D+01  1  2  4  1  6  1        1 -.333520445980D-01 0.100000000000D+01
-.324746540764D-02 0.000000000000D+00 -.731592420030D-04 0.538892207753D-06 0.000000000000D+00  6 1 2 25 1 2 21 2 0.37294571D+00 0.78965144D-01 0.40508902D+06 0.40508902D+06 0.40508902D+06 0.10750320D+01  1  2  5  1  6  1        1 -.498752039204D-02 0.100000000000D+01
0.276470782344D-02 0.000000000000D+00 0.612102162800D-04 0.538892207753D-06 0.000000000000D+00  6 1 2 25 1 2 21 2 0.20160993D+00 0.78965144D-01 0.40508902D+06 0.40508902D+06 0.40508902D+06 0.10750320D+01  1  2  6  1  6  1        1 0.239723529818D-01 0.100000000000D+01
-.213858058823D-03 0.000000000000D+00 -.490889477849D-05 0.538892207753D-06 0.000000000000D+00  6 21 2 25 1 2 -1 2 0.37294571D+00 0.78965144D-01 0.40508902D+06 0.40508902D+06 0.40508902D+06 0.10750320D+01  1  2  5  5  6  1        1 -.116586774359D-03 0.100000000000D+01
  </mgrwgt>
  </event>
  <event>
  6     66 0.17698235E-05 0.27189792E+03 0.75467711E-02 0.92629031E-01
        1 -1    0    0  501    0 0.00000000E+00 0.00000000E+00 0.95380097E+03 0.95380103E+03 0.32000000E+00 0.0000E+00 0.9000E+01
        2 -1    0    0  503    0 0.00000000E+00 0.00000000E+00 -.21443290E+04 0.21443290E+04 0.32000000E+00 0.0000E+00 0.9000E+01
       25  1    1    2    0    0 0.30711779E+03 -.32985921E+03 0.26171610E+03 0.53595592E+03 0.12500000E+03 0.0000E+00 0.9000E+01
        1  1    1    2  501    0 -.28724372E+03 -.80289964E+02 0.48207820E+03 0.56688176E+03 0.32000000E+00 0.0000E+00 0.9000E+01
        2  1    1    2  502    0 0.21707430E+02 0.37792887E+03 -.11821322E+04 0.12412647E+04 0.32000000E+00 0.0000E+00 0.9000E+01
       21  1    1    2  503  502 -.41581497E+02 0.32220305E+02 -.75219015E+03 0.75402769E+03 0.75000000E+00 0.0000E+00 0.9000E+01
#aMCatNLO 2  0  0  2  5 0.11865829D+03 0.00000000D+00  -5  6  0 0.00000000D+00 0.00000000D+00 0.00000000D+00 0.00000000D+00 0.00000000D+00
  <mgrwgt>
 0.4720969953D-03    1    2    0
 0.115107651549225D+04 0.000000000000000D+00 0.000000000000000D+00 0.115107651549225D+04
 0.115107651549225D+04 0.000000000000000D+00 0.000000000000000D+00 -.115107651549225D+04
 0.585478432547564D+03 0.296407691570563D+03 -.321659405818380D+03 0.368561666488431D+03
 0.672942997022295D+03 -.299306453740700D+03 -.708879551422212D+02 0.598533893615281D+03
 0.104373160141464D+04 0.289876217013648D+01 0.392547360960601D+03 -.967095560103712D+03
 0.000000000000000D+00 -.000000000000000D+00 0.000000000000000D+00 -.000000000000000D+00
 0.115248690639537D+04 0.000000000000000D+00 0.000000000000000D+00 0.115248690639537D+04
 0.177465130809716D+04 0.000000000000000D+00 0.000000000000000D+00 -.177465130809716D+04
 0.595486830595145D+03 0.307071599505230D+03 -.329922560890916D+03 0.368561666488431D+03
 0.668704705424457D+03 -.287191611732921D+03 -.802753972322011D+02 0.598533893615281D+03
 0.103856241241427D+04 0.217015096762632D+02 0.377977653552701D+03 -.967095560103712D+03
 0.624384266058663D+03 -.415814974485725D+02 0.322203045704166D+02 -.622164401701784D+03
0.299260624884D-03 0.000000000000D+00 0.000000000000D+00 0.468464805802D-06 0.161829284279D-08  6 1 2 25 1 2 21 2 0.14673859D+00 0.32989671D+00 0.35827952D+06 0.35827952D+06 0.35827952D+06 0.10788933D+01  1  2  1  2  6  2        2 0.472096995346D-03 0.100000000000D+01
  </mgrwgt>
  </event>
  <event>
  5     66 0.17698235E-05 0.65471062E+02 0.75467711E-02 0.95084337E-01
        1 -1    0    0  501    0 0.00000000E+00 0.00000000E+00 0.99544073E+03 0.99544078E+03 0.32000000E+00 0.0000E+00 0.9000E+01
        2 -1    0    0  502    0 0.00000000E+00 0.00000000E+00 -.22399514E+04 0.22399514E+04 0.32000000E+00 0.0000E+00 0.9000E+01
       25  1    1    2    0    0 0.12037066E+03 -.45345008E+03 -.43684086E+03 0.65311639E+03 0.12500000E+03 0.0000E+00 0.9000E+01
        1  1    1    2  501    0 -.80411096E+02 0.40159315E+03 0.83935596E+03 0.93394942E+03 0.32000000E+00 0.0000E+00 0.9000E+01
        2  1    1    2  502    0 -.39959567E+02 0.51856936E+02 -.16470257E+04 0.16483263E+04 0.32000000E+00 0.0000E+00 0.9000E+01
#aMCatNLO 1  0  0  1  1 0.33683220D+04 0.00000000D+00  -5  6  0 0.00000000D+00 0.00000000D+00 0.00000000D+00 0.00000000D+00 0.00000000D+00
  <mgrwgt>
 0.3250159480D-01    7    2    0
 0.149323103374910D+04 0.000000000000000D+00 0.000000000000000D+00 0.149323103374910D+04
 0.149323103374910D+04 0.000000000000000D+00 0.000000000000000D+00 -.149323103374910D+04
 0.525496661253488D+03 0.120372242468929D+03 -.453448927575497D+03 -.201038141436385D+03
 0.136155549345161D+04 -.804101849142738D+02 0.401588596188092D+03 0.129849688614259D+04
 0.109940991279310D+04 -.399620575546552D+02 0.518603313874056D+02 -.109745874470620D+04
 0.000000000000000D+00 0.000000000000000D+00 -.000000000000000D+00 0.000000000000000D+00
 0.160094186386155D+04 0.000000000000000D+00 0.000000000000000D+00 0.160094186386155D+04
 0.153686179378843D+04 0.000000000000000D+00 0.000000000000000D+00 -.153686179378843D+04
 0.505105228088621D+03 0.116646242869998D+03 -.430678082974482D+03 -.201038141436385D+03
 0.138125770687636D+04 -.903264493710459D+02 0.462190244409550D+03 0.129849688614259D+04
 0.110309454326953D+04 -.479249099468358D+02 0.100524017356447D+03 -.109745874470620D+04
 0.148346179415474D+03 0.216051164478840D+02 -.132036178791515D+03 0.640800700731237D+02
0.119655824972D-01 0.000000000000D+00 0.000000000000D+00 0.250305822780D-03 0.000000000000D+00  6 1 2 25 1 2 21 0 0.15314473D+00 0.34460791D+00 0.23066484D+06 0.23066484D+06 0.23066484D+06 0.10930988D+01  1  2  2  1  6  1        1 0.137794482211D-01 0.100000000000D+01
0.422950228782D-02 0.000000000000D+00 -.459509873995D-04 0.250305822780D-03 0.000000000000D+00  6 1 2 25 1 2 21 2 0.15314473D+00 0.34460791D+00 0.23066484D+06 0.23066484D+06 0.23066484D+06 0.10930988D+01  1  2  3  1  6  1        1 0.581977366284D-02 0.100000000000D+01
-.785826849499D-02 0.000000000000D+00 0.000000000000D+00 0.250305822780D-03 0.000000000000D+00  6 1 2 25 1 2 21 2 0.15314473D+00 0.34460791D+00 0.23066484D+06 0.23066484D+06 0.23066484D+06 0.10930988D+01  1  2 15  1  6  1        1 -.108129375304D-01 0.100000000000D+01
-.132560945621D-02 0.000000000000D+00 0.000000000000D+00 0.250305822780D-03 0.000000000000D+00  6 1 2 25 1 2 21 2 0.15314473D+00 0.34460791D+00 0.23066484D+06 0.23066484D+06 0.23066484D+06 0.10930988D+01  1  2  4  1  6  1        1 -.182403187787D-02 0.100000000000D+01
-.121371815263D+00 0.000000000000D+00 -.336071595003D-01 0.250305822780D-03 0.000000000000D+00  6 1 2 25 1 2 21 2 0.16718121D+00 0.34460791D+00 0.23066484D+06 0.23066484D+06 0.23066484D+06 0.10930988D+01  1  2  5  1  6  1        1 -.142673104537D+00 0.100000000000D+01
0.123970805943D+00 0.000000000000D+00 0.334783462737D-01 0.250305822780D-03 0.000000000000D+00  6 1 2 25 1 2 21 2 0.15314473D+00 0.34460791D+00 0.23066484D+06 0.23066484D+06 0.23066484D+06 0.10930988D+01  1  2  6  1  6  1        1 0.170583199226D+00 0.100000000000D+01
-.167157263148D-02 0.000000000000D+00 -.486836939770D-03 0.250305822780D-03 0.000000000000D+00  6 21 2 25 1 2 -1 2 0.16718121D+00 0.34460791D+00 0.23066484D+06 0.23066484D+06 0.23066484D+06 0.10930988D+01  1  2  5  5  6  1        1 -.237075236087D-02 0.100000000000D+01
  </mgrwgt>
  </event>
  <event>
  6     66 0.17698235E-05 0.33524137E+02 0.75467711E-02 0.92995062E-01
        1 -1    0    0  501    0 0.00000000E+00 0.00000000E+00 0.15114486E+04 0.15114486E+04 0.32000000E+00 0.0000E+00 0.9000E+01
        2 -1    0    0  502    0 0.00000000E+00 0.00000000E+00 -.11576032E+04 0.11576032E+04 0.32000000E+00 0.0000E+00 0.9000E+01
       25  1    1    2    0    0 0.55685801E+03 0.82167068E+02 0.83515359E+02 0.58261658E+03 0.12500000E+03 0.0000E+00 0.9000E+01
        1  1    1    2  501    0 -.16349558E+02 -.33418346E+02 0.10951204E+04 0.10957522E+04 0.32000000E+00 0.0000E+00 0.9000E+01
        2  1    1    2  503    0 -.15593689E+03 -.29286133E+02 -.30499802E+03 0.34379919E+03 0.32000000E+00 0.0000E+00 0.9000E+01
       21  1    1    2  502  503 -.38457156E+03 -.19462589E+02 -.51979235E+03 0.64688386E+03 0.75000000E+00 0.0000E+00 0.9000E+01
#aMCatNLO 2  0  0  5  2 0.14672100D+02 0.00000000D+00  -5  6  0 0.00000000D+00 0.00000000D+00 0.00000000D+00 0.00000000D+00 0.00000000D+00
  <mgrwgt>
 0.2101634174D-02    1    2    0
 0.132274630456223D+04 0.000000000000000D+00 0.000000000000000D+00 0.132274630456223D+04
 0.132274630456223D+04 -.000000000000000D+00 -.000000000000000D+00 -.132274630456223D+04
 0.576991280013350D+03 0.557215505823582D+03 0.821984189120531D+02 0.694530125855721D+01
 0.959920300058354D+03 -.158173263326203D+02 -.333686707319112D+02 0.959209740601811D+03
 0.110858102905276D+04 -.541398179490961D+03 -.488297481801419D+02 -.966155041860368D+03
 0.000000000000000D+00 -.000000000000000D+00 0.000000000000000D+00 0.000000000000000D+00
 0.132274630456223D+04 0.000000000000000D+00 0.000000000000000D+00 0.132274630456223D+04
 0.132274630456223D+04 -.000000000000000D+00 -.000000000000000D+00 -.132274630456223D+04
 0.576672310966420D+03 0.556896272451253D+03 0.821696266372136D+02 0.637561162181732D+01
 0.958984002302433D+03 -.163483115317797D+02 -.334165613132698D+02 0.958262168100176D+03
 0.387334578706861D+03 -.155811320093745D+03 -.292661297565878D+02 -.353404020975621D+03
 0.722501717148748D+03 -.384736640825728D+03 -.194869355673559D+02 -.611233758746372D+03
0.936517654374D-03 0.000000000000D+00 0.000000000000D+00 0.672936726882D-04 0.445517322040D-07  6 1 2 25 1 2 21 2 0.23253056D+00 0.17809280D+00 0.33501187D+06 0.33501187D+06 0.33501187D+06 0.10810229D+01  1  2  1  4  6  5        2 0.210163417385D-02 0.100000000000D+01
  </mgrwgt>
  </event>
  <event>
  5     66 0.17698235E-05 0.45978966E+02 0.75467711E-02 0.94615128E-01
        1 -1    0    0  501    0 0.00000000E+00 0.00000000E+00 0.11645096E+04 0.11645097E+04 0.32000000E+00 0.0000E+00 0.9000E+01
        2 -1    0    0  502    0 -.00000000E+00 -.00000000E+00 -.15018583E+04 0.15018583E+04 0.32000000E+00 0.0000E+00 0.9000E+01
       25  1    1    2    0    0 0.44786185E+03 0.16437775E+03 -.45333757E+03 0.66988076E+03 0.12500000E+03 0.0000E+00 0.9000E+01
        1  1    1    2  501    0 -.41351064E+03 -.19493795E+03 0.10061508E+04 0.11051387E+04 0.32000000E+00 0.0000E+00 0.9000E+01
        2  1    1    2  502    0 -.34351206E+02 0.30560197E+02 -.89016194E+03 0.89134859E+03 0.32000000E+00 0.0000E+00 0.9000E+01
#aMCatNLO 1  0  0  5  2 0.92531729D+01 0.00000000D+00  -5  6  0 0.00000000D+00 0.00000000D+00 0.00000000D+00 0.00000000D+00 0.00000000D+00
  <mgrwgt>
 0.5071223035D-01    9    2    0
 0.132247062984164D+04 0.000000000000000D+00 0.000000000000000D+00 0.132247062984164D+04
 0.132247062984164D+04 -.000000000000000D+00 -.000000000000000D+00 -.132247062984164D+04
 0.617472148007650D+03 0.447861584419876D+03 0.164376221545891D+03 -.371547187523194D+03
 0.124241634171101D+04 -.413509169157289D+03 -.194937257082882D+03 0.115525235294044D+04
 0.785052769964628D+03 -.343524152625880D+02 0.305610355369924D+02 -.783705165417243D+03
 0.000000000000000D+00 0.000000000000000D+00 0.000000000000000D+00 0.000000000000000D+00
 0.132247062984164D+04 0.000000000000000D+00 0.000000000000000D+00 0.132247062984164D+04
 0.132247062984164D+04 -.000000000000000D+00 -.000000000000000D+00 -.132247062984164D+04
 0.617520640030696D+03 0.447857921897106D+03 0.164379479846295D+03 -.371630743162332D+03
 0.124226145582051D+04 -.413516537774416D+03 -.194930701719362D+03 0.115508424763372D+04
 0.638096351208254D+03 -.328000871854628D+02 0.169771331710941D+02 -.637026596505361D+03
 0.147062812623823D+03 -.154129693722875D+01 0.135740887019736D+02 -.146426907966029D+03
0.957907589097D-04 0.000000000000D+00 0.000000000000D+00 0.121745329543D-03 0.000000000000D+00  6 1 2 25 1 2 21 0 0.17915533D+00 0.23105513D+00 0.24815921D+06 0.24815921D+06 0.24815921D+06 0.10907006D+01  1  2  2  4  6  5        2 0.208322516335D-03 0.100000000000D+01
0.392270295504D-04 0.000000000000D+00 -.367861736499D-06 0.121745329543D-03 0.000000000000D+00  6 1 2 25 1 2 21 2 0.17915533D+00 0.23105513D+00 0.24815921D+06 0.24815921D+06 0.24815921D+06 0.10907006D+01  1  2  3  4  6  5        2 0.101486707635D-03 0.100000000000D+01
-.608961757678D-04 0.000000000000D+00 0.000000000000D+00 0.121745329543D-03 0.000000000000D+00  6 1 2 25 1 2 21 2 0.17915533D+00 0.23105513D+00 0.24815921D+06 0.24815921D+06 0.24815921D+06 0.10907006D+01  1  2 15  4  6  5        2 -.157548314442D-03 0.100000000000D+01
0.240554375606D-01 0.000000000000D+00 0.000000000000D+00 0.121745329543D-03 0.000000000000D+00  6 1 2 25 1 2 21 2 0.17915533D+00 0.23105513D+00 0.25046466D+06 0.25046466D+06 0.25046466D+06 0.10903984D+01  1  2 12  4  6  5        2 0.621619447768D-01 0.100000000000D+01
0.153365611290D-08 0.000000000000D+00 0.000000000000D+00 0.121745329543D-03 0.000000000000D+00  6 1 2 25 1 2 21 2 0.17915533D+00 0.23105513D+00 0.25046466D+06 0.25046466D+06 0.25046466D+06 0.10903984D+01  1  2 12  4  6  5        2 0.396313915957D-08 0.100000000000D+01
-.125519131803D-01 0.000000000000D+00 0.000000000000D+00 0.121745329543D-03 0.000000000000D+00  6 1 2 25 1 2 21 2 0.17915533D+00 0.23105513D+00 0.24815921D+06 0.24815921D+06 0.24815921D+06 0.10907006D+01  1  2  4  4  6  5        2 -.324738415777D-01 0.100000000000D+01
-.394458688090D-01 0.000000000000D+00 0.000000000000D+00 0.121745329543D-03 0.000000000000D+00  6 1 2 25 1 2 21 2 0.17915533D+00 0.23105513D+00 0.24815921D+06 0.24815921D+06 0.24815921D+06 0.10907006D+01  1  2  5  4  6  5        2 -.102052880402D+00 0.100000000000D+01
0.475126967217D-01 0.000000000000D+00 -.000000000000D+00 0.121745329543D-03 0.000000000000D+00  6 1 2 25 1 2 21 2 0.17915533D+00 0.23105513D+00 0.24815921D+06 0.24815921D+06 0.24815921D+06 0.10907006D+01  1  2  6  4  6  5        2 0.122923076675D+00 0.100000000000D+01
0.644712297992D-06 0.000000000000D+00 0.000000000000D+00 0.121745329543D-03 0.223771888589D-05  6 1 2 25 1 2 21 2 0.17915533D+00 0.23105513D+00 0.25046466D+06 0.25046466D+06 0.25046466D+06 0.10903984D+01  1  2 11  4  6  5        2 0.166600878341D-05 0.100000000000D+01
  </mgrwgt>
  </event>
  <event>
  6     66 0.17698235E-05 0.92030657E+01 0.75467711E-02 0.94767153E-01
        1 -1    0    0  501    0 0.00000000E+00 0.00000000E+00 0.73849735E+03 0.73849742E+03 0.32000000E+00 0.0000E+00 0.9000E+01
        2 -1    0    0  503    0 0.00000000E+00 0.00000000E+00 -.14412624E+04 0.14412625E+04 0.32000000E+00 0.0000E+00 0.9000E+01
       25  1    1    2    0    0 -.45091305E+03 0.16293834E+03 -.23047209E+03 0.54645574E+03 0.12500000E+03 0.0000E+00 0.9000E+01
        1  1    1    2  501    0 -.32429825E+01 -.98510432E+01 0.52401718E+03 0.52411990E+03 0.32000000E+00 0.0000E+00 0.9000E+01
        2  1    1    2  502    0 0.45345088E+03 -.15531207E+03 -.96207880E+03 0.10748652E+04 0.32000000E+00 0.0000E+00 0.9000E+01
       21  1    1    2  503  502 0.70516072E+00 0.22247788E+01 -.34231372E+02 0.34319036E+02 0.75000000E+00 0.0000E+00 0.9000E+01
#aMCatNLO 2  0  0  2  5 0.13310261D+02 0.00000000D+00  -5  6  0 0.00000000D+00 0.00000000D+00 0.00000000D+00 0.00000000D+00 0.00000000D+00
  <mgrwgt>
 0.1969345999D+00    1    2    0
 0.101931027168233D+04 0.000000000000000D+00 0.000000000000000D+00 0.101931027168233D+04
 0.101931027168233D+04 0.000000000000000D+00 0.000000000000000D+00 -.101931027168233D+04
 0.499585936490496D+03 -.450801858829410D+03 0.163503981557535D+03 -.632869657186079D+02
 0.723336187970186D+03 -.299242816456821D+01 -.906058656715784D+01 0.723273248483572D+03
 0.815698418903974D+03 0.453794286993978D+03 -.154443394990377D+03 -.659986282764964D+03
 0.000000000000000D+00 0.000000000000000D+00 0.000000000000000D+00 -.000000000000000D+00
 0.101936579177524D+04 0.000000000000000D+00 0.000000000000000D+00 0.101936579177524D+04
 0.104413628593022D+04 0.000000000000000D+00 0.000000000000000D+00 -.104413628593022D+04
 0.499563762170483D+03 -.450974662172436D+03 0.162958787803900D+03 -.632869657186079D+02
 0.723347585023656D+03 -.324263270609973D+01 -.984998074660752D+01 0.723273248483572D+03
 0.815710532096109D+03 0.453512134158468D+03 -.155333585890602D+03 -.659986282764964D+03
 0.248801984152125D+02 0.705160720066745D+00 0.222477883330953D+01 -.247704941549836D+02
0.323098413824D-01 0.000000000000D+00 0.000000000000D+00 0.438188947196D-04 0.494464617452D-04  6 1 2 25 1 2 21 2 0.11361436D+00 0.22173146D+00 0.24384788D+06 0.24384788D+06 0.24384788D+06 0.10912741D+01  1  2  1  2  6  2        2 0.196934599862D+00 0.100000000000D+01
  </mgrwgt>
  </event>
  <event>
  5     66 0.17698235E-05 0.90851967E+02 0.75467711E-02 0.90834795E-01
        1 -1    0    0  501    0 0.00000000E+00 0.00000000E+00 0.14323698E+04 0.14323698E+04 0.32000000E+00 0.0000E+00 0.9000E+01
        2 -1    0    0  502    0 0.00000000E+00 0.00000000E+00 -.91277767E+03 0.91277773E+03 0.32000000E+00 0.0000E+00 0.9000E+01
       25  1    1    2    0    0 -.51251655E+03 0.38883771E+03 0.35456640E+03 0.74512436E+03 0.12500000E+03 0.0000E+00 0.9000E+01
        1  1    1    2  501    0 0.80835632E+02 0.41515502E+02 0.74982328E+03 0.75530987E+03 0.32000000E+00 0.0000E+00 0.9000E+01
        2  1    1    2  502    0 0.43168091E+03 -.43035321E+03 -.58479757E+03 0.84471332E+03 0.32000000E+00 0.0000E+00 0.9000E+01
#aMCatNLO 1  0  0  5  2 0.70360494D+01 0.00000000D+00  -5  6  0 0.00000000D+00 0.00000000D+00 0.00000000D+00 0.00000000D+00 0.00000000D+00
  <mgrwgt>
 0.2546748252D-02    4    2    0
 0.114343135449686D+04 0.000000000000000D+00 0.000000000000000D+00 0.114343135449686D+04
 0.114343135449686D+04 -.000000000000000D+00 -.000000000000000D+00 -.114343135449686D+04
 0.683659245439705D+03 -.512560537961829D+03 0.388901570122361D+03 0.194427949523285D+03
 0.604053737460651D+03 0.808167550687502D+02 0.415058072723683D+02 0.597182415852148D+03
 0.999149726093373D+03 0.431743782893079D+03 -.430407377394730D+03 -.791610365375433D+03
 0.000000000000000D+00 0.000000000000000D+00 0.000000000000000D+00 0.000000000000000D+00
 0.114343135449686D+04 0.000000000000000D+00 0.000000000000000D+00 0.114343135449686D+04
 0.114343135449686D+04 -.000000000000000D+00 -.000000000000000D+00 -.114343135449686D+04
 0.552356916070936D+03 -.435260388669662D+03 0.311840693168629D+03 0.526966684965895D+02
 0.495054582836766D+03 0.149554721361533D+03 -.270193897814840D+02 0.471150058773206D+03
 0.900535203584086D+03 0.460385834024874D+03 -.121921062922952D+03 -.764293000844042D+03
 0.338916006501940D+03 -.174680166716744D+03 -.162900240464193D+03 0.240446273574247D+03
0.123314832582D-02 0.000000000000D+00 0.000000000000D+00 0.308189326210D-05 0.000000000000D+00  6 1 2 25 1 2 21 0 0.22036459D+00 0.14042734D+00 0.45962641D+06 0.45962641D+06 0.45962641D+06 0.10711042D+01  1  2  2  4  6  5        2 0.371960475856D-02 0.100000000000D+01
0.327339438094D-03 0.000000000000D+00 -.473561426656D-05 0.308189326210D-05 0.000000000000D+00  6 1 2 25 1 2 21 2 0.22036459D+00 0.14042734D+00 0.45962641D+06 0.45962641D+06 0.45962641D+06 0.10711042D+01  1  2  3  4  6  5        2 0.113277405532D-02 0.100000000000D+01
-.661568471526D-03 0.000000000000D+00 0.000000000000D+00 0.308189326210D-05 0.000000000000D+00  6 1 2 25 1 2 21 2 0.22036459D+00 0.14042734D+00 0.45962641D+06 0.45962641D+06 0.45962641D+06 0.10711042D+01  1  2 15  4  6  5        2 -.228938989059D-02 0.100000000000D+01
-.469309131659D-05 0.000000000000D+00 0.000000000000D+00 0.308189326210D-05 0.000000000000D+00  6 1 2 25 1 2 21 2 0.22036459D+00 0.14042734D+00 0.45962641D+06 0.45962641D+06 0.45962641D+06 0.10711042D+01  1  2  4  4  6  5        2 -.162406708878D-04 0.100000000000D+01
  </mgrwgt>
  </event>
  <event>
  5     66 0.17698235E-05 0.99141474E+02 0.75467711E-02 0.94334257E-01
        1 -1    0    0  501    0 0.00000000E+00 0.00000000E+00 0.24317761E+04 0.24317761E+04 0.32000000E+00 0.0000E+00 0.9000E+01
        2 -1    0    0  502    0 0.00000000E+00 0.00000000E+00 -.94168328E+03 0.94168333E+03 0.32000000E+00 0.0000E+00 0.9000E+01
       25  1    1    2    0    0 -.39364412E+03 0.25530558E+03 0.54037283E+03 0.72647397E+03 0.12500000E+03 0.0000E+00 0.9000E+01
        1  1    1    2  501    0 0.29659402E+03 -.27551595E+03 0.17725583E+04 0.18181970E+04 0.32000000E+00 0.0000E+00 0.9000E+01
        2  1    1    2  502    0 0.97050095E+02 0.20210373E+02 -.82283840E+03 0.82878847E+03 0.32000000E+00 0.0000E+00 0.9000E+01
#aMCatNLO 1  0  0  2  4 0.73932213D+02 0.00000000D+00  -5  6  0 0.00000000D+00 0.00000000D+00 0.00000000D+00 0.00000000D+00 0.00000000D+00
  <mgrwgt>
 0.3514073009D-01    9    2    0
 0.151326236255857D+04 0.000000000000000D+00 0.000000000000000D+00 0.151326236255857D+04
 0.151326236255857D+04 0.000000000000000D+00 0.000000000000000D+00 -.151326236255857D+04
 0.543730855314471D+03 -.393636486454233D+03 0.255288287225965D+03 0.244737512364177D+03
 0.115384456265882D+04 0.296577198630939D+03 -.275500325173035D+03 0.108050858897979D+04
 0.132894930714386D+04 0.970592878232937D+02 0.202120379470707D+02 -.132524610134397D+04
 0.000000000000000D+00 0.000000000000000D+00 0.000000000000000D+00 -.000000000000000D+00
 0.152629475877962D+04 0.000000000000000D+00 0.000000000000000D+00 0.152629475877962D+04
 0.162232977635407D+04 0.000000000000000D+00 0.000000000000000D+00 -.162232977635407D+04
 0.551324207581927D+03 -.406451194075711D+03 0.251464428383146D+03 0.244737512364177D+03
 0.114917079300467D+04 0.269626527901613D+03 -.283542300349708D+03 0.108050858897979D+04
 0.132693260115844D+04 0.659792524120630D+02 0.109378764325949D+02 -.132524610134397D+04
 0.121196933388652D+03 0.708454137620349D+02 0.211399955339677D+02 -.960350175744409D+02
0.183359659304D-01 0.000000000000D+00 0.000000000000D+00 0.998699570541D-04 0.000000000000D+00  6 1 2 25 1 2 21 0 0.37411940D+00 0.14487436D+00 0.24476443D+06 0.24476443D+06 0.24476443D+06 0.10911513D+01  1  2  2  2  6  2        2 0.118010897948D-01 0.100000000000D+01
0.504300583106D-02 0.000000000000D+00 -.704149371433D-04 0.998699570541D-04 0.000000000000D+00  6 1 2 25 1 2 21 2 0.37411940D+00 0.14487436D+00 0.24476443D+06 0.24476443D+06 0.24476443D+06 0.10911513D+01  1  2  3  2  6  2        2 0.386436123711D-02 0.100000000000D+01
-.109845823485D-01 0.000000000000D+00 0.000000000000D+00 0.998699570541D-04 0.000000000000D+00  6 1 2 25 1 2 21 2 0.37411940D+00 0.14487436D+00 0.24476443D+06 0.24476443D+06 0.24476443D+06 0.10911513D+01  1  2 15  2  6  2        2 -.841728041879D-02 0.100000000000D+01
0.540513440160D-08 0.000000000000D+00 0.000000000000D+00 0.998699570541D-04 0.000000000000D+00  6 1 2 25 1 2 21 2 0.37411940D+00 0.15613943D+00 0.26322614D+06 0.26322614D+06 0.26322614D+06 0.10887788D+01  1  2 12  2  6  2        2 0.368863963732D-08 0.100000000000D+01
-.168579925273D-02 0.000000000000D+00 0.000000000000D+00 0.998699570541D-04 0.000000000000D+00  6 1 2 25 1 2 21 2 0.37411940D+00 0.14487436D+00 0.24476443D+06 0.24476443D+06 0.24476443D+06 0.10911513D+01  1  2  4  2  6  2        2 -.129179650075D-02 0.100000000000D+01
-.382214792121D+00 0.000000000000D+00 -.558746704139D-01 0.998699570541D-04 0.000000000000D+00  6 1 2 25 1 2 21 2 0.37411940D+00 0.15597657D+00 0.24476443D+06 0.24476443D+06 0.24476443D+06 0.10911513D+01  1  2  5  2  6  2        2 -.263964514669D+00 0.100000000000D+01
0.385441266933D+00 0.000000000000D+00 0.557226959379D-01 0.998699570541D-04 0.000000000000D+00  6 1 2 25 1 2 21 2 0.37411940D+00 0.14487436D+00 0.24476443D+06 0.24476443D+06 0.24476443D+06 0.10911513D+01  1  2  6  2  6  2        2 0.295356448320D+00 0.100000000000D+01
0.754704592923D-10 0.000000000000D+00 0.000000000000D+00 0.998699570541D-04 0.000000000000D+00  6 1 21 25 1 2 -2 2 0.37411940D+00 0.15613943D+00 0.26322614D+06 0.26322614D+06 0.26322614D+06 0.10887788D+01  1  2 12  6  6  2        2 0.352409245859D-10 0.100000000000D+01
-.464884234635D-02 0.000000000000D+00 -.694798523093D-03 0.998699570541D-04 0.000000000000D+00  6 1 21 25 1 2 -2 2 0.37411940D+00 0.15597657D+00 0.24476443D+06 0.24476443D+06 0.24476443D+06 0.10911513D+01  1  2  5  6  6  2        2 -.220758139864D-02 0.100000000000D+01
  </mgrwgt>
  </event>
  <event>
  5     66 0.17698235E-05 0.84830253E+02 0.75467711E-02 0.94028474E-01
        1 -1    0    0  501    0 0.00000000E+00 0.00000000E+00 0.24201063E+04 0.24201064E+04 0.32000000E+00 0.0000E+00 0.9000E+01
        2 -1    0    0  502    0 0.00000000E+00 0.00000000E+00 -.15860547E+04 0.15860547E+04 0.32000000E+00 0.0000E+00 0.9000E+01
       25  1    1    2    0    0 -.90865090E+02 0.44839321E+03 0.17661956E+03 0.50609525E+03 0.12500000E+03 0.0000E+00 0.9000E+01
        1  1    1    2  501    0 -.45842080E+02 -.71379407E+02 0.20495654E+04 0.20513203E+04 0.32000000E+00 0.0000E+00 0.9000E+01
        2  1    1    2  502    0 0.13670717E+03 -.37701381E+03 -.13921333E+04 0.14487455E+04 0.32000000E+00 0.0000E+00 0.9000E+01
#aMCatNLO 1  0  0  4  2 0.11208104D+03 0.00000000D+00  -5  6  0 0.00000000D+00 0.00000000D+00 0.00000000D+00 0.00000000D+00 0.00000000D+00
  <mgrwgt>
 0.1099219582D-01    6    2    0
 0.195918889031195D+04 0.000000000000000D+00 0.000000000000000D+00 0.195918889031195D+04
 0.195918889031195D+04 -.000000000000000D+00 -.000000000000000D+00 -.195918889031195D+04
 0.479869707816994D+03 -.908751087016228D+02 0.448417490997679D+03 0.728931057520643D+02
 0.166097316459365D+04 -.458409833863922D+02 -.713776996756502D+02 0.165880549846310D+04
 0.177753490821326D+04 0.136716092088016D+03 -.377039791322028D+03 -.173169860421517D+04
 0.000000000000000D+00 -.000000000000000D+00 0.000000000000000D+00 0.000000000000000D+00
 0.195918889031195D+04 0.000000000000000D+00 0.000000000000000D+00 0.195918889031195D+04
 0.195918889031195D+04 -.000000000000000D+00 -.000000000000000D+00 -.195918889031195D+04
 0.480331208517690D+03 -.909806345987953D+02 0.448253179605559D+03 0.767116743238697D+02
 0.142527334604448D+04 0.564265491354830D+02 -.284818447755941D+01 0.142415309687641D+04
 0.176391666517205D+04 0.136326887237013D+03 -.377645811195838D+03 -.171761480628638D+04
 0.248856560889694D+03 -.101772801773701D+03 -.677591839321606D+02 0.216750035086098D+03
0.143934665853D-01 0.000000000000D+00 0.000000000000D+00 0.668473395913D-03 0.000000000000D+00  6 1 2 25 1 2 21 0 0.37232405D+00 0.24400842D+00 0.23049256D+06 0.23049256D+06 0.23049256D+06 0.10931234D+01  1  2  2  3  6  4        1 0.403801700426D-02 0.100000000000D+01
0.457157280238D-02 0.000000000000D+00 -.552747015742D-04 0.668473395913D-03 0.000000000000D+00  6 1 2 25 1 2 21 2 0.37232405D+00 0.24400842D+00 0.23049256D+06 0.23049256D+06 0.23049256D+06 0.10931234D+01  1  2  3  3  6  4        1 0.153252218755D-02 0.100000000000D+01
-.791288490157D-02 0.000000000000D+00 0.000000000000D+00 0.668473395913D-03 0.000000000000D+00  6 1 2 25 1 2 21 2 0.37232405D+00 0.24400842D+00 0.23049256D+06 0.23049256D+06 0.23049256D+06 0.10931234D+01  1  2 15  3  6  4        1 -.265262573811D-02 0.100000000000D+01
-.963086772239D-03 0.000000000000D+00 0.000000000000D+00 0.668473395913D-03 0.000000000000D+00  6 1 2 25 1 2 21 2 0.37232405D+00 0.24400842D+00 0.23049256D+06 0.23049256D+06 0.23049256D+06 0.10931234D+01  1  2  4  3  6  4        1 -.322854280310D-03 0.100000000000D+01
-.155677158625D+00 0.000000000000D+00 0.000000000000D+00 0.668473395913D-03 0.000000000000D+00  6 1 2 25 1 2 21 2 0.37232405D+00 0.24400842D+00 0.23049256D+06 0.23049256D+06 0.23049256D+06 0.10931234D+01  1  2  5  3  6  4        1 -.521874440157D-01 0.100000000000D+01
0.180726141164D+00 0.000000000000D+00 -.000000000000D+00 0.668473395913D-03 0.000000000000D+00  6 1 2 25 1 2 21 2 0.37232405D+00 0.24400842D+00 0.23049256D+06 0.23049256D+06 0.23049256D+06 0.10931234D+01  1  2  6  3  6  4        1 0.605845806634D-01 0.100000000000D+01
  </mgrwgt>
  </event>
  <event>
  5     66 0.17698235E-05 0.58533108E+02 0.75467711E-02 0.93804930E-01
        1 -1    0    0  501    0 0.00000000E+00 0.00000000E+00 0.12170609E+04 0.12170610E+04 0.32000000E+00 0.0000E+00 0.9000E+01
        2 -1    0    0  502    0 -.00000000E+00 -.00000000E+00 -.16315803E+04 0.16315803E+04 0.32000000E+00 0.0000E+00 0.9000E+01
       25  1    1    2    0    0 -.18872307E+03 0.49247946E+03 0.39065417E+03 0.66812282E+03 0.12500000E+03 0.0000E+00 0.9000E+01
        1  1    1    2  501    0 -.43726724E+01 -.58380529E+02 0.64851885E+03 0.65115606E+03 0.32000000E+00 0.0000E+00 0.9000E+01
        2  1    1    2  502    0 0.19309575E+03 -.43409893E+03 -.14536924E+04 0.15293624E+04 0.32000000E+00 0.0000E+00 0.9000E+01
#aMCatNLO 1  0  0  5  2 0.14666957D+02 0.00000000D+00  -5  6  0 0.00000000D+00 0.00000000D+00 0.00000000D+00 0.00000000D+00 0.00000000D+00
  <mgrwgt>
 0.3104411786D-02    4    2    0
 0.140916030442621D+04 0.000000000000000D+00 0.000000000000000D+00 0.140916030442621D+04
 0.140916030442621D+04 -.000000000000000D+00 -.000000000000000D+00 -.140916030442621D+04
 0.732892260830644D+03 -.188744743668073D+03 0.492516765023352D+03 0.493263341323941D+03
 0.753404829664430D+03 -.437185471383101D+01 -.583696125958427D+02 0.751127627353342D+03
 0.133202351835735D+04 0.193116598381904D+03 -.434147152427510D+03 -.124439096867728D+04
 0.000000000000000D+00 0.000000000000000D+00 0.000000000000000D+00 0.000000000000000D+00
 0.140916030442621D+04 0.000000000000000D+00 0.000000000000000D+00 0.140916030442621D+04
 0.140916030442621D+04 -.000000000000000D+00 -.000000000000000D+00 -.140916030442621D+04
 0.454481028302679D+03 -.138247092993753D+03 0.378992544794597D+03 0.167870180067673D+03
 0.456633685023258D+03 0.470897225141469D+02 -.174060844733082D+03 0.419523184892404D+03
 0.124209219782074D+04 -.126390612201786D+03 -.221023662992540D+03 -.121571665343195D+04
 0.665113697705752D+03 0.217547982681392D+03 0.160919629310252D+02 0.628323288471868D+03
0.288098640309D-02 0.000000000000D+00 0.000000000000D+00 0.805296834757D-04 0.000000000000D+00  6 1 2 25 1 2 21 0 0.18724015D+00 0.25101236D+00 0.28930828D+06 0.28930828D+06 0.28930828D+06 0.10857198D+01  1  2  2  4  6  5        2 0.483022801106D-02 0.100000000000D+01
0.941618448266D-03 0.000000000000D+00 -.110637463690D-04 0.805296834757D-04 0.000000000000D+00  6 1 2 25 1 2 21 2 0.18724015D+00 0.25101236D+00 0.28930828D+06 0.28930828D+06 0.28930828D+06 0.10857198D+01  1  2  3  4  6  5        2 0.186095945835D-02 0.100000000000D+01
-.181132262913D-02 0.000000000000D+00 0.000000000000D+00 0.805296834757D-04 0.000000000000D+00  6 1 2 25 1 2 21 2 0.18724015D+00 0.25101236D+00 0.28930828D+06 0.28930828D+06 0.28930828D+06 0.10857198D+01  1  2 15  4  6  5        2 -.357979177766D-02 0.100000000000D+01
-.353375466869D-05 0.000000000000D+00 0.000000000000D+00 0.805296834757D-04 0.000000000000D+00  6 1 2 25 1 2 21 2 0.18724015D+00 0.25101236D+00 0.28930828D+06 0.28930828D+06 0.28930828D+06 0.10857198D+01  1  2  4  4  6  5        2 -.698390540915D-05 0.100000000000D+01
  </mgrwgt>
  </event>
  <event>
  5     66 0.17698235E-05 0.23955766E+02 0.75467711E-02 0.94494792E-01
        1 -1    0    0  501    0 0.00000000E+00 0.00000000E+00 0.62792565E+03 0.62792573E+03 0.32000000E+00 0.0000E+00 0.9000E+01
        2 -1    0    0  502    0 0.00000000E+00 0.00000000E+00 -.51971725E+03 0.51971735E+03 0.32000000E+00 0.0000E+00 0.9000E+01
       25  1    1    2    0    0 0.46598158E+03 -.14262690E+03 0.48266657E+02 0.50540670E+03 0.12500000E+03 0.0000E+00 0.9000E+01
        1  1    1    2  501    0 -.18491561E+02 -.15289643E+02 0.15620239E+03 0.15803481E+03 0.32000000E+00 0.0000E+00 0.9000E+01
        2  1    1    2  502    0 -.44749001E+03 0.15791654E+03 -.96260655E+02 0.48420157E+03 0.32000000E+00 0.0000E+00 0.9000E+01
#aMCatNLO 1  0  0  1  4 0.88932018D+01 0.00000000D+00  -5  6  0 0.00000000D+00 0.00000000D+00 0.00000000D+00 0.00000000D+00 0.00000000D+00
  <mgrwgt>
 0.5674463336D-02   13    2    0
 0.571265170397125D+03 0.000000000000000D+00 0.000000000000000D+00 0.571265170397125D+03
 0.571265170397125D+03 0.000000000000000D+00 0.000000000000000D+00 -.571265170397125D+03
 0.503214090864914D+03 0.466090447567230D+03 -.142683330028660D+03 0.763716906620758D+00
 0.143718557866560D+03 -.184621117156090D+02 -.152652925763788D+02 0.141707957252942D+03
 0.495597692062775D+03 -.447628335851621D+03 0.157948622605039D+03 -.142471674159563D+03
 0.000000000000000D+00 0.000000000000000D+00 0.000000000000000D+00 0.000000000000000D+00
 0.709595482924568D+03 0.000000000000000D+00 0.000000000000000D+00 0.709595482924568D+03
 0.571425428812409D+03 0.000000000000000D+00 0.000000000000000D+00 -.571425428812409D+03
 0.502779211323731D+03 0.464508364531495D+03 -.146264593651629D+03 0.763716906620758D+00
 0.143889669921509D+03 -.189144209875808D+02 -.162891571305494D+02 0.141707957252942D+03
 0.495896070376152D+03 -.449187616075635D+03 0.154418976298152D+03 -.142471674159563D+03
 0.138455960115585D+03 0.359367253172072D+01 0.813477448402667D+01 0.138170054112160D+03
0.115632663939D-05 0.000000000000D+00 0.000000000000D+00 0.433983678882D-06 0.000000000000D+00  6 1 2 25 1 2 21 0 0.96603959D-01 0.79956514D-01 0.25092433D+06 0.25092433D+06 0.25092433D+06 0.10903386D+01  1  2  2  1  6  1        1 0.307806595167D-04 0.100000000000D+01
0.470176138798D-06 0.000000000000D+00 -.444059876307D-08 0.433983678882D-06 0.000000000000D+00  6 1 2 25 1 2 21 2 0.96603959D-01 0.79956514D-01 0.25092433D+06 0.25092433D+06 0.25092433D+06 0.10903386D+01  1  2  3  1  6  1        1 0.148792387285D-04 0.100000000000D+01
-.755024805087D-06 0.000000000000D+00 0.000000000000D+00 0.433983678882D-06 0.000000000000D+00  6 1 2 25 1 2 21 2 0.96603959D-01 0.79956514D-01 0.25092433D+06 0.25092433D+06 0.25092433D+06 0.10903386D+01  1  2 15  1  6  1        1 -.238935866664D-04 0.100000000000D+01
0.422619529784D-03 0.000000000000D+00 0.000000000000D+00 0.433983678882D-06 0.000000000000D+00  6 1 2 25 1 2 21 2 0.12799124D+00 0.79956514D-01 0.25584519D+06 0.25584519D+06 0.25584519D+06 0.10897048D+01  1  2 12  1  6  1        1 0.865574326568D-02 0.100000000000D+01
0.628349152401D-06 0.000000000000D+00 0.000000000000D+00 0.433983678882D-06 0.000000000000D+00  6 1 2 25 1 2 21 2 0.12001959D+00 0.79956514D-01 0.25584519D+06 0.25584519D+06 0.25584519D+06 0.10897048D+01  1  2 12  1  6  1        1 0.142625239560D-04 0.100000000000D+01
-.243160996094D-03 0.000000000000D+00 0.000000000000D+00 0.433983678882D-06 0.000000000000D+00  6 1 2 25 1 2 21 2 0.96603959D-01 0.79956514D-01 0.25092433D+06 0.25092433D+06 0.25092433D+06 0.10903386D+01  1  2  4  1  6  1        1 -.769509596892D-02 0.100000000000D+01
-.596395947308D-03 0.000000000000D+00 -.152085231027D-05 0.433983678882D-06 0.000000000000D+00  6 1 2 25 1 2 21 2 0.12000961D+00 0.79956514D-01 0.25092433D+06 0.25092433D+06 0.25092433D+06 0.10903386D+01  1  2  5  1  6  1        1 -.135630180993D-01 0.100000000000D+01
0.582987023484D-03 0.000000000000D+00 0.148574916544D-05 0.433983678882D-06 0.000000000000D+00  6 1 2 25 1 2 21 2 0.96603959D-01 0.79956514D-01 0.25092433D+06 0.25092433D+06 0.25092433D+06 0.10903386D+01  1  2  6  1  6  1        1 0.184492626960D-01 0.100000000000D+01
0.479778258630D-07 0.000000000000D+00 0.000000000000D+00 0.433983678882D-06 0.116763128658D-07  6 1 2 25 1 2 21 2 0.11999635D+00 0.79978945D-01 0.25584519D+06 0.25584519D+06 0.25584519D+06 0.10897048D+01  1  2 11  1  6  1        1 0.108900513944D-05 0.100000000000D+01
0.155939861821D-04 0.000000000000D+00 0.000000000000D+00 0.433983678882D-06 0.000000000000D+00  6 21 2 25 1 2 -1 2 0.12799124D+00 0.79956514D-01 0.25584519D+06 0.25584519D+06 0.25584519D+06 0.10897048D+01  1  2 12  5  6  1        1 0.533577476816D-03 0.100000000000D+01
0.191356730526D-07 0.000000000000D+00 0.000000000000D+00 0.433983678882D-06 0.000000000000D+00  6 21 2 25 1 2 -1 2 0.12001959D+00 0.79956514D-01 0.25584519D+06 0.25584519D+06 0.25584519D+06 0.10897048D+01  1  2 12  5  6  1        1 0.782908805837D-06 0.100000000000D+01
-.181371932777D-04 0.000000000000D+00 -.463024573189D-07 0.433983678882D-06 0.000000000000D+00  6 21 2 25 1 2 -1 2 0.12000961D+00 0.79956514D-01 0.25092433D+06 0.25092433D+06 0.25092433D+06 0.10903386D+01  1  2  5  5  6  1        1 -.744079099447D-03 0.100000000000D+01
0.421080104120D-08 0.000000000000D+00 0.000000000000D+00 0.433983678882D-06 0.873758134476D-09  6 21 2 25 1 2 -1 2 0.11999635D+00 0.79978945D-01 0.25584519D+06 0.25584519D+06 0.25584519D+06 0.10897048D+01  1  2 11  5  6  1        1 0.172315707069D-06 0.100000000000D+01
  </mgrwgt>
  </event>
  <event>
  6     66 0.17698235E-05 0.29554462E+02 0.75467711E-02 0.93079285E-01
        1 -1    0    0  501    0 0.00000000E+00 0.00000000E+00 0.68672510E+03 0.68672517E+03 0.32000000E+00 0.0000E+00 0.9000E+01
        2 -1    0    0  502    0 -.00000000E+00 -.00000000E+00 -.22317437E+04 0.22317438E+04 0.32000000E+00 0.0000E+00 0.9000E+01
       25  1    1    2    0    0 -.17666236E+03 -.53200899E+03 -.14347212E+04 0.15454103E+04 0.12500000E+03 0.0000E+00 0.9000E+01
        1  1    1    2  503    0 0.88634850E+02 0.15034240E+03 0.13872388E+03 0.22294257E+03 0.32000000E+00 0.0000E+00 0.9000E+01
        2  1    1    2  502    0 -.15612454E+02 0.49734753E+02 -.63123744E+03 0.63338622E+03 0.32000000E+00 0.0000E+00 0.9000E+01
       21  1    1    2  501  503 0.10363996E+03 0.33193183E+03 0.38221612E+03 0.51672982E+03 0.75000000E+00 0.0000E+00 0.9000E+01
#aMCatNLO 2  0  0  4  1 0.11167085D+02 0.00000000D+00  -5  6  0 0.00000000D+00 0.00000000D+00 0.00000000D+00 0.00000000D+00 0.00000000D+00
  <mgrwgt>
 0.3370172188D-02    1    2    0
 0.123798003829393D+04 0.000000000000000D+00 0.000000000000000D+00 0.123798003829393D+04
 0.123798003829393D+04 -.000000000000000D+00 -.000000000000000D+00 -.123798003829393D+04
 0.927160646254667D+03 -.176812221647409D+03 -.532407211820515D+03 -.727517603251622D+03
 0.119567288649427D+04 0.192486967667971D+03 0.482806370478158D+03 0.107679172888783D+04
 0.353126543838914D+03 -.156747460205621D+02 0.496008413423564D+02 -.349274125636207D+03
 0.000000000000000D+00 0.000000000000000D+00 0.000000000000000D+00 0.000000000000000D+00
 0.123798003829393D+04 0.000000000000000D+00 0.000000000000000D+00 0.123798003829393D+04
 0.123798003829393D+04 -.000000000000000D+00 -.000000000000000D+00 -.123798003829393D+04
 0.926224103817888D+03 -.176656659394216D+03 -.532017022044254D+03 -.726647372141460D+03
 0.349064387339639D+03 0.885623678682851D+02 0.150218756698231D+03 0.302385480210935D+03
 0.352816995551379D+03 -.156154932574160D+02 0.497494623729745D+02 -.348942659635977D+03
 0.847854589878947D+03 0.103709784783347D+03 0.332048802973048D+03 0.773204551566502D+03
0.139221070410D-02 0.000000000000D+00 0.000000000000D+00 0.122565531345D-04 0.106006466909D-07  6 1 2 25 1 2 21 2 0.10565002D+00 0.34334520D+00 0.32990058D+06 0.32990058D+06 0.32990058D+06 0.10815123D+01  1  2  1  3  6  4        1 0.337017218825D-02 0.100000000000D+01
  </mgrwgt>
  </event>
  <event>
  5     66 0.17698235E-05 0.10787915E+03 0.75467711E-02 0.92803169E-01
        1 -1    0    0  501    0 0.00000000E+00 0.00000000E+00 0.15956232E+04 0.15956232E+04 0.32000000E+00 0.0000E+00 0.9000E+01
        2 -1    0    0  502    0 0.00000000E+00 0.00000000E+00 -.12154150E+04 0.12154151E+04 0.32000000E+00 0.0000E+00 0.9000E+01
       25  1    1    2    0    0 0.48018117E+03 -.31529182E+03 -.50225903E+03 0.77322185E+03 0.12500000E+03 0.0000E+00 0.9000E+01
        1  1    1    2  501    0 -.10748798E+03 0.92147350E+01 0.13569715E+04 0.13612532E+04 0.32000000E+00 0.0000E+00 0.9000E+01
        2  1    1    2  502    0 -.37269319E+03 0.30607708E+03 -.47450429E+03 0.67656325E+03 0.32000000E+00 0.0000E+00 0.9000E+01
#aMCatNLO 1  0  0  2  5 0.99710493D+01 0.00000000D+00  -5  6  0 0.00000000D+00 0.00000000D+00 0.00000000D+00 0.00000000D+00 0.00000000D+00
  <mgrwgt>
 0.4476316347D-02    3    2    0
 0.139260350345034D+04 0.000000000000000D+00 0.000000000000000D+00 0.139260350345034D+04
 0.139260350345034D+04 0.000000000000000D+00 0.000000000000000D+00 -.139260350345034D+04
 0.848961062768319D+03 0.480215232199074D+03 -.315318265078373D+03 -.612435799548547D+03
 0.118860409552266D+04 -.107484901982791D+03 0.921447144716412D+01 0.118369835061765D+04
 0.747641848609703D+03 -.372730330216283D+03 0.306103793631209D+03 -.571262551069100D+03
 0.000000000000000D+00 -.000000000000000D+00 0.000000000000000D+00 0.000000000000000D+00
 0.553215081262680D+04 0.000000000000000D+00 0.000000000000000D+00 0.553215081262680D+04
 0.316559759182780D+04 0.000000000000000D+00 0.000000000000000D+00 -.316559759182780D+04
 0.203595210055210D+04 0.128624520402915D+04 -.144912788334427D+04 -.612435799548547D+03
 0.182112525904860D+04 0.733418074829545D+03 -.117364958629192D+04 0.118369835061765D+04
 0.615783179326683D+03 0.820364409964736D+01 -.229740553475410D+03 -.571262551069100D+03
 0.422488786552722D+04 -.202786692295835D+04 0.285251802311160D+04 0.236655322079900D+04
0.467903507145D-02 0.000000000000D+00 0.000000000000D+00 0.735694815415D-05 0.000000000000D+00  6 1 2 25 1 2 21 0 0.24548050D+00 0.18698693D+00 0.34699172D+06 0.34699172D+06 0.34699172D+06 0.10799070D+01  1  2  2  2  6  2        2 0.728134330919D-02 0.100000000000D+01
0.126777667896D-02 0.000000000000D+00 -.179687266926D-04 0.735694815415D-05 0.000000000000D+00  6 1 2 25 1 2 21 2 0.24548050D+00 0.18698693D+00 0.34699172D+06 0.34699172D+06 0.34699172D+06 0.10799070D+01  1  2  3  2  6  2        2 0.230075640207D-02 0.100000000000D+01
-.281341956539D-02 0.000000000000D+00 0.000000000000D+00 0.735694815415D-05 0.000000000000D+00  6 1 2 25 1 2 21 2 0.24548050D+00 0.18698693D+00 0.34699172D+06 0.34699172D+06 0.34699172D+06 0.10799070D+01  1  2 15  2  6  2        2 -.510578336402D-02 0.100000000000D+01
  </mgrwgt>
  </event>
  <event>
  5     66 0.17698235E-05 0.16587050E+03 0.75467711E-02 0.90656843E-01
        1 -1    0    0  501    0 0.00000000E+00 0.00000000E+00 0.13650444E+04 0.13650445E+04 0.32000000E+00 0.0000E+00 0.9000E+01
        2 -1    0    0  502    0 0.00000000E+00 0.00000000E+00 -.21268392E+04 0.21268393E+04 0.32000000E+00 0.0000E+00 0.9000E+01
       25  1    1    2    0    0 -.14701249E+03 0.59090339E+03 -.21158563E+03 0.65663763E+03 0.12500000E+03 0.0000E+00 0.9000E+01
        1  1    1    2  501    0 -.12305592E+02 -.16541919E+03 0.11057341E+04 0.11181068E+04 0.32000000E+00 0.0000E+00 0.9000E+01
        2  1    1    2  502    0 0.15931809E+03 -.42548420E+03 -.16559433E+04 0.17171393E+04 0.32000000E+00 0.0000E+00 0.9000E+01
#aMCatNLO 1  0  0  1  2 0.23493920D+03 0.00000000D+00  -5  6  0 0.00000000D+00 0.00000000D+00 0.00000000D+00 0.00000000D+00 0.00000000D+00
  <mgrwgt>
 0.3410903060D-02    7    2    0
 0.170388678816097D+04 0.000000000000000D+00 0.000000000000000D+00 0.170388678816097D+04
 0.170388678816097D+04 0.000000000000000D+00 0.000000000000000D+00 -.170388678816097D+04
 0.625570294302682D+03 -.147025353012180D+03 0.590933550984814D+03 -.699591095288266D+02
 0.139283798582602D+04 -.123051641259040D+02 -.165413441846915D+03 0.138292611189177D+04
 0.138936529619324D+04 0.159330517138084D+03 -.425520109137899D+03 -.131296700236294D+04
 0.000000000000000D+00 0.000000000000000D+00 -.000000000000000D+00 0.000000000000000D+00
 0.240191783629330D+04 0.000000000000000D+00 0.000000000000000D+00 0.240191783629330D+04
 0.172781511622688D+04 0.000000000000000D+00 0.000000000000000D+00 -.172781511622688D+04
 0.652269542695686D+03 -.187541854658975D+03 0.608082504330987D+03 -.699591095288266D+02
 0.139248034599168D+04 -.100619326441447D+03 -.128033722774466D+03 0.138292611189177D+04
 0.137111269295862D+04 0.718039682271223D+02 -.388473754126536D+03 -.131296700236294D+04
 0.713870370874195D+03 0.216357212873300D+03 -.915750274299848D+02 0.674102720066428D+03
0.777820686745D-03 0.000000000000D+00 0.000000000000D+00 0.250907115299D-04 0.000000000000D+00  6 1 2 25 1 2 21 0 0.21000684D+00 0.32720604D+00 0.38557162D+06 0.38557162D+06 0.38557162D+06 0.10765797D+01  1  2  2  1  6  1        1 0.538324646036D-03 0.100000000000D+01
0.154500561174D-03 0.000000000000D+00 -.298703624199D-05 0.250907115299D-04 0.000000000000D+00  6 1 2 25 1 2 21 2 0.21000684D+00 0.32720604D+00 0.38557162D+06 0.38557162D+06 0.38557162D+06 0.10765797D+01  1  2  3  1  6  1        1 0.123933067816D-03 0.100000000000D+01
-.454911097320D-03 0.000000000000D+00 0.000000000000D+00 0.250907115299D-04 0.000000000000D+00  6 1 2 25 1 2 21 2 0.21000684D+00 0.32720604D+00 0.38557162D+06 0.38557162D+06 0.38557162D+06 0.10765797D+01  1  2 15  1  6  1        1 -.364908240112D-03 0.100000000000D+01
-.303899301901D-03 0.000000000000D+00 0.000000000000D+00 0.250907115299D-04 0.000000000000D+00  6 1 2 25 1 2 21 2 0.21000684D+00 0.32720604D+00 0.38557162D+06 0.38557162D+06 0.38557162D+06 0.10765797D+01  1  2  4  1  6  1        1 -.243773695743D-03 0.100000000000D+01
-.762798572612D-02 0.000000000000D+00 -.615822829029D-03 0.250907115299D-04 0.000000000000D+00  6 1 2 25 1 2 21 2 0.29732595D+00 0.32720604D+00 0.38557162D+06 0.38557162D+06 0.38557162D+06 0.10765797D+01  1  2  5  1  6  1        1 -.254349959320D-02 0.100000000000D+01
0.742424752256D-02 0.000000000000D+00 0.580387196949D-03 0.250907115299D-04 0.000000000000D+00  6 1 2 25 1 2 21 2 0.21000684D+00 0.32720604D+00 0.38557162D+06 0.38557162D+06 0.38557162D+06 0.10765797D+01  1  2  6  1  6  1        1 0.595538142195D-02 0.100000000000D+01
-.310699779199D-03 0.000000000000D+00 -.264759052224D-04 0.250907115299D-04 0.000000000000D+00  6 21 2 25 1 2 -1 2 0.29732595D+00 0.32720604D+00 0.38557162D+06 0.38557162D+06 0.38557162D+06 0.10765797D+01  1  2  5  5  6  1        1 -.545545465331D-04 0.100000000000D+01
  </mgrwgt>
  </event>
  <event>
  5     66 -.17698235E-05 0.70724143E+02 0.75467711E-02 0.93811071E-01
        1 -1    0    0  501    0 0.00000000E+00 0.00000000E+00 0.10113896E+04 0.10113896E+04 0.32000000E+00 0.0000E+00 0.9000E+01
        2 -1    0    0  502    0 -.00000000E+00 -.00000000E+00 -.23940712E+04 0.23940712E+04 0.32000000E+00 0.0000E+00 0.9000E+01
       25  1    1    2    0    0 0.52155625E+03 0.50862603E+02 -.83482968E+03 0.99356607E+03 0.12500000E+03 0.0000E+00 0.9000E+01
        1  1    1    2  501    0 -.63284566E+02 0.31577633E+02 0.89396379E+03 0.89675718E+03 0.32000000E+00 0.0000E+00 0.9000E+01
        2  1    1    2  502    0 -.45827169E+03 -.82440236E+02 -.14418157E+04 0.15151376E+04 0.32000000E+00 0.0000E+00 0.9000E+01
#aMCatNLO 1  0  0  5  2 0.14218636D+02 0.00000000D+00  -5  6  0 0.00000000D+00 0.00000000D+00 0.00000000D+00 0.00000000D+00 0.00000000D+00
  <mgrwgt>
 -.2001745850D-01    8    2    0
 0.155606515997246D+04 0.000000000000000D+00 0.000000000000000D+00 0.155606515997246D+04
 0.155606515997246D+04 -.000000000000000D+00 -.000000000000000D+00 -.155606515997246D+04
 0.716316611952647D+03 0.521589628877209D+03 0.508681870145688D+02 -.472060563018036D+03
 0.137843261977878D+04 -.632834349085710D+02 0.315770685878065D+02 0.137661707924745D+04
 0.101738108821348D+04 -.458306193968638D+03 -.824452556023753D+02 -.904556516229411D+03
 0.000000000000000D+00 0.000000000000000D+00 0.000000000000000D+00 -.000000000000000D+00
 0.155606515997246D+04 0.000000000000000D+00 0.000000000000000D+00 0.155606515997246D+04
 0.155606515997246D+04 -.000000000000000D+00 -.000000000000000D+00 -.155606515997246D+04
 0.716399598715131D+03 0.521441500083522D+03 0.508415399466951D+02 -.472352924036356D+03
 0.137788284935535D+04 -.635684108741001D+02 0.315258039166592D+02 0.137605462368830D+04
 0.940651703705152D+03 -.434956208142190D+03 -.822340958296142D+02 -.829985709614966D+03
 0.771961681692835D+02 -.229168810672316D+02 -.133248033739984D+00 -.737159900369802D+02
0.158704602319D-03 0.000000000000D+00 0.000000000000D+00 0.754760445673D-04 0.000000000000D+00  6 1 2 25 1 2 21 0 0.15559840D+00 0.36831865D+00 0.28898819D+06 0.28898819D+06 0.28898819D+06 0.10857555D+01  1  2  2  4  6  5        2 0.142836206373D-03 0.100000000000D+01
0.627114257498D-04 0.000000000000D+00 -.609467460785D-06 0.754760445673D-04 0.000000000000D+00  6 1 2 25 1 2 21 2 0.15559840D+00 0.36831865D+00 0.28898819D+06 0.28898819D+06 0.28898819D+06 0.10857555D+01  1  2  3  4  6  5        2 0.665364372110D-04 0.100000000000D+01
-.105034093582D-03 0.000000000000D+00 0.000000000000D+00 0.754760445673D-04 0.000000000000D+00  6 1 2 25 1 2 21 2 0.15559840D+00 0.36831865D+00 0.28898819D+06 0.28898819D+06 0.28898819D+06 0.10857555D+01  1  2 15  4  6  5        2 -.111440527608D-03 0.100000000000D+01
0.126779480215D-01 0.000000000000D+00 0.000000000000D+00 0.754760445673D-04 0.000000000000D+00  6 1 2 25 1 2 21 2 0.15559840D+00 0.36831865D+00 0.28898958D+06 0.28898958D+06 0.28898958D+06 0.10857554D+01  1  2 12  4  6  5        2 0.134512156467D-01 0.100000000000D+01
0.428463189434D-09 0.000000000000D+00 0.000000000000D+00 0.754760445673D-04 0.000000000000D+00  6 1 2 25 1 2 21 2 0.15559840D+00 0.36831865D+00 0.28898958D+06 0.28898958D+06 0.28898958D+06 0.10857554D+01  1  2 12  4  6  5        2 0.454596496843D-09 0.100000000000D+01
-.327471963703D-01 0.000000000000D+00 0.000000000000D+00 0.754760445673D-04 0.000000000000D+00  6 1 2 25 1 2 21 2 0.15559840D+00 0.36831865D+00 0.28898819D+06 0.28898819D+06 0.28898819D+06 0.10857555D+01  1  2  4  4  6  5        2 -.347445740401D-01 0.100000000000D+01
-.140989217350D-01 0.000000000000D+00 0.000000000000D+00 0.754760445673D-04 0.000000000000D+00  6 1 2 25 1 2 21 2 0.15559840D+00 0.36831865D+00 0.28898819D+06 0.28898819D+06 0.28898819D+06 0.10857555D+01  1  2  5  4  6  5        2 -.149588692897D-01 0.100000000000D+01
0.152091706986D-01 0.000000000000D+00 -.000000000000D+00 0.754760445673D-04 0.000000000000D+00  6 1 2 25 1 2 21 2 0.15559840D+00 0.36831865D+00 0.28898819D+06 0.28898819D+06 0.28898819D+06 0.10857555D+01  1  2  6  4  6  5        2 0.161368366151D-01 0.100000000000D+01
  </mgrwgt>
  </event>
  <event>
  5     66 -.17698235E-05 0.10737472E+02 0.75467711E-02 0.93758771E-01
        1 -1    0    0  501    0 0.00000000E+00 0.00000000E+00 0.88911393E+03 0.88911399E+03 0.32000000E+00 0.0000E+00 0.9000E+01
        2 -1    0    0  502    0 -.00000000E+00 -.00000000E+00 -.22114736E+04 0.22114737E+04 0.32000000E+00 0.0000E+00 0.9000E+01
       25  1    1    2    0    0 0.50283055E+03 -.15206577E+03 -.32414665E+03 0.62980839E+03 0.12500000E+03 0.0000E+00 0.9000E+01
        1  1    1    2  501    0 -.50928584E+03 0.14348646E+03 0.64120451E+03 0.83132650E+03 0.32000000E+00 0.0000E+00 0.9000E+01
        2  1    1    2  502    0 0.64552870E+01 0.85793033E+01 -.16394176E+04 0.16394527E+04 0.32000000E+00 0.0000E+00 0.9000E+01
#aMCatNLO 1  0  0  4  4 0.20084481D+02 0.00000000D+00  -5  6  0 0.00000000D+00 0.00000000D+00 0.00000000D+00 0.00000000D+00 0.00000000D+00
  <mgrwgt>
 -.3088015793D-01    6    2    0
 0.140223113115892D+04 0.000000000000000D+00 0.000000000000000D+00 0.140223113115892D+04
 0.140223113115892D+04 -.000000000000000D+00 -.000000000000000D+00 -.140223113115892D+04
 0.543448354989390D+03 0.502818325586057D+03 -.152063159888158D+03 -.613322215506451D+02
 0.122141933835357D+04 -.509274075072236D+03 0.143483148231297D+03 0.110087133795782D+04
 0.103959456897488D+04 0.645574948617988D+01 0.858001165686084D+01 -.103953911640717D+04
 0.000000000000000D+00 0.000000000000000D+00 0.000000000000000D+00 0.000000000000000D+00
 0.140223113115892D+04 0.000000000000000D+00 0.000000000000000D+00 0.140223113115892D+04
 0.140223113115892D+04 -.000000000000000D+00 -.000000000000000D+00 -.140223113115892D+04
 0.543362254215983D+03 0.502749321464236D+03 -.152043718630250D+03 -.611830589216569D+02
 0.901432433994505D+03 -.386687579378816D+03 0.121174297316257D+03 0.805214219125147D+03
 0.103930875494654D+04 0.632375510095565D+01 0.861719982501596D+01 -.103925379099483D+04
 0.320358819160813D+03 -.122385497186375D+03 0.222522214889763D+02 0.295222630791340D+03
0.568464261209D-04 0.000000000000D+00 0.000000000000D+00 0.164980822920D-03 0.000000000000D+00  6 1 2 25 1 2 21 0 0.13678677D+00 0.34022672D+00 0.29149983D+06 0.29149983D+06 0.29149983D+06 0.10854766D+01  1  2  2  3  6  4        1 0.808750867850D-04 0.100000000000D+01
0.688707341284D-04 0.000000000000D+00 -.218305244312D-06 0.164980822920D-03 0.000000000000D+00  6 1 2 25 1 2 21 2 0.13678677D+00 0.34022672D+00 0.29149983D+06 0.29149983D+06 0.29149983D+06 0.10854766D+01  1  2  3  3  6  4        1 0.115448222894D-03 0.100000000000D+01
-.378719111684D-04 0.000000000000D+00 0.000000000000D+00 0.164980822920D-03 0.000000000000D+00  6 1 2 25 1 2 21 2 0.13678677D+00 0.34022672D+00 0.29149983D+06 0.29149983D+06 0.29149983D+06 0.10854766D+01  1  2 15  3  6  4        1 -.634848008709D-04 0.100000000000D+01
-.222400249652D-01 0.000000000000D+00 0.000000000000D+00 0.164980822920D-03 0.000000000000D+00  6 1 2 25 1 2 21 2 0.13678677D+00 0.34022672D+00 0.29149983D+06 0.29149983D+06 0.29149983D+06 0.10854766D+01  1  2  4  3  6  4        1 -.372810220748D-01 0.100000000000D+01
-.126688756275D-01 0.000000000000D+00 0.000000000000D+00 0.164980822920D-03 0.000000000000D+00  6 1 2 25 1 2 21 2 0.13678677D+00 0.34022672D+00 0.29149983D+06 0.29149983D+06 0.29149983D+06 0.10854766D+01  1  2  5  3  6  4        1 -.212368750786D-01 0.100000000000D+01
0.164080715742D-01 0.000000000000D+00 -.000000000000D+00 0.164980822920D-03 0.000000000000D+00  6 1 2 25 1 2 21 2 0.13678677D+00 0.34022672D+00 0.29149983D+06 0.29149983D+06 0.29149983D+06 0.10854766D+01  1  2  6  3  6  4        1 0.275049007147D-01 0.100000000000D+01
  </mgrwgt>
  </event>
  <event>
  5     66 0.17698235E-05 0.17928547E+02 0.75467711E-02 0.93570013E-01
        1 -1    0    0  501    0 0.00000000E+00 0.00000000E+00 0.16726260E+04 0.16726260E+04 0.32000000E+00 0.0000E+00 0.9000E+01
        2 -1    0    0  502    0 -.00000000E+00 -.00000000E+00 -.25446861E+04 0.25446861E+04 0.32000000E+00 0.0000E+00 0.9000E+01
       25  1    1    2    0    0 0.18796826E+02 -.49505021E+03 0.24651254E+03 0.56729310E+03 0.12500000E+03 0.0000E+00 0.9000E+01
        1  1    1    2  501    0 -.31150961E+01 0.50373765E+03 0.12155656E+04 0.13158119E+04 0.32000000E+00 0.0000E+00 0.9000E+01
        2  1    1    2  502    0 -.15681730E+02 -.86874418E+01 -.23341382E+04 0.23342070E+04 0.32000000E+00 0.0000E+00 0.9000E+01
#aMCatNLO 1  0  0  5  5 0.36004162D+00 0.00000000D+00  -5  6  0 0.00000000D+00 0.00000000D+00 0.00000000D+00 0.00000000D+00 0.00000000D+00
  <mgrwgt>
 0.1940533570D-01    6    2    0
 0.206308218741100D+04 0.000000000000000D+00 0.000000000000000D+00 0.206308218741100D+04
 0.206308218741100D+04 -.000000000000000D+00 -.000000000000000D+00 -.206308218741100D+04
 0.631960752693929D+03 0.187977954710853D+02 -.495029565295825D+03 0.371943228616857D+03
 0.160172304111631D+04 -.311497208322622D+01 0.503717594669737D+03 0.152045242681642D+04
 0.189248058101175D+04 -.156828233878449D+02 -.868802937390428D+01 -.189239565543328D+04
 0.000000000000000D+00 0.000000000000000D+00 0.000000000000000D+00 -.000000000000000D+00
 0.206308218741100D+04 0.000000000000000D+00 0.000000000000000D+00 0.206308218741100D+04
 0.206308218741100D+04 -.000000000000000D+00 -.000000000000000D+00 -.206308218741100D+04
 0.631366892799334D+03 0.187893780056552D+02 -.495034228434923D+03 0.370927520244975D+03
 0.159927656283986D+04 -.313630012397982D+01 0.503705779281654D+03 0.151787884101093D+04
 0.180005040100145D+04 -.479973902218667D+02 -.166152031803951D+02 -.179933366324888D+04
 0.954705181813456D+02 0.323443123402056D+02 0.794365233367146D+01 -.894726980070212D+02
0.135488691518D-01 0.000000000000D+00 0.000000000000D+00 0.848530761530D-03 0.000000000000D+00  6 1 2 25 1 2 21 0 0.25732708D+00 0.39149017D+00 0.26654984D+06 0.26654984D+06 0.26654984D+06 0.10883710D+01  1  2  2  4  6  5        2 0.348686502812D-02 0.100000000000D+01
0.136061863429D-01 0.000000000000D+00 -.520312250420D-04 0.848530761530D-03 0.000000000000D+00  6 1 2 25 1 2 21 2 0.25732708D+00 0.39149017D+00 0.26654984D+06 0.26654984D+06 0.26654984D+06 0.10883710D+01  1  2  3  4  6  5        2 0.414784406545D-02 0.100000000000D+01
-.794315150908D-02 0.000000000000D+00 0.000000000000D+00 0.848530761530D-03 0.000000000000D+00  6 1 2 25 1 2 21 2 0.25732708D+00 0.39149017D+00 0.26654984D+06 0.26654984D+06 0.26654984D+06 0.10883710D+01  1  2 15  4  6  5        2 -.242146866268D-02 0.100000000000D+01
-.373871628328D-03 0.000000000000D+00 0.000000000000D+00 0.848530761530D-03 0.000000000000D+00  6 1 2 25 1 2 21 2 0.25732708D+00 0.39149017D+00 0.26654984D+06 0.26654984D+06 0.26654984D+06 0.10883710D+01  1  2  4  4  6  5        2 -.113974715304D-03 0.100000000000D+01
-.907386213534D+00 0.000000000000D+00 0.000000000000D+00 0.848530761530D-03 0.000000000000D+00  6 1 2 25 1 2 21 2 0.25732708D+00 0.39149017D+00 0.26654984D+06 0.26654984D+06 0.26654984D+06 0.10883710D+01  1  2  5  4  6  5        2 -.276616564408D+00 0.100000000000D+01
0.954314461323D+00 0.000000000000D+00 -.000000000000D+00 0.848530761530D-03 0.000000000000D+00  6 1 2 25 1 2 21 2 0.25732708D+00 0.39149017D+00 0.26654984D+06 0.26654984D+06 0.26654984D+06 0.10883710D+01  1  2  6  4  6  5        2 0.290922634397D+00 0.100000000000D+01
  </mgrwgt>
  </event>
  <event>
  5     66 -.17698235E-05 0.55899077E+02 0.75467711E-02 0.93281131E-01
        1 -1    0    0  501    0 0.00000000E+00 0.00000000E+00 0.11072201E+04 0.11072201E+04 0.32000000E+00 0.0000E+00 0.9000E+01
        2 -1    0    0  502    0 -.00000000E+00 -.00000000E+00 -.21640193E+04 0.21640193E+04 0.32000000E+00 0.0000E+00 0.9000E+01
       25  1    1    2    0    0 -.51117661E+03 -.16890663E+03 -.61754804E+03 0.82874698E+03 0.12500000E+03 0.0000E+00 0.9000E+01
        1  1    1    2  501    0 0.46189504E+03 0.14253018E+03 0.94270172E+03 0.10594095E+04 0.32000000E+00 0.0000E+00 0.9000E+01
        2  1    1    2  502    0 0.49281576E+02 0.26376454E+02 -.13819529E+04 0.13830829E+04 0.32000000E+00 0.0000E+00 0.9000E+01
#aMCatNLO 1  0  0  5  1 0.27182016D+02 0.00000000D+00  -5  6  0 0.00000000D+00 0.00000000D+00 0.00000000D+00 0.00000000D+00 0.00000000D+00
  <mgrwgt>
 -.6637341589D-02    5    2    0
 0.154791656105507D+04 0.000000000000000D+00 0.000000000000000D+00 0.154791656105507D+04
 0.154791656105507D+04 -.000000000000000D+00 -.000000000000000D+00 -.154791656105507D+04
 0.664871748669575D+03 -.511176082672138D+03 -.168906992937861D+03 -.369592860347159D+03
 0.144122728181864D+04 0.461891997797929D+03 0.142529241709360D+03 0.135774713238009D+04
 0.989734091621930D+03 0.492840848742096D+02 0.263777512285007D+02 -.988154272032928D+03
 0.000000000000000D+00 0.000000000000000D+00 0.000000000000000D+00 0.000000000000000D+00
 0.154791656105507D+04 0.000000000000000D+00 0.000000000000000D+00 0.154791656105507D+04
 0.154791656105507D+04 -.000000000000000D+00 -.000000000000000D+00 -.154791656105507D+04
 0.665203640839334D+03 -.511143696845899D+03 -.168889659446327D+03 -.370242201663610D+03
 0.143992847740786D+04 0.461962150670859D+03 0.142566788820863D+03 0.135634055536321D+04
 0.143948083922699D+03 -.186757616356964D+02 0.125146003592821D+02 -.142181755405504D+03
 0.846752919940255D+03 0.678573078107354D+02 0.138082702661818D+02 -.843916598294098D+03
0.887155098048D-03 0.000000000000D+00 0.000000000000D+00 0.158600125713D-03 0.000000000000D+00  6 1 2 25 1 2 21 0 0.17034155D+00 0.33292605D+00 0.29809530D+06 0.29809530D+06 0.29809530D+06 0.10847566D+01  1  2  2  4  6  5        2 0.909977792834D-03 0.100000000000D+01
0.355222271343D-03 0.000000000000D+00 -.340690916980D-05 0.158600125713D-03 0.000000000000D+00  6 1 2 25 1 2 21 2 0.17034155D+00 0.33292605D+00 0.29809530D+06 0.29809530D+06 0.29809530D+06 0.10847566D+01  1  2  3  4  6  5        2 0.428741981743D-03 0.100000000000D+01
-.603063010564D-03 0.000000000000D+00 0.000000000000D+00 0.158600125713D-03 0.000000000000D+00  6 1 2 25 1 2 21 2 0.17034155D+00 0.33292605D+00 0.29809530D+06 0.29809530D+06 0.29809530D+06 0.10847566D+01  1  2 15  4  6  5        2 -.727877870066D-03 0.100000000000D+01
0.891741922442D-10 0.000000000000D+00 0.000000000000D+00 0.158600125713D-03 0.000000000000D+00  6 1 2 25 1 2 21 2 0.17034155D+00 0.33292605D+00 0.31800291D+06 0.31800291D+06 0.31800291D+06 0.10826843D+01  1  2 12  4  6  5        2 0.106666260802D-09 0.100000000000D+01
-.600528138441D-02 0.000000000000D+00 0.000000000000D+00 0.158600125713D-03 0.000000000000D+00  6 1 2 25 1 2 21 2 0.17034155D+00 0.33292605D+00 0.29809530D+06 0.29809530D+06 0.29809530D+06 0.10847566D+01  1  2  5  4  6  5        2 -.724818360049D-02 0.100000000000D+01
  </mgrwgt>
  </event>
  <event>
  5     66 0.17698235E-05 0.79835725E+02 0.75467711E-02 0.85782254E-01
        1 -1    0    0  501    0 0.00000000E+00 0.00000000E+00 0.19975433E+04 0.19975434E+04 0.32000000E+00 0.0000E+00 0.9000E+01
        2 -1    0    0  502    0 -.00000000E+00 -.00000000E+00 -.30413587E+04 0.30413588E+04 0.32000000E+00 0.0000E+00 0.9000E+01
       25  1    1    2    0    0 0.41315067E+03 0.10347652E+04 -.49375699E+03 0.12250932E+04 0.12500000E+03 0.0000E+00 0.9000E+01
        1  1    1    2  501    0 0.76664244E+02 0.22290732E+02 0.14752047E+04 0.14773636E+04 0.32000000E+00 0.0000E+00 0.9000E+01
        2  1    1    2  502    0 -.48981491E+03 -.10570559E+04 -.20252631E+04 0.23364453E+04 0.32000000E+00 0.0000E+00 0.9000E+01
#aMCatNLO 1  0  0  4  1 0.90934046D+01 0.00000000D+00  -5  6  0 0.00000000D+00 0.00000000D+00 0.00000000D+00 0.00000000D+00 0.00000000D+00
  <mgrwgt>
 0.2269517872D-02    9    2    0
 0.246480141033250D+04 0.000000000000000D+00 0.000000000000000D+00 0.246480141033250D+04
 0.246480141033250D+04 -.000000000000000D+00 -.000000000000000D+00 -.246480141033250D+04
 0.114776389889394D+04 0.413181169111524D+03 0.103482932464312D+04 -.245247951988404D+03
 0.182240872809790D+04 0.766609961282249D+02 0.222897875490240D+02 0.182065917439015D+04
 0.195943019367316D+04 -.489842165239750D+03 -.105711911219215D+04 -.157541122240175D+04
 0.000000000000000D+00 0.000000000000000D+00 0.000000000000000D+00 0.000000000000000D+00
 0.246480141033250D+04 0.000000000000000D+00 0.000000000000000D+00 0.246480141033250D+04
 0.246480141033250D+04 -.000000000000000D+00 -.000000000000000D+00 -.246480141033250D+04
 0.114775808709056D+04 0.413182474485243D+03 0.103482970419080D+04 -.245216950034900D+03
 0.142593840250953D+04 0.550742140051682D+02 0.979078532254470D+01 0.142484079785284D+04
 0.195938673457498D+04 -.489839936761583D+03 -.105711846424459D+04 -.157535829719304D+04
 0.396519596489926D+03 0.215832482711707D+02 0.124979747312503D+02 0.395734449375103D+03
0.222103008735D-04 0.000000000000D+00 0.000000000000D+00 0.113694161862D-04 0.000000000000D+00  6 1 2 25 1 2 21 0 0.30731436D+00 0.46790135D+00 0.13997100D+07 0.13997100D+07 0.13997100D+07 0.10382789D+01  1  2  2  3  6  4        1 0.143596278882D-05 0.100000000000D+01
0.131908726214D-04 0.000000000000D+00 -.852934034607D-07 0.113694161862D-04 0.000000000000D+00  6 1 2 25 1 2 21 2 0.30731436D+00 0.46790135D+00 0.13997100D+07 0.13997100D+07 0.13997100D+07 0.10382789D+01  1  2  3  3  6  4        1 0.919369917161D-06 0.100000000000D+01
-.138860661045D-04 0.000000000000D+00 0.000000000000D+00 0.113694161862D-04 0.000000000000D+00  6 1 2 25 1 2 21 2 0.30731436D+00 0.46790135D+00 0.13997100D+07 0.13997100D+07 0.13997100D+07 0.10382789D+01  1  2 15  3  6  4        1 -.967823116076D-06 0.100000000000D+01
0.451651558893D-01 0.000000000000D+00 0.000000000000D+00 0.113694161862D-04 0.000000000000D+00  6 1 2 25 1 2 21 2 0.30731436D+00 0.46790135D+00 0.14009430D+07 0.14009430D+07 0.14009430D+07 0.10382541D+01  1  2 12  3  6  4        1 0.314744269752D-02 0.100000000000D+01
0.186403506728D-08 0.000000000000D+00 0.000000000000D+00 0.113694161862D-04 0.000000000000D+00  6 1 2 25 1 2 21 2 0.30731436D+00 0.46790135D+00 0.14009430D+07 0.14009430D+07 0.14009430D+07 0.10382541D+01  1  2 12  3  6  4        1 0.129899774393D-09 0.100000000000D+01
-.252183426934D-01 0.000000000000D+00 0.000000000000D+00 0.113694161862D-04 0.000000000000D+00  6 1 2 25 1 2 21 2 0.30731436D+00 0.46790135D+00 0.13997100D+07 0.13997100D+07 0.13997100D+07 0.10382789D+01  1  2  4  3  6  4        1 -.175765366693D-02 0.100000000000D+01
-.523759438575D-01 0.000000000000D+00 0.000000000000D+00 0.113694161862D-04 0.000000000000D+00  6 1 2 25 1 2 21 2 0.30731436D+00 0.46790135D+00 0.13997100D+07 0.13997100D+07 0.13997100D+07 0.10382789D+01  1  2  5  3  6  4        1 -.365046866479D-02 0.100000000000D+01
0.649752594617D-01 0.000000000000D+00 -.000000000000D+00 0.113694161862D-04 0.000000000000D+00  6 1 2 25 1 2 21 2 0.30731436D+00 0.46790135D+00 0.13997100D+07 0.13997100D+07 0.13997100D+07 0.10382789D+01  1  2  6  3  6  4        1 0.452860857833D-02 0.100000000000D+01
0.288844013524D-05 0.000000000000D+00 0.000000000000D+00 0.113694161862D-04 0.231818914724D-06  6 1 2 25 1 2 21 2 0.30731436D+00 0.46790135D+00 0.14009430D+07 0.14009430D+07 0.14009430D+07 0.10382541D+01  1  2 11  3  6  4        1 0.201287909493D-06 0.100000000000D+01
  </mgrwgt>
  </event>
  <event>
  5     66 0.17698235E-05 0.33353286E+02 0.75467711E-02 0.88824181E-01
        1 -1    0    0  501    0 0.00000000E+00 0.00000000E+00 0.13406044E+04 0.13406044E+04 0.32000000E+00 0.0000E+00 0.9000E+01
        2 -1    0    0  502    0 0.00000000E+00 0.00000000E+00 -.10593925E+04 0.10593925E+04 0.32000000E+00 0.0000E+00 0.9000E+01
       25  1    1    2    0    0 0.15509822E+03 -.61374891E+03 0.77365119E+03 0.10074246E+04 0.12500000E+03 0.0000E+00 0.9000E+01
        1  1    1    2  501    0 0.11826580E+02 0.31212328E+02 0.35179144E+03 0.35337147E+03 0.32000000E+00 0.0000E+00 0.9000E+01
        2  1    1    2  502    0 -.16692480E+03 0.58253659E+03 -.84423072E+03 0.10392008E+04 0.32000000E+00 0.0000E+00 0.9000E+01
#aMCatNLO 1  0  0  2  1 0.40985997D+02 0.00000000D+00  -5  6  0 0.00000000D+00 0.00000000D+00 0.00000000D+00 0.00000000D+00 0.00000000D+00
  <mgrwgt>
 0.2610442030D-02    7    2    0
 0.119173246406440D+04 0.000000000000000D+00 0.000000000000000D+00 0.119173246406440D+04
 0.119173246406440D+04 0.000000000000000D+00 0.000000000000000D+00 -.119173246406440D+04
 0.923331415746121D+03 0.155128036845388D+03 -.613805918428063D+03 0.660373750228547D+03
 0.314085567111981D+03 0.118178950313739D+02 0.311894060243162D+02 0.312309624854779D+03
 0.114604794527070D+04 -.166945931876761D+03 0.582616512403747D+03 -.972683375083325D+03
 0.000000000000000D+00 0.000000000000000D+00 -.000000000000000D+00 -.000000000000000D+00
 0.133978875795145D+04 0.000000000000000D+00 0.000000000000000D+00 0.133978875795145D+04
 0.145504422132904D+04 0.000000000000000D+00 0.000000000000000D+00 -.145504422132904D+04
 0.893324187973784D+03 0.189481712685126D+02 -.588175638422474D+03 0.660373750228547D+03
 0.316864933235803D+03 -.354793219794245D+02 0.400911692206351D+02 0.312309624854779D+03
 0.120117369076881D+04 -.342898008990590D+03 0.615732281646790D+03 -.972683375083325D+03
 0.383470167302097D+03 0.359429159701502D+03 -.676478124449516D+02 -.115255463377591D+03
0.538807230485D-03 0.000000000000D+00 0.000000000000D+00 0.986759521055D-05 0.000000000000D+00  6 1 2 25 1 2 21 0 0.20624683D+00 0.16298346D+00 0.41264187D+06 0.41264187D+06 0.41264187D+06 0.10744548D+01  1  2  2  2  6  2        2 0.152882053176D-02 0.100000000000D+01
0.205025950037D-03 0.000000000000D+00 -.206916163626D-05 0.986759521055D-05 0.000000000000D+00  6 1 2 25 1 2 21 2 0.20624683D+00 0.16298346D+00 0.41264187D+06 0.41264187D+06 0.41264187D+06 0.10744548D+01  1  2  3  2  6  2        2 0.671596211040D-03 0.100000000000D+01
-.316886857453D-03 0.000000000000D+00 0.000000000000D+00 0.986759521055D-05 0.000000000000D+00  6 1 2 25 1 2 21 2 0.20624683D+00 0.16298346D+00 0.41264187D+06 0.41264187D+06 0.41264187D+06 0.10744548D+01  1  2 15  2  6  2        2 -.103801500618D-02 0.100000000000D+01
-.181553191038D-04 0.000000000000D+00 0.000000000000D+00 0.986759521055D-05 0.000000000000D+00  6 1 2 25 1 2 21 2 0.20624683D+00 0.16298346D+00 0.41264187D+06 0.41264187D+06 0.41264187D+06 0.10744548D+01  1  2  4  2  6  2        2 -.594707329394D-04 0.100000000000D+01
-.993525883687D-03 0.000000000000D+00 -.498035446381D-03 0.986759521055D-05 0.000000000000D+00  6 1 2 25 1 2 21 2 0.20624683D+00 0.21375982D+00 0.41264187D+06 0.41264187D+06 0.41264187D+06 0.10744548D+01  1  2  5  2  6  2        2 -.209180862973D-02 0.100000000000D+01
0.110546179393D-02 0.000000000000D+00 0.480264760380D-03 0.986759521055D-05 0.000000000000D+00  6 1 2 25 1 2 21 2 0.20624683D+00 0.16298346D+00 0.41264187D+06 0.41264187D+06 0.41264187D+06 0.10744548D+01  1  2  6  2  6  2        2 0.362112187319D-02 0.100000000000D+01
-.261694025065D-04 0.000000000000D+00 -.178922487133D-04 0.986759521055D-05 0.000000000000D+00  6 1 21 25 1 2 -2 2 0.20624683D+00 0.21375982D+00 0.41264187D+06 0.41264187D+06 0.41264187D+06 0.10744548D+01  1  2  5  6  6  2        2 -.218022172594D-04 0.100000000000D+01
  </mgrwgt>
  </event>
  <event>
  6     66 0.17698235E-05 0.44289324E+02 0.75467711E-02 0.93552559E-01
        1 -1    0    0  501    0 0.00000000E+00 0.00000000E+00 0.81638586E+03 0.81638592E+03 0.32000000E+00 0.0000E+00 0.9000E+01
        2 -1    0    0  502    0 -.00000000E+00 -.00000000E+00 -.16595288E+04 0.16595288E+04 0.32000000E+00 0.0000E+00 0.9000E+01
       25  1    1    2    0    0 0.49715882E+03 0.24501097E+02 -.59230907E+02 0.51662414E+03 0.12500000E+03 0.0000E+00 0.9000E+01
        1  1    1    2  501    0 -.53699137E+03 0.56440884E+01 0.46437191E+03 0.70995279E+03 0.32000000E+00 0.0000E+00 0.9000E+01
        2  1    1    2  503    0 0.17873145E+02 -.16935618E+02 -.48677334E+03 0.48739579E+03 0.32000000E+00 0.0000E+00 0.9000E+01
       21  1    1    2  502  503 0.21959400E+02 -.13209568E+02 -.76151058E+03 0.76194202E+03 0.75000000E+00 0.0000E+00 0.9000E+01
#aMCatNLO 2  0  0  5  2 0.56505619D+01 0.00000000D+00  -5  6  0 0.00000000D+00 0.00000000D+00 0.00000000D+00 0.00000000D+00 0.00000000D+00
  <mgrwgt>
 0.3284597780D-01    3    2    0
 0.116396560817134D+04 0.000000000000000D+00 0.000000000000000D+00 0.116396560817134D+04
 0.116396560817134D+04 -.000000000000000D+00 -.000000000000000D+00 -.116396560817134D+04
 0.528013515059424D+03 0.497145609140808D+03 0.245031033426932D+02 0.124173722357030D+03
 0.923278509683190D+03 -.536981422296774D+03 0.564502475780328D+01 0.751040805979562D+03
 0.876639191600059D+03 0.398358131559653D+02 -.301481281004959D+02 -.875214528336592D+03
 0.000000000000000D+00 0.000000000000000D+00 0.000000000000000D+00 -.000000000000000D+00
 0.116396560817134D+04 0.000000000000000D+00 0.000000000000000D+00 0.116396560817134D+04
 0.116396560817134D+04 -.000000000000000D+00 -.000000000000000D+00 -.116396560817134D+04
 0.528010162408761D+03 0.497146396133330D+03 0.245025077391522D+02 0.124156431702352D+03
 0.923253109329318D+03 -.536980046185038D+03 0.564398330315196D+01 0.751010572054643D+03
 0.344355865043429D+03 0.179641735798691D+02 -.169863615035749D+02 -.343467194620200D+03
 0.532312079561165D+03 0.218694764718379D+02 -.131601295387287D+02 -.531699809136795D+03
-.197506706682D-01 0.000000000000D+00 0.000000000000D+00 0.265387918540D-04 0.000000000000D+00  6 1 2 25 1 2 21 2 0.12559783D+00 0.25531213D+00 0.30275439D+06 0.30275439D+06 0.30275439D+06 0.10842583D+01  1  2 13  4  6  5        2 -.760619114137D-01 0.100000000000D+01
-.611911103986D-08 0.000000000000D+00 0.000000000000D+00 0.265387918540D-04 0.000000000000D+00  6 1 2 25 1 2 21 2 0.12559783D+00 0.25531213D+00 0.30275439D+06 0.30275439D+06 0.30275439D+06 0.10842583D+01  1  2 13  4  6  5        2 -.235653406238D-07 0.100000000000D+01
0.282796511211D-01 0.000000000000D+00 0.000000000000D+00 0.265387918540D-04 0.168598039421D-05  6 1 2 25 1 2 21 2 0.12559783D+00 0.25531213D+00 0.30275439D+06 0.30275439D+06 0.30275439D+06 0.10842583D+01  1  2  1  4  6  5        2 0.108907912775D+00 0.100000000000D+01
  </mgrwgt>
  </event>
  <event>
  5     66 0.17698235E-05 0.63342168E+02 0.75467711E-02 0.89978000E-01
        1 -1    0    0  501    0 0.00000000E+00 0.00000000E+00 0.22074649E+04 0.22074650E+04 0.32000000E+00 0.0000E+00 0.9000E+01
        2 -1    0    0  502    0 0.00000000E+00 0.00000000E+00 -.77859274E+03 0.77859280E+03 0.32000000E+00 0.0000E+00 0.9000E+01
       25  1    1    2    0    0 0.40482252E+03 0.38746557E+03 0.44177926E+03 0.72443410E+03 0.12500000E+03 0.0000E+00 0.9000E+01
        1  1    1    2  501    0 -.45810398E+03 -.42170836E+03 0.15628886E+04 0.16823549E+04 0.32000000E+00 0.0000E+00 0.9000E+01
        2  1    1    2  502    0 0.53281451E+02 0.34242792E+02 -.57579569E+03 0.57926873E+03 0.32000000E+00 0.0000E+00 0.9000E+01
#aMCatNLO 1  0  0  5  1 0.89671290D+02 0.00000000D+00  -5  6  0 0.00000000D+00 0.00000000D+00 0.00000000D+00 0.00000000D+00 0.00000000D+00
  <mgrwgt>
 0.1609669048D-01    4    2    0
 0.131099821096848D+04 0.000000000000000D+00 0.000000000000000D+00 0.131099821096848D+04
 0.131099821096848D+04 -.000000000000000D+00 -.000000000000000D+00 -.131099821096848D+04
 0.584257136078745D+03 0.404797212395376D+03 0.387443720110158D+03 0.108434227267371D+03
 0.106419561111989D+04 -.458083662617438D+03 -.421689661917444D+03 0.863046630143348D+03
 0.973543674738325D+03 0.532864502220615D+02 0.342459418072866D+02 -.971480857410719D+03
 0.000000000000000D+00 0.000000000000000D+00 0.000000000000000D+00 -.000000000000000D+00
 0.131099821096848D+04 0.000000000000000D+00 0.000000000000000D+00 0.131099821096848D+04
 0.131099821096848D+04 -.000000000000000D+00 -.000000000000000D+00 -.131099821096848D+04
 0.580878102873437D+03 0.406781872874713D+03 0.388719214480666D+03 0.722513016624440D+02
 0.101011742509577D+04 -.454550332779733D+03 -.419418874362564D+03 0.798629460563773D+03
 0.191415442502095D+03 0.114375731279610D+02 0.185339068339286D+03 -.464594801557320D+02
 0.839585451465662D+03 0.363308867770589D+02 -.154639408457387D+03 -.824421282070485D+03
0.244162541594D-01 0.000000000000D+00 0.000000000000D+00 0.181301281193D-04 0.000000000000D+00  6 1 2 25 1 2 21 0 0.33961000D+00 0.11978351D+00 0.39694696D+06 0.39694696D+06 0.39694696D+06 0.10756676D+01  1  2  2  4  6  5        2 0.277003822687D-01 0.100000000000D+01
0.107768706647D-01 0.000000000000D+00 -.937648449194D-04 0.181301281193D-04 0.000000000000D+00  6 1 2 25 1 2 21 2 0.33961000D+00 0.11978351D+00 0.39694696D+06 0.39694696D+06 0.39694696D+06 0.10756676D+01  1  2  3  4  6  5        2 0.141467134386D-01 0.100000000000D+01
-.153291821842D-01 0.000000000000D+00 0.000000000000D+00 0.181301281193D-04 0.000000000000D+00  6 1 2 25 1 2 21 2 0.33961000D+00 0.11978351D+00 0.39694696D+06 0.39694696D+06 0.39694696D+06 0.10756676D+01  1  2 15  4  6  5        2 -.201224969988D-01 0.100000000000D+01
-.428730244570D-02 0.000000000000D+00 0.000000000000D+00 0.181301281193D-04 0.000000000000D+00  6 1 2 25 1 2 21 2 0.33961000D+00 0.11978351D+00 0.39694696D+06 0.39694696D+06 0.39694696D+06 0.10756676D+01  1  2  5  4  6  5        2 -.562790823149D-02 0.100000000000D+01
  </mgrwgt>
  </event>
  <event>
  5     66 0.17698235E-05 0.89518850E+02 0.75467711E-02 0.88264194E-01
        1 -1    0    0  501    0 0.00000000E+00 0.00000000E+00 0.20225905E+04 0.20225906E+04 0.32000000E+00 0.0000E+00 0.9000E+01
        2 -1    0    0  502    0 -.00000000E+00 -.00000000E+00 -.21993551E+04 0.21993551E+04 0.32000000E+00 0.0000E+00 0.9000E+01
       25  1    1    2    0    0 0.82914396E+02 -.47476393E+03 -.32899306E+03 0.59677217E+03 0.12500000E+03 0.0000E+00 0.9000E+01
        1  1    1    2  501    0 -.27421151E+02 0.40452522E+03 0.18657592E+04 0.19093062E+04 0.32000000E+00 0.0000E+00 0.9000E+01
        2  1    1    2  502    0 -.55493245E+02 0.70238712E+02 -.17135308E+04 0.17158673E+04 0.32000000E+00 0.0000E+00 0.9000E+01
#aMCatNLO 1  0  0  4  4 0.36337647D-01 0.00000000D+00  -5  6  0 0.00000000D+00 0.00000000D+00 0.00000000D+00 0.00000000D+00 0.00000000D+00
  <mgrwgt>
 0.2075506946D-01    4    2    0
 0.210912184821316D+04 0.000000000000000D+00 0.000000000000000D+00 0.210912184821316D+04
 0.210912184821316D+04 -.000000000000000D+00 -.000000000000000D+00 -.210912184821316D+04
 0.583492766128452D+03 0.829164317771018D+02 -.474765017807380D+03 -.304239792486032D+03
 0.198915709874635D+04 -.274210277871606D+02 0.404523401287780D+03 0.194739694683407D+04
 0.164559383155152D+04 -.554954039899413D+02 0.702416165196002D+02 -.164315715434804D+04
 0.000000000000000D+00 0.000000000000000D+00 -.000000000000000D+00 0.000000000000000D+00
 0.210912184821316D+04 0.000000000000000D+00 0.000000000000000D+00 0.210912184821316D+04
 0.210912184821316D+04 -.000000000000000D+00 -.000000000000000D+00 -.210912184821316D+04
 0.525282932283429D+03 0.816430717846535D+02 -.455980021154185D+03 -.213807829805347D+03
 0.183573693723213D+04 0.180827467111130D+03 0.737332483865008D+03 0.167139831820366D+04
 0.140121507382198D+04 -.589944746949494D+02 0.121860979364893D+03 -.139465882450498D+04
 0.456008753088790D+03 -.203476064200834D+03 -.403213442075717D+03 -.629316638933319D+02
0.159462701394D+00 0.000000000000D+00 0.000000000000D+00 0.729502082247D-03 0.000000000000D+00  6 1 2 25 1 2 21 0 0.31116778D+00 0.33836233D+00 0.24644677D+06 0.24644677D+06 0.24644677D+06 0.10909271D+01  1  2  2  3  6  4        1 0.380842934422D-01 0.100000000000D+01
0.463497782140D-01 0.000000000000D+00 -.612378760848D-03 0.729502082247D-03 0.000000000000D+00  6 1 2 25 1 2 21 2 0.31116778D+00 0.33836233D+00 0.24644677D+06 0.24644677D+06 0.24644677D+06 0.10909271D+01  1  2  3  3  6  4        1 0.131742504163D-01 0.100000000000D+01
-.107063497703D+00 0.000000000000D+00 0.000000000000D+00 0.729502082247D-03 0.000000000000D+00  6 1 2 25 1 2 21 2 0.31116778D+00 0.33836233D+00 0.24644677D+06 0.24644677D+06 0.24644677D+06 0.10909271D+01  1  2 15  3  6  4        1 -.304312422525D-01 0.100000000000D+01
-.254127867875D-03 0.000000000000D+00 0.000000000000D+00 0.729502082247D-03 0.000000000000D+00  6 1 2 25 1 2 21 2 0.31116778D+00 0.33836233D+00 0.24644677D+06 0.24644677D+06 0.24644677D+06 0.10909271D+01  1  2  4  3  6  4        1 -.722321507924D-04 0.100000000000D+01
  </mgrwgt>
  </event>
  <event>
  5     66 0.17698235E-05 0.35184946E+02 0.75467711E-02 0.95065357E-01
        1 -1    0    0  501    0 0.00000000E+00 0.00000000E+00 0.38297007E+03 0.38297021E+03 0.32000000E+00 0.0000E+00 0.9000E+01
        2 -1    0    0  502    0 0.00000000E+00 0.00000000E+00 -.10588896E+04 0.10588897E+04 0.32000000E+00 0.0000E+00 0.9000E+01
       25  1    1    2    0    0 0.36918994E+03 -.28105422E+03 -.11283434E+03 0.49360843E+03 0.12500000E+03 0.0000E+00 0.9000E+01
        1  1    1    2  501    0 -.32988962E+02 -.12331734E+02 0.12404621E+03 0.12894925E+03 0.32000000E+00 0.0000E+00 0.9000E+01
        2  1    1    2  502    0 -.33620098E+03 0.29338596E+03 -.68713140E+03 0.81930220E+03 0.32000000E+00 0.0000E+00 0.9000E+01
#aMCatNLO 1  0  0  2  1 0.38532101D+03 0.00000000D+00  -5  6  0 0.00000000D+00 0.00000000D+00 0.00000000D+00 0.00000000D+00 0.00000000D+00
  <mgrwgt>
 0.4654950624D-01    6    2    0
 0.636807006078212D+03 0.000000000000000D+00 0.000000000000000D+00 0.636807006078212D+03
 0.636807006078212D+03 0.000000000000000D+00 0.000000000000000D+00 -.636807006078212D+03
 0.499066144805535D+03 0.369250908510541D+03 -.281133995725531D+03 0.134385489925793D+03
 0.211614046648742D+03 -.329575249826483D+02 -.123199822855214D+02 0.208668455504321D+03
 0.562933820702148D+03 -.336293383527893D+03 0.293453978011053D+03 -.343053945430114D+03
 0.000000000000000D+00 0.000000000000000D+00 0.000000000000000D+00 -.000000000000000D+00
 0.721491985891481D+03 0.000000000000000D+00 0.000000000000000D+00 0.721491985891481D+03
 0.117802888374151D+04 0.000000000000000D+00 0.000000000000000D+00 -.117802888374151D+04
 0.417923364449028D+03 0.244277946954189D+03 -.285138147713782D+03 0.134385489925793D+03
 0.228895329881352D+03 -.929928479854829D+02 -.142435228255978D+02 0.208668455504321D+03
 0.675053133275338D+03 -.505013848097292D+03 0.288048149620249D+03 -.343053945430114D+03
 0.577649042027277D+03 0.353728749128586D+03 0.113335209191299D+02 -.456536897850034D+03
0.109736611166D-02 0.000000000000D+00 0.000000000000D+00 0.183715514409D-05 0.000000000000D+00  6 1 2 25 1 2 21 0 0.58918487D-01 0.16290611D+00 0.23143083D+06 0.23143083D+06 0.23143083D+06 0.10929897D+01  1  2  2  2  6  2        2 0.237725297220D-01 0.100000000000D+01
0.371660231245D-03 0.000000000000D+00 -.421417481191D-05 0.183715514409D-05 0.000000000000D+00  6 1 2 25 1 2 21 2 0.58918487D-01 0.16290611D+00 0.23143083D+06 0.23143083D+06 0.23143083D+06 0.10929897D+01  1  2  3  2  6  2        2 0.961838358622D-02 0.100000000000D+01
-.671087617550D-03 0.000000000000D+00 0.000000000000D+00 0.183715514409D-05 0.000000000000D+00  6 1 2 25 1 2 21 2 0.58918487D-01 0.16290611D+00 0.23143083D+06 0.23143083D+06 0.23143083D+06 0.10929897D+01  1  2 15  2  6  2        2 -.173674167503D-01 0.100000000000D+01
-.145567096641D-02 0.000000000000D+00 -.589407420269D-03 0.183715514409D-05 0.000000000000D+00  6 1 2 25 1 2 21 2 0.58918487D-01 0.31534545D+00 0.23143083D+06 0.23143083D+06 0.23143083D+06 0.10929897D+01  1  2  5  2  6  2        2 -.106112326881D-01 0.100000000000D+01
0.159332376358D-02 0.000000000000D+00 0.480688743556D-03 0.183715514409D-05 0.000000000000D+00  6 1 2 25 1 2 21 2 0.58918487D-01 0.16290611D+00 0.23143083D+06 0.23143083D+06 0.23143083D+06 0.10929897D+01  1  2  6  2  6  2        2 0.412344336218D-01 0.100000000000D+01
-.699248703641D-04 0.000000000000D+00 -.422156146579D-04 0.183715514409D-05 0.000000000000D+00  6 1 21 25 1 2 -2 2 0.58918487D-01 0.31534545D+00 0.23143083D+06 0.23143083D+06 0.23143083D+06 0.10929897D+01  1  2  5  6  6  2        2 -.971912563412D-04 0.100000000000D+01
  </mgrwgt>
  </event>
  <event>
  5     66 0.17698235E-05 0.46707862E+02 0.75467711E-02 0.82414320E-01
        1 -1    0    0  501    0 0.00000000E+00 0.00000000E+00 0.25197533E+04 0.25197533E+04 0.32000000E+00 0.0000E+00 0.9000E+01
        2 -1    0    0  502    0 0.00000000E+00 0.00000000E+00 -.20186622E+04 0.20186622E+04 0.32000000E+00 0.0000E+00 0.9000E+01
       25  1    1    2    0    0 0.39564652E+03 0.45792198E+03 0.46933973E+03 0.77597261E+03 0.12500000E+03 0.0000E+00 0.9000E+01
        1  1    1    2  501    0 -.43823003E+03 -.47710513E+03 0.18414822E+04 0.19521095E+04 0.32000000E+00 0.0000E+00 0.9000E+01
        2  1    1    2  502    0 0.42583506E+02 0.19183145E+02 -.18097308E+04 0.18103334E+04 0.32000000E+00 0.0000E+00 0.9000E+01
#aMCatNLO 1  0  0  5  2 0.71621238D+02 0.00000000D+00  -5  6  0 0.00000000D+00 0.00000000D+00 0.00000000D+00 0.00000000D+00 0.00000000D+00
  <mgrwgt>
 0.6321716865D-01    3    2    0
 0.225533386521963D+04 0.000000000000000D+00 0.000000000000000D+00 0.225533386521963D+04
 0.225533386521963D+04 -.000000000000000D+00 -.000000000000000D+00 -.225533386521963D+04
 0.728635192526853D+03 0.395628075260639D+03 0.457903645431947D+03 0.386117755813353D+03
 0.175948420396078D+04 -.438214285583678D+03 -.477087988974188D+03 0.163589118057236D+04
 0.202254833395163D+04 0.425862103230440D+02 0.191843435422431D+02 -.202200893638572D+04
 0.000000000000000D+00 0.000000000000000D+00 0.000000000000000D+00 0.000000000000000D+00
 0.225533386521963D+04 0.000000000000000D+00 0.000000000000000D+00 0.225533386521963D+04
 0.225533386521963D+04 -.000000000000000D+00 -.000000000000000D+00 -.225533386521963D+04
 0.642054884711379D+03 0.400459001599068D+03 0.460079893325354D+03 0.156743595651463D+03
 0.129289595846151D+04 -.427456329451642D+03 -.472241717735592D+03 0.112509946486876D+04
 0.140697665073566D+04 -.544882975425064D+03 0.950188297980421D+03 -.883078726495165D+03
 0.116874023653072D+04 0.571880303277643D+03 -.938026473570181D+03 -.398764334025055D+03
0.447445065985D+00 0.000000000000D+00 0.000000000000D+00 0.283418317197D-03 0.000000000000D+00  6 1 2 25 1 2 21 0 0.38765436D+00 0.31056342D+00 0.43061517D+06 0.43061517D+06 0.43061517D+06 0.10731262D+01  1  2  2  4  6  5        2 0.583361223988D-01 0.100000000000D+01
0.289141525036D+00 0.000000000000D+00 -.171830686838D-02 0.283418317197D-03 0.000000000000D+00  6 1 2 25 1 2 21 2 0.38765436D+00 0.31056342D+00 0.43061517D+06 0.43061517D+06 0.43061517D+06 0.10731262D+01  1  2  3  4  6  5        2 0.434120140442D-01 0.100000000000D+01
-.256631788112D+00 0.000000000000D+00 0.000000000000D+00 0.283418317197D-03 0.000000000000D+00  6 1 2 25 1 2 21 2 0.38765436D+00 0.31056342D+00 0.43061517D+06 0.43061517D+06 0.43061517D+06 0.10731262D+01  1  2 15  4  6  5        2 -.385309677962D-01 0.100000000000D+01
  </mgrwgt>
  </event>
  <event>
  6     66 -.17698235E-05 0.15577150E+03 0.75467711E-02 0.93941483E-01
        1 -1    0    0  501    0 0.00000000E+00 0.00000000E+00 0.42267790E+03 0.42267802E+03 0.32000000E+00 0.0000E+00 0.9000E+01
        2 -1    0    0  502    0 -.00000000E+00 -.00000000E+00 -.22454874E+04 0.22454874E+04 0.32000000E+00 0.0000E+00 0.9000E+01
       25  1    1    2    0    0 -.16515244E+03 -.43653662E+03 -.43105543E+03 0.64751319E+03 0.12500000E+03 0.0000E+00 0.9000E+01
        1  1    1    2  503    0 0.11568168E+03 0.81698834E+01 0.20110079E+03 0.23214355E+03 0.32000000E+00 0.0000E+00 0.9000E+01
        2  1    1    2  502    0 0.42452860E+01 0.41636223E+03 -.16573328E+04 0.17088381E+04 0.32000000E+00 0.0000E+00 0.9000E+01
       21  1    1    2  501  503 0.45225481E+02 0.12004504E+02 0.64477883E+02 0.79670648E+02 0.75000000E+00 0.0000E+00 0.9000E+01
#aMCatNLO 2  0  0  4  1 0.86269329D+01 0.00000000D+00  -5  6  0 0.00000000D+00 0.00000000D+00 0.00000000D+00 0.00000000D+00 0.00000000D+00
  <mgrwgt>
 -.2098115948D-02    3    2    0
 0.974226918112316D+03 0.000000000000000D+00 0.000000000000000D+00 0.974226918112316D+03
 0.974226918112316D+03 -.000000000000000D+00 -.000000000000000D+00 -.974226918112316D+03
 0.483626943210553D+03 -.165128388125391D+03 -.436755919512436D+03 0.157131284326371D+02
 0.675030604759743D+03 0.160878884396978D+03 0.201708430911272D+02 0.655268982179442D+03
 0.789796288254336D+03 0.424950372841289D+01 0.416585076421309D+03 -.670982110612079D+03
 0.000000000000000D+00 0.000000000000000D+00 0.000000000000000D+00 0.000000000000000D+00
 0.974226918112316D+03 0.000000000000000D+00 0.000000000000000D+00 0.974226918112316D+03
 0.974226918112316D+03 -.000000000000000D+00 -.000000000000000D+00 -.974226918112316D+03
 0.483621350394977D+03 -.165111020035494D+03 -.436753741917673D+03 0.157838696652826D+02
 0.505889804609101D+03 0.115645741808715D+03 0.816050782444291D+01 0.492426606633916D+03
 0.789700178896463D+03 0.427786546015647D+01 0.416588632388538D+03 -.670866591641630D+03
 0.169242502324090D+03 0.451874127666222D+02 0.120046017046923D+02 0.162656115342431D+03
-.174677958987D-02 0.000000000000D+00 0.000000000000D+00 0.217042016317D-05 0.000000000000D+00  6 1 2 25 1 2 21 2 0.65027380D-01 0.34545961D+00 0.28231286D+06 0.28231286D+06 0.28231286D+06 0.10865098D+01  1  2 13  3  6  4        1 -.847610529311D-02 0.100000000000D+01
-.137507588413D-07 0.000000000000D+00 0.000000000000D+00 0.217042016317D-05 0.000000000000D+00  6 1 2 25 1 2 21 2 0.65027380D-01 0.34545961D+00 0.28231286D+06 0.28231286D+06 0.28231286D+06 0.10865098D+01  1  2 13  3  6  4        1 -.667244341959D-07 0.100000000000D+01
0.131440771213D-02 0.000000000000D+00 0.000000000000D+00 0.217042016317D-05 0.794540615992D-07  6 1 2 25 1 2 21 2 0.65027380D-01 0.34545961D+00 0.28231286D+06 0.28231286D+06 0.28231286D+06 0.10865098D+01  1  2  1  3  6  4        1 0.637805606998D-02 0.100000000000D+01
  </mgrwgt>
  </event>
  <event>
  5     66 0.17698235E-05 0.48958027E+02 0.75467711E-02 0.92382504E-01
        1 -1    0    0  501    0 0.00000000E+00 0.00000000E+00 0.17728805E+04 0.17728806E+04 0.32000000E+00 0.0000E+00 0.9000E+01
        2 -1    0    0  502    0 0.00000000E+00 0.00000000E+00 -.17594143E+04 0.17594143E+04 0.32000000E+00 0.0000E+00 0.9000E+01
       25  1    1    2    0    0 -.50931242E+03 0.14546235E+03 0.84679334E+03 0.10065994E+04 0.12500000E+03 0.0000E+00 0.9000E+01
        1  1    1    2  501    0 -.48848214E+02 -.34308706E+01 0.79603273E+03 0.79753754E+03 0.32000000E+00 0.0000E+00 0.9000E+01
        2  1    1    2  502    0 0.55816063E+03 -.14203148E+03 -.16293598E+04 0.17281579E+04 0.32000000E+00 0.0000E+00 0.9000E+01
#aMCatNLO 1  0  0  1  4 0.65276492D+02 0.00000000D+00  -5  6  0 0.00000000D+00 0.00000000D+00 0.00000000D+00 0.00000000D+00 0.00000000D+00
  <mgrwgt>
 0.1813113666D-01    7    2    0
 0.176613461181037D+04 0.000000000000000D+00 0.000000000000000D+00 0.176613461181037D+04
 0.176613461181037D+04 0.000000000000000D+00 0.000000000000000D+00 -.176613461181037D+04
 0.100354357478823D+04 -.509371451674799D+03 0.145474206762655D+03 0.843120801477595D+03
 0.794337791502959D+03 -.488377167726338D+02 -.343013335517347D+01 0.792827622258080D+03
 0.173438785732955D+04 0.558209168447432D+03 -.142044073407481D+03 -.163594842373567D+04
 0.000000000000000D+00 0.000000000000000D+00 0.000000000000000D+00 0.000000000000000D+00
 0.206731364481653D+04 0.000000000000000D+00 0.000000000000000D+00 0.206731364481653D+04
 0.176860984635066D+04 0.000000000000000D+00 0.000000000000000D+00 -.176860984635066D+04
 0.100895027261753D+04 -.522073060662167D+03 0.137632430995039D+03 0.843120801477595D+03
 0.795068433082852D+03 -.588690599306772D+02 -.962332854576840D+01 0.792827622258080D+03
 0.172863920593618D+04 0.536352696326051D+03 -.155537919235792D+03 -.163594842373567D+04
 0.303265579530629D+03 0.445894242667932D+02 0.275288167865212D+02 0.298703798465869D+03
0.962856390681D-03 0.000000000000D+00 0.000000000000D+00 0.106555300300D-03 0.000000000000D+00  6 1 2 25 1 2 21 0 0.27275086D+00 0.27067913D+00 0.34178176D+06 0.34178176D+06 0.34178176D+06 0.10803870D+01  1  2  2  1  6  1        1 0.569535291616D-03 0.100000000000D+01
0.330474420656D-03 0.000000000000D+00 -.369762206613D-05 0.106555300300D-03 0.000000000000D+00  6 1 2 25 1 2 21 2 0.27275086D+00 0.27067913D+00 0.34178176D+06 0.34178176D+06 0.34178176D+06 0.10803870D+01  1  2  3  1  6  1        1 0.228168494577D-03 0.100000000000D+01
-.588200403585D-03 0.000000000000D+00 0.000000000000D+00 0.106555300300D-03 0.000000000000D+00  6 1 2 25 1 2 21 2 0.27275086D+00 0.27067913D+00 0.34178176D+06 0.34178176D+06 0.34178176D+06 0.10803870D+01  1  2 15  1  6  1        1 -.406109496551D-03 0.100000000000D+01
-.194061302193D-02 0.000000000000D+00 0.000000000000D+00 0.106555300300D-03 0.000000000000D+00  6 1 2 25 1 2 21 2 0.27275086D+00 0.27067913D+00 0.34178176D+06 0.34178176D+06 0.34178176D+06 0.10803870D+01  1  2  4  1  6  1        1 -.133985181332D-02 0.100000000000D+01
-.777146486780D-01 0.000000000000D+00 -.134642682353D-02 0.106555300300D-03 0.000000000000D+00  6 1 2 25 1 2 21 2 0.31940457D+00 0.27067913D+00 0.34178176D+06 0.34178176D+06 0.34178176D+06 0.10803870D+01  1  2  5  1  6  1        1 -.336954642408D-01 0.100000000000D+01
0.769821925767D-01 0.000000000000D+00 0.132981465397D-02 0.106555300300D-03 0.000000000000D+00  6 1 2 25 1 2 21 2 0.27275086D+00 0.27067913D+00 0.34178176D+06 0.34178176D+06 0.34178176D+06 0.10803870D+01  1  2  6  1  6  1        1 0.531505916694D-01 0.100000000000D+01
-.183735054849D-02 0.000000000000D+00 -.320100698212D-04 0.106555300300D-03 0.000000000000D+00  6 21 2 25 1 2 -1 2 0.31940457D+00 0.27067913D+00 0.34178176D+06 0.34178176D+06 0.34178176D+06 0.10803870D+01  1  2  5  5  6  1        1 -.375733243416D-03 0.100000000000D+01
  </mgrwgt>
  </event>
  <event>
  5     66 0.17698235E-05 0.17534703E+03 0.75467711E-02 0.90702002E-01
        1 -1    0    0  501    0 0.00000000E+00 0.00000000E+00 0.13410881E+04 0.13410881E+04 0.32000000E+00 0.0000E+00 0.9000E+01
        2 -1    0    0  502    0 0.00000000E+00 0.00000000E+00 -.12850161E+04 0.12850161E+04 0.32000000E+00 0.0000E+00 0.9000E+01
       25  1    1    2    0    0 -.27385570E+03 0.57851131E+03 0.85247192E+02 0.65769625E+03 0.12500000E+03 0.0000E+00 0.9000E+01
        1  1    1    2  501    0 -.94497884E+02 -.14772741E+03 0.87984851E+03 0.89715481E+03 0.32000000E+00 0.0000E+00 0.9000E+01
        2  1    1    2  502    0 0.36835358E+03 -.43078389E+03 -.90902374E+03 0.10712532E+04 0.32000000E+00 0.0000E+00 0.9000E+01
#aMCatNLO 1  0  0  2  5 0.43463499D+02 0.00000000D+00  -5  6  0 0.00000000D+00 0.00000000D+00 0.00000000D+00 0.00000000D+00 0.00000000D+00
  <mgrwgt>
 0.4283608340D-02   11    2    0
 0.131275278064515D+04 0.000000000000000D+00 0.000000000000000D+00 0.131275278064515D+04
 0.131275278064515D+04 0.000000000000000D+00 0.000000000000000D+00 -.131275278064515D+04
 0.656088574799679D+03 -.273903162705212D+03 0.578548952464309D+03 0.713118857218515D+02
 0.878473624455343D+03 -.944876549890147D+02 -.147711424119988D+03 0.860795752256497D+03
 0.109094336203528D+04 0.368390817694227D+03 -.430837528344322D+03 -.932107637978348D+03
 0.000000000000000D+00 -.000000000000000D+00 -.000000000000000D+00 -.000000000000000D+00
 0.131571648718289D+04 0.000000000000000D+00 0.000000000000000D+00 0.131571648718289D+04
 0.148257913212661D+04 0.000000000000000D+00 0.000000000000000D+00 -.148257913212661D+04
 0.653356573355887D+03 -.263226465523383D+03 0.580410419229537D+03 0.713118857218515D+02
 0.876633059143679D+03 -.801772101345767D+02 -.145216418685395D+03 0.860795752256497D+03
 0.109587565880975D+04 0.386221273983224D+03 -.427728813989540D+03 -.932107637978348D+03
 0.172430328000190D+03 -.428175983252645D+02 -.746518655460223D+01 -.166862644943721D+03
0.105219490897D-03 0.000000000000D+00 0.000000000000D+00 0.165089961161D-05 0.000000000000D+00  6 1 2 25 1 2 21 0 0.20632125D+00 0.19769479D+00 0.48609535D+06 0.48609535D+06 0.48609535D+06 0.10693771D+01  1  2  2  2  6  2        2 0.217366069350D-03 0.100000000000D+01
0.170837406991D-04 0.000000000000D+00 -.404070549973D-06 0.165089961161D-05 0.000000000000D+00  6 1 2 25 1 2 21 2 0.20632125D+00 0.19769479D+00 0.48609535D+06 0.48609535D+06 0.48609535D+06 0.10693771D+01  1  2  3  2  6  2        2 0.403589923033D-04 0.100000000000D+01
-.564144627817D-04 0.000000000000D+00 0.000000000000D+00 0.165089961161D-05 0.000000000000D+00  6 1 2 25 1 2 21 2 0.20632125D+00 0.19769479D+00 0.48609535D+06 0.48609535D+06 0.48609535D+06 0.10693771D+01  1  2 15  2  6  2        2 -.133274726496D-03 0.100000000000D+01
0.448275141952D-02 0.000000000000D+00 0.000000000000D+00 0.165089961161D-05 0.000000000000D+00  6 1 2 25 1 2 21 2 0.20632125D+00 0.22708617D+00 0.51487386D+06 0.51487386D+06 0.51487386D+06 0.10676118D+01  1  2 12  2  6  2        2 0.820319132185D-02 0.100000000000D+01
0.158178435607D-07 0.000000000000D+00 0.000000000000D+00 0.165089961161D-05 0.000000000000D+00  6 1 2 25 1 2 21 2 0.20632125D+00 0.22359610D+00 0.51487386D+06 0.51487386D+06 0.51487386D+06 0.10676118D+01  1  2 12  2  6  2        2 0.298017889200D-07 0.100000000000D+01
-.277708882363D-02 0.000000000000D+00 0.000000000000D+00 0.165089961161D-05 0.000000000000D+00  6 1 2 25 1 2 21 2 0.20632125D+00 0.19769479D+00 0.48609535D+06 0.48609535D+06 0.48609535D+06 0.10693771D+01  1  2  4  2  6  2        2 -.656065369012D-02 0.100000000000D+01
-.555570910183D-02 0.000000000000D+00 -.186606459006D-03 0.165089961161D-05 0.000000000000D+00  6 1 2 25 1 2 21 2 0.20632125D+00 0.22345829D+00 0.48609535D+06 0.48609535D+06 0.48609535D+06 0.10693771D+01  1  2  5  2  6  2        2 -.105556819280D-01 0.100000000000D+01
0.553835269937D-02 0.000000000000D+00 0.185215020158D-03 0.165089961161D-05 0.000000000000D+00  6 1 2 25 1 2 21 2 0.20632125D+00 0.19769479D+00 0.48609535D+06 0.48609535D+06 0.48609535D+06 0.10693771D+01  1  2  6  2  6  2        2 0.130839221868D-01 0.100000000000D+01
0.958773265526D-04 0.000000000000D+00 0.000000000000D+00 0.165089961161D-05 0.000000000000D+00  6 1 21 25 1 2 -2 2 0.20632125D+00 0.22708617D+00 0.51487386D+06 0.51487386D+06 0.51487386D+06 0.10676118D+01  1  2 12  6  6  2        2 0.616403576191D-04 0.100000000000D+01
0.306651694546D-09 0.000000000000D+00 0.000000000000D+00 0.165089961161D-05 0.000000000000D+00  6 1 21 25 1 2 -2 2 0.20632125D+00 0.22359610D+00 0.51487386D+06 0.51487386D+06 0.51487386D+06 0.10676118D+01  1  2 12  6  6  2        2 0.208763226534D-09 0.100000000000D+01
-.106357027189D-03 0.000000000000D+00 -.360245318895D-05 0.165089961161D-05 0.000000000000D+00  6 1 21 25 1 2 -2 2 0.20632125D+00 0.22345829D+00 0.48609535D+06 0.48609535D+06 0.48609535D+06 0.10693771D+01  1  2  5  6  6  2        2 -.732902536017D-04 0.100000000000D+01
  </mgrwgt>
  </event>
  <event>
  5     66 0.17698235E-05 0.22825038E+03 0.75467711E-02 0.91392337E-01
        1 -1    0    0  501    0 0.00000000E+00 0.00000000E+00 0.14159337E+04 0.14159338E+04 0.32000000E+00 0.0000E+00 0.9000E+01
        2 -1    0    0  502    0 -.00000000E+00 -.00000000E+00 -.15941198E+04 0.15941199E+04 0.32000000E+00 0.0000E+00 0.9000E+01
       25  1    1    2    0    0 0.34826598E+03 -.47883391E+03 -.45330108E+03 0.75609389E+03 0.12500000E+03 0.0000E+00 0.9000E+01
        1  1    1    2  501    0 -.21801841E+03 0.67591970E+02 0.12063021E+04 0.12277074E+04 0.32000000E+00 0.0000E+00 0.9000E+01
        2  1    1    2  502    0 -.13024757E+03 0.41124194E+03 -.93118708E+03 0.10262523E+04 0.32000000E+00 0.0000E+00 0.9000E+01
#aMCatNLO 1  0  0  4  2 0.11704085D+03 0.00000000D+00  -5  6  0 0.00000000D+00 0.00000000D+00 0.00000000D+00 0.00000000D+00 0.00000000D+00
  <mgrwgt>
 0.1139682228D-02    7    2    0
 0.150238747923436D+04 0.000000000000000D+00 0.000000000000000D+00 0.150238747923436D+04
 0.150238747923436D+04 -.000000000000000D+00 -.000000000000000D+00 -.150238747923436D+04
 0.730541435954619D+03 0.348276305747713D+03 -.478866269221191D+03 -.409214492294126D+03
 0.130136830308615D+04 -.218013255395297D+03 0.675903731744901D+02 0.128119523188444D+04
 0.972865219427952D+03 -.130263050352416D+03 0.411275896046701D+03 -.871980739590310D+03
 0.000000000000000D+00 -.000000000000000D+00 0.000000000000000D+00 0.000000000000000D+00
 0.150238747923436D+04 0.000000000000000D+00 0.000000000000000D+00 0.150238747923436D+04
 0.150238747923436D+04 -.000000000000000D+00 -.000000000000000D+00 -.150238747923436D+04
 0.727037847289023D+03 0.347391497599343D+03 -.478591953272705D+03 -.404014753504075D+03
 0.764421963663097D+03 -.401727254340735D+02 0.117501136879645D+03 0.754268237097211D+03
 0.966982270621432D+03 -.131440614335057D+03 0.411640974715331D+03 -.865060566974831D+03
 0.546332876895174D+03 -.175778157830213D+03 -.505501583222711D+02 0.514807083381694D+03
0.300454278086D-03 0.000000000000D+00 0.000000000000D+00 0.342218572733D-05 0.000000000000D+00  6 1 2 25 1 2 21 0 0.21783596D+00 0.24524921D+00 0.39995211D+06 0.39995211D+06 0.39995211D+06 0.10754314D+01  1  2  2  3  6  4        1 0.375358782169D-03 0.100000000000D+01
0.381067907672D-04 0.000000000000D+00 -.115382353928D-05 0.342218572733D-05 0.000000000000D+00  6 1 2 25 1 2 21 2 0.21783596D+00 0.24524921D+00 0.39995211D+06 0.39995211D+06 0.39995211D+06 0.10754314D+01  1  2  3  3  6  4        1 0.550599695231D-04 0.100000000000D+01
-.182247347686D-03 0.000000000000D+00 0.000000000000D+00 0.342218572733D-05 0.000000000000D+00  6 1 2 25 1 2 21 2 0.21783596D+00 0.24524921D+00 0.39995211D+06 0.39995211D+06 0.39995211D+06 0.10754314D+01  1  2 15  3  6  4        1 -.263326646177D-03 0.100000000000D+01
0.163293915188D-08 0.000000000000D+00 0.000000000000D+00 0.342218572733D-05 0.000000000000D+00  6 1 2 25 1 2 21 2 0.21783596D+00 0.24524921D+00 0.45134539D+06 0.45134539D+06 0.45134539D+06 0.10716669D+01  1  2 12  3  6  4        1 0.232186596928D-08 0.100000000000D+01
-.287999153643D-03 0.000000000000D+00 0.000000000000D+00 0.342218572733D-05 0.000000000000D+00  6 1 2 25 1 2 21 2 0.21783596D+00 0.24524921D+00 0.39995211D+06 0.39995211D+06 0.39995211D+06 0.10754314D+01  1  2  4  3  6  4        1 -.416125952961D-03 0.100000000000D+01
-.193651289734D-02 0.000000000000D+00 0.000000000000D+00 0.342218572733D-05 0.000000000000D+00  6 1 2 25 1 2 21 2 0.21783596D+00 0.24524921D+00 0.39995211D+06 0.39995211D+06 0.39995211D+06 0.10754314D+01  1  2  5  3  6  4        1 -.279804042697D-02 0.100000000000D+01
0.289763628488D-02 0.000000000000D+00 -.000000000000D+00 0.342218572733D-05 0.000000000000D+00  6 1 2 25 1 2 21 2 0.21783596D+00 0.24524921D+00 0.39995211D+06 0.39995211D+06 0.39995211D+06 0.10754314D+01  1  2  6  3  6  4        1 0.418675418010D-02 0.100000000000D+01
  </mgrwgt>
  </event>
  <event>
  5     66 -.17698235E-05 0.14663547E+02 0.75467711E-02 0.94509257E-01
        1 -1    0    0  501    0 0.00000000E+00 0.00000000E+00 0.23620335E+04 0.23620335E+04 0.32000000E+00 0.0000E+00 0.9000E+01
        2 -1    0    0  502    0 0.00000000E+00 0.00000000E+00 -.39323880E+03 0.39323893E+03 0.32000000E+00 0.0000E+00 0.9000E+01
       25  1    1    2    0    0 0.48856929E+03 0.47441531E+02 0.74315843E+03 0.89936650E+03 0.12500000E+03 0.0000E+00 0.9000E+01
        1  1    1    2  501    0 -.36479289E+01 0.14205953E+02 0.13511462E+04 0.13512258E+04 0.32000000E+00 0.0000E+00 0.9000E+01
        2  1    1    2  502    0 -.48492136E+03 -.61647484E+02 -.12550995E+03 0.50468008E+03 0.32000000E+00 0.0000E+00 0.9000E+01
#aMCatNLO 1  0  0  5  1 0.39979255D+03 0.00000000D+00  -5  6  0 0.00000000D+00 0.00000000D+00 0.00000000D+00 0.00000000D+00 0.00000000D+00
  <mgrwgt>
 -.1173966531D-01    6    2    0
 0.963765226806128D+03 0.000000000000000D+00 0.000000000000000D+00 0.963765226806128D+03
 0.963765226806128D+03 -.000000000000000D+00 -.000000000000000D+00 -.963765226806128D+03
 0.526612742005331D+03 0.488643248131342D+03 0.474532016861083D+02 0.143777431287955D+03
 0.551288999170227D+03 -.364710743962456D+01 0.142027543693980D+02 0.551093949324212D+03
 0.849628712436696D+03 -.484996140691718D+03 -.616559560555064D+02 -.694871380612168D+03
 0.000000000000000D+00 0.000000000000000D+00 -.000000000000000D+00 0.000000000000000D+00
 0.963765226806128D+03 0.000000000000000D+00 0.000000000000000D+00 0.963765226806128D+03
 0.963765226806128D+03 -.000000000000000D+00 -.000000000000000D+00 -.963765226806128D+03
 0.526199765880336D+03 0.488332772661655D+03 0.474137319660234D+02 0.143332601937437D+03
 0.550824688262879D+03 -.397212187685035D+01 0.141614363584332D+02 0.550628289472998D+03
 0.788106563807598D+03 -.441358446712952D+03 -.467219073144218D+02 -.651253975656697D+03
 0.623994356614411D+02 -.430022040718526D+02 -.148532610100348D+02 -.427069157537376D+02
0.127255009044D-03 0.000000000000D+00 0.000000000000D+00 0.332547020734D-04 0.000000000000D+00  6 1 2 25 1 2 21 0 0.36338978D+00 0.60498288D-01 0.25511007D+06 0.25511007D+06 0.25511007D+06 0.10897986D+01  1  2  2  4  6  5        2 0.259313733884D-03 0.100000000000D+01
0.111782319695D-03 0.000000000000D+00 -.488692741744D-06 0.332547020734D-04 0.000000000000D+00  6 1 2 25 1 2 21 2 0.36338978D+00 0.60498288D-01 0.25511007D+06 0.25511007D+06 0.25511007D+06 0.10897986D+01  1  2  3  4  6  5        2 0.270530521753D-03 0.100000000000D+01
-.787774301509D-04 0.000000000000D+00 0.000000000000D+00 0.332547020734D-04 0.000000000000D+00  6 1 2 25 1 2 21 2 0.36338978D+00 0.60498288D-01 0.25511007D+06 0.25511007D+06 0.25511007D+06 0.10897986D+01  1  2 15  4  6  5        2 -.190653578663D-03 0.100000000000D+01
-.580603660727D-02 0.000000000000D+00 0.000000000000D+00 0.332547020734D-04 0.000000000000D+00  6 1 2 25 1 2 21 2 0.36338978D+00 0.60498288D-01 0.25511007D+06 0.25511007D+06 0.25511007D+06 0.10897986D+01  1  2  4  4  6  5        2 -.140515075816D-01 0.100000000000D+01
-.107062716529D-01 0.000000000000D+00 0.000000000000D+00 0.332547020734D-04 0.000000000000D+00  6 1 2 25 1 2 21 2 0.36338978D+00 0.60498288D-01 0.25511007D+06 0.25511007D+06 0.25511007D+06 0.10897986D+01  1  2  5  4  6  5        2 -.259108351321D-01 0.100000000000D+01
0.115213647872D-01 0.000000000000D+00 -.000000000000D+00 0.332547020734D-04 0.000000000000D+00  6 1 2 25 1 2 21 2 0.36338978D+00 0.60498288D-01 0.25511007D+06 0.25511007D+06 0.25511007D+06 0.10897986D+01  1  2  6  4  6  5        2 0.278834867240D-01 0.100000000000D+01
  </mgrwgt>
  </event>
  <event>
  5     66 0.17698235E-05 0.11899219E+03 0.75467711E-02 0.95178291E-01
        1 -1    0    0  501    0 0.00000000E+00 0.00000000E+00 0.76869778E+03 0.76869785E+03 0.32000000E+00 0.0000E+00 0.9000E+01
        2 -1    0    0  502    0 0.00000000E+00 0.00000000E+00 -.77113199E+03 0.77113205E+03 0.32000000E+00 0.0000E+00 0.9000E+01
       25  1    1    2    0    0 0.28730540E+03 -.36940526E+03 -.10718336E+03 0.49610272E+03 0.12500000E+03 0.0000E+00 0.9000E+01
        1  1    1    2  501    0 -.22065663E+03 0.27085378E+03 0.51178669E+03 0.61965865E+03 0.32000000E+00 0.0000E+00 0.9000E+01
        2  1    1    2  502    0 -.66648766E+02 0.98551481E+02 -.40703754E+03 0.42406853E+03 0.32000000E+00 0.0000E+00 0.9000E+01
#aMCatNLO 1  0  0  1  5 0.88820143D+02 0.00000000D+00  -5  6  0 0.00000000D+00 0.00000000D+00 0.00000000D+00 0.00000000D+00 0.00000000D+00
  <mgrwgt>
 0.9971535271D-02    9    2    0
 0.769913988029246D+03 0.000000000000000D+00 0.000000000000000D+00 0.769913988029246D+03
 0.769913988029246D+03 0.000000000000000D+00 0.000000000000000D+00 -.769913988029246D+03
 0.495912226903114D+03 0.287302686031253D+03 -.369404294443989D+03 -.106308845528356D+03
 0.620429124847229D+03 -.220642667189190D+03 0.270836640019113D+03 0.512734460317907D+03
 0.423486624308148D+03 -.666600188420630D+02 0.985676544248757D+02 -.406425614789551D+03
 0.000000000000000D+00 -.000000000000000D+00 -.000000000000000D+00 0.000000000000000D+00
 0.832418084163365D+03 0.000000000000000D+00 0.000000000000000D+00 0.832418084163365D+03
 0.803407324452622D+03 0.000000000000000D+00 0.000000000000000D+00 -.803407324452622D+03
 0.478216631485158D+03 0.291599882460192D+03 -.341663700940913D+03 -.106308845528356D+03
 0.634950374428519D+03 -.215104783515180D+03 0.306586502146308D+03 0.512734460317907D+03
 0.429220498452215D+03 -.628984528322857D+02 0.122850480527379D+03 -.406425614789551D+03
 0.934379042500952D+02 -.135966461127261D+02 -.877732817327733D+02 0.290107597107427D+02
0.385200306929D-03 0.000000000000D+00 0.000000000000D+00 0.212879286996D-05 0.000000000000D+00  6 1 2 25 1 2 21 0 0.11826121D+00 0.11863570D+00 0.22691491D+06 0.22691491D+06 0.22691491D+06 0.10936387D+01  1  2  2  1  6  1        1 0.473138653815D-02 0.100000000000D+01
0.530353426538D-04 0.000000000000D+00 -.147927060418D-05 0.212879286996D-05 0.000000000000D+00  6 1 2 25 1 2 21 2 0.11826121D+00 0.11863570D+00 0.22691491D+06 0.22691491D+06 0.22691491D+06 0.10936387D+01  1  2  3  1  6  1        1 0.779139012128D-03 0.100000000000D+01
-.232312792393D-03 0.000000000000D+00 0.000000000000D+00 0.212879286996D-05 0.000000000000D+00  6 1 2 25 1 2 21 2 0.11826121D+00 0.11863570D+00 0.22691491D+06 0.22691491D+06 0.22691491D+06 0.10936387D+01  1  2 15  1  6  1        1 -.341289318618D-02 0.100000000000D+01
0.302705388513D-07 0.000000000000D+00 0.000000000000D+00 0.212879286996D-05 0.000000000000D+00  6 1 2 25 1 2 21 2 0.13243362D+00 0.11863570D+00 0.28494618D+06 0.28494618D+06 0.28494618D+06 0.10862099D+01  1  2 12  1  6  1        1 0.362500791676D-06 0.100000000000D+01
-.762247809864D-04 0.000000000000D+00 0.000000000000D+00 0.212879286996D-05 0.000000000000D+00  6 1 2 25 1 2 21 2 0.11826121D+00 0.11863570D+00 0.22691491D+06 0.22691491D+06 0.22691491D+06 0.10936387D+01  1  2  4  1  6  1        1 -.111981364852D-02 0.100000000000D+01
-.387350823629D-02 0.000000000000D+00 -.922220902020D-03 0.212879286996D-05 0.000000000000D+00  6 1 2 25 1 2 21 2 0.13180580D+00 0.11863570D+00 0.22691491D+06 0.22691491D+06 0.22691491D+06 0.10936387D+01  1  2  5  1  6  1        1 -.478393717322D-01 0.100000000000D+01
0.395562570307D-02 0.000000000000D+00 0.916825651933D-03 0.212879286996D-05 0.000000000000D+00  6 1 2 25 1 2 21 2 0.11826121D+00 0.11863570D+00 0.22691491D+06 0.22691491D+06 0.22691491D+06 0.10936387D+01  1  2  6  1  6  1        1 0.581118580256D-01 0.100000000000D+01
0.546673368815D-09 0.000000000000D+00 0.000000000000D+00 0.212879286996D-05 0.000000000000D+00  6 21 2 25 1 2 -1 2 0.13243362D+00 0.11863570D+00 0.28494618D+06 0.28494618D+06 0.28494618D+06 0.10862099D+01  1  2 12  5  6  1        1 0.104588989517D-07 0.100000000000D+01
-.639093594304D-04 0.000000000000D+00 -.160578317566D-04 0.212879286996D-05 0.000000000000D+00  6 21 2 25 1 2 -1 2 0.13180580D+00 0.11863570D+00 0.22691491D+06 0.22691491D+06 0.22691491D+06 0.10936387D+01  1  2  5  5  6  1        1 -.127914269737D-02 0.100000000000D+01
  </mgrwgt>
  </event>
  <event>
  6     66 0.17698235E-05 0.31667231E+02 0.75467711E-02 0.92521521E-01
       21 -1    0    0  501  503 0.00000000E+00 0.00000000E+00 0.88801856E+03 0.88801888E+03 0.75000000E+00 0.0000E+00 0.9000E+01
        2 -1    0    0  502    0 0.00000000E+00 0.00000000E+00 -.26383133E+04 0.26383134E+04 0.32000000E+00 0.0000E+00 0.9000E+01
       25  1    1    2    0    0 0.43569712E+03 0.35248823E+03 -.31712760E+03 0.65595339E+03 0.12500000E+03 0.0000E+00 0.9000E+01
        1  1    1    2  501    0 -.45091126E+03 -.38722696E+03 0.48282092E+03 0.76575572E+03 0.32000000E+00 0.0000E+00 0.9000E+01
        2  1    1    2  502    0 0.94814689E+01 0.33296297E+02 -.20100635E+04 0.20103616E+04 0.32000000E+00 0.0000E+00 0.9000E+01
       -1  1    1    2    0  503 0.57326659E+01 0.14424329E+01 0.94075408E+02 0.94261492E+02 0.32000000E+00 0.0000E+00 0.9000E+01
#aMCatNLO 2  0  0  1  4 0.59113510D+01 0.00000000D+00  -5  6  0 0.00000000D+00 0.00000000D+00 0.00000000D+00 0.00000000D+00 0.00000000D+00
  <mgrwgt>
 0.4369852200D-04    3    2    0
 0.144718461478992D+04 0.000000000000000D+00 0.000000000000000D+00 0.144718461478992D+04
 0.144718461478992D+04 0.000000000000000D+00 0.000000000000000D+00 -.144718461478992D+04
 0.576754841959297D+03 0.436823027347690D+03 0.352760046732533D+03 0.420373635181114D+02
 0.121455513611838D+04 -.448490024599506D+03 -.386608882234923D+03 0.106044068607506D+04
 0.110305925150216D+04 0.116669972518157D+02 0.338488355023898D+02 -.110247804959317D+04
 0.000000000000000D+00 0.000000000000000D+00 0.000000000000000D+00 0.000000000000000D+00
 0.161885638162847D+04 0.000000000000000D+00 0.000000000000000D+00 0.161885638162847D+04
 0.144723852187318D+04 0.000000000000000D+00 0.000000000000000D+00 -.144723852187318D+04
 0.575715060473258D+03 0.435681722029019D+03 0.352472875572010D+03 0.420373635181114D+02
 0.121563863041370D+04 -.450896675797329D+03 -.387214435197961D+03 0.106044068607506D+04
 0.110302157524721D+04 0.948228789353004D+01 0.332991267508747D+02 -.110247804959317D+04
 0.171719637367478D+03 0.573266587477929D+01 0.144243287507645D+01 0.171617859755293D+03
-.134872887297D-02 0.000000000000D+00 0.000000000000D+00 0.766091750578D-04 0.000000000000D+00  6 21 2 25 1 2 -1 2 0.13666306D+00 0.40587922D+00 0.36545343D+06 0.36545343D+06 0.36545343D+06 0.10782670D+01  1  2 13  5  6  1        1 -.190228139513D-02 0.100000000000D+01
-.528268638313D-10 0.000000000000D+00 0.000000000000D+00 0.766091750578D-04 0.000000000000D+00  6 21 2 25 1 2 -1 2 0.13662112D+00 0.40587922D+00 0.36545343D+06 0.36545343D+06 0.36545343D+06 0.10782670D+01  1  2 13  5  6  1        1 -.745740630012D-10 0.100000000000D+01
0.137859769144D-02 0.000000000000D+00 0.000000000000D+00 0.766091750578D-04 0.250239436433D-06  6 21 2 25 1 2 -1 2 0.13661825D+00 0.40589434D+00 0.36545343D+06 0.36545343D+06 0.36545343D+06 0.10782670D+01  1  2  1  5  6  1        1 0.194597999170D-02 0.100000000000D+01
  </mgrwgt>
  </event>
  <event>
  6     66 0.17698235E-05 0.28060185E+02 0.75467711E-02 0.95523507E-01
        1 -1    0    0  501    0 0.00000000E+00 0.00000000E+00 0.13022251E+04 0.13022251E+04 0.32000000E+00 0.0000E+00 0.9000E+01
        2 -1    0    0  502    0 0.00000000E+00 0.00000000E+00 -.86782498E+03 0.86782504E+03 0.32000000E+00 0.0000E+00 0.9000E+01
       25  1    1    2    0    0 -.21340625E+03 0.39970517E+03 -.16607904E+03 0.49851149E+03 0.12500000E+03 0.0000E+00 0.9000E+01
        1  1    1    2  501    0 0.22107179E+01 -.18970555E+02 0.10467154E+04 0.10468897E+04 0.32000000E+00 0.0000E+00 0.9000E+01
        2  1    1    2  503    0 0.10538013E+03 -.18414126E+03 -.19014592E+03 0.28490095E+03 0.32000000E+00 0.0000E+00 0.9000E+01
       21  1    1    2  502  503 0.10581541E+03 -.19659336E+03 -.25609038E+03 0.33974799E+03 0.75000000E+00 0.0000E+00 0.9000E+01
#aMCatNLO 2  0  0  5  2 0.92918011D+01 0.00000000D+00  -5  6  0 0.00000000D+00 0.00000000D+00 0.00000000D+00 0.00000000D+00 0.00000000D+00
  <mgrwgt>
 0.1998863222D-01    1    2    0
 0.106306328208959D+04 0.000000000000000D+00 0.000000000000000D+00 0.106306328208959D+04
 0.106306328208959D+04 -.000000000000000D+00 -.000000000000000D+00 -.106306328208959D+04
 0.542774984016000D+03 -.213488322017381D+03 0.399853153579145D+03 -.271145487162492D+03
 0.854972476591844D+03 0.209081371642598D+01 -.187542087607101D+02 0.854764203673360D+03
 0.728379103571327D+03 0.211397508300955D+03 -.381098944818435D+03 -.583618716510868D+03
 0.000000000000000D+00 0.000000000000000D+00 0.000000000000000D+00 -.000000000000000D+00
 0.106306328208959D+04 0.000000000000000D+00 0.000000000000000D+00 0.106306328208959D+04
 0.106306328208959D+04 -.000000000000000D+00 -.000000000000000D+00 -.106306328208959D+04
 0.542749025531486D+03 -.213412290094546D+03 0.399716086279733D+03 -.271355393388803D+03
 0.854647036110069D+03 0.221055833536045D+01 -.189700795545070D+02 0.854433616991552D+03
 0.329407021527854D+03 0.105309846415129D+03 -.184018056429499D+03 -.252103504513094D+03
 0.399323481009762D+03 0.105891885344056D+03 -.196727950295727D+03 -.330974719089656D+03
0.401901190578D-02 0.000000000000D+00 0.000000000000D+00 0.491674184666D-04 0.268260973932D-06  6 1 2 25 1 2 21 2 0.20034232D+00 0.13351154D+00 0.21371265D+06 0.21371265D+06 0.21371265D+06 0.10956203D+01  1  2  1  4  6  5        2 0.199886322168D-01 0.100000000000D+01
  </mgrwgt>
  </event>
  <event>
  6     66 -.17698235E-05 0.79434330E+02 0.75467711E-02 0.92335689E-01
        1 -1    0    0  501    0 0.00000000E+00 0.00000000E+00 0.51181460E+03 0.51181470E+03 0.32000000E+00 0.0000E+00 0.9000E+01
        2 -1    0    0  502    0 -.00000000E+00 -.00000000E+00 -.18610178E+04 0.18610179E+04 0.32000000E+00 0.0000E+00 0.9000E+01
       25  1    1    2    0    0 -.43683973E+03 -.10029791E+03 -.49769074E+03 0.68132936E+03 0.12500000E+03 0.0000E+00 0.9000E+01
        1  1    1    2  501    0 -.11451112E+03 -.85369619E+02 0.32323279E+03 0.35338408E+03 0.32000000E+00 0.0000E+00 0.9000E+01
        2  1    1    2  503    0 0.42470963E+03 0.18749620E+03 -.10926361E+04 0.11871760E+04 0.32000000E+00 0.0000E+00 0.9000E+01
       21  1    1    2  502  503 0.12664122E+03 -.18286716E+01 -.82109178E+02 0.15094311E+03 0.75000000E+00 0.0000E+00 0.9000E+01
#aMCatNLO 2  0  0  5  2 0.91859110D+02 0.00000000D+00  -5  6  0 0.00000000D+00 0.00000000D+00 0.00000000D+00 0.00000000D+00 0.00000000D+00
  <mgrwgt>
 -.1238444129D-01    2    2    0
 0.975959141611998D+03 0.000000000000000D+00 0.000000000000000D+00 0.975959141611998D+03
 0.975959141611998D+03 -.000000000000000D+00 -.000000000000000D+00 -.975959141611998D+03
 0.490311456566233D+03 -.445130962169313D+03 -.103090342107844D+03 -.126535103123243D+03
 0.665397200852155D+03 -.125647971693162D+03 -.891161750361844D+02 0.647320886004923D+03
 0.796209625805607D+03 0.570778933862475D+03 0.192206517144028D+03 -.520785782881680D+03
 0.000000000000000D+00 0.000000000000000D+00 0.000000000000000D+00 0.000000000000000D+00
 0.975959141611998D+03 0.000000000000000D+00 0.000000000000000D+00 0.975959141611998D+03
 0.975959141611998D+03 -.000000000000000D+00 -.000000000000000D+00 -.975959141611998D+03
 0.484281034727398D+03 -.436885056120133D+03 -.100313580758779D+03 -.134058770137951D+03
 0.652952465597273D+03 -.114493578870906D+03 -.853599975250174D+02 0.637143479562820D+03
 0.687849937166696D+03 0.424637573171798D+03 0.187500618388231D+03 -.507606132365464D+03
 0.126834845732628D+03 0.126741061819241D+03 -.182704010443442D+01 0.452142294059433D+01
-.210050702395D-02 0.000000000000D+00 0.000000000000D+00 0.471098534541D-06 0.000000000000D+00  6 1 2 25 1 2 21 2 0.78740717D-01 0.28631045D+00 0.35946808D+06 0.35946808D+06 0.35946808D+06 0.10787886D+01  1  2 13  4  6  5        2 -.123836059349D-01 0.100000000000D+01
-.141692520944D-06 0.000000000000D+00 0.000000000000D+00 0.471098534541D-06 0.000000000000D+00  6 1 2 25 1 2 21 2 0.78740717D-01 0.28631045D+00 0.35946808D+06 0.35946808D+06 0.35946808D+06 0.10787886D+01  1  2 13  4  6  5        2 -.835352761631D-06 0.100000000000D+01
  </mgrwgt>
  </event>
  <event>
  6     66 0.17698235E-05 0.64884495E+02 0.75467711E-02 0.91130810E-01
        1 -1    0    0  501    0 0.00000000E+00 0.00000000E+00 0.36667654E+04 0.36667654E+04 0.32000000E+00 0.0000E+00 0.9000E+01
        2 -1    0    0  503    0 0.00000000E+00 0.00000000E+00 -.60581679E+03 0.60581688E+03 0.32000000E+00 0.0000E+00 0.9000E+01
       25  1    1    2    0    0 0.44106601E+03 -.47215600E+03 0.17300193E+03 0.68045953E+03 0.12500000E+03 0.0000E+00 0.9000E+01
        1  1    1    2  501    0 -.48002252E+03 0.38955724E+03 0.32025460E+04 0.32616679E+04 0.32000000E+00 0.0000E+00 0.9000E+01
        2  1    1    2  502    0 0.15932279E+02 0.75291996E+02 -.23803669E+03 0.25016853E+03 0.32000000E+00 0.0000E+00 0.9000E+01
       21  1    1    2  503  502 0.23024236E+02 0.73067635E+01 -.76562606E+02 0.80286358E+02 0.75000000E+00 0.0000E+00 0.9000E+01
#aMCatNLO 2  0  0  2  4 0.24155833D+02 0.00000000D+00  -5  6  0 0.00000000D+00 0.00000000D+00 0.00000000D+00 0.00000000D+00 0.00000000D+00
  <mgrwgt>
 0.2351266386D-02    2    2    0
 0.139021446841916D+04 0.000000000000000D+00 0.000000000000000D+00 0.139021446841916D+04
 0.139021446841916D+04 0.000000000000000D+00 0.000000000000000D+00 -.139021446841916D+04
 0.833159595615657D+03 0.447952448243883D+03 -.469971071079244D+03 -.506947441286949D+03
 0.130110480778570D+04 -.469234143365196D+03 0.392978285998197D+03 0.114815552355825D+04
 0.646164533436961D+03 0.212816951213123D+02 0.769927850810465D+02 -.641208082271296D+03
 0.000000000000000D+00 0.000000000000000D+00 0.000000000000000D+00 -.000000000000000D+00
 0.139097255072840D+04 0.000000000000000D+00 0.000000000000000D+00 0.139097255072840D+04
 0.159700211168588D+04 0.000000000000000D+00 0.000000000000000D+00 -.159700211168588D+04
 0.830716672828750D+03 0.441063446896074D+03 -.472157302284353D+03 -.506947441286949D+03
 0.130400683538409D+04 -.480020172327415D+03 0.389555329330621D+03 0.114815552355825D+04
 0.645810357262320D+03 0.159324892145025D+02 0.752952094404576D+02 -.641208082271296D+03
 0.207440796939118D+03 0.230242362168392D+02 0.730676351327477D+01 -.206029560957472D+03
-.427105420389D-07 0.000000000000D+00 0.000000000000D+00 0.982476983064D-05 0.000000000000D+00  6 1 2 25 1 2 21 2 0.56381004D+00 0.93225872D-01 0.47432049D+06 0.47432049D+06 0.47432049D+06 0.10701325D+01  1  2 13  2  6  2        2 -.603030343041D-08 0.100000000000D+01
0.167141446303D-01 0.000000000000D+00 0.000000000000D+00 0.982476983064D-05 0.980298483729D-07  6 1 2 25 1 2 21 2 0.56411749D+00 0.93202546D-01 0.47432049D+06 0.47432049D+06 0.47432049D+06 0.10701325D+01  1  2  1  2  6  2        2 0.235127241617D-02 0.100000000000D+01
  </mgrwgt>
  </event>
  <event>
  5     66 0.17698235E-05 0.14256998E+02 0.75467711E-02 0.93745619E-01
        1 -1    0    0  501    0 0.00000000E+00 0.00000000E+00 0.12883037E+04 0.12883038E+04 0.32000000E+00 0.0000E+00 0.9000E+01
        2 -1    0    0  502    0 0.00000000E+00 0.00000000E+00 -.99325196E+03 0.99325201E+03 0.32000000E+00 0.0000E+00 0.9000E+01
       25  1    1    2    0    0 -.48065639E+03 0.11269742E+03 0.46616938E+03 0.69041304E+03 0.12500000E+03 0.0000E+00 0.9000E+01
        1  1    1    2  501    0 0.11047519E+02 0.90179199E+01 0.64315326E+03 0.64331142E+03 0.32000000E+00 0.0000E+00 0.9000E+01
        2  1    1    2  502    0 0.46960887E+03 -.12171534E+03 -.81427085E+03 0.94783133E+03 0.32000000E+00 0.0000E+00 0.9000E+01
#aMCatNLO 1  0  0  4  2 0.58895102D+02 0.00000000D+00  -5  6  0 0.00000000D+00 0.00000000D+00 0.00000000D+00 0.00000000D+00 0.00000000D+00
  <mgrwgt>
 0.2131663153D-02    6    2    0
 0.113119862094271D+04 0.000000000000000D+00 0.000000000000000D+00 0.113119862094271D+04
 0.113119862094271D+04 -.000000000000000D+00 -.000000000000000D+00 -.113119862094271D+04
 0.635595902299169D+03 -.480717238363451D+03 0.112715866309157D+03 0.380214704136871D+03
 0.564731052767390D+03 0.110445699367483D+02 0.901551233016836D+01 0.564551060553518D+03
 0.106207028681886D+04 0.469672668426702D+03 -.121731378639326D+03 -.944765764690389D+03
 0.000000000000000D+00 0.000000000000000D+00 0.000000000000000D+00 0.000000000000000D+00
 0.113119862094271D+04 0.000000000000000D+00 0.000000000000000D+00 0.113119862094271D+04
 0.113119862094271D+04 -.000000000000000D+00 -.000000000000000D+00 -.113119862094271D+04
 0.637042507125364D+03 -.480669067739278D+03 0.112755187247742D+03 0.382676979908577D+03
 0.451727477006442D+03 0.231982991725077D+02 0.440152375677512D+02 0.448979076639394D+03
 0.105845043417323D+04 0.469752932236080D+03 -.121665860527959D+03 -.940663022893477D+03
 0.115176823580387D+03 -.122821636693100D+02 -.351045642875345D+02 0.109006966345506D+03
0.141929208137D-03 0.000000000000D+00 0.000000000000D+00 0.758341709037D-04 0.000000000000D+00  6 1 2 25 1 2 21 0 0.19820058D+00 0.15280800D+00 0.25440952D+06 0.25440952D+06 0.25440952D+06 0.10898883D+01  1  2  2  3  6  4        1 0.494787725513D-03 0.100000000000D+01
0.117825006259D-03 0.000000000000D+00 -.545045530065D-06 0.758341709037D-04 0.000000000000D+00  6 1 2 25 1 2 21 2 0.19820058D+00 0.15280800D+00 0.25440952D+06 0.25440952D+06 0.25440952D+06 0.10898883D+01  1  2  3  3  6  4        1 0.487919985173D-03 0.100000000000D+01
-.824372217170D-04 0.000000000000D+00 0.000000000000D+00 0.758341709037D-04 0.000000000000D+00  6 1 2 25 1 2 21 2 0.19820058D+00 0.15280800D+00 0.25440952D+06 0.25440952D+06 0.25440952D+06 0.10898883D+01  1  2 15  3  6  4        1 -.341377176839D-03 0.100000000000D+01
-.952395268030D-05 0.000000000000D+00 0.000000000000D+00 0.758341709037D-04 0.000000000000D+00  6 1 2 25 1 2 21 2 0.19820058D+00 0.15280800D+00 0.25440952D+06 0.25440952D+06 0.25440952D+06 0.10898883D+01  1  2  4  3  6  4        1 -.394392243046D-04 0.100000000000D+01
-.164475989881D-02 0.000000000000D+00 0.000000000000D+00 0.758341709037D-04 0.000000000000D+00  6 1 2 25 1 2 21 2 0.19820058D+00 0.15280800D+00 0.25440952D+06 0.25440952D+06 0.25440952D+06 0.10898883D+01  1  2  5  3  6  4        1 -.681104335079D-02 0.100000000000D+01
0.201417575076D-02 0.000000000000D+00 -.000000000000D+00 0.758341709037D-04 0.000000000000D+00  6 1 2 25 1 2 21 2 0.19820058D+00 0.15280800D+00 0.25440952D+06 0.25440952D+06 0.25440952D+06 0.10898883D+01  1  2  6  3  6  4        1 0.834081519405D-02 0.100000000000D+01
  </mgrwgt>
  </event>
  <event>
  6     66 0.17698235E-05 0.40112893E+02 0.75467711E-02 0.93207045E-01
        1 -1    0    0  501    0 0.00000000E+00 0.00000000E+00 0.26770099E+04 0.26770099E+04 0.32000000E+00 0.0000E+00 0.9000E+01
        2 -1    0    0  503    0 0.00000000E+00 0.00000000E+00 -.79304838E+03 0.79304845E+03 0.32000000E+00 0.0000E+00 0.9000E+01
       25  1    1    2    0    0 0.34317366E+02 -.49507128E+03 0.18478467E+04 0.19174033E+04 0.12500000E+03 0.0000E+00 0.9000E+01
        1  1    1    2  501    0 -.23172197E+02 -.17080882E+01 0.55855990E+03 0.55904306E+03 0.32000000E+00 0.0000E+00 0.9000E+01
        2  1    1    2  502    0 -.10841825E+02 0.54849482E+03 -.87420651E+02 0.55552371E+03 0.32000000E+00 0.0000E+00 0.9000E+01
       21  1    1    2  503  502 -.30334406E+00 -.51715458E+02 -.43502438E+03 0.43808829E+03 0.75000000E+00 0.0000E+00 0.9000E+01
#aMCatNLO 2  0  0  2  1 0.51716347D+02 0.00000000D+00  -5  6  0 0.00000000D+00 0.00000000D+00 0.00000000D+00 0.00000000D+00 0.00000000D+00
  <mgrwgt>
 0.4844132795D-02    1    2    0
 0.976277673064569D+03 0.000000000000000D+00 0.000000000000000D+00 0.976277673064569D+03
 0.976277673064569D+03 0.000000000000000D+00 0.000000000000000D+00 -.976277673064569D+03
 0.796089021134235D+03 0.341716840975314D+02 -.516062454656614D+03 0.592152487514993D+03
 0.204511313239605D+03 -.231758737915998D+02 -.712017492359275D+01 0.203069099633699D+03
 0.951955011755297D+03 -.109958103059315D+02 0.523182629580206D+03 -.795221587148692D+03
 0.000000000000000D+00 -.000000000000000D+00 -.000000000000000D+00 -.000000000000000D+00
 0.977179146685653D+03 0.000000000000000D+00 0.000000000000000D+00 0.977179146685653D+03
 0.217257810251156D+04 0.000000000000000D+00 0.000000000000000D+00 -.217257810251156D+04
 0.782705072415380D+03 0.342943013257887D+02 -.495158118999524D+03 0.592152487514993D+03
 0.204390850746640D+03 -.231441163571242D+02 -.170602489490810D+01 0.203069099633699D+03
 0.966144195281120D+03 -.108468409062800D+02 0.548579601744789D+03 -.795221587148692D+03
 0.119651713075408D+04 -.303344062384558D+00 -.517154578503569D+02 -.119539895582591D+04
0.775506315004D-02 0.000000000000D+00 0.000000000000D+00 0.834849667014D-05 0.233345240778D-07  6 1 2 25 1 2 21 2 0.41184764D+00 0.12200744D+00 0.32231310D+06 0.32231310D+06 0.32231310D+06 0.10822543D+01  1  2  1  2  6  2        2 0.484413279537D-02 0.100000000000D+01
  </mgrwgt>
  </event>
  <event>
  5     66 0.17698235E-05 0.28658715E+02 0.75467711E-02 0.86530323E-01
        1 -1    0    0  501    0 0.00000000E+00 0.00000000E+00 0.32100252E+04 0.32100253E+04 0.32000000E+00 0.0000E+00 0.9000E+01
        2 -1    0    0  502    0 0.00000000E+00 0.00000000E+00 -.13415985E+04 0.13415986E+04 0.32000000E+00 0.0000E+00 0.9000E+01
       25  1    1    2    0    0 -.33817232E+03 0.67596904E+03 -.43860821E+03 0.88277791E+03 0.12500000E+03 0.0000E+00 0.9000E+01
        1  1    1    2  501    0 0.31535906E+03 -.69331455E+03 0.29390706E+04 0.30361608E+04 0.32000000E+00 0.0000E+00 0.9000E+01
        2  1    1    2  502    0 0.22813259E+02 0.17345502E+02 -.63203565E+03 0.63268513E+03 0.32000000E+00 0.0000E+00 0.9000E+01
#aMCatNLO 1  0  0  1  5 0.11039426D+03 0.00000000D+00  -5  6  0 0.00000000D+00 0.00000000D+00 0.00000000D+00 0.00000000D+00 0.00000000D+00
  <mgrwgt>
 0.2947481627D-01    7    2    0
 0.207522655964913D+04 0.000000000000000D+00 0.000000000000000D+00 0.207522655964913D+04
 0.207522655964913D+04 0.000000000000000D+00 0.000000000000000D+00 -.207522655964913D+04
 0.116554817118129D+04 -.338172409154295D+03 0.675968716080775D+03 -.878398119255130D+03
 0.200653265988994D+04 0.315358913487091D+03 -.693314215031341D+03 0.185635057845352D+04
 0.978372288227023D+03 0.228134956672041D+02 0.173454989505657D+02 -.977952459198390D+03
 0.000000000000000D+00 -.000000000000000D+00 -.000000000000000D+00 0.000000000000000D+00
 0.239162035454915D+04 0.000000000000000D+00 0.000000000000000D+00 0.239162035454915D+04
 0.227448328172201D+04 0.000000000000000D+00 0.000000000000000D+00 -.227448328172201D+04
 0.116696374080265D+04 -.215402827116900D+03 0.726772136578737D+03 -.878398119255130D+03
 0.202260184023108D+04 0.527428637980619D+03 -.605557400928562D+03 0.185635057845352D+04
 0.987909480068779D+03 0.126306896760320D+03 0.601722210688856D+02 -.977952459198390D+03
 0.488628575168640D+03 -.438332707624040D+03 -.181386956719061D+03 0.117137072827138D+03
0.116837825816D+00 0.000000000000D+00 0.000000000000D+00 0.120716820496D-03 0.000000000000D+00  6 1 2 25 1 2 21 0 0.49385004D+00 0.20639978D+00 0.60561997D+06 0.60561997D+06 0.60561997D+06 0.10626774D+01  1  2  2  1  6  1        1 0.108385915299D-01 0.100000000000D+01
0.791480032962D-01 0.000000000000D+00 -.448688015241D-03 0.120716820496D-03 0.000000000000D+00  6 1 2 25 1 2 21 2 0.49385004D+00 0.20639978D+00 0.60561997D+06 0.60561997D+06 0.60561997D+06 0.10626774D+01  1  2  3  1  6  1        1 0.829148312557D-02 0.100000000000D+01
-.749185008836D-01 0.000000000000D+00 0.000000000000D+00 0.120716820496D-03 0.000000000000D+00  6 1 2 25 1 2 21 2 0.49385004D+00 0.20639978D+00 0.60561997D+06 0.60561997D+06 0.60561997D+06 0.10626774D+01  1  2 15  1  6  1        1 -.784840374993D-02 0.100000000000D+01
-.312523492815D-02 0.000000000000D+00 0.000000000000D+00 0.120716820496D-03 0.000000000000D+00  6 1 2 25 1 2 21 2 0.49385004D+00 0.20639978D+00 0.60561997D+06 0.60561997D+06 0.60561997D+06 0.10626774D+01  1  2  4  1  6  1        1 -.327397174800D-03 0.100000000000D+01
-.241340508587D+00 0.000000000000D+00 -.109298756707D+00 0.120716820496D-03 0.000000000000D+00  6 1 2 25 1 2 21 2 0.58246242D+00 0.20639978D+00 0.60561997D+06 0.60561997D+06 0.60561997D+06 0.10626774D+01  1  2  5  1  6  1        1 -.842109432265D-02 0.100000000000D+01
0.257337735599D+00 0.000000000000D+00 0.107827042589D+00 0.120716820496D-03 0.000000000000D+00  6 1 2 25 1 2 21 2 0.49385004D+00 0.20639978D+00 0.60561997D+06 0.60561997D+06 0.60561997D+06 0.10626774D+01  1  2  6  1  6  1        1 0.269585005740D-01 0.100000000000D+01
-.504412169663D-02 0.000000000000D+00 -.269181179442D-02 0.120716820496D-03 0.000000000000D+00  6 21 2 25 1 2 -1 2 0.58246242D+00 0.20639978D+00 0.60561997D+06 0.60561997D+06 0.60561997D+06 0.10626774D+01  1  2  5  5  6  1        1 -.168637122925D-04 0.100000000000D+01
  </mgrwgt>
  </event>
  <event>
  5     66 -.17698235E-05 0.78343818E+02 0.75467711E-02 0.95258573E-01
        1 -1    0    0  501    0 0.00000000E+00 0.00000000E+00 0.16779537E+04 0.16779537E+04 0.32000000E+00 0.0000E+00 0.9000E+01
        2 -1    0    0  502    0 -.00000000E+00 -.00000000E+00 -.18567101E+04 0.18567102E+04 0.32000000E+00 0.0000E+00 0.9000E+01
       25  1    1    2    0    0 0.11159879E+03 0.45100800E+03 0.21400861E+03 0.52658066E+03 0.12500000E+03 0.0000E+00 0.9000E+01
        1  1    1    2  501    0 -.17741545E+02 -.76312424E+02 0.12845135E+04 0.12869007E+04 0.32000000E+00 0.0000E+00 0.9000E+01
        2  1    1    2  502    0 -.93857241E+02 -.37469557E+03 -.16772785E+04 0.17211825E+04 0.32000000E+00 0.0000E+00 0.9000E+01
#aMCatNLO 1  0  0  5  2 0.10316729D+02 0.00000000D+00  -5  6  0 0.00000000D+00 0.00000000D+00 0.00000000D+00 0.00000000D+00 0.00000000D+00
  <mgrwgt>
 -.8733752206D-01    8    2    0
 0.176507044224283D+04 0.000000000000000D+00 0.000000000000000D+00 0.176507044224283D+04
 0.176507044224283D+04 -.000000000000000D+00 -.000000000000000D+00 -.176507044224283D+04
 0.538147033889102D+03 0.111605618612725D+03 0.451035049840527D+03 0.241016181600036D+03
 0.135352805330481D+04 -.177406851573764D+02 -.763087272418097D+02 0.135125883431710D+04
 0.163846579729174D+04 -.938649334553490D+02 -.374726322598718D+03 -.159227501591713D+04
 0.000000000000000D+00 0.000000000000000D+00 0.000000000000000D+00 -.000000000000000D+00
 0.176507044224283D+04 0.000000000000000D+00 0.000000000000000D+00 0.176507044224283D+04
 0.176507044224283D+04 -.000000000000000D+00 -.000000000000000D+00 -.176507044224283D+04
 0.538115653988717D+03 0.111602804318450D+03 0.451023814652841D+03 0.240968441402527D+03
 0.135340986829455D+04 -.177477634664016D+02 -.763369851717262D+02 0.135113876163180D+04
 0.145213547874179D+04 -.895842643227906D+02 -.339890541701370D+03 -.140895228019558D+04
 0.186479883460596D+03 -.427077652925772D+01 -.347962877797450D+02 -.183154922838738D+03
0.141402488095D-03 0.000000000000D+00 0.000000000000D+00 0.517265942463D-03 0.000000000000D+00  6 1 2 25 1 2 21 0 0.25814672D+00 0.28564772D+00 0.22363716D+06 0.22363716D+06 0.22363716D+06 0.10941187D+01  1  2  2  4  6  5        2 0.888347783000D-04 0.100000000000D+01
0.438451359848D-04 0.000000000000D+00 -.543022786415D-06 0.517265942463D-03 0.000000000000D+00  6 1 2 25 1 2 21 2 0.25814672D+00 0.28564772D+00 0.22363716D+06 0.22363716D+06 0.22363716D+06 0.10941187D+01  1  2  3  4  6  5        2 0.329743529727D-04 0.100000000000D+01
-.881010000656D-04 0.000000000000D+00 0.000000000000D+00 0.517265942463D-03 0.000000000000D+00  6 1 2 25 1 2 21 2 0.25814672D+00 0.28564772D+00 0.22363716D+06 0.22363716D+06 0.22363716D+06 0.10941187D+01  1  2 15  4  6  5        2 -.662575998035D-04 0.100000000000D+01
0.153838912770D+00 0.000000000000D+00 0.000000000000D+00 0.517265942463D-03 0.000000000000D+00  6 1 2 25 1 2 21 2 0.25814672D+00 0.28564772D+00 0.22376480D+06 0.22376480D+06 0.22376480D+06 0.10940999D+01  1  2 12  4  6  5        2 0.115686991140D+00 0.100000000000D+01
0.350342572444D-09 0.000000000000D+00 0.000000000000D+00 0.517265942463D-03 0.000000000000D+00  6 1 2 25 1 2 21 2 0.25814672D+00 0.28564772D+00 0.22376480D+06 0.22376480D+06 0.22376480D+06 0.10940999D+01  1  2 12  4  6  5        2 0.263457907654D-09 0.100000000000D+01
-.289087612337D+00 0.000000000000D+00 0.000000000000D+00 0.517265942463D-03 0.000000000000D+00  6 1 2 25 1 2 21 2 0.25814672D+00 0.28564772D+00 0.22363716D+06 0.22363716D+06 0.22363716D+06 0.10941187D+01  1  2  4  4  6  5        2 -.217412416569D+00 0.100000000000D+01
-.158489670061D+00 0.000000000000D+00 0.000000000000D+00 0.517265942463D-03 0.000000000000D+00  6 1 2 25 1 2 21 2 0.25814672D+00 0.28564772D+00 0.22363716D+06 0.22363716D+06 0.22363716D+06 0.10941187D+01  1  2  5  4  6  5        2 -.119194391937D+00 0.100000000000D+01
0.177547023645D+00 0.000000000000D+00 -.000000000000D+00 0.517265942463D-03 0.000000000000D+00  6 1 2 25 1 2 21 2 0.25814672D+00 0.28564772D+00 0.22363716D+06 0.22363716D+06 0.22363716D+06 0.10941187D+01  1  2  6  4  6  5        2 0.133526743513D+00 0.100000000000D+01
  </mgrwgt>
  </event>
  <event>
  5     66 -.17698235E-05 0.95980929E+02 0.75467711E-02 0.92738286E-01
        1 -1    0    0  501    0 0.00000000E+00 0.00000000E+00 0.13574744E+04 0.13574744E+04 0.32000000E+00 0.0000E+00 0.9000E+01
        2 -1    0    0  502    0 0.00000000E+00 0.00000000E+00 -.46651538E+03 0.46651549E+03 0.32000000E+00 0.0000E+00 0.9000E+01
       25  1    1    2    0    0 0.35480081E+03 0.33433153E+03 0.34481504E+03 0.61006852E+03 0.12500000E+03 0.0000E+00 0.9000E+01
        1  1    1    2  501    0 0.93562827E+02 0.21585853E+02 0.62830351E+03 0.63559842E+03 0.32000000E+00 0.0000E+00 0.9000E+01
        2  1    1    2  502    0 -.44836364E+03 -.35591739E+03 -.82159564E+02 0.57832295E+03 0.32000000E+00 0.0000E+00 0.9000E+01
#aMCatNLO 1  0  0  2  5 0.12260255D+02 0.00000000D+00  -5  6  0 0.00000000D+00 0.00000000D+00 0.00000000D+00 0.00000000D+00 0.00000000D+00
  <mgrwgt>
 -.1024090897D-01   11    2    0
 0.795790678782910D+03 0.000000000000000D+00 0.000000000000000D+00 0.795790678782910D+03
 0.795790678782910D+03 0.000000000000000D+00 0.000000000000000D+00 -.795790678782910D+03
 0.506255974438916D+03 0.354905549011255D+03 0.334403708057008D+03 0.537245099916128D+02
 0.376534101637287D+03 0.935241916265526D+02 0.215769393043556D+02 0.364095579438497D+03
 0.708791281489616D+03 -.448429740637808D+03 -.355980647361364D+03 -.417820089430110D+03
 0.000000000000000D+00 -.000000000000000D+00 -.000000000000000D+00 -.000000000000000D+00
 0.796220853136796D+03 0.000000000000000D+00 0.000000000000000D+00 0.796220853136796D+03
 0.888243695270772D+03 0.000000000000000D+00 0.000000000000000D+00 -.888243695270772D+03
 0.510011290442801D+03 0.357989834051464D+03 0.336813705364105D+03 0.537245099916128D+02
 0.377215295016378D+03 0.958117571799267D+02 0.233643962843581D+02 0.364095579438497D+03
 0.704401992948029D+03 -.444140818790287D+03 -.352629371468208D+03 -.417820089430110D+03
 0.928359700003601D+02 -.966077244110328D+01 -.754873018025448D+01 -.920228421339762D+02
0.140147263870D-04 0.000000000000D+00 0.000000000000D+00 0.492701603788D-06 0.000000000000D+00  6 1 2 25 1 2 21 0 0.20884222D+00 0.71771608D-01 0.34335286D+06 0.34335286D+06 0.34335286D+06 0.10802414D+01  1  2  2  2  6  2        2 0.109541383961D-03 0.100000000000D+01
0.258031102737D-05 0.000000000000D+00 -.538202394885D-07 0.492701603788D-06 0.000000000000D+00  6 1 2 25 1 2 21 2 0.20884222D+00 0.71771608D-01 0.34335286D+06 0.34335286D+06 0.34335286D+06 0.10802414D+01  1  2  3  2  6  2        2 0.235346258222D-04 0.100000000000D+01
-.932879375072D-05 0.000000000000D+00 0.000000000000D+00 0.492701603788D-06 0.000000000000D+00  6 1 2 25 1 2 21 2 0.20884222D+00 0.71771608D-01 0.34335286D+06 0.34335286D+06 0.34335286D+06 0.10802414D+01  1  2 15  2  6  2        2 -.850865139773D-04 0.100000000000D+01
0.321844514674D-02 0.000000000000D+00 0.000000000000D+00 0.492701603788D-06 0.000000000000D+00  6 1 2 25 1 2 21 2 0.20884222D+00 0.80219260D-01 0.35115035D+06 0.35115035D+06 0.35115035D+06 0.10795294D+01  1  2 12  2  6  2        2 0.258085672399D-01 0.100000000000D+01
0.429066178968D-06 0.000000000000D+00 0.000000000000D+00 0.492701603788D-06 0.000000000000D+00  6 1 2 25 1 2 21 2 0.20884222D+00 0.80151433D-01 0.35115035D+06 0.35115035D+06 0.35115035D+06 0.10795294D+01  1  2 12  2  6  2        2 0.344399866448D-05 0.100000000000D+01
-.433221171466D-02 0.000000000000D+00 0.000000000000D+00 0.492701603788D-06 0.000000000000D+00  6 1 2 25 1 2 21 2 0.20884222D+00 0.71771608D-01 0.34335286D+06 0.34335286D+06 0.34335286D+06 0.10802414D+01  1  2  4  2  6  2        2 -.395134464821D-01 0.100000000000D+01
-.334860855518D-02 0.000000000000D+00 -.317420350388D-04 0.492701603788D-06 0.000000000000D+00  6 1 2 25 1 2 21 2 0.20884222D+00 0.80129037D-01 0.34335286D+06 0.34335286D+06 0.34335286D+06 0.10802414D+01  1  2  5  2  6  2        2 -.269500420885D-01 0.100000000000D+01
0.333206231960D-02 0.000000000000D+00 0.315504426724D-04 0.492701603788D-06 0.000000000000D+00  6 1 2 25 1 2 21 2 0.20884222D+00 0.71771608D-01 0.34335286D+06 0.34335286D+06 0.34335286D+06 0.10802414D+01  1  2  6  2  6  2        2 0.303912354271D-01 0.100000000000D+01
0.572889522601D-04 0.000000000000D+00 0.000000000000D+00 0.492701603788D-06 0.000000000000D+00  6 1 21 25 1 2 -2 2 0.20884222D+00 0.80219260D-01 0.35115035D+06 0.35115035D+06 0.35115035D+06 0.10795294D+01  1  2 12  6  6  2        2 0.812112105329D-03 0.100000000000D+01
0.758801770446D-08 0.000000000000D+00 0.000000000000D+00 0.492701603788D-06 0.000000000000D+00  6 1 21 25 1 2 -2 2 0.20884222D+00 0.80151433D-01 0.35115035D+06 0.35115035D+06 0.35115035D+06 0.10795294D+01  1  2 12  6  6  2        2 0.107787284745D-06 0.100000000000D+01
-.589669949413D-04 0.000000000000D+00 -.560146249259D-06 0.492701603788D-06 0.000000000000D+00  6 1 21 25 1 2 -2 2 0.20884222D+00 0.80129037D-01 0.34335286D+06 0.34335286D+06 0.34335286D+06 0.10802414D+01  1  2  5  6  6  2        2 -.840876452079D-03 0.100000000000D+01
  </mgrwgt>
  </event>
  <event>
  5     66 -.17698235E-05 0.34958691E+02 0.75467711E-02 0.93701887E-01
        1 -1    0    0  501    0 0.00000000E+00 0.00000000E+00 0.32022319E+04 0.32022319E+04 0.32000000E+00 0.0000E+00 0.9000E+01
        2 -1    0    0  502    0 0.00000000E+00 0.00000000E+00 -.23770391E+03 0.23770412E+03 0.32000000E+00 0.0000E+00 0.9000E+01
       25  1    1    2    0    0 -.51969186E+03 0.81285028E+02 0.52346960E+03 0.75255053E+03 0.12500000E+03 0.0000E+00 0.9000E+01
        1  1    1    2  501    0 0.21478339E+02 0.27590470E+02 0.20355304E+04 0.20358307E+04 0.32000000E+00 0.0000E+00 0.9000E+01
        2  1    1    2  502    0 0.49821352E+03 -.10887550E+03 0.40552797E+03 0.65155477E+03 0.32000000E+00 0.0000E+00 0.9000E+01
#aMCatNLO 1  0  0  2  5 0.34320718D+01 0.00000000D+00  -5  6  0 0.00000000D+00 0.00000000D+00 0.00000000D+00 0.00000000D+00 0.00000000D+00
  <mgrwgt>
 -.2065217182D-02    5    2    0
 0.872458265339162D+03 0.000000000000000D+00 0.000000000000000D+00 0.872458265339162D+03
 0.872458265339162D+03 0.000000000000000D+00 0.000000000000000D+00 -.872458265339162D+03
 0.594280063385371D+03 -.519772618587457D+03 0.813035525432863D+02 -.246515620291900D+03
 0.555078043495621D+03 0.214744472948954D+02 0.275854704166268D+02 0.553976104454153D+03
 0.595558423797332D+03 0.498298171292562D+03 -.108889022959913D+03 -.307460484162254D+03
 0.000000000000000D+00 -.000000000000000D+00 0.000000000000000D+00 -.000000000000000D+00
 0.919135460550971D+03 0.000000000000000D+00 0.000000000000000D+00 0.919135460550971D+03
 0.178263184884916D+04 0.000000000000000D+00 0.000000000000000D+00 -.178263184884916D+04
 0.520803759338793D+03 -.441271607472824D+03 0.109987786535258D+02 -.246515620291900D+03
 0.564623432196926D+03 0.100300537492919D+03 -.430104412703358D+02 0.553976104454153D+03
 0.690938642630966D+03 0.588866537950332D+03 -.190001208000961D+03 -.307460484162254D+03
 0.925401475233442D+03 -.247895467970427D+03 0.222012870617771D+03 -.863496388298185D+03
0.165295617106D-02 0.000000000000D+00 0.000000000000D+00 0.410532729424D-05 0.000000000000D+00  6 1 2 25 1 2 21 0 0.49265108D+00 0.36569849D-01 0.29471576D+06 0.29471576D+06 0.29471576D+06 0.10851233D+01  1  2  2  2  6  2        2 0.144523410854D-02 0.100000000000D+01
0.907418812454D-03 0.000000000000D+00 -.634778693023D-05 0.410532729424D-05 0.000000000000D+00  6 1 2 25 1 2 21 2 0.49265108D+00 0.36569849D-01 0.29471576D+06 0.29471576D+06 0.29471576D+06 0.10851233D+01  1  2  3  2  6  2        2 0.934206416500D-03 0.100000000000D+01
-.110156316471D-02 0.000000000000D+00 0.000000000000D+00 0.410532729424D-05 0.000000000000D+00  6 1 2 25 1 2 21 2 0.49265108D+00 0.36569849D-01 0.29471576D+06 0.29471576D+06 0.29471576D+06 0.10851233D+01  1  2 15  2  6  2        2 -.113408203856D-02 0.100000000000D+01
-.653755123598D-02 0.000000000000D+00 -.988718600956D-03 0.410532729424D-05 0.000000000000D+00  6 1 2 25 1 2 21 2 0.49265108D+00 0.77342543D-01 0.29471576D+06 0.29471576D+06 0.29471576D+06 0.10851233D+01  1  2  5  2  6  2        2 -.292051894636D-02 0.100000000000D+01
-.468245987881D-03 0.000000000000D+00 -.801082780433D-04 0.410532729424D-05 0.000000000000D+00  6 1 21 25 1 2 -2 2 0.49265108D+00 0.77342543D-01 0.29471576D+06 0.29471576D+06 0.29471576D+06 0.10851233D+01  1  2  5  6  6  2        2 -.390056722234D-03 0.100000000000D+01
  </mgrwgt>
  </event>
  <event>
  5     66 0.17698235E-05 0.63690023E+02 0.75467711E-02 0.92342216E-01
        1 -1    0    0  501    0 0.00000000E+00 0.00000000E+00 0.32985781E+04 0.32985781E+04 0.32000000E+00 0.0000E+00 0.9000E+01
        2 -1    0    0  502    0 0.00000000E+00 0.00000000E+00 -.14982171E+04 0.14982171E+04 0.32000000E+00 0.0000E+00 0.9000E+01
       25  1    1    2    0    0 -.10418903E+03 -.46400483E+03 0.64326280E+02 0.49590191E+03 0.12500000E+03 0.0000E+00 0.9000E+01
        1  1    1    2  501    0 0.60914483E+02 0.41727863E+03 0.30029315E+04 0.30323967E+04 0.32000000E+00 0.0000E+00 0.9000E+01
        2  1    1    2  502    0 0.43274545E+02 0.46726204E+02 -.12668968E+04 0.12684966E+04 0.32000000E+00 0.0000E+00 0.9000E+01
#aMCatNLO 1  0  0  2  5 0.67193888D+02 0.00000000D+00  -5  6  0 0.00000000D+00 0.00000000D+00 0.00000000D+00 0.00000000D+00 0.00000000D+00
  <mgrwgt>
 0.4363270021D-01    7    2    0
 0.222305783367817D+04 0.000000000000000D+00 0.000000000000000D+00 0.222305783367817D+04
 0.222305783367817D+04 0.000000000000000D+00 0.000000000000000D+00 -.222305783367817D+04
 0.508956463912612D+03 -.104190634204272D+03 -.464003991337137D+03 -.131363198521304D+03
 0.205558216525925D+04 0.609140227894239D+02 0.417275477918064D+03 0.201186199712798D+04
 0.188157703818447D+04 0.432766114148479D+02 0.467285134190727D+02 -.188049879860668D+04
 0.000000000000000D+00 0.000000000000000D+00 -.000000000000000D+00 -.000000000000000D+00
 0.223697171164939D+04 0.000000000000000D+00 0.000000000000000D+00 0.223697171164939D+04
 0.268381140419049D+04 0.000000000000000D+00 0.000000000000000D+00 -.268381140419049D+04
 0.494763087495188D+03 -.108485051241536D+03 -.447370334822443D+03 -.131363198521304D+03
 0.207009968155783D+04 0.432622809373771D+02 0.485646343696865D+03 0.201186199712798D+04
 0.188385852785618D+04 0.271661843290698D+02 0.109129372051230D+03 -.188049879860668D+04
 0.472061818930681D+03 0.380565859750891D+02 -.147405380925651D+03 -.446839692541102D+03
0.844097975504D-01 0.000000000000D+00 0.000000000000D+00 0.159812944714D-02 0.000000000000D+00  6 1 2 25 1 2 21 0 0.50747355D+00 0.23049494D+00 0.23868105D+06 0.23868105D+06 0.23868105D+06 0.10919761D+01  1  2  2  2  6  2        2 0.603387957253D-02 0.100000000000D+01
0.349300820160D-01 0.000000000000D+00 -.324155848204D-03 0.159812944714D-02 0.000000000000D+00  6 1 2 25 1 2 21 2 0.50747355D+00 0.23049494D+00 0.23868105D+06 0.23868105D+06 0.23868105D+06 0.10919761D+01  1  2  3  2  6  2        2 0.297734846482D-02 0.100000000000D+01
-.535742830841D-01 0.000000000000D+00 0.000000000000D+00 0.159812944714D-02 0.000000000000D+00  6 1 2 25 1 2 21 2 0.50747355D+00 0.23049494D+00 0.23868105D+06 0.23868105D+06 0.23868105D+06 0.10919761D+01  1  2 15  2  6  2        2 -.456653120428D-02 0.100000000000D+01
-.594910034944D-02 0.000000000000D+00 0.000000000000D+00 0.159812944714D-02 0.000000000000D+00  6 1 2 25 1 2 21 2 0.50747355D+00 0.23049494D+00 0.23868105D+06 0.23868105D+06 0.23868105D+06 0.10919761D+01  1  2  4  2  6  2        2 -.507085691477D-03 0.100000000000D+01
-.147152059544D+01 0.000000000000D+00 -.964596773394D-01 0.159812944714D-02 0.000000000000D+00  6 1 2 25 1 2 21 2 0.50747355D+00 0.27885906D+00 0.23868105D+06 0.23868105D+06 0.23868105D+06 0.10919761D+01  1  2  5  2  6  2        2 -.846144745873D-01 0.100000000000D+01
0.146496168656D+01 0.000000000000D+00 0.947358847803D-01 0.159812944714D-02 0.000000000000D+00  6 1 2 25 1 2 21 2 0.50747355D+00 0.23049494D+00 0.23868105D+06 0.23868105D+06 0.23868105D+06 0.10919761D+01  1  2  6  2  6  2        2 0.124869487180D+00 0.100000000000D+01
-.395356687598D-01 0.000000000000D+00 -.265853820925D-02 0.159812944714D-02 0.000000000000D+00  6 1 21 25 1 2 -2 2 0.50747355D+00 0.27885906D+00 0.23868105D+06 0.23868105D+06 0.23868105D+06 0.10919761D+01  1  2  5  6  6  2        2 -.559923525438D-03 0.100000000000D+01
  </mgrwgt>
  </event>
  <event>
  5     66 -.17698235E-05 0.27155242E+03 0.75467711E-02 0.92404732E-01
        1 -1    0    0  501    0 0.00000000E+00 0.00000000E+00 0.30940445E+04 0.30940445E+04 0.32000000E+00 0.0000E+00 0.9000E+01
        2 -1    0    0  502    0 0.00000000E+00 0.00000000E+00 -.14914093E+04 0.14914094E+04 0.32000000E+00 0.0000E+00 0.9000E+01
       25  1    1    2    0    0 -.90983199E+02 -.52445074E+03 -.12056706E+03 0.55989994E+03 0.12500000E+03 0.0000E+00 0.9000E+01
        1  1    1    2  501    0 0.25303622E+03 0.29668751E+03 0.28439065E+04 0.28705147E+04 0.32000000E+00 0.0000E+00 0.9000E+01
        2  1    1    2  502    0 -.16205302E+03 0.22776324E+03 -.11207043E+04 0.11550392E+04 0.32000000E+00 0.0000E+00 0.9000E+01
#aMCatNLO 1  0  0  4  1 0.56637985D+02 0.00000000D+00  -5  6  0 0.00000000D+00 0.00000000D+00 0.00000000D+00 0.00000000D+00 0.00000000D+00
  <mgrwgt>
 -.1103262687D-03    6    2    0
 0.214813567017680D+04 0.000000000000000D+00 0.000000000000000D+00 0.214813567017680D+04
 0.214813567017680D+04 -.000000000000000D+00 -.000000000000000D+00 -.214813567017680D+04
 0.642549980038469D+03 -.909752652099727D+02 -.524460182979658D+03 -.337506287995283D+03
 0.200285623078649D+04 0.253034620574469D+03 0.296685628958110D+03 0.196453154710245D+04
 0.165086512952864D+04 -.162059355364496D+03 0.227774554021549D+03 -.162702525910716D+04
 0.000000000000000D+00 0.000000000000000D+00 0.000000000000000D+00 0.000000000000000D+00
 0.214813567017680D+04 0.000000000000000D+00 0.000000000000000D+00 0.214813567017680D+04
 0.214813567017680D+04 -.000000000000000D+00 -.000000000000000D+00 -.214813567017680D+04
 0.642158951024571D+03 -.908996976436575D+02 -.524371579250690D+03 -.336919590144898D+03
 0.556255150194744D+03 0.722330273019071D+02 0.137881433496037D+03 0.534032669583104D+03
 0.164939214617013D+04 -.161865231696085D+03 0.228002165968592D+03 -.162551810538343D+04
 0.144846509296415D+04 0.180531902037836D+03 0.158487979786062D+03 0.142840502594522D+04
0.105854022434D-02 0.000000000000D+00 0.000000000000D+00 0.243895137849D-04 0.000000000000D+00  6 1 2 25 1 2 21 0 0.47600684D+00 0.22944759D+00 0.36981610D+06 0.36981610D+06 0.36981610D+06 0.10778926D+01  1  2  2  3  6  4        1 0.104637614232D-03 0.100000000000D+01
0.112739423276D-03 0.000000000000D+00 -.406507318152D-05 0.243895137849D-04 0.000000000000D+00  6 1 2 25 1 2 21 2 0.47600684D+00 0.22944759D+00 0.36981610D+06 0.36981610D+06 0.36981610D+06 0.10778926D+01  1  2  3  3  6  4        1 0.129481371039D-04 0.100000000000D+01
-.709556439653D-03 0.000000000000D+00 0.000000000000D+00 0.243895137849D-04 0.000000000000D+00  6 1 2 25 1 2 21 2 0.47600684D+00 0.22944759D+00 0.36981610D+06 0.36981610D+06 0.36981610D+06 0.10778926D+01  1  2 15  3  6  4        1 -.814926473509D-04 0.100000000000D+01
0.204334753415D-01 0.000000000000D+00 0.000000000000D+00 0.243895137849D-04 0.000000000000D+00  6 1 2 25 1 2 21 2 0.47600684D+00 0.22944759D+00 0.37342917D+06 0.37342917D+06 0.37342917D+06 0.10775862D+01  1  2 12  3  6  4        1 0.234303074838D-02 0.100000000000D+01
0.464419666404D-09 0.000000000000D+00 0.000000000000D+00 0.243895137849D-04 0.000000000000D+00  6 1 2 25 1 2 21 2 0.47600684D+00 0.22944759D+00 0.37342917D+06 0.37342917D+06 0.37342917D+06 0.10775862D+01  1  2 12  3  6  4        1 0.532532787669D-10 0.100000000000D+01
-.216756414202D-01 0.000000000000D+00 0.000000000000D+00 0.243895137849D-04 0.000000000000D+00  6 1 2 25 1 2 21 2 0.47600684D+00 0.22944759D+00 0.36981610D+06 0.36981610D+06 0.36981610D+06 0.10778926D+01  1  2  5  3  6  4        1 -.248945017429D-02 0.100000000000D+01
  </mgrwgt>
  </event>
  <event>
  6     66 -.17698235E-05 0.71926935E+02 0.75467711E-02 0.91992717E-01
        1 -1    0    0  501    0 0.00000000E+00 0.00000000E+00 0.25863208E+04 0.25863208E+04 0.32000000E+00 0.0000E+00 0.9000E+01
        2 -1    0    0  502    0 0.00000000E+00 0.00000000E+00 -.15584036E+04 0.15584036E+04 0.32000000E+00 0.0000E+00 0.9000E+01
       25  1    1    2    0    0 0.60411735E+03 -.58084190E+02 0.10090677E+04 0.11841343E+04 0.12500000E+03 0.0000E+00 0.9000E+01
        1  1    1    2  501    0 -.29723761E+02 0.69596906E+02 0.14324655E+04 0.14344633E+04 0.32000000E+00 0.0000E+00 0.9000E+01
        2  1    1    2  503    0 -.53086764E+03 -.10069414E+02 -.13235782E+04 0.14261070E+04 0.32000000E+00 0.0000E+00 0.9000E+01
       21  1    1    2  502  503 -.43525954E+02 -.14433023E+01 -.90037848E+02 0.10001984E+03 0.75000000E+00 0.0000E+00 0.9000E+01
#aMCatNLO 2  0  0  5  2 0.64587140D+01 0.00000000D+00  -5  6  0 0.00000000D+00 0.00000000D+00 0.00000000D+00 0.00000000D+00 0.00000000D+00
  <mgrwgt>
 -.6477831697D-02    6    2    0
 0.200761842041917D+04 0.000000000000000D+00 0.000000000000000D+00 0.200761842041917D+04
 0.200761842041917D+04 -.000000000000000D+00 -.000000000000000D+00 -.200761842041917D+04
 0.964150255209610D+03 0.604167040404723D+03 -.580760298321461D+02 0.738627156736259D+03
 0.111392935059416D+04 -.297057867245886D+02 0.695894749085407D+02 0.111135658963816D+04
 0.193715723503457D+04 -.574461253680135D+03 -.115134450763946D+02 -.184998374637441D+04
 0.000000000000000D+00 0.000000000000000D+00 -.000000000000000D+00 0.000000000000000D+00
 0.200761842041917D+04 0.000000000000000D+00 0.000000000000000D+00 0.200761842041917D+04
 0.200761842041917D+04 -.000000000000000D+00 -.000000000000000D+00 -.200761842041917D+04
 0.964110965224521D+03 0.604154335552073D+03 -.580762844648515D+02 0.738586242278144D+03
 0.111388256253042D+04 -.297204652452101D+02 0.695891807192635D+02 0.111130931921844D+04
 0.181219641700064D+04 -.531269682010676D+03 -.100763323863669D+02 -.173254346158816D+04
 0.125046896082761D+03 -.431641882961868D+02 -.143656386804510D+01 -.117352099908426D+03
-.107154211126D+00 0.000000000000D+00 0.000000000000D+00 0.113463203859D-03 0.000000000000D+00  6 1 2 25 1 2 21 2 0.39789551D+00 0.23975440D+00 0.40316213D+06 0.40316213D+06 0.40316213D+06 0.10751812D+01  1  2 13  4  6  5        2 -.261303666868D-01 0.100000000000D+01
-.881534542284D-09 0.000000000000D+00 0.000000000000D+00 0.113463203859D-03 0.000000000000D+00  6 1 2 25 1 2 21 2 0.39789551D+00 0.23975440D+00 0.40316213D+06 0.40316213D+06 0.40316213D+06 0.10751812D+01  1  2 13  4  6  5        2 -.214968880782D-09 0.100000000000D+01
-.303928523741D-01 0.000000000000D+00 0.000000000000D+00 0.113463203859D-03 0.000000000000D+00  6 1 2 25 1 2 21 2 0.39789551D+00 0.23975440D+00 0.40318128D+06 0.40318128D+06 0.40318128D+06 0.10751797D+01  1  2  8  4  6  5        2 -.741147227315D-02 0.100000000000D+01
-.398903017155D-01 0.000000000000D+00 0.000000000000D+00 0.113463203859D-03 0.000000000000D+00  6 1 2 25 1 2 21 2 0.39789551D+00 0.23975440D+00 0.40318128D+06 0.40318128D+06 0.40318128D+06 0.10751797D+01  1  2  9  4  6  5        2 -.972748004999D-02 0.100000000000D+01
0.425482159643D-01 0.000000000000D+00 0.000000000000D+00 0.113463203859D-03 0.000000000000D+00  6 1 2 25 1 2 21 2 0.39789551D+00 0.23975440D+00 0.40318128D+06 0.40318128D+06 0.40318128D+06 0.10751797D+01  1  2 10  4  6  5        2 0.103756277631D-01 0.100000000000D+01
0.108324948068D+00 0.000000000000D+00 0.000000000000D+00 0.113463203859D-03 0.107436133695D-04  6 1 2 25 1 2 21 2 0.39789551D+00 0.23975440D+00 0.40316213D+06 0.40316213D+06 0.40316213D+06 0.10751812D+01  1  2  1  4  6  5        2 0.264158597651D-01 0.100000000000D+01
  </mgrwgt>
  </event>
  <event>
  5     66 0.17698235E-05 0.30189978E+02 0.75467711E-02 0.88241226E-01
        1 -1    0    0  501    0 0.00000000E+00 0.00000000E+00 0.18177260E+04 0.18177260E+04 0.32000000E+00 0.0000E+00 0.9000E+01
        2 -1    0    0  502    0 0.00000000E+00 0.00000000E+00 -.21841422E+04 0.21841422E+04 0.32000000E+00 0.0000E+00 0.9000E+01
       25  1    1    2    0    0 0.18198200E+03 0.77430036E+03 0.27208431E+03 0.84989021E+03 0.12500000E+03 0.0000E+00 0.9000E+01
        1  1    1    2  501    0 0.20908079E+02 -.21781574E+02 0.11764086E+04 0.11767960E+04 0.32000000E+00 0.0000E+00 0.9000E+01
        2  1    1    2  502    0 -.20289007E+03 -.75251879E+03 -.18149091E+04 0.19751820E+04 0.32000000E+00 0.0000E+00 0.9000E+01
#aMCatNLO 1  0  0  1  4 0.30864113D+02 0.00000000D+00  -5  6  0 0.00000000D+00 0.00000000D+00 0.00000000D+00 0.00000000D+00 0.00000000D+00
  <mgrwgt>
 0.1059501661D-01    7    2    0
 0.199252906180741D+04 0.000000000000000D+00 0.000000000000000D+00 0.199252906180741D+04
 0.199252906180741D+04 0.000000000000000D+00 0.000000000000000D+00 -.199252906180741D+04
 0.878583406349788D+03 0.181998716488557D+03 0.774356168025331D+03 0.351472323449286D+03
 0.128982173752259D+04 0.209063587749921D+02 -.217797821973951D+02 0.128946837101032D+04
 0.181665297974245D+04 -.202905075263549D+03 -.752576385827936D+03 -.164094069445960D+04
 0.000000000000000D+00 -.000000000000000D+00 0.000000000000000D+00 0.000000000000000D+00
 0.216883626482041D+04 0.000000000000000D+00 0.000000000000000D+00 0.216883626482041D+04
 0.202844916264506D+04 0.000000000000000D+00 0.000000000000000D+00 -.202844916264506D+04
 0.871274079960865D+03 0.212014133610067D+03 0.758294623092097D+03 0.351472323449286D+03
 0.129191590663971D+04 0.651910693266028D+02 -.454769663977859D+02 0.128946837101032D+04
 0.182488578859887D+04 -.140441528402733D+03 -.786001244144339D+03 -.164094069445960D+04
 0.209209652266027D+03 -.136763674533937D+03 0.731835874500281D+02 0.140387102175347D+03
0.790461218543D-02 0.000000000000D+00 0.000000000000D+00 0.111296471148D-03 0.000000000000D+00  6 1 2 25 1 2 21 0 0.27965016D+00 0.33602187D+00 0.65194124D+06 0.65194124D+06 0.65194124D+06 0.10604600D+01  1  2  2  1  6  1        1 0.239750643946D-02 0.100000000000D+01
0.641247423362D-02 0.000000000000D+00 -.303557921242D-04 0.111296471148D-03 0.000000000000D+00  6 1 2 25 1 2 21 2 0.27965016D+00 0.33602187D+00 0.65194124D+06 0.65194124D+06 0.65194124D+06 0.10604600D+01  1  2  3  1  6  1        1 0.218722498178D-02 0.100000000000D+01
-.502102099543D-02 0.000000000000D+00 0.000000000000D+00 0.111296471148D-03 0.000000000000D+00  6 1 2 25 1 2 21 2 0.27965016D+00 0.33602187D+00 0.65194124D+06 0.65194124D+06 0.65194124D+06 0.10604600D+01  1  2 15  1  6  1        1 -.171261546715D-02 0.100000000000D+01
-.224596190600D-03 0.000000000000D+00 0.000000000000D+00 0.111296471148D-03 0.000000000000D+00  6 1 2 25 1 2 21 2 0.27965016D+00 0.33602187D+00 0.65194124D+06 0.65194124D+06 0.65194124D+06 0.10604600D+01  1  2  4  1  6  1        1 -.766073095961D-04 0.100000000000D+01
-.930428212644D-01 0.000000000000D+00 -.180787931341D-01 0.111296471148D-03 0.000000000000D+00  6 1 2 25 1 2 21 2 0.30654498D+00 0.33602187D+00 0.65194124D+06 0.65194124D+06 0.65194124D+06 0.10604600D+01  1  2  5  1  6  1        1 -.242203140294D-01 0.100000000000D+01
0.943806788970D-01 0.000000000000D+00 0.180028411453D-01 0.111296471148D-03 0.000000000000D+00  6 1 2 25 1 2 21 2 0.27965016D+00 0.33602187D+00 0.65194124D+06 0.65194124D+06 0.65194124D+06 0.10604600D+01  1  2  6  1  6  1        1 0.321922195957D-01 0.100000000000D+01
-.135247609461D-02 0.000000000000D+00 -.272669210539D-03 0.111296471148D-03 0.000000000000D+00  6 21 2 25 1 2 -1 2 0.30654498D+00 0.33602187D+00 0.65194124D+06 0.65194124D+06 0.65194124D+06 0.10604600D+01  1  2  5  5  6  1        1 -.172397598379D-03 0.100000000000D+01
  </mgrwgt>
  </event>
  <event>
  6     66 0.17698235E-05 0.10881739E+03 0.75467711E-02 0.94866481E-01
        1 -1    0    0  501    0 0.00000000E+00 0.00000000E+00 0.26612780E+04 0.26612780E+04 0.32000000E+00 0.0000E+00 0.9000E+01
        2 -1    0    0  502    0 0.00000000E+00 0.00000000E+00 -.13000240E+04 0.13000240E+04 0.32000000E+00 0.0000E+00 0.9000E+01
       25  1    1    2    0    0 0.35496767E+03 -.32536832E+03 0.22580300E+03 0.54633194E+03 0.12500000E+03 0.0000E+00 0.9000E+01
        1  1    1    2  503    0 -.19759816E+03 0.18372005E+03 0.15659639E+04 0.15890378E+04 0.32000000E+00 0.0000E+00 0.9000E+01
        2  1    1    2  502    0 -.89386609E+02 0.81697376E+02 -.11220067E+04 0.11285228E+04 0.32000000E+00 0.0000E+00 0.9000E+01
       21  1    1    2  501  503 -.67982902E+02 0.59950899E+02 0.69149379E+03 0.69740950E+03 0.75000000E+00 0.0000E+00 0.9000E+01
#aMCatNLO 2  0  0  4  1 0.19606464D+02 0.00000000D+00  -5  6  0 0.00000000D+00 0.00000000D+00 0.00000000D+00 0.00000000D+00 0.00000000D+00
  <mgrwgt>
 0.1358192262D-01    3    2    0
 0.186003371096934D+04 0.000000000000000D+00 0.000000000000000D+00 0.186003371096934D+04
 0.186003371096934D+04 -.000000000000000D+00 -.000000000000000D+00 -.186003371096934D+04
 0.499167224308495D+03 0.354983082285213D+03 -.325382372531517D+03 0.406969379793829D+02
 0.160828443488618D+04 -.265611823850375D+03 0.243699165995352D+03 0.156736718704368D+04
 0.161261576274401D+04 -.893712584348377D+02 0.816832065361647D+02 -.160806412502306D+04
 0.000000000000000D+00 0.000000000000000D+00 0.000000000000000D+00 0.000000000000000D+00
 0.186003371096934D+04 0.000000000000000D+00 0.000000000000000D+00 0.186003371096934D+04
 0.186003371096934D+04 -.000000000000000D+00 -.000000000000000D+00 -.186003371096934D+04
 0.499156870258400D+03 0.354970572397166D+03 -.325370894694275D+03 0.407707584432225D+02
 0.111884891680463D+04 -.197565451993520D+03 0.183690487421062D+03 0.108584004146306D+04
 0.161238208471966D+04 -.894116705236995D+02 0.817202846760192D+02 -.160782565453209D+04
 0.489679550156001D+03 -.679934498799464D+02 0.599601225971935D+02 0.481214854625807D+03
-.860407708009D-01 0.000000000000D+00 0.000000000000D+00 0.319990691279D-03 0.000000000000D+00  6 1 2 25 1 2 21 2 0.40942739D+00 0.20000370D+00 0.23963074D+06 0.23963074D+06 0.23963074D+06 0.10918458D+01  1  2 13  3  6  4        1 -.280488418046D-01 0.100000000000D+01
-.241263802836D-09 0.000000000000D+00 0.000000000000D+00 0.319990691279D-03 0.000000000000D+00  6 1 2 25 1 2 21 2 0.40942739D+00 0.20000370D+00 0.23963074D+06 0.23963074D+06 0.23963074D+06 0.10918458D+01  1  2 13  3  6  4        1 -.786507393636D-10 0.100000000000D+01
0.127703778009D+00 0.000000000000D+00 0.000000000000D+00 0.319990691279D-03 0.402215065862D-05  6 1 2 25 1 2 21 2 0.40942739D+00 0.20000370D+00 0.23963074D+06 0.23963074D+06 0.23963074D+06 0.10918458D+01  1  2  1  3  6  4        1 0.416307645070D-01 0.100000000000D+01
  </mgrwgt>
  </event>
  <event>
  6     66 0.17698235E-05 0.72581329E+02 0.75467711E-02 0.94296119E-01
        1 -1    0    0  501    0 0.00000000E+00 0.00000000E+00 0.59056765E+03 0.59056774E+03 0.32000000E+00 0.0000E+00 0.9000E+01
        2 -1    0    0  502    0 -.00000000E+00 -.00000000E+00 -.12031901E+04 0.12031901E+04 0.32000000E+00 0.0000E+00 0.9000E+01
       25  1    1    2    0    0 -.50017787E+02 0.49292882E+03 -.99195475E+02 0.52052410E+03 0.12500000E+03 0.0000E+00 0.9000E+01
        1  1    1    2  501    0 0.22565660E+02 0.32928774E+00 0.30729078E+03 0.30811855E+03 0.32000000E+00 0.0000E+00 0.9000E+01
        2  1    1    2  503    0 0.29772811E+02 -.16684874E+03 -.18771952E+03 0.25291034E+03 0.32000000E+00 0.0000E+00 0.9000E+01
       21  1    1    2  502  503 -.23206847E+01 -.32640937E+03 -.63299818E+03 0.71220483E+03 0.75000000E+00 0.0000E+00 0.9000E+01
#aMCatNLO 2  0  0  5  2 0.16062260D+02 0.00000000D+00  -5  6  0 0.00000000D+00 0.00000000D+00 0.00000000D+00 0.00000000D+00 0.00000000D+00
  <mgrwgt>
 0.1856105825D-01    1    2    0
 0.842950320059907D+03 0.000000000000000D+00 0.000000000000000D+00 0.842950320059907D+03
 0.842950320059907D+03 -.000000000000000D+00 -.000000000000000D+00 -.842950320059907D+03
 0.520142997648800D+03 -.501306670151483D+02 0.495018970955733D+03 0.858304877163279D+02
 0.441197764440712D+03 0.224646711154968D+02 0.204311799547196D+01 0.440620734382769D+03
 0.724559878030303D+03 0.276659958996515D+02 -.497062088951205D+03 -.526451222099097D+03
 0.000000000000000D+00 0.000000000000000D+00 0.000000000000000D+00 -.000000000000000D+00
 0.842950320059907D+03 0.000000000000000D+00 0.000000000000000D+00 0.842950320059907D+03
 0.842950320059907D+03 -.000000000000000D+00 -.000000000000000D+00 -.842950320059907D+03
 0.517863039303946D+03 -.500183846077204D+02 0.493001645131243D+03 0.836938861341883D+02
 0.439387828386842D+03 0.225599251571778D+02 0.331732903435525D+00 0.438808162486397D+03
 0.200465735680299D+03 0.297267300978360D+02 -.166532262431058D+03 -.107563182684072D+03
 0.528184036748727D+03 -.226827064729344D+01 -.326801115603620D+03 -.414938865936514D+03
0.161510238387D-02 0.000000000000D+00 0.000000000000D+00 0.115909513146D-04 0.488224013522D-08  6 1 2 25 1 2 21 2 0.90856572D-01 0.18510617D+00 0.26501452D+06 0.26501452D+06 0.26501452D+06 0.10885587D+01  1  2  1  4  6  5        2 0.185610582494D-01 0.100000000000D+01
  </mgrwgt>
  </event>
  <event>
  5     66 0.17698235E-05 0.19003698E+02 0.75467711E-02 0.94116394E-01
        1 -1    0    0  501    0 0.00000000E+00 0.00000000E+00 0.11816079E+04 0.11816079E+04 0.32000000E+00 0.0000E+00 0.9000E+01
        2 -1    0    0  502    0 0.00000000E+00 0.00000000E+00 -.81267765E+03 0.81267771E+03 0.32000000E+00 0.0000E+00 0.9000E+01
       25  1    1    2    0    0 0.45974741E+03 -.20952189E+03 0.31133530E+03 0.60648311E+03 0.12500000E+03 0.0000E+00 0.9000E+01
        1  1    1    2  501    0 0.87026050E+01 0.16899650E+02 0.62610161E+03 0.62639018E+03 0.32000000E+00 0.0000E+00 0.9000E+01
        2  1    1    2  502    0 -.46845001E+03 0.19262224E+03 -.56850670E+03 0.76141231E+03 0.32000000E+00 0.0000E+00 0.9000E+01
#aMCatNLO 1  0  0  4  1 0.18891590D+01 0.00000000D+00  -5  6  0 0.00000000D+00 0.00000000D+00 0.00000000D+00 0.00000000D+00 0.00000000D+00
  <mgrwgt>
 0.4963271633D-01    9    2    0
 0.979931835224726D+03 0.000000000000000D+00 0.000000000000000D+00 0.979931835224726D+03
 0.979931835224726D+03 -.000000000000000D+00 -.000000000000000D+00 -.979931835224726D+03
 0.558641026045198D+03 0.459820971922163D+03 -.209548153337227D+03 0.202753646562392D+03
 0.519393797399610D+03 0.870028099151091D+01 0.168951365918272D+02 0.519046025172527D+03
 0.881828847004643D+03 -.468521252913674D+03 0.192653016745400D+03 -.721799671734919D+03
 0.000000000000000D+00 0.000000000000000D+00 0.000000000000000D+00 0.000000000000000D+00
 0.979931835224726D+03 0.000000000000000D+00 0.000000000000000D+00 0.979931835224726D+03
 0.979931835224726D+03 -.000000000000000D+00 -.000000000000000D+00 -.979931835224726D+03
 0.558642749383710D+03 0.459821051165484D+03 -.209547999454067D+03 0.202758374102917D+03
 0.367384539040752D+03 0.596495905833275D+01 0.100717505048581D+02 0.367198010113598D+03
 0.881822725371561D+03 -.468521127826734D+03 0.192653259652604D+03 -.721792209231243D+03
 0.152013656653428D+03 0.273511760291707D+01 0.682298929660401D+01 0.151835825014728D+03
0.665472452630D-05 0.000000000000D+00 0.000000000000D+00 0.285100540454D-04 0.000000000000D+00  6 1 2 25 1 2 21 0 0.18178583D+00 0.12502734D+00 0.27360024D+06 0.27360024D+06 0.27360024D+06 0.10875241D+01  1  2  2  3  6  4        1 0.360297899761D-04 0.100000000000D+01
0.492385325505D-05 0.000000000000D+00 -.255558944102D-07 0.285100540454D-04 0.000000000000D+00  6 1 2 25 1 2 21 2 0.18178583D+00 0.12502734D+00 0.27360024D+06 0.27360024D+06 0.27360024D+06 0.10875241D+01  1  2  3  3  6  4        1 0.315293122286D-04 0.100000000000D+01
-.366587333478D-05 0.000000000000D+00 0.000000000000D+00 0.285100540454D-04 0.000000000000D+00  6 1 2 25 1 2 21 2 0.18178583D+00 0.12502734D+00 0.27360024D+06 0.27360024D+06 0.27360024D+06 0.10875241D+01  1  2 15  3  6  4        1 -.234739865255D-04 0.100000000000D+01
0.247390347833D-04 0.000000000000D+00 0.000000000000D+00 0.285100540454D-04 0.000000000000D+00  6 1 2 25 1 2 21 2 0.18178583D+00 0.12502734D+00 0.27362779D+06 0.27362779D+06 0.27362779D+06 0.10875208D+01  1  2 12  3  6  4        1 0.158411720998D-03 0.100000000000D+01
0.177194081823D-10 0.000000000000D+00 0.000000000000D+00 0.285100540454D-04 0.000000000000D+00  6 1 2 25 1 2 21 2 0.18178583D+00 0.12502734D+00 0.27362779D+06 0.27362779D+06 0.27362779D+06 0.10875208D+01  1  2 12  3  6  4        1 0.113462872331D-09 0.100000000000D+01
-.187091426904D-01 0.000000000000D+00 0.000000000000D+00 0.285100540454D-04 0.000000000000D+00  6 1 2 25 1 2 21 2 0.18178583D+00 0.12502734D+00 0.27360024D+06 0.27360024D+06 0.27360024D+06 0.10875241D+01  1  2  4  3  6  4        1 -.119801783453D+00 0.100000000000D+01
-.302160414594D-01 0.000000000000D+00 0.000000000000D+00 0.285100540454D-04 0.000000000000D+00  6 1 2 25 1 2 21 2 0.18178583D+00 0.12502734D+00 0.27360024D+06 0.27360024D+06 0.27360024D+06 0.10875241D+01  1  2  5  3  6  4        1 -.193484849392D+00 0.100000000000D+01
0.402797725253D-01 0.000000000000D+00 -.000000000000D+00 0.285100540454D-04 0.000000000000D+00  6 1 2 25 1 2 21 2 0.18178583D+00 0.12502734D+00 0.27360024D+06 0.27360024D+06 0.27360024D+06 0.10875241D+01  1  2  6  3  6  4        1 0.257926761554D+00 0.100000000000D+01
0.163649866420D-01 0.000000000000D+00 0.000000000000D+00 0.285100540454D-04 0.146519324095D-04  6 1 2 25 1 2 21 2 0.18178583D+00 0.12502734D+00 0.27362779D+06 0.27362779D+06 0.27362779D+06 0.10875208D+01  1  2 11  3  6  4        1 0.104790090671D+00 0.100000000000D+01
  </mgrwgt>
  </event>
  <event>
  5     66 0.17698235E-05 0.11986592E+03 0.75467711E-02 0.92019616E-01
        1 -1    0    0  501    0 0.00000000E+00 0.00000000E+00 0.83386565E+03 0.83386571E+03 0.32000000E+00 0.0000E+00 0.9000E+01
        2 -1    0    0  502    0 0.00000000E+00 0.00000000E+00 -.27854114E+04 0.27854114E+04 0.32000000E+00 0.0000E+00 0.9000E+01
       25  1    1    2    0    0 -.46030110E+03 -.39175606E+03 -.88086712E+03 0.10755937E+04 0.12500000E+03 0.0000E+00 0.9000E+01
        1  1    1    2  501    0 0.43394788E+03 0.27483096E+03 0.64459666E+03 0.82422556E+03 0.32000000E+00 0.0000E+00 0.9000E+01
        2  1    1    2  502    0 0.26353217E+02 0.11692510E+03 -.17152753E+04 0.17194579E+04 0.32000000E+00 0.0000E+00 0.9000E+01
#aMCatNLO 1  0  0  1  1 0.12738687D+02 0.00000000D+00  -5  6  0 0.00000000D+00 0.00000000D+00 0.00000000D+00 0.00000000D+00 0.00000000D+00
  <mgrwgt>
 0.3099785928D-02    7    2    0
 0.152402723872148D+04 0.000000000000000D+00 0.000000000000000D+00 0.152402723872148D+04
 0.152402723872148D+04 0.000000000000000D+00 0.000000000000000D+00 -.152402723872148D+04
 0.713155065083421D+03 -.460298591274563D+03 -.391760515248851D+03 -.357231091055559D+03
 0.139138384497832D+04 0.433943102616837D+03 0.274827937774139D+03 0.129310169452242D+04
 0.943515567381210D+03 0.263554886577263D+02 0.116932577474712D+03 -.935870603466857D+03
 0.000000000000000D+00 -.000000000000000D+00 0.000000000000000D+00 0.000000000000000D+00
 0.153356953867997D+04 0.000000000000000D+00 0.000000000000000D+00 0.153356953867997D+04
 0.152829792876312D+04 0.000000000000000D+00 0.000000000000000D+00 -.152829792876312D+04
 0.711373604493597D+03 -.457331241243643D+03 -.391996796588972D+03 -.357231091055559D+03
 0.139311267584440D+04 0.439743319919317D+03 0.274366083559792D+03 0.129310169452242D+04
 0.943594816288077D+03 0.302864148475043D+02 0.116619569404090D+03 -.935870603466857D+03
 0.137863708170150D+02 -.126984935231777D+02 0.101114362508979D+01 0.527160991685622D+01
0.111545248508D-02 0.000000000000D+00 0.000000000000D+00 0.182346265654D-04 0.000000000000D+00  6 1 2 25 1 2 21 0 0.12828703D+00 0.42852484D+00 0.39109339D+06 0.39109339D+06 0.39109339D+06 0.10761333D+01  1  2  2  1  6  1        1 0.799059628215D-03 0.100000000000D+01
0.238976813903D-03 0.000000000000D+00 -.428363124808D-05 0.182346265654D-04 0.000000000000D+00  6 1 2 25 1 2 21 2 0.12828703D+00 0.42852484D+00 0.39109339D+06 0.39109339D+06 0.39109339D+06 0.10761333D+01  1  2  3  1  6  1        1 0.198251300002D-03 0.100000000000D+01
-.823928179694D-03 0.000000000000D+00 0.000000000000D+00 0.182346265654D-04 0.000000000000D+00  6 1 2 25 1 2 21 2 0.12828703D+00 0.42852484D+00 0.39109339D+06 0.39109339D+06 0.39109339D+06 0.10761333D+01  1  2 15  1  6  1        1 -.683517493037D-03 0.100000000000D+01
-.268184319343D+00 0.000000000000D+00 -.310893916367D-01 0.182346265654D-04 0.000000000000D+00  6 1 2 25 1 2 21 2 0.12940979D+00 0.42852484D+00 0.39109339D+06 0.39109339D+06 0.39109339D+06 0.10761333D+01  1  2  5  1  6  1        1 -.219339691177D+00 0.100000000000D+01
0.268446216774D+00 0.000000000000D+00 0.310882113410D-01 0.182346265654D-04 0.000000000000D+00  6 1 2 25 1 2 21 2 0.12828703D+00 0.42852484D+00 0.39109339D+06 0.39109339D+06 0.39109339D+06 0.10761333D+01  1  2  6  1  6  1        1 0.222698640035D+00 0.100000000000D+01
0.120341316379D-10 0.000000000000D+00 0.000000000000D+00 0.182346265654D-04 0.000000000000D+00  6 21 2 25 1 2 -1 2 0.12938091D+00 0.42852484D+00 0.40114219D+06 0.40114219D+06 0.40114219D+06 0.10753384D+01  1  2 12  5  6  1        1 0.159113440166D-10 0.100000000000D+01
-.431625629011D-03 0.000000000000D+00 -.501379100346D-04 0.182346265654D-04 0.000000000000D+00  6 21 2 25 1 2 -1 2 0.12940979D+00 0.42852484D+00 0.39109339D+06 0.39109339D+06 0.39109339D+06 0.10761333D+01  1  2  5  5  6  1        1 -.572956381377D-03 0.100000000000D+01
  </mgrwgt>
  </event>
  <event>
  5     66 0.17698235E-05 0.44419893E+02 0.75467711E-02 0.88436135E-01
        1 -1    0    0  501    0 0.00000000E+00 0.00000000E+00 0.22462699E+03 0.22462722E+03 0.32000000E+00 0.0000E+00 0.9000E+01
        2 -1    0    0  502    0 0.00000000E+00 0.00000000E+00 -.25690930E+04 0.25690930E+04 0.32000000E+00 0.0000E+00 0.9000E+01
       25  1    1    2    0    0 0.66651197E+03 -.13419499E+02 -.80555843E+03 0.10530753E+04 0.12500000E+03 0.0000E+00 0.9000E+01
        1  1    1    2  501    0 -.44260138E+02 0.46007401E+01 0.29430383E+02 0.53351443E+02 0.32000000E+00 0.0000E+00 0.9000E+01
        2  1    1    2  502    0 -.62225184E+03 0.88187586E+01 -.15683380E+04 0.16872935E+04 0.32000000E+00 0.0000E+00 0.9000E+01
#aMCatNLO 1  0  0  2  5 0.12005636D+03 0.00000000D+00  -5  6  0 0.00000000D+00 0.00000000D+00 0.00000000D+00 0.00000000D+00 0.00000000D+00
  <mgrwgt>
 0.5295984309D-02    7    2    0
 0.759663064934282D+03 0.000000000000000D+00 0.000000000000000D+00 0.759663064934282D+03
 0.759663064934282D+03 0.000000000000000D+00 0.000000000000000D+00 -.759663064934282D+03
 0.693450861525755D+03 0.666592602270972D+03 -.134161600937399D+02 0.143956266264324D+03
 0.143261711329801D+03 -.441818395800546D+02 0.459260115646738D+01 0.136201288536794D+03
 0.682613557013007D+03 -.622410762690918D+03 0.882355893727250D+01 -.280157554801118D+03
 0.000000000000000D+00 -.000000000000000D+00 -.000000000000000D+00 -.000000000000000D+00
 0.962929342610582D+03 0.000000000000000D+00 0.000000000000000D+00 0.962929342610582D+03
 0.997259028863269D+03 0.000000000000000D+00 0.000000000000000D+00 -.997259028863269D+03
 0.731742403351046D+03 0.686815017572488D+03 0.165480119356084D+03 0.143956266264324D+03
 0.147805618014704D+03 -.400518141584031D+02 0.411286019729107D+02 0.136201288536794D+03
 0.689054237145945D+03 -.602947833365614D+03 0.181001095179977D+03 -.280157554801118D+03
 0.391586112962156D+03 -.438153700484709D+02 -.387609816508971D+03 -.343296862526866D+02
0.466345574963D-03 0.000000000000D+00 0.000000000000D+00 0.137310251276D-06 0.000000000000D+00  6 1 2 25 1 2 21 0 0.34558017D-01 0.39524510D+00 0.45241583D+06 0.45241583D+06 0.45241583D+06 0.10715936D+01  1  2  2  2  6  2        2 0.283240429089D-02 0.100000000000D+01
0.129818926145D-03 0.000000000000D+00 -.179088979947D-05 0.137310251276D-06 0.000000000000D+00  6 1 2 25 1 2 21 2 0.34558017D-01 0.39524510D+00 0.45241583D+06 0.45241583D+06 0.45241583D+06 0.10715936D+01  1  2  3  2  6  2        2 0.905410612009D-03 0.100000000000D+01
-.283040273140D-03 0.000000000000D+00 0.000000000000D+00 0.137310251276D-06 0.000000000000D+00  6 1 2 25 1 2 21 2 0.34558017D-01 0.39524510D+00 0.45241583D+06 0.45241583D+06 0.45241583D+06 0.10715936D+01  1  2 15  2  6  2        2 -.197403933723D-02 0.100000000000D+01
-.142400651537D-04 0.000000000000D+00 0.000000000000D+00 0.137310251276D-06 0.000000000000D+00  6 1 2 25 1 2 21 2 0.34558017D-01 0.39524510D+00 0.45241583D+06 0.45241583D+06 0.45241583D+06 0.10715936D+01  1  2  4  2  6  2        2 -.993160742334D-04 0.100000000000D+01
-.571004376933D-03 0.000000000000D+00 -.259304131669D-03 0.137310251276D-06 0.000000000000D+00  6 1 2 25 1 2 21 2 0.34558017D-01 0.55797206D+00 0.45241583D+06 0.45241583D+06 0.45241583D+06 0.10715936D+01  1  2  5  2  6  2        2 -.809517852191D-03 0.100000000000D+01
0.636864376736D-03 0.000000000000D+00 0.244618283199D-03 0.137310251276D-06 0.000000000000D+00  6 1 2 25 1 2 21 2 0.34558017D-01 0.39524510D+00 0.45241583D+06 0.45241583D+06 0.45241583D+06 0.10715936D+01  1  2  6  2  6  2        2 0.444175423593D-02 0.100000000000D+01
-.172273645001D-04 0.000000000000D+00 -.110813813307D-04 0.137310251276D-06 0.000000000000D+00  6 1 21 25 1 2 -2 2 0.34558017D-01 0.55797206D+00 0.45241583D+06 0.45241583D+06 0.45241583D+06 0.10715936D+01  1  2  5  6  6  2        2 -.711565739801D-06 0.100000000000D+01
  </mgrwgt>
  </event>
  <event>
  5     66 -.17698235E-05 0.10755226E+03 0.75467711E-02 0.93539276E-01
        1 -1    0    0  501    0 0.00000000E+00 0.00000000E+00 0.12434311E+04 0.12434312E+04 0.32000000E+00 0.0000E+00 0.9000E+01
        2 -1    0    0  502    0 0.00000000E+00 0.00000000E+00 -.47870113E+03 0.47870124E+03 0.32000000E+00 0.0000E+00 0.9000E+01
       25  1    1    2    0    0 -.47907743E+03 -.25534652E+03 0.57906525E+02 0.56008499E+03 0.12500000E+03 0.0000E+00 0.9000E+01
        1  1    1    2  501    0 0.39369837E+03 0.18996669E+03 0.86592852E+03 0.97000930E+03 0.32000000E+00 0.0000E+00 0.9000E+01
        2  1    1    2  502    0 0.85379060E+02 0.65379835E+02 -.15910506E+03 0.19203810E+03 0.32000000E+00 0.0000E+00 0.9000E+01
#aMCatNLO 1  0  0  5  2 0.24006458D+01 0.00000000D+00  -5  6  0 0.00000000D+00 0.00000000D+00 0.00000000D+00 0.00000000D+00 0.00000000D+00
  <mgrwgt>
 -.1603748621D-02    9    2    0
 0.771512802094030D+03 0.000000000000000D+00 0.000000000000000D+00 0.771512802094030D+03
 0.771512802094030D+03 -.000000000000000D+00 -.000000000000000D+00 -.771512802094030D+03
 0.596373626324302D+03 -.479075246588425D+03 -.255348272355519D+03 -.212886519269046D+03
 0.653420280023120D+03 0.393683296528647D+03 0.189959414239352D+03 0.485681938434684D+03
 0.293231697840639D+03 0.853919500597781D+02 0.653888581161669D+02 -.272795419165637D+03
 0.000000000000000D+00 0.000000000000000D+00 0.000000000000000D+00 -.000000000000000D+00
 0.771512802094030D+03 0.000000000000000D+00 0.000000000000000D+00 0.771512802094030D+03
 0.771512802094030D+03 -.000000000000000D+00 -.000000000000000D+00 -.771512802094030D+03
 0.596373719162994D+03 -.479065259436879D+03 -.255340624697455D+03 -.212918424491849D+03
 0.653403326513605D+03 0.393694238867317D+03 0.189967793331646D+03 0.485646981745417D+03
 0.372315780161032D+02 0.130889165653431D+02 0.848315283091422D+01 -.338069043652628D+02
 0.256016980495358D+03 0.722821040042194D+02 0.568896785348951D+02 -.238921652888306D+03
0.256130478705D-05 0.000000000000D+00 0.000000000000D+00 0.445706505532D-06 0.000000000000D+00  6 1 2 25 1 2 21 0 0.19129711D+00 0.73646339D-01 0.30346410D+06 0.30346410D+06 0.30346410D+06 0.10841832D+01  1  2  2  4  6  5        2 0.234625731328D-04 0.100000000000D+01
0.337332776307D-06 0.000000000000D+00 -.983608478929D-08 0.445706505532D-06 0.000000000000D+00  6 1 2 25 1 2 21 2 0.19129711D+00 0.73646339D-01 0.30346410D+06 0.30346410D+06 0.30346410D+06 0.10841832D+01  1  2  3  4  6  5        2 0.363227097248D-05 0.100000000000D+01
-.155671196004D-05 0.000000000000D+00 0.000000000000D+00 0.445706505532D-06 0.000000000000D+00  6 1 2 25 1 2 21 2 0.19129711D+00 0.73646339D-01 0.30346410D+06 0.30346410D+06 0.30346410D+06 0.10841832D+01  1  2 15  4  6  5        2 -.167620820213D-04 0.100000000000D+01
0.592836301711D-06 0.000000000000D+00 0.000000000000D+00 0.445706505532D-06 0.000000000000D+00  6 1 2 25 1 2 21 2 0.19129711D+00 0.73646339D-01 0.30348125D+06 0.30348125D+06 0.30348125D+06 0.10841814D+01  1  2 12  4  6  5        2 0.638339912201D-05 0.100000000000D+01
0.912308444419D-10 0.000000000000D+00 0.000000000000D+00 0.445706505532D-06 0.000000000000D+00  6 1 2 25 1 2 21 2 0.19129711D+00 0.73646339D-01 0.30348125D+06 0.30348125D+06 0.30348125D+06 0.10841814D+01  1  2 12  4  6  5        2 0.982333387193D-09 0.100000000000D+01
-.527068193026D-03 0.000000000000D+00 0.000000000000D+00 0.445706505532D-06 0.000000000000D+00  6 1 2 25 1 2 21 2 0.19129711D+00 0.73646339D-01 0.30346410D+06 0.30346410D+06 0.30346410D+06 0.10841832D+01  1  2  4  4  6  5        2 -.567526974105D-02 0.100000000000D+01
-.152152312103D-03 0.000000000000D+00 0.000000000000D+00 0.445706505532D-06 0.000000000000D+00  6 1 2 25 1 2 21 2 0.19129711D+00 0.73646339D-01 0.30346410D+06 0.30346410D+06 0.30346410D+06 0.10841832D+01  1  2  5  4  6  5        2 -.163831819930D-02 0.100000000000D+01
0.371188142695D-03 0.000000000000D+00 -.000000000000D+00 0.445706505532D-06 0.000000000000D+00  6 1 2 25 1 2 21 2 0.19129711D+00 0.73646339D-01 0.30346410D+06 0.30346410D+06 0.30346410D+06 0.10841832D+01  1  2  6  4  6  5        2 0.399681267500D-02 0.100000000000D+01
0.157538927448D-03 0.000000000000D+00 0.000000000000D+00 0.445706505532D-06 0.324692666658D-07  6 1 2 25 1 2 21 2 0.19129711D+00 0.73646339D-01 0.30348125D+06 0.30348125D+06 0.30348125D+06 0.10841814D+01  1  2 11  4  6  5        2 0.169630950105D-02 0.100000000000D+01
  </mgrwgt>
  </event>
  <event>
  5     66 0.17698235E-05 0.13468991E+03 0.75467711E-02 0.92639942E-01
        1 -1    0    0  501    0 0.00000000E+00 0.00000000E+00 0.32725347E+03 0.32725363E+03 0.32000000E+00 0.0000E+00 0.9000E+01
        2 -1    0    0  502    0 0.00000000E+00 0.00000000E+00 -.22689424E+04 0.22689424E+04 0.32000000E+00 0.0000E+00 0.9000E+01
       25  1    1    2    0    0 -.93230619E+02 0.45371009E+03 -.13973017E+04 0.14773699E+04 0.12500000E+03 0.0000E+00 0.9000E+01
        1  1    1    2  501    0 0.10036448E+03 -.31921966E+03 0.18141191E+03 0.38063710E+03 0.32000000E+00 0.0000E+00 0.9000E+01
        2  1    1    2  502    0 -.71338560E+01 -.13449043E+03 -.72579912E+03 0.73818902E+03 0.32000000E+00 0.0000E+00 0.9000E+01
#aMCatNLO 1  0  0  2  5 0.38390110D+02 0.00000000D+00  -5  6  0 0.00000000D+00 0.00000000D+00 0.00000000D+00 0.00000000D+00 0.00000000D+00
  <mgrwgt>
 0.3240355088D-02    7    2    0
 0.861695709532661D+03 0.000000000000000D+00 0.000000000000000D+00 0.861695709532661D+03
 0.861695709532661D+03 0.000000000000000D+00 0.000000000000000D+00 -.861695709532661D+03
 0.651269185283628D+03 -.932299834870001D+02 0.453717048581840D+03 -.440426567892082D+03
 0.777791531135360D+03 0.100363377848040D+03 -.319216173455925D+03 0.702130965630328D+03
 0.294330702646335D+03 -.713339436104023D+01 -.134500875125915D+03 -.261704397738246D+03
 0.000000000000000D+00 0.000000000000000D+00 0.000000000000000D+00 -.000000000000000D+00
 0.895454256136467D+03 0.000000000000000D+00 0.000000000000000D+00 0.895454256136467D+03
 0.133467777783848D+04 0.000000000000000D+00 0.000000000000000D+00 -.133467777783848D+04
 0.659202932052552D+03 -.176438386081199D+03 0.440247021385205D+03 -.440426567892082D+03
 0.778045593147612D+03 0.157552872425235D+01 -.335208248449650D+03 0.702130965630328D+03
 0.300462393296057D+03 -.448997708697042D+02 -.140614610071303D+03 -.261704397738246D+03
 0.492421115478728D+03 0.219762628226650D+03 0.355758371357484D+02 -.439223521702015D+03
0.198759592788D-03 0.000000000000D+00 0.000000000000D+00 0.104234222688D-05 0.000000000000D+00  6 1 2 25 1 2 21 0 0.50346702D-01 0.34906807D+00 0.22518742D+06 0.22518742D+06 0.22518742D+06 0.10938907D+01  1  2  2  2  6  2        2 0.113414784904D-02 0.100000000000D+01
0.144502269385D-04 0.000000000000D+00 -.763289170907D-06 0.104234222688D-05 0.000000000000D+00  6 1 2 25 1 2 21 2 0.50346702D-01 0.34906807D+00 0.22518742D+06 0.22518742D+06 0.22518742D+06 0.10938907D+01  1  2  3  2  6  2        2 0.986652314149D-04 0.100000000000D+01
-.131110549619D-03 0.000000000000D+00 0.000000000000D+00 0.104234222688D-05 0.000000000000D+00  6 1 2 25 1 2 21 2 0.50346702D-01 0.34906807D+00 0.22518742D+06 0.22518742D+06 0.22518742D+06 0.10938907D+01  1  2 15  2  6  2        2 -.895214502455D-03 0.100000000000D+01
-.736205299871D-04 0.000000000000D+00 0.000000000000D+00 0.104234222688D-05 0.000000000000D+00  6 1 2 25 1 2 21 2 0.50346702D-01 0.34906807D+00 0.22518742D+06 0.22518742D+06 0.22518742D+06 0.10938907D+01  1  2  4  2  6  2        2 -.502676301139D-03 0.100000000000D+01
-.601693050534D-03 0.000000000000D+00 -.100285095094D-03 0.104234222688D-05 0.000000000000D+00  6 1 2 25 1 2 21 2 0.50346702D-01 0.54473670D+00 0.22518742D+06 0.22518742D+06 0.22518742D+06 0.10938907D+01  1  2  5  2  6  2        2 -.659879481151D-03 0.100000000000D+01
0.595540860383D-03 0.000000000000D+00 0.911124730118D-04 0.104234222688D-05 0.000000000000D+00  6 1 2 25 1 2 21 2 0.50346702D-01 0.34906807D+00 0.22518742D+06 0.22518742D+06 0.22518742D+06 0.10938907D+01  1  2  6  2  6  2        2 0.406631515594D-02 0.100000000000D+01
-.270699651010D-04 0.000000000000D+00 -.516776140226D-05 0.104234222688D-05 0.000000000000D+00  6 1 21 25 1 2 -2 2 0.50346702D-01 0.54473670D+00 0.22518742D+06 0.22518742D+06 0.22518742D+06 0.10938907D+01  1  2  5  6  6  2        2 -.100286322937D-05 0.100000000000D+01
  </mgrwgt>
  </event>
  <event>
  5     66 0.17698235E-05 0.91968667E+02 0.75467711E-02 0.94706279E-01
        1 -1    0    0  501    0 0.00000000E+00 0.00000000E+00 0.26049938E+04 0.26049939E+04 0.32000000E+00 0.0000E+00 0.9000E+01
        2 -1    0    0  502    0 0.00000000E+00 0.00000000E+00 -.21581305E+04 0.21581306E+04 0.32000000E+00 0.0000E+00 0.9000E+01
       25  1    1    2    0    0 0.39185324E+01 -.46315929E+03 -.81783764E+03 0.94816417E+03 0.12500000E+03 0.0000E+00 0.9000E+01
        1  1    1    2  501    0 0.77273205E+02 0.49870989E+02 0.25041828E+04 0.25058710E+04 0.32000000E+00 0.0000E+00 0.9000E+01
        2  1    1    2  502    0 -.81191738E+02 0.41328830E+03 -.12394818E+04 0.13090892E+04 0.32000000E+00 0.0000E+00 0.9000E+01
#aMCatNLO 1  0  0  2  5 0.10550310D+02 0.00000000D+00  -5  6  0 0.00000000D+00 0.00000000D+00 0.00000000D+00 0.00000000D+00 0.00000000D+00
  <mgrwgt>
 0.1014992859D+00    7    2    0
 0.237105817895784D+04 0.000000000000000D+00 0.000000000000000D+00 0.237105817895784D+04
 0.237105817895784D+04 0.000000000000000D+00 0.000000000000000D+00 -.237105817895784D+04
 0.102943088856914D+04 0.391982955263326D+01 -.463168727298900D+03 -.910803117764122D+03
 0.228099212798285D+04 0.772730767785776D+02 0.498709056744671D+02 0.227913730439658D+04
 0.143169334136368D+04 -.811929063312109D+02 0.413297821624433D+03 -.136833418663245D+04
 0.000000000000000D+00 -.000000000000000D+00 -.000000000000000D+00 -.000000000000000D+00
 0.241399621303738D+04 0.000000000000000D+00 0.000000000000000D+00 0.241399621303738D+04
 0.252680619453452D+04 0.000000000000000D+00 0.000000000000000D+00 -.252680619453452D+04
 0.101466515972802D+04 0.103551879383735D+02 -.429244495736188D+03 -.910803117764122D+03
 0.228443674031893D+04 0.916462619215173D+02 0.125639686813876D+03 0.227913730439658D+04
 0.144572151354470D+04 -.721340385587233D+02 0.461051980692063D+03 -.136833418663245D+04
 0.195978993980249D+03 -.298674113011675D+02 -.157447171769751D+03 -.112809981497134D+03
0.376171019828D+00 0.000000000000D+00 0.000000000000D+00 0.383974977782D-03 0.000000000000D+00  6 1 2 25 1 2 21 0 0.40076829D+00 0.33202009D+00 0.24647354D+06 0.24647354D+06 0.24647354D+06 0.10909236D+01  1  2  2  2  6  2        2 0.380605566585D-01 0.100000000000D+01
0.109222201923D+00 0.000000000000D+00 -.144459576424D-02 0.383974977782D-03 0.000000000000D+00  6 1 2 25 1 2 21 2 0.40076829D+00 0.33202009D+00 0.24647354D+06 0.24647354D+06 0.24647354D+06 0.10909236D+01  1  2  3  2  6  2        2 0.131519263447D-01 0.100000000000D+01
-.229495399156D+00 0.000000000000D+00 0.000000000000D+00 0.383974977782D-03 0.000000000000D+00  6 1 2 25 1 2 21 2 0.40076829D+00 0.33202009D+00 0.24647354D+06 0.24647354D+06 0.24647354D+06 0.10909236D+01  1  2 15  2  6  2        2 -.276345517029D-01 0.100000000000D+01
-.531542043067D-01 0.000000000000D+00 0.000000000000D+00 0.383974977782D-03 0.000000000000D+00  6 1 2 25 1 2 21 2 0.40076829D+00 0.33202009D+00 0.24647354D+06 0.24647354D+06 0.24647354D+06 0.10909236D+01  1  2  4  2  6  2        2 -.640053183001D-02 0.100000000000D+01
-.352781798763D+01 0.000000000000D+00 -.938336740599D+00 0.383974977782D-03 0.000000000000D+00  6 1 2 25 1 2 21 2 0.40076829D+00 0.35620902D+00 0.24647354D+06 0.24647354D+06 0.24647354D+06 0.10909236D+01  1  2  5  2  6  2        2 -.347063900908D+00 0.100000000000D+01
0.358724576214D+01 0.000000000000D+00 0.936021374202D+00 0.383974977782D-03 0.000000000000D+00  6 1 2 25 1 2 21 2 0.40076829D+00 0.33202009D+00 0.24647354D+06 0.24647354D+06 0.24647354D+06 0.10909236D+01  1  2  6  2  6  2        2 0.431956060336D+00 0.100000000000D+01
-.403949665256D-01 0.000000000000D+00 -.111675317310D-01 0.383974977782D-03 0.000000000000D+00  6 1 21 25 1 2 -2 2 0.40076829D+00 0.35620902D+00 0.24647354D+06 0.24647354D+06 0.24647354D+06 0.10909236D+01  1  2  5  6  6  2        2 -.570272980417D-03 0.100000000000D+01
  </mgrwgt>
  </event>
  <event>
  6     66 0.17698235E-05 0.11678807E+03 0.75467711E-02 0.93760083E-01
        1 -1    0    0  501    0 0.00000000E+00 0.00000000E+00 0.72820242E+03 0.72820249E+03 0.32000000E+00 0.0000E+00 0.9000E+01
        2 -1    0    0  503    0 0.00000000E+00 0.00000000E+00 -.82169077E+03 0.82169084E+03 0.32000000E+00 0.0000E+00 0.9000E+01
       25  1    1    2    0    0 0.40161442E+03 0.25921581E+03 -.68465893E+02 0.49879811E+03 0.12500000E+03 0.0000E+00 0.9000E+01
        1  1    1    2  501    0 0.11626664E+02 0.31117421E+01 0.34347439E+03 0.34368535E+03 0.32000000E+00 0.0000E+00 0.9000E+01
        2  1    1    2  502    0 -.30948524E+03 -.32801898E+03 -.18686005E+03 0.48815402E+03 0.32000000E+00 0.0000E+00 0.9000E+01
       21  1    1    2  503  502 -.10375584E+03 0.65691429E+02 -.18163680E+03 0.21925585E+03 0.75000000E+00 0.0000E+00 0.9000E+01
#aMCatNLO 2  0  0  2  2 0.12280325D+03 0.00000000D+00  -5  6  0 0.00000000D+00 0.00000000D+00 0.00000000D+00 0.00000000D+00 0.00000000D+00
  <mgrwgt>
 0.6092010342D-02    1    2    0
 0.661011595605215D+03 0.000000000000000D+00 0.000000000000000D+00 0.661011595605215D+03
 0.661011595605215D+03 0.000000000000000D+00 0.000000000000000D+00 -.661011595605215D+03
 0.488055000908279D+03 0.362830984073434D+03 0.283891062044783D+03 -.101647556778160D+03
 0.322117337964330D+03 -.135804528404619D+02 0.190664469296683D+02 0.321265655368501D+03
 0.511850852337821D+03 -.349250531232972D+03 -.302957508974452D+03 -.219618098590340D+03
 0.000000000000000D+00 -.000000000000000D+00 0.000000000000000D+00 -.000000000000000D+00
 0.681458834807937D+03 0.000000000000000D+00 0.000000000000000D+00 0.681458834807937D+03
 0.878051971222409D+03 0.000000000000000D+00 0.000000000000000D+00 -.878051971222409D+03
 0.504525457196515D+03 0.401697478605266D+03 0.259283333136851D+03 -.101647556778160D+03
 0.321490825150166D+03 0.116213259655550D+02 0.311032461078410D+01 0.321265655368501D+03
 0.501698278823782D+03 -.309562965915343D+03 -.328085086341951D+03 -.219618098590340D+03
 0.231796244859883D+03 -.103755838655478D+03 0.656914285943159D+02 -.196593136414473D+03
0.423846278419D-03 0.000000000000D+00 0.000000000000D+00 0.221303957763D-05 0.105378827601D-08  6 1 2 25 1 2 21 2 0.11203105D+00 0.12641387D+00 0.29164800D+06 0.29164800D+06 0.29164800D+06 0.10854602D+01  1  2  1  2  6  2        2 0.609201034231D-02 0.100000000000D+01
  </mgrwgt>
  </event>
  <event>
  5     66 0.17698235E-05 0.16667469E+03 0.75467711E-02 0.93080884E-01
        1 -1    0    0  501    0 0.00000000E+00 0.00000000E+00 0.24826448E+04 0.24826448E+04 0.32000000E+00 0.0000E+00 0.9000E+01
        2 -1    0    0  502    0 0.00000000E+00 0.00000000E+00 -.32625113E+03 0.32625129E+03 0.32000000E+00 0.0000E+00 0.9000E+01
       25  1    1    2    0    0 -.23389864E+03 -.48968103E+03 0.16361965E+04 0.17283692E+04 0.12500000E+03 0.0000E+00 0.9000E+01
        1  1    1    2  501    0 0.14894090E+03 0.34632149E+03 0.72459977E+03 0.81680285E+03 0.32000000E+00 0.0000E+00 0.9000E+01
        2  1    1    2  502    0 0.84957731E+02 0.14335954E+03 -.20440270E+03 0.26372398E+03 0.32000000E+00 0.0000E+00 0.9000E+01
#aMCatNLO 1  0  0  5  1 0.85592766D+02 0.00000000D+00  -5  6  0 0.00000000D+00 0.00000000D+00 0.00000000D+00 0.00000000D+00 0.00000000D+00
  <mgrwgt>
 0.1599804298D-02    7    2    0
 0.899981065388034D+03 0.000000000000000D+00 0.000000000000000D+00 0.899981065388034D+03
 0.899981065388034D+03 -.000000000000000D+00 -.000000000000000D+00 -.899981065388034D+03
 0.737008671580300D+03 -.233854256482604D+03 -.489568631236325D+03 0.482899082644520D+03
 0.406394943367010D+03 0.148880607448969D+03 0.346181284749128D+03 0.152151019744677D+03
 0.656558515828757D+03 0.849736490336347D+02 0.143387346487197D+03 -.635050102389197D+03
 0.000000000000000D+00 0.000000000000000D+00 0.000000000000000D+00 0.000000000000000D+00
 0.899981065388034D+03 0.000000000000000D+00 0.000000000000000D+00 0.899981065388034D+03
 0.899981065388034D+03 -.000000000000000D+00 -.000000000000000D+00 -.899981065388034D+03
 0.712964715256729D+03 -.230027074891699D+03 -.483110518408579D+03 0.454296661908132D+03
 0.404599229681621D+03 0.151021213612916D+03 0.349793414405947D+03 0.136153211258759D+03
 0.593811007278284D+03 0.118175209169912D+03 0.546372431717355D+02 -.579362497889785D+03
 0.885871785594336D+02 -.391693478911299D+02 0.786798608308965D+02 -.110873752771060D+02
0.222525455504D-02 0.000000000000D+00 0.000000000000D+00 0.155629343211D-06 0.000000000000D+00  6 1 2 25 1 2 21 0 0.38194536D+00 0.50192496D-01 0.30265426D+06 0.30265426D+06 0.30265426D+06 0.10842690D+01  1  2  2  4  6  5        2 0.455816444311D-02 0.100000000000D+01
0.251458651897D-03 0.000000000000D+00 -.854556341434D-05 0.155629343211D-06 0.000000000000D+00  6 1 2 25 1 2 21 2 0.38194536D+00 0.50192496D-01 0.30265426D+06 0.30265426D+06 0.30265426D+06 0.10842690D+01  1  2  3  4  6  5        2 0.605551264819D-03 0.100000000000D+01
-.128140710042D-02 0.000000000000D+00 0.000000000000D+00 0.155629343211D-06 0.000000000000D+00  6 1 2 25 1 2 21 2 0.38194536D+00 0.50192496D-01 0.30265426D+06 0.30265426D+06 0.30265426D+06 0.10842690D+01  1  2 15  4  6  5        2 -.308582617681D-02 0.100000000000D+01
0.184668608297D-05 0.000000000000D+00 0.000000000000D+00 0.155629343211D-06 0.000000000000D+00  6 1 2 25 1 2 21 2 0.38194536D+00 0.50192496D-01 0.32980443D+06 0.32980443D+06 0.32980443D+06 0.10815216D+01  1  2 12  4  6  5        2 0.440129510092D-05 0.100000000000D+01
-.854310524741D-03 0.000000000000D+00 0.000000000000D+00 0.155629343211D-06 0.000000000000D+00  6 1 2 25 1 2 21 2 0.38194536D+00 0.50192496D-01 0.30265426D+06 0.30265426D+06 0.30265426D+06 0.10842690D+01  1  2  4  4  6  5        2 -.205731166894D-02 0.100000000000D+01
-.454342671949D-02 0.000000000000D+00 0.000000000000D+00 0.155629343211D-06 0.000000000000D+00  6 1 2 25 1 2 21 2 0.38194536D+00 0.50192496D-01 0.30265426D+06 0.30265426D+06 0.30265426D+06 0.10842690D+01  1  2  5  4  6  5        2 -.109412731510D-01 0.100000000000D+01
0.519738193339D-02 0.000000000000D+00 -.000000000000D+00 0.155629343211D-06 0.000000000000D+00  6 1 2 25 1 2 21 2 0.38194536D+00 0.50192496D-01 0.30265426D+06 0.30265426D+06 0.30265426D+06 0.10842690D+01  1  2  6  4  6  5        2 0.125160982920D-01 0.100000000000D+01
  </mgrwgt>
  </event>
  <event>
  6     66 0.17698235E-05 0.75415243E+02 0.75467711E-02 0.91861826E-01
        1 -1    0    0  501    0 0.00000000E+00 0.00000000E+00 0.34475560E+03 0.34475575E+03 0.32000000E+00 0.0000E+00 0.9000E+01
        2 -1    0    0  502    0 -.00000000E+00 -.00000000E+00 -.22244210E+04 0.22244211E+04 0.32000000E+00 0.0000E+00 0.9000E+01
       25  1    1    2    0    0 0.49116479E+03 -.13984050E+03 -.92752251E+03 0.10661713E+04 0.12500000E+03 0.0000E+00 0.9000E+01
        1  1    1    2  503    0 -.51892198E+01 -.45713300E+02 0.16357403E+03 0.16992116E+03 0.32000000E+00 0.0000E+00 0.9000E+01
        2  1    1    2  502    0 -.56362351E+03 0.24583434E+03 -.10431597E+04 0.12109039E+04 0.32000000E+00 0.0000E+00 0.9000E+01
       21  1    1    2  501  503 0.77647933E+02 -.60280549E+02 -.72557239E+02 0.12218045E+03 0.75000000E+00 0.0000E+00 0.9000E+01
#aMCatNLO 2  0  0  4  2 0.88446114D+02 0.00000000D+00  -5  6  0 0.00000000D+00 0.00000000D+00 0.00000000D+00 0.00000000D+00 0.00000000D+00
  <mgrwgt>
 0.8420615132D-02    2    2    0
 0.875717897188991D+03 0.000000000000000D+00 0.000000000000000D+00 0.875717897188991D+03
 0.875717897188991D+03 -.000000000000000D+00 -.000000000000000D+00 -.875717897188991D+03
 0.572731929888753D+03 0.488356131934856D+03 -.135382821031003D+03 -.235746990830016D+03
 0.508444473284430D+03 0.792158499813363D+02 -.115878304196495D+03 0.488684816770238D+03
 0.670259391204800D+03 -.567571981916192D+03 0.251261125227498D+03 -.252937825940222D+03
 0.000000000000000D+00 0.000000000000000D+00 0.000000000000000D+00 0.000000000000000D+00
 0.875717897188991D+03 0.000000000000000D+00 0.000000000000000D+00 0.875717897188991D+03
 0.875717897188991D+03 -.000000000000000D+00 -.000000000000000D+00 -.875717897188991D+03
 0.568843111821846D+03 0.491514103649632D+03 -.140002356226232D+03 -.216265374093409D+03
 0.424303077692491D+03 -.530246631782700D+01 -.455717943356161D+02 0.421815359074679D+03
 0.656871028489131D+03 -.563900703047891D+03 0.245890715522983D+03 -.230289602870079D+03
 0.101418576374515D+03 0.776890657160859D+02 -.603165649611347D+02 0.247396178888093D+02
-.914763633128D-06 0.000000000000D+00 0.000000000000D+00 0.118217881153D-06 0.000000000000D+00  6 1 2 25 1 2 21 2 0.53039337D-01 0.34221863D+00 0.41315520D+06 0.41315520D+06 0.41315520D+06 0.10744160D+01  1  2 13  3  6  4        1 -.574725417225D-05 0.100000000000D+01
0.134118478825D-02 0.000000000000D+00 0.000000000000D+00 0.118217881153D-06 0.637786337512D-10  6 1 2 25 1 2 21 2 0.53039337D-01 0.34221863D+00 0.41315520D+06 0.41315520D+06 0.41315520D+06 0.10744160D+01  1  2  1  3  6  4        1 0.842636238571D-02 0.100000000000D+01
  </mgrwgt>
  </event>
  <event>
  5     66 -.17698235E-05 0.53203388E+02 0.75467711E-02 0.93877283E-01
        1 -1    0    0  501    0 0.00000000E+00 0.00000000E+00 0.19784652E+04 0.19784653E+04 0.32000000E+00 0.0000E+00 0.9000E+01
        2 -1    0    0  502    0 0.00000000E+00 0.00000000E+00 -.11309602E+04 0.11309602E+04 0.32000000E+00 0.0000E+00 0.9000E+01
       25  1    1    2    0    0 -.37737874E+03 0.36709048E+03 0.10531590E+04 0.11840351E+04 0.12500000E+03 0.0000E+00 0.9000E+01
        1  1    1    2  501    0 0.42464161E+02 -.32079508E+02 0.80629729E+03 0.80805181E+03 0.32000000E+00 0.0000E+00 0.9000E+01
        2  1    1    2  502    0 0.33491458E+03 -.33501097E+03 -.10119512E+04 0.11173386E+04 0.32000000E+00 0.0000E+00 0.9000E+01
#aMCatNLO 1  0  0  5  2 0.14052887D+02 0.00000000D+00  -5  6  0 0.00000000D+00 0.00000000D+00 0.00000000D+00 0.00000000D+00 0.00000000D+00
  <mgrwgt>
 -.3116540241D-02    8    2    0
 0.149584941541407D+04 0.000000000000000D+00 0.000000000000000D+00 0.149584941541407D+04
 0.149584941541407D+04 -.000000000000000D+00 -.000000000000000D+00 -.149584941541407D+04
 0.932451170337905D+03 -.377401729247634D+03 0.367116405954345D+03 0.759363986705051D+03
 0.611253618741609D+03 0.424514200448565D+02 -.320698829552207D+02 0.608933810826863D+03
 0.144799404174863D+04 0.334950309202778D+03 -.335046522999124D+03 -.136829779753191D+04
 0.000000000000000D+00 0.000000000000000D+00 0.000000000000000D+00 -.000000000000000D+00
 0.149584941541407D+04 0.000000000000000D+00 0.000000000000000D+00 0.149584941541407D+04
 0.149584941541407D+04 -.000000000000000D+00 -.000000000000000D+00 -.149584941541407D+04
 0.932350644931907D+03 -.377377361368695D+03 0.367092031075782D+03 0.759264442043746D+03
 0.611190559684453D+03 0.424673940596319D+02 -.320858615584994D+02 0.608868555746827D+03
 0.104206283290545D+04 0.237738876720594D+03 -.254532216883532D+03 -.982134677519794D+03
 0.406094793306334D+03 0.971710905884691D+02 -.804739526337497D+02 -.385998320270779D+03
0.199605455310D-04 0.000000000000D+00 0.000000000000D+00 0.801947374050D-04 0.000000000000D+00  6 1 2 25 1 2 21 0 0.30437927D+00 0.17399388D+00 0.28521036D+06 0.28521036D+06 0.28521036D+06 0.10861800D+01  1  2  2  4  6  5        2 0.196399042086D-04 0.100000000000D+01
0.550762084989D-05 0.000000000000D+00 -.766537505715D-07 0.801947374050D-04 0.000000000000D+00  6 1 2 25 1 2 21 2 0.30437927D+00 0.17399388D+00 0.28521036D+06 0.28521036D+06 0.28521036D+06 0.10861800D+01  1  2  3  4  6  5        2 0.639344017980D-05 0.100000000000D+01
-.128888294732D-04 0.000000000000D+00 0.000000000000D+00 0.801947374050D-04 0.000000000000D+00  6 1 2 25 1 2 21 2 0.30437927D+00 0.17399388D+00 0.28521036D+06 0.28521036D+06 0.28521036D+06 0.10861800D+01  1  2 15  4  6  5        2 -.149618070072D-04 0.100000000000D+01
0.129151621897D-01 0.000000000000D+00 0.000000000000D+00 0.801947374050D-04 0.000000000000D+00  6 1 2 25 1 2 21 2 0.30437927D+00 0.17399388D+00 0.28557786D+06 0.28557786D+06 0.28557786D+06 0.10861384D+01  1  2 12  4  6  5        2 0.149897292306D-01 0.100000000000D+01
0.650045472771D-09 0.000000000000D+00 0.000000000000D+00 0.801947374050D-04 0.000000000000D+00  6 1 2 25 1 2 21 2 0.30437927D+00 0.17399388D+00 0.28557786D+06 0.28557786D+06 0.28557786D+06 0.10861384D+01  1  2 12  4  6  5        2 0.754462505486D-09 0.100000000000D+01
-.197419308425D-01 0.000000000000D+00 0.000000000000D+00 0.801947374050D-04 0.000000000000D+00  6 1 2 25 1 2 21 2 0.30437927D+00 0.17399388D+00 0.28521036D+06 0.28521036D+06 0.28521036D+06 0.10861800D+01  1  2  4  4  6  5        2 -.229171283418D-01 0.100000000000D+01
-.130129642965D-01 0.000000000000D+00 0.000000000000D+00 0.801947374050D-04 0.000000000000D+00  6 1 2 25 1 2 21 2 0.30437927D+00 0.17399388D+00 0.28521036D+06 0.28521036D+06 0.28521036D+06 0.10861800D+01  1  2  5  4  6  5        2 -.151059070802D-01 0.100000000000D+01
0.171477342937D-01 0.000000000000D+00 -.000000000000D+00 0.801947374050D-04 0.000000000000D+00  6 1 2 25 1 2 21 2 0.30437927D+00 0.17399388D+00 0.28521036D+06 0.28521036D+06 0.28521036D+06 0.10861800D+01  1  2  6  4  6  5        2 0.199056936587D-01 0.100000000000D+01
  </mgrwgt>
  </event>
  <event>
  6     66 -.17698235E-05 0.11497053E+03 0.75467711E-02 0.89136494E-01
        1 -1    0    0  501    0 0.00000000E+00 0.00000000E+00 0.15603515E+04 0.15603515E+04 0.32000000E+00 0.0000E+00 0.9000E+01
        2 -1    0    0  502    0 0.00000000E+00 0.00000000E+00 -.14850023E+04 0.14850024E+04 0.32000000E+00 0.0000E+00 0.9000E+01
       25  1    1    2    0    0 -.22371628E+03 -.77309287E+03 0.75448212E+03 0.11102206E+04 0.12500000E+03 0.0000E+00 0.9000E+01
        1  1    1    2  501    0 0.11248304E+03 0.72861432E+03 0.40704486E+03 0.84215016E+03 0.32000000E+00 0.0000E+00 0.9000E+01
        2  1    1    2  503    0 0.96291363E+02 0.31493947E+02 -.94672040E+03 0.95212579E+03 0.32000000E+00 0.0000E+00 0.9000E+01
       21  1    1    2  502  503 0.14941874E+02 0.12984596E+02 -.13945740E+03 0.14085733E+03 0.75000000E+00 0.0000E+00 0.9000E+01
#aMCatNLO 2  0  0  5  2 0.73051698D+01 0.00000000D+00  -5  6  0 0.00000000D+00 0.00000000D+00 0.00000000D+00 0.00000000D+00 0.00000000D+00
  <mgrwgt>
 -.2730347801D-02    6    2    0
 0.152221079931710D+04 0.000000000000000D+00 0.000000000000000D+00 0.152221079931710D+04
 0.152221079931710D+04 -.000000000000000D+00 -.000000000000000D+00 -.152221079931710D+04
 0.109196850929209D+04 -.223717530531186D+03 -.772995115299510D+03 0.727460819248511D+03
 0.832237217996543D+03 0.112460963181930D+03 0.728506497194326D+03 0.386328360756070D+03
 0.112021587134557D+04 0.111256567349256D+03 0.444886181051842D+02 -.111378918000458D+04
 0.000000000000000D+00 0.000000000000000D+00 0.000000000000000D+00 0.000000000000000D+00
 0.152221079931710D+04 0.000000000000000D+00 0.000000000000000D+00 0.152221079931710D+04
 0.152221079931710D+04 -.000000000000000D+00 -.000000000000000D+00 -.152221079931710D+04
 0.109191414378326D+04 -.223709934417125D+03 -.772992077810348D+03 0.727384774572202D+03
 0.832213124312732D+03 0.112466752574795D+03 0.728508812222502D+03 0.386270403160530D+03
 0.976679685158788D+03 0.963735538548163D+02 0.315172352582863D+02 -.971402084309549D+03
 0.143614645379429D+03 0.148696279875137D+02 0.129660303295594D+02 -.142253093423184D+03
-.606530663759D-02 0.000000000000D+00 0.000000000000D+00 0.632497894797D-06 0.000000000000D+00  6 1 2 25 1 2 21 2 0.24005408D+00 0.22846190D+00 0.69942065D+06 0.69942065D+06 0.69942065D+06 0.10583583D+01  1  2 13  4  6  5        2 -.746561842022D-02 0.100000000000D+01
-.508800591274D-07 0.000000000000D+00 0.000000000000D+00 0.632497894797D-06 0.000000000000D+00  6 1 2 25 1 2 21 2 0.24005408D+00 0.22846190D+00 0.69942065D+06 0.69942065D+06 0.69942065D+06 0.10583583D+01  1  2 13  4  6  5        2 -.626268595044D-07 0.100000000000D+01
-.147330755934D-04 0.000000000000D+00 0.000000000000D+00 0.632497894797D-06 0.000000000000D+00  6 1 2 25 1 2 21 2 0.24005408D+00 0.22846190D+00 0.69833268D+06 0.69833268D+06 0.69833268D+06 0.10584047D+01  1  2  8  4  6  5        2 -.181381901278D-04 0.100000000000D+01
-.241342481090D-04 0.000000000000D+00 0.000000000000D+00 0.632497894797D-06 0.000000000000D+00  6 1 2 25 1 2 21 2 0.24005408D+00 0.22846190D+00 0.69833268D+06 0.69833268D+06 0.69833268D+06 0.10584047D+01  1  2  9  4  6  5        2 -.297121655296D-04 0.100000000000D+01
0.274248048720D-04 0.000000000000D+00 0.000000000000D+00 0.632497894797D-06 0.000000000000D+00  6 1 2 25 1 2 21 2 0.24005408D+00 0.22846190D+00 0.69833268D+06 0.69833268D+06 0.69833268D+06 0.10584047D+01  1  2 10  4  6  5        2 0.337632371349D-04 0.100000000000D+01
0.385858066177D-02 0.000000000000D+00 0.000000000000D+00 0.632497894797D-06 0.322764430684D-07  6 1 2 25 1 2 21 2 0.24005408D+00 0.22846190D+00 0.69942065D+06 0.69942065D+06 0.69942065D+06 0.10583583D+01  1  2  1  4  6  5        2 0.474942036498D-02 0.100000000000D+01
  </mgrwgt>
  </event>
  <event>
  6     66 0.17698235E-05 0.19657260E+03 0.75467711E-02 0.90492117E-01
        1 -1    0    0  501    0 0.00000000E+00 0.00000000E+00 0.46301392E+03 0.46301403E+03 0.32000000E+00 0.0000E+00 0.9000E+01
       21 -1    0    0  502  503 0.00000000E+00 0.00000000E+00 -.14058068E+04 0.14058070E+04 0.75000000E+00 0.0000E+00 0.9000E+01
       25  1    1    2    0    0 0.43228336E+03 -.36479488E+03 -.29024491E+02 0.58001002E+03 0.12500000E+03 0.0000E+00 0.9000E+01
        1  1    1    2  501    0 0.17387348E+03 0.11363456E+03 -.10562785E+03 0.23302821E+03 0.32000000E+00 0.0000E+00 0.9000E+01
        2  1    1    2  502    0 -.61364544E+03 0.23065289E+03 -.76525587E+03 0.10076597E+04 0.32000000E+00 0.0000E+00 0.9000E+01
       -2  1    1    2    0  503 0.74886123E+01 0.20507426E+02 -.42884698E+02 0.48123108E+02 0.32000000E+00 0.0000E+00 0.9000E+01
#aMCatNLO 2  0  0  2  5 0.21831945D+02 0.00000000D+00  -5  6  0 0.00000000D+00 0.00000000D+00 0.00000000D+00 0.00000000D+00 0.00000000D+00
  <mgrwgt>
 0.1833599557D-01    3    2    0
 0.791301086458728D+03 0.000000000000000D+00 0.000000000000000D+00 0.791301086458728D+03
 0.791301086458728D+03 0.000000000000000D+00 0.000000000000000D+00 -.791301086458728D+03
 0.648235719969495D+03 0.435598435303613D+03 -.356347927483620D+03 0.296402945976490D+03
 0.210091070078299D+03 0.174673988404845D+03 0.116218896085870D+03 0.109737730052455D+02
 0.724275382869661D+03 -.610272423708458D+03 0.240129031397750D+03 -.307376718981736D+03
 0.000000000000000D+00 0.000000000000000D+00 0.000000000000000D+00 -.000000000000000D+00
 0.795877724897897D+03 0.000000000000000D+00 0.000000000000000D+00 0.795877724897897D+03
 0.817848096100309D+03 0.000000000000000D+00 0.000000000000000D+00 -.817848096100309D+03
 0.650853788667423D+03 0.432525042914457D+03 -.364764355565403D+03 0.296402945976490D+03
 0.207778561534885D+03 0.173685390362200D+03 0.113511638673158D+03 0.109737730052455D+02
 0.724120401039159D+03 -.613699045622618D+03 0.230745290810070D+03 -.307376718981736D+03
 0.309730697567379D+02 0.748861234596131D+01 0.205074260821752D+02 -.219703712024123D+02
-.354549766663D-06 0.000000000000D+00 0.000000000000D+00 0.903666203664D-09 0.000000000000D+00  6 1 21 25 1 2 -2 2 0.70823242D-01 0.21856771D+00 0.53612393D+06 0.53612393D+06 0.53612393D+06 0.10663759D+01  1  2 13  6  6  2        2 -.152532916116D-05 0.100000000000D+01
-.174051717168D-06 0.000000000000D+00 0.000000000000D+00 0.903666203664D-09 0.000000000000D+00  6 1 21 25 1 2 -2 2 0.70823242D-01 0.22057487D+00 0.53612393D+06 0.53612393D+06 0.53612393D+06 0.10663759D+01  1  2 13  6  6  2        2 -.724279707849D-06 0.100000000000D+01
0.413616148363D-02 0.000000000000D+00 0.000000000000D+00 0.903666203664D-09 0.514267592730D-09  6 1 21 25 1 2 -2 2 0.71232861D-01 0.21627778D+00 0.53612393D+06 0.53612393D+06 0.53612393D+06 0.10663759D+01  1  2  1  6  6  2        2 0.183382451742D-01 0.100000000000D+01
  </mgrwgt>
  </event>
  <event>
  5     66 0.17698235E-05 0.41369940E+02 0.75467711E-02 0.92497611E-01
        1 -1    0    0  501    0 0.00000000E+00 0.00000000E+00 0.10300233E+04 0.10300234E+04 0.32000000E+00 0.0000E+00 0.9000E+01
        2 -1    0    0  502    0 0.00000000E+00 0.00000000E+00 -.19163796E+04 0.19163797E+04 0.32000000E+00 0.0000E+00 0.9000E+01
       25  1    1    2    0    0 -.58322979E+03 0.94829075E+02 0.15618847E+03 0.62383442E+03 0.12500000E+03 0.0000E+00 0.9000E+01
        1  1    1    2  501    0 0.28390975E+02 -.30099176E+02 0.59290761E+03 0.59434968E+03 0.32000000E+00 0.0000E+00 0.9000E+01
        2  1    1    2  502    0 0.55483882E+03 -.64729899E+02 -.16354524E+04 0.17282189E+04 0.32000000E+00 0.0000E+00 0.9000E+01
#aMCatNLO 1  0  0  1  4 0.52173730D+01 0.00000000D+00  -5  6  0 0.00000000D+00 0.00000000D+00 0.00000000D+00 0.00000000D+00 0.00000000D+00
  <mgrwgt>
 0.2367180634D-01   13    2    0
 0.140496114567491D+04 0.000000000000000D+00 0.000000000000000D+00 0.140496114567491D+04
 0.140496114567491D+04 0.000000000000000D+00 0.000000000000000D+00 -.140496114567491D+04
 0.703510256443175D+03 -.583285897710590D+03 0.948321774768822D+02 0.360674507787403D+03
 0.810116538589074D+03 0.283865310034386D+02 -.300944647400198D+02 0.809059536835915D+03
 0.129629549631757D+04 0.554899366707152D+03 -.647377127368623D+02 -.116973404462332D+04
 0.000000000000000D+00 -.000000000000000D+00 0.000000000000000D+00 0.000000000000000D+00
 0.215839997558569D+04 0.000000000000000D+00 0.000000000000000D+00 0.215839997558569D+04
 0.140497259981098D+04 0.000000000000000D+00 0.000000000000000D+00 -.140497259981098D+04
 0.702500125441548D+03 -.582179616735072D+03 0.941393623088102D+02 0.360674507787403D+03
 0.810192263709984D+03 0.296614268545241D+02 -.308928759961930D+02 0.809059536835915D+03
 0.129723474591906D+04 0.556940015342029D+03 -.660156813164869D+02 -.116973404462332D+04
 0.753445440326071D+03 -.442182546148143D+01 0.276919500386971D+01 0.753427375774710D+03
0.398368959328D-05 0.000000000000D+00 0.000000000000D+00 0.693580988467D-04 0.000000000000D+00  6 1 2 25 1 2 21 0 0.15846513D+00 0.29482764D+00 0.36243604D+06 0.36243604D+06 0.36243604D+06 0.10785288D+01  1  2  2  1  6  1        1 0.629342413157D-05 0.100000000000D+01
0.201992040214D-05 0.000000000000D+00 -.152984169678D-07 0.693580988467D-04 0.000000000000D+00  6 1 2 25 1 2 21 2 0.15846513D+00 0.29482764D+00 0.36243604D+06 0.36243604D+06 0.36243604D+06 0.10785288D+01  1  2  3  1  6  1        1 0.371192538010D-05 0.100000000000D+01
-.271922235909D-05 0.000000000000D+00 0.000000000000D+00 0.693580988467D-04 0.000000000000D+00  6 1 2 25 1 2 21 2 0.15846513D+00 0.29482764D+00 0.36243604D+06 0.36243604D+06 0.36243604D+06 0.10785288D+01  1  2 15  1  6  1        1 -.499700407906D-05 0.100000000000D+01
0.387871147541D-01 0.000000000000D+00 0.000000000000D+00 0.693580988467D-04 0.000000000000D+00  6 1 2 25 1 2 21 2 0.24550765D+00 0.29482764D+00 0.36707058D+06 0.36707058D+06 0.36707058D+06 0.10781277D+01  1  2 12  1  6  1        1 0.285560751009D-01 0.100000000000D+01
0.217948019236D-08 0.000000000000D+00 0.000000000000D+00 0.693580988467D-04 0.000000000000D+00  6 1 2 25 1 2 21 2 0.24344574D+00 0.29482764D+00 0.36707058D+06 0.36707058D+06 0.36707058D+06 0.10781277D+01  1  2 12  1  6  1        1 0.163814103325D-08 0.100000000000D+01
-.530811632679D-01 0.000000000000D+00 0.000000000000D+00 0.693580988467D-04 0.000000000000D+00  6 1 2 25 1 2 21 2 0.15846513D+00 0.29482764D+00 0.36243604D+06 0.36243604D+06 0.36243604D+06 0.10785288D+01  1  2  4  1  6  1        1 -.975450898614D-01 0.100000000000D+01
-.790933641011D-01 0.000000000000D+00 -.291332856196D-05 0.693580988467D-04 0.000000000000D+00  6 1 2 25 1 2 21 2 0.24344586D+00 0.29482764D+00 0.36243604D+06 0.36243604D+06 0.36243604D+06 0.10785288D+01  1  2  5  1  6  1        1 -.595569189616D-01 0.100000000000D+01
0.723252389879D-01 0.000000000000D+00 0.266398060503D-05 0.693580988467D-04 0.000000000000D+00  6 1 2 25 1 2 21 2 0.15846513D+00 0.29482764D+00 0.36243604D+06 0.36243604D+06 0.36243604D+06 0.10785288D+01  1  2  6  1  6  1        1 0.132909143319D+00 0.100000000000D+01
0.259758533989D-01 0.000000000000D+00 0.000000000000D+00 0.693580988467D-04 0.111175934061D-04  6 1 2 25 1 2 21 2 0.24344526D+00 0.29483004D+00 0.36707058D+06 0.36707058D+06 0.36707058D+06 0.10781277D+01  1  2 11  1  6  1        1 0.195236799823D-01 0.100000000000D+01
0.194563579167D-02 0.000000000000D+00 0.000000000000D+00 0.693580988467D-04 0.000000000000D+00  6 21 2 25 1 2 -1 2 0.24550765D+00 0.29482764D+00 0.36707058D+06 0.36707058D+06 0.36707058D+06 0.10781277D+01  1  2 12  5  6  1        1 0.100778937095D-02 0.100000000000D+01
0.109326891066D-09 0.000000000000D+00 0.000000000000D+00 0.693580988467D-04 0.000000000000D+00  6 21 2 25 1 2 -1 2 0.24344574D+00 0.29482764D+00 0.36707058D+06 0.36707058D+06 0.36707058D+06 0.10781277D+01  1  2 12  5  6  1        1 0.585154127267D-10 0.100000000000D+01
-.396732557173D-02 0.000000000000D+00 -.146136673226D-06 0.693580988467D-04 0.000000000000D+00  6 21 2 25 1 2 -1 2 0.24344586D+00 0.29482764D+00 0.36243604D+06 0.36243604D+06 0.36243604D+06 0.10785288D+01  1  2  5  5  6  1        1 -.212849095627D-02 0.100000000000D+01
0.168266620406D-02 0.000000000000D+00 0.000000000000D+00 0.693580988467D-04 0.716742557118D-06  6 21 2 25 1 2 -1 2 0.24344526D+00 0.29483004D+00 0.36707058D+06 0.36707058D+06 0.36707058D+06 0.10781277D+01  1  2 11  5  6  1        1 0.900608299259D-03 0.100000000000D+01
  </mgrwgt>
  </event>
  <event>
  5     66 0.17698235E-05 0.13414644E+02 0.75467711E-02 0.92749587E-01
        1 -1    0    0  501    0 0.00000000E+00 0.00000000E+00 0.47886391E+03 0.47886401E+03 0.32000000E+00 0.0000E+00 0.9000E+01
        2 -1    0    0  502    0 0.00000000E+00 0.00000000E+00 -.77446009E+03 0.77446015E+03 0.32000000E+00 0.0000E+00 0.9000E+01
       25  1    1    2    0    0 -.51211573E+03 0.15285999E+03 -.26991415E+03 0.61164315E+03 0.12500000E+03 0.0000E+00 0.9000E+01
        1  1    1    2  501    0 0.52328116E+03 -.14541157E+03 0.67723539E+02 0.54731551E+03 0.32000000E+00 0.0000E+00 0.9000E+01
        2  1    1    2  502    0 -.11165428E+02 -.74484200E+01 -.93405569E+02 0.94365504E+02 0.32000000E+00 0.0000E+00 0.9000E+01
#aMCatNLO 1  0  0  1  1 0.77475157D+02 0.00000000D+00  -5  6  0 0.00000000D+00 0.00000000D+00 0.00000000D+00 0.00000000D+00 0.00000000D+00
  <mgrwgt>
 0.7124621216D-01    4    2    0
 0.608983655566637D+03 0.000000000000000D+00 0.000000000000000D+00 0.608983655566637D+03
 0.608983655566637D+03 0.000000000000000D+00 0.000000000000000D+00 -.608983655566637D+03
 0.563927544609141D+03 -.512139515278723D+03 0.152861166001892D+03 -.129367137973723D+03
 0.579659434263438D+03 0.523298773559350D+03 -.145416461211440D+03 0.202527791008127D+03
 0.743803322606939D+02 -.111592582806271D+02 -.744470479045177D+01 -.731606530344043D+02
 0.000000000000000D+00 0.000000000000000D+00 -.000000000000000D+00 -.000000000000000D+00
 0.618025507855005D+03 0.000000000000000D+00 0.000000000000000D+00 0.618025507855005D+03
 0.802327084777120D+03 0.000000000000000D+00 0.000000000000000D+00 -.802327084777120D+03
 0.580236213579361D+03 -.518377022509506D+03 0.188675567298950D+03 -.129367137973723D+03
 0.566006796371771D+03 0.517053075470672D+03 -.109555029801115D+03 0.202527791008127D+03
 0.741859191450559D+02 -.119691799904888D+02 -.279431160244405D+01 -.731606530344043D+02
 0.199923663535937D+03 0.132931270293232D+02 -.763262258953911D+02 -.184301576922116D+03
0.320013548883D-02 0.000000000000D+00 0.000000000000D+00 0.317813429735D-06 0.000000000000D+00  6 1 2 25 1 2 21 0 0.73671384D-01 0.11914772D+00 0.30549418D+06 0.30549418D+06 0.30549418D+06 0.10839692D+01  1  2  2  1  6  1        1 0.774883481814D-01 0.100000000000D+01
0.159733950670D-02 0.000000000000D+00 -.122893628921D-04 0.317813429735D-06 0.000000000000D+00  6 1 2 25 1 2 21 2 0.73671384D-01 0.11914772D+00 0.30549418D+06 0.30549418D+06 0.30549418D+06 0.10839692D+01  1  2  3  1  6  1        1 0.454463674346D-01 0.100000000000D+01
-.181389115865D-02 0.000000000000D+00 0.000000000000D+00 0.317813429735D-06 0.000000000000D+00  6 1 2 25 1 2 21 2 0.73671384D-01 0.11914772D+00 0.30549418D+06 0.30549418D+06 0.30549418D+06 0.10839692D+01  1  2 15  1  6  1        1 -.516075409994D-01 0.100000000000D+01
-.284565171980D-05 0.000000000000D+00 0.000000000000D+00 0.317813429735D-06 0.000000000000D+00  6 1 2 25 1 2 21 2 0.73671384D-01 0.11914772D+00 0.30549418D+06 0.30549418D+06 0.30549418D+06 0.10839692D+01  1  2  4  1  6  1        1 -.809624585797D-04 0.100000000000D+01
  </mgrwgt>
  </event>
  <event>
  5     66 0.17698235E-05 0.13974756E+02 0.75467711E-02 0.94786067E-01
        1 -1    0    0  501    0 0.00000000E+00 0.00000000E+00 0.57427647E+03 0.57427656E+03 0.32000000E+00 0.0000E+00 0.9000E+01
        2 -1    0    0  502    0 0.00000000E+00 0.00000000E+00 -.18673949E+04 0.18673950E+04 0.32000000E+00 0.0000E+00 0.9000E+01
       25  1    1    2    0    0 -.17666977E+03 0.42306134E+03 -.76938586E+03 0.90430786E+03 0.12500000E+03 0.0000E+00 0.9000E+01
        1  1    1    2  501    0 0.17595019E+03 -.43701780E+03 0.39727178E+03 0.61625319E+03 0.32000000E+00 0.0000E+00 0.9000E+01
        2  1    1    2  502    0 0.71957906E+00 0.13956460E+02 -.92100439E+03 0.92111047E+03 0.32000000E+00 0.0000E+00 0.9000E+01
#aMCatNLO 1  0  0  2  4 0.23435128D+02 0.00000000D+00  -5  6  0 0.00000000D+00 0.00000000D+00 0.00000000D+00 0.00000000D+00 0.00000000D+00
  <mgrwgt>
 0.2088939902D-01    7    2    0
 0.103556801263765D+04 0.000000000000000D+00 0.000000000000000D+00 0.103556801263765D+04
 0.103556801263765D+04 0.000000000000000D+00 0.000000000000000D+00 -.103556801263765D+04
 0.585726940492261D+03 -.176669937471737D+03 0.423061827053754D+03 -.342428784570014D+03
 0.974541666356310D+03 0.175950286142869D+03 -.437018040571835D+03 0.853105027816347D+03
 0.510867418426724D+03 0.719651328868480D+00 0.139562135180813D+02 -.510676243246333D+03
 0.000000000000000D+00 -.000000000000000D+00 0.000000000000000D+00 -.000000000000000D+00
 0.103588790202880D+04 0.000000000000000D+00 0.000000000000000D+00 0.103588790202880D+04
 0.157704588707318D+04 0.000000000000000D+00 0.000000000000000D+00 -.157704588707318D+04
 0.581716907347374D+03 -.170872042330587D+03 0.419898598403794D+03 -.342428784570014D+03
 0.978720062029981D+03 0.185650801251464D+03 -.442310469386751D+03 0.853105027816347D+03
 0.510831637158359D+03 0.579373176627575D+01 0.111878853194749D+02 -.510676243246333D+03
 0.541665182566262D+03 -.205724906871533D+02 0.112239856634824D+02 -.541157985044381D+03
0.171353267892D-04 0.000000000000D+00 0.000000000000D+00 0.587298599689D-04 0.000000000000D+00  6 1 2 25 1 2 21 0 0.88350235D-01 0.28729154D+00 0.23053780D+06 0.23053780D+06 0.23053780D+06 0.10931170D+01  1  2  2  2  6  2        2 0.749964452927D-04 0.100000000000D+01
0.138886064246D-04 0.000000000000D+00 -.658041667056D-07 0.587298599689D-04 0.000000000000D+00  6 1 2 25 1 2 21 2 0.88350235D-01 0.28729154D+00 0.23053780D+06 0.23053780D+06 0.23053780D+06 0.10931170D+01  1  2  3  2  6  2        2 0.726340426596D-04 0.100000000000D+01
-.133239213238D-04 0.000000000000D+00 0.000000000000D+00 0.587298599689D-04 0.000000000000D+00  6 1 2 25 1 2 21 2 0.88350235D-01 0.28729154D+00 0.23053780D+06 0.23053780D+06 0.23053780D+06 0.10931170D+01  1  2 15  2  6  2        2 -.696808765574D-04 0.100000000000D+01
-.413542948088D-03 0.000000000000D+00 0.000000000000D+00 0.587298599689D-04 0.000000000000D+00  6 1 2 25 1 2 21 2 0.88350235D-01 0.28729154D+00 0.23053780D+06 0.23053780D+06 0.23053780D+06 0.10931170D+01  1  2  4  2  6  2        2 -.216272930593D-02 0.100000000000D+01
-.687327713260D-02 0.000000000000D+00 -.980402224247D-05 0.587298599689D-04 0.000000000000D+00  6 1 2 25 1 2 21 2 0.88350235D-01 0.43754071D+00 0.23053780D+06 0.23053780D+06 0.23053780D+06 0.10931170D+01  1  2  5  2  6  2        2 -.999314060366D-02 0.100000000000D+01
0.631146983950D-02 0.000000000000D+00 0.899620651752D-05 0.587298599689D-04 0.000000000000D+00  6 1 2 25 1 2 21 2 0.88350235D-01 0.28729154D+00 0.23053780D+06 0.23053780D+06 0.23053780D+06 0.10931170D+01  1  2  6  2  6  2        2 0.330074562957D-01 0.100000000000D+01
-.339206177683D-03 0.000000000000D+00 -.484353203951D-06 0.587298599689D-04 0.000000000000D+00  6 1 21 25 1 2 -2 2 0.88350235D-01 0.43754071D+00 0.23053780D+06 0.23053780D+06 0.23053780D+06 0.10931170D+01  1  2  5  6  6  2        2 -.401369769377D-04 0.100000000000D+01
  </mgrwgt>
  </event>
  <event>
  5     66 0.17698235E-05 0.20790550E+03 0.75467711E-02 0.91655162E-01
        1 -1    0    0  501    0 0.00000000E+00 0.00000000E+00 0.79895010E+03 0.79895016E+03 0.32000000E+00 0.0000E+00 0.9000E+01
        2 -1    0    0  502    0 0.00000000E+00 0.00000000E+00 -.66921479E+03 0.66921487E+03 0.32000000E+00 0.0000E+00 0.9000E+01
       25  1    1    2    0    0 -.13950671E+02 -.53573530E+03 0.47634071E+02 0.55235942E+03 0.12500000E+03 0.0000E+00 0.9000E+01
        1  1    1    2  501    0 0.20689571E+03 0.21573089E+02 0.26507688E+03 0.33695265E+03 0.32000000E+00 0.0000E+00 0.9000E+01
        2  1    1    2  502    0 -.19294503E+03 0.51416221E+03 -.18297564E+03 0.57885296E+03 0.32000000E+00 0.0000E+00 0.9000E+01
#aMCatNLO 1  0  0  4  1 0.22084441D+02 0.00000000D+00  -5  6  0 0.00000000D+00 0.00000000D+00 0.00000000D+00 0.00000000D+00 0.00000000D+00
  <mgrwgt>
 0.2409599408D-02    8    2    0
 0.731210864023549D+03 0.000000000000000D+00 0.000000000000000D+00 0.731210864023549D+03
 0.731210864023549D+03 -.000000000000000D+00 -.000000000000000D+00 -.731210864023549D+03
 0.550399873768794D+03 -.138600930921634D+02 -.535837389722477D+03 -.110029068123350D+01
 0.314590816691441D+03 0.206784426491997D+03 0.215614859525447D+02 0.236098888668460D+03
 0.597431037586861D+03 -.192924333399834D+03 0.514275903769933D+03 -.234998597987227D+03
 0.000000000000000D+00 0.000000000000000D+00 0.000000000000000D+00 0.000000000000000D+00
 0.731210864023549D+03 0.000000000000000D+00 0.000000000000000D+00 0.731210864023549D+03
 0.731210864023549D+03 -.000000000000000D+00 -.000000000000000D+00 -.731210864023549D+03
 0.550195341432750D+03 -.122313221719596D+02 -.535667557197313D+03 0.759380333065578D+00
 0.270123560529276D+03 0.173185634733260D+03 -.266827051479899D+01 0.207283270447740D+03
 0.596230634061178D+03 -.191157833425558D+03 0.514460097352722D+03 -.232981672980664D+03
 0.458721920238930D+02 0.302035208642569D+02 0.238757303593900D+02 0.249390221998581D+02
0.384358709538D-04 0.000000000000D+00 0.000000000000D+00 0.906332500906D-08 0.000000000000D+00  6 1 2 25 1 2 21 0 0.12291541D+00 0.10295613D+00 0.42743879D+06 0.42743879D+06 0.42743879D+06 0.10733566D+01  1  2  2  3  6  4        1 0.516695217738D-03 0.100000000000D+01
0.151833237392D-05 0.000000000000D+00 -.147603864860D-06 0.906332500906D-08 0.000000000000D+00  6 1 2 25 1 2 21 2 0.12291541D+00 0.10295613D+00 0.42743879D+06 0.42743879D+06 0.42743879D+06 0.10733566D+01  1  2  3  3  6  4        1 0.235154138154D-04 0.100000000000D+01
-.244513708889D-04 0.000000000000D+00 0.000000000000D+00 0.906332500906D-08 0.000000000000D+00  6 1 2 25 1 2 21 2 0.12291541D+00 0.10295613D+00 0.42743879D+06 0.42743879D+06 0.42743879D+06 0.10733566D+01  1  2 15  3  6  4        1 -.378694490536D-03 0.100000000000D+01
0.259211857794D-03 0.000000000000D+00 0.000000000000D+00 0.906332500906D-08 0.000000000000D+00  6 1 2 25 1 2 21 2 0.12291541D+00 0.10295613D+00 0.42950209D+06 0.42950209D+06 0.42950209D+06 0.10732068D+01  1  2 12  3  6  4        1 0.401275888698D-02 0.100000000000D+01
0.449560181147D-05 0.000000000000D+00 0.000000000000D+00 0.906332500906D-08 0.000000000000D+00  6 1 2 25 1 2 21 2 0.12291541D+00 0.10295613D+00 0.42950209D+06 0.42950209D+06 0.42950209D+06 0.10732068D+01  1  2 12  3  6  4        1 0.695946793283D-04 0.100000000000D+01
-.186720932905D-03 0.000000000000D+00 0.000000000000D+00 0.906332500906D-08 0.000000000000D+00  6 1 2 25 1 2 21 2 0.12291541D+00 0.10295613D+00 0.42743879D+06 0.42743879D+06 0.42743879D+06 0.10733566D+01  1  2  4  3  6  4        1 -.289187010742D-02 0.100000000000D+01
-.375914528065D-03 0.000000000000D+00 0.000000000000D+00 0.906332500906D-08 0.000000000000D+00  6 1 2 25 1 2 21 2 0.12291541D+00 0.10295613D+00 0.42743879D+06 0.42743879D+06 0.42743879D+06 0.10733566D+01  1  2  5  3  6  4        1 -.582203596428D-02 0.100000000000D+01
0.444201143824D-03 0.000000000000D+00 -.000000000000D+00 0.906332500906D-08 0.000000000000D+00  6 1 2 25 1 2 21 2 0.12291541D+00 0.10295613D+00 0.42743879D+06 0.42743879D+06 0.42743879D+06 0.10733566D+01  1  2  6  3  6  4        1 0.687963577260D-02 0.100000000000D+01
  </mgrwgt>
  </event>
  <event>
  5     66 -.17698235E-05 0.10324249E+03 0.75467711E-02 0.94254142E-01
        1 -1    0    0  501    0 0.00000000E+00 0.00000000E+00 0.46823208E+04 0.46823208E+04 0.32000000E+00 0.0000E+00 0.9000E+01
        2 -1    0    0  502    0 0.00000000E+00 0.00000000E+00 -.11972494E+04 0.11972494E+04 0.32000000E+00 0.0000E+00 0.9000E+01
       25  1    1    2    0    0 0.48751756E+03 0.14617533E+03 0.97387402E+03 0.11059368E+04 0.12500000E+03 0.0000E+00 0.9000E+01
        1  1    1    2  501    0 -.96523563E+02 -.36646847E+02 0.36052155E+04 0.36066936E+04 0.32000000E+00 0.0000E+00 0.9000E+01
        2  1    1    2  502    0 -.39099400E+03 -.10952848E+03 -.10940181E+04 0.11669398E+04 0.32000000E+00 0.0000E+00 0.9000E+01
#aMCatNLO 1  0  0  4  1 0.28660990D+01 0.00000000D+00  -5  6  0 0.00000000D+00 0.00000000D+00 0.00000000D+00 0.00000000D+00 0.00000000D+00
  <mgrwgt>
 -.1613916665D-01    9    2    0
 0.236767940099491D+04 0.000000000000000D+00 0.000000000000000D+00 0.236767940099491D+04
 0.236767940099491D+04 -.000000000000000D+00 -.000000000000000D+00 -.236767940099491D+04
 0.656484855728938D+03 0.487538524404501D+03 0.146180884194822D+03 0.395328600178315D+03
 0.182479496638268D+04 -.965200371424245D+02 -.366455084235306D+02 0.182187202033457D+04
 0.225407897987821D+04 -.391018487262078D+03 -.109535375771292D+03 -.221720062051288D+04
 0.000000000000000D+00 0.000000000000000D+00 0.000000000000000D+00 0.000000000000000D+00
 0.236767940099491D+04 0.000000000000000D+00 0.000000000000000D+00 0.236767940099491D+04
 0.236767940099491D+04 -.000000000000000D+00 -.000000000000000D+00 -.236767940099491D+04
 0.656486721027231D+03 0.487538347423320D+03 0.146180817000843D+03 0.395331940801385D+03
 0.163484319486465D+04 -.889154158310936D+02 -.343215144734861D+02 0.163206260733683D+04
 0.225406781398639D+04 -.391019094934903D+03 -.109535606484834D+03 -.221718915033375D+04
 0.189961072111549D+03 -.760383665732493D+01 -.232369604252361D+01 0.189794602195531D+03
0.698033080754D-03 0.000000000000D+00 0.000000000000D+00 0.828744672740D-03 0.000000000000D+00  6 1 2 25 1 2 21 0 0.72035704D+00 0.18419222D+00 0.26698911D+06 0.26698911D+06 0.26698911D+06 0.10883175D+01  1  2  2  3  6  4        1 0.356615881844D-05 0.100000000000D+01
0.182817867166D-03 0.000000000000D+00 -.268063082643D-05 0.828744672740D-03 0.000000000000D+00  6 1 2 25 1 2 21 2 0.72035704D+00 0.18419222D+00 0.26698911D+06 0.26698911D+06 0.26698911D+06 0.10883175D+01  1  2  3  3  6  4        1 0.110625323005D-05 0.100000000000D+01
-.443548343989D-03 0.000000000000D+00 0.000000000000D+00 0.828744672740D-03 0.000000000000D+00  6 1 2 25 1 2 21 2 0.72035704D+00 0.18419222D+00 0.26698911D+06 0.26698911D+06 0.26698911D+06 0.10883175D+01  1  2 15  3  6  4        1 -.268396517160D-05 0.100000000000D+01
0.127107822643D+00 0.000000000000D+00 0.000000000000D+00 0.828744672740D-03 0.000000000000D+00  6 1 2 25 1 2 21 2 0.72035704D+00 0.18419222D+00 0.26699869D+06 0.26699869D+06 0.26699869D+06 0.10883164D+01  1  2 12  3  6  4        1 0.769139509897D-03 0.100000000000D+01
0.541054307899D-10 0.000000000000D+00 0.000000000000D+00 0.828744672740D-03 0.000000000000D+00  6 1 2 25 1 2 21 2 0.72035704D+00 0.18419222D+00 0.26699869D+06 0.26699869D+06 0.26699869D+06 0.10883164D+01  1  2 12  3  6  4        1 0.327396250326D-12 0.100000000000D+01
-.244324422127D+02 0.000000000000D+00 0.000000000000D+00 0.828744672740D-03 0.000000000000D+00  6 1 2 25 1 2 21 2 0.72035704D+00 0.18419222D+00 0.26698911D+06 0.26698911D+06 0.26698911D+06 0.10883175D+01  1  2  4  3  6  4        1 -.147843690197D+00 0.100000000000D+01
-.116448268134D+02 0.000000000000D+00 0.000000000000D+00 0.828744672740D-03 0.000000000000D+00  6 1 2 25 1 2 21 2 0.72035704D+00 0.18419222D+00 0.26698911D+06 0.26698911D+06 0.26698911D+06 0.10883175D+01  1  2  5  3  6  4        1 -.704642684842D-01 0.100000000000D+01
0.129197697692D+02 0.000000000000D+00 -.000000000000D+00 0.828744672740D-03 0.000000000000D+00  6 1 2 25 1 2 21 2 0.72035704D+00 0.18419222D+00 0.26698911D+06 0.26698911D+06 0.26698911D+06 0.10883175D+01  1  2  6  3  6  4        1 0.781791039365D-01 0.100000000000D+01
0.203630715711D+02 0.000000000000D+00 0.000000000000D+00 0.828744672740D-03 0.944114165071D-03  6 1 2 25 1 2 21 2 0.72035704D+00 0.18419222D+00 0.26699869D+06 0.26699869D+06 0.26699869D+06 0.10883164D+01  1  2 11  3  6  4        1 0.123218560137D+00 0.100000000000D+01
  </mgrwgt>
  </event>
  <event>
  5     66 0.17698235E-05 0.42329177E+02 0.75467711E-02 0.80077751E-01
        1 -1    0    0  501    0 0.00000000E+00 0.00000000E+00 0.93534869E+03 0.93534875E+03 0.32000000E+00 0.0000E+00 0.9000E+01
        2 -1    0    0  502    0 0.00000000E+00 0.00000000E+00 -.25332077E+04 0.25332077E+04 0.32000000E+00 0.0000E+00 0.9000E+01
       25  1    1    2    0    0 -.58873484E+03 0.10187606E+03 -.29263610E+03 0.67694042E+03 0.12500000E+03 0.0000E+00 0.9000E+01
        1  1    1    2  501    0 0.36520748E+00 -.42330175E+02 0.69986142E+03 0.70114056E+03 0.32000000E+00 0.0000E+00 0.9000E+01
        2  1    1    2  502    0 0.58836963E+03 -.59545881E+02 -.20050843E+04 0.20904754E+04 0.32000000E+00 0.0000E+00 0.9000E+01
#aMCatNLO 1  0  0  2  1 0.32443996D+03 0.00000000D+00  -5  6  0 0.00000000D+00 0.00000000D+00 0.00000000D+00 0.00000000D+00 0.00000000D+00
  <mgrwgt>
 0.1670076828D-01    3    2    0
 0.153929613696818D+04 0.000000000000000D+00 0.000000000000000D+00 0.153929613696818D+04
 0.153929613696818D+04 0.000000000000000D+00 0.000000000000000D+00 -.153929613696818D+04
 0.610858440050838D+03 -.588788980780686D+03 0.101880132270215D+03 0.217027311919108D+02
 0.115312753351547D+04 0.365185278860803D+00 -.423276019635158D+02 0.115235035874651D+04
 0.131460630037006D+04 0.588423795501825D+03 -.595525303066996D+02 -.117405308993842D+04
 0.000000000000000D+00 -.000000000000000D+00 -.000000000000000D+00 0.000000000000000D+00
 0.824649458043461D+04 0.000000000000000D+00 0.000000000000000D+00 0.824649458043461D+04
 0.199079456192227D+04 0.000000000000000D+00 0.000000000000000D+00 -.199079456192227D+04
 0.559680339398140D+03 -.387144226740142D+03 0.383751770640092D+03 0.217027311919108D+02
 0.135252018332653D+04 0.432004637508454D+03 0.561044998350049D+03 0.115235035874651D+04
 0.175801117134705D+04 0.111773320858828D+04 0.680349244877984D+03 -.117405308993842D+04
 0.656707744828516D+04 -.116259361935659D+04 -.162514601386813D+04 0.625570001851235D+04
0.191351241546D-01 0.000000000000D+00 0.000000000000D+00 0.910911068669D-04 0.000000000000D+00  6 1 2 25 1 2 21 0 0.14389980D+00 0.38972426D+00 0.38702810D+06 0.38702810D+06 0.38702810D+06 0.10764613D+01  1  2  2  2  6  2        2 0.160125892565D-01 0.100000000000D+01
0.115408760852D-01 0.000000000000D+00 -.734839151475D-04 0.910911068669D-04 0.000000000000D+00  6 1 2 25 1 2 21 2 0.14389980D+00 0.38972426D+00 0.38702810D+06 0.38702810D+06 0.38702810D+06 0.10764613D+01  1  2  3  2  6  2        2 0.111909223698D-01 0.100000000000D+01
-.108311768659D-01 0.000000000000D+00 0.000000000000D+00 0.910911068669D-04 0.000000000000D+00  6 1 2 25 1 2 21 2 0.14389980D+00 0.38972426D+00 0.38702810D+06 0.38702810D+06 0.38702810D+06 0.10764613D+01  1  2 15  2  6  2        2 -.105027433433D-01 0.100000000000D+01
  </mgrwgt>
  </event>
  <event>
  5     66 0.17698235E-05 0.34602686E+02 0.75467711E-02 0.91417914E-01
        1 -1    0    0  501    0 0.00000000E+00 0.00000000E+00 0.10756332E+04 0.10756333E+04 0.32000000E+00 0.0000E+00 0.9000E+01
        2 -1    0    0  502    0 -.00000000E+00 -.00000000E+00 -.12679709E+04 0.12679710E+04 0.32000000E+00 0.0000E+00 0.9000E+01
       25  1    1    2    0    0 0.79406197E+02 0.57828174E+03 -.94937853E+02 0.60444463E+03 0.12500000E+03 0.0000E+00 0.9000E+01
        1  1    1    2  501    0 -.11315667E+02 -.32704180E+02 0.73813983E+03 0.73895069E+03 0.32000000E+00 0.0000E+00 0.9000E+01
        2  1    1    2  502    0 -.68090530E+02 -.54557756E+03 -.83553968E+03 0.10002089E+04 0.32000000E+00 0.0000E+00 0.9000E+01
#aMCatNLO 1  0  0  5  2 0.48963338D+02 0.00000000D+00  -5  6  0 0.00000000D+00 0.00000000D+00 0.00000000D+00 0.00000000D+00 0.00000000D+00
  <mgrwgt>
 0.5065511150D-02    4    2    0
 0.116784919528622D+04 0.000000000000000D+00 0.000000000000000D+00 0.116784919528622D+04
 0.116784919528622D+04 -.000000000000000D+00 -.000000000000000D+00 -.116784919528622D+04
 0.598730865477853D+03 0.794139202905998D+02 0.578346714517833D+03 -.454109716518571D+02
 0.802147682767138D+03 -.113144299424044D+02 -.327006043554103D+02 0.801400997702498D+03
 0.934819842327448D+03 -.680994903481954D+02 -.545646110162422D+03 -.755990026050640D+03
 0.000000000000000D+00 0.000000000000000D+00 -.000000000000000D+00 0.000000000000000D+00
 0.116784919528622D+04 0.000000000000000D+00 0.000000000000000D+00 0.116784919528622D+04
 0.116784919528622D+04 -.000000000000000D+00 -.000000000000000D+00 -.116784919528622D+04
 0.580479752100914D+03 0.766915514895373D+02 0.556533776724435D+03 -.756326906443435D+02
 0.763904708818005D+03 -.149298758246969D+02 -.616693084101524D+02 0.761264999433439D+03
 0.206772682679472D+03 0.124761430050460D+02 0.100584776693639D+03 -.180227608472381D+03
 0.784541246974048D+03 -.742378186698864D+02 -.595449245007921D+03 -.505404700316714D+03
0.197439085431D-02 0.000000000000D+00 0.000000000000D+00 0.297627102821D-04 0.000000000000D+00  6 1 2 25 1 2 21 0 0.16548204D+00 0.19507246D+00 0.34897861D+06 0.34897861D+06 0.34897861D+06 0.10797259D+01  1  2  2  4  6  5        2 0.659130735188D-02 0.100000000000D+01
0.124258200076D-02 0.000000000000D+00 -.758218074959D-05 0.297627102821D-04 0.000000000000D+00  6 1 2 25 1 2 21 2 0.16548204D+00 0.19507246D+00 0.34897861D+06 0.34897861D+06 0.34897861D+06 0.10797259D+01  1  2  3  4  6  5        2 0.483604755111D-02 0.100000000000D+01
-.122127173863D-02 0.000000000000D+00 0.000000000000D+00 0.297627102821D-04 0.000000000000D+00  6 1 2 25 1 2 21 2 0.16548204D+00 0.19507246D+00 0.34897861D+06 0.34897861D+06 0.34897861D+06 0.10797259D+01  1  2 15  4  6  5        2 -.475310941025D-02 0.100000000000D+01
-.413350844349D-03 0.000000000000D+00 0.000000000000D+00 0.297627102821D-04 0.000000000000D+00  6 1 2 25 1 2 21 2 0.16548204D+00 0.19507246D+00 0.34897861D+06 0.34897861D+06 0.34897861D+06 0.10797259D+01  1  2  5  4  6  5        2 -.160873434296D-02 0.100000000000D+01
  </mgrwgt>
  </event>
  <event>
  5     66 0.17698235E-05 0.44244587E+02 0.75467711E-02 0.94412888E-01
        1 -1    0    0  501    0 0.00000000E+00 0.00000000E+00 0.14544715E+04 0.14544715E+04 0.32000000E+00 0.0000E+00 0.9000E+01
        2 -1    0    0  502    0 0.00000000E+00 0.00000000E+00 -.41817087E+03 0.41817099E+03 0.32000000E+00 0.0000E+00 0.9000E+01
       25  1    1    2    0    0 0.33290624E+03 -.34758660E+03 0.27536149E+03 0.56841179E+03 0.12500000E+03 0.0000E+00 0.9000E+01
        1  1    1    2  501    0 0.27509769E+02 0.34668189E+02 0.82186464E+03 0.82305544E+03 0.32000000E+00 0.0000E+00 0.9000E+01
        2  1    1    2  502    0 -.36041601E+03 0.31291841E+03 -.60925517E+02 0.48117528E+03 0.32000000E+00 0.0000E+00 0.9000E+01
#aMCatNLO 1  0  0  1  2 0.20197293D+04 0.00000000D+00  -5  6  0 0.00000000D+00 0.00000000D+00 0.00000000D+00 0.00000000D+00 0.00000000D+00
  <mgrwgt>
 0.1888482424D-01    5    2    0
 0.779883166356880D+03 0.000000000000000D+00 0.000000000000000D+00 0.779883166356880D+03
 0.779883166356880D+03 0.000000000000000D+00 0.000000000000000D+00 -.779883166356880D+03
 0.499558793691746D+03 0.332977197452388D+03 -.347640902071231D+03 -.469678351492485D+02
 0.441988105871980D+03 0.275021325170059D+02 0.346585653157062D+02 0.439768009625046D+03
 0.618219433150033D+03 -.360479329969394D+03 0.312982336755525D+03 -.392800174475798D+03
 0.000000000000000D+00 0.000000000000000D+00 0.000000000000000D+00 0.000000000000000D+00
 0.215959814508549D+04 0.000000000000000D+00 0.000000000000000D+00 0.215959814508549D+04
 0.126326843171492D+04 0.000000000000000D+00 0.000000000000000D+00 -.126326843171492D+04
 0.382264617298082D+03 0.392389963699094D+02 -.356027472624409D+03 -.469678351492485D+02
 0.531062252432189D+03 -.296624056750410D+03 0.254043820177682D+02 0.439768009625046D+03
 0.103613264917517D+04 -.911549304482538D+03 0.297248641907660D+03 -.392800174475798D+03
 0.147340705789496D+04 0.116893436486304D+04 0.333744486989802D+02 0.896329713370574D+03
0.305629070022D-02 0.000000000000D+00 0.000000000000D+00 0.449752253442D-05 0.000000000000D+00  6 1 2 25 1 2 21 0 0.22376486D+00 0.64333992D-01 0.25958145D+06 0.25958145D+06 0.25958145D+06 0.10892325D+01  1  2  2  1  6  1        1 0.234758601248D-01 0.100000000000D+01
0.125113034345D-02 0.000000000000D+00 -.117369610287D-04 0.449752253442D-05 0.000000000000D+00  6 1 2 25 1 2 21 2 0.22376486D+00 0.64333992D-01 0.25958145D+06 0.25958145D+06 0.25958145D+06 0.10892325D+01  1  2  3  1  6  1        1 0.114017249084D-01 0.100000000000D+01
-.175963070446D-02 0.000000000000D+00 0.000000000000D+00 0.449752253442D-05 0.000000000000D+00  6 1 2 25 1 2 21 2 0.22376486D+00 0.64333992D-01 0.25958145D+06 0.25958145D+06 0.25958145D+06 0.10892325D+01  1  2 15  1  6  1        1 -.160357594537D-01 0.100000000000D+01
0.928998546949D-03 0.000000000000D+00 -.165160289438D-02 0.449752253442D-05 0.000000000000D+00  6 1 2 25 1 2 21 2 0.67983916D+00 0.64333992D-01 0.25958145D+06 0.25958145D+06 0.25958145D+06 0.10892325D+01  1  2  5  1  6  1        1 0.424710868673D-04 0.100000000000D+01
0.198298444624D-03 0.000000000000D+00 -.209328198993D-03 0.449752253442D-05 0.000000000000D+00  6 21 2 25 1 2 -1 2 0.67983916D+00 0.64333992D-01 0.25958145D+06 0.25958145D+06 0.25958145D+06 0.10892325D+01  1  2  5  5  6  1        1 0.527574664939D-06 0.100000000000D+01
  </mgrwgt>
  </event>
  <event>
  6     66 0.17698235E-05 0.24481785E+03 0.75467711E-02 0.94431178E-01
        1 -1    0    0  503    0 0.00000000E+00 0.00000000E+00 0.23526580E+04 0.23526580E+04 0.32000000E+00 0.0000E+00 0.9000E+01
        2 -1    0    0  502    0 0.00000000E+00 0.00000000E+00 -.26796812E+04 0.26796812E+04 0.32000000E+00 0.0000E+00 0.9000E+01
       25  1    1    2    0    0 0.46706669E+03 0.15472844E+03 -.15946291E+03 0.53211428E+03 0.12500000E+03 0.0000E+00 0.9000E+01
        1  1    1    2  501    0 -.19854918E+03 -.12938776E+03 0.18710472E+04 0.18859959E+04 0.32000000E+00 0.0000E+00 0.9000E+01
        2  1    1    2  502    0 -.25764467E+03 -.15680623E+02 -.23190689E+04 0.23333897E+04 0.32000000E+00 0.0000E+00 0.9000E+01
       21  1    1    2  503  501 -.10872844E+02 -.96600532E+01 0.28046148E+03 0.28083934E+03 0.75000000E+00 0.0000E+00 0.9000E+01
#aMCatNLO 2  0  0  1  4 0.14544256D+02 0.00000000D+00  -5  6  0 0.00000000D+00 0.00000000D+00 0.00000000D+00 0.00000000D+00 0.00000000D+00
  <mgrwgt>
 0.6486689209D-01    3    2    0
 0.235624180077787D+04 0.000000000000000D+00 0.000000000000000D+00 0.235624180077787D+04
 0.235624180077787D+04 0.000000000000000D+00 0.000000000000000D+00 -.235624180077787D+04
 0.514572765774972D+03 0.465889476483575D+03 0.153672205146020D+03 -.921519416221067D+02
 0.214350912668687D+04 -.203491981842733D+03 -.133779683016841D+03 0.212963034020637D+04
 0.205440170909391D+04 -.262397494640842D+03 -.198925221291793D+02 -.203747839858427D+04
 0.000000000000000D+00 -.000000000000000D+00 -.000000000000000D+00 0.000000000000000D+00
 0.267540356129886D+04 0.000000000000000D+00 0.000000000000000D+00 0.267540356129886D+04
 0.235641872469921D+04 0.000000000000000D+00 0.000000000000000D+00 -.235641872469921D+04
 0.515965147170756D+03 0.467078324281976D+03 0.154728445142312D+03 -.921519416221067D+02
 0.214277559705831D+04 -.198547243669464D+03 -.129386496406389D+03 0.212963034020637D+04
 0.205376530142228D+04 -.257658236390794D+03 -.156818955685783D+02 -.203747839858427D+04
 0.319316240346731D+03 -.108728442217192D+02 -.966005316734511D+01 0.318984836599651D+03
-.528356739290D+00 0.000000000000D+00 0.000000000000D+00 0.342773352027D-03 0.000000000000D+00  6 1 2 25 1 2 21 2 0.36621656D+00 0.41222761D+00 0.25874185D+06 0.25874185D+06 0.25874185D+06 0.10893380D+01  1  2 13  1  6  1        1 -.453851958864D-01 0.100000000000D+01
-.549054623282D-09 0.000000000000D+00 0.000000000000D+00 0.342773352027D-03 0.000000000000D+00  6 1 2 25 1 2 21 2 0.36196025D+00 0.41222761D+00 0.25874185D+06 0.25874185D+06 0.25874185D+06 0.10893380D+01  1  2 13  1  6  1        1 -.492575364394D-10 0.100000000000D+01
0.122911365876D+01 0.000000000000D+00 0.000000000000D+00 0.342773352027D-03 0.315661207040D-04  6 1 2 25 1 2 21 2 0.36194732D+00 0.41225857D+00 0.25874185D+06 0.25874185D+06 0.25874185D+06 0.10893380D+01  1  2  1  1  6  1        1 0.110252088022D+00 0.100000000000D+01
  </mgrwgt>
  </event>
  <event>
  5     66 0.17698235E-05 0.19851313E+03 0.75467711E-02 0.91536761E-01
        1 -1    0    0  501    0 0.00000000E+00 0.00000000E+00 0.18410073E+04 0.18410073E+04 0.32000000E+00 0.0000E+00 0.9000E+01
        2 -1    0    0  502    0 0.00000000E+00 0.00000000E+00 -.16329723E+04 0.16329723E+04 0.32000000E+00 0.0000E+00 0.9000E+01
       25  1    1    2    0    0 0.42964143E+03 -.38611201E+03 0.31974728E+03 0.67196545E+03 0.12500000E+03 0.0000E+00 0.9000E+01
        1  1    1    2  501    0 -.24158594E+03 0.44964178E+03 0.12894805E+04 0.13868315E+04 0.32000000E+00 0.0000E+00 0.9000E+01
        2  1    1    2  502    0 -.18805549E+03 -.63529770E+02 -.14011928E+04 0.14151827E+04 0.32000000E+00 0.0000E+00 0.9000E+01
#aMCatNLO 1  0  0  5  1 0.19415580D+02 0.00000000D+00  -5  6  0 0.00000000D+00 0.00000000D+00 0.00000000D+00 0.00000000D+00 0.00000000D+00
  <mgrwgt>
 0.1867711560D-02    7    2    0
 0.173387253483959D+04 0.000000000000000D+00 0.000000000000000D+00 0.173387253483959D+04
 0.173387253483959D+04 -.000000000000000D+00 -.000000000000000D+00 -.173387253483959D+04
 0.654020508075466D+03 0.429644731349841D+03 -.386084048452695D+03 0.280111294554486D+03
 0.131189819069242D+04 -.241573273403894D+03 0.449618202587489D+03 0.120853741697185D+04
 0.150182637091128D+04 -.188071457945947D+03 -.635341541347934D+02 -.148864871152633D+04
 0.000000000000000D+00 0.000000000000000D+00 0.000000000000000D+00 -.000000000000000D+00
 0.173387253483959D+04 0.000000000000000D+00 0.000000000000000D+00 0.173387253483959D+04
 0.173387253483959D+04 -.000000000000000D+00 -.000000000000000D+00 -.173387253483959D+04
 0.653662401916458D+03 0.429551573665653D+03 -.386115518909354D+03 0.279373920217894D+03
 0.131054888060387D+04 -.241760093231698D+03 0.449555091258078D+03 0.120705867533297D+04
 0.145220016792784D+04 -.198804718898824D+03 -.705272999615839D+02 -.143679779768530D+04
 0.513336192310069D+02 0.110132384648686D+02 0.708772761285964D+01 -.496347978655686D+02
0.978000673273D-03 0.000000000000D+00 0.000000000000D+00 0.860750423895D-05 0.000000000000D+00  6 1 2 25 1 2 21 0 0.28323189D+00 0.25122651D+00 0.42244708D+06 0.42244708D+06 0.42244708D+06 0.10737224D+01  1  2  2  4  6  5        2 0.600091335867D-03 0.100000000000D+01
0.161421859773D-03 0.000000000000D+00 -.375578009886D-05 0.860750423895D-05 0.000000000000D+00  6 1 2 25 1 2 21 2 0.28323189D+00 0.25122651D+00 0.42244708D+06 0.42244708D+06 0.42244708D+06 0.10737224D+01  1  2  3  4  6  5        2 0.114189077652D-03 0.100000000000D+01
-.548220489608D-03 0.000000000000D+00 0.000000000000D+00 0.860750423895D-05 0.000000000000D+00  6 1 2 25 1 2 21 2 0.28323189D+00 0.25122651D+00 0.42244708D+06 0.42244708D+06 0.42244708D+06 0.10737224D+01  1  2 15  4  6  5        2 -.387808640951D-03 0.100000000000D+01
0.238689354215D-08 0.000000000000D+00 0.000000000000D+00 0.860750423895D-05 0.000000000000D+00  6 1 2 25 1 2 21 2 0.28323189D+00 0.25122651D+00 0.43919257D+06 0.43919257D+06 0.43919257D+06 0.10725133D+01  1  2 12  4  6  5        2 0.167909329237D-08 0.100000000000D+01
-.101336997593D-02 0.000000000000D+00 0.000000000000D+00 0.860750423895D-05 0.000000000000D+00  6 1 2 25 1 2 21 2 0.28323189D+00 0.25122651D+00 0.42244708D+06 0.42244708D+06 0.42244708D+06 0.10737224D+01  1  2  4  4  6  5        2 -.716853238061D-03 0.100000000000D+01
-.918209932018D-01 0.000000000000D+00 0.000000000000D+00 0.860750423895D-05 0.000000000000D+00  6 1 2 25 1 2 21 2 0.28323189D+00 0.25122651D+00 0.42244708D+06 0.42244708D+06 0.42244708D+06 0.10737224D+01  1  2  5  4  6  5        2 -.649537462743D-01 0.100000000000D+01
0.950131137804D-01 0.000000000000D+00 -.000000000000D+00 0.860750423895D-05 0.000000000000D+00  6 1 2 25 1 2 21 2 0.28323189D+00 0.25122651D+00 0.42244708D+06 0.42244708D+06 0.42244708D+06 0.10737224D+01  1  2  6  4  6  5        2 0.672118376204D-01 0.100000000000D+01
  </mgrwgt>
  </event>
  <event>
  5     66 0.17698235E-05 0.62326730E+02 0.75467711E-02 0.94707591E-01
        1 -1    0    0  501    0 0.00000000E+00 0.00000000E+00 0.80694122E+03 0.80694128E+03 0.32000000E+00 0.0000E+00 0.9000E+01
        2 -1    0    0  502    0 0.00000000E+00 0.00000000E+00 -.15475737E+04 0.15475737E+04 0.32000000E+00 0.0000E+00 0.9000E+01
       25  1    1    2    0    0 -.33345846E+03 -.32270020E+03 -.17255972E+03 0.51061906E+03 0.12500000E+03 0.0000E+00 0.9000E+01
        1  1    1    2  501    0 0.40120181E+02 0.47703270E+02 0.60274537E+03 0.60595983E+03 0.32000000E+00 0.0000E+00 0.9000E+01
        2  1    1    2  502    0 0.29333828E+03 0.27499693E+03 -.11708181E+04 0.12379361E+04 0.32000000E+00 0.0000E+00 0.9000E+01
#aMCatNLO 1  0  0  1  5 0.41206687D+02 0.00000000D+00  -5  6  0 0.00000000D+00 0.00000000D+00 0.00000000D+00 0.00000000D+00 0.00000000D+00
  <mgrwgt>
 0.7877373844D-02    9    2    0
 0.111749769883530D+04 0.000000000000000D+00 0.000000000000000D+00 0.111749769883530D+04
 0.111749769883530D+04 0.000000000000000D+00 0.000000000000000D+00 -.111749769883530D+04
 0.480784713207455D+03 -.333492052850744D+03 -.322731231151485D+03 -.125117376418696D+02
 0.838036272374939D+03 0.401170333162087D+02 0.476995275705730D+02 0.835715365733773D+03
 0.916174412088211D+03 0.293375019534535D+03 0.275031703580912D+03 -.823203628091903D+03
 0.000000000000000D+00 0.000000000000000D+00 -.000000000000000D+00 0.000000000000000D+00
 0.127570131898707D+04 0.000000000000000D+00 0.000000000000000D+00 0.127570131898707D+04
 0.112037407668186D+04 0.000000000000000D+00 0.000000000000000D+00 -.112037407668186D+04
 0.479750380024680D+03 -.338766759689759D+03 -.315619970984581D+03 -.125117376418696D+02
 0.838444398682514D+03 0.309107647234109D+02 0.601112450608305D+02 0.835715365733773D+03
 0.917180451241704D+03 0.283307288012715D+03 0.288604829126515D+03 -.823203628091903D+03
 0.160700165720033D+03 0.245487069536331D+02 -.330961032027652D+02 0.155327242305214D+03
0.200138381403D-03 0.000000000000D+00 0.000000000000D+00 0.629554868271D-04 0.000000000000D+00  6 1 2 25 1 2 21 0 0.12414481D+00 0.23808827D+00 0.22329504D+06 0.22329504D+06 0.22329504D+06 0.10941692D+01  1  2  2  1  6  1        1 0.783115266072D-03 0.100000000000D+01
0.726779968670D-04 0.000000000000D+00 -.768584082235D-06 0.629554868271D-04 0.000000000000D+00  6 1 2 25 1 2 21 2 0.12414481D+00 0.23808827D+00 0.22329504D+06 0.22329504D+06 0.22329504D+06 0.10941692D+01  1  2  3  1  6  1        1 0.340460918532D-03 0.100000000000D+01
-.113482982080D-03 0.000000000000D+00 0.000000000000D+00 0.629554868271D-04 0.000000000000D+00  6 1 2 25 1 2 21 2 0.12414481D+00 0.23808827D+00 0.22329504D+06 0.22329504D+06 0.22329504D+06 0.10941692D+01  1  2 15  1  6  1        1 -.531612344619D-03 0.100000000000D+01
0.139181925111D-08 0.000000000000D+00 0.000000000000D+00 0.629554868271D-04 0.000000000000D+00  6 1 2 25 1 2 21 2 0.14191440D+00 0.23808827D+00 0.24641661D+06 0.24641661D+06 0.24641661D+06 0.10909311D+01  1  2 12  1  6  1        1 0.517256024842D-08 0.100000000000D+01
-.291008889916D-03 0.000000000000D+00 0.000000000000D+00 0.629554868271D-04 0.000000000000D+00  6 1 2 25 1 2 21 2 0.12414481D+00 0.23808827D+00 0.22329504D+06 0.22329504D+06 0.22329504D+06 0.10941692D+01  1  2  4  1  6  1        1 -.136323451709D-02 0.100000000000D+01
-.109660008533D-01 0.000000000000D+00 -.392608494007D-03 0.629554868271D-04 0.000000000000D+00  6 1 2 25 1 2 21 2 0.14187241D+00 0.23808827D+00 0.22329504D+06 0.22329504D+06 0.22329504D+06 0.10941692D+01  1  2  5  1  6  1        1 -.412697280556D-01 0.100000000000D+01
0.109244143677D-01 0.000000000000D+00 0.389136767766D-03 0.629554868271D-04 0.000000000000D+00  6 1 2 25 1 2 21 2 0.12414481D+00 0.23808827D+00 0.22329504D+06 0.22329504D+06 0.22329504D+06 0.10941692D+01  1  2  6  1  6  1        1 0.511755456998D-01 0.100000000000D+01
0.289114929886D-10 0.000000000000D+00 0.000000000000D+00 0.629554868271D-04 0.000000000000D+00  6 21 2 25 1 2 -1 2 0.14191440D+00 0.23808827D+00 0.24641661D+06 0.24641661D+06 0.24641661D+06 0.10909311D+01  1  2 12  5  6  1        1 0.158749093571D-09 0.100000000000D+01
-.225167845103D-03 0.000000000000D+00 -.814053203976D-05 0.629554868271D-04 0.000000000000D+00  6 21 2 25 1 2 -1 2 0.14187241D+00 0.23808827D+00 0.22329504D+06 0.22329504D+06 0.22329504D+06 0.10941692D+01  1  2  5  5  6  1        1 -.125717845463D-02 0.100000000000D+01
  </mgrwgt>
  </event>
  <event>
  6     66 -.17698235E-05 0.11146077E+03 0.75467711E-02 0.93637642E-01
        1 -1    0    0  501    0 0.00000000E+00 0.00000000E+00 0.14504379E+04 0.14504379E+04 0.32000000E+00 0.0000E+00 0.9000E+01
        2 -1    0    0  503    0 0.00000000E+00 0.00000000E+00 -.35451653E+03 0.35451667E+03 0.32000000E+00 0.0000E+00 0.9000E+01
       25  1    1    2    0    0 -.47588025E+02 0.47590050E+03 0.22320201E+03 0.54239289E+03 0.12500000E+03 0.0000E+00 0.9000E+01
        1  1    1    2  501    0 -.11401113E+03 -.26355644E+02 0.75965895E+03 0.76861888E+03 0.32000000E+00 0.0000E+00 0.9000E+01
        2  1    1    2  502    0 0.16539489E+03 -.43150978E+03 0.11180842E+03 0.47545493E+03 0.32000000E+00 0.0000E+00 0.9000E+01
       21  1    1    2  503  502 -.37957355E+01 -.18035075E+02 0.12519505E+01 0.18487873E+02 0.75000000E+00 0.0000E+00 0.9000E+01
#aMCatNLO 2  0  0  2  5 0.18430180D+02 0.00000000D+00  -5  6  0 0.00000000D+00 0.00000000D+00 0.00000000D+00 0.00000000D+00 0.00000000D+00
  <mgrwgt>
 -.8898757285D-02    4    2    0
 0.705836832319768D+03 0.000000000000000D+00 0.000000000000000D+00 0.705836832319768D+03
 0.705836832319768D+03 0.000000000000000D+00 0.000000000000000D+00 -.705836832319768D+03
 0.507429849733171D+03 -.490054483552097D+02 0.469468980377857D+03 -.138048523696231D+03
 0.384127525100340D+03 -.115004809417605D+03 -.312497723824202D+02 0.365172974187000D+03
 0.520116289806026D+03 0.164010257772815D+03 -.438219207995437D+03 -.227124450490768D+03
 0.000000000000000D+00 -.000000000000000D+00 -.000000000000000D+00 -.000000000000000D+00
 0.710727119311894D+03 0.000000000000000D+00 0.000000000000000D+00 0.710727119311894D+03
 0.723477833720393D+03 0.000000000000000D+00 0.000000000000000D+00 -.723477833720393D+03
 0.513339106398546D+03 -.476331751401381D+02 0.475989205643802D+03 -.138048523696231D+03
 0.383451796579406D+03 -.113972912299989D+03 -.263468116715071D+02 0.365172974187000D+03
 0.515003064634316D+03 0.165401822980561D+03 -.431607318666761D+03 -.227124450490768D+03
 0.224109854200194D+02 -.379573554043387D+01 -.180350753055348D+02 -.127507144084988D+02
-.140929151933D-02 0.000000000000D+00 0.000000000000D+00 0.192333343646D-06 0.000000000000D+00  6 1 2 25 1 2 21 2 0.22160697D+00 0.55420668D-01 0.29814453D+06 0.29814453D+06 0.29814453D+06 0.10847513D+01  1  2 13  2  6  2        2 -.152668933643D-01 0.100000000000D+01
-.108718623742D-05 0.000000000000D+00 0.000000000000D+00 0.192333343646D-06 0.000000000000D+00  6 1 2 25 1 2 21 2 0.22160697D+00 0.54885232D-01 0.29814453D+06 0.29814453D+06 0.29814453D+06 0.10847513D+01  1  2 13  2  6  2        2 -.119048796420D-04 0.100000000000D+01
-.348731139961D-02 0.000000000000D+00 0.000000000000D+00 0.192333343646D-06 0.000000000000D+00  6 1 2 25 1 2 21 2 0.22160697D+00 0.53210644D-01 0.28910559D+06 0.28910559D+06 0.28910559D+06 0.10857424D+01  1  2  8  2  6  2        2 -.396429798378D-01 0.100000000000D+01
0.423923837854D-02 0.000000000000D+00 0.000000000000D+00 0.192333343646D-06 0.125343670791D-07  6 1 2 25 1 2 21 2 0.22314234D+00 0.54540539D-01 0.29814453D+06 0.29814453D+06 0.29814453D+06 0.10847513D+01  1  2  1  2  6  2        2 0.460230207966D-01 0.100000000000D+01
  </mgrwgt>
  </event>
  <event>
  5     66 0.17698235E-05 0.52089444E+02 0.75467711E-02 0.91871448E-01
        1 -1    0    0  501    0 0.00000000E+00 0.00000000E+00 0.18739264E+04 0.18739265E+04 0.32000000E+00 0.0000E+00 0.9000E+01
        2 -1    0    0  502    0 0.00000000E+00 0.00000000E+00 -.14731414E+04 0.14731414E+04 0.32000000E+00 0.0000E+00 0.9000E+01
       25  1    1    2    0    0 0.42998423E+03 -.40776906E+03 -.71627893E+03 0.93799922E+03 0.12500000E+03 0.0000E+00 0.9000E+01
        1  1    1    2  501    0 -.47260515E+03 0.37781761E+03 0.17099780E+04 0.18138706E+04 0.32000000E+00 0.0000E+00 0.9000E+01
        2  1    1    2  502    0 0.42620922E+02 0.29951445E+02 -.59291398E+03 0.59519805E+03 0.32000000E+00 0.0000E+00 0.9000E+01
#aMCatNLO 1  0  0  2  4 0.20123005D+02 0.00000000D+00  -5  6  0 0.00000000D+00 0.00000000D+00 0.00000000D+00 0.00000000D+00 0.00000000D+00
  <mgrwgt>
 0.5329750923D-01    9    2    0
 0.166149289689239D+04 0.000000000000000D+00 0.000000000000000D+00 0.166149289689239D+04
 0.166149289689239D+04 0.000000000000000D+00 0.000000000000000D+00 -.166149289689239D+04
 0.103122888031923D+04 0.429987980456883D+03 -.407768220653669D+03 -.834651674947100D+03
 0.162077996901528D+04 -.472606432741264D+03 0.377818634360723D+03 0.150360365363434D+04
 0.670976944450265D+03 0.426184522843806D+02 0.299495862929459D+02 -.668951978687244D+03
 0.000000000000000D+00 0.000000000000000D+00 -.000000000000000D+00 -.000000000000000D+00
 0.166423131391587D+04 0.000000000000000D+00 0.000000000000000D+00 0.166423131391587D+04
 0.169890726445876D+04 0.000000000000000D+00 0.000000000000000D+00 -.169890726445876D+04
 0.102797034499260D+04 0.424108783484044D+03 -.405692434565754D+03 -.834651674947100D+03
 0.162427010943429D+04 -.481871339392072D+03 0.381089823337796D+03 0.150360365363434D+04
 0.670806268242421D+03 0.387875418482744D+02 0.313021775777861D+02 -.668951978687244D+03
 0.400918557053208D+02 0.189750140597537D+02 -.669956634982826D+01 -.346759505428858D+02
0.125636614622D-01 0.000000000000D+00 0.000000000000D+00 0.484606064835D-04 0.000000000000D+00  6 1 2 25 1 2 21 0 0.28829638D+00 0.22663714D+00 0.39865718D+06 0.39865718D+06 0.39865718D+06 0.10755329D+01  1  2  2  2  6  2        2 0.902172139133D-02 0.100000000000D+01
0.408362928745D-02 0.000000000000D+00 -.482477681029D-04 0.484606064835D-04 0.000000000000D+00  6 1 2 25 1 2 21 2 0.28829638D+00 0.22663714D+00 0.39865718D+06 0.39865718D+06 0.39865718D+06 0.10755329D+01  1  2  3  2  6  2        2 0.339208642606D-02 0.100000000000D+01
-.717244236384D-02 0.000000000000D+00 0.000000000000D+00 0.484606064835D-04 0.000000000000D+00  6 1 2 25 1 2 21 2 0.28829638D+00 0.22663714D+00 0.39865718D+06 0.39865718D+06 0.39865718D+06 0.10755329D+01  1  2 15  2  6  2        2 -.595782395303D-02 0.100000000000D+01
0.398178921674D-08 0.000000000000D+00 0.000000000000D+00 0.484606064835D-04 0.000000000000D+00  6 1 2 25 1 2 21 2 0.28829638D+00 0.23193710D+00 0.41241118D+06 0.41241118D+06 0.41241118D+06 0.10744723D+01  1  2 12  2  6  2        2 0.315018938743D-08 0.100000000000D+01
-.326233986350D-03 0.000000000000D+00 0.000000000000D+00 0.484606064835D-04 0.000000000000D+00  6 1 2 25 1 2 21 2 0.28829638D+00 0.22663714D+00 0.39865718D+06 0.39865718D+06 0.39865718D+06 0.10755329D+01  1  2  4  2  6  2        2 -.270987839229D-03 0.100000000000D+01
-.132043578914D+01 0.000000000000D+00 -.108386755084D+00 0.484606064835D-04 0.000000000000D+00  6 1 2 25 1 2 21 2 0.28829638D+00 0.23189709D+00 0.39865718D+06 0.39865718D+06 0.39865718D+06 0.10755329D+01  1  2  5  2  6  2        2 -.105002609041D+01 0.100000000000D+01
0.132260295177D+01 0.000000000000D+00 0.108358233815D+00 0.484606064835D-04 0.000000000000D+00  6 1 2 25 1 2 21 2 0.28829638D+00 0.22663714D+00 0.39865718D+06 0.39865718D+06 0.39865718D+06 0.10755329D+01  1  2  6  2  6  2        2 0.109862654124D+01 0.100000000000D+01
0.190813464308D-09 0.000000000000D+00 0.000000000000D+00 0.484606064835D-04 0.000000000000D+00  6 1 21 25 1 2 -2 2 0.28829638D+00 0.23193710D+00 0.41241118D+06 0.41241118D+06 0.41241118D+06 0.10744723D+01  1  2 12  6  6  2        2 0.515483069709D-10 0.100000000000D+01
-.546906011600D-02 0.000000000000D+00 -.450629056596D-03 0.484606064835D-04 0.000000000000D+00  6 1 21 25 1 2 -2 2 0.28829638D+00 0.23189709D+00 0.39865718D+06 0.39865718D+06 0.39865718D+06 0.10755329D+01  1  2  5  6  6  2        2 -.148794082026D-02 0.100000000000D+01
  </mgrwgt>
  </event>
  <event>
  5     66 -.17698235E-05 0.36650641E+02 0.75467711E-02 0.93227499E-01
        1 -1    0    0  501    0 0.00000000E+00 0.00000000E+00 0.10379793E+04 0.10379793E+04 0.32000000E+00 0.0000E+00 0.9000E+01
        2 -1    0    0  502    0 0.00000000E+00 0.00000000E+00 -.83126902E+03 0.83126908E+03 0.32000000E+00 0.0000E+00 0.9000E+01
       25  1    1    2    0    0 0.38806431E+03 -.39685009E+03 -.86649311E+02 0.57551456E+03 0.12500000E+03 0.0000E+00 0.9000E+01
        1  1    1    2  501    0 -.51555345E+01 0.36292733E+02 0.65463334E+03 0.65565894E+03 0.32000000E+00 0.0000E+00 0.9000E+01
        2  1    1    2  502    0 -.38290878E+03 0.36055736E+03 -.36127377E+03 0.63807490E+03 0.32000000E+00 0.0000E+00 0.9000E+01
#aMCatNLO 1  0  0  1  4 0.24321108D+01 0.00000000D+00  -5  6  0 0.00000000D+00 0.00000000D+00 0.00000000D+00 0.00000000D+00 0.00000000D+00
  <mgrwgt>
 -.1904294401D-01   13    2    0
 0.928891875303612D+03 0.000000000000000D+00 0.000000000000000D+00 0.928891875303612D+03
 0.928891875303612D+03 0.000000000000000D+00 0.000000000000000D+00 -.928891875303612D+03
 0.588763190096915D+03 0.388123280385939D+03 -.396903804622052D+03 -.151144907661799D+03
 0.586762658620500D+03 -.515462793636562D+01 0.362863509886906D+02 0.585616895328474D+03
 0.682257901889808D+03 -.382968652449574D+03 0.360617453633361D+03 -.434471987666675D+03
 0.000000000000000D+00 0.000000000000000D+00 0.000000000000000D+00 0.000000000000000D+00
 0.113130147639405D+04 0.000000000000000D+00 0.000000000000000D+00 0.113130147639405D+04
 0.928899977260918D+03 0.000000000000000D+00 0.000000000000000D+00 -.928899977260918D+03
 0.589225984913494D+03 0.388040824007875D+03 -.397670462931901D+03 -.151144907661799D+03
 0.586716651310309D+03 -.523676863483955D+01 0.355226277869164D+02 0.585616895328474D+03
 0.681842706377197D+03 -.383064136175451D+03 0.359729670376110D+03 -.434471987666675D+03
 0.202416111053972D+03 0.260080802415049D+00 0.241816476887469D+01 0.202401499133136D+03
0.170948630532D-05 0.000000000000D+00 0.000000000000D+00 0.691090434839D-05 0.000000000000D+00  6 1 2 25 1 2 21 0 0.15968913D+00 0.12788755D+00 0.32019460D+06 0.32019460D+06 0.32019460D+06 0.10824648D+01  1  2  2  1  6  1        1 0.113625717922D-04 0.100000000000D+01
0.940612983803D-06 0.000000000000D+00 -.656487753050D-08 0.691090434839D-05 0.000000000000D+00  6 1 2 25 1 2 21 2 0.15968913D+00 0.12788755D+00 0.32019460D+06 0.32019460D+06 0.32019460D+06 0.10824648D+01  1  2  3  1  6  1        1 0.732570749312D-05 0.100000000000D+01
-.108343827463D-05 0.000000000000D+00 0.000000000000D+00 0.691090434839D-05 0.000000000000D+00  6 1 2 25 1 2 21 2 0.15968913D+00 0.12788755D+00 0.32019460D+06 0.32019460D+06 0.32019460D+06 0.10824648D+01  1  2 15  1  6  1        1 -.843806328798D-05 0.100000000000D+01
0.109946189021D-03 0.000000000000D+00 0.000000000000D+00 0.691090434839D-05 0.000000000000D+00  6 1 2 25 1 2 21 2 0.19571825D+00 0.12788755D+00 0.32111661D+06 0.32111661D+06 0.32111661D+06 0.10823730D+01  1  2 12  1  6  1        1 0.579598596513D-03 0.100000000000D+01
0.423797886989D-09 0.000000000000D+00 0.000000000000D+00 0.691090434839D-05 0.000000000000D+00  6 1 2 25 1 2 21 2 0.19448719D+00 0.12788755D+00 0.32111661D+06 0.32111661D+06 0.32111661D+06 0.10823730D+01  1  2 12  1  6  1        1 0.226310733636D-08 0.100000000000D+01
-.385170190292D-01 0.000000000000D+00 0.000000000000D+00 0.691090434839D-05 0.000000000000D+00  6 1 2 25 1 2 21 2 0.15968913D+00 0.12788755D+00 0.32019460D+06 0.32019460D+06 0.32019460D+06 0.10824648D+01  1  2  4  1  6  1        1 -.299979289861D+00 0.100000000000D+01
-.258293425098D-01 0.000000000000D+00 -.227050645256D-05 0.691090434839D-05 0.000000000000D+00  6 1 2 25 1 2 21 2 0.19448670D+00 0.12788755D+00 0.32019460D+06 0.32019460D+06 0.32019460D+06 0.10824648D+01  1  2  5  1  6  1        1 -.137975277438D+00 0.100000000000D+01
0.253359328598D-01 0.000000000000D+00 0.222709135904D-05 0.691090434839D-05 0.000000000000D+00  6 1 2 25 1 2 21 2 0.15968913D+00 0.12788755D+00 0.32019460D+06 0.32019460D+06 0.32019460D+06 0.10824648D+01  1  2  6  1  6  1        1 0.197321997880D+00 0.100000000000D+01
0.413289904954D-01 0.000000000000D+00 0.000000000000D+00 0.691090434839D-05 0.124126421628D-04  6 1 2 25 1 2 21 2 0.19448609D+00 0.12788867D+00 0.32111661D+06 0.32111661D+06 0.32111661D+06 0.10823730D+01  1  2 11  1  6  1        1 0.220699445647D+00 0.100000000000D+01
0.311170240215D-05 0.000000000000D+00 0.000000000000D+00 0.691090434839D-05 0.000000000000D+00  6 21 2 25 1 2 -1 2 0.19571825D+00 0.12788755D+00 0.32111661D+06 0.32111661D+06 0.32111661D+06 0.10823730D+01  1  2 12  5  6  1        1 0.158875643682D-04 0.100000000000D+01
0.119943484600D-10 0.000000000000D+00 0.000000000000D+00 0.691090434839D-05 0.000000000000D+00  6 21 2 25 1 2 -1 2 0.19448719D+00 0.12788755D+00 0.32111661D+06 0.32111661D+06 0.32111661D+06 0.10823730D+01  1  2 12  5  6  1        1 0.625625074488D-10 0.100000000000D+01
-.730981965175D-03 0.000000000000D+00 -.642585919952D-07 0.691090434839D-05 0.000000000000D+00  6 21 2 25 1 2 -1 2 0.19448670D+00 0.12788755D+00 0.32019460D+06 0.32019460D+06 0.32019460D+06 0.10824648D+01  1  2  5  5  6  1        1 -.381449256893D-02 0.100000000000D+01
0.785832540954D-03 0.000000000000D+00 0.000000000000D+00 0.691090434839D-05 0.227754886388D-06  6 21 2 25 1 2 -1 2 0.19448609D+00 0.12788867D+00 0.32111661D+06 0.32111661D+06 0.32111661D+06 0.10823730D+01  1  2 11  5  6  1        1 0.409893362404D-02 0.100000000000D+01
  </mgrwgt>
  </event>
  <event>
  6     66 -.17698235E-05 0.18808269E+03 0.75467711E-02 0.93241085E-01
        1 -1    0    0  501    0 0.00000000E+00 0.00000000E+00 0.89937477E+03 0.89937483E+03 0.32000000E+00 0.0000E+00 0.9000E+01
        2 -1    0    0  502    0 -.00000000E+00 -.00000000E+00 -.99703086E+03 0.99703091E+03 0.32000000E+00 0.0000E+00 0.9000E+01
       25  1    1    2    0    0 0.48156820E+03 0.94554864E+02 -.22114511E+03 0.55261081E+03 0.12500000E+03 0.0000E+00 0.9000E+01
        1  1    1    2  503    0 -.31112756E+03 -.21863217E+03 0.59930854E+03 0.70976843E+03 0.32000000E+00 0.0000E+00 0.9000E+01
        2  1    1    2  502    0 -.12792340E+03 0.14863184E+03 -.52747952E+03 0.56275267E+03 0.32000000E+00 0.0000E+00 0.9000E+01
       21  1    1    2  501  503 -.42517232E+02 -.24554533E+02 0.51660004E+02 0.71273828E+02 0.75000000E+00 0.0000E+00 0.9000E+01
#aMCatNLO 2  0  0  4  1 0.12994989D+02 0.00000000D+00  -5  6  0 0.00000000D+00 0.00000000D+00 0.00000000D+00 0.00000000D+00 0.00000000D+00
  <mgrwgt>
 -.1127099272D-02    6    2    0
 0.946944826175206D+03 0.000000000000000D+00 0.000000000000000D+00 0.946944826175206D+03
 0.946944826175206D+03 -.000000000000000D+00 -.000000000000000D+00 -.946944826175206D+03
 0.542111119453444D+03 0.481757666140665D+03 0.945640384469952D+02 -.192942114589741D+03
 0.814974989852133D+03 -.353902759243277D+03 -.243364099205423D+03 0.692611713951195D+03
 0.536803543044835D+03 -.127854906897388D+03 0.148800060758428D+03 -.499669599361454D+03
 0.000000000000000D+00 -.000000000000000D+00 0.000000000000000D+00 0.000000000000000D+00
 0.946944826175206D+03 0.000000000000000D+00 0.000000000000000D+00 0.946944826175206D+03
 0.946944826175206D+03 -.000000000000000D+00 -.000000000000000D+00 -.946944826175206D+03
 0.541842983269097D+03 0.481600384206323D+03 0.944558822507732D+02 -.192634303171852D+03
 0.741608980645845D+03 -.311117283878617D+03 -.218628580756383D+03 0.636703588432648D+03
 0.536527288837785D+03 -.128010647393228D+03 0.148692964544878D+03 -.499364804643305D+03
 0.739103995976840D+02 -.424724529344782D+02 -.245202660392674D+02 0.552955193825089D+02
-.374898134184D-03 0.000000000000D+00 0.000000000000D+00 0.581842855273D-06 0.000000000000D+00  6 1 2 25 1 2 21 2 0.13836536D+00 0.15338937D+00 0.32032463D+06 0.32032463D+06 0.32032463D+06 0.10824519D+01  1  2 13  3  6  4        1 -.292173341271D-02 0.100000000000D+01
-.148038855626D-07 0.000000000000D+00 0.000000000000D+00 0.581842855273D-06 0.000000000000D+00  6 1 2 25 1 2 21 2 0.13836536D+00 0.15338937D+00 0.32032463D+06 0.32032463D+06 0.32032463D+06 0.10824519D+01  1  2 13  3  6  4        1 -.115372692319D-06 0.100000000000D+01
-.189819461220D-04 0.000000000000D+00 0.000000000000D+00 0.581842855273D-06 0.000000000000D+00  6 1 2 25 1 2 21 2 0.13836536D+00 0.15338937D+00 0.32052695D+06 0.32052695D+06 0.32052695D+06 0.10824317D+01  1  2  8  3  6  4        1 -.147924026530D-03 0.100000000000D+01
-.293587889144D-04 0.000000000000D+00 0.000000000000D+00 0.581842855273D-06 0.000000000000D+00  6 1 2 25 1 2 21 2 0.13836536D+00 0.15338937D+00 0.32052695D+06 0.32052695D+06 0.32052695D+06 0.10824317D+01  1  2  9  3  6  4        1 -.228789516224D-03 0.100000000000D+01
0.321415396660D-04 0.000000000000D+00 0.000000000000D+00 0.581842855273D-06 0.000000000000D+00  6 1 2 25 1 2 21 2 0.13836536D+00 0.15338937D+00 0.32052695D+06 0.32052695D+06 0.32052695D+06 0.10824317D+01  1  2 10  3  6  4        1 0.250475158642D-03 0.100000000000D+01
0.246488873834D-03 0.000000000000D+00 0.000000000000D+00 0.581842855273D-06 0.105376816879D-07  6 1 2 25 1 2 21 2 0.13836536D+00 0.15338937D+00 0.32032463D+06 0.32032463D+06 0.32032463D+06 0.10824519D+01  1  2  1  3  6  4        1 0.192098789745D-02 0.100000000000D+01
  </mgrwgt>
  </event>
  <event>
  5     66 0.17698235E-05 0.31322200E+02 0.75467711E-02 0.91418673E-01
        1 -1    0    0  501    0 0.00000000E+00 0.00000000E+00 0.21464939E+04 0.21464939E+04 0.32000000E+00 0.0000E+00 0.9000E+01
        2 -1    0    0  502    0 0.00000000E+00 0.00000000E+00 -.44815341E+03 0.44815353E+03 0.32000000E+00 0.0000E+00 0.9000E+01
       25  1    1    2    0    0 0.55354950E+03 0.21451832E+03 0.37348887E+03 0.71242831E+03 0.12500000E+03 0.0000E+00 0.9000E+01
        1  1    1    2  501    0 -.31275069E+02 -.18188773E+01 0.13178784E+04 0.13182507E+04 0.32000000E+00 0.0000E+00 0.9000E+01
        2  1    1    2  502    0 -.52227443E+03 -.21269944E+03 0.69732248E+01 0.56396841E+03 0.32000000E+00 0.0000E+00 0.9000E+01
#aMCatNLO 1  0  0  1  4 0.69312925D+02 0.00000000D+00  -5  6  0 0.00000000D+00 0.00000000D+00 0.00000000D+00 0.00000000D+00 0.00000000D+00
  <mgrwgt>
 0.7520610294D-02    4    2    0
 0.980794955165170D+03 0.000000000000000D+00 0.000000000000000D+00 0.980794955165170D+03
 0.980794955165170D+03 0.000000000000000D+00 0.000000000000000D+00 -.980794955165170D+03
 0.619044417250179D+03 0.553624945954708D+03 0.214549803433903D+03 -.122714268085394D+03
 0.602559099946775D+03 -.312693637423911D+02 -.181854549083715D+01 0.601744454658380D+03
 0.739986393133385D+03 -.522355582212317D+03 -.212731257943065D+03 -.479030186572986D+03
 0.000000000000000D+00 -.000000000000000D+00 -.000000000000000D+00 -.000000000000000D+00
 0.102298716776312D+04 0.000000000000000D+00 0.000000000000000D+00 0.102298716776312D+04
 0.110638353605464D+04 0.000000000000000D+00 0.000000000000000D+00 -.110638353605464D+04
 0.655225352026522D+03 0.578778386170343D+03 0.252293579087140D+03 -.122714268085394D+03
 0.602743990833232D+03 -.747729084964409D+01 0.338824422822438D+02 0.601744454658380D+03
 0.708597493371992D+03 -.493761269559645D+03 -.169824311121131D+03 -.479030186572986D+03
 0.162803867586013D+03 -.775398257610535D+02 -.116351710248252D+03 -.833963682915275D+02
0.341099573508D-02 0.000000000000D+00 0.000000000000D+00 0.778464002096D-05 0.000000000000D+00  6 1 2 25 1 2 21 0 0.33022984D+00 0.68946689D-01 0.36125759D+06 0.36125759D+06 0.36125759D+06 0.10786317D+01  1  2  2  1  6  1        1 0.822901950309D-02 0.100000000000D+01
0.215230547661D-02 0.000000000000D+00 -.130991217585D-04 0.778464002096D-05 0.000000000000D+00  6 1 2 25 1 2 21 2 0.33022984D+00 0.68946689D-01 0.36125759D+06 0.36125759D+06 0.36125759D+06 0.10786317D+01  1  2  3  1  6  1        1 0.604111565911D-02 0.100000000000D+01
-.192436403998D-02 0.000000000000D+00 0.000000000000D+00 0.778464002096D-05 0.000000000000D+00  6 1 2 25 1 2 21 2 0.33022984D+00 0.68946689D-01 0.36125759D+06 0.36125759D+06 0.36125759D+06 0.10786317D+01  1  2 15  1  6  1        1 -.540132702449D-02 0.100000000000D+01
-.480330747931D-03 0.000000000000D+00 0.000000000000D+00 0.778464002096D-05 0.000000000000D+00  6 1 2 25 1 2 21 2 0.33022984D+00 0.68946689D-01 0.36125759D+06 0.36125759D+06 0.36125759D+06 0.10786317D+01  1  2  4  1  6  1        1 -.134819784385D-02 0.100000000000D+01
  </mgrwgt>
  </event>
  <event>
  5     66 0.17698235E-05 0.85972294E+02 0.75467711E-02 0.79692112E-01
        1 -1    0    0  501    0 0.00000000E+00 0.00000000E+00 0.30663155E+04 0.30663155E+04 0.32000000E+00 0.0000E+00 0.9000E+01
        2 -1    0    0  502    0 0.00000000E+00 0.00000000E+00 -.17963595E+04 0.17963595E+04 0.32000000E+00 0.0000E+00 0.9000E+01
       25  1    1    2    0    0 0.11607604E+02 0.82904300E+03 0.86259114E+03 0.12029695E+04 0.12500000E+03 0.0000E+00 0.9000E+01
        1  1    1    2  501    0 -.97125019E+02 -.82026449E+03 0.19484108E+04 0.21162637E+04 0.32000000E+00 0.0000E+00 0.9000E+01
        2  1    1    2  502    0 0.85517414E+02 -.87785134E+01 -.15410459E+04 0.15434419E+04 0.32000000E+00 0.0000E+00 0.9000E+01
#aMCatNLO 1  0  0  2  5 0.69121664D+01 0.00000000D+00  -5  6  0 0.00000000D+00 0.00000000D+00 0.00000000D+00 0.00000000D+00 0.00000000D+00
  <mgrwgt>
 0.1541776844D-01    3    2    0
 0.234695653943619D+04 0.000000000000000D+00 0.000000000000000D+00 0.234695653943619D+04
 0.234695653943619D+04 0.000000000000000D+00 0.000000000000000D+00 -.234695653943619D+04
 0.101287899412112D+04 0.115970920045070D+02 0.829000964362627D+03 0.568262056866984D+03
 0.166511373863134D+04 -.971199602325716D+02 -.820221766510017D+03 0.144582423885009D+04
 0.201592034611991D+04 0.855228682280647D+02 -.877919785261020D+01 -.201408629571707D+04
 0.000000000000000D+00 0.000000000000000D+00 -.000000000000000D+00 0.000000000000000D+00
 0.379836195496742D+04 0.000000000000000D+00 0.000000000000000D+00 0.379836195496742D+04
 0.360557266045414D+04 0.000000000000000D+00 0.000000000000000D+00 -.360557266045414D+04
 0.149925007379907D+04 -.107894499380987D+03 0.137752052453499D+04 0.568262056866984D+03
 0.147287105050361D+04 -.246380920183026D+03 -.135047561751146D+03 0.144582423885009D+04
 0.221524910917920D+04 -.115736365659135D+03 0.915090215655218D+03 -.201408629571707D+04
 0.221656438193968D+04 0.470011785223147D+03 -.215756317843906D+04 0.192789294513283D+03
0.268210728733D+00 0.000000000000D+00 0.000000000000D+00 0.335015628630D-04 0.000000000000D+00  6 1 2 25 1 2 21 0 0.47174085D+00 0.27636300D+00 0.76595411D+06 0.76595411D+06 0.76595411D+06 0.10556603D+01  1  2  2  2  6  2        2 0.174714194892D-01 0.100000000000D+01
0.132405741289D+00 0.000000000000D+00 -.102999981984D-02 0.335015628630D-04 0.000000000000D+00  6 1 2 25 1 2 21 2 0.47174085D+00 0.27636300D+00 0.76595411D+06 0.76595411D+06 0.76595411D+06 0.10556603D+01  1  2  3  2  6  2        2 0.961185536316D-02 0.100000000000D+01
-.160695304413D+00 0.000000000000D+00 0.000000000000D+00 0.335015628630D-04 0.000000000000D+00  6 1 2 25 1 2 21 2 0.47174085D+00 0.27636300D+00 0.76595411D+06 0.76595411D+06 0.76595411D+06 0.10556603D+01  1  2 15  2  6  2        2 -.116655064087D-01 0.100000000000D+01
  </mgrwgt>
  </event>
  <event>
  5     66 0.17698235E-05 0.75064208E+02 0.75467711E-02 0.95508046E-01
        1 -1    0    0  501    0 0.00000000E+00 0.00000000E+00 0.12734779E+04 0.12734780E+04 0.32000000E+00 0.0000E+00 0.9000E+01
        2 -1    0    0  502    0 0.00000000E+00 0.00000000E+00 -.11479781E+04 0.11479781E+04 0.32000000E+00 0.0000E+00 0.9000E+01
       25  1    1    2    0    0 0.28397784E+03 0.35429632E+03 -.22168711E+03 0.52051847E+03 0.12500000E+03 0.0000E+00 0.9000E+01
        1  1    1    2  501    0 -.24529703E+03 -.28997177E+03 0.10900337E+04 0.11543084E+04 0.32000000E+00 0.0000E+00 0.9000E+01
        2  1    1    2  502    0 -.38680816E+02 -.64324552E+02 -.74284675E+03 0.74662926E+03 0.32000000E+00 0.0000E+00 0.9000E+01
#aMCatNLO 1  0  0  5  2 0.67912939D+02 0.00000000D+00  -5  6  0 0.00000000D+00 0.00000000D+00 0.00000000D+00 0.00000000D+00 0.00000000D+00
  <mgrwgt>
 0.1712643468D-01    4    2    0
 0.120910084298962D+04 0.000000000000000D+00 0.000000000000000D+00 0.120910084298962D+04
 0.120910084298962D+04 -.000000000000000D+00 -.000000000000000D+00 -.120910084298962D+04
 0.532702911512112D+03 0.283977645112244D+03 0.354297278816434D+03 -.248952861468303D+03
 0.109927805622012D+04 -.245294088378982D+03 -.289968298116639D+03 0.103158200894585D+04
 0.786220718247007D+03 -.386835567332627D+02 -.643289806997951D+02 -.782629147477546D+03
 0.000000000000000D+00 0.000000000000000D+00 0.000000000000000D+00 0.000000000000000D+00
 0.120910084298962D+04 0.000000000000000D+00 0.000000000000000D+00 0.120910084298962D+04
 0.120910084298962D+04 -.000000000000000D+00 -.000000000000000D+00 -.120910084298962D+04
 0.552393803180665D+03 0.281674810940091D+03 0.350467771203244D+03 -.295542815886453D+03
 0.101772006410641D+04 -.249786863583128D+03 -.297439577228561D+03 0.940686105756934D+03
 0.737946898542741D+03 -.945244769444380D+02 -.254085539143015D+02 -.731426793134634D+03
 0.110140920149429D+03 0.626365295874754D+02 -.276196400603821D+02 0.862835032641528D+02
0.121302929882D-01 0.000000000000D+00 0.000000000000D+00 0.842883839363D-04 0.000000000000D+00  6 1 2 25 1 2 21 0 0.19591969D+00 0.17661202D+00 0.21428514D+06 0.21428514D+06 0.21428514D+06 0.10955316D+01  1  2  2  4  6  5        2 0.353075057717D-01 0.100000000000D+01
0.327419377037D-02 0.000000000000D+00 -.465835190541D-04 0.842883839363D-04 0.000000000000D+00  6 1 2 25 1 2 21 2 0.19591969D+00 0.17661202D+00 0.21428514D+06 0.21428514D+06 0.21428514D+06 0.10955316D+01  1  2  3  4  6  5        2 0.114379962346D-01 0.100000000000D+01
-.744499435690D-02 0.000000000000D+00 0.000000000000D+00 0.842883839363D-04 0.000000000000D+00  6 1 2 25 1 2 21 2 0.19591969D+00 0.17661202D+00 0.21428514D+06 0.21428514D+06 0.21428514D+06 0.10955316D+01  1  2 15  4  6  5        2 -.260081789269D-01 0.100000000000D+01
-.103363806666D-02 0.000000000000D+00 0.000000000000D+00 0.842883839363D-04 0.000000000000D+00  6 1 2 25 1 2 21 2 0.19591969D+00 0.17661202D+00 0.21428514D+06 0.21428514D+06 0.21428514D+06 0.10955316D+01  1  2  4  4  6  5        2 -.361088840296D-02 0.100000000000D+01
  </mgrwgt>
  </event>
  <event>
  6     66 -.17698235E-05 0.42285346E+02 0.75467711E-02 0.92883184E-01
        1 -1    0    0  503    0 0.00000000E+00 0.00000000E+00 0.38475293E+03 0.38475306E+03 0.32000000E+00 0.0000E+00 0.9000E+01
        2 -1    0    0  502    0 0.00000000E+00 0.00000000E+00 -.41312304E+04 0.41312304E+04 0.32000000E+00 0.0000E+00 0.9000E+01
       25  1    1    2    0    0 0.32110406E+03 0.35272985E+03 -.31863753E+04 0.32243044E+04 0.12500000E+03 0.0000E+00 0.9000E+01
        1  1    1    2  501    0 -.33630596E+03 -.42779761E+03 0.92649934E+02 0.55199330E+03 0.32000000E+00 0.0000E+00 0.9000E+01
        2  1    1    2  502    0 -.42446287E+02 0.58539995E+02 -.67262734E+03 0.67650296E+03 0.32000000E+00 0.0000E+00 0.9000E+01
       21  1    1    2  503  501 0.57648179E+02 0.16527772E+02 0.19875249E+02 0.63182813E+02 0.75000000E+00 0.0000E+00 0.9000E+01
#aMCatNLO 2  0  0  1  4 0.59970658D+02 0.00000000D+00  -5  6  0 0.00000000D+00 0.00000000D+00 0.00000000D+00 0.00000000D+00 0.00000000D+00
  <mgrwgt>
 -.4459079092D-02    3    2    0
 0.118726833737105D+04 0.000000000000000D+00 0.000000000000000D+00 0.118726833737105D+04
 0.118726833737105D+04 0.000000000000000D+00 0.000000000000000D+00 -.118726833737105D+04
 0.100263575295299D+04 0.345281413298248D+03 0.359697048168164D+03 -.860843907029310D+03
 0.117094072985495D+04 -.307755917435625D+03 -.419616028177518D+03 0.104895704250133D+04
 0.200960191934150D+03 -.375254958626228D+02 0.599189800093540D+02 -.188113135472016D+03
 0.000000000000000D+00 0.000000000000000D+00 0.000000000000000D+00 0.000000000000000D+00
 0.133134746590821D+04 0.000000000000000D+00 0.000000000000000D+00 0.133134746590821D+04
 0.119390382813893D+04 0.000000000000000D+00 0.000000000000000D+00 -.119390382813893D+04
 0.992069203468197D+03 0.321071894978180D+03 0.352756162888269D+03 -.860843907029310D+03
 0.118170640905456D+04 -.336309741311550D+03 -.427802428799162D+03 0.104895704250133D+04
 0.201518242884486D+03 -.424103330962235D+02 0.585184938699303D+02 -.188113135472016D+03
 0.149957438639894D+03 0.576481794295935D+02 0.165277720409626D+02 0.137443637769279D+03
-.242532003172D-01 0.000000000000D+00 0.000000000000D+00 0.139524606528D-05 0.000000000000D+00  6 1 2 25 1 2 21 2 0.62068430D-01 0.63204103D+00 0.34193907D+06 0.34193907D+06 0.34193907D+06 0.10803724D+01  1  2 13  1  6  1        1 -.679713360876D-02 0.100000000000D+01
-.590957898602D-06 0.000000000000D+00 0.000000000000D+00 0.139524606528D-05 0.000000000000D+00  6 1 2 25 1 2 21 2 0.60110925D-01 0.63204103D+00 0.34193907D+06 0.34193907D+06 0.34193907D+06 0.10803724D+01  1  2 13  1  6  1        1 -.172993337500D-06 0.100000000000D+01
0.818600731838D-02 0.000000000000D+00 0.000000000000D+00 0.139524606528D-05 0.713732381752D-09  6 1 2 25 1 2 21 2 0.59192723D-01 0.63557342D+00 0.34193907D+06 0.34193907D+06 0.34193907D+06 0.10803724D+01  1  2  1  1  6  1        1 0.233822751040D-02 0.100000000000D+01
  </mgrwgt>
  </event>
  <event>
  5     66 0.17698235E-05 0.87735651E+02 0.75467711E-02 0.94569547E-01
        1 -1    0    0  501    0 0.00000000E+00 0.00000000E+00 0.10749685E+04 0.10749685E+04 0.32000000E+00 0.0000E+00 0.9000E+01
        2 -1    0    0  502    0 0.00000000E+00 0.00000000E+00 -.35485072E+04 0.35485073E+04 0.32000000E+00 0.0000E+00 0.9000E+01
       25  1    1    2    0    0 0.40235226E+03 -.28783527E+03 -.11072899E+03 0.52213254E+03 0.12500000E+03 0.0000E+00 0.9000E+01
        1  1    1    2  501    0 -.33170609E+03 0.23582029E+03 0.82099143E+03 0.91633354E+03 0.32000000E+00 0.0000E+00 0.9000E+01
        2  1    1    2  502    0 -.70646167E+02 0.52014979E+02 -.31838012E+04 0.31850097E+04 0.32000000E+00 0.0000E+00 0.9000E+01
#aMCatNLO 1  0  0  2  5 0.93359859D+00 0.00000000D+00  -5  6  0 0.00000000D+00 0.00000000D+00 0.00000000D+00 0.00000000D+00 0.00000000D+00
  <mgrwgt>
 0.1321876652D-01    4    2    0
 0.195308308423495D+04 0.000000000000000D+00 0.000000000000000D+00 0.195308308423495D+04
 0.195308308423495D+04 0.000000000000000D+00 0.000000000000000D+00 -.195308308423495D+04
 0.547917892975863D+03 0.402347326603396D+03 -.287831889139360D+03 0.199645810906907D+03
 0.160444042080713D+04 -.331696084358804D+03 0.235813176160680D+03 0.155196614572928D+04
 0.175380785468691D+04 -.706512422445919D+02 0.520187129786803D+02 -.175161195663619D+04
 0.000000000000000D+00 0.000000000000000D+00 0.000000000000000D+00 0.000000000000000D+00
 0.306804567478014D+04 0.000000000000000D+00 0.000000000000000D+00 0.306804567478014D+04
 0.230709064894418D+04 0.000000000000000D+00 0.000000000000000D+00 -.230709064894418D+04
 0.501989626798231D+03 0.273463461161107D+03 -.348895214943023D+03 0.199645810906907D+03
 0.171978529588919D+04 -.739769225946238D+03 0.424739780309078D+02 0.155196614572928D+04
 0.183125456892414D+04 -.510744006897153D+03 -.156490923038151D+03 -.175161195663619D+04
 0.132210683211275D+04 0.977049771682284D+03 0.462912159950266D+03 0.760955025835954D+03
0.133896394898D+00 0.000000000000D+00 0.000000000000D+00 0.483749338057D-03 0.000000000000D+00  6 1 2 25 1 2 21 0 0.16537977D+00 0.54592420D+00 0.25248765D+06 0.25248765D+06 0.25248765D+06 0.10901358D+01  1  2  2  2  6  2        2 0.203162917242D-01 0.100000000000D+01
0.442779782072D-01 0.000000000000D+00 -.514197412140D-03 0.483749338057D-03 0.000000000000D+00  6 1 2 25 1 2 21 2 0.16537977D+00 0.54592420D+00 0.25248765D+06 0.25248765D+06 0.25248765D+06 0.10901358D+01  1  2  3  2  6  2        2 0.798407318078D-02 0.100000000000D+01
-.831091829145D-01 0.000000000000D+00 0.000000000000D+00 0.483749338057D-03 0.000000000000D+00  6 1 2 25 1 2 21 2 0.16537977D+00 0.54592420D+00 0.25248765D+06 0.25248765D+06 0.25248765D+06 0.10901358D+01  1  2 15  2  6  2        2 -.149860003833D-01 0.100000000000D+01
-.530166283004D-03 0.000000000000D+00 0.000000000000D+00 0.483749338057D-03 0.000000000000D+00  6 1 2 25 1 2 21 2 0.16537977D+00 0.54592420D+00 0.25248765D+06 0.25248765D+06 0.25248765D+06 0.10901358D+01  1  2  4  2  6  2        2 -.955980054392D-04 0.100000000000D+01
  </mgrwgt>
  </event>
  <event>
  5     66 0.17698235E-05 0.70903012E+02 0.75467711E-02 0.91297151E-01
        1 -1    0    0  501    0 0.00000000E+00 0.00000000E+00 0.10898798E+04 0.10898798E+04 0.32000000E+00 0.0000E+00 0.9000E+01
        2 -1    0    0  502    0 0.00000000E+00 0.00000000E+00 -.85764050E+03 0.85764056E+03 0.32000000E+00 0.0000E+00 0.9000E+01
       25  1    1    2    0    0 -.45041208E+03 0.32172226E+03 -.97363858E+02 0.57574385E+03 0.12500000E+03 0.0000E+00 0.9000E+01
        1  1    1    2  501    0 0.38697179E+03 -.35337011E+03 0.76685848E+03 0.92881087E+03 0.32000000E+00 0.0000E+00 0.9000E+01
        2  1    1    2  502    0 0.63440290E+02 0.31647848E+02 -.43725534E+03 0.44296567E+03 0.32000000E+00 0.0000E+00 0.9000E+01
#aMCatNLO 1  0  0  1  2 0.17589104D+03 0.00000000D+00  -5  6  0 0.00000000D+00 0.00000000D+00 0.00000000D+00 0.00000000D+00 0.00000000D+00
  <mgrwgt>
 0.1035576845D-01    7    2    0
 0.966811846479408D+03 0.000000000000000D+00 0.000000000000000D+00 0.966811846479408D+03
 0.966811846479408D+03 0.000000000000000D+00 0.000000000000000D+00 -.966811846479408D+03
 0.591548411863495D+03 -.450408736125021D+03 0.321710843176668D+03 -.167148518937627D+03
 0.843360445629395D+03 0.386961920588280D+03 -.353361098954214D+03 0.660797432662015D+03
 0.498714835465926D+03 0.634468155367409D+02 0.316502557775467D+02 -.493648913724388D+03
 0.000000000000000D+00 -.000000000000000D+00 0.000000000000000D+00 0.000000000000000D+00
 0.105527111720043D+04 0.000000000000000D+00 0.000000000000000D+00 0.105527111720043D+04
 0.103406766743419D+04 0.000000000000000D+00 0.000000000000000D+00 -.103406766743419D+04
 0.551113747665732D+03 -.418227563180177D+03 0.291973356454827D+03 -.167148518937627D+03
 0.886092072691003D+03 0.435669064802187D+03 -.398369652769277D+03 0.660797432662015D+03
 0.502112880914909D+03 0.916334580716738D+02 0.560397369974771D+01 -.493648913724388D+03
 0.150020083362978D+03 -.109074959693684D+03 0.100792322614702D+03 0.212034497662480D+02
0.755062604732D-03 0.000000000000D+00 0.000000000000D+00 0.479822699167D-05 0.000000000000D+00  6 1 2 25 1 2 21 0 0.16767382D+00 0.13194470D+00 0.33777703D+06 0.33777703D+06 0.33777703D+06 0.10807615D+01  1  2  2  1  6  1        1 0.439426013578D-02 0.100000000000D+01
0.216148546829D-03 0.000000000000D+00 -.289963921472D-05 0.479822699167D-05 0.000000000000D+00  6 1 2 25 1 2 21 2 0.16767382D+00 0.13194470D+00 0.33777703D+06 0.33777703D+06 0.33777703D+06 0.10807615D+01  1  2  3  1  6  1        1 0.146931469681D-02 0.100000000000D+01
-.473245021845D-03 0.000000000000D+00 0.000000000000D+00 0.479822699167D-05 0.000000000000D+00  6 1 2 25 1 2 21 2 0.16767382D+00 0.13194470D+00 0.33777703D+06 0.33777703D+06 0.33777703D+06 0.10807615D+01  1  2 15  1  6  1        1 -.321698145091D-02 0.100000000000D+01
-.620453077867D-04 0.000000000000D+00 0.000000000000D+00 0.479822699167D-05 0.000000000000D+00  6 1 2 25 1 2 21 2 0.16767382D+00 0.13194470D+00 0.33777703D+06 0.33777703D+06 0.33777703D+06 0.10807615D+01  1  2  4  1  6  1        1 -.421765882476D-03 0.100000000000D+01
-.493860270498D-02 0.000000000000D+00 -.142025603881D-02 0.479822699167D-05 0.000000000000D+00  6 1 2 25 1 2 21 2 0.19136875D+00 0.13194470D+00 0.33777703D+06 0.33777703D+06 0.33777703D+06 0.10807615D+01  1  2  5  1  6  1        1 -.260055003243D-01 0.100000000000D+01
0.509408540434D-02 0.000000000000D+00 0.140793838115D-02 0.479822699167D-05 0.000000000000D+00  6 1 2 25 1 2 21 2 0.16767382D+00 0.13194470D+00 0.33777703D+06 0.33777703D+06 0.33777703D+06 0.10807615D+01  1  2  6  1  6  1        1 0.346281048900D-01 0.100000000000D+01
-.937343341565D-04 0.000000000000D+00 -.292113055597D-04 0.479822699167D-05 0.000000000000D+00  6 21 2 25 1 2 -1 2 0.19136875D+00 0.13194470D+00 0.33777703D+06 0.33777703D+06 0.33777703D+06 0.10807615D+01  1  2  5  5  6  1        1 -.491663617465D-03 0.100000000000D+01
  </mgrwgt>
  </event>
  <event>
  5     66 -.17698235E-05 0.17223986E+03 0.75467711E-02 0.91197043E-01
        1 -1    0    0  501    0 0.00000000E+00 0.00000000E+00 0.11343786E+04 0.11343787E+04 0.32000000E+00 0.0000E+00 0.9000E+01
        2 -1    0    0  502    0 0.00000000E+00 0.00000000E+00 -.18848003E+04 0.18848003E+04 0.32000000E+00 0.0000E+00 0.9000E+01
       25  1    1    2    0    0 0.21477364E+02 -.59565220E+03 -.29954537E+03 0.67868642E+03 0.12500000E+03 0.0000E+00 0.9000E+01
        1  1    1    2  501    0 0.13317657E+03 0.50280111E+03 0.86660626E+03 0.10107183E+04 0.32000000E+00 0.0000E+00 0.9000E+01
        2  1    1    2  502    0 -.15465393E+03 0.92851090E+02 -.13174825E+04 0.13297742E+04 0.32000000E+00 0.0000E+00 0.9000E+01
#aMCatNLO 1  0  0  1  4 0.60009843D+02 0.00000000D+00  -5  6  0 0.00000000D+00 0.00000000D+00 0.00000000D+00 0.00000000D+00 0.00000000D+00
  <mgrwgt>
 -.1984666948D-02   11    2    0
 0.146221654354654D+04 0.000000000000000D+00 0.000000000000000D+00 0.146221654354654D+04
 0.146221654354654D+04 0.000000000000000D+00 0.000000000000000D+00 -.146221654354654D+04
 0.623791231453438D+03 0.214925355192147D+02 -.595649156385593D+03 -.135020938569851D+03
 0.126580772125941D+04 0.133173350770319D+03 0.502788968316052D+03 0.115400922837914D+04
 0.103483413438024D+04 -.154665886289533D+03 0.928601880695410D+02 -.101898828980929D+04
 0.000000000000000D+00 0.000000000000000D+00 0.000000000000000D+00 0.000000000000000D+00
 0.217850940365452D+04 0.000000000000000D+00 0.000000000000000D+00 0.217850940365452D+04
 0.146378178603448D+04 0.000000000000000D+00 0.000000000000000D+00 -.146378178603448D+04
 0.629679902582511D+03 0.103726433253400D+02 -.602107576878487D+03 -.135020938569851D+03
 0.125852939604269D+04 0.110779251821255D+03 0.489782501611978D+03 0.115400922837914D+04
 0.103683942953558D+04 -.173044280546982D+03 0.821860379942220D+02 -.101898828980929D+04
 0.717242461528217D+03 0.518923854003867D+02 0.301390372722862D+02 0.714727617620037D+03
0.248444678130D-04 0.000000000000D+00 0.000000000000D+00 0.469297118561D-05 0.000000000000D+00  6 1 2 25 1 2 21 0 0.17451979D+00 0.28996928D+00 0.42871789D+06 0.42871789D+06 0.42871789D+06 0.10732636D+01  1  2  2  1  6  1        1 0.337486952324D-04 0.100000000000D+01
0.393657969596D-05 0.000000000000D+00 -.954092981006D-07 0.469297118561D-05 0.000000000000D+00  6 1 2 25 1 2 21 2 0.17451979D+00 0.28996928D+00 0.42871789D+06 0.42871789D+06 0.42871789D+06 0.10732636D+01  1  2  3  1  6  1        1 0.615969413582D-05 0.100000000000D+01
-.154665195730D-04 0.000000000000D+00 0.000000000000D+00 0.469297118561D-05 0.000000000000D+00  6 1 2 25 1 2 21 2 0.17451979D+00 0.28996928D+00 0.42871789D+06 0.42871789D+06 0.42871789D+06 0.10732636D+01  1  2 15  1  6  1        1 -.242009656284D-04 0.100000000000D+01
0.345163776283D-02 0.000000000000D+00 0.000000000000D+00 0.469297118561D-05 0.000000000000D+00  6 1 2 25 1 2 21 2 0.26284893D+00 0.28996928D+00 0.46838082D+06 0.46838082D+06 0.46838082D+06 0.10705213D+01  1  2 12  1  6  1        1 0.214590957284D-02 0.100000000000D+01
0.222457876961D-08 0.000000000000D+00 0.000000000000D+00 0.469297118561D-05 0.000000000000D+00  6 1 2 25 1 2 21 2 0.26011579D+00 0.28996928D+00 0.46838082D+06 0.46838082D+06 0.46838082D+06 0.10705213D+01  1  2 12  1  6  1        1 0.142142837274D-08 0.100000000000D+01
-.448346574290D-02 0.000000000000D+00 0.000000000000D+00 0.469297118561D-05 0.000000000000D+00  6 1 2 25 1 2 21 2 0.17451979D+00 0.28996928D+00 0.42871789D+06 0.42871789D+06 0.42871789D+06 0.10732636D+01  1  2  4  1  6  1        1 -.701542449986D-02 0.100000000000D+01
-.357355104904D-02 0.000000000000D+00 -.186854905296D-04 0.469297118561D-05 0.000000000000D+00  6 1 2 25 1 2 21 2 0.26009456D+00 0.28996928D+00 0.42871789D+06 0.42871789D+06 0.42871789D+06 0.10732636D+01  1  2  5  1  6  1        1 -.231309480408D-02 0.100000000000D+01
0.331499698101D-02 0.000000000000D+00 0.172907323610D-04 0.469297118561D-05 0.000000000000D+00  6 1 2 25 1 2 21 2 0.17451979D+00 0.28996928D+00 0.42871789D+06 0.42871789D+06 0.42871789D+06 0.10732636D+01  1  2  6  1  6  1        1 0.518708346872D-02 0.100000000000D+01
0.167171841209D-03 0.000000000000D+00 0.000000000000D+00 0.469297118561D-05 0.000000000000D+00  6 21 2 25 1 2 -1 2 0.26284893D+00 0.28996928D+00 0.46838082D+06 0.46838082D+06 0.46838082D+06 0.10705213D+01  1  2 12  5  6  1        1 0.654922098002D-04 0.100000000000D+01
0.105712382454D-09 0.000000000000D+00 0.000000000000D+00 0.469297118561D-05 0.000000000000D+00  6 21 2 25 1 2 -1 2 0.26011579D+00 0.28996928D+00 0.46838082D+06 0.46838082D+06 0.46838082D+06 0.10705213D+01  1  2 12  5  6  1        1 0.432255736338D-10 0.100000000000D+01
-.169154680763D-03 0.000000000000D+00 -.887804641680D-06 0.469297118561D-05 0.000000000000D+00  6 21 2 25 1 2 -1 2 0.26009456D+00 0.28996928D+00 0.42871789D+06 0.42871789D+06 0.42871789D+06 0.10732636D+01  1  2  5  5  6  1        1 -.703417836196D-04 0.100000000000D+01
  </mgrwgt>
  </event>
  <event>
  6     66 0.17698235E-05 0.29082956E+03 0.75467711E-02 0.92216134E-01
        1 -1    0    0  501    0 0.00000000E+00 0.00000000E+00 0.90356002E+03 0.90356007E+03 0.32000000E+00 0.0000E+00 0.9000E+01
        2 -1    0    0  503    0 0.00000000E+00 0.00000000E+00 -.28156070E+04 0.28156070E+04 0.32000000E+00 0.0000E+00 0.9000E+01
       25  1    1    2    0    0 0.28290042E+03 0.44963249E+03 -.12021716E+03 0.55881946E+03 0.12500000E+03 0.0000E+00 0.9000E+01
        1  1    1    2  501    0 -.35967355E+03 -.15211644E+03 0.61707118E+03 0.73026120E+03 0.32000000E+00 0.0000E+00 0.9000E+01
        2  1    1    2  502    0 0.70966805E+02 -.25975272E+03 -.18046893E+04 0.18246675E+04 0.32000000E+00 0.0000E+00 0.9000E+01
       21  1    1    2  503  502 0.58063325E+01 -.37763323E+02 -.60421166E+03 0.60541892E+03 0.75000000E+00 0.0000E+00 0.9000E+01
#aMCatNLO 2  0  0  2  5 0.38207094D+02 0.00000000D+00  -5  6  0 0.00000000D+00 0.00000000D+00 0.00000000D+00 0.00000000D+00 0.00000000D+00
  <mgrwgt>
 0.2648582777D-02    3    2    0
 0.141275745909242D+04 0.000000000000000D+00 0.000000000000000D+00 0.141275745909242D+04
 0.141275745909242D+04 0.000000000000000D+00 0.000000000000000D+00 -.141275745909242D+04
 0.554775374141311D+03 0.284021370254482D+03 0.442201216593533D+03 0.126256330675326D+03
 0.109160980282415D+04 -.357411688658410D+03 -.166687415958461D+03 0.101788218954514D+04
 0.117912974121939D+04 0.733903184039284D+02 -.275513800635071D+03 -.114413852022047D+04
 0.000000000000000D+00 0.000000000000000D+00 -.000000000000000D+00 -.000000000000000D+00
 0.141383077542467D+04 0.000000000000000D+00 0.000000000000000D+00 0.141383077542467D+04
 0.179941529261635D+04 0.000000000000000D+00 0.000000000000000D+00 -.179941529261635D+04
 0.560152506785476D+03 0.282875854081964D+03 0.449651443898333D+03 0.126256330675326D+03
 0.109021627053710D+04 -.359653373609887D+03 -.152107907755143D+03 0.101788218954514D+04
 0.117540445047125D+04 0.709711870489165D+02 -.259780213534857D+03 -.114413852022047D+04
 0.387472840247187D+03 0.580633247900622D+01 -.377633226083320D+02 -.385584517191684D+03
-.328522280073D-02 0.000000000000D+00 0.000000000000D+00 0.269588435518D-05 0.000000000000D+00  6 1 2 25 1 2 21 2 0.13890367D+00 0.44451930D+00 0.38672349D+06 0.38672349D+06 0.38672349D+06 0.10764860D+01  1  2 13  2  6  2        2 -.206530532123D-02 0.100000000000D+01
-.440935238638D-08 0.000000000000D+00 0.000000000000D+00 0.269588435518D-05 0.000000000000D+00  6 1 2 25 1 2 21 2 0.13890367D+00 0.43332439D+00 0.38672349D+06 0.38672349D+06 0.38672349D+06 0.10764860D+01  1  2 13  2  6  2        2 -.307385712420D-08 0.100000000000D+01
0.676102912362D-02 0.000000000000D+00 0.000000000000D+00 0.269588435518D-05 0.373791188953D-07  6 1 2 25 1 2 21 2 0.13900920D+00 0.43317020D+00 0.38672349D+06 0.38672349D+06 0.38672349D+06 0.10764860D+01  1  2  1  2  6  2        2 0.471389117198D-02 0.100000000000D+01
  </mgrwgt>
  </event>
  <event>
  6     66 -.17698235E-05 0.86848284E+02 0.75467711E-02 0.93275184E-01
        1 -1    0    0  501    0 0.00000000E+00 0.00000000E+00 0.92938444E+03 0.92938449E+03 0.32000000E+00 0.0000E+00 0.9000E+01
        2 -1    0    0  503    0 0.00000000E+00 0.00000000E+00 -.17309852E+04 0.17309852E+04 0.32000000E+00 0.0000E+00 0.9000E+01
       25  1    1    2    0    0 -.28102115E+03 0.37572643E+03 0.25691798E+03 0.54934059E+03 0.12500000E+03 0.0000E+00 0.9000E+01
        1  1    1    2  501    0 0.47425788E+02 0.89131631E+02 0.47445218E+03 0.48507590E+03 0.32000000E+00 0.0000E+00 0.9000E+01
        2  1    1    2  502    0 0.25461270E+03 -.44607817E+03 -.14610623E+04 0.15487144E+04 0.32000000E+00 0.0000E+00 0.9000E+01
       21  1    1    2  503  502 -.21017346E+02 -.18779888E+02 -.71908619E+02 0.77238754E+02 0.75000000E+00 0.0000E+00 0.9000E+01
#aMCatNLO 2  0  0  2  5 0.28185334D+02 0.00000000D+00  -5  6  0 0.00000000D+00 0.00000000D+00 0.00000000D+00 0.00000000D+00 0.00000000D+00
  <mgrwgt>
 -.2726635592D-01    4    2    0
 0.123888259789557D+04 0.000000000000000D+00 0.000000000000000D+00 0.123888259789557D+04
 0.123888259789557D+04 0.000000000000000D+00 0.000000000000000D+00 -.123888259789557D+04
 0.648032345260171D+03 -.286540591268579D+03 0.370886347079299D+03 0.429719359127588D+03
 0.644205201917525D+03 0.419465284746726D+02 0.842251826424336D+02 0.637296594636572D+03
 0.118552764861345D+04 0.244594062793906D+03 -.455111529721732D+03 -.106701595376416D+04
 0.000000000000000D+00 -.000000000000000D+00 -.000000000000000D+00 -.000000000000000D+00
 0.124252340479612D+04 0.000000000000000D+00 0.000000000000000D+00 0.124252340479612D+04
 0.129473991557913D+04 0.000000000000000D+00 0.000000000000000D+00 -.129473991557913D+04
 0.648454807826678D+03 -.281042120716819D+03 0.375799463234718D+03 0.429719359127588D+03
 0.645241059712098D+03 0.474151382335629D+02 0.891116169155953D+02 0.637296594636572D+03
 0.118422963144678D+04 0.254644328689873D+03 -.446131191775949D+03 -.106701595376416D+04
 0.593378213896858D+02 -.210173462066170D+02 -.187798883743642D+02 -.522165107830069D+02
-.132176770004D-01 0.000000000000D+00 0.000000000000D+00 0.114170568194D-04 0.000000000000D+00  6 1 2 25 1 2 21 2 0.14256299D+00 0.27406179D+00 0.31834648D+06 0.31834648D+06 0.31834648D+06 0.10826498D+01  1  2 13  2  6  2        2 -.352088744194D-01 0.100000000000D+01
-.134143524926D-07 0.000000000000D+00 0.000000000000D+00 0.114170568194D-04 0.000000000000D+00  6 1 2 25 1 2 21 2 0.14256299D+00 0.26702556D+00 0.31834648D+06 0.31834648D+06 0.31834648D+06 0.10826498D+01  1  2 13  2  6  2        2 -.378431785292D-07 0.100000000000D+01
-.102000947611D-01 0.000000000000D+00 0.000000000000D+00 0.114170568194D-04 0.000000000000D+00  6 1 2 25 1 2 21 2 0.14256299D+00 0.25481605D+00 0.30021156D+06 0.30021156D+06 0.30021156D+06 0.10845292D+01  1  2  8  2  6  2        2 -.320217746254D-01 0.100000000000D+01
0.141537589567D-01 0.000000000000D+00 0.000000000000D+00 0.114170568194D-04 0.416554017971D-07  6 1 2 25 1 2 21 2 0.14298196D+00 0.26630491D+00 0.31834648D+06 0.31834648D+06 0.31834648D+06 0.10826498D+01  1  2  1  2  6  2        2 0.399643309716D-01 0.100000000000D+01
  </mgrwgt>
  </event>
  <event>
  6     66 -.17698235E-05 0.15194332E+03 0.75467711E-02 0.94960607E-01
        1 -1    0    0  501    0 0.00000000E+00 0.00000000E+00 0.24168786E+04 0.24168786E+04 0.32000000E+00 0.0000E+00 0.9000E+01
        2 -1    0    0  502    0 0.00000000E+00 0.00000000E+00 -.10225949E+04 0.10225950E+04 0.32000000E+00 0.0000E+00 0.9000E+01
       25  1    1    2    0    0 0.13476794E+03 -.45713225E+03 0.20727647E+03 0.53452860E+03 0.12500000E+03 0.0000E+00 0.9000E+01
        1  1    1    2  501    0 -.10378425E+03 0.28916932E+03 0.20250104E+04 0.20481839E+04 0.32000000E+00 0.0000E+00 0.9000E+01
        2  1    1    2  503    0 -.24369907E+02 0.10697459E+03 -.64429179E+03 0.65356672E+03 0.32000000E+00 0.0000E+00 0.9000E+01
       21  1    1    2  502  503 -.66137803E+01 0.60988342E+02 -.19371138E+03 0.20319444E+03 0.75000000E+00 0.0000E+00 0.9000E+01
#aMCatNLO 2  0  0  5  2 0.21705117D+02 0.00000000D+00  -5  6  0 0.00000000D+00 0.00000000D+00 0.00000000D+00 0.00000000D+00 0.00000000D+00
  <mgrwgt>
 -.1481859579D-01    3    2    0
 0.157209668457952D+04 0.000000000000000D+00 0.000000000000000D+00 0.157209668457952D+04
 0.157209668457952D+04 -.000000000000000D+00 -.000000000000000D+00 -.157209668457952D+04
 0.492829650073863D+03 0.134771755046066D+03 -.457154487218319D+03 -.101199234130031D+02
 0.134293971933154D+04 -.103773386010052D+03 0.289112365474376D+03 0.130733783477879D+04
 0.130842399975364D+04 -.309983690360145D+02 0.168042121743942D+03 -.129721791136578D+04
 0.000000000000000D+00 0.000000000000000D+00 0.000000000000000D+00 0.000000000000000D+00
 0.157209668457952D+04 0.000000000000000D+00 0.000000000000000D+00 0.157209668457952D+04
 0.157209668457952D+04 -.000000000000000D+00 -.000000000000000D+00 -.157209668457952D+04
 0.492813164613912D+03 0.134768038827159D+03 -.457134341600032D+03 -.102754395217405D+02
 0.134253984104152D+04 -.103783511209333D+03 0.289167254167658D+03 0.130691411603900D+04
 0.100060630181375D+04 -.243695335416359D+02 0.106961510710230D+03 -.994574447837334D+03
 0.308234061689855D+03 -.661499407618978D+01 0.610055767221434D+02 -.302064228679922D+03
-.396118959948D-01 0.000000000000D+00 0.000000000000D+00 0.919456810824D-04 0.000000000000D+00  6 1 2 25 1 2 21 2 0.37182748D+00 0.15732231D+00 0.23570985D+06 0.23570985D+06 0.23570985D+06 0.10923874D+01  1  2 13  4  6  5        2 -.278131073882D-01 0.100000000000D+01
-.934468489910D-09 0.000000000000D+00 0.000000000000D+00 0.919456810824D-04 0.000000000000D+00  6 1 2 25 1 2 21 2 0.37182748D+00 0.15732231D+00 0.23570985D+06 0.23570985D+06 0.23570985D+06 0.10923874D+01  1  2 13  4  6  5        2 -.656127958738D-09 0.100000000000D+01
0.185070032159D-01 0.000000000000D+00 0.000000000000D+00 0.919456810824D-04 0.307370206363D-06  6 1 2 25 1 2 21 2 0.37182748D+00 0.15732231D+00 0.23570985D+06 0.23570985D+06 0.23570985D+06 0.10923874D+01  1  2  1  4  6  5        2 0.129945122532D-01 0.100000000000D+01
  </mgrwgt>
  </event>
  <event>
  5     66 -.17698235E-05 0.17520873E+03 0.75467711E-02 0.91906332E-01
        1 -1    0    0  501    0 0.00000000E+00 0.00000000E+00 0.13623957E+04 0.13623957E+04 0.32000000E+00 0.0000E+00 0.9000E+01
        2 -1    0    0  502    0 0.00000000E+00 0.00000000E+00 -.16605273E+04 0.16605273E+04 0.32000000E+00 0.0000E+00 0.9000E+01
       25  1    1    2    0    0 -.41927589E+03 -.25162913E+03 0.83327737E+03 0.97421028E+03 0.12500000E+03 0.0000E+00 0.9000E+01
        1  1    1    2  501    0 0.57309993E+03 0.16778258E+03 0.25641164E+03 0.64987811E+03 0.32000000E+00 0.0000E+00 0.9000E+01
        2  1    1    2  502    0 -.15382404E+03 0.83846553E+02 -.13878206E+04 0.13988346E+04 0.32000000E+00 0.0000E+00 0.9000E+01
#aMCatNLO 1  0  0  2  5 0.53249398D+01 0.00000000D+00  -5  6  0 0.00000000D+00 0.00000000D+00 0.00000000D+00 0.00000000D+00 0.00000000D+00
  <mgrwgt>
 -.4698645681D-02   13    2    0
 0.150409283807779D+04 0.000000000000000D+00 0.000000000000000D+00 0.150409283807779D+04
 0.150409283807779D+04 0.000000000000000D+00 0.000000000000000D+00 -.150409283807779D+04
 0.106164541900221D+04 -.419118187156334D+03 -.251596268545242D+03 0.934079899439693D+03
 0.678304613717287D+03 0.572956877002556D+03 0.167740696329813D+03 0.321994759088444D+03
 0.126823564343609D+04 -.153838689846222D+03 0.838555722154289D+02 -.125607465852814D+04
 0.000000000000000D+00 -.000000000000000D+00 0.000000000000000D+00 -.000000000000000D+00
 0.150411143492689D+04 0.000000000000000D+00 0.000000000000000D+00 0.150411143492689D+04
 0.194058450833687D+04 0.000000000000000D+00 0.000000000000000D+00 -.194058450833687D+04
 0.106149978535914D+04 -.417890883976110D+03 -.253019257903204D+03 0.934079899439693D+03
 0.678743233815149D+03 0.573741330715647D+03 0.166831166147272D+03 0.321994759088444D+03
 0.126794736994863D+04 -.152372626445771D+03 0.821557537430614D+02 -.125607465852814D+04
 0.436505554140842D+03 -.347782029376656D+01 0.403233801287148D+01 -.436473073409985D+03
0.230776752209D-05 0.000000000000D+00 0.000000000000D+00 0.380686655675D-06 0.000000000000D+00  6 1 2 25 1 2 21 0 0.20959934D+00 0.25546574D+00 0.40754175D+06 0.40754175D+06 0.40754175D+06 0.10748433D+01  1  2  2  2  6  2        2 0.288103912120D-05 0.100000000000D+01
0.342774241261D-06 0.000000000000D+00 -.886243493396D-08 0.380686655675D-06 0.000000000000D+00  6 1 2 25 1 2 21 2 0.20959934D+00 0.25546574D+00 0.40754175D+06 0.40754175D+06 0.40754175D+06 0.10748433D+01  1  2  3  2  6  2        2 0.494373971289D-06 0.100000000000D+01
-.150588607063D-05 0.000000000000D+00 0.000000000000D+00 0.380686655675D-06 0.000000000000D+00  6 1 2 25 1 2 21 2 0.20959934D+00 0.25546574D+00 0.40754175D+06 0.40754175D+06 0.40754175D+06 0.10748433D+01  1  2 15  2  6  2        2 -.217189854846D-05 0.100000000000D+01
0.110617323055D-01 0.000000000000D+00 0.000000000000D+00 0.380686655675D-06 0.000000000000D+00  6 1 2 25 1 2 21 2 0.20959934D+00 0.33004163D+00 0.40972653D+06 0.40972653D+06 0.40972653D+06 0.10746762D+01  1  2 12  2  6  2        2 0.862674940231D-02 0.100000000000D+01
0.167766218326D-06 0.000000000000D+00 0.000000000000D+00 0.380686655675D-06 0.000000000000D+00  6 1 2 25 1 2 21 2 0.20959934D+00 0.32960740D+00 0.40972653D+06 0.40972653D+06 0.40972653D+06 0.10746762D+01  1  2 12  2  6  2        2 0.131311439438D-06 0.100000000000D+01
-.244121145711D-01 0.000000000000D+00 0.000000000000D+00 0.380686655675D-06 0.000000000000D+00  6 1 2 25 1 2 21 2 0.20959934D+00 0.25546574D+00 0.40754175D+06 0.40754175D+06 0.40754175D+06 0.10748433D+01  1  2  4  2  6  2        2 -.352089293048D-01 0.100000000000D+01
-.207851472306D-01 0.000000000000D+00 -.199537660301D-05 0.380686655675D-06 0.000000000000D+00  6 1 2 25 1 2 21 2 0.20959934D+00 0.32960376D+00 0.40754175D+06 0.40754175D+06 0.40754175D+06 0.10748433D+01  1  2  5  2  6  2        2 -.162816417613D-01 0.100000000000D+01
0.201287511181D-01 0.000000000000D+00 0.193230936872D-05 0.380686655675D-06 0.000000000000D+00  6 1 2 25 1 2 21 2 0.20959934D+00 0.25546574D+00 0.40754175D+06 0.40754175D+06 0.40754175D+06 0.10748433D+01  1  2  6  2  6  2        2 0.290311506218D-01 0.100000000000D+01
0.116679651604D-01 0.000000000000D+00 0.000000000000D+00 0.380686655675D-06 0.102501945585D-06  6 1 2 25 1 2 21 2 0.20960193D+00 0.32960257D+00 0.40972653D+06 0.40972653D+06 0.40972653D+06 0.10746762D+01  1  2 11  2  6  2        2 0.913269774556D-02 0.100000000000D+01
0.379659274515D-03 0.000000000000D+00 0.000000000000D+00 0.380686655675D-06 0.000000000000D+00  6 1 21 25 1 2 -2 2 0.20959934D+00 0.33004163D+00 0.40972653D+06 0.40972653D+06 0.40972653D+06 0.10746762D+01  1  2 12  6  6  2        2 0.494783184687D-04 0.100000000000D+01
0.575804937044D-08 0.000000000000D+00 0.000000000000D+00 0.380686655675D-06 0.000000000000D+00  6 1 21 25 1 2 -2 2 0.20959934D+00 0.32960740D+00 0.40972653D+06 0.40972653D+06 0.40972653D+06 0.10746762D+01  1  2 12  6  6  2        2 0.755391775353D-09 0.100000000000D+01
-.713332495239D-03 0.000000000000D+00 -.684833159484D-07 0.380686655675D-06 0.000000000000D+00  6 1 21 25 1 2 -2 2 0.20959934D+00 0.32960376D+00 0.40754175D+06 0.40754175D+06 0.40754175D+06 0.10748433D+01  1  2  5  6  6  2        2 -.936851252703D-04 0.100000000000D+01
0.336894251624D-03 0.000000000000D+00 0.000000000000D+00 0.380686655675D-06 0.295486883563D-08  6 1 21 25 1 2 -2 2 0.20960193D+00 0.32960257D+00 0.40972653D+06 0.40972653D+06 0.40972653D+06 0.10746762D+01  1  2 11  6  6  2        2 0.441988409193D-04 0.100000000000D+01
  </mgrwgt>
  </event>
  <event>
  5     66 0.17698235E-05 0.31898081E+02 0.75467711E-02 0.92784546E-01
        1 -1    0    0  501    0 0.00000000E+00 0.00000000E+00 0.21642530E+04 0.21642530E+04 0.32000000E+00 0.0000E+00 0.9000E+01
        2 -1    0    0  502    0 0.00000000E+00 0.00000000E+00 -.32547804E+03 0.32547820E+03 0.32000000E+00 0.0000E+00 0.9000E+01
       25  1    1    2    0    0 -.11216532E+03 -.46546936E+03 0.69505458E+03 0.85321079E+03 0.12500000E+03 0.0000E+00 0.9000E+01
        1  1    1    2  501    0 0.81628470E+02 0.47467223E+03 0.13471214E+04 0.14306338E+04 0.32000000E+00 0.0000E+00 0.9000E+01
        2  1    1    2  502    0 0.30536847E+02 -.92028713E+01 -.20340106E+03 0.20588658E+03 0.32000000E+00 0.0000E+00 0.9000E+01
#aMCatNLO 1  0  0  5  2 0.61676591D+01 0.00000000D+00  -5  6  0 0.00000000D+00 0.00000000D+00 0.00000000D+00 0.00000000D+00 0.00000000D+00
  <mgrwgt>
 0.4375571422D-01    6    2    0
 0.839295564010545D+03 0.000000000000000D+00 0.000000000000000D+00 0.839295564010545D+03
 0.839295564010545D+03 -.000000000000000D+00 -.000000000000000D+00 -.839295564010545D+03
 0.504105625050375D+03 -.112163043104331D+03 -.465428812917800D+03 0.963999640815933D+02
 0.646226629637413D+03 0.816216865303427D+02 0.474632784558741D+03 0.430894972078450D+03
 0.528258873333303D+03 0.305413565739873D+02 -.920397164094115D+01 -.527294936160043D+03
 0.000000000000000D+00 0.000000000000000D+00 0.000000000000000D+00 0.000000000000000D+00
 0.839295564010545D+03 0.000000000000000D+00 0.000000000000000D+00 0.839295564010545D+03
 0.839295564010545D+03 -.000000000000000D+00 -.000000000000000D+00 -.839295564010545D+03
 0.501992832400662D+03 -.111469510281222D+03 -.465637816614819D+03 0.844261558848190D+02
 0.636067888975084D+03 0.825056093024775D+02 0.474366404769494D+03 0.415634091292945D+03
 0.260058152742846D+03 -.862686158481661D+02 0.107555584830563D+02 -.245096484449248D+03
 0.280472253902498D+03 0.115232516826910D+03 -.194841466377304D+02 -.254963762728515D+03
0.751828753268D-02 0.000000000000D+00 0.000000000000D+00 0.889216699148D-05 0.000000000000D+00  6 1 2 25 1 2 21 0 0.33296201D+00 0.50073559D-01 0.25416743D+06 0.25416743D+06 0.25416743D+06 0.10899194D+01  1  2  2  4  6  5        2 0.256917921823D-01 0.100000000000D+01
0.420607437212D-02 0.000000000000D+00 -.288722037361D-04 0.889216699148D-05 0.000000000000D+00  6 1 2 25 1 2 21 2 0.33296201D+00 0.50073559D-01 0.25416743D+06 0.25416743D+06 0.25416743D+06 0.10899194D+01  1  2  3  4  6  5        2 0.170742314987D-01 0.100000000000D+01
-.479021100052D-02 0.000000000000D+00 0.000000000000D+00 0.889216699148D-05 0.000000000000D+00  6 1 2 25 1 2 21 2 0.33296201D+00 0.50073559D-01 0.25416743D+06 0.25416743D+06 0.25416743D+06 0.10899194D+01  1  2 15  4  6  5        2 -.194454886706D-01 0.100000000000D+01
-.414520359775D-03 0.000000000000D+00 0.000000000000D+00 0.889216699148D-05 0.000000000000D+00  6 1 2 25 1 2 21 2 0.33296201D+00 0.50073559D-01 0.25416743D+06 0.25416743D+06 0.25416743D+06 0.10899194D+01  1  2  4  4  6  5        2 -.168271313286D-02 0.100000000000D+01
-.852242086533D-02 0.000000000000D+00 0.000000000000D+00 0.889216699148D-05 0.000000000000D+00  6 1 2 25 1 2 21 2 0.33296201D+00 0.50073559D-01 0.25416743D+06 0.25416743D+06 0.25416743D+06 0.10899194D+01  1  2  5  4  6  5        2 -.345961040891D-01 0.100000000000D+01
0.139709530664D-01 0.000000000000D+00 -.000000000000D+00 0.889216699148D-05 0.000000000000D+00  6 1 2 25 1 2 21 2 0.33296201D+00 0.50073559D-01 0.25416743D+06 0.25416743D+06 0.25416743D+06 0.10899194D+01  1  2  6  4  6  5        2 0.567139964272D-01 0.100000000000D+01
  </mgrwgt>
  </event>
  <event>
  5     66 0.17698235E-05 0.44255243E+02 0.75467711E-02 0.87511658E-01
        1 -1    0    0  501    0 0.00000000E+00 0.00000000E+00 0.15186112E+04 0.15186112E+04 0.32000000E+00 0.0000E+00 0.9000E+01
        2 -1    0    0  502    0 0.00000000E+00 0.00000000E+00 -.12080541E+04 0.12080541E+04 0.32000000E+00 0.0000E+00 0.9000E+01
       25  1    1    2    0    0 0.97341069E+03 0.50082422E+02 0.80234791E+01 0.98271359E+03 0.12500000E+03 0.0000E+00 0.9000E+01
        1  1    1    2  501    0 -.94507775E+03 -.16091078E+02 0.80377548E+03 0.12407603E+04 0.32000000E+00 0.0000E+00 0.9000E+01
        2  1    1    2  502    0 -.28332946E+02 -.33991344E+02 -.50124187E+03 0.50319149E+03 0.32000000E+00 0.0000E+00 0.9000E+01
#aMCatNLO 1  0  0  4  1 0.19408501D+02 0.00000000D+00  -5  6  0 0.00000000D+00 0.00000000D+00 0.00000000D+00 0.00000000D+00 0.00000000D+00
  <mgrwgt>
 0.3191687230D-03    8    2    0
 0.135446097657009D+04 0.000000000000000D+00 0.000000000000000D+00 0.135446097657009D+04
 0.135446097657009D+04 -.000000000000000D+00 -.000000000000000D+00 -.135446097657009D+04
 0.988197361691334D+03 0.973386133551118D+03 0.500849282473554D+02 -.104498615428985D+03
 0.115670701950154D+04 -.945050412445550D+03 -.160906129701501D+02 0.666777278463257D+03
 0.564017571947317D+03 -.283357211055682D+02 -.339943152772051D+02 -.562278663034272D+03
 0.000000000000000D+00 0.000000000000000D+00 -.000000000000000D+00 0.000000000000000D+00
 0.135446097657009D+04 0.000000000000000D+00 0.000000000000000D+00 0.135446097657009D+04
 0.135446097657009D+04 -.000000000000000D+00 -.000000000000000D+00 -.135446097657009D+04
 0.987838271560250D+03 0.973047503466753D+03 0.500791626653761D+02 -.104259696062266D+03
 0.956174044899447D+03 -.776155916783566D+03 0.398315622743322D+01 0.558421822144963D+03
 0.563891563176885D+03 -.285290091005597D+02 -.339976062363732D+02 -.562142289311174D+03
 0.201018073503604D+03 -.168362577582628D+03 -.200647126564359D+02 0.107980163228478D+03
0.720418665028D-05 0.000000000000D+00 0.000000000000D+00 0.181960475593D-05 0.000000000000D+00  6 1 2 25 1 2 21 0 0.23363249D+00 0.18585448D+00 0.97229388D+06 0.97229388D+06 0.97229388D+06 0.10486772D+01  1  2  2  3  6  4        1 0.119029496684D-04 0.100000000000D+01
0.405049261217D-05 0.000000000000D+00 -.276659736430D-07 0.181960475593D-05 0.000000000000D+00  6 1 2 25 1 2 21 2 0.23363249D+00 0.18585448D+00 0.97229388D+06 0.97229388D+06 0.97229388D+06 0.10486772D+01  1  2  3  3  6  4        1 0.735971737747D-05 0.100000000000D+01
-.428618850634D-05 0.000000000000D+00 0.000000000000D+00 0.181960475593D-05 0.000000000000D+00  6 1 2 25 1 2 21 2 0.23363249D+00 0.18585448D+00 0.97229388D+06 0.97229388D+06 0.97229388D+06 0.10486772D+01  1  2 15  3  6  4        1 -.778797520540D-05 0.100000000000D+01
0.139118833182D-02 0.000000000000D+00 0.000000000000D+00 0.181960475593D-05 0.000000000000D+00  6 1 2 25 1 2 21 2 0.23363249D+00 0.18585448D+00 0.97261292D+06 0.97261292D+06 0.97261292D+06 0.10486677D+01  1  2 12  3  6  4        1 0.252767984970D-02 0.100000000000D+01
0.618428016931D-08 0.000000000000D+00 0.000000000000D+00 0.181960475593D-05 0.000000000000D+00  6 1 2 25 1 2 21 2 0.23363249D+00 0.18585448D+00 0.97261292D+06 0.97261292D+06 0.97261292D+06 0.10486677D+01  1  2 12  3  6  4        1 0.112363509752D-07 0.100000000000D+01
-.148488551914D-02 0.000000000000D+00 0.000000000000D+00 0.181960475593D-05 0.000000000000D+00  6 1 2 25 1 2 21 2 0.23363249D+00 0.18585448D+00 0.97229388D+06 0.97229388D+06 0.97229388D+06 0.10486772D+01  1  2  4  3  6  4        1 -.269802683405D-02 0.100000000000D+01
-.139484838609D-02 0.000000000000D+00 0.000000000000D+00 0.181960475593D-05 0.000000000000D+00  6 1 2 25 1 2 21 2 0.23363249D+00 0.18585448D+00 0.97229388D+06 0.97229388D+06 0.97229388D+06 0.10486772D+01  1  2  5  3  6  4        1 -.253442997901D-02 0.100000000000D+01
0.165793676157D-02 0.000000000000D+00 -.000000000000D+00 0.181960475593D-05 0.000000000000D+00  6 1 2 25 1 2 21 2 0.23363249D+00 0.18585448D+00 0.97229388D+06 0.97229388D+06 0.97229388D+06 0.10486772D+01  1  2  6  3  6  4        1 0.301245975817D-02 0.100000000000D+01
  </mgrwgt>
  </event>
  <event>
  5     66 -.17698235E-05 0.26545193E+02 0.75467711E-02 0.91434629E-01
        1 -1    0    0  501    0 0.00000000E+00 0.00000000E+00 0.13143658E+04 0.13143658E+04 0.32000000E+00 0.0000E+00 0.9000E+01
        2 -1    0    0  502    0 -.00000000E+00 -.00000000E+00 -.29769422E+04 0.29769422E+04 0.32000000E+00 0.0000E+00 0.9000E+01
       25  1    1    2    0    0 0.31750161E+03 -.55782242E+03 0.30901534E+03 0.72324865E+03 0.12500000E+03 0.0000E+00 0.9000E+01
        1  1    1    2  501    0 -.11044305E+02 -.24141868E+02 0.75895277E+03 0.75941702E+03 0.32000000E+00 0.0000E+00 0.9000E+01
        2  1    1    2  502    0 -.30645731E+03 0.58196429E+03 -.27305445E+04 0.28086424E+04 0.32000000E+00 0.0000E+00 0.9000E+01
#aMCatNLO 1  0  0  5  5 0.44455601D+03 0.00000000D+00  -5  6  0 0.00000000D+00 0.00000000D+00 0.00000000D+00 0.00000000D+00 0.00000000D+00
  <mgrwgt>
 -.6071844813D-02    1    2    0
 0.197807762751534D+04 0.000000000000000D+00 0.000000000000000D+00 0.197807762751534D+04
 0.197807762751534D+04 -.000000000000000D+00 -.000000000000000D+00 -.197807762751534D+04
 0.914504292693923D+03 0.317524311031500D+03 -.557870021724519D+03 0.639259299596547D+03
 0.114257358174123D+04 -.110430575794828D+02 -.241391412844663D+02 0.114226518043331D+04
 0.189907738059553D+04 -.306481253452018D+03 0.582009163008986D+03 -.178152448002985D+04
 0.000000000000000D+00 0.000000000000000D+00 0.000000000000000D+00 0.000000000000000D+00
 0.197807762751534D+04 0.000000000000000D+00 0.000000000000000D+00 0.197807762751534D+04
 0.197807762751534D+04 -.000000000000000D+00 -.000000000000000D+00 -.197807762751534D+04
 0.820568601518800D+03 0.300420067129172D+03 -.525388992084465D+03 0.539835178606483D+03
 0.101904353119068D+04 -.323521486536139D+02 0.163269104588221D+02 0.101839898317601D+04
 0.518849954731385D+03 -.513765482862524D+03 -.180985121267206D+02 -.701622975863633D+02
 0.159769316758982D+04 0.245697564386965D+03 0.527160593752364D+03 -.148807186419613D+04
-.226341881157D-01 0.000000000000D+00 0.000000000000D+00 0.242012776776D-03 0.000000000000D+00  6 1 2 25 1 2 21 2 0.20221012D+00 0.45799111D+00 0.44774819D+06 0.44774819D+06 0.44774819D+06 0.10719148D+01  1  2 14  4  6  5        2 -.607184481318D-02 0.100000000000D+01
  </mgrwgt>
  </event>
  <event>
  5     66 -.17698235E-05 0.21130163E+02 0.75467711E-02 0.92079452E-01
        1 -1    0    0  501    0 0.00000000E+00 0.00000000E+00 0.58177670E+03 0.58177678E+03 0.32000000E+00 0.0000E+00 0.9000E+01
        2 -1    0    0  502    0 -.00000000E+00 -.00000000E+00 -.13282662E+04 0.13282663E+04 0.32000000E+00 0.0000E+00 0.9000E+01
       25  1    1    2    0    0 0.56813573E+03 0.23482347E+03 -.39174491E+03 0.73960080E+03 0.12500000E+03 0.0000E+00 0.9000E+01
        1  1    1    2  501    0 -.55570065E+03 -.25190464E+03 0.17933835E+03 0.63594143E+03 0.32000000E+00 0.0000E+00 0.9000E+01
        2  1    1    2  502    0 -.12435080E+02 0.17081177E+02 -.53408297E+03 0.53450082E+03 0.32000000E+00 0.0000E+00 0.9000E+01
#aMCatNLO 1  0  0  4  1 0.18732935D+01 0.00000000D+00  -5  6  0 0.00000000D+00 0.00000000D+00 0.00000000D+00 0.00000000D+00 0.00000000D+00
  <mgrwgt>
 -.8428720148D-02    6    2    0
 0.879064533894713D+03 0.000000000000000D+00 0.000000000000000D+00 0.879064533894713D+03
 0.879064533894713D+03 -.000000000000000D+00 -.000000000000000D+00 -.879064533894713D+03
 0.637151210845585D+03 0.568123100591855D+03 0.234815609662790D+03 -.111509809050974D+03
 0.767017394187329D+03 -.555686627565037D+03 -.251898289415105D+03 0.464839011616990D+03
 0.353960462756512D+03 -.124364730268179D+02 0.170826797523147D+02 -.353329202566017D+03
 0.000000000000000D+00 -.000000000000000D+00 0.000000000000000D+00 0.000000000000000D+00
 0.879064533894713D+03 0.000000000000000D+00 0.000000000000000D+00 0.879064533894713D+03
 0.879064533894713D+03 -.000000000000000D+00 -.000000000000000D+00 -.879064533894713D+03
 0.633961894897030D+03 0.565474560273172D+03 0.233614999925884D+03 -.109294271006880D+03
 0.707049880809655D+03 -.490641584904166D+03 -.254259888412820D+03 0.441069471013327D+03
 0.352754165502901D+03 -.139090108979892D+02 0.164151636516081D+02 -.352097405695894D+03
 0.643631265798397D+02 -.609239644710168D+02 0.422972483532808D+01 0.203222056894463D+02
0.186193871404D-03 0.000000000000D+00 0.000000000000D+00 0.386620703052D-05 0.000000000000D+00  6 1 2 25 1 2 21 0 0.89504117D-01 0.20434866D+00 0.39599502D+06 0.39599502D+06 0.39599502D+06 0.10757428D+01  1  2  2  3  6  4        1 0.153675685933D-02 0.100000000000D+01
0.124928447527D-03 0.000000000000D+00 -.715033492165D-06 0.386620703052D-05 0.000000000000D+00  6 1 2 25 1 2 21 2 0.89504117D-01 0.20434866D+00 0.39599502D+06 0.39599502D+06 0.39599502D+06 0.10757428D+01  1  2  3  3  6  4        1 0.119321314047D-02 0.100000000000D+01
-.113482176036D-03 0.000000000000D+00 0.000000000000D+00 0.386620703052D-05 0.000000000000D+00  6 1 2 25 1 2 21 2 0.89504117D-01 0.20434866D+00 0.39599502D+06 0.39599502D+06 0.39599502D+06 0.10757428D+01  1  2 15  3  6  4        1 -.108388782809D-02 0.100000000000D+01
-.134204511242D-02 0.000000000000D+00 0.000000000000D+00 0.386620703052D-05 0.000000000000D+00  6 1 2 25 1 2 21 2 0.89504117D-01 0.20434866D+00 0.39599502D+06 0.39599502D+06 0.39599502D+06 0.10757428D+01  1  2  4  3  6  4        1 -.128181042425D-01 0.100000000000D+01
-.328550600772D-02 0.000000000000D+00 0.000000000000D+00 0.386620703052D-05 0.000000000000D+00  6 1 2 25 1 2 21 2 0.89504117D-01 0.20434866D+00 0.39599502D+06 0.39599502D+06 0.39599502D+06 0.10757428D+01  1  2  5  3  6  4        1 -.313804343137D-01 0.100000000000D+01
0.357272749290D-02 0.000000000000D+00 -.000000000000D+00 0.386620703052D-05 0.000000000000D+00  6 1 2 25 1 2 21 2 0.89504117D-01 0.20434866D+00 0.39599502D+06 0.39599502D+06 0.39599502D+06 0.10757428D+01  1  2  6  3  6  4        1 0.341237362367D-01 0.100000000000D+01
  </mgrwgt>
  </event>
  <event>
  5     66 0.17698235E-05 0.32375242E+03 0.75467711E-02 0.89663574E-01
        1 -1    0    0  501    0 0.00000000E+00 0.00000000E+00 0.74816040E+03 0.74816047E+03 0.32000000E+00 0.0000E+00 0.9000E+01
        2 -1    0    0  502    0 -.00000000E+00 -.00000000E+00 -.29481861E+04 0.29481861E+04 0.32000000E+00 0.0000E+00 0.9000E+01
       25  1    1    2    0    0 0.33068178E+03 -.42081463E+03 0.18529671E+03 0.57999592E+03 0.12500000E+03 0.0000E+00 0.9000E+01
        1  1    1    2  501    0 -.63026153E+03 0.29814311E+03 0.11944866E+02 0.69732466E+03 0.32000000E+00 0.0000E+00 0.9000E+01
        2  1    1    2  502    0 0.29957975E+03 0.12267152E+03 -.23972673E+04 0.24190260E+04 0.32000000E+00 0.0000E+00 0.9000E+01
#aMCatNLO 1  0  0  4  1 0.17255902D+03 0.00000000D+00  -5  6  0 0.00000000D+00 0.00000000D+00 0.00000000D+00 0.00000000D+00 0.00000000D+00
  <mgrwgt>
 0.9277479690D-03    8    2    0
 0.148516538819408D+04 0.000000000000000D+00 0.000000000000000D+00 0.148516538819408D+04
 0.148516538819408D+04 -.000000000000000D+00 -.000000000000000D+00 -.148516538819408D+04
 0.859054003689124D+03 0.330567206898610D+03 -.420787353749671D+03 0.660312127635040D+03
 0.876490843845875D+03 -.630173240986647D+03 0.298101348772460D+03 0.531275325561126D+03
 0.123478592885316D+04 0.299606034088037D+03 0.122686004977211D+03 -.119158745319617D+04
 0.000000000000000D+00 0.000000000000000D+00 0.000000000000000D+00 0.000000000000000D+00
 0.148516538819408D+04 0.000000000000000D+00 0.000000000000000D+00 0.148516538819408D+04
 0.148516538819408D+04 -.000000000000000D+00 -.000000000000000D+00 -.148516538819408D+04
 0.859759825412740D+03 0.315872320626808D+03 -.413835986835355D+03 0.672700832804292D+03
 0.490108308503828D+03 -.406772347472144D+03 0.164047642765334D+01 0.273385662084856D+03
 0.121382436700772D+04 0.278671800715921D+03 0.132588874216747D+03 -.117393858947620D+04
 0.406638275463872D+03 -.187771773870584D+03 0.279606636190954D+03 0.227852094587049D+03
0.103406281750D-02 0.000000000000D+00 0.000000000000D+00 0.605756204767D-07 0.000000000000D+00  6 1 2 25 1 2 21 0 0.11510161D+00 0.45356710D+00 0.61652917D+06 0.61652917D+06 0.61652917D+06 0.10621390D+01  1  2  2  3  6  4        1 0.671858039688D-03 0.100000000000D+01
0.685509308505D-04 0.000000000000D+00 -.397107349420D-05 0.605756204767D-07 0.000000000000D+00  6 1 2 25 1 2 21 2 0.11510161D+00 0.45356710D+00 0.61652917D+06 0.61652917D+06 0.61652917D+06 0.10621390D+01  1  2  3  3  6  4        1 0.502465946375D-04 0.100000000000D+01
-.573729352523D-03 0.000000000000D+00 0.000000000000D+00 0.605756204767D-07 0.000000000000D+00  6 1 2 25 1 2 21 2 0.11510161D+00 0.45356710D+00 0.61652917D+06 0.61652917D+06 0.61652917D+06 0.10621390D+01  1  2 15  3  6  4        1 -.420533256809D-03 0.100000000000D+01
0.125807544334D-02 0.000000000000D+00 0.000000000000D+00 0.605756204767D-07 0.000000000000D+00  6 1 2 25 1 2 21 2 0.11510161D+00 0.45356710D+00 0.63011407D+06 0.63011407D+06 0.63011407D+06 0.10614828D+01  1  2 12  3  6  4        1 0.919289272854D-03 0.100000000000D+01
0.105545253677D-06 0.000000000000D+00 0.000000000000D+00 0.605756204767D-07 0.000000000000D+00  6 1 2 25 1 2 21 2 0.11510161D+00 0.45356710D+00 0.63011407D+06 0.63011407D+06 0.63011407D+06 0.10614828D+01  1  2 12  3  6  4        1 0.771230533269D-07 0.100000000000D+01
-.111931612908D-02 0.000000000000D+00 0.000000000000D+00 0.605756204767D-07 0.000000000000D+00  6 1 2 25 1 2 21 2 0.11510161D+00 0.45356710D+00 0.61652917D+06 0.61652917D+06 0.61652917D+06 0.10621390D+01  1  2  4  3  6  4        1 -.820438513549D-03 0.100000000000D+01
-.129943151846D-02 0.000000000000D+00 0.000000000000D+00 0.605756204767D-07 0.000000000000D+00  6 1 2 25 1 2 21 2 0.11510161D+00 0.45356710D+00 0.61652917D+06 0.61652917D+06 0.61652917D+06 0.10621390D+01  1  2  5  3  6  4        1 -.952459842009D-03 0.100000000000D+01
0.201875170448D-02 0.000000000000D+00 -.000000000000D+00 0.605756204767D-07 0.000000000000D+00  6 1 2 25 1 2 21 2 0.11510161D+00 0.45356710D+00 0.61652917D+06 0.61652917D+06 0.61652917D+06 0.10621390D+01  1  2  6  3  6  4        1 0.147970855115D-02 0.100000000000D+01
  </mgrwgt>
  </event>
  <event>
  5     66 0.17698235E-05 0.54953112E+02 0.75467711E-02 0.93984845E-01
        1 -1    0    0  501    0 0.00000000E+00 0.00000000E+00 0.10562420E+04 0.10562421E+04 0.32000000E+00 0.0000E+00 0.9000E+01
        2 -1    0    0  502    0 -.00000000E+00 -.00000000E+00 -.24595736E+04 0.24595736E+04 0.32000000E+00 0.0000E+00 0.9000E+01
       25  1    1    2    0    0 -.47554373E+03 -.93206755E+02 -.11724112E+04 0.12747558E+04 0.12500000E+03 0.0000E+00 0.9000E+01
        1  1    1    2  501    0 0.49717603E+03 0.42686244E+02 0.94244940E+03 0.10664038E+04 0.32000000E+00 0.0000E+00 0.9000E+01
        2  1    1    2  502    0 -.21632306E+02 0.50520511E+02 -.11733697E+04 0.11746560E+04 0.32000000E+00 0.0000E+00 0.9000E+01
#aMCatNLO 1  0  0  5  2 0.12562280D+02 0.00000000D+00  -5  6  0 0.00000000D+00 0.00000000D+00 0.00000000D+00 0.00000000D+00 0.00000000D+00
  <mgrwgt>
 0.2841890984D-01    8    2    0
 0.161180182755956D+04 0.000000000000000D+00 0.000000000000000D+00 0.161180182755956D+04
 0.161180182755956D+04 -.000000000000000D+00 -.000000000000000D+00 -.161180182755956D+04
 0.879974510037244D+03 -.475546686972464D+03 -.932031845283938D+02 -.723808436824666D+03
 0.157335229108450D+04 0.497177613898861D+03 0.426863798064568D+02 0.149212255698977D+04
 0.770276853997370D+03 -.216309269263967D+02 0.505168047219371D+02 -.768314120165103D+03
 0.000000000000000D+00 -.000000000000000D+00 0.000000000000000D+00 0.000000000000000D+00
 0.161180182755956D+04 0.000000000000000D+00 0.000000000000000D+00 0.161180182755956D+04
 0.161180182755956D+04 -.000000000000000D+00 -.000000000000000D+00 -.161180182755956D+04
 0.880085476106702D+03 -.475550447302026D+03 -.931944026655188D+02 -.723942000878952D+03
 0.157312414818237D+04 0.497170891520953D+03 0.427020792285484D+02 0.149188378322453D+04
 0.541294201294124D+03 -.276084300674298D+01 0.337724082518110D+02 -.540232555980671D+03
 0.229099829535914D+03 -.188596012121845D+02 0.167199151851595D+02 -.227709226364904D+03
0.179574011600D-03 0.000000000000D+00 0.000000000000D+00 0.117472315712D-03 0.000000000000D+00  6 1 2 25 1 2 21 0 0.16249878D+00 0.37839594D+00 0.27794833D+06 0.27794833D+06 0.27794833D+06 0.10870135D+01  1  2  2  4  6  5        2 0.137591216828D-03 0.100000000000D+01
0.532336865865D-04 0.000000000000D+00 -.689611487467D-06 0.117472315712D-03 0.000000000000D+00  6 1 2 25 1 2 21 2 0.16249878D+00 0.37839594D+00 0.27794833D+06 0.27794833D+06 0.27794833D+06 0.10870135D+01  1  2  3  4  6  5        2 0.481951875083D-04 0.100000000000D+01
-.132048188975D-03 0.000000000000D+00 0.000000000000D+00 0.117472315712D-03 0.000000000000D+00  6 1 2 25 1 2 21 2 0.16249878D+00 0.37839594D+00 0.27794833D+06 0.27794833D+06 0.27794833D+06 0.10870135D+01  1  2 15  4  6  5        2 -.119549999932D-03 0.100000000000D+01
0.323622223039D-01 0.000000000000D+00 0.000000000000D+00 0.117472315712D-03 0.000000000000D+00  6 1 2 25 1 2 21 2 0.16249878D+00 0.37839594D+00 0.28013129D+06 0.28013129D+06 0.28013129D+06 0.10867605D+01  1  2 12  4  6  5        2 0.292658223152D-01 0.100000000000D+01
0.900679335619D-09 0.000000000000D+00 0.000000000000D+00 0.117472315712D-03 0.000000000000D+00  6 1 2 25 1 2 21 2 0.16249878D+00 0.37839594D+00 0.28013129D+06 0.28013129D+06 0.28013129D+06 0.10867605D+01  1  2 12  4  6  5        2 0.814502822200D-09 0.100000000000D+01
-.157351702001D-01 0.000000000000D+00 0.000000000000D+00 0.117472315712D-03 0.000000000000D+00  6 1 2 25 1 2 21 2 0.16249878D+00 0.37839594D+00 0.27794833D+06 0.27794833D+06 0.27794833D+06 0.10870135D+01  1  2  4  4  6  5        2 -.142458568417D-01 0.100000000000D+01
-.412459642947D-01 0.000000000000D+00 0.000000000000D+00 0.117472315712D-03 0.000000000000D+00  6 1 2 25 1 2 21 2 0.16249878D+00 0.37839594D+00 0.27794833D+06 0.27794833D+06 0.27794833D+06 0.10870135D+01  1  2  5  4  6  5        2 -.373420875129D-01 0.100000000000D+01
0.559725208312D-01 0.000000000000D+00 -.000000000000D+00 0.117472315712D-03 0.000000000000D+00  6 1 2 25 1 2 21 2 0.16249878D+00 0.37839594D+00 0.27794833D+06 0.27794833D+06 0.27794833D+06 0.10870135D+01  1  2  6  4  6  5        2 0.506747946602D-01 0.100000000000D+01
  </mgrwgt>
  </event>
  <event>
  5     66 0.17698235E-05 0.68532708E+02 0.75467711E-02 0.94968692E-01
        1 -1    0    0  501    0 0.00000000E+00 0.00000000E+00 0.19778952E+04 0.19778952E+04 0.32000000E+00 0.0000E+00 0.9000E+01
        2 -1    0    0  502    0 0.00000000E+00 0.00000000E+00 -.25783148E+03 0.25783168E+03 0.32000000E+00 0.0000E+00 0.9000E+01
       25  1    1    2    0    0 0.30597495E+02 -.47489514E+03 0.91794081E+03 0.10414902E+04 0.12500000E+03 0.0000E+00 0.9000E+01
        1  1    1    2  501    0 -.43408981E+02 0.40758501E+03 0.94813739E+03 0.10329446E+04 0.32000000E+00 0.0000E+00 0.9000E+01
        2  1    1    2  502    0 0.12811486E+02 0.67310135E+02 -.14601451E+03 0.16129206E+03 0.32000000E+00 0.0000E+00 0.9000E+01
#aMCatNLO 1  0  0  2  1 0.62490079D+03 0.00000000D+00  -5  6  0 0.00000000D+00 0.00000000D+00 0.00000000D+00 0.00000000D+00 0.00000000D+00
  <mgrwgt>
 0.1963765796D-01    3    2    0
 0.714117566024897D+03 0.000000000000000D+00 0.000000000000000D+00 0.714117566024897D+03
 0.714117566024897D+03 0.000000000000000D+00 0.000000000000000D+00 -.714117566024897D+03
 0.524815838786156D+03 0.305872743867368D+02 -.474834816706964D+03 0.182764821914039D+03
 0.474992774397523D+03 -.434010654821104D+02 0.407510683723527D+03 0.240144801934284D+03
 0.428426518866115D+03 0.128137910953736D+02 0.673241329834371D+02 -.422909623848323D+03
 0.000000000000000D+00 0.000000000000000D+00 -.000000000000000D+00 0.000000000000000D+00
 0.131477724532316D+04 0.000000000000000D+00 0.000000000000000D+00 0.131477724532316D+04
 0.819696235621808D+03 0.000000000000000D+00 0.000000000000000D+00 -.819696235621808D+03
 0.417595652778275D+03 -.265939968580189D+02 -.353059355379742D+03 0.182764821914039D+03
 0.607636417105272D+03 -.109090113218621D+03 0.547404637077933D+03 0.240144801934284D+03
 0.462424601376696D+03 -.412390297809261D+02 0.182437124614465D+03 -.422909623848323D+03
 0.646816809684722D+03 0.176923139857566D+03 -.376782406312657D+03 0.495081009701348D+03
0.554466695408D-02 0.000000000000D+00 0.000000000000D+00 0.138514730313D-05 0.000000000000D+00  6 1 2 25 1 2 21 0 0.30429158D+00 0.39666399D-01 0.23537642D+06 0.23537642D+06 0.23537642D+06 0.10924339D+01  1  2  2  2  6  2        2 0.327853222462D-01 0.100000000000D+01
0.147398862094D-02 0.000000000000D+00 -.212929810480D-04 0.138514730313D-05 0.000000000000D+00  6 1 2 25 1 2 21 2 0.30429158D+00 0.39666399D-01 0.23537642D+06 0.23537642D+06 0.23537642D+06 0.10924339D+01  1  2  3  2  6  2        2 0.104013196429D-01 0.100000000000D+01
-.333716639154D-02 0.000000000000D+00 0.000000000000D+00 0.138514730313D-05 0.000000000000D+00  6 1 2 25 1 2 21 2 0.30429158D+00 0.39666399D-01 0.23537642D+06 0.23537642D+06 0.23537642D+06 0.10924339D+01  1  2 15  2  6  2        2 -.235489839249D-01 0.100000000000D+01
  </mgrwgt>
  </event>
  <event>
  5     66 0.17698235E-05 0.87323347E+02 0.75467711E-02 0.92426998E-01
        1 -1    0    0  501    0 0.00000000E+00 0.00000000E+00 0.15239737E+04 0.15239737E+04 0.32000000E+00 0.0000E+00 0.9000E+01
        2 -1    0    0  502    0 0.00000000E+00 0.00000000E+00 -.18807074E+04 0.18807075E+04 0.32000000E+00 0.0000E+00 0.9000E+01
       25  1    1    2    0    0 0.57754205E+03 -.54124874E+02 -.21332930E+03 0.63057015E+03 0.12500000E+03 0.0000E+00 0.9000E+01
        1  1    1    2  501    0 -.49693373E+03 0.20560238E+02 0.12669396E+04 0.13610665E+04 0.32000000E+00 0.0000E+00 0.9000E+01
        2  1    1    2  502    0 -.80608315E+02 0.33564636E+02 -.14103441E+04 0.14130445E+04 0.32000000E+00 0.0000E+00 0.9000E+01
#aMCatNLO 1  0  0  2  4 0.28192819D+02 0.00000000D+00  -5  6  0 0.00000000D+00 0.00000000D+00 0.00000000D+00 0.00000000D+00 0.00000000D+00
  <mgrwgt>
 0.5226872116D-02    9    2    0
 0.169297037503488D+04 0.000000000000000D+00 0.000000000000000D+00 0.169297037503488D+04
 0.169297037503488D+04 0.000000000000000D+00 0.000000000000000D+00 -.169297037503488D+04
 0.611565876810753D+03 0.577539477793935D+03 -.541268138371052D+02 -.148007639305063D+03
 0.150205587615602D+04 -.496925404289252D+03 0.205598935157910D+02 0.141732645796422D+04
 0.127231899710299D+04 -.806140735046828D+02 0.335669203213142D+02 -.126931881865916D+04
 0.000000000000000D+00 0.000000000000000D+00 -.000000000000000D+00 -.000000000000000D+00
 0.169388263174300D+04 0.000000000000000D+00 0.000000000000000D+00 0.169388263174300D+04
 0.192582596519851D+04 0.000000000000000D+00 0.000000000000000D+00 -.192582596519851D+04
 0.608525127364529D+03 0.574699957415304D+03 -.499152109903072D+02 -.148007639305063D+03
 0.150456291771844D+04 -.503922714577390D+03 0.309383687509866D+02 0.141732645796422D+04
 0.127297007580185D+04 -.865377301559379D+02 0.423529425677579D+02 -.126931881865916D+04
 0.233650476056695D+03 0.157604873180239D+02 -.233761003284374D+02 -.231943333455509D+03
0.177201910300D-03 0.000000000000D+00 0.000000000000D+00 0.105997084174D-03 0.000000000000D+00  6 1 2 25 1 2 21 0 0.23445749D+00 0.28933961D+00 0.34695609D+06 0.34695609D+06 0.34695609D+06 0.10799102D+01  1  2  2  2  6  2        2 0.131822219945D-03 0.100000000000D+01
0.589776217992D-04 0.000000000000D+00 -.680501993887D-06 0.105997084174D-03 0.000000000000D+00  6 1 2 25 1 2 21 2 0.23445749D+00 0.28933961D+00 0.34695609D+06 0.34695609D+06 0.34695609D+06 0.10799102D+01  1  2  3  2  6  2        2 0.511661535562D-04 0.100000000000D+01
-.114270700204D-03 0.000000000000D+00 0.000000000000D+00 0.105997084174D-03 0.000000000000D+00  6 1 2 25 1 2 21 2 0.23445749D+00 0.28933961D+00 0.34695609D+06 0.34695609D+06 0.34695609D+06 0.10799102D+01  1  2 15  2  6  2        2 -.991357741334D-04 0.100000000000D+01
0.439715450516D-09 0.000000000000D+00 0.000000000000D+00 0.105997084174D-03 0.000000000000D+00  6 1 2 25 1 2 21 2 0.23445749D+00 0.32922094D+00 0.37189363D+06 0.37189363D+06 0.37189363D+06 0.10777161D+01  1  2 12  2  6  2        2 0.271804788332D-09 0.100000000000D+01
-.280437777002D-02 0.000000000000D+00 0.000000000000D+00 0.105997084174D-03 0.000000000000D+00  6 1 2 25 1 2 21 2 0.23445749D+00 0.28933961D+00 0.34695609D+06 0.34695609D+06 0.34695609D+06 0.10799102D+01  1  2  4  2  6  2        2 -.243294353405D-02 0.100000000000D+01
-.322964444485D-01 0.000000000000D+00 -.265326077959D-03 0.105997084174D-03 0.000000000000D+00  6 1 2 25 1 2 21 2 0.23445749D+00 0.32919200D+00 0.34695609D+06 0.34695609D+06 0.34695609D+06 0.10799102D+01  1  2  5  2  6  2        2 -.201737382445D-01 0.100000000000D+01
0.320655382775D-01 0.000000000000D+00 0.263132284509D-03 0.105997084174D-03 0.000000000000D+00  6 1 2 25 1 2 21 2 0.23445749D+00 0.28933961D+00 0.34695609D+06 0.34695609D+06 0.34695609D+06 0.10799102D+01  1  2  6  2  6  2        2 0.278185217599D-01 0.100000000000D+01
0.887030403842D-11 0.000000000000D+00 0.000000000000D+00 0.105997084174D-03 0.000000000000D+00  6 1 21 25 1 2 -2 2 0.23445749D+00 0.32922094D+00 0.37189363D+06 0.37189363D+06 0.37189363D+06 0.10777161D+01  1  2 12  6  6  2        2 0.926209242875D-12 0.100000000000D+01
-.649740185008D-03 0.000000000000D+00 -.534934993248D-05 0.105997084174D-03 0.000000000000D+00  6 1 21 25 1 2 -2 2 0.23445749D+00 0.32919200D+00 0.34695609D+06 0.34695609D+06 0.34695609D+06 0.10799102D+01  1  2  5  6  6  2        2 -.688207375405D-04 0.100000000000D+01
  </mgrwgt>
  </event>
  <event>
  5     66 0.17698235E-05 0.14932926E+03 0.75467711E-02 0.95089015E-01
        1 -1    0    0  501    0 0.00000000E+00 0.00000000E+00 0.62810802E+03 0.62810811E+03 0.32000000E+00 0.0000E+00 0.9000E+01
        2 -1    0    0  502    0 0.00000000E+00 0.00000000E+00 -.17757709E+04 0.17757710E+04 0.32000000E+00 0.0000E+00 0.9000E+01
       25  1    1    2    0    0 -.17446763E+03 -.43713633E+03 0.28876759E+02 0.48783808E+03 0.12500000E+03 0.0000E+00 0.9000E+01
        1  1    1    2  501    0 0.14102064E+03 0.29162364E+03 0.29429123E+03 0.43765123E+03 0.32000000E+00 0.0000E+00 0.9000E+01
        2  1    1    2  502    0 0.33446988E+02 0.14551269E+03 -.14708309E+04 0.14783898E+04 0.32000000E+00 0.0000E+00 0.9000E+01
#aMCatNLO 1  0  0  2  5 0.38893739D+02 0.00000000D+00  -5  6  0 0.00000000D+00 0.00000000D+00 0.00000000D+00 0.00000000D+00 0.00000000D+00
  <mgrwgt>
 0.5955388613D-02    7    2    0
 0.105611367903961D+04 0.000000000000000D+00 0.000000000000000D+00 0.105611367903961D+04
 0.105611367903961D+04 0.000000000000000D+00 0.000000000000000D+00 -.105611367903961D+04
 0.570939089008480D+03 -.174449716517367D+03 -.437109855048339D+03 0.298075014693389D+03
 0.657873955125736D+03 0.140997481798361D+03 0.291575748908453D+03 0.572626783872160D+03
 0.883414313944999D+03 0.334522347190057D+02 0.145534106139885D+03 -.870701798565550D+03
 0.000000000000000D+00 -.000000000000000D+00 -.000000000000000D+00 -.000000000000000D+00
 0.127032838440602D+04 0.000000000000000D+00 0.000000000000000D+00 0.127032838440602D+04
 0.165999406694510D+04 0.000000000000000D+00 0.000000000000000D+00 -.165999406694510D+04
 0.459178047168083D+03 -.980815823628819D+02 -.311047854546247D+03 0.298075014693389D+03
 0.779571150936198D+03 0.247563033272335D+03 0.467485069623850D+03 0.572626783872160D+03
 0.961768825264747D+03 0.170245603711764D+03 0.371340929123986D+03 -.870701798565550D+03
 0.729804427982099D+03 -.319727054621217D+03 -.527778144201589D+03 -.389665682539079D+03
0.131944701147D-02 0.000000000000D+00 0.000000000000D+00 0.790781711651D-05 0.000000000000D+00  6 1 2 25 1 2 21 0 0.96632012D-01 0.27319554D+00 0.23047650D+06 0.23047650D+06 0.23047650D+06 0.10931257D+01  1  2  2  2  6  2        2 0.568407094067D-02 0.100000000000D+01
0.199301183272D-03 0.000000000000D+00 -.506702394242D-05 0.790781711651D-05 0.000000000000D+00  6 1 2 25 1 2 21 2 0.96632012D-01 0.27319554D+00 0.23047650D+06 0.23047650D+06 0.23047650D+06 0.10931257D+01  1  2  3  2  6  2        2 0.102592975585D-02 0.100000000000D+01
-.825614086351D-03 0.000000000000D+00 0.000000000000D+00 0.790781711651D-05 0.000000000000D+00  6 1 2 25 1 2 21 2 0.96632012D-01 0.27319554D+00 0.23047650D+06 0.23047650D+06 0.23047650D+06 0.10931257D+01  1  2 15  2  6  2        2 -.424996000589D-02 0.100000000000D+01
-.204021572360D-04 0.000000000000D+00 0.000000000000D+00 0.790781711651D-05 0.000000000000D+00  6 1 2 25 1 2 21 2 0.96632012D-01 0.27319554D+00 0.23047650D+06 0.23047650D+06 0.23047650D+06 0.10931257D+01  1  2  4  2  6  2        2 -.105022859615D-03 0.100000000000D+01
-.472659359641D-03 0.000000000000D+00 -.686516707052D-03 0.790781711651D-05 0.000000000000D+00  6 1 2 25 1 2 21 2 0.96632012D-01 0.45584163D+00 0.23047650D+06 0.23047650D+06 0.23047650D+06 0.10931257D+01  1  2  5  2  6  2        2 -.509312514290D-03 0.100000000000D+01
0.798294593571D-03 0.000000000000D+00 0.605427125788D-03 0.790781711651D-05 0.000000000000D+00  6 1 2 25 1 2 21 2 0.96632012D-01 0.27319554D+00 0.23047650D+06 0.23047650D+06 0.23047650D+06 0.10931257D+01  1  2  6  2  6  2        2 0.410932922740D-02 0.100000000000D+01
0.463350879376D-05 0.000000000000D+00 -.394436596868D-04 0.790781711651D-05 0.000000000000D+00  6 1 21 25 1 2 -2 2 0.96632012D-01 0.45584163D+00 0.23047650D+06 0.23047650D+06 0.23047650D+06 0.10931257D+01  1  2  5  6  6  2        2 0.354069080289D-06 0.100000000000D+01
  </mgrwgt>
  </event>
  <event>
  5     66 0.17698235E-05 0.59827865E+02 0.75467711E-02 0.93108325E-01
        1 -1    0    0  501    0 0.00000000E+00 0.00000000E+00 0.13007555E+04 0.13007556E+04 0.32000000E+00 0.0000E+00 0.9000E+01
        2 -1    0    0  502    0 0.00000000E+00 0.00000000E+00 -.78985045E+03 0.78985051E+03 0.32000000E+00 0.0000E+00 0.9000E+01
       25  1    1    2    0    0 -.53451232E+03 0.16603398E+03 0.18300862E+03 0.60198659E+03 0.12500000E+03 0.0000E+00 0.9000E+01
        1  1    1    2  501    0 0.47821060E+03 -.18624690E+03 0.83386093E+03 0.97913096E+03 0.32000000E+00 0.0000E+00 0.9000E+01
        2  1    1    2  502    0 0.56301718E+02 0.20212921E+02 -.50596445E+03 0.50948854E+03 0.32000000E+00 0.0000E+00 0.9000E+01
#aMCatNLO 1  0  0  4  1 0.21363596D+02 0.00000000D+00  -5  6  0 0.00000000D+00 0.00000000D+00 0.00000000D+00 0.00000000D+00 0.00000000D+00
  <mgrwgt>
 0.1357648145D-01    8    2    0
 0.101360863271912D+04 0.000000000000000D+00 0.000000000000000D+00 0.101360863271912D+04
 0.101360863271912D+04 -.000000000000000D+00 -.000000000000000D+00 -.101360863271912D+04
 0.574669129531678D+03 -.534489263646722D+03 0.166019792926624D+03 0.371249759553092D+02
 0.799544289607597D+03 0.478180140598758D+03 -.186235037257839D+03 0.613132396043987D+03
 0.653003846298957D+03 0.563091230479645D+02 0.202152443312154D+02 -.650257371999296D+03
 0.000000000000000D+00 0.000000000000000D+00 -.000000000000000D+00 0.000000000000000D+00
 0.101360863271912D+04 0.000000000000000D+00 0.000000000000000D+00 0.101360863271912D+04
 0.101360863271912D+04 -.000000000000000D+00 -.000000000000000D+00 -.101360863271912D+04
 0.574260417814312D+03 -.534063108137719D+03 0.165853819728746D+03 0.376714013003587D+02
 0.694980358349287D+03 0.403025209178289D+03 -.150429410335654D+03 0.545838228566090D+03
 0.652421761161026D+03 0.567933253347784D+02 0.200266638711147D+02 -.649636517883706D+03
 0.105554728113606D+03 0.742445736246513D+02 -.354510732642069D+02 0.661268880172567D+02
0.824119065787D-04 0.000000000000D+00 0.000000000000D+00 0.963149409019D-05 0.000000000000D+00  6 1 2 25 1 2 21 0 0.20011625D+00 0.12151546D+00 0.32859432D+06 0.32859432D+06 0.32859432D+06 0.10816387D+01  1  2  2  3  6  4        1 0.377974016984D-03 0.100000000000D+01
0.320231410066D-04 0.000000000000D+00 -.316483420815D-06 0.963149409019D-05 0.000000000000D+00  6 1 2 25 1 2 21 2 0.20011625D+00 0.12151546D+00 0.32859432D+06 0.32859432D+06 0.32859432D+06 0.10816387D+01  1  2  3  3  6  4        1 0.171830530115D-03 0.100000000000D+01
-.495928053631D-04 0.000000000000D+00 0.000000000000D+00 0.963149409019D-05 0.000000000000D+00  6 1 2 25 1 2 21 2 0.20011625D+00 0.12151546D+00 0.32859432D+06 0.32859432D+06 0.32859432D+06 0.10816387D+01  1  2 15  3  6  4        1 -.266106252152D-03 0.100000000000D+01
0.530545357318D-02 0.000000000000D+00 0.000000000000D+00 0.963149409019D-05 0.000000000000D+00  6 1 2 25 1 2 21 2 0.20011625D+00 0.12151546D+00 0.32815856D+06 0.32815856D+06 0.32815856D+06 0.10816810D+01  1  2 12  3  6  4        1 0.284723313731D-01 0.100000000000D+01
0.917462791023D-08 0.000000000000D+00 0.000000000000D+00 0.963149409019D-05 0.000000000000D+00  6 1 2 25 1 2 21 2 0.20011625D+00 0.12151546D+00 0.32815856D+06 0.32815856D+06 0.32815856D+06 0.10816810D+01  1  2 12  3  6  4        1 0.492367037957D-07 0.100000000000D+01
-.359762376838D-02 0.000000000000D+00 0.000000000000D+00 0.963149409019D-05 0.000000000000D+00  6 1 2 25 1 2 21 2 0.20011625D+00 0.12151546D+00 0.32859432D+06 0.32859432D+06 0.32859432D+06 0.10816387D+01  1  2  4  3  6  4        1 -.193042150096D-01 0.100000000000D+01
-.546535676906D-02 0.000000000000D+00 0.000000000000D+00 0.963149409019D-05 0.000000000000D+00  6 1 2 25 1 2 21 2 0.20011625D+00 0.12151546D+00 0.32859432D+06 0.32859432D+06 0.32859432D+06 0.10816387D+01  1  2  5  3  6  4        1 -.293261410771D-01 0.100000000000D+01
0.623403978209D-02 0.000000000000D+00 -.000000000000D+00 0.963149409019D-05 0.000000000000D+00  6 1 2 25 1 2 21 2 0.20011625D+00 0.12151546D+00 0.32859432D+06 0.32859432D+06 0.32859432D+06 0.10816387D+01  1  2  6  3  6  4        1 0.334507586339D-01 0.100000000000D+01
  </mgrwgt>
  </event>
  <event>
  5     66 0.17698235E-05 0.16401006E+03 0.75467711E-02 0.88777307E-01
        1 -1    0    0  501    0 0.00000000E+00 0.00000000E+00 0.14834672E+04 0.14834673E+04 0.32000000E+00 0.0000E+00 0.9000E+01
        2 -1    0    0  502    0 -.00000000E+00 -.00000000E+00 -.18422238E+04 0.18422239E+04 0.32000000E+00 0.0000E+00 0.9000E+01
       25  1    1    2    0    0 -.41613513E+03 -.39370463E+03 0.71235478E+03 0.92263000E+03 0.12500000E+03 0.0000E+00 0.9000E+01
        1  1    1    2  501    0 0.56924020E+03 0.33493971E+03 0.49688812E+03 0.82650887E+03 0.32000000E+00 0.0000E+00 0.9000E+01
        2  1    1    2  502    0 -.15310507E+03 0.58764920E+02 -.15679995E+04 0.15765523E+04 0.32000000E+00 0.0000E+00 0.9000E+01
#aMCatNLO 1  0  0  5  2 0.22933815D+02 0.00000000D+00  -5  6  0 0.00000000D+00 0.00000000D+00 0.00000000D+00 0.00000000D+00 0.00000000D+00
  <mgrwgt>
 0.2281334772D-02    6    2    0
 0.165314210000516D+04 0.000000000000000D+00 0.000000000000000D+00 0.165314210000516D+04
 0.165314210000516D+04 -.000000000000000D+00 -.000000000000000D+00 -.165314210000516D+04
 0.100541260082851D+04 -.416030423773534D+03 -.393656868799335D+03 0.816812373832975D+03
 0.885134391813325D+03 0.569148970063699D+03 0.334886036704838D+03 0.589392639813478D+03
 0.141573720736848D+04 -.153118546290164D+03 0.587708320944972D+02 -.140620501364645D+04
 0.000000000000000D+00 0.000000000000000D+00 0.000000000000000D+00 0.000000000000000D+00
 0.165314210000516D+04 0.000000000000000D+00 0.000000000000000D+00 0.165314210000516D+04
 0.165314210000516D+04 -.000000000000000D+00 -.000000000000000D+00 -.165314210000516D+04
 0.987009126957845D+03 -.418603033426510D+03 -.392669435117244D+03 0.793186126851016D+03
 0.870268650091829D+03 0.566882398309593D+03 0.335756005178404D+03 0.568576973510234D+03
 0.716218151083793D+03 -.180899781019036D+02 -.199313964812373D+03 -.687688254999990D+03
 0.732788271876850D+03 -.130189386781178D+03 0.256227394751213D+03 -.674074845361260D+03
0.179405075688D-02 0.000000000000D+00 0.000000000000D+00 0.113195891980D-05 0.000000000000D+00  6 1 2 25 1 2 21 0 0.22822573D+00 0.28341906D+00 0.49745407D+06 0.49745407D+06 0.49745407D+06 0.10686671D+01  1  2  2  4  6  5        2 0.144881839252D-02 0.100000000000D+01
0.354003036585D-03 0.000000000000D+00 -.688962729083D-05 0.113195891980D-05 0.000000000000D+00  6 1 2 25 1 2 21 2 0.22822573D+00 0.28341906D+00 0.49745407D+06 0.49745407D+06 0.49745407D+06 0.10686671D+01  1  2  3  4  6  5        2 0.326490918295D-03 0.100000000000D+01
-.107351439380D-02 0.000000000000D+00 0.000000000000D+00 0.113195891980D-05 0.000000000000D+00  6 1 2 25 1 2 21 2 0.22822573D+00 0.28341906D+00 0.49745407D+06 0.49745407D+06 0.49745407D+06 0.10686671D+01  1  2 15  4  6  5        2 -.990083880681D-03 0.100000000000D+01
-.145664623344D-03 0.000000000000D+00 0.000000000000D+00 0.113195891980D-05 0.000000000000D+00  6 1 2 25 1 2 21 2 0.22822573D+00 0.28341906D+00 0.49745407D+06 0.49745407D+06 0.49745407D+06 0.10686671D+01  1  2  4  4  6  5        2 -.134343979355D-03 0.100000000000D+01
-.284016601679D-02 0.000000000000D+00 0.000000000000D+00 0.113195891980D-05 0.000000000000D+00  6 1 2 25 1 2 21 2 0.22822573D+00 0.28341906D+00 0.49745407D+06 0.49745407D+06 0.49745407D+06 0.10686671D+01  1  2  5  4  6  5        2 -.261943631862D-02 0.100000000000D+01
0.460801129003D-02 0.000000000000D+00 -.000000000000D+00 0.113195891980D-05 0.000000000000D+00  6 1 2 25 1 2 21 2 0.22822573D+00 0.28341906D+00 0.49745407D+06 0.49745407D+06 0.49745407D+06 0.10686671D+01  1  2  6  4  6  5        2 0.424988963967D-02 0.100000000000D+01
  </mgrwgt>
  </event>
  <event>
  5     66 0.17698235E-05 0.46001217E+02 0.75467711E-02 0.93049383E-01
        1 -1    0    0  501    0 0.00000000E+00 0.00000000E+00 0.48890579E+03 0.48890590E+03 0.32000000E+00 0.0000E+00 0.9000E+01
        2 -1    0    0  502    0 -.00000000E+00 -.00000000E+00 -.14129931E+04 0.14129931E+04 0.32000000E+00 0.0000E+00 0.9000E+01
       25  1    1    2    0    0 -.41916819E+03 0.17164385E+03 -.32378831E+03 0.57063776E+03 0.12500000E+03 0.0000E+00 0.9000E+01
        1  1    1    2  501    0 -.46804350E+01 0.45771566E+02 0.30491060E+03 0.30836264E+03 0.32000000E+00 0.0000E+00 0.9000E+01
        2  1    1    2  502    0 0.42384862E+03 -.21741541E+03 -.90520955E+03 0.10228986E+04 0.32000000E+00 0.0000E+00 0.9000E+01
#aMCatNLO 1  0  0  4  1 0.47165163D+03 0.00000000D+00  -5  6  0 0.00000000D+00 0.00000000D+00 0.00000000D+00 0.00000000D+00 0.00000000D+00
  <mgrwgt>
 0.4960823968D-01    6    2    0
 0.831156201289394D+03 0.000000000000000D+00 0.000000000000000D+00 0.831156201289394D+03
 0.831156201289394D+03 -.000000000000000D+00 -.000000000000000D+00 -.831156201289394D+03
 0.472959620272193D+03 -.419241150549802D+03 0.171684708246065D+03 -.531697380862332D+02
 0.522205116408343D+03 -.467951645370626D+01 0.457625834976939D+02 0.520175039463090D+03
 0.667147665898251D+03 0.423920667003508D+03 -.217447291743760D+03 -.467005301376857D+03
 0.000000000000000D+00 0.000000000000000D+00 0.000000000000000D+00 0.000000000000000D+00
 0.831156201289394D+03 0.000000000000000D+00 0.000000000000000D+00 0.831156201289394D+03
 0.831156201289394D+03 -.000000000000000D+00 -.000000000000000D+00 -.831156201289394D+03
 0.471790605655580D+03 -.419476402908043D+03 0.173985321096465D+03 -.270190864232588D+02
 0.423230992394425D+03 -.596944715756695D+02 -.642972245550853D+02 0.414037329115364D+03
 0.641034271935725D+03 0.423594916474492D+03 -.214261666491449D+03 -.430794873234862D+03
 0.126256532593057D+03 0.555759580092211D+02 0.104573569950069D+03 0.437766305427569D+02
0.526343280556D-02 0.000000000000D+00 0.000000000000D+00 0.780694573449D-05 0.000000000000D+00  6 1 2 25 1 2 21 0 0.75216287D-01 0.21738356D+00 0.24621420D+06 0.24621420D+06 0.24621420D+06 0.10909580D+01  1  2  2  3  6  4        1 0.509797941507D-01 0.100000000000D+01
0.219527538903D-02 0.000000000000D+00 -.202129678670D-04 0.780694573449D-05 0.000000000000D+00  6 1 2 25 1 2 21 2 0.75216287D-01 0.21738356D+00 0.24621420D+06 0.24621420D+06 0.24621420D+06 0.10909580D+01  1  2  3  3  6  4        1 0.253066153497D-01 0.100000000000D+01
-.309758314628D-02 0.000000000000D+00 0.000000000000D+00 0.780694573449D-05 0.000000000000D+00  6 1 2 25 1 2 21 2 0.75216287D-01 0.21738356D+00 0.24621420D+06 0.24621420D+06 0.24621420D+06 0.10909580D+01  1  2 15  3  6  4        1 -.357082057168D-01 0.100000000000D+01
-.707399910189D-03 0.000000000000D+00 0.000000000000D+00 0.780694573449D-05 0.000000000000D+00  6 1 2 25 1 2 21 2 0.75216287D-01 0.21738356D+00 0.24621420D+06 0.24621420D+06 0.24621420D+06 0.10909580D+01  1  2  4  3  6  4        1 -.815473881547D-02 0.100000000000D+01
-.552288342769D-02 0.000000000000D+00 0.000000000000D+00 0.780694573449D-05 0.000000000000D+00  6 1 2 25 1 2 21 2 0.75216287D-01 0.21738356D+00 0.24621420D+06 0.24621420D+06 0.24621420D+06 0.10909580D+01  1  2  5  3  6  4        1 -.636664936090D-01 0.100000000000D+01
0.701361272825D-02 0.000000000000D+00 -.000000000000D+00 0.780694573449D-05 0.000000000000D+00  6 1 2 25 1 2 21 2 0.75216287D-01 0.21738356D+00 0.24621420D+06 0.24621420D+06 0.24621420D+06 0.10909580D+01  1  2  6  3  6  4        1 0.808512683250D-01 0.100000000000D+01
  </mgrwgt>
  </event>
  <event>
  6     66 0.17698235E-05 0.78597446E+02 0.75467711E-02 0.94168197E-01
        1 -1    0    0  501    0 0.00000000E+00 0.00000000E+00 0.13921077E+04 0.13921077E+04 0.32000000E+00 0.0000E+00 0.9000E+01
        2 -1    0    0  502    0 0.00000000E+00 0.00000000E+00 -.81334602E+03 0.81334609E+03 0.32000000E+00 0.0000E+00 0.9000E+01
       25  1    1    2    0    0 0.37669091E+03 -.33253674E+03 0.43255242E+03 0.67468757E+03 0.12500000E+03 0.0000E+00 0.9000E+01
        1  1    1    2  501    0 -.42247833E+01 -.36747421E+01 0.73549727E+03 0.73551865E+03 0.32000000E+00 0.0000E+00 0.9000E+01
        2  1    1    2  503    0 -.28800619E+03 0.32237065E+03 -.40639825E+03 0.59332119E+03 0.32000000E+00 0.0000E+00 0.9000E+01
       21  1    1    2  502  503 -.84459936E+02 0.13840832E+02 -.18288976E+03 0.20192641E+03 0.75000000E+00 0.0000E+00 0.9000E+01
#aMCatNLO 2  0  0  5  2 0.22012357D+02 0.00000000D+00  -5  6  0 0.00000000D+00 0.00000000D+00 0.00000000D+00 0.00000000D+00 0.00000000D+00
  <mgrwgt>
 0.6586167771D-01    1    2    0
 0.106407959249387D+04 0.000000000000000D+00 0.000000000000000D+00 0.106407959249387D+04
 0.106407959249387D+04 -.000000000000000D+00 -.000000000000000D+00 -.106407959249387D+04
 0.585605354192176D+03 0.378548521971913D+03 -.334214721766932D+03 0.268905498503986D+03
 0.565990342628504D+03 -.247094684042751D+01 -.525633887781418D+01 0.565960540384261D+03
 0.976563488167051D+03 -.376077575131485D+03 0.339471060644747D+03 -.834866038888247D+03
 0.000000000000000D+00 0.000000000000000D+00 0.000000000000000D+00 -.000000000000000D+00
 0.106407959249387D+04 0.000000000000000D+00 0.000000000000000D+00 0.106407959249387D+04
 0.106407959249387D+04 -.000000000000000D+00 -.000000000000000D+00 -.106407959249387D+04
 0.581653097247538D+03 0.376733781491056D+03 -.332576623894130D+03 0.264876900956436D+03
 0.562095021914676D+03 -.422478479668632D+01 -.367321541983604D+01 0.562067142202033D+03
 0.725259529399332D+03 -.287983923084891D+03 0.322376053598965D+03 -.582357557772829D+03
 0.259151536426187D+03 -.845250736094782D+02 0.138737857150014D+02 -.244586485385640D+03
0.144127179680D-01 0.000000000000D+00 0.000000000000D+00 0.515161057127D-04 0.714631684791D-07  6 1 2 25 1 2 21 2 0.21417042D+00 0.12513017D+00 0.27111336D+06 0.27111336D+06 0.27111336D+06 0.10878201D+01  1  2  1  4  6  5        2 0.658616777129D-01 0.100000000000D+01
  </mgrwgt>
  </event>
  <event>
  5     66 0.17698235E-05 0.52700158E+02 0.75467711E-02 0.94687772E-01
        1 -1    0    0  501    0 0.00000000E+00 0.00000000E+00 0.83786825E+03 0.83786831E+03 0.32000000E+00 0.0000E+00 0.9000E+01
        2 -1    0    0  502    0 0.00000000E+00 0.00000000E+00 -.13442920E+04 0.13442920E+04 0.32000000E+00 0.0000E+00 0.9000E+01
       25  1    1    2    0    0 -.16174865E+03 -.43176113E+03 -.29523897E+03 0.56157933E+03 0.12500000E+03 0.0000E+00 0.9000E+01
        1  1    1    2  501    0 0.11243004E+03 0.45032392E+03 0.62735405E+03 0.78038795E+03 0.32000000E+00 0.0000E+00 0.9000E+01
        2  1    1    2  502    0 0.49318611E+02 -.18562788E+02 -.83853884E+03 0.84019307E+03 0.32000000E+00 0.0000E+00 0.9000E+01
#aMCatNLO 1  0  0  1  4 0.11297886D+03 0.00000000D+00  -5  6  0 0.00000000D+00 0.00000000D+00 0.00000000D+00 0.00000000D+00 0.00000000D+00
  <mgrwgt>
 0.2006203251D-01    7    2    0
 0.106129152085065D+04 0.000000000000000D+00 0.000000000000000D+00 0.106129152085065D+04
 0.106129152085065D+04 0.000000000000000D+00 0.000000000000000D+00 -.106129152085065D+04
 0.506877831070488D+03 -.161750596184347D+03 -.431753028198912D+03 -.169488061248572D+03
 0.951956529412556D+03 0.112428274586354D+03 0.450316844496313D+03 0.831141297570766D+03
 0.663748681218255D+03 0.493223215979932D+02 -.185638162974014D+02 -.661653236322194D+03
 0.000000000000000D+00 -.000000000000000D+00 -.000000000000000D+00 0.000000000000000D+00
 0.156157134956871D+04 0.000000000000000D+00 0.000000000000000D+00 0.156157134956871D+04
 0.132002706447489D+04 0.000000000000000D+00 0.000000000000000D+00 -.132002706447489D+04
 0.428058421725334D+03 -.420095549069447D+02 -.370294486592367D+03 -.169488061248572D+03
 0.108211274087609D+04 0.372939696329157D+03 0.584027491082962D+03 0.831141297570766D+03
 0.702251027273180D+03 0.224271391109702D+03 0.712309153410372D+02 -.661653236322194D+03
 0.669176224168997D+03 -.555201532531915D+03 -.284963919831632D+03 0.241544285093812D+03
0.336931563633D-02 0.000000000000D+00 0.000000000000D+00 0.349302325374D-04 0.000000000000D+00  6 1 2 25 1 2 21 0 0.12890282D+00 0.20681416D+00 0.24727809D+06 0.24727809D+06 0.24727809D+06 0.10908170D+01  1  2  2  1  6  1        1 0.159732171224D-01 0.100000000000D+01
0.127687260640D-02 0.000000000000D+00 -.129390592047D-04 0.349302325374D-04 0.000000000000D+00  6 1 2 25 1 2 21 2 0.12890282D+00 0.20681416D+00 0.24727809D+06 0.24727809D+06 0.24727809D+06 0.10908170D+01  1  2  3  1  6  1        1 0.720281116689D-02 0.100000000000D+01
-.213634967670D-02 0.000000000000D+00 0.000000000000D+00 0.349302325374D-04 0.000000000000D+00  6 1 2 25 1 2 21 2 0.12890282D+00 0.20681416D+00 0.24727809D+06 0.24727809D+06 0.24727809D+06 0.10908170D+01  1  2 15  1  6  1        1 -.120511030079D-01 0.100000000000D+01
-.118907526050D-03 0.000000000000D+00 0.000000000000D+00 0.349302325374D-04 0.000000000000D+00  6 1 2 25 1 2 21 2 0.12890282D+00 0.20681416D+00 0.24727809D+06 0.24727809D+06 0.24727809D+06 0.10908170D+01  1  2  4  1  6  1        1 -.670754820932D-03 0.100000000000D+01
-.785533382810D-03 0.000000000000D+00 -.228022901231D-02 0.349302325374D-04 0.000000000000D+00  6 1 2 25 1 2 21 2 0.21732603D+00 0.20681416D+00 0.24727809D+06 0.24727809D+06 0.24727809D+06 0.10908170D+01  1  2  5  1  6  1        1 -.167098549686D-02 0.100000000000D+01
0.197957646257D-02 0.000000000000D+00 0.200099154297D-02 0.349302325374D-04 0.000000000000D+00  6 1 2 25 1 2 21 2 0.12890282D+00 0.20681416D+00 0.24727809D+06 0.24727809D+06 0.24727809D+06 0.10908170D+01  1  2  6  1  6  1        1 0.111667486473D-01 0.100000000000D+01
0.620441603671D-04 0.000000000000D+00 -.133147239832D-03 0.349302325374D-04 0.000000000000D+00  6 21 2 25 1 2 -1 2 0.21732603D+00 0.20681416D+00 0.24727809D+06 0.24727809D+06 0.24727809D+06 0.10908170D+01  1  2  5  5  6  1        1 0.112098901775D-03 0.100000000000D+01
  </mgrwgt>
  </event>
  <event>
  5     66 0.17698235E-05 0.54188762E+02 0.75467711E-02 0.92086139E-01
        1 -1    0    0  501    0 0.00000000E+00 0.00000000E+00 0.97060664E+03 0.97060670E+03 0.32000000E+00 0.0000E+00 0.9000E+01
        2 -1    0    0  502    0 -.00000000E+00 -.00000000E+00 -.13758915E+04 0.13758915E+04 0.32000000E+00 0.0000E+00 0.9000E+01
       25  1    1    2    0    0 0.46804218E+03 0.93431028E+02 0.28499754E+03 0.56977315E+03 0.12500000E+03 0.0000E+00 0.9000E+01
        1  1    1    2  501    0 -.25546630E+02 0.47804041E+02 0.49797151E+03 0.50091275E+03 0.32000000E+00 0.0000E+00 0.9000E+01
        2  1    1    2  502    0 -.44249555E+03 -.14123507E+03 -.11882539E+04 0.12758123E+04 0.32000000E+00 0.0000E+00 0.9000E+01
#aMCatNLO 1  0  0  5  2 0.64113850D+02 0.00000000D+00  -5  6  0 0.00000000D+00 0.00000000D+00 0.00000000D+00 0.00000000D+00 0.00000000D+00
  <mgrwgt>
 0.1650825586D-01    6    2    0
 0.115561651959137D+04 0.000000000000000D+00 0.000000000000000D+00 0.115561651959137D+04
 0.115561651959137D+04 -.000000000000000D+00 -.000000000000000D+00 -.115561651959137D+04
 0.628570128894421D+03 0.468095092540633D+03 0.934596321781170D+02 0.389394001534252D+03
 0.595731648892114D+03 -.255403909804541D+02 0.477923671974116D+02 0.593261978857528D+03
 0.108693126139620D+04 -.442554701560178D+03 -.141251999375529D+03 -.982655980391780D+03
 0.000000000000000D+00 0.000000000000000D+00 0.000000000000000D+00 -.000000000000000D+00
 0.115561651959137D+04 0.000000000000000D+00 0.000000000000000D+00 0.115561651959137D+04
 0.115561651959137D+04 -.000000000000000D+00 -.000000000000000D+00 -.115561651959137D+04
 0.588867736650510D+03 0.449600834370314D+03 0.875567439378268D+02 0.348329036390046D+03
 0.557627468430808D+03 -.430612204885074D+02 0.422001721760833D+02 0.554358431258063D+03
 0.963306886242154D+03 -.557688356875401D+03 -.734900329425975D+02 -.782012192197324D+03
 0.201430947859262D+03 0.151148742993595D+03 -.562668831713125D+02 -.120675275450785D+03
0.473995709609D-02 0.000000000000D+00 0.000000000000D+00 0.400814164068D-04 0.000000000000D+00  6 1 2 25 1 2 21 0 0.14932411D+00 0.21167562D+00 0.25612122D+06 0.25612122D+06 0.25612122D+06 0.10896697D+01  1  2  2  4  6  5        2 0.168298929790D-01 0.100000000000D+01
0.152415044070D-02 0.000000000000D+00 -.182026833084D-04 0.400814164068D-04 0.000000000000D+00  6 1 2 25 1 2 21 2 0.14932411D+00 0.21167562D+00 0.25612122D+06 0.25612122D+06 0.25612122D+06 0.10896697D+01  1  2  3  4  6  5        2 0.642575992623D-02 0.100000000000D+01
-.260731175097D-02 0.000000000000D+00 0.000000000000D+00 0.400814164068D-04 0.000000000000D+00  6 1 2 25 1 2 21 2 0.14932411D+00 0.21167562D+00 0.25612122D+06 0.25612122D+06 0.25612122D+06 0.10896697D+01  1  2 15  4  6  5        2 -.109923265560D-01 0.100000000000D+01
-.286159322282D-03 0.000000000000D+00 0.000000000000D+00 0.400814164068D-04 0.000000000000D+00  6 1 2 25 1 2 21 2 0.14932411D+00 0.21167562D+00 0.25612122D+06 0.25612122D+06 0.25612122D+06 0.10896697D+01  1  2  4  4  6  5        2 -.120643675095D-02 0.100000000000D+01
-.639676386521D-02 0.000000000000D+00 0.000000000000D+00 0.400814164068D-04 0.000000000000D+00  6 1 2 25 1 2 21 2 0.14932411D+00 0.21167562D+00 0.25612122D+06 0.25612122D+06 0.25612122D+06 0.10896697D+01  1  2  5  4  6  5        2 -.269685116410D-01 0.100000000000D+01
0.768979416695D-02 0.000000000000D+00 -.000000000000D+00 0.400814164068D-04 0.000000000000D+00  6 1 2 25 1 2 21 2 0.14932411D+00 0.21167562D+00 0.25612122D+06 0.25612122D+06 0.25612122D+06 0.10896697D+01  1  2  6  4  6  5        2 0.324198779068D-01 0.100000000000D+01
  </mgrwgt>
  </event>
  <event>
  5     66 0.17698235E-05 0.15036393E+03 0.75467711E-02 0.90056629E-01
        1 -1    0    0  501    0 0.00000000E+00 0.00000000E+00 0.16865308E+04 0.16865309E+04 0.32000000E+00 0.0000E+00 0.9000E+01
        2 -1    0    0  502    0 0.00000000E+00 0.00000000E+00 -.44742927E+03 0.44742939E+03 0.32000000E+00 0.0000E+00 0.9000E+01
       25  1    1    2    0    0 -.53548118E+03 -.70471921E+02 0.10162695E+04 0.11576420E+04 0.12500000E+03 0.0000E+00 0.9000E+01
        1  1    1    2  501    0 0.68576731E+03 0.74786708E+02 0.35528336E+03 0.77594859E+03 0.32000000E+00 0.0000E+00 0.9000E+01
        2  1    1    2  502    0 -.15028613E+03 -.43147870E+01 -.13245130E+03 0.20036963E+03 0.32000000E+00 0.0000E+00 0.9000E+01
#aMCatNLO 1  0  0  1  5 0.15599710D+03 0.00000000D+00  -5  6  0 0.00000000D+00 0.00000000D+00 0.00000000D+00 0.00000000D+00 0.00000000D+00
  <mgrwgt>
 0.7258009386D-02    7    2    0
 0.868679123018093D+03 0.000000000000000D+00 0.000000000000000D+00 0.868679123018093D+03
 0.868679123018093D+03 0.000000000000000D+00 0.000000000000000D+00 -.868679123018093D+03
 0.697078607684473D+03 -.535423931971105D+03 -.704672723506727D+02 0.422669092661600D+03
 0.699647192833331D+03 0.685725932832095D+03 0.747821956946542D+02 -.117020351598347D+03
 0.340632445518381D+03 -.150302000860990D+03 -.431492334398153D+01 -.305648741063253D+03
 0.000000000000000D+00 -.000000000000000D+00 0.000000000000000D+00 0.000000000000000D+00
 0.954213969082596D+03 0.000000000000000D+00 0.000000000000000D+00 0.954213969082596D+03
 0.946329896802874D+03 0.000000000000000D+00 0.000000000000000D+00 -.946329896802874D+03
 0.651864714951729D+03 -.474987137621126D+03 -.709976323704369D+02 0.422669092661600D+03
 0.763971805077536D+03 0.751300548829002D+03 0.742067489819322D+02 -.117020351598347D+03
 0.328511143196064D+03 -.120322317665176D+03 -.457800853146159D+01 -.305648741063253D+03
 0.156196202660141D+03 -.155991093542700D+03 0.136889191996633D+01 0.788407227972222D+01
0.586213896820D-03 0.000000000000D+00 0.000000000000D+00 0.613683289417D-08 0.000000000000D+00  6 1 2 25 1 2 21 0 0.25946629D+00 0.68835284D-01 0.48613971D+06 0.48613971D+06 0.48613971D+06 0.10693743D+01  1  2  2  1  6  1        1 0.283013588738D-02 0.100000000000D+01
0.362406605766D-04 0.000000000000D+00 -.225121571745D-05 0.613683289417D-08 0.000000000000D+00  6 1 2 25 1 2 21 2 0.25946629D+00 0.68835284D-01 0.48613971D+06 0.48613971D+06 0.48613971D+06 0.10693743D+01  1  2  3  1  6  1        1 0.200081433694D-03 0.100000000000D+01
-.393504281824D-03 0.000000000000D+00 0.000000000000D+00 0.613683289417D-08 0.000000000000D+00  6 1 2 25 1 2 21 2 0.25946629D+00 0.68835284D-01 0.48613971D+06 0.48613971D+06 0.48613971D+06 0.10693743D+01  1  2 15  1  6  1        1 -.217250181480D-02 0.100000000000D+01
-.695452018522D-04 0.000000000000D+00 0.000000000000D+00 0.613683289417D-08 0.000000000000D+00  6 1 2 25 1 2 21 2 0.25946629D+00 0.68835284D-01 0.48613971D+06 0.48613971D+06 0.48613971D+06 0.10693743D+01  1  2  4  1  6  1        1 -.383952816305D-03 0.100000000000D+01
-.354458483863D-02 0.000000000000D+00 -.926410254021D-03 0.613683289417D-08 0.000000000000D+00  6 1 2 25 1 2 21 2 0.29867414D+00 0.68835284D-01 0.48613971D+06 0.48613971D+06 0.48613971D+06 0.10693743D+01  1  2  5  1  6  1        1 -.132182972152D-01 0.100000000000D+01
0.364787262730D-02 0.000000000000D+00 0.917312076046D-03 0.613683289417D-08 0.000000000000D+00  6 1 2 25 1 2 21 2 0.25946629D+00 0.68835284D-01 0.48613971D+06 0.48613971D+06 0.48613971D+06 0.10693743D+01  1  2  6  1  6  1        1 0.201395773033D-01 0.100000000000D+01
-.710307984608D-04 0.000000000000D+00 -.200623701478D-04 0.613683289417D-08 0.000000000000D+00  6 21 2 25 1 2 -1 2 0.29867414D+00 0.68835284D-01 0.48613971D+06 0.48613971D+06 0.48613971D+06 0.10693743D+01  1  2  5  5  6  1        1 -.137033391881D-03 0.100000000000D+01
  </mgrwgt>
  </event>
  <event>
  5     66 0.17698235E-05 0.31723807E+02 0.75467711E-02 0.89086579E-01
        1 -1    0    0  501    0 0.00000000E+00 0.00000000E+00 0.76138350E+03 0.76138357E+03 0.32000000E+00 0.0000E+00 0.9000E+01
        2 -1    0    0  502    0 0.00000000E+00 0.00000000E+00 -.30061066E+04 0.30061066E+04 0.32000000E+00 0.0000E+00 0.9000E+01
       25  1    1    2    0    0 -.59118899E+03 -.28652287E+03 -.11462406E+04 0.13270615E+04 0.12500000E+03 0.0000E+00 0.9000E+01
        1  1    1    2  501    0 0.62146566E+03 0.27705428E+03 0.49827228E+03 0.84335876E+03 0.32000000E+00 0.0000E+00 0.9000E+01
        2  1    1    2  502    0 -.30276670E+02 0.94685865E+01 -.15967548E+04 0.15970699E+04 0.32000000E+00 0.0000E+00 0.9000E+01
#aMCatNLO 1  0  0  1  4 0.38357981D+02 0.00000000D+00  -5  6  0 0.00000000D+00 0.00000000D+00 0.00000000D+00 0.00000000D+00 0.00000000D+00
  <mgrwgt>
 0.2315157216D-02    4    2    0
 0.151287809908873D+04 0.000000000000000D+00 0.000000000000000D+00 0.151287809908873D+04
 0.151287809908873D+04 0.000000000000000D+00 0.000000000000000D+00 -.151287809908873D+04
 0.801991051491108D+03 -.591185042314575D+03 -.286521991105025D+03 -.442685035921183D+03
 0.141974715115278D+04 0.621462716001010D+03 0.277052968960260D+03 0.124607693109911D+04
 0.804017995533574D+03 -.302776736864354D+02 0.946902214476427D+01 -.803391895177930D+03
 0.000000000000000D+00 0.000000000000000D+00 -.000000000000000D+00 -.000000000000000D+00
 0.161378655997331D+04 0.000000000000000D+00 0.000000000000000D+00 0.161378655997331D+04
 0.170129920856481D+04 0.000000000000000D+00 0.000000000000000D+00 -.170129920856481D+04
 0.847634079126308D+03 -.660135242959621D+03 -.266664493456491D+03 -.442685035921183D+03
 0.137976256323618D+04 0.504450218475206D+03 0.310752296485491D+03 0.124607693109911D+04
 0.809830320364018D+03 -.977324930429769D+02 0.288958534552406D+02 -.803391895177930D+03
 0.277858805811612D+03 0.253417517527392D+03 -.729836564842405D+02 -.875126485915012D+02
0.421970048627D-02 0.000000000000D+00 0.000000000000D+00 0.496854866884D-04 0.000000000000D+00  6 1 2 25 1 2 21 0 0.11713593D+00 0.46247795D+00 0.47671480D+06 0.47671480D+06 0.47671480D+06 0.10699772D+01  1  2  2  1  6  1        1 0.250510831989D-02 0.100000000000D+01
0.268173485934D-02 0.000000000000D+00 -.162047609399D-04 0.496854866884D-04 0.000000000000D+00  6 1 2 25 1 2 21 2 0.11713593D+00 0.46247795D+00 0.47671480D+06 0.47671480D+06 0.47671480D+06 0.10699772D+01  1  2  3  1  6  1        1 0.182267739531D-02 0.100000000000D+01
-.291412310811D-02 0.000000000000D+00 0.000000000000D+00 0.496854866884D-04 0.000000000000D+00  6 1 2 25 1 2 21 2 0.11713593D+00 0.46247795D+00 0.47671480D+06 0.47671480D+06 0.47671480D+06 0.10699772D+01  1  2 15  1  6  1        1 -.198062321404D-02 0.100000000000D+01
-.470898961226D-04 0.000000000000D+00 0.000000000000D+00 0.496854866884D-04 0.000000000000D+00  6 1 2 25 1 2 21 2 0.11713593D+00 0.46247795D+00 0.47671480D+06 0.47671480D+06 0.47671480D+06 0.10699772D+01  1  2  4  1  6  1        1 -.320052852769D-04 0.100000000000D+01
  </mgrwgt>
  </event>
  <event>
  5     66 -.17698235E-05 0.38882148E+02 0.75467711E-02 0.94790133E-01
        1 -1    0    0  501    0 0.00000000E+00 0.00000000E+00 0.37045251E+04 0.37045251E+04 0.32000000E+00 0.0000E+00 0.9000E+01
        2 -1    0    0  502    0 0.00000000E+00 0.00000000E+00 -.97298177E+03 0.97298182E+03 0.32000000E+00 0.0000E+00 0.9000E+01
       25  1    1    2    0    0 0.63681776E+02 0.47424579E+03 0.17378568E+04 0.18068579E+04 0.12500000E+03 0.0000E+00 0.9000E+01
        1  1    1    2  501    0 -.31132931E+02 -.23303222E+02 0.18775027E+04 0.18779054E+04 0.32000000E+00 0.0000E+00 0.9000E+01
        2  1    1    2  502    0 -.32548845E+02 -.45094257E+03 -.88381617E+03 0.99274355E+03 0.32000000E+00 0.0000E+00 0.9000E+01
#aMCatNLO 1  0  0  4  1 0.72179020D+00 0.00000000D+00  -5  6  0 0.00000000D+00 0.00000000D+00 0.00000000D+00 0.00000000D+00 0.00000000D+00
  <mgrwgt>
 -.1357220104D+00    9    2    0
 0.189853509647890D+04 0.000000000000000D+00 0.000000000000000D+00 0.189853509647890D+04
 0.189853509647890D+04 -.000000000000000D+00 -.000000000000000D+00 -.189853509647890D+04
 0.975781590346292D+03 0.636797360276150D+02 0.474279118870149D+03 0.841147383448314D+03
 0.962546757800933D+03 -.311280091535947D+02 -.232995381686046D+02 0.961761113541378D+03
 0.185874184481058D+04 -.325517268740210D+02 -.450979580701545D+03 -.180290849698969D+04
 0.000000000000000D+00 0.000000000000000D+00 0.000000000000000D+00 0.000000000000000D+00
 0.189853509647890D+04 0.000000000000000D+00 0.000000000000000D+00 0.189853509647890D+04
 0.189853509647890D+04 -.000000000000000D+00 -.000000000000000D+00 -.189853509647890D+04
 0.975782757988771D+03 0.636796914693893D+02 0.474279085517998D+03 0.841148760162403D+03
 0.911224713778171D+03 -.300537388096221D+02 -.224783823208097D+02 0.910451522109724D+03
 0.185873931802110D+04 -.325518117517576D+02 -.450979644233140D+03 -.180290587452495D+04
 0.513234031697623D+02 -.107414090801033D+01 -.821058964048598D+00 0.513055922528263D+02
0.226475087181D-03 0.000000000000D+00 0.000000000000D+00 0.611352287910D-03 0.000000000000D+00  6 1 2 25 1 2 21 0 0.56992694D+00 0.14968951D+00 0.24286492D+06 0.24286492D+06 0.24286492D+06 0.10914064D+01  1  2  2  3  6  4        1 0.150804355582D-04 0.100000000000D+01
0.902133155046D-04 0.000000000000D+00 -.869723967036D-06 0.611352287910D-03 0.000000000000D+00  6 1 2 25 1 2 21 2 0.56992694D+00 0.14968951D+00 0.24286492D+06 0.24286492D+06 0.24286492D+06 0.10914064D+01  1  2  3  3  6  4        1 0.715545221771D-05 0.100000000000D+01
-.144319737423D-03 0.000000000000D+00 0.000000000000D+00 0.611352287910D-03 0.000000000000D+00  6 1 2 25 1 2 21 2 0.56992694D+00 0.14968951D+00 0.24286492D+06 0.24286492D+06 0.24286492D+06 0.10914064D+01  1  2 15  3  6  4        1 -.114470128874D-04 0.100000000000D+01
0.380247749216D-06 0.000000000000D+00 0.000000000000D+00 0.611352287910D-03 0.000000000000D+00  6 1 2 25 1 2 21 2 0.56992694D+00 0.14968951D+00 0.24286489D+06 0.24286489D+06 0.24286489D+06 0.10914064D+01  1  2 12  3  6  4        1 0.301601225845D-07 0.100000000000D+01
0.790664692011D-15 0.000000000000D+00 0.000000000000D+00 0.611352287910D-03 0.000000000000D+00  6 1 2 25 1 2 21 2 0.56992694D+00 0.14968951D+00 0.24286489D+06 0.24286489D+06 0.24286489D+06 0.10914064D+01  1  2 12  3  6  4        1 0.627131760371D-16 0.100000000000D+01
-.245682556536D+02 0.000000000000D+00 0.000000000000D+00 0.611352287910D-03 0.000000000000D+00  6 1 2 25 1 2 21 2 0.56992694D+00 0.14968951D+00 0.24286492D+06 0.24286492D+06 0.24286492D+06 0.10914064D+01  1  2  4  3  6  4        1 -.194868106131D+01 0.100000000000D+01
-.997830330113D+01 0.000000000000D+00 0.000000000000D+00 0.611352287910D-03 0.000000000000D+00  6 1 2 25 1 2 21 2 0.56992694D+00 0.14968951D+00 0.24286492D+06 0.24286492D+06 0.24286492D+06 0.10914064D+01  1  2  5  3  6  4        1 -.791449378462D+00 0.100000000000D+01
0.105245139129D+02 0.000000000000D+00 -.000000000000D+00 0.611352287910D-03 0.000000000000D+00  6 1 2 25 1 2 21 2 0.56992694D+00 0.14968951D+00 0.24286492D+06 0.24286492D+06 0.24286492D+06 0.10914064D+01  1  2  6  3  6  4        1 0.834773181736D+00 0.100000000000D+01
0.223107748994D+02 0.000000000000D+00 0.000000000000D+00 0.611352287910D-03 0.158521491325D-01  6 1 2 25 1 2 21 2 0.56992694D+00 0.14968951D+00 0.24286489D+06 0.24286489D+06 0.24286489D+06 0.10914064D+01  1  2 11  3  6  4        1 0.176962442857D+01 0.100000000000D+01
  </mgrwgt>
  </event>
  <event>
  5     66 -.17698235E-05 0.13105229E+02 0.75467711E-02 0.93301400E-01
        1 -1    0    0  501    0 0.00000000E+00 0.00000000E+00 0.88897656E+03 0.88897662E+03 0.32000000E+00 0.0000E+00 0.9000E+01
        2 -1    0    0  502    0 -.00000000E+00 -.00000000E+00 -.16637830E+04 0.16637831E+04 0.32000000E+00 0.0000E+00 0.9000E+01
       25  1    1    2    0    0 -.25184764E+03 -.48601702E+03 -.40889985E+03 0.69459619E+03 0.12500000E+03 0.0000E+00 0.9000E+01
        1  1    1    2  501    0 0.24191983E+03 0.49457049E+03 0.64451409E+03 0.84765776E+03 0.32000000E+00 0.0000E+00 0.9000E+01
        2  1    1    2  502    0 0.99278154E+01 -.85534719E+01 -.10104207E+04 0.10105057E+04 0.32000000E+00 0.0000E+00 0.9000E+01
#aMCatNLO 1  0  0  4  5 0.25017870D+02 0.00000000D+00  -5  6  0 0.00000000D+00 0.00000000D+00 0.00000000D+00 0.00000000D+00 0.00000000D+00
  <mgrwgt>
 -.2647715260D-01    6    2    0
 0.121616785224152D+04 0.000000000000000D+00 0.000000000000000D+00 0.121616785224152D+04
 0.121616785224152D+04 -.000000000000000D+00 -.000000000000000D+00 -.121616785224152D+04
 0.598704936729110D+03 -.251844804209184D+03 -.486009173476428D+03 -.207826560269388D+03
 0.109491490901792D+04 0.241916235219257D+03 0.494563152106508D+03 0.946426162838670D+03
 0.738715858736019D+03 0.992856898992728D+01 -.855397863008008D+01 -.738599602569283D+03
 0.000000000000000D+00 0.000000000000000D+00 0.000000000000000D+00 0.000000000000000D+00
 0.121616785224152D+04 0.000000000000000D+00 0.000000000000000D+00 0.121616785224152D+04
 0.121616785224152D+04 -.000000000000000D+00 -.000000000000000D+00 -.121616785224152D+04
 0.598440266689792D+03 -.251767813011945D+03 -.485851775982389D+03 -.207525354840537D+03
 0.787686422530594D+03 0.195620976516402D+03 0.363522250343008D+03 0.670845665776690D+03
 0.738343343751533D+03 0.100235621086128D+02 -.835977878167827D+01 -.738227969914152D+03
 0.307865671511126D+03 0.461232743869309D+02 0.130689304421059D+03 0.274907658978000D+03
0.468356722409D-04 0.000000000000D+00 0.000000000000D+00 0.661348996530D-04 0.000000000000D+00  6 1 2 25 1 2 21 0 0.13676563D+00 0.25596663D+00 0.31648584D+06 0.31648584D+06 0.31648584D+06 0.10828372D+01  1  2  2  3  6  4        1 0.132360962428D-03 0.100000000000D+01
0.477581239906D-04 0.000000000000D+00 -.179861313521D-06 0.661348996530D-04 0.000000000000D+00  6 1 2 25 1 2 21 2 0.13676563D+00 0.25596663D+00 0.31648584D+06 0.31648584D+06 0.31648584D+06 0.10828372D+01  1  2  3  3  6  4        1 0.158254737038D-03 0.100000000000D+01
-.321278476609D-04 0.000000000000D+00 0.000000000000D+00 0.661348996530D-04 0.000000000000D+00  6 1 2 25 1 2 21 2 0.13676563D+00 0.25596663D+00 0.31648584D+06 0.31648584D+06 0.31648584D+06 0.10828372D+01  1  2 15  3  6  4        1 -.106461134951D-03 0.100000000000D+01
-.976792862131D-02 0.000000000000D+00 0.000000000000D+00 0.661348996530D-04 0.000000000000D+00  6 1 2 25 1 2 21 2 0.13676563D+00 0.25596663D+00 0.31648584D+06 0.31648584D+06 0.31648584D+06 0.10828372D+01  1  2  4  3  6  4        1 -.323677072340D-01 0.100000000000D+01
-.540433347523D-02 0.000000000000D+00 0.000000000000D+00 0.661348996530D-04 0.000000000000D+00  6 1 2 25 1 2 21 2 0.13676563D+00 0.25596663D+00 0.31648584D+06 0.31648584D+06 0.31648584D+06 0.10828372D+01  1  2  5  3  6  4        1 -.179081861163D-01 0.100000000000D+01
0.712641122791D-02 0.000000000000D+00 -.000000000000D+00 0.661348996530D-04 0.000000000000D+00  6 1 2 25 1 2 21 2 0.13676563D+00 0.25596663D+00 0.31648584D+06 0.31648584D+06 0.31648584D+06 0.10828372D+01  1  2  6  3  6  4        1 0.236145861827D-01 0.100000000000D+01
  </mgrwgt>
  </event>
  <event>
  5     66 0.17698235E-05 0.38570458E+02 0.75467711E-02 0.92345039E-01
        1 -1    0    0  501    0 0.00000000E+00 0.00000000E+00 0.12297869E+04 0.12297869E+04 0.32000000E+00 0.0000E+00 0.9000E+01
        2 -1    0    0  502    0 0.00000000E+00 0.00000000E+00 -.11621335E+04 0.11621336E+04 0.32000000E+00 0.0000E+00 0.9000E+01
       25  1    1    2    0    0 -.18592931E+03 0.54313003E+03 0.10693829E+03 0.59717730E+03 0.12500000E+03 0.0000E+00 0.9000E+01
        1  1    1    2  501    0 0.21989963E+03 -.56138901E+03 0.77367994E+03 0.98086402E+03 0.32000000E+00 0.0000E+00 0.9000E+01
        2  1    1    2  502    0 -.33970315E+02 0.18258986E+02 -.81296485E+03 0.81387919E+03 0.32000000E+00 0.0000E+00 0.9000E+01
#aMCatNLO 1  0  0  4  1 0.66722337D+00 0.00000000D+00  -5  6  0 0.00000000D+00 0.00000000D+00 0.00000000D+00 0.00000000D+00 0.00000000D+00
  <mgrwgt>
 0.7147764389D-01    3    2    0
 0.119548177721484D+04 0.000000000000000D+00 0.000000000000000D+00 0.119548177721484D+04
 0.119548177721484D+04 -.000000000000000D+00 -.000000000000000D+00 -.119548177721484D+04
 0.594373735053066D+03 -.185914516635531D+03 0.543099568033933D+03 0.901875192388882D+02
 0.959315924192800D+03 0.219888395785496D+03 -.561360340032140D+03 0.746197496945526D+03
 0.837273895183810D+03 -.339738791499650D+02 0.182607719982078D+02 -.836385016184414D+03
 0.000000000000000D+00 0.000000000000000D+00 0.000000000000000D+00 0.000000000000000D+00
 0.119548177721484D+04 0.000000000000000D+00 0.000000000000000D+00 0.119548177721484D+04
 0.119548177721484D+04 -.000000000000000D+00 -.000000000000000D+00 -.119548177721484D+04
 0.522328540579974D+03 -.133514142449704D+03 0.409324924011962D+03 0.268009672685386D+03
 0.499256974176408D+03 -.341026308062659D+03 -.250073811120395D+03 -.265370820672989D+03
 0.624607542747011D+03 0.346237551832004D+02 -.156864391824586D+03 -.603597001824045D+03
 0.744770496926283D+03 0.439916695329163D+03 -.238672106698095D+01 0.600958149811648D+03
0.234737214698D-01 0.000000000000D+00 0.000000000000D+00 0.210777549549D-04 0.000000000000D+00  6 1 2 25 1 2 21 0 0.18919799D+00 0.17878978D+00 0.37758077D+06 0.37758077D+06 0.37758077D+06 0.10772381D+01  1  2  2  3  6  4        1 0.694762033719D-01 0.100000000000D+01
0.141770377833D-01 0.000000000000D+00 -.901452712169D-04 0.210777549549D-04 0.000000000000D+00  6 1 2 25 1 2 21 2 0.18919799D+00 0.17878978D+00 0.37758077D+06 0.37758077D+06 0.37758077D+06 0.10772381D+01  1  2  3  3  6  4        1 0.486926109727D-01 0.100000000000D+01
-.135943108082D-01 0.000000000000D+00 0.000000000000D+00 0.210777549549D-04 0.000000000000D+00  6 1 2 25 1 2 21 2 0.18919799D+00 0.17878978D+00 0.37758077D+06 0.37758077D+06 0.37758077D+06 0.10772381D+01  1  2 15  3  6  4        1 -.466911704508D-01 0.100000000000D+01
  </mgrwgt>
  </event>
  <event>
  6     66 0.17698235E-05 0.16941901E+03 0.75467711E-02 0.90042450E-01
        1 -1    0    0  501    0 0.00000000E+00 0.00000000E+00 0.12932253E+04 0.12932253E+04 0.32000000E+00 0.0000E+00 0.9000E+01
        2 -1    0    0  502    0 -.00000000E+00 -.00000000E+00 -.20875065E+04 0.20875065E+04 0.32000000E+00 0.0000E+00 0.9000E+01
       25  1    1    2    0    0 -.39153418E+03 0.52267730E+03 0.63930402E+02 0.66798403E+03 0.12500000E+03 0.0000E+00 0.9000E+01
        1  1    1    2  503    0 -.74182418E+02 -.19371425E+03 0.14323746E+03 0.25208196E+03 0.32000000E+00 0.0000E+00 0.9000E+01
        2  1    1    2  502    0 0.37056622E+02 0.65466010E+02 -.16137721E+04 0.16155246E+04 0.32000000E+00 0.0000E+00 0.9000E+01
       21  1    1    2  501  503 0.42865997E+03 -.39442907E+03 0.61232310E+03 0.84514129E+03 0.75000000E+00 0.0000E+00 0.9000E+01
#aMCatNLO 2  0  0  4  2 0.16346561D+03 0.00000000D+00  -5  6  0 0.00000000D+00 0.00000000D+00 0.00000000D+00 0.00000000D+00 0.00000000D+00
  <mgrwgt>
 0.3939390109D-02    1    2    0
 0.164305091002497D+04 0.000000000000000D+00 0.000000000000000D+00 0.164305091002497D+04
 0.164305091002497D+04 -.000000000000000D+00 -.000000000000000D+00 -.164305091002497D+04
 0.706053258690433D+03 -.395357553080236D+03 0.528981019464950D+03 0.216235266262490D+03
 0.128665758477626D+04 0.365349081206621D+03 -.606181168036269D+03 0.107450089848355D+04
 0.129339097658323D+04 0.300084718736158D+02 0.772001485713184D+02 -.129073616474604D+04
 0.000000000000000D+00 0.000000000000000D+00 0.000000000000000D+00 0.000000000000000D+00
 0.164305091002497D+04 0.000000000000000D+00 0.000000000000000D+00 0.164305091002497D+04
 0.164305091002497D+04 -.000000000000000D+00 -.000000000000000D+00 -.164305091002497D+04
 0.702684779385330D+03 -.391487509540796D+03 0.522559907071999D+03 0.227617162301658D+03
 0.293364680906255D+03 -.741093643911132D+02 -.193332103032740D+03 0.207830065317106D+03
 0.127223523279688D+04 0.370566844354012D+02 0.655058705696867D+02 -.127000719314077D+04
 0.101781712696146D+04 0.428540189496508D+03 -.394733674608946D+03 0.834559965522010D+03
0.441360951104D-02 0.000000000000D+00 0.000000000000D+00 0.172163396427D-04 0.400684824715D-09  6 1 2 25 1 2 21 2 0.19895774D+00 0.32115485D+00 0.58502734D+06 0.58502734D+06 0.58502734D+06 0.10637231D+01  1  2  1  3  6  4        1 0.393939010896D-02 0.100000000000D+01
  </mgrwgt>
  </event>
  <event>
  5     66 0.17698235E-05 0.34219834E+02 0.75467711E-02 0.90272768E-01
        1 -1    0    0  501    0 0.00000000E+00 0.00000000E+00 0.13379932E+04 0.13379932E+04 0.32000000E+00 0.0000E+00 0.9000E+01
        2 -1    0    0  502    0 0.00000000E+00 0.00000000E+00 -.10580400E+04 0.10580401E+04 0.32000000E+00 0.0000E+00 0.9000E+01
       25  1    1    2    0    0 0.62605078E+02 -.71133880E+03 -.30806498E+03 0.78768732E+03 0.12500000E+03 0.0000E+00 0.9000E+01
        1  1    1    2  501    0 -.61933100E+02 0.67712764E+03 0.99213890E+03 0.12027790E+04 0.32000000E+00 0.0000E+00 0.9000E+01
        2  1    1    2  502    0 -.67197752E+00 0.34211158E+02 -.40412079E+03 0.40556697E+03 0.32000000E+00 0.0000E+00 0.9000E+01
#aMCatNLO 1  0  0  5  4 0.26726554D+03 0.00000000D+00  -5  6  0 0.00000000D+00 0.00000000D+00 0.00000000D+00 0.00000000D+00 0.00000000D+00
  <mgrwgt>
 0.1446804842D-02    6    2    0
 0.118981108178547D+04 0.000000000000000D+00 0.000000000000000D+00 0.118981108178547D+04
 0.118981108178547D+04 -.000000000000000D+00 -.000000000000000D+00 -.118981108178547D+04
 0.829340258159100D+03 0.626046114396138D+02 -.711335114855355D+03 -.402819166380668D+03
 0.109434337931085D+04 -.619325734010781D+02 0.677121880672915D+03 0.857471717846946D+03
 0.455938526100991D+03 -.672038038535638D+00 0.342132341824395D+02 -.454652551466278D+03
 0.000000000000000D+00 0.000000000000000D+00 0.000000000000000D+00 -.000000000000000D+00
 0.118981108178547D+04 0.000000000000000D+00 0.000000000000000D+00 0.118981108178547D+04
 0.118981108178547D+04 -.000000000000000D+00 -.000000000000000D+00 -.118981108178547D+04
 0.830495895560833D+03 0.626005676160936D+02 -.711129245137938D+03 -.405554926227115D+03
 0.109169103208721D+04 -.619378991902223D+02 0.677393014836086D+03 0.853868672358238D+03
 0.274530249018115D+03 0.333874169028373D+02 0.440774274167354D+02 -.268903920408065D+03
 0.182904986904785D+03 -.340500853287086D+02 -.103411971148836D+02 -.179409825723059D+03
0.100722028015D-03 0.000000000000D+00 0.000000000000D+00 0.869167351916D-05 0.000000000000D+00  6 1 2 25 1 2 21 0 0.20584511D+00 0.16277539D+00 0.51776003D+06 0.51776003D+06 0.51776003D+06 0.10674407D+01  1  2  2  4  6  5        2 0.283653149712D-03 0.100000000000D+01
0.520366228694D-04 0.000000000000D+00 -.386799108297D-06 0.869167351916D-05 0.000000000000D+00  6 1 2 25 1 2 21 2 0.20584511D+00 0.16277539D+00 0.51776003D+06 0.51776003D+06 0.51776003D+06 0.10674407D+01  1  2  3  4  6  5        2 0.166978203693D-03 0.100000000000D+01
-.674615247661D-04 0.000000000000D+00 0.000000000000D+00 0.869167351916D-05 0.000000000000D+00  6 1 2 25 1 2 21 2 0.20584511D+00 0.16277539D+00 0.51776003D+06 0.51776003D+06 0.51776003D+06 0.10674407D+01  1  2 15  4  6  5        2 -.216474544325D-03 0.100000000000D+01
-.436610426276D-04 0.000000000000D+00 0.000000000000D+00 0.869167351916D-05 0.000000000000D+00  6 1 2 25 1 2 21 2 0.20584511D+00 0.16277539D+00 0.51776003D+06 0.51776003D+06 0.51776003D+06 0.10674407D+01  1  2  4  4  6  5        2 -.140102144746D-03 0.100000000000D+01
-.669997141418D-03 0.000000000000D+00 0.000000000000D+00 0.869167351916D-05 0.000000000000D+00  6 1 2 25 1 2 21 2 0.20584511D+00 0.16277539D+00 0.51776003D+06 0.51776003D+06 0.51776003D+06 0.10674407D+01  1  2  5  4  6  5        2 -.214992658986D-02 0.100000000000D+01
0.109156444341D-02 0.000000000000D+00 -.000000000000D+00 0.869167351916D-05 0.000000000000D+00  6 1 2 25 1 2 21 2 0.20584511D+00 0.16277539D+00 0.51776003D+06 0.51776003D+06 0.51776003D+06 0.10674407D+01  1  2  6  4  6  5        2 0.350267676736D-02 0.100000000000D+01
  </mgrwgt>
  </event>
  <event>
  5     66 -.17698235E-05 0.29311316E+02 0.75467711E-02 0.89111664E-01
        1 -1    0    0  501    0 0.00000000E+00 0.00000000E+00 0.49333751E+03 0.49333762E+03 0.32000000E+00 0.0000E+00 0.9000E+01
        2 -1    0    0  502    0 0.00000000E+00 0.00000000E+00 -.26462717E+04 0.26462717E+04 0.32000000E+00 0.0000E+00 0.9000E+01
       25  1    1    2    0    0 -.38394402E+03 -.53520623E+03 -.20089655E+03 0.69988795E+03 0.12500000E+03 0.0000E+00 0.9000E+01
        1  1    1    2  501    0 0.40436732E+03 0.55622607E+03 -.24137678E+03 0.72880946E+03 0.32000000E+00 0.0000E+00 0.9000E+01
        2  1    1    2  502    0 -.20423302E+02 -.21019844E+02 -.17106609E+04 0.17109119E+04 0.32000000E+00 0.0000E+00 0.9000E+01
#aMCatNLO 1  0  0  1  4 0.45600330D+02 0.00000000D+00  -5  6  0 0.00000000D+00 0.00000000D+00 0.00000000D+00 0.00000000D+00 0.00000000D+00
  <mgrwgt>
 -.3876189958D-02    5    2    0
 0.114258710637354D+04 0.000000000000000D+00 0.000000000000000D+00 0.114258710637354D+04
 0.114258710637354D+04 0.000000000000000D+00 0.000000000000000D+00 -.114258710637354D+04
 0.772303717996932D+03 -.383894157873744D+03 -.535138526390721D+03 0.383510190157526D+03
 0.773814660703598D+03 0.404319946596446D+03 0.556160904564557D+03 0.354964164582857D+03
 0.739055834046558D+03 -.204257887227018D+02 -.210223781738355D+02 -.738474354740383D+03
 0.000000000000000D+00 0.000000000000000D+00 -.000000000000000D+00 0.000000000000000D+00
 0.299904676615745D+04 0.000000000000000D+00 0.000000000000000D+00 0.299904676615745D+04
 0.115725841483863D+04 0.000000000000000D+00 0.000000000000000D+00 -.115725841483863D+04
 0.723245928389917D+03 -.391040307613612D+03 -.455485548397952D+03 0.383510190157526D+03
 0.833789898709745D+03 0.396638367498208D+03 0.641781927511798D+03 0.354964164582857D+03
 0.741244589901246D+03 -.274990734612449D+02 0.578184261928170D+02 -.738474354740383D+03
 0.185802476399517D+04 0.219010135766497D+02 -.244114805306663D+03 0.184178835131882D+04
0.368103911030D-03 0.000000000000D+00 0.000000000000D+00 0.382618640652D-05 0.000000000000D+00  6 1 2 25 1 2 21 0 0.75898089D-01 0.40711873D+00 0.48112337D+06 0.48112337D+06 0.48112337D+06 0.10696936D+01  1  2  2  1  6  1        1 0.692062694966D-03 0.100000000000D+01
0.269787047792D-03 0.000000000000D+00 -.141361594234D-05 0.382618640652D-05 0.000000000000D+00  6 1 2 25 1 2 21 2 0.75898089D-01 0.40711873D+00 0.48112337D+06 0.48112337D+06 0.48112337D+06 0.10696936D+01  1  2  3  1  6  1        1 0.580383318112D-03 0.100000000000D+01
-.238205968584D-03 0.000000000000D+00 0.000000000000D+00 0.382618640652D-05 0.000000000000D+00  6 1 2 25 1 2 21 2 0.75898089D-01 0.40711873D+00 0.48112337D+06 0.48112337D+06 0.48112337D+06 0.10696936D+01  1  2 15  1  6  1        1 -.512444061241D-03 0.100000000000D+01
-.972308626185D-02 0.000000000000D+00 -.229183963523D-03 0.382618640652D-05 0.000000000000D+00  6 1 2 25 1 2 21 2 0.19983350D+00 0.40711873D+00 0.48112337D+06 0.48112337D+06 0.48112337D+06 0.10696936D+01  1  2  5  1  6  1        1 -.422124541393D-02 0.100000000000D+01
-.103155758729D-02 0.000000000000D+00 -.246370245506D-04 0.382618640652D-05 0.000000000000D+00  6 21 2 25 1 2 -1 2 0.19983350D+00 0.40711873D+00 0.48112337D+06 0.48112337D+06 0.48112337D+06 0.10696936D+01  1  2  5  5  6  1        1 -.414946495424D-03 0.100000000000D+01
  </mgrwgt>
  </event>
  <event>
  5     66 -.17698235E-05 0.11065884E+03 0.75467711E-02 0.92065677E-01
        1 -1    0    0  501    0 0.00000000E+00 0.00000000E+00 0.84637814E+03 0.84637821E+03 0.32000000E+00 0.0000E+00 0.9000E+01
        2 -1    0    0  502    0 0.00000000E+00 0.00000000E+00 -.74051277E+03 0.74051284E+03 0.32000000E+00 0.0000E+00 0.9000E+01
       25  1    1    2    0    0 0.34469719E+03 0.43766295E+03 0.11862198E+03 0.58314765E+03 0.12500000E+03 0.0000E+00 0.9000E+01
        1  1    1    2  501    0 -.34223533E+03 -.32705147E+03 0.37284767E+03 0.60258043E+03 0.32000000E+00 0.0000E+00 0.9000E+01
        2  1    1    2  502    0 -.24618639E+01 -.11061147E+03 -.38560428E+03 0.40116297E+03 0.32000000E+00 0.0000E+00 0.9000E+01
#aMCatNLO 1  0  0  1  2 0.12675970D+03 0.00000000D+00  -5  6  0 0.00000000D+00 0.00000000D+00 0.00000000D+00 0.00000000D+00 0.00000000D+00
  <mgrwgt>
 -.5231375840D-02    7    2    0
 0.791677921360719D+03 0.000000000000000D+00 0.000000000000000D+00 0.791677921360719D+03
 0.791677921360719D+03 0.000000000000000D+00 0.000000000000000D+00 -.791677921360719D+03
 0.576500143409622D+03 0.344660717692906D+03 0.437645678722814D+03 0.800166540538453D+02
 0.578930781292297D+03 -.342196406422883D+03 -.327014279373196D+03 0.333352861162168D+03
 0.427924918019519D+03 -.246431127002279D+01 -.110631399349619D+03 -.413369515216013D+03
 0.000000000000000D+00 0.000000000000000D+00 -.000000000000000D+00 0.000000000000000D+00
 0.107322891264003D+04 0.000000000000000D+00 0.000000000000000D+00 0.107322891264003D+04
 0.808607829241779D+03 0.000000000000000D+00 0.000000000000000D+00 -.808607829241779D+03
 0.599815441126380D+03 0.326292502752738D+03 0.480920056906567D+03 0.800166540538453D+02
 0.567388045737817D+03 -.360096220793834D+03 -.284843423956345D+03 0.333352861162168D+03
 0.421218291961149D+03 -.157237164848755D+02 -.793930608595582D+02 -.413369515216013D+03
 0.293414963056460D+03 0.495274345259712D+02 -.116683572090664D+03 0.264621083398247D+03
0.187034164760D-03 0.000000000000D+00 0.000000000000D+00 0.425669273612D-06 0.000000000000D+00  6 1 2 25 1 2 21 0 0.13021203D+00 0.11392505D+00 0.33345087D+06 0.33345087D+06 0.33345087D+06 0.10811715D+01  1  2  2  1  6  1        1 0.204073341213D-02 0.100000000000D+01
0.323213702890D-04 0.000000000000D+00 -.718260439905D-06 0.425669273612D-06 0.000000000000D+00  6 1 2 25 1 2 21 2 0.13021203D+00 0.11392505D+00 0.33345087D+06 0.33345087D+06 0.33345087D+06 0.10811715D+01  1  2  3  1  6  1        1 0.412234406090D-03 0.100000000000D+01
-.104806545201D-03 0.000000000000D+00 0.000000000000D+00 0.425669273612D-06 0.000000000000D+00  6 1 2 25 1 2 21 2 0.13021203D+00 0.11392505D+00 0.33345087D+06 0.33345087D+06 0.33345087D+06 0.10811715D+01  1  2 15  1  6  1        1 -.133672748182D-02 0.100000000000D+01
-.110359277741D-02 0.000000000000D+00 0.000000000000D+00 0.425669273612D-06 0.000000000000D+00  6 1 2 25 1 2 21 2 0.13021203D+00 0.11392505D+00 0.33345087D+06 0.33345087D+06 0.33345087D+06 0.10811715D+01  1  2  4  1  6  1        1 -.140754834679D-01 0.100000000000D+01
-.154110593750D-02 0.000000000000D+00 -.176227290502D-03 0.425669273612D-06 0.000000000000D+00  6 1 2 25 1 2 21 2 0.17805745D+00 0.11392505D+00 0.33345087D+06 0.33345087D+06 0.33345087D+06 0.10811715D+01  1  2  5  1  6  1        1 -.113139155284D-01 0.100000000000D+01
0.152905989201D-02 0.000000000000D+00 0.167936707566D-03 0.425669273612D-06 0.000000000000D+00  6 1 2 25 1 2 21 2 0.13021203D+00 0.11392505D+00 0.33345087D+06 0.33345087D+06 0.33345087D+06 0.10811715D+01  1  2  6  1  6  1        1 0.195019917417D-01 0.100000000000D+01
-.571988473341D-04 0.000000000000D+00 -.702294474743D-05 0.425669273612D-06 0.000000000000D+00  6 21 2 25 1 2 -1 2 0.17805745D+00 0.11392505D+00 0.33345087D+06 0.33345087D+06 0.33345087D+06 0.10811715D+01  1  2  5  5  6  1        1 -.460208921772D-03 0.100000000000D+01
  </mgrwgt>
  </event>
  <event>
  5     66 0.17698235E-05 0.27994482E+02 0.75467711E-02 0.94610406E-01
        1 -1    0    0  501    0 0.00000000E+00 0.00000000E+00 0.22527341E+03 0.22527364E+03 0.32000000E+00 0.0000E+00 0.9000E+01
        2 -1    0    0  502    0 0.00000000E+00 0.00000000E+00 -.25126923E+04 0.25126923E+04 0.32000000E+00 0.0000E+00 0.9000E+01
       25  1    1    2    0    0 0.35154743E+03 0.34532762E+03 -.72436309E+03 0.88496534E+03 0.12500000E+03 0.0000E+00 0.9000E+01
        1  1    1    2  501    0 -.19951891E+02 -.19652214E+02 0.11159155E+03 0.11505244E+03 0.32000000E+00 0.0000E+00 0.9000E+01
        2  1    1    2  502    0 -.33159554E+03 -.32567540E+03 -.16746474E+04 0.17379482E+04 0.32000000E+00 0.0000E+00 0.9000E+01
#aMCatNLO 1  0  0  1  2 0.12675970D+03 0.00000000D+00  -5  6  0 0.00000000D+00 0.00000000D+00 0.00000000D+00 0.00000000D+00 0.00000000D+00
  <mgrwgt>
 0.6597593293D-02    5    2    0
 0.752358365878575D+03 0.000000000000000D+00 0.000000000000000D+00 0.752358365878575D+03
 0.752358365878575D+03 0.000000000000000D+00 0.000000000000000D+00 -.752358365878575D+03
 0.509210853423302D+03 0.351608958224965D+03 0.345388035569456D+03 0.273667430563852D+02
 0.378841529983201D+03 -.199443028966284D+02 -.196447399869508D+02 0.377805788485070D+03
 0.616664348350646D+03 -.331664655328337D+03 -.325743295582505D+03 -.405172531541455D+03
 0.000000000000000D+00 -.000000000000000D+00 0.000000000000000D+00 0.000000000000000D+00
 0.174999391737385D+04 0.000000000000000D+00 0.000000000000000D+00 0.174999391737385D+04
 0.113002025259720D+04 0.000000000000000D+00 0.000000000000000D+00 -.113002025259720D+04
 0.454607794046523D+03 0.428111160017394D+03 0.837564472198583D+02 0.273667430563852D+02
 0.452866530372536D+03 0.460717448658386D+02 -.245414495993718D+03 0.377805788485070D+03
 0.858886206569169D+03 -.214544213008880D+03 -.726286111793049D+03 -.405172531541455D+03
 0.111365363898283D+04 -.259638691874352D+03 0.887944160566909D+03 0.619973664776652D+03
0.896034291348D-03 0.000000000000D+00 0.000000000000D+00 0.610912974042D-05 0.000000000000D+00  6 1 2 25 1 2 21 0 0.34657467D-01 0.38656807D+00 0.25067340D+06 0.25067340D+06 0.25067340D+06 0.10903712D+01  1  2  2  1  6  1        1 0.604946955165D-02 0.100000000000D+01
0.482007672572D-03 0.000000000000D+00 -.344100761002D-05 0.610912974042D-05 0.000000000000D+00  6 1 2 25 1 2 21 2 0.34657467D-01 0.38656807D+00 0.25067340D+06 0.25067340D+06 0.25067340D+06 0.10903712D+01  1  2  3  1  6  1        1 0.386897020898D-02 0.100000000000D+01
-.559606805364D-03 0.000000000000D+00 0.000000000000D+00 0.610912974042D-05 0.000000000000D+00  6 1 2 25 1 2 21 2 0.34657467D-01 0.38656807D+00 0.25067340D+06 0.25067340D+06 0.25067340D+06 0.10903712D+01  1  2 15  1  6  1        1 -.449184148281D-02 0.100000000000D+01
0.785630469623D-03 0.000000000000D+00 -.671947287665D-03 0.610912974042D-05 0.000000000000D+00  6 1 2 25 1 2 21 2 0.13568037D+00 0.38656807D+00 0.25067340D+06 0.25067340D+06 0.25067340D+06 0.10903712D+01  1  2  5  1  6  1        1 0.919476058904D-03 0.100000000000D+01
0.137793404419D-03 0.000000000000D+00 -.109130856410D-03 0.610912974042D-05 0.000000000000D+00  6 21 2 25 1 2 -1 2 0.13568037D+00 0.38656807D+00 0.25067340D+06 0.25067340D+06 0.25067340D+06 0.10903712D+01  1  2  5  5  6  1        1 0.251518956145D-03 0.100000000000D+01
  </mgrwgt>
  </event>
  <event>
  5     66 0.17698235E-05 0.23609064E+02 0.75467711E-02 0.87644839E-01
        1 -1    0    0  501    0 0.00000000E+00 0.00000000E+00 0.49213242E+03 0.49213252E+03 0.32000000E+00 0.0000E+00 0.9000E+01
        2 -1    0    0  502    0 0.00000000E+00 0.00000000E+00 -.15943339E+04 0.15943340E+04 0.32000000E+00 0.0000E+00 0.9000E+01
       25  1    1    2    0    0 0.33079480E+03 -.30515357E+03 -.33654567E+03 0.57570122E+03 0.12500000E+03 0.0000E+00 0.9000E+01
        1  1    1    2  501    0 0.43274886E+01 -.23212895E+02 0.32375602E+03 0.32461612E+03 0.32000000E+00 0.0000E+00 0.9000E+01
        2  1    1    2  502    0 -.33512229E+03 0.32836647E+03 -.10894119E+04 0.11861491E+04 0.32000000E+00 0.0000E+00 0.9000E+01
#aMCatNLO 1  0  0  2  2 0.22507043D+03 0.00000000D+00  -5  6  0 0.00000000D+00 0.00000000D+00 0.00000000D+00 0.00000000D+00 0.00000000D+00
  <mgrwgt>
 0.1463551081D-01    5    2    0
 0.885789789117465D+03 0.000000000000000D+00 0.000000000000000D+00 0.885789789117465D+03
 0.885789789117465D+03 0.000000000000000D+00 0.000000000000000D+00 -.885789789117465D+03
 0.468711544219958D+03 0.330848313579892D+03 -.305207319065137D+03 -.381234504664895D+02
 0.583648642694286D+03 0.432679875691966D+01 -.232091945903355D+02 0.583170944250369D+03
 0.719219391320686D+03 -.335175112336812D+03 0.328416513655472D+03 -.545047493783880D+03
 0.000000000000000D+00 -.000000000000000D+00 -.000000000000000D+00 -.000000000000000D+00
 0.105149194344894D+04 0.000000000000000D+00 0.000000000000000D+00 0.105149194344894D+04
 0.222581382391068D+04 0.000000000000000D+00 0.000000000000000D+00 -.222581382391068D+04
 0.594846540599431D+03 0.525957976214602D+03 -.245218711855111D+03 -.381234504664895D+02
 0.627220656483120D+03 0.226460694243550D+03 0.450883096154345D+02 0.583170944250369D+03
 0.685016899304240D+03 -.775680546369288D+02 0.407620630920650D+03 -.545047493783880D+03
 0.137022167097283D+04 -.674850615821224D+03 -.207490228680974D+03 -.117432188046174D+04
0.182331478351D-02 0.000000000000D+00 0.000000000000D+00 0.207327248616D-04 0.000000000000D+00  6 1 2 25 1 2 21 0 0.75712690D-01 0.24528215D+00 0.23041060D+06 0.23041060D+06 0.23041060D+06 0.10931351D+01  1  2  2  2  6  2        2 0.139618880605D-01 0.100000000000D+01
0.125065202806D-02 0.000000000000D+00 -.700200885849D-05 0.207327248616D-04 0.000000000000D+00  6 1 2 25 1 2 21 2 0.75712690D-01 0.24528215D+00 0.23041060D+06 0.23041060D+06 0.23041060D+06 0.10931351D+01  1  2  3  2  6  2        2 0.114437057675D-01 0.100000000000D+01
-.114865865236D-02 0.000000000000D+00 0.000000000000D+00 0.207327248616D-04 0.000000000000D+00  6 1 2 25 1 2 21 2 0.75712690D-01 0.24528215D+00 0.23041060D+06 0.23041060D+06 0.23041060D+06 0.10931351D+01  1  2 15  2  6  2        2 -.105104468310D-01 0.100000000000D+01
-.114569563119D-02 0.000000000000D+00 -.843330978802D-03 0.207327248616D-04 0.000000000000D+00  6 1 2 25 1 2 21 2 0.75712690D-01 0.63235097D+00 0.23041060D+06 0.23041060D+06 0.23041060D+06 0.10931351D+01  1  2  5  2  6  2        2 -.259368651341D-03 0.100000000000D+01
-.689175089731D-04 0.000000000000D+00 -.883612117021D-04 0.207327248616D-04 0.000000000000D+00  6 1 21 25 1 2 -2 2 0.75712690D-01 0.63235097D+00 0.23041060D+06 0.23041060D+06 0.23041060D+06 0.10931351D+01  1  2  5  6  6  2        2 -.267533774384D-06 0.100000000000D+01
  </mgrwgt>
  </event>
  <event>
  5     66 0.17698235E-05 0.11012526E+02 0.75467711E-02 0.86665318E-01
        1 -1    0    0  501    0 0.00000000E+00 0.00000000E+00 0.14240969E+04 0.14240969E+04 0.32000000E+00 0.0000E+00 0.9000E+01
        2 -1    0    0  502    0 0.00000000E+00 0.00000000E+00 -.11027101E+04 0.11027102E+04 0.32000000E+00 0.0000E+00 0.9000E+01
       25  1    1    2    0    0 -.57553291E+03 0.84228472E+03 0.27439244E+03 0.10637659E+04 0.12500000E+03 0.0000E+00 0.9000E+01
        1  1    1    2  501    0 0.18318991E+00 -.11018205E+02 0.39402650E+03 0.39418070E+03 0.32000000E+00 0.0000E+00 0.9000E+01
        2  1    1    2  502    0 0.57534972E+03 -.83126652E+03 -.34703221E+03 0.10688605E+04 0.32000000E+00 0.0000E+00 0.9000E+01
#aMCatNLO 1  0  0  2  4 0.11232425D+03 0.00000000D+00  -5  6  0 0.00000000D+00 0.00000000D+00 0.00000000D+00 0.00000000D+00 0.00000000D+00
  <mgrwgt>
 0.4558358338D-03    4    2    0
 0.125314252064029D+04 0.000000000000000D+00 0.000000000000000D+00 0.125314252064029D+04
 0.125314252064029D+04 0.000000000000000D+00 0.000000000000000D+00 -.125314252064029D+04
 0.103743264596436D+04 -.575605343373539D+03 0.842385277969442D+03 0.140381719083361D+03
 0.346654581481113D+03 0.183070196814332D+00 -.110110042782768D+02 0.346479614309317D+03
 0.112219781383510D+04 0.575422273176724D+03 -.831374273691165D+03 -.486861333392677D+03
 0.000000000000000D+00 0.000000000000000D+00 0.000000000000000D+00 0.000000000000000D+00
 0.142543281393585D+04 0.000000000000000D+00 0.000000000000000D+00 0.142543281393585D+04
 0.126602540231040D+04 0.000000000000000D+00 0.000000000000000D+00 -.126602540231040D+04
 0.102586197543945D+04 -.597772942289398D+03 0.812236588111127D+03 0.140381719083361D+03
 0.347200666234390D+03 -.727156312479864D+01 -.211495596028220D+02 0.346479614309317D+03
 0.113487176235593D+04 0.551172797328166D+03 -.864354387115260D+03 -.486861333392677D+03
 0.183523812216485D+03 0.538717080860308D+02 0.732673586069551D+02 0.159407411625448D+03
0.135977370784D-03 0.000000000000D+00 0.000000000000D+00 0.131277067271D-05 0.000000000000D+00  6 1 2 25 1 2 21 0 0.21909183D+00 0.16964772D+00 0.10506136D+07 0.10506136D+07 0.10506136D+07 0.10464395D+01  1  2  2  2  6  2        2 0.300329155310D-03 0.100000000000D+01
0.145916218393D-03 0.000000000000D+00 -.522188907475D-06 0.131277067271D-05 0.000000000000D+00  6 1 2 25 1 2 21 2 0.21909183D+00 0.16964772D+00 0.10506136D+07 0.10506136D+07 0.10506136D+07 0.10464395D+01  1  2  3  2  6  2        2 0.352908978045D-03 0.100000000000D+01
-.814681715717D-04 0.000000000000D+00 0.000000000000D+00 0.131277067271D-05 0.000000000000D+00  6 1 2 25 1 2 21 2 0.21909183D+00 0.16964772D+00 0.10506136D+07 0.10506136D+07 0.10506136D+07 0.10464395D+01  1  2 15  2  6  2        2 -.197036693310D-03 0.100000000000D+01
-.151166116807D-06 0.000000000000D+00 0.000000000000D+00 0.131277067271D-05 0.000000000000D+00  6 1 2 25 1 2 21 2 0.21909183D+00 0.16964772D+00 0.10506136D+07 0.10506136D+07 0.10506136D+07 0.10464395D+01  1  2  4  2  6  2        2 -.365606238873D-06 0.100000000000D+01
  </mgrwgt>
  </event>
  <event>
  5     66 0.17698235E-05 0.10133336E+03 0.75467711E-02 0.87334097E-01
        1 -1    0    0  501    0 0.00000000E+00 0.00000000E+00 0.23750870E+04 0.23750870E+04 0.32000000E+00 0.0000E+00 0.9000E+01
        2 -1    0    0  502    0 0.00000000E+00 0.00000000E+00 -.11188873E+04 0.11188874E+04 0.32000000E+00 0.0000E+00 0.9000E+01
       25  1    1    2    0    0 0.16592227E+03 -.56199232E+03 0.10193299E+04 0.11823806E+04 0.12500000E+03 0.0000E+00 0.9000E+01
        1  1    1    2  501    0 0.76356632E+02 -.66649164E+02 0.11624081E+04 0.11668184E+04 0.32000000E+00 0.0000E+00 0.9000E+01
        2  1    1    2  502    0 -.24227890E+03 0.62864149E+03 -.92553834E+03 0.11447753E+04 0.32000000E+00 0.0000E+00 0.9000E+01
#aMCatNLO 1  0  0  1  1 0.52523555D+02 0.00000000D+00  -5  6  0 0.00000000D+00 0.00000000D+00 0.00000000D+00 0.00000000D+00 0.00000000D+00
  <mgrwgt>
 0.5744343722D-02    4    2    0
 0.163017017147459D+04 0.000000000000000D+00 0.000000000000000D+00 0.163017017147459D+04
 0.163017017147459D+04 0.000000000000000D+00 0.000000000000000D+00 -.163017017147459D+04
 0.874513987635310D+03 0.165958122724015D+03 -.562063219317825D+03 0.636939992119992D+03
 0.802403212363472D+03 0.763417756777518D+02 -.666361966838754D+02 0.795978935518457D+03
 0.158342314295040D+04 -.242299898401767D+03 0.628699416001701D+03 -.143291892763845D+04
 0.000000000000000D+00 -.000000000000000D+00 -.000000000000000D+00 -.000000000000000D+00
 0.178576220322406D+04 0.000000000000000D+00 0.000000000000000D+00 0.178576220322406D+04
 0.209077790914260D+04 0.000000000000000D+00 0.000000000000000D+00 -.209077790914260D+04
 0.854761767192677D+03 0.270961944333248D+03 -.485674530746343D+03 0.636939992119992D+03
 0.814906236952268D+03 0.174546860915744D+03 0.480651423286022D+01 0.795978935518457D+03
 0.162764700779562D+04 -.473196378260290D+02 0.770544600057334D+03 -.143291892763845D+04
 0.579225100426091D+03 -.398189167422963D+03 -.289676583543851D+03 -.305015705918540D+03
0.225584333154D-01 0.000000000000D+00 0.000000000000D+00 0.917637911535D-05 0.000000000000D+00  6 1 2 25 1 2 21 0 0.36539800D+00 0.17213652D+00 0.47220439D+06 0.47220439D+06 0.47220439D+06 0.10702704D+01  1  2  2  1  6  1        1 0.117015485719D-01 0.100000000000D+01
0.483654103433D-02 0.000000000000D+00 -.866303237030D-04 0.917637911535D-05 0.000000000000D+00  6 1 2 25 1 2 21 2 0.36539800D+00 0.17213652D+00 0.47220439D+06 0.47220439D+06 0.47220439D+06 0.10702704D+01  1  2  3  1  6  1        1 0.287379843652D-02 0.100000000000D+01
-.144017769777D-01 0.000000000000D+00 0.000000000000D+00 0.917637911535D-05 0.000000000000D+00  6 1 2 25 1 2 21 2 0.36539800D+00 0.17213652D+00 0.47220439D+06 0.47220439D+06 0.47220439D+06 0.10702704D+01  1  2 15  1  6  1        1 -.855731479744D-02 0.100000000000D+01
-.460611847856D-03 0.000000000000D+00 0.000000000000D+00 0.917637911535D-05 0.000000000000D+00  6 1 2 25 1 2 21 2 0.36539800D+00 0.17213652D+00 0.47220439D+06 0.47220439D+06 0.47220439D+06 0.10702704D+01  1  2  4  1  6  1        1 -.273688489111D-03 0.100000000000D+01
  </mgrwgt>
  </event>
  <event>
  5     66 0.17698235E-05 0.50285202E+02 0.75467711E-02 0.92267289E-01
        1 -1    0    0  501    0 0.00000000E+00 0.00000000E+00 0.16254195E+04 0.16254195E+04 0.32000000E+00 0.0000E+00 0.9000E+01
        2 -1    0    0  502    0 0.00000000E+00 0.00000000E+00 -.50346545E+03 0.50346555E+03 0.32000000E+00 0.0000E+00 0.9000E+01
       25  1    1    2    0    0 -.36855091E+03 0.45596989E+03 0.22371518E+03 0.63985295E+03 0.12500000E+03 0.0000E+00 0.9000E+01
        1  1    1    2  501    0 -.24330482E+01 -.50237986E+02 0.93657687E+03 0.93792649E+03 0.32000000E+00 0.0000E+00 0.9000E+01
        2  1    1    2  502    0 0.37098395E+03 -.40573190E+03 -.38338041E+02 0.55110560E+03 0.32000000E+00 0.0000E+00 0.9000E+01
#aMCatNLO 1  0  0  1  5 0.30109926D+02 0.00000000D+00  -5  6  0 0.00000000D+00 0.00000000D+00 0.00000000D+00 0.00000000D+00 0.00000000D+00
  <mgrwgt>
 0.1008473799D-01    9    2    0
 0.904622947505918D+03 0.000000000000000D+00 0.000000000000000D+00 0.904622947505918D+03
 0.904622947505918D+03 0.000000000000000D+00 0.000000000000000D+00 -.904622947505918D+03
 0.614227832214957D+03 -.368611442824816D+03 0.456031535862764D+03 -.133460377583539D+03
 0.522716076367334D+03 -.243248382150774D+01 -.502263334163656D+02 0.520291740225488D+03
 0.672301986429545D+03 0.371043926646324D+03 -.405805202446398D+03 -.386831362641948D+03
 0.000000000000000D+00 -.000000000000000D+00 0.000000000000000D+00 0.000000000000000D+00
 0.935826294322100D+03 0.000000000000000D+00 0.000000000000000D+00 0.935826294322100D+03
 0.912041195755204D+03 0.000000000000000D+00 0.000000000000000D+00 -.912041195755204D+03
 0.604556114403814D+03 -.362083071947035D+03 0.448271426802662D+03 -.133460377583539D+03
 0.523402033060612D+03 0.317100892161166D+01 -.568870632704383D+02 0.520291740225488D+03
 0.681538278685744D+03 0.378295721670755D+03 -.414425227461002D+03 -.386831362641948D+03
 0.383710639271330D+02 -.193836586453310D+02 0.230408639287782D+02 0.237850985668957D+02
0.407130677706D-03 0.000000000000D+00 0.000000000000D+00 0.294993121595D-05 0.000000000000D+00  6 1 2 25 1 2 21 0 0.25006454D+00 0.77456233D-01 0.35982209D+06 0.35982209D+06 0.35982209D+06 0.10787575D+01  1  2  2  1  6  1        1 0.191830295164D-02 0.100000000000D+01
0.172870913649D-03 0.000000000000D+00 -.156348900236D-05 0.294993121595D-05 0.000000000000D+00  6 1 2 25 1 2 21 2 0.25006454D+00 0.77456233D-01 0.35982209D+06 0.35982209D+06 0.35982209D+06 0.10787575D+01  1  2  3  1  6  1        1 0.947879065237D-03 0.100000000000D+01
-.251866763677D-03 0.000000000000D+00 0.000000000000D+00 0.294993121595D-05 0.000000000000D+00  6 1 2 25 1 2 21 2 0.25006454D+00 0.77456233D-01 0.35982209D+06 0.35982209D+06 0.35982209D+06 0.10787575D+01  1  2 15  1  6  1        1 -.138102603543D-02 0.100000000000D+01
0.223272603618D-07 0.000000000000D+00 0.000000000000D+00 0.294993121595D-05 0.000000000000D+00  6 1 2 25 1 2 21 2 0.26042344D+00 0.77456233D-01 0.38306597D+06 0.38306597D+06 0.38306597D+06 0.10767845D+01  1  2 12  1  6  1        1 0.109615550143D-06 0.100000000000D+01
-.388383516452D-04 0.000000000000D+00 0.000000000000D+00 0.294993121595D-05 0.000000000000D+00  6 1 2 25 1 2 21 2 0.25006454D+00 0.77456233D-01 0.35982209D+06 0.35982209D+06 0.35982209D+06 0.10787575D+01  1  2  4  1  6  1        1 -.212956938074D-03 0.100000000000D+01
-.175359382206D-01 0.000000000000D+00 -.229976527280D-02 0.294993121595D-05 0.000000000000D+00  6 1 2 25 1 2 21 2 0.25963277D+00 0.77456233D-01 0.35982209D+06 0.35982209D+06 0.35982209D+06 0.10787575D+01  1  2  5  1  6  1        1 -.873802017565D-01 0.100000000000D+01
0.176114957195D-01 0.000000000000D+00 0.229814496178D-02 0.294993121595D-05 0.000000000000D+00  6 1 2 25 1 2 21 2 0.25006454D+00 0.77456233D-01 0.35982209D+06 0.35982209D+06 0.35982209D+06 0.10787575D+01  1  2  6  1  6  1        1 0.965666678545D-01 0.100000000000D+01
0.485869223408D-09 0.000000000000D+00 0.000000000000D+00 0.294993121595D-05 0.000000000000D+00  6 21 2 25 1 2 -1 2 0.26042344D+00 0.77456233D-01 0.38306597D+06 0.38306597D+06 0.38306597D+06 0.10767845D+01  1  2 12  5  6  1        1 0.153731071014D-08 0.100000000000D+01
-.115635265360D-03 0.000000000000D+00 -.153171676464D-04 0.294993121595D-05 0.000000000000D+00  6 21 2 25 1 2 -1 2 0.25963277D+00 0.77456233D-01 0.35982209D+06 0.35982209D+06 0.35982209D+06 0.10787575D+01  1  2  5  5  6  1        1 -.374038302535D-03 0.100000000000D+01
  </mgrwgt>
  </event>
  <event>
  6     66 0.17698235E-05 0.16287690E+02 0.75467711E-02 0.94985400E-01
        1 -1    0    0  503    0 0.00000000E+00 0.00000000E+00 0.39308788E+03 0.39308801E+03 0.32000000E+00 0.0000E+00 0.9000E+01
        2 -1    0    0  502    0 0.00000000E+00 0.00000000E+00 -.25329501E+04 0.25329501E+04 0.32000000E+00 0.0000E+00 0.9000E+01
       25  1    1    2    0    0 -.37248417E+03 -.25660859E+03 -.58060957E+03 0.74654196E+03 0.12500000E+03 0.0000E+00 0.9000E+01
        1  1    1    2  501    0 0.38680765E+03 0.23594960E+03 0.10103494E+03 0.46422035E+03 0.32000000E+00 0.0000E+00 0.9000E+01
        2  1    1    2  502    0 -.25344301E+02 0.26980829E+01 -.16836282E+04 0.16838211E+04 0.32000000E+00 0.0000E+00 0.9000E+01
       21  1    1    2  503  501 0.11020824E+02 0.17960902E+02 0.23340584E+02 0.31454697E+02 0.75000000E+00 0.0000E+00 0.9000E+01
#aMCatNLO 2  0  0  1  4 0.36847107D+02 0.00000000D+00  -5  6  0 0.00000000D+00 0.00000000D+00 0.00000000D+00 0.00000000D+00 0.00000000D+00
  <mgrwgt>
 0.2493219981D-01    1    2    0
 0.961603195576484D+03 0.000000000000000D+00 0.000000000000000D+00 0.961603195576484D+03
 0.961603195576484D+03 0.000000000000000D+00 0.000000000000000D+00 -.961603195576484D+03
 0.465989629463078D+03 -.369784678063241D+03 -.252227868726909D+03 -.340841440303700D+02
 0.816723593195410D+03 0.391461038706157D+03 0.243547469079213D+03 0.674151550589501D+03
 0.640493168494479D+03 -.216763606429159D+02 0.868039964769522D+01 -.640067406559131D+03
 0.000000000000000D+00 0.000000000000000D+00 0.000000000000000D+00 0.000000000000000D+00
 0.103370682706470D+04 0.000000000000000D+00 0.000000000000000D+00 0.103370682706470D+04
 0.963201783429282D+03 0.000000000000000D+00 0.000000000000000D+00 -.963201783429282D+03
 0.470492197068712D+03 -.372467825208292D+03 -.256600658247141D+03 -.340841440303700D+02
 0.812254873223082D+03 0.386793794988565D+03 0.235941149591927D+03 0.674151550589501D+03
 0.640574763289369D+03 -.253467936042382D+02 0.269860665598705D+01 -.640067406559131D+03
 0.735867769128202D+02 0.110208238239649D+02 0.179609019992271D+02 0.705050436354199D+02
0.663224849545D-02 0.000000000000D+00 0.000000000000D+00 0.398476859509D-04 0.147702400938D-05  6 1 2 25 1 2 21 2 0.60474950D-01 0.38968387D+00 0.23468907D+06 0.23468907D+06 0.23468907D+06 0.10925300D+01  1  2  1  1  6  1        1 0.249321998115D-01 0.100000000000D+01
  </mgrwgt>
  </event>
  <event>
  5     66 0.17698235E-05 0.17906803E+03 0.75467711E-02 0.89234861E-01
        1 -1    0    0  501    0 0.00000000E+00 0.00000000E+00 0.13789117E+04 0.13789117E+04 0.32000000E+00 0.0000E+00 0.9000E+01
        2 -1    0    0  502    0 0.00000000E+00 0.00000000E+00 -.78151411E+03 0.78151417E+03 0.32000000E+00 0.0000E+00 0.9000E+01
       25  1    1    2    0    0 0.13643351E+02 -.53695343E+03 0.19957085E+03 0.58647989E+03 0.12500000E+03 0.0000E+00 0.9000E+01
        1  1    1    2  501    0 -.17909700E+03 0.23110886E+00 0.84015569E+03 0.85903288E+03 0.32000000E+00 0.0000E+00 0.9000E+01
        2  1    1    2  502    0 0.16545365E+03 0.53672232E+03 -.44232897E+03 0.71491313E+03 0.32000000E+00 0.0000E+00 0.9000E+01
#aMCatNLO 1  0  0  2  1 0.25320496D+01 0.00000000D+00  -5  6  0 0.00000000D+00 0.00000000D+00 0.00000000D+00 0.00000000D+00 0.00000000D+00
  <mgrwgt>
 0.1359877262D-01    7    2    0
 0.103809394880650D+04 0.000000000000000D+00 0.000000000000000D+00 0.103809394880650D+04
 0.103809394880650D+04 0.000000000000000D+00 0.000000000000000D+00 -.103809394880650D+04
 0.552928821235877D+03 0.136048762061427D+02 -.537028673016793D+03 0.389922178714515D+02
 0.652036146227985D+03 -.179067880052068D+03 0.231071273906911D+00 0.626965530892701D+03
 0.871222930149137D+03 0.165463003845926D+03 0.536797601742886D+03 -.665957748764153D+03
 0.000000000000000D+00 0.000000000000000D+00 -.000000000000000D+00 -.000000000000000D+00
 0.115566308123565D+04 0.000000000000000D+00 0.000000000000000D+00 0.115566308123565D+04
 0.123042515103141D+04 0.000000000000000D+00 0.000000000000000D+00 -.123042515103141D+04
 0.488168980838447D+03 -.786032446512565D+01 -.470214606427338D+03 0.389922178714515D+02
 0.665436027147833D+03 -.206231326679252D+03 0.847818919041105D+02 0.626965530892701D+03
 0.941536264677025D+03 0.128087802584236D+03 0.653134235354485D+03 -.665957748764153D+03
 0.290946959603756D+03 0.860038485601414D+02 -.267701520831257D+03 -.747620697957601D+02
0.230226993677D-02 0.000000000000D+00 0.000000000000D+00 0.471657707053D-06 0.000000000000D+00  6 1 2 25 1 2 21 0 0.21214027D+00 0.12023295D+00 0.41753603D+06 0.41753603D+06 0.41753603D+06 0.10740869D+01  1  2  2  2  6  2        2 0.933207022499D-02 0.100000000000D+01
0.284771725827D-03 0.000000000000D+00 -.884132275879D-05 0.471657707053D-06 0.000000000000D+00  6 1 2 25 1 2 21 2 0.21214027D+00 0.12023295D+00 0.41753603D+06 0.41753603D+06 0.41753603D+06 0.10740869D+01  1  2  3  2  6  2        2 0.133167257053D-02 0.100000000000D+01
-.122699771927D-02 0.000000000000D+00 0.000000000000D+00 0.471657707053D-06 0.000000000000D+00  6 1 2 25 1 2 21 2 0.21214027D+00 0.12023295D+00 0.41753603D+06 0.41753603D+06 0.41753603D+06 0.10740869D+01  1  2 15  2  6  2        2 -.573778594808D-02 0.100000000000D+01
-.196971616837D-03 0.000000000000D+00 0.000000000000D+00 0.471657707053D-06 0.000000000000D+00  6 1 2 25 1 2 21 2 0.21214027D+00 0.12023295D+00 0.41753603D+06 0.41753603D+06 0.41753603D+06 0.10740869D+01  1  2  4  2  6  2        2 -.921094601484D-03 0.100000000000D+01
-.579892137177D-02 0.000000000000D+00 -.240711170123D-02 0.471657707053D-06 0.000000000000D+00  6 1 2 25 1 2 21 2 0.21214027D+00 0.15402933D+00 0.41753603D+06 0.41753603D+06 0.41753603D+06 0.10740869D+01  1  2  5  2  6  2        2 -.193882613711D-01 0.100000000000D+01
0.627373293553D-02 0.000000000000D+00 0.233510227319D-02 0.471657707053D-06 0.000000000000D+00  6 1 2 25 1 2 21 2 0.21214027D+00 0.12023295D+00 0.41753603D+06 0.41753603D+06 0.41753603D+06 0.10740869D+01  1  2  6  2  6  2        2 0.293377372379D-01 0.100000000000D+01
-.155190131527D-03 0.000000000000D+00 -.809133747116D-04 0.471657707053D-06 0.000000000000D+00  6 1 21 25 1 2 -2 2 0.21214027D+00 0.15402933D+00 0.41753603D+06 0.41753603D+06 0.41753603D+06 0.10740869D+01  1  2  5  6  6  2        2 -.355565492493D-03 0.100000000000D+01
  </mgrwgt>
  </event>
  <event>
  5     66 -.17698235E-05 0.53140623E+02 0.75467711E-02 0.92729467E-01
        1 -1    0    0  501    0 0.00000000E+00 0.00000000E+00 0.29689126E+04 0.29689126E+04 0.32000000E+00 0.0000E+00 0.9000E+01
        2 -1    0    0  502    0 0.00000000E+00 0.00000000E+00 -.14181317E+04 0.14181317E+04 0.32000000E+00 0.0000E+00 0.9000E+01
       25  1    1    2    0    0 -.21863973E+03 0.49837178E+03 0.74370693E+02 0.56332385E+03 0.12500000E+03 0.0000E+00 0.9000E+01
        1  1    1    2  501    0 0.27176491E+03 -.49721157E+03 0.26191515E+04 0.26797444E+04 0.32000000E+00 0.0000E+00 0.9000E+01
        2  1    1    2  502    0 -.53125178E+02 -.11602071E+01 -.11427413E+04 0.11439761E+04 0.32000000E+00 0.0000E+00 0.9000E+01
#aMCatNLO 1  0  0  4  2 0.60115949D+02 0.00000000D+00  -5  6  0 0.00000000D+00 0.00000000D+00 0.00000000D+00 0.00000000D+00 0.00000000D+00
  <mgrwgt>
 -.1055801272D-01    4    2    0
 0.205190381235086D+04 0.000000000000000D+00 0.000000000000000D+00 0.205190381235086D+04
 0.205190381235086D+04 -.000000000000000D+00 -.000000000000000D+00 -.205190381235086D+04
 0.574080650845484D+03 -.218634288778869D+03 0.498367062374197D+03 -.133315087615191D+03
 0.187492999573123D+04 0.271762241266599D+03 -.497206698783951D+03 0.178725859119458D+04
 0.165479697812501D+04 -.531279524877307D+02 -.116036359024588D+01 -.165394350357939D+04
 0.000000000000000D+00 0.000000000000000D+00 0.000000000000000D+00 0.000000000000000D+00
 0.205190381235086D+04 0.000000000000000D+00 0.000000000000000D+00 0.205190381235086D+04
 0.205190381235086D+04 -.000000000000000D+00 -.000000000000000D+00 -.205190381235086D+04
 0.573793374302102D+03 -.218552064311657D+03 0.498216627362655D+03 -.132774334106736D+03
 0.731021661235573D+03 0.470144530834422D+02 -.185484384100509D+03 0.705533736721169D+03
 0.165323216197135D+04 -.528909918739294D+02 -.159389844770369D+01 -.165238511971113D+04
 0.114576042719271D+04 0.224428603102144D+03 -.311138344814442D+03 0.107962571709670D+04
0.240985330658D-02 0.000000000000D+00 0.000000000000D+00 0.403987520009D-03 0.000000000000D+00  6 1 2 25 1 2 21 0 0.45675579D+00 0.21817411D+00 0.34701348D+06 0.34701348D+06 0.34701348D+06 0.10799050D+01  1  2  2  3  6  4        1 0.326881197969D-03 0.100000000000D+01
0.125699463775D-02 0.000000000000D+00 -.925447122622D-05 0.403987520009D-03 0.000000000000D+00  6 1 2 25 1 2 21 2 0.45675579D+00 0.21817411D+00 0.34701348D+06 0.34701348D+06 0.34701348D+06 0.10799050D+01  1  2  3  3  6  4        1 0.198840035768D-03 0.100000000000D+01
-.166922263958D-02 0.000000000000D+00 0.000000000000D+00 0.403987520009D-03 0.000000000000D+00  6 1 2 25 1 2 21 2 0.45675579D+00 0.21817411D+00 0.34701348D+06 0.34701348D+06 0.34701348D+06 0.10799050D+01  1  2 15  3  6  4        1 -.264049089303D-03 0.100000000000D+01
-.683981261981D-01 0.000000000000D+00 0.000000000000D+00 0.403987520009D-03 0.000000000000D+00  6 1 2 25 1 2 21 2 0.45675579D+00 0.21817411D+00 0.34701348D+06 0.34701348D+06 0.34701348D+06 0.10799050D+01  1  2  5  3  6  4        1 -.108196848667D-01 0.100000000000D+01
  </mgrwgt>
  </event>
  <event>
  5     66 -.17698235E-05 0.28779943E+02 0.75467711E-02 0.94458971E-01
        1 -1    0    0  501    0 0.00000000E+00 0.00000000E+00 0.38219865E+03 0.38219879E+03 0.32000000E+00 0.0000E+00 0.9000E+01
        2 -1    0    0  502    0 -.00000000E+00 -.00000000E+00 -.96888860E+03 0.96888866E+03 0.32000000E+00 0.0000E+00 0.9000E+01
       25  1    1    2    0    0 0.19472168E+03 -.42375035E+03 -.43456343E+03 0.64957776E+03 0.12500000E+03 0.0000E+00 0.9000E+01
        1  1    1    2  501    0 -.22016369E+03 0.41029022E+03 0.75812537E+02 0.47176028E+03 0.32000000E+00 0.0000E+00 0.9000E+01
        2  1    1    2  502    0 0.25442012E+02 0.13460129E+02 -.22793906E+03 0.22974940E+03 0.32000000E+00 0.0000E+00 0.9000E+01
#aMCatNLO 1  0  0  5  1 0.20755403D+02 0.00000000D+00  -5  6  0 0.00000000D+00 0.00000000D+00 0.00000000D+00 0.00000000D+00 0.00000000D+00
  <mgrwgt>
 -.6485826815D-01    5    2    0
 0.608529412892000D+03 0.000000000000000D+00 0.000000000000000D+00 0.608529412892000D+03
 0.608529412892000D+03 -.000000000000000D+00 -.000000000000000D+00 -.608529412892000D+03
 0.511644380827619D+03 0.194727884361603D+03 -.423755083098252D+03 -.169315247490962D+03
 0.560267085095026D+03 -.220167008055511D+03 0.410296400689518D+03 0.311580742001151D+03
 0.145147359861355D+03 0.254391236939083D+02 0.134586824087331D+02 -.142265494510189D+03
 0.000000000000000D+00 -.000000000000000D+00 0.000000000000000D+00 0.000000000000000D+00
 0.608529412892000D+03 0.000000000000000D+00 0.000000000000000D+00 0.608529412892000D+03
 0.608529412892000D+03 -.000000000000000D+00 -.000000000000000D+00 -.608529412892000D+03
 0.520827516188587D+03 0.199492511380328D+03 -.421234335818877D+03 -.195960898777209D+03
 0.544922390595104D+03 -.215066805665594D+03 0.412994685623075D+03 0.283058422449816D+03
 0.117455152848550D+03 0.406348758350413D+02 0.878278601156403D+01 -.109851638433034D+03
 0.338537661517599D+02 -.250605815497756D+02 -.543135815762221D+00 0.227541147604280D+02
0.606161607475D-02 0.000000000000D+00 0.000000000000D+00 0.101896731562D-05 0.000000000000D+00  6 1 2 25 1 2 21 0 0.58799807D-01 0.14905980D+00 0.23874596D+06 0.23874596D+06 0.23874596D+06 0.10919672D+01  1  2  2  4  6  5        2 0.149427534744D+00 0.100000000000D+01
0.205834425105D-02 0.000000000000D+00 -.232782017872D-04 0.101896731562D-05 0.000000000000D+00  6 1 2 25 1 2 21 2 0.58799807D-01 0.14905980D+00 0.23874596D+06 0.23874596D+06 0.23874596D+06 0.10919672D+01  1  2  3  4  6  5        2 0.605033470837D-01 0.100000000000D+01
-.352686335205D-02 0.000000000000D+00 0.000000000000D+00 0.101896731562D-05 0.000000000000D+00  6 1 2 25 1 2 21 2 0.58799807D-01 0.14905980D+00 0.23874596D+06 0.23874596D+06 0.23874596D+06 0.10919672D+01  1  2 15  4  6  5        2 -.103669265915D+00 0.100000000000D+01
0.536572444058D-05 0.000000000000D+00 0.000000000000D+00 0.101896731562D-05 0.000000000000D+00  6 1 2 25 1 2 21 2 0.58799807D-01 0.14905980D+00 0.25747179D+06 0.25747179D+06 0.25747179D+06 0.10894982D+01  1  2 12  4  6  5        2 0.156643356121D-03 0.100000000000D+01
-.582688516487D-02 0.000000000000D+00 0.000000000000D+00 0.101896731562D-05 0.000000000000D+00  6 1 2 25 1 2 21 2 0.58799807D-01 0.14905980D+00 0.23874596D+06 0.23874596D+06 0.23874596D+06 0.10919672D+01  1  2  4  4  6  5        2 -.171276527417D+00 0.100000000000D+01
  </mgrwgt>
  </event>
  <event>
  5     66 0.17698235E-05 0.82027882E+02 0.75467711E-02 0.93693496E-01
        1 -1    0    0  501    0 0.00000000E+00 0.00000000E+00 0.64180193E+03 0.64180201E+03 0.32000000E+00 0.0000E+00 0.9000E+01
        2 -1    0    0  502    0 0.00000000E+00 0.00000000E+00 -.10934624E+04 0.10934624E+04 0.32000000E+00 0.0000E+00 0.9000E+01
       25  1    1    2    0    0 0.21353210E+03 0.43046041E+03 0.30326508E+03 0.58179621E+03 0.12500000E+03 0.0000E+00 0.9000E+01
        1  1    1    2  501    0 -.68400843E+02 0.45472765E+02 0.12090576E+03 0.14616686E+03 0.32000000E+00 0.0000E+00 0.9000E+01
        2  1    1    2  502    0 -.14513126E+03 -.47593317E+03 -.87583127E+03 0.10073013E+04 0.32000000E+00 0.0000E+00 0.9000E+01
#aMCatNLO 1  0  0  2  4 0.98379576D+01 0.00000000D+00  -5  6  0 0.00000000D+00 0.00000000D+00 0.00000000D+00 0.00000000D+00 0.00000000D+00
  <mgrwgt>
 0.7586843299D-02    9    2    0
 0.837726899805958D+03 0.000000000000000D+00 0.000000000000000D+00 0.837726899805958D+03
 0.837726899805958D+03 0.000000000000000D+00 0.000000000000000D+00 -.837726899805958D+03
 0.684525430282763D+03 0.213482304006167D+03 0.430601941997724D+03 0.471123485009832D+03
 0.183733759455543D+03 -.683101708092746D+02 0.454124867311538D+02 0.164406572181795D+03
 0.807194609873609D+03 -.145172133196893D+03 -.476014428728878D+03 -.635530057191627D+03
 0.000000000000000D+00 0.000000000000000D+00 -.000000000000000D+00 -.000000000000000D+00
 0.841696246314967D+03 0.000000000000000D+00 0.000000000000000D+00 0.841696246314967D+03
 0.843859402979822D+03 0.000000000000000D+00 0.000000000000000D+00 -.843859402979822D+03
 0.684050708106150D+03 0.209628670012325D+03 0.431739335527330D+03 0.471123485009832D+03
 0.184197108728923D+03 -.693461898229399D+02 0.457182659838214D+02 0.164406572181795D+03
 0.807234865869578D+03 -.149718040533629D+03 -.474672711897633D+03 -.635530057191627D+03
 0.100729665901387D+02 0.943556034424375D+01 -.278488961351809D+01 -.216315666485465D+01
0.205589556465D-03 0.000000000000D+00 0.000000000000D+00 0.376137637964D-06 0.000000000000D+00  6 1 2 25 1 2 21 0 0.98738768D-01 0.16822499D+00 0.28960181D+06 0.28960181D+06 0.28960181D+06 0.10856871D+01  1  2  2  2  6  2        2 0.203943464425D-02 0.100000000000D+01
0.238010873280D-04 0.000000000000D+00 -.789518029797D-06 0.376137637964D-06 0.000000000000D+00  6 1 2 25 1 2 21 2 0.98738768D-01 0.16822499D+00 0.28960181D+06 0.28960181D+06 0.28960181D+06 0.10856871D+01  1  2  3  2  6  2        2 0.278301096774D-03 0.100000000000D+01
-.120243208302D-03 0.000000000000D+00 0.000000000000D+00 0.376137637964D-06 0.000000000000D+00  6 1 2 25 1 2 21 2 0.98738768D-01 0.16822499D+00 0.28960181D+06 0.28960181D+06 0.28960181D+06 0.10856871D+01  1  2 15  2  6  2        2 -.140597848699D-02 0.100000000000D+01
-.491472048185D-05 0.000000000000D+00 0.000000000000D+00 0.376137637964D-06 0.000000000000D+00  6 1 2 25 1 2 21 2 0.98738768D-01 0.16822499D+00 0.28960181D+06 0.28960181D+06 0.28960181D+06 0.10856871D+01  1  2  4  2  6  2        2 -.574667905540D-04 0.100000000000D+01
-.367699741301D-01 0.000000000000D+00 -.416925967122D-02 0.376137637964D-06 0.000000000000D+00  6 1 2 25 1 2 21 2 0.98738768D-01 0.16998875D+00 0.28960181D+06 0.28960181D+06 0.28960181D+06 0.10856871D+01  1  2  5  2  6  2        2 -.423215912632D+00 0.100000000000D+01
0.368116838768D-01 0.000000000000D+00 0.416903290641D-02 0.376137637964D-06 0.000000000000D+00  6 1 2 25 1 2 21 2 0.98738768D-01 0.16822499D+00 0.28960181D+06 0.28960181D+06 0.28960181D+06 0.10856871D+01  1  2  6  2  6  2        2 0.430431259539D+00 0.100000000000D+01
0.216380188289D-10 0.000000000000D+00 0.000000000000D+00 0.376137637964D-06 0.387605886301D-08  6 1 2 25 1 2 21 2 0.99206615D-01 0.16945646D+00 0.29516111D+06 0.29516111D+06 0.29516111D+06 0.10850747D+01  1  2 11  2  6  2        2 0.247997293006D-09 0.100000000000D+01
-.706282321545D-04 0.000000000000D+00 -.802740144379D-05 0.376137637964D-06 0.000000000000D+00  6 1 21 25 1 2 -2 2 0.98738768D-01 0.16998875D+00 0.28960181D+06 0.28960181D+06 0.28960181D+06 0.10856871D+01  1  2  5  6  6  2        2 -.482794667199D-03 0.100000000000D+01
0.509918894885D-10 0.000000000000D+00 0.000000000000D+00 0.376137637964D-06 0.159168598452D-08  6 1 21 25 1 2 -2 2 0.99206615D-01 0.16945646D+00 0.29516111D+06 0.29516111D+06 0.29516111D+06 0.10850747D+01  1  2 11  6  6  2        2 0.348569264088D-09 0.100000000000D+01
  </mgrwgt>
  </event>
  <event>
  6     66 0.17698235E-05 0.12275343E+03 0.75467711E-02 0.88785278E-01
        3 -1    0    0  501    0 0.00000000E+00 0.00000000E+00 0.94763845E+03 0.94763858E+03 0.50000000E+00 0.0000E+00 0.9000E+01
        4 -1    0    0  502    0 -.00000000E+00 -.00000000E+00 -.15273491E+04 0.15273498E+04 0.15500000E+01 0.0000E+00 0.9000E+01
       25  1    1    2    0    0 -.51132666E+03 0.52679653E+03 -.11395673E+03 0.75337950E+03 0.12500000E+03 0.0000E+00 0.9000E+01
        3  1    1    2  503    0 -.12020626E+03 0.39574619E+02 0.38339887E+03 0.40374576E+03 0.50000000E+00 0.0000E+00 0.9000E+01
        4  1    1    2  502    0 0.63885659E+03 -.56528587E+03 -.91536623E+03 0.12512328E+04 0.15500000E+01 0.0000E+00 0.9000E+01
       21  1    1    2  501  503 -.73236781E+01 -.10852818E+01 0.66213483E+02 0.66630338E+02 0.75000000E+00 0.0000E+00 0.9000E+01
#aMCatNLO 2  0  0  4  1 0.12845369D+02 0.00000000D+00  -5  6  0 0.00000000D+00 0.00000000D+00 0.00000000D+00 0.00000000D+00 0.00000000D+00
  <mgrwgt>
 0.5781235991D-05    6    2    0
 0.120306933701990D+04 0.000000000000000D+00 0.000000000000000D+00 0.120306933701990D+04
 0.120306933701990D+04 -.000000000000000D+00 -.000000000000000D+00 -.120306933701990D+04
 0.747873149379085D+03 -.511626454130046D+03 0.527070172910627D+03 0.642234522932966D+02
 0.591284667932607D+03 -.127588434221558D+03 0.385069921406983D+02 0.576069406878494D+03
 0.106698085672810D+04 0.639214888351603D+03 -.565577165051325D+03 -.640292859171791D+03
 0.000000000000000D+00 0.000000000000000D+00 0.000000000000000D+00 0.000000000000000D+00
 0.120306933701990D+04 0.000000000000000D+00 0.000000000000000D+00 0.120306933701990D+04
 0.120306933701990D+04 -.000000000000000D+00 -.000000000000000D+00 -.120306933701990D+04
 0.747971973999768D+03 -.511703327073357D+03 0.527093373648546D+03 0.645705382272868D+02
 0.507156830932536D+03 -.120101545193886D+03 0.395449341263967D+02 0.491141393275412D+03
 0.106660059507506D+04 0.639105241514889D+03 -.565544072946187D+03 -.639797797150082D+03
 0.844092740324325D+02 -.730036924764590D+01 -.109423482875550D+01 0.840858656473836D+02
-.976973706658D-03 0.000000000000D+00 0.000000000000D+00 0.216353127430D-06 0.000000000000D+00  6 3 4 25 3 4 21 2 0.14579060D+00 0.23497685D+00 0.75030966D+06 0.75030966D+06 0.75030966D+06 0.10562711D+01  1  2 13  3  6  4        3 -.418055292047D-05 0.100000000000D+01
-.618820675877D-07 0.000000000000D+00 0.000000000000D+00 0.216353127430D-06 0.000000000000D+00  6 3 4 25 3 4 21 2 0.14579060D+00 0.23497685D+00 0.75030966D+06 0.75030966D+06 0.75030966D+06 0.10562711D+01  1  2 13  3  6  4        3 -.264798588350D-09 0.100000000000D+01
-.367414052637D-03 0.000000000000D+00 0.000000000000D+00 0.216353127430D-06 0.000000000000D+00  6 3 4 25 3 4 21 2 0.14579060D+00 0.23497685D+00 0.74986032D+06 0.74986032D+06 0.74986032D+06 0.10562889D+01  1  2  8  3  6  4        3 -.157230045503D-05 0.100000000000D+01
-.195245339414D-03 0.000000000000D+00 0.000000000000D+00 0.216353127430D-06 0.000000000000D+00  6 3 4 25 3 4 21 2 0.14579060D+00 0.23497685D+00 0.74986032D+06 0.74986032D+06 0.74986032D+06 0.10562889D+01  1  2  9  3  6  4        3 -.835526931532D-06 0.100000000000D+01
0.225083831999D-03 0.000000000000D+00 0.000000000000D+00 0.216353127430D-06 0.000000000000D+00  6 3 4 25 3 4 21 2 0.14579060D+00 0.23497685D+00 0.74986032D+06 0.74986032D+06 0.74986032D+06 0.10562889D+01  1  2 10  3  6  4        3 0.963216863729D-06 0.100000000000D+01
0.266567873877D-02 0.000000000000D+00 0.000000000000D+00 0.216353127430D-06 0.384376770379D-07  6 3 4 25 3 4 21 2 0.14579060D+00 0.23497685D+00 0.75030966D+06 0.75030966D+06 0.75030966D+06 0.10562711D+01  1  2  1  3  6  4        3 0.114066642331D-04 0.100000000000D+01
  </mgrwgt>
  </event>
  <event>
  5     66 0.17698235E-05 0.75952443E+02 0.75467711E-02 0.94929515E-01
        1 -1    0    0  501    0 0.00000000E+00 0.00000000E+00 0.12267586E+04 0.12267587E+04 0.32000000E+00 0.0000E+00 0.9000E+01
        2 -1    0    0  502    0 0.00000000E+00 0.00000000E+00 -.21731707E+04 0.21731707E+04 0.32000000E+00 0.0000E+00 0.9000E+01
       25  1    1    2    0    0 -.19445397E+03 0.42220985E+03 0.16254169E+03 0.50805344E+03 0.12500000E+03 0.0000E+00 0.9000E+01
        1  1    1    2  501    0 0.12248240E+03 -.39796434E+03 0.84206021E+03 0.93938440E+03 0.32000000E+00 0.0000E+00 0.9000E+01
        2  1    1    2  502    0 0.71971573E+02 -.24245505E+02 -.19510139E+04 0.19524915E+04 0.32000000E+00 0.0000E+00 0.9000E+01
#aMCatNLO 1  0  0  1  2 0.18174088D+03 0.00000000D+00  -5  6  0 0.00000000D+00 0.00000000D+00 0.00000000D+00 0.00000000D+00 0.00000000D+00
  <mgrwgt>
 0.2754443573D-01    7    2    0
 0.163277556269828D+04 0.000000000000000D+00 0.000000000000000D+00 0.163277556269828D+04
 0.163277556269828D+04 0.000000000000000D+00 0.000000000000000D+00 -.163277556269828D+04
 0.576106004152480D+03 -.194453199578040D+03 0.422189009412686D+03 0.316571510918993D+03
 0.122201265648308D+04 0.122475290652732D+03 -.397941243214211D+03 0.114889403459740D+04
 0.146743246476100D+04 0.719779089253086D+02 -.242477661984751D+02 -.146546554551639D+04
 0.000000000000000D+00 -.000000000000000D+00 0.000000000000000D+00 0.000000000000000D+00
 0.206034506939735D+04 0.000000000000000D+00 0.000000000000000D+00 0.206034506939735D+04
 0.192526197288338D+04 0.000000000000000D+00 0.000000000000000D+00 -.192526197288338D+04
 0.502031516213606D+03 -.118401349784334D+03 0.349534321798941D+03 0.316571510918993D+03
 0.131709036663504D+04 0.301583686453072D+03 -.569049041133276D+03 0.114889403459740D+04
 0.150918418491547D+04 0.281948527754875D+03 -.224839201653464D+03 -.146546554551639D+04
 0.657300974516614D+03 -.465130864423613D+03 0.444353920987798D+03 0.135083096513970D+03
0.295077091309D-01 0.000000000000D+00 0.000000000000D+00 0.208175280621D-03 0.000000000000D+00  6 1 2 25 1 2 21 0 0.18873210D+00 0.33433396D+00 0.23699697D+06 0.23699697D+06 0.23699697D+06 0.10922085D+01  1  2  2  1  6  1        1 0.250249305588D-01 0.100000000000D+01
0.104206157323D-01 0.000000000000D+00 -.113317372621D-03 0.208175280621D-03 0.000000000000D+00  6 1 2 25 1 2 21 2 0.18873210D+00 0.33433396D+00 0.23699697D+06 0.23699697D+06 0.23699697D+06 0.10922085D+01  1  2  3  1  6  1        1 0.105424583665D-01 0.100000000000D+01
-.187527229648D-01 0.000000000000D+00 0.000000000000D+00 0.208175280621D-03 0.000000000000D+00  6 1 2 25 1 2 21 2 0.18873210D+00 0.33433396D+00 0.23699697D+06 0.23699697D+06 0.23699697D+06 0.10922085D+01  1  2 15  1  6  1        1 -.189719884308D-01 0.100000000000D+01
-.462082663249D-03 0.000000000000D+00 0.000000000000D+00 0.208175280621D-03 0.000000000000D+00  6 1 2 25 1 2 21 2 0.18873210D+00 0.33433396D+00 0.23699697D+06 0.23699697D+06 0.23699697D+06 0.10922085D+01  1  2  4  1  6  1        1 -.467485546375D-03 0.100000000000D+01
-.415040626344D-02 0.000000000000D+00 -.242403469061D-01 0.208175280621D-03 0.000000000000D+00  6 1 2 25 1 2 21 2 0.26589007D+00 0.33433396D+00 0.23699697D+06 0.23699697D+06 0.23699697D+06 0.10922085D+01  1  2  5  1  6  1        1 -.192304660931D-02 0.100000000000D+01
0.130425990478D-01 0.000000000000D+00 0.228829831519D-01 0.208175280621D-03 0.000000000000D+00  6 1 2 25 1 2 21 2 0.18873210D+00 0.33433396D+00 0.23699697D+06 0.23699697D+06 0.23699697D+06 0.10922085D+01  1  2  6  1  6  1        1 0.131950991175D-01 0.100000000000D+01
0.488239346339D-03 0.000000000000D+00 -.103147254693D-02 0.208175280621D-03 0.000000000000D+00  6 21 2 25 1 2 -1 2 0.26589007D+00 0.33433396D+00 0.23699697D+06 0.23699697D+06 0.23699697D+06 0.10922085D+01  1  2  5  5  6  1        1 0.144468270369D-03 0.100000000000D+01
  </mgrwgt>
  </event>
  <event>
  6     66 0.17698235E-05 0.33045194E+02 0.75467711E-02 0.94996208E-01
        1 -1    0    0  501    0 0.00000000E+00 0.00000000E+00 0.45096755E+04 0.45096755E+04 0.32000000E+00 0.0000E+00 0.9000E+01
        2 -1    0    0  502    0 0.00000000E+00 0.00000000E+00 -.65446170E+02 0.65446952E+02 0.32000000E+00 0.0000E+00 0.9000E+01
       25  1    1    2    0    0 -.39516786E+03 0.26465193E+03 0.17603836E+04 0.18277784E+04 0.12500000E+03 0.0000E+00 0.9000E+01
        1  1    1    2  501    0 0.35436213E+03 -.22754505E+03 0.24824037E+04 0.25178716E+04 0.32000000E+00 0.0000E+00 0.9000E+01
        2  1    1    2  503    0 0.28628682E+02 -.26307787E+02 0.14002900E+02 0.41326562E+02 0.32000000E+00 0.0000E+00 0.9000E+01
       21  1    1    2  502  503 0.12177042E+02 -.10799095E+02 0.18743917E+03 0.18814597E+03 0.75000000E+00 0.0000E+00 0.9000E+01
#aMCatNLO 2  0  0  5  1 0.24314877D+02 0.00000000D+00  -5  6  0 0.00000000D+00 0.00000000D+00 0.00000000D+00 0.00000000D+00 0.00000000D+00
  <mgrwgt>
 0.2931831773D-01    3    2    0
 0.543270472199714D+03 0.000000000000000D+00 0.000000000000000D+00 0.543270472199714D+03
 0.543270472199714D+03 -.000000000000000D+00 -.000000000000000D+00 -.543270472199714D+03
 0.502669946419140D+03 -.401744529514890D+03 0.270622961010498D+03 -.491591396567477D+02
 0.445811339875403D+03 0.348528738511592D+03 -.222230017866163D+03 0.167000863327783D+03
 0.138059658104886D+03 0.532157910032973D+02 -.483929431443343D+02 -.117841723671035D+03
 0.000000000000000D+00 0.000000000000000D+00 0.000000000000000D+00 0.000000000000000D+00
 0.543270472199714D+03 0.000000000000000D+00 0.000000000000000D+00 0.543270472199714D+03
 0.543270472199714D+03 -.000000000000000D+00 -.000000000000000D+00 -.543270472199714D+03
 0.495842776702310D+03 -.395148950683802D+03 0.264625127184124D+03 -.637644732130102D+02
 0.448462597134337D+03 0.354435778163221D+03 -.227601713534370D+03 0.153920239677972D+03
 0.116529776987140D+03 0.284367900775463D+02 -.261356561190683D+02 -.109943009664025D+03
 0.257057935756424D+02 0.122763824430347D+02 -.108877575306861D+02 0.197872431990632D+02
-.749073445662D-04 0.000000000000D+00 0.000000000000D+00 0.537227454529D-07 0.000000000000D+00  6 1 2 25 1 2 21 2 0.69379630D+00 0.10068703D-01 0.23424564D+06 0.23424564D+06 0.23424564D+06 0.10925921D+01  1  2 13  4  6  5        2 -.245398022317D-04 0.100000000000D+01
-.159628678873D-01 0.000000000000D+00 0.000000000000D+00 0.537227454529D-07 0.000000000000D+00  6 1 2 25 1 2 21 2 0.69379630D+00 0.10068703D-01 0.24282217D+06 0.24282217D+06 0.24282217D+06 0.10914122D+01  1  2  8  4  6  5        2 -.520273181317D-02 0.100000000000D+01
0.105449845927D+00 0.000000000000D+00 0.000000000000D+00 0.537227454529D-07 0.177400520282D-07  6 1 2 25 1 2 21 2 0.69379630D+00 0.10068703D-01 0.23424564D+06 0.23424564D+06 0.23424564D+06 0.10925921D+01  1  2  1  4  6  5        2 0.345455893463D-01 0.100000000000D+01
  </mgrwgt>
  </event>
  <event>
  6     66 0.17698235E-05 0.20065925E+03 0.75467711E-02 0.93681554E-01
        1 -1    0    0  501    0 0.00000000E+00 0.00000000E+00 0.14778860E+04 0.14778861E+04 0.32000000E+00 0.0000E+00 0.9000E+01
        2 -1    0    0  502    0 -.00000000E+00 -.00000000E+00 -.27987295E+04 0.27987295E+04 0.32000000E+00 0.0000E+00 0.9000E+01
       25  1    1    2    0    0 -.13341978E+02 -.51510034E+03 -.17835170E+03 0.55941103E+03 0.12500000E+03 0.0000E+00 0.9000E+01
        1  1    1    2  501    0 -.12454739E+02 0.90530835E+00 0.12555773E+04 0.12556395E+04 0.32000000E+00 0.0000E+00 0.9000E+01
        2  1    1    2  503    0 -.76061444E+02 0.26748845E+03 -.14607114E+04 0.14869476E+04 0.32000000E+00 0.0000E+00 0.9000E+01
       21  1    1    2  502  503 0.10185816E+03 0.24670659E+03 -.93735773E+03 0.97461751E+03 0.75000000E+00 0.0000E+00 0.9000E+01
#aMCatNLO 2  0  0  5  1 0.10208121D+03 0.00000000D+00  -5  6  0 0.00000000D+00 0.00000000D+00 0.00000000D+00 0.00000000D+00 0.00000000D+00
  <mgrwgt>
 0.2909091504D-01    1    2    0
 0.203376582437609D+04 0.000000000000000D+00 0.000000000000000D+00 0.203376582437609D+04
 0.203376582437609D+04 -.000000000000000D+00 -.000000000000000D+00 -.203376582437609D+04
 0.530690623399950D+03 -.133654906560138D+02 -.515567743991593D+03 -.433621719589701D+01
 0.173280997361096D+04 -.125283615051453D+02 -.564896730402190D+00 0.173276459038592D+04
 0.180403105174127D+04 0.258938521611591D+02 0.516132640721995D+03 -.172842837319003D+04
 0.000000000000000D+00 0.000000000000000D+00 0.000000000000000D+00 0.000000000000000D+00
 0.203376582437609D+04 0.000000000000000D+00 0.000000000000000D+00 0.203376582437609D+04
 0.203376582437609D+04 -.000000000000000D+00 -.000000000000000D+00 -.203376582437609D+04
 0.530266623584504D+03 -.133428754737779D+02 -.515116963873782D+03 -.584579261163758D+01
 0.172788568854345D+04 -.124545939115077D+02 0.905485608499225D+00 0.172784056436339D+04
 0.108880844967474D+04 -.760746688488051D+02 0.267424498507686D+03 -.105271108213059D+04
 0.720570886949488D+03 0.101872138234091D+03 0.246786979757596D+03 -.669283689621158D+03
0.101813035451D+00 0.000000000000D+00 0.000000000000D+00 0.105062608069D-02 0.145581332444D-06  6 1 2 25 1 2 21 2 0.22736709D+00 0.43057378D+00 0.29579612D+06 0.29579612D+06 0.29579612D+06 0.10850056D+01  1  2  1  4  6  5        2 0.290909150353D-01 0.100000000000D+01
  </mgrwgt>
  </event>
  <event>
  5     66 0.17698235E-05 0.26102272E+03 0.75467711E-02 0.93482884E-01
        1 -1    0    0  501    0 0.00000000E+00 0.00000000E+00 0.16000519E+04 0.16000519E+04 0.32000000E+00 0.0000E+00 0.9000E+01
        2 -1    0    0  502    0 0.00000000E+00 0.00000000E+00 -.10003517E+04 0.10003517E+04 0.32000000E+00 0.0000E+00 0.9000E+01
       25  1    1    2    0    0 0.38847159E+03 0.36317917E+03 0.54553536E+03 0.77203828E+03 0.12500000E+03 0.0000E+00 0.9000E+01
        1  1    1    2  501    0 -.24017608E+03 -.10232498E+03 0.89673287E+03 0.93396193E+03 0.32000000E+00 0.0000E+00 0.9000E+01
        2  1    1    2  502    0 -.14829551E+03 -.26085420E+03 -.84256805E+03 0.89440343E+03 0.32000000E+00 0.0000E+00 0.9000E+01
#aMCatNLO 1  0  0  1  4 0.37307477D+02 0.00000000D+00  -5  6  0 0.00000000D+00 0.00000000D+00 0.00000000D+00 0.00000000D+00 0.00000000D+00
  <mgrwgt>
 0.5185321588D-02    7    2    0
 0.126515402133982D+04 0.000000000000000D+00 0.000000000000000D+00 0.126515402133982D+04
 0.126515402133982D+04 0.000000000000000D+00 0.000000000000000D+00 -.126515402133982D+04
 0.664210219742606D+03 0.388452767977852D+03 0.363194567921582D+03 0.377815257623512D+03
 0.747181949047828D+03 -.240137152982108D+03 -.102308390563291D+03 0.700105710561561D+03
 0.111891587388920D+04 -.148315614995745D+03 -.260886177358291D+03 -.107792096818507D+04
 0.000000000000000D+00 0.000000000000000D+00 0.000000000000000D+00 0.000000000000000D+00
 0.187902065789696D+04 0.000000000000000D+00 0.000000000000000D+00 0.187902065789696D+04
 0.162906255812897D+04 0.000000000000000D+00 0.000000000000000D+00 -.162906255812897D+04
 0.531062655696428D+03 0.226687573491757D+03 0.268832511811055D+03 0.377815257623512D+03
 0.867984993655460D+03 -.458729743831239D+03 -.229819419054802D+03 0.700105710561561D+03
 0.125861843801305D+04 -.470085068871258D+03 -.448583088042404D+03 -.107792096818507D+04
 0.850417128660999D+03 0.702127239210740D+03 0.409569995286151D+03 0.249958099767991D+03
0.277624738926D-02 0.000000000000D+00 0.000000000000D+00 0.361272344573D-05 0.000000000000D+00  6 1 2 25 1 2 21 0 0.24616183D+00 0.15390027D+00 0.30658894D+06 0.30658894D+06 0.30658894D+06 0.10838545D+01  1  2  2  1  6  1        1 0.581836355517D-02 0.100000000000D+01
0.242349799534D-03 0.000000000000D+00 -.106615209775D-04 0.361272344573D-05 0.000000000000D+00  6 1 2 25 1 2 21 2 0.24616183D+00 0.15390027D+00 0.30658894D+06 0.30658894D+06 0.30658894D+06 0.10838545D+01  1  2  3  1  6  1        1 0.596660548693D-03 0.100000000000D+01
-.158487334150D-02 0.000000000000D+00 0.000000000000D+00 0.361272344573D-05 0.000000000000D+00  6 1 2 25 1 2 21 2 0.24616183D+00 0.15390027D+00 0.30658894D+06 0.30658894D+06 0.30658894D+06 0.10838545D+01  1  2 15  1  6  1        1 -.390192770685D-02 0.100000000000D+01
-.425242206088D-04 0.000000000000D+00 0.000000000000D+00 0.361272344573D-05 0.000000000000D+00  6 1 2 25 1 2 21 2 0.24616183D+00 0.15390027D+00 0.30658894D+06 0.30658894D+06 0.30658894D+06 0.10838545D+01  1  2  4  1  6  1        1 -.104693813859D-03 0.100000000000D+01
-.316864600006D-03 0.000000000000D+00 -.165973918681D-02 0.361272344573D-05 0.000000000000D+00  6 1 2 25 1 2 21 2 0.40675990D+00 0.15390027D+00 0.30658894D+06 0.30658894D+06 0.30658894D+06 0.10838545D+01  1  2  5  1  6  1        1 -.153694124328D-03 0.100000000000D+01
0.118694461944D-02 0.000000000000D+00 0.147036648025D-02 0.361272344573D-05 0.000000000000D+00  6 1 2 25 1 2 21 2 0.24616183D+00 0.15390027D+00 0.30658894D+06 0.30658894D+06 0.30658894D+06 0.10838545D+01  1  2  6  1  6  1        1 0.292223484100D-02 0.100000000000D+01
0.573089606505D-04 0.000000000000D+00 -.939118816034D-04 0.361272344573D-05 0.000000000000D+00  6 21 2 25 1 2 -1 2 0.40675990D+00 0.15390027D+00 0.30658894D+06 0.30658894D+06 0.30658894D+06 0.10838545D+01  1  2  5  5  6  1        1 0.837828813790D-05 0.100000000000D+01
  </mgrwgt>
  </event>
  <event>
  5     66 0.17698235E-05 0.31197344E+02 0.75467711E-02 0.92002048E-01
        1 -1    0    0  501    0 0.00000000E+00 0.00000000E+00 0.35195423E+04 0.35195423E+04 0.32000000E+00 0.0000E+00 0.9000E+01
        2 -1    0    0  502    0 0.00000000E+00 0.00000000E+00 -.23440467E+03 0.23440489E+03 0.32000000E+00 0.0000E+00 0.9000E+01
       25  1    1    2    0    0 -.19324945E+03 0.46707820E+03 0.12263187E+04 0.13322875E+04 0.12500000E+03 0.0000E+00 0.9000E+01
        1  1    1    2  501    0 0.17087324E+03 -.44534598E+03 0.22132709E+04 0.22640890E+04 0.32000000E+00 0.0000E+00 0.9000E+01
        2  1    1    2  502    0 0.22376209E+02 -.21732216E+02 -.15445204E+03 0.15757068E+03 0.32000000E+00 0.0000E+00 0.9000E+01
#aMCatNLO 1  0  0  5  4 0.30619993D+03 0.00000000D+00  -5  6  0 0.00000000D+00 0.00000000D+00 0.00000000D+00 0.00000000D+00 0.00000000D+00
  <mgrwgt>
 0.1175711399D-01    6    2    0
 0.908293777161125D+03 0.000000000000000D+00 0.000000000000000D+00 0.908293777161125D+03
 0.908293777161125D+03 -.000000000000000D+00 -.000000000000000D+00 -.908293777161125D+03
 0.535450080068687D+03 -.193236526595868D+03 0.467039275209090D+03 0.124962988308124D+03
 0.676132760668066D+03 0.170857036117499D+03 -.445303758246589D+03 0.479236837220624D+03
 0.605004713585497D+03 0.223794904783694D+02 -.217355169625012D+02 -.604199825528749D+03
 0.000000000000000D+00 0.000000000000000D+00 0.000000000000000D+00 0.000000000000000D+00
 0.908293777161125D+03 0.000000000000000D+00 0.000000000000000D+00 0.908293777161125D+03
 0.908293777161125D+03 -.000000000000000D+00 -.000000000000000D+00 -.908293777161125D+03
 0.530673120024799D+03 -.192561805500062D+03 0.466383969323685D+03 0.106746918162986D+03
 0.660911082414980D+03 0.171703215702434D+03 -.446125588874925D+03 0.456391743491690D+03
 0.292421551794706D+03 -.108105494684818D+03 -.742326121102913D+02 -.261367720409881D+03
 0.332581800087765D+03 0.128964084482446D+03 0.539742316615319D+02 -.301770941244796D+03
0.149567641503D-01 0.000000000000D+00 0.000000000000D+00 0.132344595778D-04 0.000000000000D+00  6 1 2 25 1 2 21 0 0.54146807D+00 0.36062274D-01 0.26461659D+06 0.26461659D+06 0.26461659D+06 0.10886075D+01  1  2  2  4  6  5        2 0.748057120585D-02 0.100000000000D+01
0.894589406956D-02 0.000000000000D+00 -.574379125434D-04 0.132344595778D-04 0.000000000000D+00  6 1 2 25 1 2 21 2 0.54146807D+00 0.36062274D-01 0.26461659D+06 0.26461659D+06 0.26461659D+06 0.10886075D+01  1  2  3  4  6  5        2 0.530229045746D-02 0.100000000000D+01
-.923401002304D-02 0.000000000000D+00 0.000000000000D+00 0.132344595778D-04 0.000000000000D+00  6 1 2 25 1 2 21 2 0.54146807D+00 0.36062274D-01 0.26461659D+06 0.26461659D+06 0.26461659D+06 0.10886075D+01  1  2 15  4  6  5        2 -.547305868464D-02 0.100000000000D+01
-.586538318996D-03 0.000000000000D+00 0.000000000000D+00 0.132344595778D-04 0.000000000000D+00  6 1 2 25 1 2 21 2 0.54146807D+00 0.36062274D-01 0.26461659D+06 0.26461659D+06 0.26461659D+06 0.10886075D+01  1  2  4  4  6  5        2 -.347645132791D-03 0.100000000000D+01
-.122047664070D-01 0.000000000000D+00 0.000000000000D+00 0.132344595778D-04 0.000000000000D+00  6 1 2 25 1 2 21 2 0.54146807D+00 0.36062274D-01 0.26461659D+06 0.26461659D+06 0.26461659D+06 0.10886075D+01  1  2  5  4  6  5        2 -.723384560025D-02 0.100000000000D+01
0.202946984916D-01 0.000000000000D+00 -.000000000000D+00 0.132344595778D-04 0.000000000000D+00  6 1 2 25 1 2 21 2 0.54146807D+00 0.36062274D-01 0.26461659D+06 0.26461659D+06 0.26461659D+06 0.10886075D+01  1  2  6  4  6  5        2 0.120288017399D-01 0.100000000000D+01
  </mgrwgt>
  </event>
  <event>
  5     66 0.17698235E-05 0.11638701E+02 0.75467711E-02 0.91825969E-01
        1 -1    0    0  501    0 0.00000000E+00 0.00000000E+00 0.19890268E+04 0.19890268E+04 0.32000000E+00 0.0000E+00 0.9000E+01
        2 -1    0    0  502    0 0.00000000E+00 0.00000000E+00 -.90495845E+03 0.90495851E+03 0.32000000E+00 0.0000E+00 0.9000E+01
       25  1    1    2    0    0 0.48384578E+03 -.40280345E+03 0.57144827E+03 0.85938087E+03 0.12500000E+03 0.0000E+00 0.9000E+01
        1  1    1    2  501    0 -.97259942E+01 0.63959807E+01 0.11481073E+04 0.11481663E+04 0.32000000E+00 0.0000E+00 0.9000E+01
        2  1    1    2  502    0 -.47411979E+03 0.39640747E+03 -.63548720E+03 0.88643812E+03 0.32000000E+00 0.0000E+00 0.9000E+01
#aMCatNLO 1  0  0  1  5 0.35495034D+02 0.00000000D+00  -5  6  0 0.00000000D+00 0.00000000D+00 0.00000000D+00 0.00000000D+00 0.00000000D+00
  <mgrwgt>
 0.1321756561D-01    7    2    0
 0.134163583227851D+04 0.000000000000000D+00 0.000000000000000D+00 0.134163583227851D+04
 0.134163583227851D+04 0.000000000000000D+00 0.000000000000000D+00 -.134163583227851D+04
 0.696100397043841D+03 0.483897927494078D+03 -.402847257564498D+03 0.269235297842414D+03
 0.774357256218960D+03 -.972440923545269D+01 0.639493834923703D+01 0.774269785596395D+03
 0.121281401129421D+04 -.474173518258625D+03 0.396452319215261D+03 -.104350508343881D+04
 0.000000000000000D+00 0.000000000000000D+00 -.000000000000000D+00 0.000000000000000D+00
 0.168955898730855D+04 0.000000000000000D+00 0.000000000000000D+00 0.168955898730855D+04
 0.134176516605424D+04 0.000000000000000D+00 0.000000000000000D+00 -.134176516605424D+04
 0.693375511072135D+03 0.482387433710660D+03 -.399949143702415D+03 0.269235297842414D+03
 0.774413643642255D+03 -.114080719765728D+02 0.962530340116757D+01 0.774269785596395D+03
 0.121551219866046D+04 -.476813342110786D+03 0.401517225925496D+03 -.104350508343881D+04
 0.348022799987935D+03 0.583398037669867D+01 -.111933856242482D+02 0.347793821254307D+03
0.155597516090D-04 0.000000000000D+00 0.000000000000D+00 0.598959329842D-04 0.000000000000D+00  6 1 2 25 1 2 21 0 0.30600413D+00 0.13922438D+00 0.40426556D+06 0.40426556D+06 0.40426556D+06 0.10750957D+01  1  2  2  1  6  1        1 0.202693039034D-04 0.100000000000D+01
0.175214691873D-04 0.000000000000D+00 -.597535431553D-07 0.598959329842D-04 0.000000000000D+00  6 1 2 25 1 2 21 2 0.30600413D+00 0.13922438D+00 0.40426556D+06 0.40426556D+06 0.40426556D+06 0.10750957D+01  1  2  3  1  6  1        1 0.263815878040D-04 0.100000000000D+01
-.872132768950D-05 0.000000000000D+00 0.000000000000D+00 0.598959329842D-04 0.000000000000D+00  6 1 2 25 1 2 21 2 0.30600413D+00 0.13922438D+00 0.40426556D+06 0.40426556D+06 0.40426556D+06 0.10750957D+01  1  2 15  1  6  1        1 -.131314600248D-04 0.100000000000D+01
-.686245250729D-03 0.000000000000D+00 0.000000000000D+00 0.598959329842D-04 0.000000000000D+00  6 1 2 25 1 2 21 2 0.30600413D+00 0.13922438D+00 0.40426556D+06 0.40426556D+06 0.40426556D+06 0.10750957D+01  1  2  4  1  6  1        1 -.103326034727D-02 0.100000000000D+01
-.180365872527D-01 0.000000000000D+00 -.149328854070D-04 0.598959329842D-04 0.000000000000D+00  6 1 2 25 1 2 21 2 0.38536954D+00 0.13922438D+00 0.40426556D+06 0.40426556D+06 0.40426556D+06 0.10750957D+01  1  2  5  1  6  1        1 -.121106624533D-01 0.100000000000D+01
0.175711437054D-01 0.000000000000D+00 0.145444444149D-04 0.598959329842D-04 0.000000000000D+00  6 1 2 25 1 2 21 2 0.30600413D+00 0.13922438D+00 0.40426556D+06 0.40426556D+06 0.40426556D+06 0.10750957D+01  1  2  6  1  6  1        1 0.264563813414D-01 0.100000000000D+01
-.574673097209D-03 0.000000000000D+00 -.475965711278D-06 0.598959329842D-04 0.000000000000D+00  6 21 2 25 1 2 -1 2 0.38536954D+00 0.13922438D+00 0.40426556D+06 0.40426556D+06 0.40426556D+06 0.10750957D+01  1  2  5  5  6  1        1 -.128412365647D-03 0.100000000000D+01
  </mgrwgt>
  </event>
  <event>
  6     66 0.17698235E-05 0.33302844E+02 0.75467711E-02 0.93821354E-01
        1 -1    0    0  501    0 0.00000000E+00 0.00000000E+00 0.15882673E+04 0.15882673E+04 0.32000000E+00 0.0000E+00 0.9000E+01
        2 -1    0    0  502    0 0.00000000E+00 0.00000000E+00 -.46236170E+03 0.46236181E+03 0.32000000E+00 0.0000E+00 0.9000E+01
       25  1    1    2    0    0 -.32584281E+03 0.41069635E+03 0.14286613E+03 0.55756682E+03 0.12500000E+03 0.0000E+00 0.9000E+01
        1  1    1    2  501    0 -.93003401E+00 -.40717858E+02 0.99634530E+03 0.99717746E+03 0.32000000E+00 0.0000E+00 0.9000E+01
        2  1    1    2  503    0 0.30156203E+03 -.32929577E+03 -.12224885E+01 0.44651647E+03 0.32000000E+00 0.0000E+00 0.9000E+01
       21  1    1    2  502  503 0.25210817E+02 -.40682721E+02 -.12083345E+02 0.49368399E+02 0.75000000E+00 0.0000E+00 0.9000E+01
#aMCatNLO 2  0  0  5  2 0.14212521D+02 0.00000000D+00  -5  6  0 0.00000000D+00 0.00000000D+00 0.00000000D+00 0.00000000D+00 0.00000000D+00
  <mgrwgt>
 0.3062178858D-01    6    2    0
 0.856944638954858D+03 0.000000000000000D+00 0.000000000000000D+00 0.856944638954858D+03
 0.856944638954858D+03 -.000000000000000D+00 -.000000000000000D+00 -.856944638954858D+03
 0.573615800202253D+03 -.326191325339759D+03 0.411089668556307D+03 -.194973305662667D+03
 0.538783627985607D+03 -.122300467308544D+01 -.403808703543101D+02 0.537266867910474D+03
 0.601489849721857D+03 0.327414330012845D+03 -.370708798201997D+03 -.342293562247807D+03
 0.000000000000000D+00 0.000000000000000D+00 0.000000000000000D+00 -.000000000000000D+00
 0.856944638954858D+03 0.000000000000000D+00 0.000000000000000D+00 0.856944638954858D+03
 0.856944638954858D+03 -.000000000000000D+00 -.000000000000000D+00 -.856944638954858D+03
 0.573295911095640D+03 -.325878965700907D+03 0.410736005152749D+03 -.195299860378464D+03
 0.538502188426081D+03 -.929607539512986D+00 -.407130638132167D+02 0.536960137444523D+03
 0.535117123932894D+03 0.301626409136054D+03 -.329356704540054D+03 -.294781286401322D+03
 0.669740544551023D+02 0.251821641043655D+02 -.406662367994789D+02 -.468789906647372D+02
-.118115335803D-01 0.000000000000D+00 0.000000000000D+00 0.445622186457D-05 0.000000000000D+00  6 1 2 25 1 2 21 2 0.24434883D+00 0.71132580D-01 0.28845675D+06 0.28845675D+06 0.28845675D+06 0.10858149D+01  1  2 13  4  6  5        2 -.773569118919D-01 0.100000000000D+01
-.108429666189D-06 0.000000000000D+00 0.000000000000D+00 0.445622186457D-05 0.000000000000D+00  6 1 2 25 1 2 21 2 0.24434883D+00 0.71132580D-01 0.28845675D+06 0.28845675D+06 0.28845675D+06 0.10858149D+01  1  2 13  4  6  5        2 -.710135062212D-06 0.100000000000D+01
-.153143969025D-02 0.000000000000D+00 0.000000000000D+00 0.445622186457D-05 0.000000000000D+00  6 1 2 25 1 2 21 2 0.24434883D+00 0.71132580D-01 0.28861526D+06 0.28861526D+06 0.28861526D+06 0.10857971D+01  1  2  8  4  6  5        2 -.100292099053D-01 0.100000000000D+01
-.799587372773D-03 0.000000000000D+00 0.000000000000D+00 0.445622186457D-05 0.000000000000D+00  6 1 2 25 1 2 21 2 0.24434883D+00 0.71132580D-01 0.28861526D+06 0.28861526D+06 0.28861526D+06 0.10857971D+01  1  2  9  4  6  5        2 -.523639921979D-02 0.100000000000D+01
0.893541341441D-03 0.000000000000D+00 0.000000000000D+00 0.445622186457D-05 0.000000000000D+00  6 1 2 25 1 2 21 2 0.24434883D+00 0.71132580D-01 0.28861526D+06 0.28861526D+06 0.28861526D+06 0.10857971D+01  1  2 10  4  6  5        2 0.585169218837D-02 0.100000000000D+01
0.179246456008D-01 0.000000000000D+00 0.000000000000D+00 0.445622186457D-05 0.155190115052D-06  6 1 2 25 1 2 21 2 0.24434883D+00 0.71132580D-01 0.28845675D+06 0.28845675D+06 0.28845675D+06 0.10858149D+01  1  2  1  4  6  5        2 0.117393327547D+00 0.100000000000D+01
  </mgrwgt>
  </event>
  <event>
  5     66 0.17698235E-05 0.52353387E+02 0.75467711E-02 0.88571282E-01
        1 -1    0    0  501    0 0.00000000E+00 0.00000000E+00 0.99934411E+03 0.99934416E+03 0.32000000E+00 0.0000E+00 0.9000E+01
        2 -1    0    0  502    0 -.00000000E+00 -.00000000E+00 -.41465063E+04 0.41465063E+04 0.32000000E+00 0.0000E+00 0.9000E+01
       25  1    1    2    0    0 -.18863355E+03 -.51675094E+03 -.13857652E+04 0.14961900E+04 0.12500000E+03 0.0000E+00 0.9000E+01
        1  1    1    2  501    0 0.13679085E+03 0.50946273E+03 0.87016855E+03 0.10175743E+04 0.32000000E+00 0.0000E+00 0.9000E+01
        2  1    1    2  502    0 0.51842707E+02 0.72882114E+01 -.26315655E+04 0.26320862E+04 0.32000000E+00 0.0000E+00 0.9000E+01
#aMCatNLO 1  0  0  5  2 0.27943969D+02 0.00000000D+00  -5  6  0 0.00000000D+00 0.00000000D+00 0.00000000D+00 0.00000000D+00 0.00000000D+00
  <mgrwgt>
 0.1709698389D-01    6    2    0
 0.203562934613371D+04 0.000000000000000D+00 0.000000000000000D+00 0.203562934613371D+04
 0.203562934613371D+04 -.000000000000000D+00 -.000000000000000D+00 -.203562934613371D+04
 0.819867343576156D+03 -.188634253465991D+03 -.516750587385900D+03 -.594931432955327D+03
 0.195881368042317D+04 0.136790685244424D+03 0.509462135276299D+03 0.188644842912893D+04
 0.129257766826810D+04 0.518435682215635D+02 0.728845210960065D+01 -.129151699617361D+04
 0.000000000000000D+00 0.000000000000000D+00 0.000000000000000D+00 -.000000000000000D+00
 0.203562934613371D+04 0.000000000000000D+00 0.000000000000000D+00 0.203562934613371D+04
 0.203562934613371D+04 -.000000000000000D+00 -.000000000000000D+00 -.203562934613371D+04
 0.848097396760384D+03 -.187069481860200D+03 -.516530603243170D+03 -.633912722116810D+03
 0.187312634589602D+04 0.140385551972282D+03 0.509967521284345D+03 0.179689380090264D+04
 0.802454552649718D+03 0.292204553970347D+03 0.209253689881802D+03 -.717469651607718D+03
 0.547580396961295D+03 -.245520624082431D+03 -.202690607922978D+03 -.445511427178111D+03
0.245469214170D+00 0.000000000000D+00 0.000000000000D+00 0.419718724511D-03 0.000000000000D+00  6 1 2 25 1 2 21 0 0.15374525D+00 0.63792405D+00 0.32717652D+06 0.32717652D+06 0.32717652D+06 0.10817765D+01  1  2  2  4  6  5        2 0.139631143353D-01 0.100000000000D+01
0.105598873086D+00 0.000000000000D+00 -.942666415943D-03 0.419718724511D-03 0.000000000000D+00  6 1 2 25 1 2 21 2 0.15374525D+00 0.63792405D+00 0.32717652D+06 0.32717652D+06 0.32717652D+06 0.10817765D+01  1  2  3  4  6  5        2 0.702942222034D-02 0.100000000000D+01
-.158142950448D+00 0.000000000000D+00 0.000000000000D+00 0.419718724511D-03 0.000000000000D+00  6 1 2 25 1 2 21 2 0.15374525D+00 0.63792405D+00 0.32717652D+06 0.32717652D+06 0.32717652D+06 0.10817765D+01  1  2 15  4  6  5        2 -.105271347827D-01 0.100000000000D+01
-.164095657856D-02 0.000000000000D+00 0.000000000000D+00 0.419718724511D-03 0.000000000000D+00  6 1 2 25 1 2 21 2 0.15374525D+00 0.63792405D+00 0.32717652D+06 0.32717652D+06 0.32717652D+06 0.10817765D+01  1  2  4  4  6  5        2 -.109233898989D-03 0.100000000000D+01
-.202009820396D+00 0.000000000000D+00 0.000000000000D+00 0.419718724511D-03 0.000000000000D+00  6 1 2 25 1 2 21 2 0.15374525D+00 0.63792405D+00 0.32717652D+06 0.32717652D+06 0.32717652D+06 0.10817765D+01  1  2  5  4  6  5        2 -.134472298683D-01 0.100000000000D+01
0.303273132271D+00 0.000000000000D+00 -.000000000000D+00 0.419718724511D-03 0.000000000000D+00  6 1 2 25 1 2 21 2 0.15374525D+00 0.63792405D+00 0.32717652D+06 0.32717652D+06 0.32717652D+06 0.10817765D+01  1  2  6  4  6  5        2 0.201880458809D-01 0.100000000000D+01
  </mgrwgt>
  </event>
  <event>
  6     66 0.17698235E-05 0.86073204E+02 0.75467711E-02 0.92870990E-01
        1 -1    0    0  501    0 0.00000000E+00 0.00000000E+00 0.39406357E+03 0.39406370E+03 0.32000000E+00 0.0000E+00 0.9000E+01
        2 -1    0    0  502    0 -.00000000E+00 -.00000000E+00 -.24908812E+04 0.24908812E+04 0.32000000E+00 0.0000E+00 0.9000E+01
       25  1    1    2    0    0 -.30096619E+03 0.42881207E+03 -.16515710E+03 0.56334918E+03 0.12500000E+03 0.0000E+00 0.9000E+01
        1  1    1    2  501    0 0.23391617E+03 -.48807556E+03 -.18418726E+03 0.57171634E+03 0.32000000E+00 0.0000E+00 0.9000E+01
        2  1    1    2  503    0 0.57866858E+02 0.57782853E+02 -.14965446E+04 0.14987772E+04 0.32000000E+00 0.0000E+00 0.9000E+01
       21  1    1    2  502  503 0.91831606E+01 0.14806376E+01 -.25092870E+03 0.25110217E+03 0.75000000E+00 0.0000E+00 0.9000E+01
#aMCatNLO 2  0  0  5  2 0.70439729D+01 0.00000000D+00  -5  6  0 0.00000000D+00 0.00000000D+00 0.00000000D+00 0.00000000D+00 0.00000000D+00
  <mgrwgt>
 0.5013142312D-01    3    2    0
 0.990740007438995D+03 0.000000000000000D+00 0.000000000000000D+00 0.990740007438995D+03
 0.990740007438995D+03 -.000000000000000D+00 -.000000000000000D+00 -.990740007438995D+03
 0.645498388709658D+03 -.300957083300558D+03 0.428745848366524D+03 0.355872169952155D+03
 0.637466931465508D+03 0.233881716055352D+03 -.488030345266892D+03 0.336882492429825D+03
 0.698514694702825D+03 0.670753672452057D+02 0.592844969003685D+02 -.692754662381981D+03
 0.000000000000000D+00 0.000000000000000D+00 0.000000000000000D+00 -.000000000000000D+00
 0.990740007438995D+03 0.000000000000000D+00 0.000000000000000D+00 0.990740007438995D+03
 0.990740007438995D+03 -.000000000000000D+00 -.000000000000000D+00 -.990740007438995D+03
 0.645447688556208D+03 -.300947985194290D+03 0.428753889718737D+03 0.355778204674067D+03
 0.637415113084771D+03 0.233890700948312D+03 -.488022403978150D+03 0.336789696419244D+03
 0.599025036305251D+03 0.579195042884168D+02 0.578405623948891D+02 -.593406095760175D+03
 0.995921769317604D+02 0.913777995756142D+01 0.142795186452373D+01 -.991618053331365D+02
-.205427193562D-01 0.000000000000D+00 0.000000000000D+00 0.142297083368D-05 0.000000000000D+00  6 1 2 25 1 2 21 2 0.60625176D-01 0.38321251D+00 0.34270373D+06 0.34270373D+06 0.34270373D+06 0.10803015D+01  1  2 13  4  6  5        2 -.776357072812D-01 0.100000000000D+01
-.393139968039D-06 0.000000000000D+00 0.000000000000D+00 0.142297083368D-05 0.000000000000D+00  6 1 2 25 1 2 21 2 0.60625176D-01 0.38321251D+00 0.34270373D+06 0.34270373D+06 0.34270373D+06 0.10803015D+01  1  2 13  4  6  5        2 -.148576724191D-05 0.100000000000D+01
0.338080880097D-01 0.000000000000D+00 0.000000000000D+00 0.142297083368D-05 0.253437197590D-06  6 1 2 25 1 2 21 2 0.60625176D-01 0.38321251D+00 0.34270373D+06 0.34270373D+06 0.34270373D+06 0.10803015D+01  1  2  1  4  6  5        2 0.127768616167D+00 0.100000000000D+01
  </mgrwgt>
  </event>
  <event>
  6     66 0.17698235E-05 0.16106470E+03 0.75467711E-02 0.91330546E-01
        1 -1    0    0  501    0 0.00000000E+00 0.00000000E+00 0.15898308E+04 0.15898308E+04 0.32000000E+00 0.0000E+00 0.9000E+01
        2 -1    0    0  502    0 0.00000000E+00 0.00000000E+00 -.12819207E+04 0.12819207E+04 0.32000000E+00 0.0000E+00 0.9000E+01
       25  1    1    2    0    0 0.27463557E+03 0.48705418E+03 -.22396295E+02 0.57338736E+03 0.12500000E+03 0.0000E+00 0.9000E+01
        1  1    1    2  503    0 0.14802702E+03 -.16365226E+03 0.12211349E+04 0.12409128E+04 0.32000000E+00 0.0000E+00 0.9000E+01
        2  1    1    2  502    0 -.28356099E+03 -.30644432E+03 -.75238621E+03 0.86046503E+03 0.32000000E+00 0.0000E+00 0.9000E+01
       21  1    1    2  501  503 -.13910161E+03 -.16957599E+02 -.13844223E+03 0.19698637E+03 0.75000000E+00 0.0000E+00 0.9000E+01
#aMCatNLO 2  0  0  4  1 0.14551088D+03 0.00000000D+00  -5  6  0 0.00000000D+00 0.00000000D+00 0.00000000D+00 0.00000000D+00 0.00000000D+00
  <mgrwgt>
 0.2914914033D-03    1    2    0
 0.142759836097691D+04 0.000000000000000D+00 0.000000000000000D+00 0.142759836097691D+04
 0.142759836097691D+04 -.000000000000000D+00 -.000000000000000D+00 -.142759836097691D+04
 0.609658963214189D+03 0.273946646617868D+03 0.503146842198487D+03 -.166899794547252D+03
 0.117823965936293D+04 0.110552139454186D+02 -.223707397693246D+03 0.115675471788863D+04
 0.106729809937669D+04 -.285001860563287D+03 -.279439444505241D+03 -.989854923341381D+03
 0.000000000000000D+00 0.000000000000000D+00 0.000000000000000D+00 -.000000000000000D+00
 0.142759836097691D+04 0.000000000000000D+00 0.000000000000000D+00 0.142759836097691D+04
 0.142759836097691D+04 -.000000000000000D+00 -.000000000000000D+00 -.142759836097691D+04
 0.579204843363985D+03 0.274737973429696D+03 0.487133975991381D+03 -.840998571156382D+02
 0.111621103806800D+04 0.148045173413264D+03 -.163605272416998D+03 0.109418600931068D+04
 0.946702224580300D+03 -.283661309655303D+03 -.306566115828019D+03 -.849587299843900D+03
 0.213078615941528D+03 -.139121837187658D+03 -.169625877463643D+02 -.160498852351146D+03
0.180135697086D-03 0.000000000000D+00 0.000000000000D+00 0.561616822842D-05 0.567460674889D-09  6 1 2 25 1 2 21 2 0.24458936D+00 0.19721857D+00 0.45665930D+06 0.45665930D+06 0.45665930D+06 0.10713046D+01  1  2  1  3  6  4        1 0.291491403276D-03 0.100000000000D+01
  </mgrwgt>
  </event>
  <event>
  5     66 -.17698235E-05 0.69152601E+02 0.75467711E-02 0.93600639E-01
        1 -1    0    0  501    0 0.00000000E+00 0.00000000E+00 0.55150499E+03 0.55150508E+03 0.32000000E+00 0.0000E+00 0.9000E+01
        2 -1    0    0  502    0 0.00000000E+00 0.00000000E+00 -.79057182E+03 0.79057188E+03 0.32000000E+00 0.0000E+00 0.9000E+01
       25  1    1    2    0    0 0.16736060E+03 -.42731905E+03 -.14679094E+03 0.49777879E+03 0.12500000E+03 0.0000E+00 0.9000E+01
        1  1    1    2  501    0 0.35193156E+02 0.59560096E+02 0.27678413E+03 0.28529900E+03 0.32000000E+00 0.0000E+00 0.9000E+01
        2  1    1    2  502    0 -.20255376E+03 0.36775896E+03 -.36906002E+03 0.55899918E+03 0.32000000E+00 0.0000E+00 0.9000E+01
#aMCatNLO 1  0  0  2  4 0.13959161D+03 0.00000000D+00  -5  6  0 0.00000000D+00 0.00000000D+00 0.00000000D+00 0.00000000D+00 0.00000000D+00
  <mgrwgt>
 -.1558447973D-01    5    2    0
 0.660306297881007D+03 0.000000000000000D+00 0.000000000000000D+00 0.660306297881007D+03
 0.660306297881007D+03 0.000000000000000D+00 0.000000000000000D+00 -.660306297881007D+03
 0.479364538887004D+03 0.167412503078572D+03 -.427390154673181D+03 -.589582109951753D+02
 0.339903470559679D+03 0.351788838828863D+02 0.595359414105467D+02 0.332794662078028D+03
 0.501344586315331D+03 -.202591386961459D+03 0.367854213262634D+03 -.273836451082853D+03
 0.000000000000000D+00 0.000000000000000D+00 0.000000000000000D+00 -.000000000000000D+00
 0.670204711450972D+03 0.000000000000000D+00 0.000000000000000D+00 0.670204711450972D+03
 0.144719253100587D+04 0.000000000000000D+00 0.000000000000000D+00 -.144719253100587D+04
 0.480707500448622D+03 0.119810849870145D+03 -.444549199298799D+03 -.589582109951753D+02
 0.336164849410720D+03 0.165851416697932D+01 0.474527997325882D+02 0.332794662078028D+03
 0.511097321100281D+03 -.252789608132265D+03 0.349759179600147D+03 -.273836451082853D+03
 0.789427571497217D+03 0.131320244095140D+03 0.473372199660637D+02 -.776987819554896D+03
0.172405536599D-03 0.000000000000D+00 0.000000000000D+00 0.108086116756D-05 0.000000000000D+00  6 1 2 25 1 2 21 0 0.84846933D-01 0.12162645D+00 0.23272423D+06 0.23272423D+06 0.23272423D+06 0.10928064D+01  1  2  2  2  6  2        2 0.336188285924D-02 0.100000000000D+01
0.402392046662D-04 0.000000000000D+00 -.662082655960D-06 0.108086116756D-05 0.000000000000D+00  6 1 2 25 1 2 21 2 0.84846933D-01 0.12162645D+00 0.23272423D+06 0.23272423D+06 0.23272423D+06 0.10928064D+01  1  2  3  2  6  2        2 0.937059552905D-03 0.100000000000D+01
-.957586756990D-04 0.000000000000D+00 0.000000000000D+00 0.108086116756D-05 0.000000000000D+00  6 1 2 25 1 2 21 2 0.84846933D-01 0.12162645D+00 0.23272423D+06 0.23272423D+06 0.23272423D+06 0.10928064D+01  1  2 15  2  6  2        2 -.222995415992D-02 0.100000000000D+01
-.265793572293D-02 0.000000000000D+00 -.932155919553D-04 0.108086116756D-05 0.000000000000D+00  6 1 2 25 1 2 21 2 0.84846933D-01 0.26755099D+00 0.23272423D+06 0.23272423D+06 0.23272423D+06 0.10928064D+01  1  2  5  2  6  2        2 -.172685639890D-01 0.100000000000D+01
-.221247059255D-03 0.000000000000D+00 -.796519205307D-05 0.108086116756D-05 0.000000000000D+00  6 1 21 25 1 2 -2 2 0.84846933D-01 0.26755099D+00 0.23272423D+06 0.23272423D+06 0.23272423D+06 0.10928064D+01  1  2  5  6  6  2        2 -.384903994685D-03 0.100000000000D+01
  </mgrwgt>
  </event>
  <event>
  5     66 -.17698235E-05 0.91173951E+02 0.75467711E-02 0.95157259E-01
        1 -1    0    0  501    0 0.00000000E+00 0.00000000E+00 0.46048667E+03 0.46048678E+03 0.32000000E+00 0.0000E+00 0.9000E+01
        2 -1    0    0  502    0 -.00000000E+00 -.00000000E+00 -.89165149E+03 0.89165155E+03 0.32000000E+00 0.0000E+00 0.9000E+01
       25  1    1    2    0    0 0.46924042E+03 -.75981698E+02 -.47639151E+03 0.68449518E+03 0.12500000E+03 0.0000E+00 0.9000E+01
        1  1    1    2  501    0 -.61191026E+02 0.67648128E+02 0.20887328E+03 0.22792271E+03 0.32000000E+00 0.0000E+00 0.9000E+01
        2  1    1    2  502    0 -.40804939E+03 0.83335703E+01 -.16364659E+03 0.43972044E+03 0.32000000E+00 0.0000E+00 0.9000E+01
#aMCatNLO 1  0  0  5  1 0.68309379D+02 0.00000000D+00  -5  6  0 0.00000000D+00 0.00000000D+00 0.00000000D+00 0.00000000D+00 0.00000000D+00
  <mgrwgt>
 -.3558664957D-01    6    2    0
 0.640775887812456D+03 0.000000000000000D+00 0.000000000000000D+00 0.640775887812456D+03
 0.640775887812456D+03 -.000000000000000D+00 -.000000000000000D+00 -.640775887812456D+03
 0.561951028847150D+03 0.469330762316156D+03 -.759784564852549D+02 -.272249643739390D+03
 0.310601582089598D+03 -.611618911339606D+02 0.676159184600001D+02 0.296918597329789D+03
 0.408999164688165D+03 -.408168871182195D+03 0.836253802525486D+01 -.246689535903984D+02
 0.000000000000000D+00 0.000000000000000D+00 0.000000000000000D+00 -.000000000000000D+00
 0.640775887812456D+03 0.000000000000000D+00 0.000000000000000D+00 0.640775887812456D+03
 0.640775887812456D+03 -.000000000000000D+00 -.000000000000000D+00 -.640775887812456D+03
 0.545594066751931D+03 0.448938763857585D+03 -.755606665101722D+02 -.273482097508177D+03
 0.312456071759267D+03 -.726335601137365D+02 0.678509492887320D+02 0.296225271381519D+03
 0.270934628434143D+03 -.260313751314676D+03 -.274557787909173D+02 0.699178372964491D+02
 0.152567008679571D+03 -.115991452429173D+03 0.351654960123576D+02 -.926610111697911D+02
0.792890097951D-03 0.000000000000D+00 0.000000000000D+00 0.802681784709D-07 0.000000000000D+00  6 1 2 25 1 2 21 0 0.70844116D-01 0.13717716D+00 0.24553362D+06 0.24553362D+06 0.24553362D+06 0.10910486D+01  1  2  2  4  6  5        2 0.169784658346D-01 0.100000000000D+01
0.113231216823D-03 0.000000000000D+00 -.304490674889D-05 0.802681784709D-07 0.000000000000D+00  6 1 2 25 1 2 21 2 0.70844116D-01 0.13717716D+00 0.24553362D+06 0.24553362D+06 0.24553362D+06 0.10910486D+01  1  2  3  4  6  5        2 0.288628887896D-02 0.100000000000D+01
-.503615792403D-03 0.000000000000D+00 0.000000000000D+00 0.802681784709D-07 0.000000000000D+00  6 1 2 25 1 2 21 2 0.70844116D-01 0.13717716D+00 0.24553362D+06 0.24553362D+06 0.24553362D+06 0.10910486D+01  1  2 15  4  6  5        2 -.128372784614D-01 0.100000000000D+01
-.207149260237D-02 0.000000000000D+00 0.000000000000D+00 0.802681784709D-07 0.000000000000D+00  6 1 2 25 1 2 21 2 0.70844116D-01 0.13717716D+00 0.24553362D+06 0.24553362D+06 0.24553362D+06 0.10910486D+01  1  2  4  4  6  5        2 -.528028067596D-01 0.100000000000D+01
-.917501498037D-03 0.000000000000D+00 0.000000000000D+00 0.802681784709D-07 0.000000000000D+00  6 1 2 25 1 2 21 2 0.70844116D-01 0.13717716D+00 0.24553362D+06 0.24553362D+06 0.24553362D+06 0.10910486D+01  1  2  5  4  6  5        2 -.233873170713D-01 0.100000000000D+01
0.131721087894D-02 0.000000000000D+00 -.000000000000D+00 0.802681784709D-07 0.000000000000D+00  6 1 2 25 1 2 21 2 0.70844116D-01 0.13717716D+00 0.24553362D+06 0.24553362D+06 0.24553362D+06 0.10910486D+01  1  2  6  4  6  5        2 0.335759980134D-01 0.100000000000D+01
  </mgrwgt>
  </event>
  <event>
  5     66 0.17698235E-05 0.26206990E+03 0.75467711E-02 0.84589941E-01
        1 -1    0    0  501    0 0.00000000E+00 0.00000000E+00 0.23238866E+04 0.23238867E+04 0.32000000E+00 0.0000E+00 0.9000E+01
        2 -1    0    0  502    0 -.00000000E+00 -.00000000E+00 -.24761669E+04 0.24761669E+04 0.32000000E+00 0.0000E+00 0.9000E+01
       25  1    1    2    0    0 -.76668914E+02 -.55650865E+03 0.17392703E+02 0.57576689E+03 0.12500000E+03 0.0000E+00 0.9000E+01
        1  1    1    2  501    0 0.13981823E+03 0.22166132E+03 0.20055173E+04 0.20225684E+04 0.32000000E+00 0.0000E+00 0.9000E+01
        2  1    1    2  502    0 -.63149316E+02 0.33484734E+03 -.21751903E+04 0.22017183E+04 0.32000000E+00 0.0000E+00 0.9000E+01
#aMCatNLO 1  0  0  4  1 0.22456835D+01 0.00000000D+00  -5  6  0 0.00000000D+00 0.00000000D+00 0.00000000D+00 0.00000000D+00 0.00000000D+00
  <mgrwgt>
 0.1228233614D-02    4    2    0
 0.239881871343098D+04 0.000000000000000D+00 0.000000000000000D+00 0.239881871343098D+04
 0.239881871343098D+04 -.000000000000000D+00 -.000000000000000D+00 -.239881871343098D+04
 0.576626198139758D+03 -.766635649811617D+02 -.556524244382055D+03 0.357244398202994D+02
 0.208720930122509D+04 0.139815946004558D+03 0.221657694709155D+03 0.207069119733957D+04
 0.213380192749711D+04 -.631523810233966D+02 0.334866549672899D+03 -.210641563715987D+04
 0.000000000000000D+00 0.000000000000000D+00 -.000000000000000D+00 0.000000000000000D+00
 0.239881871343098D+04 0.000000000000000D+00 0.000000000000000D+00 0.239881871343098D+04
 0.239881871343098D+04 -.000000000000000D+00 -.000000000000000D+00 -.239881871343098D+04
 0.580761399591667D+03 -.697149794499741D+02 -.545508280220984D+03 0.138633838244156D+03
 0.151098096959540D+04 0.281051998294045D+03 0.935451486663029D+03 0.115282426277135D+04
 0.179640280094045D+04 -.395566869238959D+02 0.372274065114573D+03 -.175696053233684D+04
 0.909492256734438D+03 -.171780331920175D+03 -.762217271556619D+03 0.465502431321339D+03
0.271018206702D-01 0.000000000000D+00 0.000000000000D+00 0.100809132918D-03 0.000000000000D+00  6 1 2 25 1 2 21 0 0.35752102D+00 0.38094876D+00 0.34713181D+06 0.34713181D+06 0.34713181D+06 0.10798942D+01  1  2  2  3  6  4        1 0.272638912154D-02 0.100000000000D+01
0.387925219474D-02 0.000000000000D+00 -.104078127447D-03 0.100809132918D-03 0.000000000000D+00  6 1 2 25 1 2 21 2 0.35752102D+00 0.38094876D+00 0.34713181D+06 0.34713181D+06 0.34713181D+06 0.10798942D+01  1  2  3  3  6  4        1 0.455092591140D-03 0.100000000000D+01
-.165719627617D-01 0.000000000000D+00 0.000000000000D+00 0.100809132918D-03 0.000000000000D+00  6 1 2 25 1 2 21 2 0.35752102D+00 0.38094876D+00 0.34713181D+06 0.34713181D+06 0.34713181D+06 0.10798942D+01  1  2 15  3  6  4        1 -.194413177975D-02 0.100000000000D+01
-.777083651638D-04 0.000000000000D+00 0.000000000000D+00 0.100809132918D-03 0.000000000000D+00  6 1 2 25 1 2 21 2 0.35752102D+00 0.38094876D+00 0.34713181D+06 0.34713181D+06 0.34713181D+06 0.10798942D+01  1  2  4  3  6  4        1 -.911631919770D-05 0.100000000000D+01
  </mgrwgt>
  </event>
  <event>
  5     66 0.17698235E-05 0.27406176E+03 0.75467711E-02 0.86305750E-01
        1 -1    0    0  501    0 0.00000000E+00 0.00000000E+00 0.30893692E+04 0.30893692E+04 0.32000000E+00 0.0000E+00 0.9000E+01
        2 -1    0    0  502    0 0.00000000E+00 0.00000000E+00 -.48072546E+03 0.48072557E+03 0.32000000E+00 0.0000E+00 0.9000E+01
       25  1    1    2    0    0 -.51770877E+03 0.27811744E+02 0.84115299E+03 0.99597149E+03 0.12500000E+03 0.0000E+00 0.9000E+01
        1  1    1    2  501    0 0.21893868E+03 0.16489647E+03 0.20816882E+04 0.20996549E+04 0.32000000E+00 0.0000E+00 0.9000E+01
        2  1    1    2  502    0 0.29877009E+03 -.19270821E+03 -.31419749E+03 0.47446832E+03 0.32000000E+00 0.0000E+00 0.9000E+01
#aMCatNLO 1  0  0  1  1 0.99175208D+03 0.00000000D+00  -5  6  0 0.00000000D+00 0.00000000D+00 0.00000000D+00 0.00000000D+00 0.00000000D+00
  <mgrwgt>
 0.2785675449D-02    6    2    0
 0.121866264068843D+04 0.000000000000000D+00 0.000000000000000D+00 0.121866264068843D+04
 0.121866264068843D+04 0.000000000000000D+00 0.000000000000000D+00 -.121866264068843D+04
 0.558629620583579D+03 -.517725510537128D+03 0.278480704042791D+02 0.166213217606730D+03
 0.847394464121037D+03 0.218916614637083D+03 0.164879848941505D+03 0.801852560681729D+03
 0.103130119667224D+04 0.298808895900045D+03 -.192727919345784D+03 -.968065778288458D+03
 0.000000000000000D+00 0.000000000000000D+00 -.000000000000000D+00 0.000000000000000D+00
 0.229173037050009D+04 0.000000000000000D+00 0.000000000000000D+00 0.229173037050009D+04
 0.156761511501058D+04 0.000000000000000D+00 0.000000000000000D+00 -.156761511501058D+04
 0.756670759300841D+03 -.695307927330493D+03 0.214116067741550D+03 0.166213217606730D+03
 0.901952078444817D+03 -.172675996982459D+02 0.412615865836180D+03 0.801852560681729D+03
 0.972750704321437D+03 0.282361922039764D+02 0.910785326761067D+02 -.968065778288458D+03
 0.122797194344358D+04 0.684339334824762D+03 -.717810466253837D+03 0.724115255489518D+03
0.740645036374D-02 0.000000000000D+00 0.000000000000D+00 0.191687901596D-05 0.000000000000D+00  6 1 2 25 1 2 21 0 0.47528757D+00 0.73957772D-01 0.33812029D+06 0.33812029D+06 0.33812029D+06 0.10807292D+01  1  2  2  1  6  1        1 0.356618873020D-02 0.100000000000D+01
0.636184803211D-03 0.000000000000D+00 -.284427195599D-04 0.191687901596D-05 0.000000000000D+00  6 1 2 25 1 2 21 2 0.47528757D+00 0.73957772D-01 0.33812029D+06 0.33812029D+06 0.33812029D+06 0.10807292D+01  1  2  3  1  6  1        1 0.357776038377D-03 0.100000000000D+01
-.462231434838D-02 0.000000000000D+00 0.000000000000D+00 0.191687901596D-05 0.000000000000D+00  6 1 2 25 1 2 21 2 0.47528757D+00 0.73957772D-01 0.33812029D+06 0.33812029D+06 0.33812029D+06 0.10807292D+01  1  2 15  1  6  1        1 -.259948572703D-02 0.100000000000D+01
-.893777838150D-03 0.000000000000D+00 -.275888589283D-02 0.191687901596D-05 0.000000000000D+00  6 1 2 25 1 2 21 2 0.90426376D+00 0.73957772D-01 0.33812029D+06 0.33812029D+06 0.33812029D+06 0.10807292D+01  1  2  5  1  6  1        1 -.134112813327D-06 0.100000000000D+01
0.259848631975D-02 0.000000000000D+00 0.227240062935D-02 0.191687901596D-05 0.000000000000D+00  6 1 2 25 1 2 21 2 0.47528757D+00 0.73957772D-01 0.33812029D+06 0.33812029D+06 0.33812029D+06 0.10807292D+01  1  2  6  1  6  1        1 0.146133031874D-02 0.100000000000D+01
0.953259207236D-04 0.000000000000D+00 -.192783797902D-03 0.191687901596D-05 0.000000000000D+00  6 21 2 25 1 2 -1 2 0.90426376D+00 0.73957772D-01 0.33812029D+06 0.33812029D+06 0.33812029D+06 0.10807292D+01  1  2  5  5  6  1        1 0.201924176624D-09 0.100000000000D+01
  </mgrwgt>
  </event>
  <event>
  6     66 0.17698235E-05 0.95516410E+02 0.75467711E-02 0.91876352E-01
        1 -1    0    0  501    0 0.00000000E+00 0.00000000E+00 0.23775771E+04 0.23775771E+04 0.32000000E+00 0.0000E+00 0.9000E+01
        2 -1    0    0  502    0 -.00000000E+00 -.00000000E+00 -.27657694E+04 0.27657694E+04 0.32000000E+00 0.0000E+00 0.9000E+01
       25  1    1    2    0    0 0.23800843E+03 0.57516345E+03 0.34460063E+03 0.72238190E+03 0.12500000E+03 0.0000E+00 0.9000E+01
        1  1    1    2  503    0 -.10584455E+03 -.46427710E+03 0.11981610E+04 0.12893200E+04 0.32000000E+00 0.0000E+00 0.9000E+01
        2  1    1    2  502    0 -.26657355E+02 -.17144976E+02 -.25229033E+04 0.25231024E+04 0.32000000E+00 0.0000E+00 0.9000E+01
       21  1    1    2  501  503 -.10550652E+03 -.93741382E+02 0.59194931E+03 0.60854221E+03 0.75000000E+00 0.0000E+00 0.9000E+01
#aMCatNLO 2  0  0  4  1 0.34138864D+01 0.00000000D+00  -5  6  0 0.00000000D+00 0.00000000D+00 0.00000000D+00 0.00000000D+00 0.00000000D+00
  <mgrwgt>
 0.4646161144D-01    1    2    0
 0.256433812922730D+04 0.000000000000000D+00 0.000000000000000D+00 0.256433812922730D+04
 0.256433812922730D+04 -.000000000000000D+00 -.000000000000000D+00 -.256433812922730D+04
 0.750251078945987D+03 0.238146495476710D+03 0.575517154804607D+03 0.399146505280191D+03
 0.203454153310551D+04 -.211967631213772D+03 -.559646346211563D+03 0.194453720468932D+04
 0.234388364640312D+04 -.261788642629380D+02 -.158708085930447D+02 -.234368370996952D+04
 0.000000000000000D+00 0.000000000000000D+00 0.000000000000000D+00 0.000000000000000D+00
 0.256433812922730D+04 0.000000000000000D+00 0.000000000000000D+00 0.256433812922730D+04
 0.256433812922730D+04 -.000000000000000D+00 -.000000000000000D+00 -.256433812922730D+04
 0.750645996398443D+03 0.237991424571873D+03 0.575107729720228D+03 0.400569086370014D+03
 0.138334666371599D+04 -.105805428536383D+03 -.464185692462299D+03 0.129883980775910D+04
 0.233945953731822D+04 -.266627417233511D+02 -.171483633365858D+02 -.233924474106235D+04
 0.655224061021951D+03 -.105523254312139D+03 -.937736739213430D+02 0.639835846933232D+03
0.659229467952D+00 0.000000000000D+00 0.000000000000D+00 0.950753708865D-03 0.579466028035D-06  6 1 2 25 1 2 21 2 0.36578109D+00 0.42550299D+00 0.41203263D+06 0.41203263D+06 0.41203263D+06 0.10745009D+01  1  2  1  3  6  4        1 0.464616114351D-01 0.100000000000D+01
  </mgrwgt>
  </event>
  <event>
  5     66 0.17698235E-05 0.66984508E+02 0.75467711E-02 0.95152711E-01
        1 -1    0    0  501    0 0.00000000E+00 0.00000000E+00 0.12976260E+04 0.12976261E+04 0.32000000E+00 0.0000E+00 0.9000E+01
        2 -1    0    0  502    0 0.00000000E+00 0.00000000E+00 -.21546357E+04 0.21546357E+04 0.32000000E+00 0.0000E+00 0.9000E+01
       25  1    1    2    0    0 -.45229095E+03 0.84486291E+02 0.23884522E+03 0.53327017E+03 0.12500000E+03 0.0000E+00 0.9000E+01
        1  1    1    2  501    0 0.58395213E+02 0.32827421E+02 0.88925880E+03 0.89177853E+03 0.32000000E+00 0.0000E+00 0.9000E+01
        2  1    1    2  502    0 0.39389574E+03 -.11731371E+03 -.19851137E+04 0.20272131E+04 0.32000000E+00 0.0000E+00 0.9000E+01
#aMCatNLO 1  0  0  2  5 0.40013717D+02 0.00000000D+00  -5  6  0 0.00000000D+00 0.00000000D+00 0.00000000D+00 0.00000000D+00 0.00000000D+00
  <mgrwgt>
 0.3358781368D-02    7    2    0
 0.167209792539408D+04 0.000000000000000D+00 0.000000000000000D+00 0.167209792539408D+04
 0.167209792539408D+04 0.000000000000000D+00 0.000000000000000D+00 -.167209792539408D+04
 0.611792772604817D+03 -.452321599405139D+03 0.844989903769029D+02 0.383315128775725D+03
 0.114839259222350D+04 0.583905533742868D+02 0.328248015622845D+02 0.114643736050115D+04
 0.158401048595985D+04 0.393931046030852D+03 -.117323791939187D+03 -.152975248927688D+04
 0.000000000000000D+00 -.000000000000000D+00 0.000000000000000D+00 -.000000000000000D+00
 0.195638610055728D+04 0.000000000000000D+00 0.000000000000000D+00 0.195638610055728D+04
 0.208539584410980D+04 0.000000000000000D+00 0.000000000000000D+00 -.208539584410980D+04
 0.543220374391892D+03 -.363199177539497D+03 0.248846265945398D+02 0.383315128775725D+03
 0.117402944010847D+04 0.237591869527047D+03 -.870437144382588D+02 0.114643736050115D+04
 0.168508658554007D+04 0.646179125702955D+03 -.286053596069122D+03 -.152975248927688D+04
 0.639445544626646D+03 -.520571817690506D+03 0.348212683912841D+03 -.129009743552517D+03
0.400789066856D-02 0.000000000000D+00 0.000000000000D+00 0.374453733141D-03 0.000000000000D+00  6 1 2 25 1 2 21 0 0.19963478D+00 0.33148242D+00 0.22792905D+06 0.22792905D+06 0.22792905D+06 0.10934918D+01  1  2  2  2  6  2        2 0.311615942202D-02 0.100000000000D+01
0.129094892463D-02 0.000000000000D+00 -.153913554691D-04 0.374453733141D-03 0.000000000000D+00  6 1 2 25 1 2 21 2 0.19963478D+00 0.33148242D+00 0.22792905D+06 0.22792905D+06 0.22792905D+06 0.10934918D+01  1  2  3  2  6  2        2 0.120017310975D-02 0.100000000000D+01
-.269311303393D-02 0.000000000000D+00 0.000000000000D+00 0.374453733141D-03 0.000000000000D+00  6 1 2 25 1 2 21 2 0.19963478D+00 0.33148242D+00 0.22792905D+06 0.22792905D+06 0.22792905D+06 0.10934918D+01  1  2 15  2  6  2        2 -.250374107231D-02 0.100000000000D+01
-.326870004274D-04 0.000000000000D+00 0.000000000000D+00 0.374453733141D-03 0.000000000000D+00  6 1 2 25 1 2 21 2 0.19963478D+00 0.33148242D+00 0.22792905D+06 0.22792905D+06 0.22792905D+06 0.10934918D+01  1  2  4  2  6  2        2 -.303885445838D-04 0.100000000000D+01
-.142870540032D-02 0.000000000000D+00 -.287344801695D-02 0.374453733141D-03 0.000000000000D+00  6 1 2 25 1 2 21 2 0.19963478D+00 0.43920730D+00 0.22792905D+06 0.22792905D+06 0.22792905D+06 0.10934918D+01  1  2  5  2  6  2        2 -.522293017057D-03 0.100000000000D+01
0.225744533477D-02 0.000000000000D+00 0.276331870352D-02 0.374453733141D-03 0.000000000000D+00  6 1 2 25 1 2 21 2 0.19963478D+00 0.33148242D+00 0.22792905D+06 0.22792905D+06 0.22792905D+06 0.10934918D+01  1  2  6  2  6  2        2 0.209870827252D-02 0.100000000000D+01
0.554977364250D-05 0.000000000000D+00 -.106040602052D-03 0.374453733141D-03 0.000000000000D+00  6 1 21 25 1 2 -2 2 0.19963478D+00 0.43920730D+00 0.22792905D+06 0.22792905D+06 0.22792905D+06 0.10934918D+01  1  2  5  6  6  2        2 0.163197490045D-06 0.100000000000D+01
  </mgrwgt>
  </event>
  <event>
  5     66 0.17698235E-05 0.84840590E+02 0.75467711E-02 0.93204514E-01
        1 -1    0    0  501    0 0.00000000E+00 0.00000000E+00 0.61555250E+03 0.61555258E+03 0.32000000E+00 0.0000E+00 0.9000E+01
        2 -1    0    0  502    0 -.00000000E+00 -.00000000E+00 -.11144133E+04 0.11144134E+04 0.32000000E+00 0.0000E+00 0.9000E+01
       25  1    1    2    0    0 -.13824195E+03 0.50077902E+03 -.13904961E+03 0.55213246E+03 0.12500000E+03 0.0000E+00 0.9000E+01
        1  1    1    2  501    0 -.83850725E+02 -.13104543E+02 0.30922004E+03 0.32065528E+03 0.32000000E+00 0.0000E+00 0.9000E+01
        2  1    1    2  502    0 0.22209267E+03 -.48767448E+03 -.66903125E+03 0.85717820E+03 0.32000000E+00 0.0000E+00 0.9000E+01
#aMCatNLO 1  0  0  5  5 0.13779142D+03 0.00000000D+00  -5  6  0 0.00000000D+00 0.00000000D+00 0.00000000D+00 0.00000000D+00 0.00000000D+00
  <mgrwgt>
 0.4496310961D-02    6    2    0
 0.828239105320195D+03 0.000000000000000D+00 0.000000000000000D+00 0.828239105320195D+03
 0.828239105320195D+03 -.000000000000000D+00 -.000000000000000D+00 -.828239105320195D+03
 0.534849486921010D+03 -.138296418905446D+03 0.500864864036516D+03 0.211533011910435D+02
 0.427863514911319D+03 -.838230863686417D+02 -.131002238361919D+02 0.419367692746289D+03
 0.693765208808061D+03 0.222119505274088D+03 -.487764640200324D+03 -.440520993937332D+03
 0.000000000000000D+00 0.000000000000000D+00 0.000000000000000D+00 0.000000000000000D+00
 0.828239105320195D+03 0.000000000000000D+00 0.000000000000000D+00 0.828239105320195D+03
 0.828239105320195D+03 -.000000000000000D+00 -.000000000000000D+00 -.828239105320195D+03
 0.514667650120903D+03 -.129744671529407D+03 0.482085603850379D+03 0.419295252942814D+01
 0.413957472658254D+03 -.769637029746420D+02 -.281631273351068D+02 0.405763743886447D+03
 0.548667547308229D+03 0.570861985067661D+02 -.355415069354454D+03 -.414074114000189D+03
 0.179185540553005D+03 0.149622175997282D+03 -.985074071608177D+02 0.411741758431360D+01
0.568979669948D-03 0.000000000000D+00 0.000000000000D+00 0.109539115219D-05 0.000000000000D+00  6 1 2 25 1 2 21 0 0.94700394D-01 0.17144821D+00 0.33363910D+06 0.33363910D+06 0.33363910D+06 0.10811535D+01  1  2  2  4  6  5        2 0.579723855158D-02 0.100000000000D+01
0.130673776434D-03 0.000000000000D+00 -.218503174839D-05 0.109539115219D-05 0.000000000000D+00  6 1 2 25 1 2 21 2 0.94700394D-01 0.17144821D+00 0.33363910D+06 0.33363910D+06 0.33363910D+06 0.10811535D+01  1  2  3  4  6  5        2 0.155627943361D-02 0.100000000000D+01
-.359034186086D-03 0.000000000000D+00 0.000000000000D+00 0.109539115219D-05 0.000000000000D+00  6 1 2 25 1 2 21 2 0.94700394D-01 0.17144821D+00 0.33363910D+06 0.33363910D+06 0.33363910D+06 0.10811535D+01  1  2 15  4  6  5        2 -.427597284641D-02 0.100000000000D+01
-.121256452556D-03 0.000000000000D+00 0.000000000000D+00 0.109539115219D-05 0.000000000000D+00  6 1 2 25 1 2 21 2 0.94700394D-01 0.17144821D+00 0.33363910D+06 0.33363910D+06 0.33363910D+06 0.10811535D+01  1  2  4  4  6  5        2 -.144412236683D-02 0.100000000000D+01
-.828342265420D-03 0.000000000000D+00 0.000000000000D+00 0.109539115219D-05 0.000000000000D+00  6 1 2 25 1 2 21 2 0.94700394D-01 0.17144821D+00 0.33363910D+06 0.33363910D+06 0.33363910D+06 0.10811535D+01  1  2  5  4  6  5        2 -.986526958082D-02 0.100000000000D+01
0.106872609562D-02 0.000000000000D+00 -.000000000000D+00 0.109539115219D-05 0.000000000000D+00  6 1 2 25 1 2 21 2 0.94700394D-01 0.17144821D+00 0.33363910D+06 0.33363910D+06 0.33363910D+06 0.10811535D+01  1  2  6  4  6  5        2 0.127281577694D-01 0.100000000000D+01
  </mgrwgt>
  </event>
  <event>
  6     66 0.17698235E-05 0.20953402E+03 0.75467711E-02 0.94973419E-01
        1 -1    0    0  501    0 0.00000000E+00 0.00000000E+00 0.22983304E+03 0.22983326E+03 0.32000000E+00 0.0000E+00 0.9000E+01
        2 -1    0    0  502    0 -.00000000E+00 -.00000000E+00 -.21887692E+04 0.21887692E+04 0.32000000E+00 0.0000E+00 0.9000E+01
       25  1    1    2    0    0 0.16737330E+03 0.43059839E+03 -.47789050E+03 0.67633802E+03 0.12500000E+03 0.0000E+00 0.9000E+01
        1  1    1    2  501    0 -.19014918E+02 -.27679438E+03 -.34088546E+02 0.27953323E+03 0.32000000E+00 0.0000E+00 0.9000E+01
        2  1    1    2  503    0 -.11646039E+03 -.11518810E+03 -.10718357E+04 0.10842800E+04 0.32000000E+00 0.0000E+00 0.9000E+01
       21  1    1    2  502  503 -.31897992E+02 -.38615903E+02 -.37512138E+03 0.37845116E+03 0.75000000E+00 0.0000E+00 0.9000E+01
#aMCatNLO 2  0  0  5  2 0.66292288D+01 0.00000000D+00  -5  6  0 0.00000000D+00 0.00000000D+00 0.00000000D+00 0.00000000D+00 0.00000000D+00
  <mgrwgt>
 0.2590150900D-03    3    2    0
 0.709261422536058D+03 0.000000000000000D+00 0.000000000000000D+00 0.709261422536058D+03
 0.709261422536058D+03 -.000000000000000D+00 -.000000000000000D+00 -.709261422536058D+03
 0.493275563649482D+03 0.167413679135421D+03 0.430605819317793D+03 0.119361091238766D+03
 0.429499651440313D+03 -.189908608434138D+02 -.276729449101238D+03 0.327917840002495D+03
 0.495747629982322D+03 -.148422818292007D+03 -.153876370216555D+03 -.447278931241261D+03
 0.000000000000000D+00 0.000000000000000D+00 0.000000000000000D+00 -.000000000000000D+00
 0.709261422536058D+03 0.000000000000000D+00 0.000000000000000D+00 0.709261422536058D+03
 0.709261422536058D+03 -.000000000000000D+00 -.000000000000000D+00 -.709261422536058D+03
 0.493227773533382D+03 0.167389462575596D+03 0.430580712960376D+03 0.119288113531421D+03
 0.429466158837862D+03 -.190119466280715D+02 -.276751309648313D+03 0.327854297028883D+03
 0.368729168985510D+03 -.116530274519832D+03 -.115254194401815D+03 -.330300417580520D+03
 0.127099743715362D+03 -.318472414276926D+02 -.385752089102472D+02 -.116841992979784D+03
-.986971564413D-04 0.000000000000D+00 0.000000000000D+00 0.347813388539D-06 0.000000000000D+00  6 1 2 25 1 2 21 2 0.35358948D-01 0.33673374D+00 0.23518172D+06 0.23518172D+06 0.23518172D+06 0.10924611D+01  1  2 13  4  6  5        2 -.118544650367D-02 0.100000000000D+01
-.213183724005D-07 0.000000000000D+00 0.000000000000D+00 0.347813388539D-06 0.000000000000D+00  6 1 2 25 1 2 21 2 0.35358948D-01 0.33673374D+00 0.23518172D+06 0.23518172D+06 0.23518172D+06 0.10924611D+01  1  2 13  4  6  5        2 -.256053881767D-06 0.100000000000D+01
0.120283389618D-03 0.000000000000D+00 0.000000000000D+00 0.347813388539D-06 0.352793109775D-07  6 1 2 25 1 2 21 2 0.35358948D-01 0.33673374D+00 0.23518172D+06 0.23518172D+06 0.23518172D+06 0.10924611D+01  1  2  1  4  6  5        2 0.144471764754D-02 0.100000000000D+01
  </mgrwgt>
  </event>
  <event>
  5     66 0.17698235E-05 0.23077414E+02 0.75467711E-02 0.94241954E-01
        1 -1    0    0  501    0 0.00000000E+00 0.00000000E+00 0.50296262E+03 0.50296272E+03 0.32000000E+00 0.0000E+00 0.9000E+01
        2 -1    0    0  502    0 -.00000000E+00 -.00000000E+00 -.24973472E+04 0.24973472E+04 0.32000000E+00 0.0000E+00 0.9000E+01
       25  1    1    2    0    0 0.43937505E+03 0.25440738E+03 0.18314566E+03 0.55402245E+03 0.12500000E+03 0.0000E+00 0.9000E+01
        1  1    1    2  501    0 -.14279607E+02 -.18158792E+02 0.10756225E+03 0.11001540E+03 0.32000000E+00 0.0000E+00 0.9000E+01
        2  1    1    2  502    0 -.42509544E+03 -.23624859E+03 -.22850924E+04 0.23362721E+04 0.32000000E+00 0.0000E+00 0.9000E+01
#aMCatNLO 1  0  0  4  1 0.20978718D+01 0.00000000D+00  -5  6  0 0.00000000D+00 0.00000000D+00 0.00000000D+00 0.00000000D+00 0.00000000D+00
  <mgrwgt>
 0.5443074121D-03    9    2    0
 0.112074638365215D+04 0.000000000000000D+00 0.000000000000000D+00 0.112074638365215D+04
 0.112074638365215D+04 -.000000000000000D+00 -.000000000000000D+00 -.112074638365215D+04
 0.904753681890914D+03 0.439421826013454D+03 0.254423775640237D+03 0.738330025196817D+03
 0.242716825260762D+03 -.142651253051329D+02 -.181403762703730D+02 0.241617239065140D+03
 0.109402226015263D+04 -.425156700708321D+03 -.236283399369864D+03 -.979947264261958D+03
 0.000000000000000D+00 -.000000000000000D+00 0.000000000000000D+00 0.000000000000000D+00
 0.112074638365215D+04 0.000000000000000D+00 0.000000000000000D+00 0.112074638365215D+04
 0.112074638365215D+04 -.000000000000000D+00 -.000000000000000D+00 -.112074638365215D+04
 0.904832092461560D+03 0.439415784752861D+03 0.254416093216287D+03 0.738432349759241D+03
 0.909649832223102D+01 0.157116816450534D+01 -.780110235975439D+00 0.892575713006600D+01
 0.109391628830291D+04 -.425164005090969D+03 -.236292688054459D+03 -.979823545421021D+03
 0.233647888217600D+03 -.158229478263976D+02 -.173432949258530D+02 0.232465438531714D+03
0.126029710511D-04 0.000000000000D+00 0.000000000000D+00 0.228864947557D-04 0.000000000000D+00  6 1 2 25 1 2 21 0 0.77378874D-01 0.38420727D+00 0.26646407D+06 0.26646407D+06 0.26646407D+06 0.10883814D+01  1  2  2  3  6  4        1 0.294076688076D-04 0.100000000000D+01
0.466142479986D-05 0.000000000000D+00 -.483987272748D-07 0.228864947557D-04 0.000000000000D+00  6 1 2 25 1 2 21 2 0.77378874D-01 0.38420727D+00 0.26646407D+06 0.26646407D+06 0.26646407D+06 0.10883814D+01  1  2  3  3  6  4        1 0.128845306405D-04 0.100000000000D+01
-.865677097460D-05 0.000000000000D+00 0.000000000000D+00 0.228864947557D-04 0.000000000000D+00  6 1 2 25 1 2 21 2 0.77378874D-01 0.38420727D+00 0.26646407D+06 0.26646407D+06 0.26646407D+06 0.10883814D+01  1  2 15  3  6  4        1 -.239279695928D-04 0.100000000000D+01
0.100690958268D-06 0.000000000000D+00 0.000000000000D+00 0.228864947557D-04 0.000000000000D+00  6 1 2 25 1 2 21 2 0.77378874D-01 0.38420727D+00 0.26757793D+06 0.26757793D+06 0.26757793D+06 0.10882460D+01  1  2 12  3  6  4        1 0.278166411975D-06 0.100000000000D+01
0.108357876779D-12 0.000000000000D+00 0.000000000000D+00 0.228864947557D-04 0.000000000000D+00  6 1 2 25 1 2 21 2 0.77378874D-01 0.38420727D+00 0.26757793D+06 0.26757793D+06 0.26757793D+06 0.10882460D+01  1  2 12  3  6  4        1 0.299346856079D-12 0.100000000000D+01
-.208030380049D-04 0.000000000000D+00 0.000000000000D+00 0.228864947557D-04 0.000000000000D+00  6 1 2 25 1 2 21 2 0.77378874D-01 0.38420727D+00 0.26646407D+06 0.26646407D+06 0.26646407D+06 0.10883814D+01  1  2  4  3  6  4        1 -.575011701568D-04 0.100000000000D+01
-.616645713918D-04 0.000000000000D+00 0.000000000000D+00 0.228864947557D-04 0.000000000000D+00  6 1 2 25 1 2 21 2 0.77378874D-01 0.38420727D+00 0.26646407D+06 0.26646407D+06 0.26646407D+06 0.10883814D+01  1  2  5  3  6  4        1 -.170445538359D-03 0.100000000000D+01
0.222353506374D-03 0.000000000000D+00 -.000000000000D+00 0.228864947557D-04 0.000000000000D+00  6 1 2 25 1 2 21 2 0.77378874D-01 0.38420727D+00 0.26646407D+06 0.26646407D+06 0.26646407D+06 0.10883814D+01  1  2  6  3  6  4        1 0.614601905835D-03 0.100000000000D+01
0.503189141524D-04 0.000000000000D+00 0.000000000000D+00 0.228864947557D-04 0.500879310260D-06  6 1 2 25 1 2 21 2 0.77378874D-01 0.38420727D+00 0.26757793D+06 0.26757793D+06 0.26757793D+06 0.10882460D+01  1  2 11  3  6  4        1 0.139009818211D-03 0.100000000000D+01
  </mgrwgt>
  </event>
  <event>
  5     66 0.17698235E-05 0.39632870E+02 0.75467711E-02 0.86463516E-01
        1 -1    0    0  501    0 0.00000000E+00 0.00000000E+00 0.19292297E+04 0.19292297E+04 0.32000000E+00 0.0000E+00 0.9000E+01
        2 -1    0    0  502    0 -.00000000E+00 -.00000000E+00 -.23837479E+04 0.23837479E+04 0.32000000E+00 0.0000E+00 0.9000E+01
       25  1    1    2    0    0 0.46232311E+03 0.13965822E+02 0.34143100E+03 0.58833479E+03 0.12500000E+03 0.0000E+00 0.9000E+01
        1  1    1    2  501    0 -.50190302E+03 -.15962355E+02 0.14211143E+04 0.15072251E+04 0.32000000E+00 0.0000E+00 0.9000E+01
        2  1    1    2  502    0 0.39579910E+02 0.19965332E+01 -.22170636E+04 0.22174178E+04 0.32000000E+00 0.0000E+00 0.9000E+01
#aMCatNLO 1  0  0  5  2 0.51928526D+01 0.00000000D+00  -5  6  0 0.00000000D+00 0.00000000D+00 0.00000000D+00 0.00000000D+00 0.00000000D+00
  <mgrwgt>
 0.1383802392D+00    4    2    0
 0.214448067833800D+04 0.000000000000000D+00 0.000000000000000D+00 0.214448067833800D+04
 0.214448067833800D+04 -.000000000000000D+00 -.000000000000000D+00 -.214448067833800D+04
 0.627851195312232D+03 0.462301232953479D+03 0.139650768869726D+02 0.405776625857420D+03
 0.166620212350959D+04 -.501883775571608D+03 -.159617435156410D+02 0.158873767971613D+04
 0.199490803785419D+04 0.395825426181265D+02 0.199666662866831D+01 -.199451430557355D+04
 0.000000000000000D+00 -.000000000000000D+00 0.000000000000000D+00 0.000000000000000D+00
 0.214448067833800D+04 0.000000000000000D+00 0.000000000000000D+00 0.214448067833800D+04
 0.214448067833800D+04 -.000000000000000D+00 -.000000000000000D+00 -.214448067833800D+04
 0.578951108252319D+03 0.463950669263742D+03 0.140482795874304D+02 0.322663614429869D+03
 0.146083165900249D+04 -.497609800415064D+03 -.157461509083354D+02 0.137337747222182D+04
 0.160593536462710D+04 0.199746696063470D+03 -.582185316932653D+03 -.148330371452367D+04
 0.643243224794109D+03 -.166087564912150D+03 0.583883188253558D+03 -.212737372128024D+03
0.638739205075D+00 0.000000000000D+00 0.000000000000D+00 0.771346519088D-03 0.000000000000D+00  6 1 2 25 1 2 21 0 0.29680457D+00 0.36673045D+00 0.26054710D+06 0.26054710D+06 0.26054710D+06 0.10891116D+01  1  2  2  4  6  5        2 0.137810482584D+00 0.100000000000D+01
0.397282826376D+00 0.000000000000D+00 -.245292673138D-02 0.771346519088D-03 0.000000000000D+00  6 1 2 25 1 2 21 2 0.29680457D+00 0.36673045D+00 0.26054710D+06 0.26054710D+06 0.26054710D+06 0.10891116D+01  1  2  3  4  6  5        2 0.101672435099D+00 0.100000000000D+01
-.388451751898D+00 0.000000000000D+00 0.000000000000D+00 0.771346519088D-03 0.000000000000D+00  6 1 2 25 1 2 21 2 0.29680457D+00 0.36673045D+00 0.26054710D+06 0.26054710D+06 0.26054710D+06 0.10891116D+01  1  2 15  4  6  5        2 -.994123906488D-01 0.100000000000D+01
-.660476292967D-02 0.000000000000D+00 0.000000000000D+00 0.771346519088D-03 0.000000000000D+00  6 1 2 25 1 2 21 2 0.29680457D+00 0.36673045D+00 0.26054710D+06 0.26054710D+06 0.26054710D+06 0.10891116D+01  1  2  4  4  6  5        2 -.169028783961D-02 0.100000000000D+01
  </mgrwgt>
  </event>
  <event>
  6     66 -.17698235E-05 0.16100577E+02 0.75467711E-02 0.95321029E-01
        1 -1    0    0  501    0 0.00000000E+00 0.00000000E+00 0.14732858E+04 0.14732858E+04 0.32000000E+00 0.0000E+00 0.9000E+01
        2 -1    0    0  502    0 0.00000000E+00 0.00000000E+00 -.11033215E+04 0.11033215E+04 0.32000000E+00 0.0000E+00 0.9000E+01
       25  1    1    2    0    0 -.21537045E+03 0.39415124E+03 0.66427564E+03 0.81155823E+03 0.12500000E+03 0.0000E+00 0.9000E+01
        1  1    1    2  503    0 0.25043664E+03 -.35708379E+03 0.61275282E+03 0.75212596E+03 0.32000000E+00 0.0000E+00 0.9000E+01
        2  1    1    2  502    0 -.17349764E+02 -.15663835E+02 -.95619194E+03 0.95647765E+03 0.32000000E+00 0.0000E+00 0.9000E+01
       21  1    1    2  501  503 -.17716427E+02 -.21403619E+02 0.49127783E+02 0.56445445E+02 0.75000000E+00 0.0000E+00 0.9000E+01
#aMCatNLO 2  0  0  4  1 0.77896658D+01 0.00000000D+00  -5  6  0 0.00000000D+00 0.00000000D+00 0.00000000D+00 0.00000000D+00 0.00000000D+00
  <mgrwgt>
 -.1191937552D+00    1    2    0
 0.127495406922543D+04 0.000000000000000D+00 0.000000000000000D+00 0.127495406922543D+04
 0.127495406922543D+04 -.000000000000000D+00 -.000000000000000D+00 -.127495406922543D+04
 0.723183921944269D+03 -.216408066403547D+03 0.395857001248397D+03 0.551212090140265D+03
 0.716961520645529D+03 0.235596528814226D+03 -.383165340208391D+03 0.558312116794920D+03
 0.110976269586105D+04 -.191884624106790D+02 -.126916610400054D+02 -.110952420693519D+04
 0.000000000000000D+00 0.000000000000000D+00 0.000000000000000D+00 0.000000000000000D+00
 0.127495406922543D+04 0.000000000000000D+00 0.000000000000000D+00 0.127495406922543D+04
 0.127495406922543D+04 -.000000000000000D+00 -.000000000000000D+00 -.127495406922543D+04
 0.723930760501952D+03 -.215211416564630D+03 0.393910814923213D+03 0.554047887883088D+03
 0.670635108178530D+03 0.250296431838462D+03 -.356835715543823D+03 0.509677757649763D+03
 0.110543063041297D+04 -.173566720424301D+02 -.156708160520641D+02 -.110518326539768D+04
 0.499116393574039D+02 -.177283432314020D+02 -.214042833273256D+02 0.414576198648298D+02
-.441333391751D-01 0.000000000000D+00 0.000000000000D+00 0.506635456543D-04 0.000000000000D+00  6 1 2 25 1 2 21 2 0.22665935D+00 0.16974177D+00 0.22134814D+06 0.22134814D+06 0.22134814D+06 0.10944585D+01  1  2  8  3  6  4        1 -.119193755197D+00 0.100000000000D+01
  </mgrwgt>
  </event>
  <event>
  6     66 0.17698235E-05 0.72772517E+02 0.75467711E-02 0.95302543E-01
        1 -1    0    0  501    0 0.00000000E+00 0.00000000E+00 0.74485570E+03 0.74485577E+03 0.32000000E+00 0.0000E+00 0.9000E+01
        2 -1    0    0  502    0 -.00000000E+00 -.00000000E+00 -.98833243E+03 0.98833248E+03 0.32000000E+00 0.0000E+00 0.9000E+01
       25  1    1    2    0    0 0.45067533E+03 0.32402519E+02 0.31130628E+03 0.56275641E+03 0.12500000E+03 0.0000E+00 0.9000E+01
        1  1    1    2  501    0 -.70238763E+02 0.29633734E+02 0.25600654E+03 0.26711626E+03 0.32000000E+00 0.0000E+00 0.9000E+01
        2  1    1    2  503    0 0.60284526E+01 -.39887756E+01 -.11213913E+02 0.13345667E+02 0.32000000E+00 0.0000E+00 0.9000E+01
       21  1    1    2  502  503 -.38646502E+03 -.58047477E+02 -.79957563E+03 0.88996993E+03 0.75000000E+00 0.0000E+00 0.9000E+01
#aMCatNLO 2  0  0  5  1 0.98320327D+01 0.00000000D+00  -5  6  0 0.00000000D+00 0.00000000D+00 0.00000000D+00 0.00000000D+00 0.00000000D+00
  <mgrwgt>
 0.6638874399D-02    2    2    0
 0.858000673264840D+03 0.000000000000000D+00 0.000000000000000D+00 0.858000673264840D+03
 0.858000673264840D+03 -.000000000000000D+00 -.000000000000000D+00 -.858000673264840D+03
 0.614779370080289D+03 0.451789111861848D+03 0.326050242568525D+02 0.396424248340853D+03
 0.306778056333057D+03 -.696557884474323D+02 0.297051475774075D+02 0.297285134493232D+03
 0.794443920116334D+03 -.382133323414415D+03 -.623101718342599D+02 -.693709382834085D+03
 0.000000000000000D+00 -.000000000000000D+00 0.000000000000000D+00 0.000000000000000D+00
 0.858000673264840D+03 0.000000000000000D+00 0.000000000000000D+00 0.858000673264840D+03
 0.858000673264840D+03 -.000000000000000D+00 -.000000000000000D+00 -.858000673264840D+03
 0.612837141850876D+03 0.450774135292169D+03 0.324395234732534D+02 0.394581700919311D+03
 0.305994639156635D+03 -.701624205450100D+02 0.296225367944097D+02 0.296365415070193D+03
 0.112079236213191D+02 0.563676570075642D+01 -.375656613189818D+01 -.892931325651002D+01
 0.785961641900850D+03 -.386248480447916D+03 -.583054941357648D+02 -.682017802732994D+03
-.598551732911D-08 0.000000000000D+00 0.000000000000D+00 0.475027298097D-05 0.000000000000D+00  6 1 2 25 1 2 21 2 0.11459319D+00 0.15205115D+00 0.22206035D+06 0.22206035D+06 0.22206035D+06 0.10943524D+01  1  2 13  4  6  5        2 -.665194928943D-07 0.100000000000D+01
0.597381221447D-03 0.000000000000D+00 0.000000000000D+00 0.475027298097D-05 0.154004640966D-08  6 1 2 25 1 2 21 2 0.11459319D+00 0.15205115D+00 0.22206035D+06 0.22206035D+06 0.22206035D+06 0.10943524D+01  1  2  1  4  6  5        2 0.663894091860D-02 0.100000000000D+01
  </mgrwgt>
  </event>
  <event>
  5     66 -.17698235E-05 0.29656029E+02 0.75467711E-02 0.94811217E-01
        1 -1    0    0  501    0 0.00000000E+00 0.00000000E+00 0.34557368E+03 0.34557383E+03 0.32000000E+00 0.0000E+00 0.9000E+01
        2 -1    0    0  502    0 0.00000000E+00 0.00000000E+00 -.20587973E+04 0.20587973E+04 0.32000000E+00 0.0000E+00 0.9000E+01
       25  1    1    2    0    0 -.46469735E+02 0.46195568E+03 -.29114670E+03 0.56209776E+03 0.12500000E+03 0.0000E+00 0.9000E+01
        1  1    1    2  501    0 0.27618707E+02 0.10829438E+02 0.17452826E+03 0.17703188E+03 0.32000000E+00 0.0000E+00 0.9000E+01
        2  1    1    2  502    0 0.18851027E+02 -.47278512E+03 -.15966052E+04 0.16652415E+04 0.32000000E+00 0.0000E+00 0.9000E+01
#aMCatNLO 1  0  0  2  4 0.20355260D+03 0.00000000D+00  -5  6  0 0.00000000D+00 0.00000000D+00 0.00000000D+00 0.00000000D+00 0.00000000D+00
  <mgrwgt>
 -.1205645478D-02    1    2    0
 0.843484665471175D+03 0.000000000000000D+00 0.000000000000000D+00 0.843484665471175D+03
 0.843484665471175D+03 0.000000000000000D+00 0.000000000000000D+00 -.843484665471175D+03
 0.505572327711941D+03 -.464666788287883D+02 0.462042336094626D+03 0.156000339624352D+03
 0.429416980774344D+03 0.276094530449904D+02 0.108258095673635D+02 0.428391717155130D+03
 0.751980022456064D+03 0.188572257837979D+02 -.472868145661990D+03 -.584392056779482D+03
 0.000000000000000D+00 0.000000000000000D+00 0.000000000000000D+00 -.000000000000000D+00
 0.863959255023943D+03 0.000000000000000D+00 0.000000000000000D+00 0.863959255023943D+03
 0.929577609187550D+03 0.000000000000000D+00 0.000000000000000D+00 -.929577609187550D+03
 0.501627579653690D+03 -.696572220369582D+02 0.454771364670644D+03 0.156000339624352D+03
 0.428488794278060D+03 0.785637245056490D+01 0.463259178680310D+01 0.428391717155130D+03
 0.758818590080268D+03 -.159285602817562D+02 -.483774593784960D+03 -.584392056779482D+03
 0.104601900199474D+03 0.777294098681495D+02 0.243706373275135D+02 -.656183541636076D+02
-.146478922639D-03 0.000000000000D+00 0.000000000000D+00 0.143546741787D-04 0.000000000000D+00  6 1 2 25 1 2 21 2 0.53165195D-01 0.31673806D+00 0.24196688D+06 0.24196688D+06 0.24196688D+06 0.10915278D+01  1  2 14  2  6  2        2 -.120564547798D-02 0.100000000000D+01
  </mgrwgt>
  </event>
  <event>
  5     66 -.17698235E-05 0.10253382E+03 0.75467711E-02 0.95244411E-01
        1 -1    0    0  501    0 0.00000000E+00 0.00000000E+00 0.14364010E+04 0.14364011E+04 0.32000000E+00 0.0000E+00 0.9000E+01
        2 -1    0    0  502    0 0.00000000E+00 0.00000000E+00 -.76492547E+03 0.76492553E+03 0.32000000E+00 0.0000E+00 0.9000E+01
       25  1    1    2    0    0 -.34738257E+03 -.30189811E+03 0.46967341E+03 0.66935434E+03 0.12500000E+03 0.0000E+00 0.9000E+01
        1  1    1    2  501    0 0.97293562E+02 0.32427431E+02 0.81261163E+03 0.81905760E+03 0.32000000E+00 0.0000E+00 0.9000E+01
        2  1    1    2  502    0 0.25008901E+03 0.26947068E+03 -.61080949E+03 0.71291465E+03 0.32000000E+00 0.0000E+00 0.9000E+01
#aMCatNLO 1  0  0  5  2 0.35608922D+01 0.00000000D+00  -5  6  0 0.00000000D+00 0.00000000D+00 0.00000000D+00 0.00000000D+00 0.00000000D+00
  <mgrwgt>
 -.5105910178D-02    9    2    0
 0.104820791429161D+04 0.000000000000000D+00 0.000000000000000D+00 0.104820791429161D+04
 0.104820791429161D+04 -.000000000000000D+00 -.000000000000000D+00 -.104820791429161D+04
 0.552511673483635D+03 -.347400589340108D+03 -.301930565203187D+03 0.278917395760675D+03
 0.599643283054631D+03 0.972732445899397D+02 0.324206593176647D+02 0.590812054420770D+03
 0.944260872044961D+03 0.250127344750168D+03 0.269509905885522D+03 -.869729450181445D+03
 0.000000000000000D+00 0.000000000000000D+00 0.000000000000000D+00 -.000000000000000D+00
 0.104820791429161D+04 0.000000000000000D+00 0.000000000000000D+00 0.104820791429161D+04
 0.104820791429161D+04 -.000000000000000D+00 -.000000000000000D+00 -.104820791429161D+04
 0.552501030222878D+03 -.347397009231131D+03 -.301926707668800D+03 0.278904947196864D+03
 0.599630828266032D+03 0.972771300946015D+02 0.324248459130838D+02 0.590798543951386D+03
 0.797965591697264D+03 0.210741291422826D+03 0.231146861702006D+03 -.734103754211567D+03
 0.146318378397055D+03 0.393785877137033D+02 0.383550000537110D+02 -.135599736936683D+03
0.869673778999D-05 0.000000000000D+00 0.000000000000D+00 0.177438026533D-04 0.000000000000D+00  6 1 2 25 1 2 21 0 0.22098478D+00 0.11768085D+00 0.22428320D+06 0.22428320D+06 0.22428320D+06 0.10940235D+01  1  2  2  4  6  5        2 0.342465899944D-04 0.100000000000D+01
0.151535352901D-05 0.000000000000D+00 -.333977630172D-07 0.177438026533D-04 0.000000000000D+00  6 1 2 25 1 2 21 2 0.22098478D+00 0.11768085D+00 0.22428320D+06 0.22428320D+06 0.22428320D+06 0.10940235D+01  1  2  3  4  6  5        2 0.714213779930D-05 0.100000000000D+01
-.526348083117D-05 0.000000000000D+00 0.000000000000D+00 0.177438026533D-04 0.000000000000D+00  6 1 2 25 1 2 21 2 0.22098478D+00 0.11768085D+00 0.22428320D+06 0.22428320D+06 0.22428320D+06 0.10940235D+01  1  2 15  4  6  5        2 -.248077459685D-04 0.100000000000D+01
0.156681879455D-02 0.000000000000D+00 0.000000000000D+00 0.177438026533D-04 0.000000000000D+00  6 1 2 25 1 2 21 2 0.22098478D+00 0.11768085D+00 0.22431693D+06 0.22431693D+06 0.22431693D+06 0.10940185D+01  1  2 12  4  6  5        2 0.738457450425D-02 0.100000000000D+01
0.112548054256D-08 0.000000000000D+00 0.000000000000D+00 0.177438026533D-04 0.000000000000D+00  6 1 2 25 1 2 21 2 0.22098478D+00 0.11768085D+00 0.22431693D+06 0.22431693D+06 0.22431693D+06 0.10940185D+01  1  2 12  4  6  5        2 0.530450295114D-08 0.100000000000D+01
-.411633561257D-01 0.000000000000D+00 0.000000000000D+00 0.177438026533D-04 0.000000000000D+00  6 1 2 25 1 2 21 2 0.22098478D+00 0.11768085D+00 0.22428320D+06 0.22428320D+06 0.22428320D+06 0.10940235D+01  1  2  4  4  6  5        2 -.194010411500D+00 0.100000000000D+01
-.323161496797D-01 0.000000000000D+00 0.000000000000D+00 0.177438026533D-04 0.000000000000D+00  6 1 2 25 1 2 21 2 0.22098478D+00 0.11768085D+00 0.22428320D+06 0.22428320D+06 0.22428320D+06 0.10940235D+01  1  2  5  4  6  5        2 -.152311912525D+00 0.100000000000D+01
0.377062534549D-01 0.000000000000D+00 -.000000000000D+00 0.177438026533D-04 0.000000000000D+00  6 1 2 25 1 2 21 2 0.22098478D+00 0.11768085D+00 0.22428320D+06 0.22428320D+06 0.22428320D+06 0.10940235D+01  1  2  6  4  6  5        2 0.177716455543D+00 0.100000000000D+01
0.331201925865D-01 0.000000000000D+00 0.000000000000D+00 0.177438026533D-04 0.696989116203D-05  6 1 2 25 1 2 21 2 0.22098478D+00 0.11768085D+00 0.22431693D+06 0.22431693D+06 0.22431693D+06 0.10940185D+01  1  2 11  4  6  5        2 0.156098797513D+00 0.100000000000D+01
  </mgrwgt>
  </event>
  <event>
  5     66 0.17698235E-05 0.12005860E+03 0.75467711E-02 0.95214444E-01
        1 -1    0    0  501    0 0.00000000E+00 0.00000000E+00 0.43972069E+03 0.43972081E+03 0.32000000E+00 0.0000E+00 0.9000E+01
        2 -1    0    0  502    0 -.00000000E+00 -.00000000E+00 -.17330704E+04 0.17330705E+04 0.32000000E+00 0.0000E+00 0.9000E+01
       25  1    1    2    0    0 -.71487861E+02 -.45772194E+03 -.29434596E+03 0.56292489E+03 0.12500000E+03 0.0000E+00 0.9000E+01
        1  1    1    2  501    0 0.51252591E+02 0.10859171E+03 0.26896579E+03 0.29455337E+03 0.32000000E+00 0.0000E+00 0.9000E+01
        2  1    1    2  502    0 0.20235270E+02 0.34913023E+03 -.12679696E+04 0.13153130E+04 0.32000000E+00 0.0000E+00 0.9000E+01
#aMCatNLO 1  0  0  4  1 0.17508251D+01 0.00000000D+00  -5  6  0 0.00000000D+00 0.00000000D+00 0.00000000D+00 0.00000000D+00 0.00000000D+00
  <mgrwgt>
 0.9784628541D-02    4    2    0
 0.872964542555888D+03 0.000000000000000D+00 0.000000000000000D+00 0.872964542555888D+03
 0.872964542555888D+03 -.000000000000000D+00 -.000000000000000D+00 -.872964542555888D+03
 0.482560980059567D+03 -.714849169232552D+02 -.457765318016365D+03 0.508027533692973D+02
 0.565716622986773D+03 0.512438459187530D+02 0.108573182710071D+03 0.552830199767722D+03
 0.697651482065435D+03 0.202410710045022D+02 0.349192135306293D+03 -.603632953137020D+03
 0.000000000000000D+00 0.000000000000000D+00 0.000000000000000D+00 -.000000000000000D+00
 0.872964542555888D+03 0.000000000000000D+00 0.000000000000000D+00 0.872964542555888D+03
 0.872964542555888D+03 -.000000000000000D+00 -.000000000000000D+00 -.872964542555888D+03
 0.483703977465712D+03 -.623929253323626D+02 -.438501610414060D+03 0.148889215018738D+03
 0.288805889026955D+03 -.134824321140447D+01 -.254657942821512D+03 0.136221716091115D+03
 0.603444295195242D+03 0.324836259824835D+02 0.375131116556255D+03 -.471557501093950D+03
 0.369974923423866D+03 0.312575425612835D+02 0.318028436679317D+03 0.186446569984097D+03
0.283515174196D-02 0.000000000000D+00 0.000000000000D+00 0.561221496424D-05 0.000000000000D+00  6 1 2 25 1 2 21 0 0.67649349D-01 0.26662623D+00 0.22549023D+06 0.22549023D+06 0.22549023D+06 0.10938464D+01  1  2  2  3  6  4        1 0.213488925223D-01 0.100000000000D+01
0.458694390661D-03 0.000000000000D+00 -.108877292017D-04 0.561221496424D-05 0.000000000000D+00  6 1 2 25 1 2 21 2 0.67649349D-01 0.26662623D+00 0.22549023D+06 0.22549023D+06 0.22549023D+06 0.10938464D+01  1  2  3  3  6  4        1 0.413271227834D-02 0.100000000000D+01
-.166783123794D-02 0.000000000000D+00 0.000000000000D+00 0.561221496424D-05 0.000000000000D+00  6 1 2 25 1 2 21 2 0.67649349D-01 0.26662623D+00 0.22549023D+06 0.22549023D+06 0.22549023D+06 0.10938464D+01  1  2 15  3  6  4        1 -.150267079249D-01 0.100000000000D+01
-.743938373848D-04 0.000000000000D+00 0.000000000000D+00 0.561221496424D-05 0.000000000000D+00  6 1 2 25 1 2 21 2 0.67649349D-01 0.26662623D+00 0.22549023D+06 0.22549023D+06 0.22549023D+06 0.10938464D+01  1  2  4  3  6  4        1 -.670268334326D-03 0.100000000000D+01
  </mgrwgt>
  </event>
  <event>
  5     66 0.17698235E-05 0.12984647E+02 0.75467711E-02 0.93324724E-01
        1 -1    0    0  501    0 0.00000000E+00 0.00000000E+00 0.87876991E+03 0.87876997E+03 0.32000000E+00 0.0000E+00 0.9000E+01
        2 -1    0    0  502    0 0.00000000E+00 0.00000000E+00 -.69779880E+03 0.69779887E+03 0.32000000E+00 0.0000E+00 0.9000E+01
       25  1    1    2    0    0 -.20121372E+03 -.50413235E+03 0.33186694E+03 0.64838033E+03 0.12500000E+03 0.0000E+00 0.9000E+01
        1  1    1    2  501    0 -.12995801E+02 0.21292259E+00 0.24950987E+03 0.24984838E+03 0.32000000E+00 0.0000E+00 0.9000E+01
        2  1    1    2  502    0 0.21420952E+03 0.50391943E+03 -.40040570E+03 0.67834013E+03 0.32000000E+00 0.0000E+00 0.9000E+01
#aMCatNLO 1  0  0  2  2 0.60847860D+01 0.00000000D+00  -5  6  0 0.00000000D+00 0.00000000D+00 0.00000000D+00 0.00000000D+00 0.00000000D+00
  <mgrwgt>
 0.7002121112D-02    8    2    0
 0.783073875349165D+03 0.000000000000000D+00 0.000000000000000D+00 0.783073875349165D+03
 0.783073875349165D+03 0.000000000000000D+00 0.000000000000000D+00 -.783073875349165D+03
 0.614519154556036D+03 -.201266239131595D+03 -.504233442808453D+03 0.259324752878748D+03
 0.222458352930929D+03 -.129829045526325D+02 0.212711294984307D+00 0.222079079906289D+03
 0.729170243211365D+03 0.214249143684227D+03 0.504020731513469D+03 -.481403832785037D+03
 0.000000000000000D+00 -.000000000000000D+00 0.000000000000000D+00 0.000000000000000D+00
 0.820502905643284D+03 0.000000000000000D+00 0.000000000000000D+00 0.820502905643284D+03
 0.783327123349938D+03 0.000000000000000D+00 0.000000000000000D+00 -.783327123349938D+03
 0.616404873672001D+03 -.201051939605912D+03 -.506615000184236D+03 0.259324752878748D+03
 0.222454688226702D+03 -.129054467636027D+02 -.648094010990552D+00 0.222079079906289D+03
 0.727300009038582D+03 0.214502710010882D+03 0.501202793612910D+03 -.481403832785037D+03
 0.376704580559363D+02 -.545323641366927D+00 0.606030058231658D+01 0.371757822933452D+02
0.561713616445D-03 0.000000000000D+00 0.000000000000D+00 0.397868477864D-05 0.000000000000D+00  6 1 2 25 1 2 21 0 0.13519538D+00 0.10735367D+00 0.31235448D+06 0.31235448D+06 0.31235448D+06 0.10832576D+01  1  2  2  2  6  2        2 0.621653127882D-02 0.100000000000D+01
0.400108423083D-03 0.000000000000D+00 -.215712818974D-05 0.397868477864D-05 0.000000000000D+00  6 1 2 25 1 2 21 2 0.13519538D+00 0.10735367D+00 0.31235448D+06 0.31235448D+06 0.31235448D+06 0.10832576D+01  1  2  3  2  6  2        2 0.519606195410D-02 0.100000000000D+01
-.306238317400D-03 0.000000000000D+00 0.000000000000D+00 0.397868477864D-05 0.000000000000D+00  6 1 2 25 1 2 21 2 0.13519538D+00 0.10735367D+00 0.31235448D+06 0.31235448D+06 0.31235448D+06 0.10832576D+01  1  2 15  2  6  2        2 -.397700517692D-02 0.100000000000D+01
-.100290454176D-05 0.000000000000D+00 0.000000000000D+00 0.397868477864D-05 0.000000000000D+00  6 1 2 25 1 2 21 2 0.13519538D+00 0.10735367D+00 0.31235448D+06 0.31235448D+06 0.31235448D+06 0.10832576D+01  1  2  4  2  6  2        2 -.130243549807D-04 0.100000000000D+01
0.617811527842D-03 0.000000000000D+00 0.000000000000D+00 0.397868477864D-05 0.000000000000D+00  6 1 2 25 1 2 21 2 0.13519538D+00 0.11267427D+00 0.31235448D+06 0.31235448D+06 0.31235448D+06 0.10832576D+01  1  2  5  2  6  2        2 0.755836989257D-02 0.100000000000D+01
-.617089427858D-03 0.000000000000D+00 0.000000000000D+00 0.397868477864D-05 0.000000000000D+00  6 1 2 25 1 2 21 2 0.13519538D+00 0.10735367D+00 0.31235448D+06 0.31235448D+06 0.31235448D+06 0.10832576D+01  1  2  6  2  6  2        2 -.801391501249D-02 0.100000000000D+01
0.370443579318D-06 0.000000000000D+00 0.000000000000D+00 0.397868477864D-05 0.808011530145D-07  6 1 2 25 1 2 21 2 0.14165739D+00 0.10738839D+00 0.31549693D+06 0.31549693D+06 0.31549693D+06 0.10829372D+01  1  2 11  2  6  2        2 0.444213800443D-05 0.100000000000D+01
0.214195653379D-05 0.000000000000D+00 0.000000000000D+00 0.397868477864D-05 0.465397903504D-10  6 1 21 25 1 2 -2 2 0.14165739D+00 0.10738839D+00 0.31549693D+06 0.31549693D+06 0.31549693D+06 0.10829372D+01  1  2 11  6  6  2        2 0.306603928251D-04 0.100000000000D+01
  </mgrwgt>
  </event>
  <event>
  5     66 -.17698235E-05 0.65408409E+02 0.75467711E-02 0.93474054E-01
        1 -1    0    0  501    0 0.00000000E+00 0.00000000E+00 0.21096152E+04 0.21096152E+04 0.32000000E+00 0.0000E+00 0.9000E+01
        2 -1    0    0  502    0 0.00000000E+00 0.00000000E+00 -.17185061E+04 0.17185061E+04 0.32000000E+00 0.0000E+00 0.9000E+01
       25  1    1    2    0    0 -.47067787E+03 -.27862922E+03 -.26150490E+03 0.61901673E+03 0.12500000E+03 0.0000E+00 0.9000E+01
        1  1    1    2  501    0 0.54072480E+02 0.36804189E+02 0.18848894E+04 0.18860240E+04 0.32000000E+00 0.0000E+00 0.9000E+01
        2  1    1    2  502    0 0.41660539E+03 0.24182503E+03 -.12322754E+04 0.13230806E+04 0.32000000E+00 0.0000E+00 0.9000E+01
#aMCatNLO 1  0  0  1  2 0.15814260D+00 0.00000000D+00  -5  6  0 0.00000000D+00 0.00000000D+00 0.00000000D+00 0.00000000D+00 0.00000000D+00
  <mgrwgt>
 -.5656468863D-01    9    2    0
 0.190404482322304D+04 0.000000000000000D+00 0.000000000000000D+00 0.190404482322304D+04
 0.190404482322304D+04 0.000000000000000D+00 0.000000000000000D+00 -.190404482322304D+04
 0.649141941051806D+03 -.470703429347814D+03 -.278644062795497D+03 -.326429207488443D+03
 0.170233370122967D+04 0.540717122819346D+02 0.368036665272488D+02 0.170107665036099D+04
 0.145661400416461D+04 0.416631717065879D+03 0.241840396268249D+03 -.137464744287254D+04
 0.000000000000000D+00 0.000000000000000D+00 0.000000000000000D+00 0.000000000000000D+00
 0.191724430357875D+04 0.000000000000000D+00 0.000000000000000D+00 0.191724430357875D+04
 0.190404529854045D+04 0.000000000000000D+00 0.000000000000000D+00 -.190404529854045D+04
 0.649164621389106D+03 -.470727362491048D+03 -.278656470163444D+03 -.326429207488443D+03
 0.170233100573413D+04 0.540089502729816D+02 0.367711295833738D+02 0.170107665036099D+04
 0.145659402260653D+04 0.416578014629958D+03 0.241812555968477D+03 -.137464744287254D+04
 0.131999523894348D+02 0.140397588107977D+00 0.727846115932668D-01 0.131990050382942D+02
0.194587111353D-04 0.000000000000D+00 0.000000000000D+00 0.294808506312D-03 0.000000000000D+00  6 1 2 25 1 2 21 0 0.32455619D+00 0.26438556D+00 0.30704899D+06 0.30704899D+06 0.30704899D+06 0.10838064D+01  1  2  2  1  6  1        1 0.729738384744D-05 0.100000000000D+01
0.873966425885D-05 0.000000000000D+00 -.747265743560D-07 0.294808506312D-03 0.000000000000D+00  6 1 2 25 1 2 21 2 0.32455619D+00 0.26438556D+00 0.30704899D+06 0.30704899D+06 0.30704899D+06 0.10838064D+01  1  2  3  1  6  1        1 0.384991645587D-05 0.100000000000D+01
-.127033493805D-04 0.000000000000D+00 0.000000000000D+00 0.294808506312D-03 0.000000000000D+00  6 1 2 25 1 2 21 2 0.32455619D+00 0.26438556D+00 0.30704899D+06 0.30704899D+06 0.30704899D+06 0.10838064D+01  1  2 15  1  6  1        1 -.559596254228D-05 0.100000000000D+01
-.138480966310D+02 0.000000000000D+00 0.000000000000D+00 0.294808506312D-03 0.000000000000D+00  6 1 2 25 1 2 21 2 0.32455619D+00 0.26438556D+00 0.30704899D+06 0.30704899D+06 0.30704899D+06 0.10838064D+01  1  2  4  1  6  1        1 -.610023606433D+01 0.100000000000D+01
-.733153368878D+01 0.000000000000D+00 -.529566532123D-03 0.294808506312D-03 0.000000000000D+00  6 1 2 25 1 2 21 2 0.32680615D+00 0.26438556D+00 0.30704899D+06 0.30704899D+06 0.30704899D+06 0.10838064D+01  1  2  5  1  6  1        1 -.315755077927D+01 0.100000000000D+01
0.733136240577D+01 0.000000000000D+00 0.529553894955D-03 0.294808506312D-03 0.000000000000D+00  6 1 2 25 1 2 21 2 0.32455619D+00 0.26438556D+00 0.30704899D+06 0.30704899D+06 0.30704899D+06 0.10838064D+01  1  2  6  1  6  1        1 0.322954428614D+01 0.100000000000D+01
0.138658529117D+02 0.000000000000D+00 0.000000000000D+00 0.294808506312D-03 0.155109422784D+00  6 1 2 25 1 2 21 2 0.32680612D+00 0.26438562D+00 0.30707878D+06 0.30707878D+06 0.30707878D+06 0.10838033D+01  1  2 11  1  6  1        1 0.597166760580D+01 0.100000000000D+01
-.939919108788D-02 0.000000000000D+00 -.678916883765D-06 0.294808506312D-03 0.000000000000D+00  6 21 2 25 1 2 -1 2 0.32680615D+00 0.26438556D+00 0.30704899D+06 0.30704899D+06 0.30704899D+06 0.10838064D+01  1  2  5  5  6  1        1 -.184664595430D-02 0.100000000000D+01
0.942335457026D-02 0.000000000000D+00 0.000000000000D+00 0.294808506312D-03 0.949662522602D-04  6 21 2 25 1 2 -1 2 0.32680612D+00 0.26438562D+00 0.30707878D+06 0.30707878D+06 0.30707878D+06 0.10838033D+01  1  2 11  5  6  1        1 0.185135765294D-02 0.100000000000D+01
  </mgrwgt>
  </event>
  <event>
  6     66 -.17698235E-05 0.12541924E+03 0.75467711E-02 0.93823743E-01
        1 -1    0    0  501    0 0.00000000E+00 0.00000000E+00 0.27017796E+04 0.27017796E+04 0.32000000E+00 0.0000E+00 0.9000E+01
        2 -1    0    0  502    0 0.00000000E+00 0.00000000E+00 -.55887659E+03 0.55887669E+03 0.32000000E+00 0.0000E+00 0.9000E+01
       25  1    1    2    0    0 -.30001431E+03 -.33440216E+03 0.74574286E+03 0.87954011E+03 0.12500000E+03 0.0000E+00 0.9000E+01
        1  1    1    2  503    0 0.29590713E+03 0.51030000E+02 0.11345542E+04 0.11736176E+04 0.32000000E+00 0.0000E+00 0.9000E+01
        2  1    1    2  502    0 -.81587830E+02 0.16539673E+03 -.44674497E+03 0.48331545E+03 0.32000000E+00 0.0000E+00 0.9000E+01
       21  1    1    2  501  503 0.85695003E+02 0.11797543E+03 0.70935098E+03 0.72418313E+03 0.75000000E+00 0.0000E+00 0.9000E+01
#aMCatNLO 2  0  0  4  1 0.80205752D+02 0.00000000D+00  -5  6  0 0.00000000D+00 0.00000000D+00 0.00000000D+00 0.00000000D+00 0.00000000D+00
  <mgrwgt>
 -.2195441762D-02    2    2    0
 0.122880493649829D+04 0.000000000000000D+00 0.000000000000000D+00 0.122880493649829D+04
 0.122880493649829D+04 -.000000000000000D+00 -.000000000000000D+00 -.122880493649829D+04
 0.516763144522223D+03 -.301239348647914D+03 -.335029785944354D+03 0.220066001219534D+03
 0.904279862779916D+03 0.385595115956795D+03 0.170773858030604D+03 0.799921725041190D+03
 0.103656686569444D+04 -.843557673088810D+02 0.164255927913750D+03 -.101998772626072D+04
 0.000000000000000D+00 0.000000000000000D+00 0.000000000000000D+00 0.000000000000000D+00
 0.122880493649829D+04 0.000000000000000D+00 0.000000000000000D+00 0.122880493649829D+04
 0.122880493649829D+04 -.000000000000000D+00 -.000000000000000D+00 -.122880493649829D+04
 0.516791428540714D+03 -.299870227009042D+03 -.334423424051509D+03 0.222906260594812D+03
 0.567412613729052D+03 0.295724114826313D+03 0.509486992179034D+02 0.481568844691007D+03
 0.103095010723237D+04 -.816169837940639D+02 0.165468890961727D+03 -.101430608678184D+04
 0.342455723494450D+03 0.857630959767927D+02 0.118005833871879D+03 0.309830981496017D+03
-.237274498898D-02 0.000000000000D+00 0.000000000000D+00 0.470068594507D-05 0.000000000000D+00  6 1 2 25 1 2 21 2 0.41565841D+00 0.85981023D-01 0.30069298D+06 0.30069298D+06 0.30069298D+06 0.10844777D+01  1  2 13  3  6  4        1 -.219543851606D-02 0.100000000000D+01
-.350788381713D-08 0.000000000000D+00 0.000000000000D+00 0.470068594507D-05 0.000000000000D+00  6 1 2 25 1 2 21 2 0.41565841D+00 0.85981023D-01 0.30069298D+06 0.30069298D+06 0.30069298D+06 0.10844777D+01  1  2 13  3  6  4        1 -.324575261048D-08 0.100000000000D+01
  </mgrwgt>
  </event>
  <event>
  6     66 0.17698235E-05 0.15380755E+03 0.75467711E-02 0.89733407E-01
        1 -1    0    0  501    0 0.00000000E+00 0.00000000E+00 0.78011395E+03 0.78011402E+03 0.32000000E+00 0.0000E+00 0.9000E+01
        2 -1    0    0  503    0 0.00000000E+00 0.00000000E+00 -.18275219E+04 0.18275219E+04 0.32000000E+00 0.0000E+00 0.9000E+01
       25  1    1    2    0    0 -.51246431E+03 0.58552270E+03 -.40114612E+03 0.88430747E+03 0.12500000E+03 0.0000E+00 0.9000E+01
        1  1    1    2  501    0 0.38456607E+03 -.48830935E+03 0.34634834E+03 0.71154364E+03 0.32000000E+00 0.0000E+00 0.9000E+01
        2  1    1    2  502    0 0.13091749E+03 -.88860511E+02 -.64724157E+03 0.66630123E+03 0.32000000E+00 0.0000E+00 0.9000E+01
       21  1    1    2  503  502 -.30192523E+01 -.83528436E+01 -.34536858E+03 0.34548358E+03 0.75000000E+00 0.0000E+00 0.9000E+01
#aMCatNLO 2  0  0  2  5 0.88817724D+01 0.00000000D+00  -5  6  0 0.00000000D+00 0.00000000D+00 0.00000000D+00 0.00000000D+00 0.00000000D+00
  <mgrwgt>
 0.2226592792D-03    3    2    0
 0.107522033631705D+04 0.000000000000000D+00 0.000000000000000D+00 0.107522033631705D+04
 0.107522033631705D+04 0.000000000000000D+00 0.000000000000000D+00 -.107522033631705D+04
 0.797701771915760D+03 -.513581927099332D+03 0.582407842710854D+03 -.133183429237160D+03
 0.862886456724036D+03 0.383334456552185D+03 -.491631590521943D+03 0.596595433119016D+03
 0.489852443994303D+03 0.130247470547147D+03 -.907762521889108D+02 -.463412003881856D+03
 0.000000000000000D+00 -.000000000000000D+00 -.000000000000000D+00 -.000000000000000D+00
 0.107530820459318D+04 0.000000000000000D+00 0.000000000000000D+00 0.107530820459318D+04
 0.132582820237219D+04 0.000000000000000D+00 0.000000000000000D+00 -.132582820237219D+04
 0.799249714860202D+03 -.512460859474364D+03 0.585509306832557D+03 -.133183429237160D+03
 0.861522405347932D+03 0.384544999867674D+03 -.488282589465148D+03 0.596595433119016D+03
 0.489686894142089D+03 0.130935111874051D+03 -.888738737270827D+02 -.463412003881856D+03
 0.250677392615144D+03 -.301925226736104D+01 -.835284364032650D+01 -.250519997779007D+03
-.932836807971D-03 0.000000000000D+00 0.000000000000D+00 0.148726084685D-06 0.000000000000D+00  6 1 2 25 1 2 21 2 0.12000767D+00 0.28198903D+00 0.62152048D+06 0.62152048D+06 0.62152048D+06 0.10618961D+01  1  2 13  2  6  2        2 -.284781817590D-02 0.100000000000D+01
-.106539016975D-06 0.000000000000D+00 0.000000000000D+00 0.148726084685D-06 0.000000000000D+00  6 1 2 25 1 2 21 2 0.12000767D+00 0.28116983D+00 0.62152048D+06 0.62152048D+06 0.62152048D+06 0.10618961D+01  1  2 13  2  6  2        2 -.327455289753D-06 0.100000000000D+01
0.999125146503D-03 0.000000000000D+00 0.000000000000D+00 0.148726084685D-06 0.122633372386D-07  6 1 2 25 1 2 21 2 0.12001748D+00 0.28115707D+00 0.62152048D+06 0.62152048D+06 0.62152048D+06 0.10618961D+01  1  2  1  2  6  2        2 0.307080491034D-02 0.100000000000D+01
  </mgrwgt>
  </event>
  <event>
  6     66 0.17698235E-05 0.14645020E+02 0.75467711E-02 0.93533120E-01
        1 -1    0    0  501    0 0.00000000E+00 0.00000000E+00 0.53676008E+03 0.53676018E+03 0.32000000E+00 0.0000E+00 0.9000E+01
        2 -1    0    0  502    0 -.00000000E+00 -.00000000E+00 -.29452945E+04 0.29452945E+04 0.32000000E+00 0.0000E+00 0.9000E+01
       25  1    1    2    0    0 0.93439905E+02 -.50290359E+03 -.80264229E+03 0.95994932E+03 0.12500000E+03 0.0000E+00 0.9000E+01
        1  1    1    2  503    0 -.20706238E+02 -.12243012E+02 0.11506661E+03 0.11755453E+03 0.32000000E+00 0.0000E+00 0.9000E+01
        2  1    1    2  502    0 -.60258622E+02 0.52917361E+03 -.20280847E+04 0.20968508E+04 0.32000000E+00 0.0000E+00 0.9000E+01
       21  1    1    2  501  503 -.12475045E+02 -.14027009E+02 0.30712596E+03 0.30770002E+03 0.75000000E+00 0.0000E+00 0.9000E+01
#aMCatNLO 2  0  0  4  2 0.12617276D+02 0.00000000D+00  -5  6  0 0.00000000D+00 0.00000000D+00 0.00000000D+00 0.00000000D+00 0.00000000D+00
  <mgrwgt>
 0.1172132030D-01    2    2    0
 0.125734510313397D+04 0.000000000000000D+00 0.000000000000000D+00 0.125734510313397D+04
 0.125734510313397D+04 -.000000000000000D+00 -.000000000000000D+00 -.125734510313397D+04
 0.560647178192401D+03 0.934665990643266D+02 -.503117476585520D+03 -.191929825792315D+03
 0.992843601409595D+03 -.331824376125175D+02 -.262709354473831D+02 0.991941117529053D+03
 0.961199426665950D+03 -.602841614518089D+02 0.529388412032904D+03 -.800011291736738D+03
 0.000000000000000D+00 0.000000000000000D+00 0.000000000000000D+00 0.000000000000000D+00
 0.125734510313397D+04 0.000000000000000D+00 0.000000000000000D+00 0.125734510313397D+04
 0.125734510313397D+04 -.000000000000000D+00 -.000000000000000D+00 -.125734510313397D+04
 0.560618150474900D+03 0.934636027306959D+02 -.503119848818938D+03 -.191840254719662D+03
 0.273200652074808D+03 -.206867924754291D+02 -.122371782432743D+02 0.272141331627192D+03
 0.961069705039173D+03 -.602892982909668D+02 0.529384345135484D+03 -.799857733338336D+03
 0.719801698679065D+03 -.124875119642998D+02 -.140273180732707D+02 0.719556656430806D+03
-.107451431004D-08 0.000000000000D+00 0.000000000000D+00 0.433480905562D-04 0.000000000000D+00  6 1 2 25 1 2 21 2 0.82578483D-01 0.45312224D+00 0.30381878D+06 0.30381878D+06 0.30381878D+06 0.10841457D+01  1  2 13  3  6  4        1 -.143298383033D-08 0.100000000000D+01
0.878916263203D-02 0.000000000000D+00 0.000000000000D+00 0.433480905562D-04 0.670926089466D-06  6 1 2 25 1 2 21 2 0.82578483D-01 0.45312224D+00 0.30381878D+06 0.30381878D+06 0.30381878D+06 0.10841457D+01  1  2  1  3  6  4        1 0.117213217322D-01 0.100000000000D+01
  </mgrwgt>
  </event>
  <event>
  5     66 0.17698235E-05 0.34059223E+02 0.75467711E-02 0.81828800E-01
        1 -1    0    0  501    0 0.00000000E+00 0.00000000E+00 0.51091046E+03 0.51091056E+03 0.32000000E+00 0.0000E+00 0.9000E+01
        2 -1    0    0  502    0 0.00000000E+00 0.00000000E+00 -.16514788E+04 0.16514788E+04 0.32000000E+00 0.0000E+00 0.9000E+01
       25  1    1    2    0    0 0.36917550E+03 -.29877893E+03 -.36997711E+03 0.61487191E+03 0.12500000E+03 0.0000E+00 0.9000E+01
        1  1    1    2  501    0 0.30367663E+02 -.15434007E+02 0.33182166E+03 0.33356576E+03 0.32000000E+00 0.0000E+00 0.9000E+01
        2  1    1    2  502    0 -.39954317E+03 0.31421294E+03 -.11024129E+04 0.12139517E+04 0.32000000E+00 0.0000E+00 0.9000E+01
#aMCatNLO 1  0  0  2  1 0.19250550D+03 0.00000000D+00  -5  6  0 0.00000000D+00 0.00000000D+00 0.00000000D+00 0.00000000D+00 0.00000000D+00
  <mgrwgt>
 0.1986540344D-01    3    2    0
 0.918562968372314D+03 0.000000000000000D+00 0.000000000000000D+00 0.918562968372314D+03
 0.918562968372314D+03 0.000000000000000D+00 0.000000000000000D+00 -.918562968372314D+03
 0.494108035881897D+03 0.369239167293630D+03 -.298828466178999D+03 -.536818056745465D+02
 0.598536794956244D+03 0.303627839436847D+02 -.154315269726872D+02 0.597566953774197D+03
 0.744481105906487D+03 -.399601951237315D+03 0.314259993151686D+03 -.543885148099651D+03
 0.000000000000000D+00 -.000000000000000D+00 0.000000000000000D+00 0.000000000000000D+00
 0.753903270598056D+04 0.000000000000000D+00 0.000000000000000D+00 0.753903270598056D+04
 0.141010726872513D+04 0.000000000000000D+00 0.000000000000000D+00 -.141010726872513D+04
 0.113170552610580D+04 0.982801008475912D+03 -.544382989536467D+03 -.536818056745465D+02
 0.868521597669263D+03 0.584012396388015D+03 -.237008485586750D+03 0.597566953774197D+03
 0.564176333352002D+03 0.942691091852966D+02 0.116607100317867D+03 -.543885148099651D+03
 0.638473651757862D+04 -.166108251404922D+04 0.664784374805349D+03 0.612892543725542D+04
0.350219238616D-02 0.000000000000D+00 0.000000000000D+00 0.136672327888D-04 0.000000000000D+00  6 1 2 25 1 2 21 0 0.78601620D-01 0.25407367D+00 0.26708921D+06 0.26708921D+06 0.26708921D+06 0.10883053D+01  1  2  2  2  6  2        2 0.235112698630D-01 0.100000000000D+01
0.195107611317D-02 0.000000000000D+00 -.134493409113D-04 0.136672327888D-04 0.000000000000D+00  6 1 2 25 1 2 21 2 0.78601620D-01 0.25407367D+00 0.26708921D+06 0.26708921D+06 0.26708921D+06 0.10883053D+01  1  2  3  2  6  2        2 0.155135725528D-01 0.100000000000D+01
-.240960124459D-02 0.000000000000D+00 0.000000000000D+00 0.136672327888D-04 0.000000000000D+00  6 1 2 25 1 2 21 2 0.78601620D-01 0.25407367D+00 0.26708921D+06 0.26708921D+06 0.26708921D+06 0.10883053D+01  1  2 15  2  6  2        2 -.191594389777D-01 0.100000000000D+01
  </mgrwgt>
  </event>
  <event>
  6     66 0.17698235E-05 0.56517097E+02 0.75467711E-02 0.91736465E-01
        1 -1    0    0  501    0 0.00000000E+00 0.00000000E+00 0.21965638E+04 0.21965638E+04 0.32000000E+00 0.0000E+00 0.9000E+01
        2 -1    0    0  503    0 0.00000000E+00 0.00000000E+00 -.20019134E+04 0.20019134E+04 0.32000000E+00 0.0000E+00 0.9000E+01
       25  1    1    2    0    0 0.60983452E+03 0.38900184E+02 0.18358309E+03 0.65018391E+03 0.12500000E+03 0.0000E+00 0.9000E+01
        1  1    1    2  501    0 0.26869400E+02 -.12619006E+02 0.16893089E+04 0.16895697E+04 0.32000000E+00 0.0000E+00 0.9000E+01
        2  1    1    2  502    0 -.57291709E+03 -.58270676E+02 -.84582922E+03 0.10232579E+04 0.32000000E+00 0.0000E+00 0.9000E+01
       21  1    1    2  503  502 -.63786835E+02 0.31989498E+02 -.83241234E+03 0.83546571E+03 0.75000000E+00 0.0000E+00 0.9000E+01
#aMCatNLO 2  0  0  2  5 0.13355547D+02 0.00000000D+00  -5  6  0 0.00000000D+00 0.00000000D+00 0.00000000D+00 0.00000000D+00 0.00000000D+00
  <mgrwgt>
 0.2821782012D-01    1    2    0
 0.160077296205670D+04 0.000000000000000D+00 0.000000000000000D+00 0.160077296205670D+04
 0.160077296205670D+04 0.000000000000000D+00 0.000000000000000D+00 -.160077296205670D+04
 0.612369938175821D+03 0.597573302264016D+03 0.450795462487421D+02 -.156819677574136D+02
 0.123212184086640D+04 0.231902017878188D+01 -.306880214977238D+00 0.123211962029258D+04
 0.135705414507118D+04 -.599892322442798D+03 -.447726660337648D+02 -.121643765253517D+04
 0.000000000000000D+00 -.000000000000000D+00 0.000000000000000D+00 -.000000000000000D+00
 0.160228405846475D+04 0.000000000000000D+00 0.000000000000000D+00 0.160228405846475D+04
 0.274441340866453D+04 0.000000000000000D+00 0.000000000000000D+00 -.274441340866453D+04
 0.623977507711451D+03 0.609888118263197D+03 0.389035887602430D+02 -.156819677574136D+02
 0.123247712822563D+04 0.268680115784915D+02 -.126183534258006D+02 0.123211962029258D+04
 0.134588644403155D+04 -.572969295164144D+03 -.582747331329184D+02 -.121643765253517D+04
 0.114435638716065D+04 -.637868346775452D+02 0.319894977984760D+02 -.114212935019979D+04
0.110085911063D+00 0.000000000000D+00 0.000000000000D+00 0.166915350293D-03 0.233982907349D-06  6 1 2 25 1 2 21 2 0.33793287D+00 0.30798665D+00 0.42298632D+06 0.42298632D+06 0.42298632D+06 0.10736826D+01  1  2  1  2  6  2        2 0.282178201184D-01 0.100000000000D+01
  </mgrwgt>
  </event>
  <event>
  6     66 0.17698235E-05 0.13519089E+03 0.75467711E-02 0.93780346E-01
        1 -1    0    0  501    0 0.00000000E+00 0.00000000E+00 0.11048160E+04 0.11048160E+04 0.32000000E+00 0.0000E+00 0.9000E+01
        2 -1    0    0  502    0 -.00000000E+00 -.00000000E+00 -.17355946E+04 0.17355946E+04 0.32000000E+00 0.0000E+00 0.9000E+01
       25  1    1    2    0    0 -.16100561E+03 0.43695700E+03 0.13458584E+02 0.48234880E+03 0.12500000E+03 0.0000E+00 0.9000E+01
        1  1    1    2  501    0 0.13561346E+03 -.10874054E+03 0.81611130E+03 0.83441792E+03 0.32000000E+00 0.0000E+00 0.9000E+01
        2  1    1    2  503    0 -.50760871E+02 -.34111133E+03 -.10240525E+04 0.10805633E+04 0.32000000E+00 0.0000E+00 0.9000E+01
       21  1    1    2  502  503 0.76153025E+02 0.12894869E+02 -.43629608E+03 0.44308057E+03 0.75000000E+00 0.0000E+00 0.9000E+01
#aMCatNLO 2  0  0  5  1 0.12781803D+03 0.00000000D+00  -5  6  0 0.00000000D+00 0.00000000D+00 0.00000000D+00 0.00000000D+00 0.00000000D+00
  <mgrwgt>
 0.1090317554D-02    2    2    0
 0.138474283618986D+04 0.000000000000000D+00 0.000000000000000D+00 0.138474283618986D+04
 0.138474283618986D+04 -.000000000000000D+00 -.000000000000000D+00 -.138474283618986D+04
 0.500746735169158D+03 -.161130752422405D+03 0.438623673197135D+03 0.129493037331795D+03
 0.105320525246125D+04 0.135340674977669D+03 -.105275677572694D+03 0.103915409695587D+04
 0.121553368474930D+04 0.257900774447366D+02 -.333347995624441D+03 -.116864713428767D+04
 0.000000000000000D+00 0.000000000000000D+00 0.000000000000000D+00 -.000000000000000D+00
 0.138474283618986D+04 0.000000000000000D+00 0.000000000000000D+00 0.138474283618986D+04
 0.138474283618986D+04 -.000000000000000D+00 -.000000000000000D+00 -.138474283618986D+04
 0.497791454423154D+03 -.161003077601402D+03 0.436973420468561D+03 0.123707602448689D+03
 0.104162239256026D+04 0.135608523265696D+03 -.108737733479141D+03 0.102701686569329D+04
 0.874837897215095D+03 -.507843896571318D+02 -.341110334690879D+03 -.803993800808164D+03
 0.355233928181209D+03 0.761789439928375D+02 0.128746477014587D+02 -.346730667333814D+03
-.279822333996D-09 0.000000000000D+00 0.000000000000D+00 0.331758214258D-04 0.000000000000D+00  6 1 2 25 1 2 21 2 0.16997169D+00 0.26701456D+00 0.29058825D+06 0.29058825D+06 0.29058825D+06 0.10855775D+01  1  2 13  4  6  5        2 -.584260506331D-09 0.100000000000D+01
0.522190637358D-03 0.000000000000D+00 0.000000000000D+00 0.331758214258D-04 0.873527880486D-08  6 1 2 25 1 2 21 2 0.16997169D+00 0.26701456D+00 0.29058825D+06 0.29058825D+06 0.29058825D+06 0.10855775D+01  1  2  1  4  6  5        2 0.109031813804D-02 0.100000000000D+01
  </mgrwgt>
  </event>
  <event>
  5     66 0.17698235E-05 0.76072659E+02 0.75467711E-02 0.93315951E-01
        1 -1    0    0  501    0 0.00000000E+00 0.00000000E+00 0.13503626E+03 0.13503664E+03 0.32000000E+00 0.0000E+00 0.9000E+01
        2 -1    0    0  502    0 -.00000000E+00 -.00000000E+00 -.27918629E+04 0.27918629E+04 0.32000000E+00 0.0000E+00 0.9000E+01
       25  1    1    2    0    0 0.45366658E+03 -.14512058E+03 -.11945548E+04 0.12920757E+04 0.12500000E+03 0.0000E+00 0.9000E+01
        1  1    1    2  501    0 0.75412350E+02 -.10717992E+02 -.46186167E+01 0.76310758E+02 0.32000000E+00 0.0000E+00 0.9000E+01
        2  1    1    2  502    0 -.52907893E+03 0.15583857E+03 -.14576532E+04 0.15585131E+04 0.32000000E+00 0.0000E+00 0.9000E+01
#aMCatNLO 1  0  0  4  1 0.12994798D+02 0.00000000D+00  -5  6  0 0.00000000D+00 0.00000000D+00 0.00000000D+00 0.00000000D+00 0.00000000D+00
  <mgrwgt>
 0.2432896990D-01    8    2    0
 0.614005949058936D+03 0.000000000000000D+00 0.000000000000000D+00 0.614005949058936D+03
 0.614005949058936D+03 -.000000000000000D+00 -.000000000000000D+00 -.614005949058936D+03
 0.495319402860211D+03 0.453840218044556D+03 -.145165942308962D+03 -.516934863267828D+02
 0.171669686051954D+03 0.753157887457508D+02 -.107042679631657D+02 0.153894222510641D+03
 0.561022809205707D+03 -.529156006790307D+03 0.155870210272128D+03 -.102200736183858D+03
 0.000000000000000D+00 0.000000000000000D+00 0.000000000000000D+00 0.000000000000000D+00
 0.614005949058936D+03 0.000000000000000D+00 0.000000000000000D+00 0.614005949058936D+03
 0.614005949058936D+03 -.000000000000000D+00 -.000000000000000D+00 -.614005949058936D+03
 0.496072334446276D+03 0.454844981429571D+03 -.145308744458311D+03 -.496404336731609D+02
 0.153370906201332D+03 0.606445341388880D+02 -.205879818415647D+02 0.139359285129433D+03
 0.559488007957666D+03 -.528020382799070D+03 0.155708809539160D+03 -.998802934970556D+02
 0.190806495125995D+02 0.125308672306105D+02 0.101879167607153D+02 0.101614420407839D+02
0.122754020564D-02 0.000000000000D+00 0.000000000000D+00 0.525355559571D-07 0.000000000000D+00  6 1 2 25 1 2 21 0 0.20774840D-01 0.42951740D+00 0.31378068D+06 0.31378068D+06 0.31378068D+06 0.10831117D+01  1  2  2  3  6  4        1 0.109723702571D-01 0.100000000000D+01
0.175472254274D-03 0.000000000000D+00 -.471407760842D-05 0.525355559571D-07 0.000000000000D+00  6 1 2 25 1 2 21 2 0.20774840D-01 0.42951740D+00 0.31378068D+06 0.31378068D+06 0.31378068D+06 0.10831117D+01  1  2  3  3  6  4        1 0.184000802559D-02 0.100000000000D+01
-.870833603201D-03 0.000000000000D+00 0.000000000000D+00 0.525355559571D-07 0.000000000000D+00  6 1 2 25 1 2 21 2 0.20774840D-01 0.42951740D+00 0.31378068D+06 0.31378068D+06 0.31378068D+06 0.10831117D+01  1  2 15  3  6  4        1 -.913159077756D-02 0.100000000000D+01
0.104496416637D-02 0.000000000000D+00 0.000000000000D+00 0.525355559571D-07 0.000000000000D+00  6 1 2 25 1 2 21 2 0.20774840D-01 0.42951740D+00 0.31599947D+06 0.31599947D+06 0.31599947D+06 0.10828863D+01  1  2 12  3  6  4        1 0.109488493903D-01 0.100000000000D+01
0.151795023038D-04 0.000000000000D+00 0.000000000000D+00 0.525355559571D-07 0.000000000000D+00  6 1 2 25 1 2 21 2 0.20774840D-01 0.42951740D+00 0.31599947D+06 0.31599947D+06 0.31599947D+06 0.10828863D+01  1  2 12  3  6  4        1 0.159046683029D-03 0.100000000000D+01
-.651025525075D-03 0.000000000000D+00 0.000000000000D+00 0.525355559571D-07 0.000000000000D+00  6 1 2 25 1 2 21 2 0.20774840D-01 0.42951740D+00 0.31378068D+06 0.31378068D+06 0.31378068D+06 0.10831117D+01  1  2  4  3  6  4        1 -.682667579532D-02 0.100000000000D+01
-.823800712252D-02 0.000000000000D+00 0.000000000000D+00 0.525355559571D-07 0.000000000000D+00  6 1 2 25 1 2 21 2 0.20774840D-01 0.42951740D+00 0.31378068D+06 0.31378068D+06 0.31378068D+06 0.10831117D+01  1  2  5  3  6  4        1 -.863840228362D-01 0.100000000000D+01
0.979884147628D-02 0.000000000000D+00 -.000000000000D+00 0.525355559571D-07 0.000000000000D+00  6 1 2 25 1 2 21 2 0.20774840D-01 0.42951740D+00 0.31378068D+06 0.31378068D+06 0.31378068D+06 0.10831117D+01  1  2  6  3  6  4        1 0.102750984949D+00 0.100000000000D+01
  </mgrwgt>
  </event>
  <event>
  5     66 -.17698235E-05 0.55551046E+02 0.75467711E-02 0.92572272E-01
        1 -1    0    0  501    0 0.00000000E+00 0.00000000E+00 0.34831149E+04 0.34831149E+04 0.32000000E+00 0.0000E+00 0.9000E+01
        2 -1    0    0  502    0 0.00000000E+00 0.00000000E+00 -.41534303E+03 0.41534315E+03 0.32000000E+00 0.0000E+00 0.9000E+01
       25  1    1    2    0    0 0.11003583E+03 -.54165716E+03 0.12957423E+04 0.14142396E+04 0.12500000E+03 0.0000E+00 0.9000E+01
        1  1    1    2  501    0 -.98163436E+02 0.48739666E+03 0.20966946E+04 0.21548364E+04 0.32000000E+00 0.0000E+00 0.9000E+01
        2  1    1    2  502    0 -.11872389E+02 0.54260504E+02 -.32466499E+03 0.32938217E+03 0.32000000E+00 0.0000E+00 0.9000E+01
#aMCatNLO 1  0  0  2  5 0.85465094D+01 0.00000000D+00  -5  6  0 0.00000000D+00 0.00000000D+00 0.00000000D+00 0.00000000D+00 0.00000000D+00
  <mgrwgt>
 -.1393714447D-01    5    2    0
 0.120278334168008D+04 0.000000000000000D+00 0.000000000000000D+00 0.120278334168008D+04
 0.120278334168008D+04 0.000000000000000D+00 0.000000000000000D+00 -.120278334168008D+04
 0.639502911318816D+03 0.110026451674713D+03 -.541610063391519D+03 0.296465331447285D+03
 0.818161124399828D+03 -.981525988672203D+02 0.487342851391955D+03 0.649808154774900D+03
 0.947902647641511D+03 -.118738528074928D+02 0.542672119995644D+02 -.946273486222185D+03
 0.000000000000000D+00 -.000000000000000D+00 -.000000000000000D+00 -.000000000000000D+00
 0.120346593956764D+04 0.000000000000000D+00 0.000000000000000D+00 0.120346593956764D+04
 0.364523520866778D+04 0.000000000000000D+00 0.000000000000000D+00 -.364523520866778D+04
 0.627120633264090D+03 0.111760309985755D+03 -.526567402169269D+03 0.296465331447285D+03
 0.829703466863386D+03 -.958968665075516D+02 0.506913203524227D+03 0.649808154774900D+03
 0.949430277703387D+03 -.927662770813888D+01 0.768002973380206D+02 -.946273486222185D+03
 0.244244677040455D+04 -.658681577006487D+01 -.571460986929788D+02 -.244176926910013D+04
0.237652635473D-03 0.000000000000D+00 0.000000000000D+00 0.231394010705D-04 0.000000000000D+00  6 1 2 25 1 2 21 0 0.53586385D+00 0.63898938D-01 0.31321495D+06 0.31321495D+06 0.31321495D+06 0.10831695D+01  1  2  2  2  6  2        2 0.664846528193D-04 0.100000000000D+01
0.109673274125D-03 0.000000000000D+00 -.912648695594D-06 0.231394010705D-04 0.000000000000D+00  6 1 2 25 1 2 21 2 0.53586385D+00 0.63898938D-01 0.31321495D+06 0.31321495D+06 0.31321495D+06 0.10831695D+01  1  2  3  2  6  2        2 0.359975069651D-04 0.100000000000D+01
-.146695061601D-03 0.000000000000D+00 0.000000000000D+00 0.231394010705D-04 0.000000000000D+00  6 1 2 25 1 2 21 2 0.53586385D+00 0.63898938D-01 0.31321495D+06 0.31321495D+06 0.31321495D+06 0.10831695D+01  1  2 15  2  6  2        2 -.481489820001D-04 0.100000000000D+01
-.167607060987D+00 0.000000000000D+00 -.141130011364D-03 0.231394010705D-04 0.000000000000D+00  6 1 2 25 1 2 21 2 0.53586385D+00 0.19367846D+00 0.31321495D+06 0.31321495D+06 0.31321495D+06 0.10831695D+01  1  2  5  2  6  2        2 -.131977715813D-01 0.100000000000D+01
-.211813488370D-01 0.000000000000D+00 -.178411343986D-04 0.231394010705D-04 0.000000000000D+00  6 1 21 25 1 2 -2 2 0.53586385D+00 0.19367846D+00 0.31321495D+06 0.31321495D+06 0.31321495D+06 0.10831695D+01  1  2  5  6  6  2        2 -.793706061542D-03 0.100000000000D+01
  </mgrwgt>
  </event>
  <event>
  5     66 0.17698235E-05 0.12500174E+03 0.75467711E-02 0.93424698E-01
        1 -1    0    0  501    0 0.00000000E+00 0.00000000E+00 0.24495296E+04 0.24495296E+04 0.32000000E+00 0.0000E+00 0.9000E+01
        2 -1    0    0  502    0 0.00000000E+00 0.00000000E+00 -.11865888E+04 0.11865889E+04 0.32000000E+00 0.0000E+00 0.9000E+01
       25  1    1    2    0    0 0.43448323E+03 0.32751158E+03 0.59867869E+03 0.81858457E+03 0.12500000E+03 0.0000E+00 0.9000E+01
        1  1    1    2  501    0 -.10813698E+03 -.62722951E+02 0.16975009E+04 0.17020979E+04 0.32000000E+00 0.0000E+00 0.9000E+01
        2  1    1    2  502    0 -.32634626E+03 -.26478863E+03 -.10332388E+04 0.11154360E+04 0.32000000E+00 0.0000E+00 0.9000E+01
#aMCatNLO 1  0  0  1  4 0.60622798D+01 0.00000000D+00  -5  6  0 0.00000000D+00 0.00000000D+00 0.00000000D+00 0.00000000D+00 0.00000000D+00
  <mgrwgt>
 0.1184007008D-01   10    2    0
 0.170487083484279D+04 0.000000000000000D+00 0.000000000000000D+00 0.170487083484279D+04
 0.170487083484279D+04 0.000000000000000D+00 0.000000000000000D+00 -.170487083484279D+04
 0.651258045949711D+03 0.434504309681486D+03 0.327530332129833D+03 0.335323618042888D+03
 0.118627271299537D+04 -.108128880333373D+03 -.627182550404670D+02 0.117966839210005D+04
 0.157221091074051D+04 -.326375429348113D+03 -.264812077089366D+03 -.151499201014294D+04
 0.000000000000000D+00 0.000000000000000D+00 0.000000000000000D+00 0.000000000000000D+00
 0.171806706164509D+04 0.000000000000000D+00 0.000000000000000D+00 0.171806706164509D+04
 0.170556991678241D+04 0.000000000000000D+00 0.000000000000000D+00 -.170556991678241D+04
 0.650323888182368D+03 0.433789396874881D+03 0.326620559490961D+03 0.335323618042888D+03
 0.118648104772810D+04 -.109432149844096D+03 -.643767495183640D+02 0.117966839210005D+04
 0.157294212292349D+04 -.328102950392726D+03 -.267010458996843D+03 -.151499201014294D+04
 0.138899195935396D+02 0.374570336194149D+01 0.476664902424664D+01 0.124971448626870D+02
0.202395382111D-02 0.000000000000D+00 0.000000000000D+00 0.797847930738D-04 0.000000000000D+00  6 1 2 25 1 2 21 0 0.37685071D+00 0.18255213D+00 0.30447857D+06 0.30447857D+06 0.30447857D+06 0.10840761D+01  1  2  2  1  6  1        1 0.883290744034D-03 0.100000000000D+01
0.418384016625D-03 0.000000000000D+00 -.777251559236D-05 0.797847930738D-04 0.000000000000D+00  6 1 2 25 1 2 21 2 0.37685071D+00 0.18255213D+00 0.30447857D+06 0.30447857D+06 0.30447857D+06 0.10840761D+01  1  2  3  1  6  1        1 0.214584167129D-03 0.100000000000D+01
-.131670032076D-02 0.000000000000D+00 0.000000000000D+00 0.797847930738D-04 0.000000000000D+00  6 1 2 25 1 2 21 2 0.37685071D+00 0.18255213D+00 0.30447857D+06 0.30447857D+06 0.30447857D+06 0.10840761D+01  1  2 15  1  6  1        1 -.675319874711D-03 0.100000000000D+01
-.171952767562D-02 0.000000000000D+00 0.000000000000D+00 0.797847930738D-04 0.000000000000D+00  6 1 2 25 1 2 21 2 0.37685071D+00 0.18255213D+00 0.30447857D+06 0.30447857D+06 0.30447857D+06 0.10840761D+01  1  2  4  1  6  1        1 -.881925215747D-03 0.100000000000D+01
-.745894781076D+00 0.000000000000D+00 -.447947363196D-01 0.797847930738D-04 0.000000000000D+00  6 1 2 25 1 2 21 2 0.37981722D+00 0.18255213D+00 0.30447857D+06 0.30447857D+06 0.30447857D+06 0.10840761D+01  1  2  5  1  6  1        1 -.371016681753D+00 0.100000000000D+01
0.746224454513D+00 0.000000000000D+00 0.447933593319D-01 0.797847930738D-04 0.000000000000D+00  6 1 2 25 1 2 21 2 0.37685071D+00 0.18255213D+00 0.30447857D+06 0.30447857D+06 0.30447857D+06 0.10840761D+01  1  2  6  1  6  1        1 0.382729613704D+00 0.100000000000D+01
0.152232888252D-02 0.000000000000D+00 0.000000000000D+00 0.797847930738D-04 0.438580790643D-06  6 1 2 25 1 2 21 2 0.37976765D+00 0.18262699D+00 0.30983294D+06 0.30983294D+06 0.30983294D+06 0.10835171D+01  1  2 11  1  6  1        1 0.755186237034D-03 0.100000000000D+01
0.971822029795D-11 0.000000000000D+00 0.000000000000D+00 0.797847930738D-04 0.000000000000D+00  6 21 2 25 1 2 -1 2 0.37985270D+00 0.18255213D+00 0.30983294D+06 0.30983294D+06 0.30983294D+06 0.10835171D+01  1  2 12  5  6  1        1 0.167276196573D-11 0.100000000000D+01
-.108279855854D-02 0.000000000000D+00 -.650889207920D-04 0.797847930738D-04 0.000000000000D+00  6 21 2 25 1 2 -1 2 0.37981722D+00 0.18255213D+00 0.30447857D+06 0.30447857D+06 0.30447857D+06 0.10840761D+01  1  2  5  5  6  1        1 -.187121150500D-03 0.100000000000D+01
0.107077654598D-03 0.000000000000D+00 0.000000000000D+00 0.797847930738D-04 0.169529906200D-07  6 21 2 25 1 2 -1 2 0.37976765D+00 0.18262699D+00 0.30983294D+06 0.30983294D+06 0.30983294D+06 0.10835171D+01  1  2 11  5  6  1        1 0.184432183080D-04 0.100000000000D+01
  </mgrwgt>
  </event>
  <event>
  6     66 0.17698235E-05 0.94615031E+02 0.75467711E-02 0.94740458E-01
        1 -1    0    0  501    0 0.00000000E+00 0.00000000E+00 0.20755526E+04 0.20755526E+04 0.32000000E+00 0.0000E+00 0.9000E+01
        2 -1    0    0  502    0 0.00000000E+00 0.00000000E+00 -.16729085E+04 0.16729085E+04 0.32000000E+00 0.0000E+00 0.9000E+01
       25  1    1    2    0    0 0.41054093E+02 0.47449680E+03 0.75093477E+03 0.89797588E+03 0.12500000E+03 0.0000E+00 0.9000E+01
        1  1    1    2  503    0 -.86151209E+02 -.27299099E+03 0.85010005E+03 0.89700407E+03 0.32000000E+00 0.0000E+00 0.9000E+01
        2  1    1    2  502    0 0.20013372E+02 -.19856010E+02 -.15535340E+04 0.15537898E+04 0.32000000E+00 0.0000E+00 0.9000E+01
       21  1    1    2  501  503 0.25083743E+02 -.18164981E+03 0.35514332E+03 0.39969136E+03 0.75000000E+00 0.0000E+00 0.9000E+01
#aMCatNLO 2  0  0  4  2 0.33609166D+02 0.00000000D+00  -5  6  0 0.00000000D+00 0.00000000D+00 0.00000000D+00 0.00000000D+00 0.00000000D+00
  <mgrwgt>
 0.3146773935D-01    1    2    0
 0.186338660853486D+04 0.000000000000000D+00 0.000000000000000D+00 0.186338660853486D+04
 0.186338660853486D+04 -.000000000000000D+00 -.000000000000000D+00 -.186338660853486D+04
 0.821474422197838D+03 0.411187358400584D+02 0.475025925597823D+03 0.657156637262471D+03
 0.117117005090102D+04 -.613291992782713D+02 -.456589369473982D+03 0.107675631650189D+04
 0.173412874397086D+04 0.202104634382130D+02 -.184365561238413D+02 -.173391295376437D+04
 0.000000000000000D+00 0.000000000000000D+00 -.000000000000000D+00 0.000000000000000D+00
 0.186338660853486D+04 0.000000000000000D+00 0.000000000000000D+00 0.186338660853486D+04
 0.186338660853486D+04 -.000000000000000D+00 -.000000000000000D+00 -.186338660853486D+04
 0.822355573207713D+03 0.410279415143201D+02 0.474349971493930D+03 0.658750712595131D+03
 0.809885684602800D+03 -.861261980092166D+02 -.272797403234894D+03 0.757679798417064D+03
 0.173078266524788D+04 0.200190845875883D+02 -.198613513236102D+02 -.173055291664208D+04
 0.363749294011329D+03 0.250791719073081D+02 -.181691216935425D+03 0.314122405629888D+03
0.618556032479D-01 0.000000000000D+00 0.000000000000D+00 0.374601832683D-03 0.165225527842D-06  6 1 2 25 1 2 21 2 0.31931579D+00 0.25737054D+00 0.24499543D+06 0.24499543D+06 0.24499543D+06 0.10911204D+01  1  2  1  3  6  4        1 0.314677393538D-01 0.100000000000D+01
  </mgrwgt>
  </event>
  <event>
  5     66 0.17698235E-05 0.80680736E+02 0.75467711E-02 0.81655698E-01
        1 -1    0    0  501    0 0.00000000E+00 0.00000000E+00 0.12439113E+04 0.12439113E+04 0.32000000E+00 0.0000E+00 0.9000E+01
        2 -1    0    0  502    0 0.00000000E+00 0.00000000E+00 -.76807716E+03 0.76807723E+03 0.32000000E+00 0.0000E+00 0.9000E+01
       25  1    1    2    0    0 0.24360172E+03 0.55869784E+03 0.36661252E+03 0.72215983E+03 0.12500000E+03 0.0000E+00 0.9000E+01
        1  1    1    2  501    0 -.20079866E+02 -.78170949E+02 0.57719819E+03 0.58281365E+03 0.32000000E+00 0.0000E+00 0.9000E+01
        2  1    1    2  502    0 -.22352186E+03 -.48052689E+03 -.46797660E+03 0.70701507E+03 0.32000000E+00 0.0000E+00 0.9000E+01
#aMCatNLO 1  0  0  2  4 0.11316230D+03 0.00000000D+00  -5  6  0 0.00000000D+00 0.00000000D+00 0.00000000D+00 0.00000000D+00 0.00000000D+00
  <mgrwgt>
 0.6268721119D-02    5    2    0
 0.977455858746337D+03 0.000000000000000D+00 0.000000000000000D+00 0.977455858746337D+03
 0.977455858746337D+03 0.000000000000000D+00 0.000000000000000D+00 -.977455858746337D+03
 0.654114756833085D+03 0.243631491449989D+03 0.558752854279783D+03 0.201692982810151D+03
 0.459177860707309D+03 -.200729020889871D+02 -.781438401322258D+02 0.452034209562568D+03
 0.841619099952280D+03 -.223558589361002D+03 -.480609014147557D+03 -.653727192372719D+03
 0.000000000000000D+00 0.000000000000000D+00 -.000000000000000D+00 -.000000000000000D+00
 0.149953220443174D+04 0.000000000000000D+00 0.000000000000000D+00 0.149953220443174D+04
 0.503270200295823D+04 0.000000000000000D+00 0.000000000000000D+00 -.503270200295823D+04
 0.117866801686117D+04 -.116572938115072D+03 0.114863570585099D+04 0.201692982810151D+03
 0.561990709974060D+03 -.220767413065121D+03 0.250520220363201D+03 0.452034209562568D+03
 0.862468599776239D+03 -.558470040199390D+03 0.678532073829986D+02 -.653727192372719D+03
 0.392910688077850D+04 0.895810391379582D+03 -.146700913359719D+04 -.353316979852649D+04
0.188542670220D-02 0.000000000000D+00 0.000000000000D+00 0.263607173613D-05 0.000000000000D+00  6 1 2 25 1 2 21 0 0.19137097D+00 0.11816573D+00 0.38006200D+06 0.38006200D+06 0.38006200D+06 0.10770321D+01  1  2  2  2  6  2        2 0.974799041263D-02 0.100000000000D+01
0.470733650423D-03 0.000000000000D+00 -.724053498072D-05 0.263607173613D-05 0.000000000000D+00  6 1 2 25 1 2 21 2 0.19137097D+00 0.11816573D+00 0.38006200D+06 0.38006200D+06 0.38006200D+06 0.10770321D+01  1  2  3  2  6  2        2 0.282317599098D-02 0.100000000000D+01
-.105315975365D-02 0.000000000000D+00 0.000000000000D+00 0.263607173613D-05 0.000000000000D+00  6 1 2 25 1 2 21 2 0.19137097D+00 0.11816573D+00 0.38006200D+06 0.38006200D+06 0.38006200D+06 0.10770321D+01  1  2 15  2  6  2        2 -.631621582292D-02 0.100000000000D+01
0.388054895527D-03 0.000000000000D+00 -.146416090359D-02 0.263607173613D-05 0.000000000000D+00  6 1 2 25 1 2 21 2 0.19137097D+00 0.65229499D+00 0.38006200D+06 0.38006200D+06 0.38006200D+06 0.10770321D+01  1  2  5  2  6  2        2 0.137645328127D-04 0.100000000000D+01
0.115263747596D-04 0.000000000000D+00 -.306165102385D-03 0.263607173613D-05 0.000000000000D+00  6 1 21 25 1 2 -2 2 0.19137097D+00 0.65229499D+00 0.38006200D+06 0.38006200D+06 0.38006200D+06 0.10770321D+01  1  2  5  6  6  2        2 0.600598607847D-08 0.100000000000D+01
  </mgrwgt>
  </event>
  <event>
  6     66 0.17698235E-05 0.14750813E+02 0.75467711E-02 0.91879636E-01
        1 -1    0    0  503    0 0.00000000E+00 0.00000000E+00 0.14642995E+04 0.14642996E+04 0.32000000E+00 0.0000E+00 0.9000E+01
        2 -1    0    0  502    0 0.00000000E+00 0.00000000E+00 -.67057310E+03 0.67057317E+03 0.32000000E+00 0.0000E+00 0.9000E+01
       25  1    1    2    0    0 -.62370666E+03 0.25259267E+02 -.17967195E+03 0.66147943E+03 0.12500000E+03 0.0000E+00 0.9000E+01
        1  1    1    2  501    0 0.59573166E+03 -.38442326E+02 0.88123220E+03 0.10643986E+04 0.32000000E+00 0.0000E+00 0.9000E+01
        2  1    1    2  502    0 0.20039698E+02 -.12036947E+02 -.15684749E+03 0.15858031E+03 0.32000000E+00 0.0000E+00 0.9000E+01
       21  1    1    2  503  501 0.79353042E+01 0.25220006E+02 0.24901368E+03 0.25041444E+03 0.75000000E+00 0.0000E+00 0.9000E+01
#aMCatNLO 2  0  0  1  4 0.42044520D+02 0.00000000D+00  -5  6  0 0.00000000D+00 0.00000000D+00 0.00000000D+00 0.00000000D+00 0.00000000D+00
  <mgrwgt>
 0.1130325421D-01    1    2    0
 0.901910766730504D+03 0.000000000000000D+00 0.000000000000000D+00 0.901910766730504D+03
 0.901910766730504D+03 0.000000000000000D+00 0.000000000000000D+00 -.901910766730504D+03
 0.742925052780152D+03 -.620435431102184D+03 0.356616865794213D+02 -.387428385629848D+03
 0.847955273128707D+03 0.599459304231546D+03 -.266026820064071D+02 0.599140204882861D+03
 0.212941207552149D+03 0.209761268706380D+02 -.905900457301420D+01 -.211711819253013D+03
 0.000000000000000D+00 0.000000000000000D+00 0.000000000000000D+00 0.000000000000000D+00
 0.108745599158551D+04 0.000000000000000D+00 0.000000000000000D+00 0.108745599158551D+04
 0.902949976452497D+03 0.000000000000000D+00 0.000000000000000D+00 -.902949976452497D+03
 0.745235645848858D+03 -.623708585745029D+03 0.252589374271765D+02 -.387428385629848D+03
 0.845781177255656D+03 0.595733993294736D+03 -.384424755445608D+02 0.599140204882861D+03
 0.212998460179027D+03 0.200392882602038D+02 -.120364676396575D+02 -.211711819253013D+03
 0.186390684754467D+03 0.793530419008953D+01 0.252200057570418D+02 0.184506015133015D+03
0.228099979961D-02 0.000000000000D+00 0.000000000000D+00 0.310639207000D-05 0.288173017343D-07  6 1 2 25 1 2 21 2 0.22527667D+00 0.10316501D+00 0.41177934D+06 0.41177934D+06 0.41177934D+06 0.10745201D+01  1  2  1  1  6  1        1 0.113032542120D-01 0.100000000000D+01
  </mgrwgt>
  </event>
  <event>
  6     66 0.17698235E-05 0.25860208E+02 0.75467711E-02 0.93169449E-01
        1 -1    0    0  501    0 0.00000000E+00 0.00000000E+00 0.57885568E+03 0.57885577E+03 0.32000000E+00 0.0000E+00 0.9000E+01
        2 -1    0    0  502    0 -.00000000E+00 -.00000000E+00 -.15270741E+04 0.15270741E+04 0.32000000E+00 0.0000E+00 0.9000E+01
       25  1    1    2    0    0 0.40226148E+03 -.34908601E+03 -.14752848E+03 0.56662597E+03 0.12500000E+03 0.0000E+00 0.9000E+01
        1  1    1    2  503    0 -.23615446E+02 -.38599856E+02 0.13303516E+03 0.14052080E+03 0.32000000E+00 0.0000E+00 0.9000E+01
        2  1    1    2  502    0 -.33355530E+03 0.36996361E+03 -.11096387E+04 0.12163183E+04 0.32000000E+00 0.0000E+00 0.9000E+01
       21  1    1    2  501  503 -.45090727E+02 0.17722255E+02 0.17591358E+03 0.18246479E+03 0.75000000E+00 0.0000E+00 0.9000E+01
#aMCatNLO 2  0  0  4  2 0.30147129D+02 0.00000000D+00  -5  6  0 0.00000000D+00 0.00000000D+00 0.00000000D+00 0.00000000D+00 0.00000000D+00
  <mgrwgt>
 0.2310310162D-02    2    2    0
 0.940189152387591D+03 0.000000000000000D+00 0.000000000000000D+00 0.940189152387591D+03
 0.940189152387591D+03 -.000000000000000D+00 -.000000000000000D+00 -.940189152387591D+03
 0.560377132123845D+03 0.402550710164958D+03 -.349263668007014D+03 0.119855522039328D+03
 0.516065584470923D+03 -.689929375113163D+02 -.209647397740258D+02 0.511003074095531D+03
 0.803935588180413D+03 -.333557772653642D+03 0.370228407781040D+03 -.630858596134859D+03
 0.000000000000000D+00 0.000000000000000D+00 0.000000000000000D+00 0.000000000000000D+00
 0.940189152387591D+03 0.000000000000000D+00 0.000000000000000D+00 0.940189152387591D+03
 0.940189152387591D+03 -.000000000000000D+00 -.000000000000000D+00 -.940189152387591D+03
 0.560529363070302D+03 0.402407392806068D+03 -.349307217553426D+03 0.120917016354629D+03
 0.223865028717724D+03 -.235451784706377D+02 -.385302799581475D+02 0.219263752544555D+03
 0.802798744337858D+03 -.333763207203234D+03 0.370165982813672D+03 -.629337024650100D+03
 0.293185168649298D+03 -.450990071321963D+02 0.176715146979019D+02 0.289156255750916D+03
-.329935441461D-08 0.000000000000D+00 0.000000000000D+00 0.540121720167D-05 0.000000000000D+00  6 1 2 25 1 2 21 2 0.89054729D-01 0.23493449D+00 0.32452539D+06 0.32452539D+06 0.32452539D+06 0.10820360D+01  1  2 13  3  6  4        1 -.251289042468D-07 0.100000000000D+01
0.303340522406D-03 0.000000000000D+00 0.000000000000D+00 0.540121720167D-05 0.509430816957D-08  6 1 2 25 1 2 21 2 0.89054729D-01 0.23493449D+00 0.32452539D+06 0.32452539D+06 0.32452539D+06 0.10820360D+01  1  2  1  3  6  4        1 0.231033529104D-02 0.100000000000D+01
  </mgrwgt>
  </event>
  <event>
  5     66 -.17698235E-05 0.30362074E+02 0.75467711E-02 0.92922712E-01
        1 -1    0    0  501    0 0.00000000E+00 0.00000000E+00 0.51801607E+03 0.51801617E+03 0.32000000E+00 0.0000E+00 0.9000E+01
        2 -1    0    0  502    0 0.00000000E+00 0.00000000E+00 -.12032402E+04 0.12032403E+04 0.32000000E+00 0.0000E+00 0.9000E+01
       25  1    1    2    0    0 -.53126141E+03 -.11684642E+03 -.37807040E+03 0.67413203E+03 0.12500000E+03 0.0000E+00 0.9000E+01
        1  1    1    2  501    0 0.50128496E+03 0.12164846E+03 0.18950190E+03 0.54954165E+03 0.32000000E+00 0.0000E+00 0.9000E+01
        2  1    1    2  502    0 0.29976452E+02 -.48020443E+01 -.49665565E+03 0.49758274E+03 0.32000000E+00 0.0000E+00 0.9000E+01
#aMCatNLO 1  0  0  1  5 0.82104737D+02 0.00000000D+00  -5  6  0 0.00000000D+00 0.00000000D+00 0.00000000D+00 0.00000000D+00 0.00000000D+00
  <mgrwgt>
 -.7169580090D-02    7    2    0
 0.789492170798592D+03 0.000000000000000D+00 0.000000000000000D+00 0.789492170798592D+03
 0.789492170798592D+03 0.000000000000000D+00 0.000000000000000D+00 -.789492170798592D+03
 0.570781152815972D+03 -.531250068247539D+03 -.116842432037688D+03 -.119529642651661D+03
 0.681274396818167D+03 0.501270207680557D+03 0.121644881887853D+03 0.445045509316001D+03
 0.326928791963045D+03 0.299798605669815D+02 -.480244985016530D+01 -.325515866664341D+03
 0.000000000000000D+00 0.000000000000000D+00 0.000000000000000D+00 0.000000000000000D+00
 0.128454671840096D+04 0.000000000000000D+00 0.000000000000000D+00 0.128454671840096D+04
 0.793970395679109D+03 0.000000000000000D+00 0.000000000000000D+00 -.793970395679109D+03
 0.599256026672501D+03 -.561646818043013D+03 -.117253152678460D+03 -.119529642651661D+03
 0.656046448532328D+03 0.466527544930162D+03 0.121175439305900D+03 0.445045509316001D+03
 0.325815084904021D+03 0.130220299497265D+02 -.503158392219904D+01 -.325515866664341D+03
 0.497399553971214D+03 0.820972431631245D+02 0.110929729475949D+01 0.490576322721847D+03
0.153068909706D-04 0.000000000000D+00 0.000000000000D+00 0.408963091618D-05 0.000000000000D+00  6 1 2 25 1 2 21 0 0.79694791D-01 0.18511389D+00 0.30487314D+06 0.30487314D+06 0.30487314D+06 0.10840345D+01  1  2  2  1  6  1        1 0.177954748862D-03 0.100000000000D+01
0.744399532146D-05 0.000000000000D+00 -.587824917239D-07 0.408963091618D-05 0.000000000000D+00  6 1 2 25 1 2 21 2 0.79694791D-01 0.18511389D+00 0.30487314D+06 0.30487314D+06 0.30487314D+06 0.10840345D+01  1  2  3  1  6  1        1 0.101698582676D-03 0.100000000000D+01
-.100888227624D-04 0.000000000000D+00 0.000000000000D+00 0.408963091618D-05 0.000000000000D+00  6 1 2 25 1 2 21 2 0.79694791D-01 0.18511389D+00 0.30487314D+06 0.30487314D+06 0.30487314D+06 0.10840345D+01  1  2 15  1  6  1        1 -.137831759894D-03 0.100000000000D+01
-.730627843112D-03 0.000000000000D+00 0.000000000000D+00 0.408963091618D-05 0.000000000000D+00  6 1 2 25 1 2 21 2 0.79694791D-01 0.18511389D+00 0.30487314D+06 0.30487314D+06 0.30487314D+06 0.10840345D+01  1  2  4  1  6  1        1 -.998171182262D-02 0.100000000000D+01
-.511878094414D-03 0.000000000000D+00 -.113388396155D-04 0.408963091618D-05 0.000000000000D+00  6 1 2 25 1 2 21 2 0.12992475D+00 0.18511389D+00 0.30487314D+06 0.30487314D+06 0.30487314D+06 0.10840345D+01  1  2  5  1  6  1        1 -.334885097748D-02 0.100000000000D+01
0.462323943643D-03 0.000000000000D+00 0.101073996696D-04 0.408963091618D-05 0.000000000000D+00  6 1 2 25 1 2 21 2 0.79694791D-01 0.18511389D+00 0.30487314D+06 0.30487314D+06 0.30487314D+06 0.10840345D+01  1  2  6  1  6  1        1 0.631619013381D-02 0.100000000000D+01
-.278496703455D-04 0.000000000000D+00 -.627948933714D-06 0.408963091618D-05 0.000000000000D+00  6 21 2 25 1 2 -1 2 0.12992475D+00 0.18511389D+00 0.30487314D+06 0.30487314D+06 0.30487314D+06 0.10840345D+01  1  2  5  5  6  1        1 -.297028995288D-03 0.100000000000D+01
  </mgrwgt>
  </event>
  <event>
  5     66 -.17698235E-05 0.10085357E+03 0.75467711E-02 0.92631055E-01
        1 -1    0    0  501    0 0.00000000E+00 0.00000000E+00 0.68397992E+03 0.68397999E+03 0.32000000E+00 0.0000E+00 0.9000E+01
        2 -1    0    0  502    0 0.00000000E+00 0.00000000E+00 -.16603052E+04 0.16603052E+04 0.32000000E+00 0.0000E+00 0.9000E+01
       25  1    1    2    0    0 -.35559952E+03 -.31527363E+03 -.40395497E+02 0.49305708E+03 0.12500000E+03 0.0000E+00 0.9000E+01
        1  1    1    2  501    0 -.20385778E+02 -.98791285E+02 0.39493616E+03 0.40761498E+03 0.32000000E+00 0.0000E+00 0.9000E+01
        2  1    1    2  502    0 0.37598530E+03 0.41406492E+03 -.13308659E+04 0.14436131E+04 0.32000000E+00 0.0000E+00 0.9000E+01
#aMCatNLO 1  0  0  1  4 0.50587798D+02 0.00000000D+00  -5  6  0 0.00000000D+00 0.00000000D+00 0.00000000D+00 0.00000000D+00 0.00000000D+00
  <mgrwgt>
 -.3324712450D-02    9    2    0
 0.106565261821678D+04 0.000000000000000D+00 0.000000000000000D+00 0.106565261821678D+04
 0.106565261821678D+04 0.000000000000000D+00 0.000000000000000D+00 -.106565261821678D+04
 0.523930838585223D+03 -.355654330938742D+03 -.315343490756441D+03 0.181513094135583D+03
 0.629143861151097D+03 -.203819152373943D+02 -.987725676640898D+02 0.621007693537213D+03
 0.978230536697236D+03 0.376036246176137D+03 0.414116058420530D+03 -.802520787672797D+03
 0.000000000000000D+00 0.000000000000000D+00 -.000000000000000D+00 0.000000000000000D+00
 0.242137067652552D+04 0.000000000000000D+00 0.000000000000000D+00 0.242137067652552D+04
 0.106642477658788D+04 0.000000000000000D+00 0.000000000000000D+00 -.106642477658788D+04
 0.520183422281051D+03 -.360168117822396D+03 -.303805392278718D+03 0.181513094135583D+03
 0.627314007792906D+03 -.258136799984637D+02 -.848879429938382D+02 0.621007693537213D+03
 0.984408087575431D+03 0.367551607270578D+03 0.435804410521240D+03 -.802520787672797D+03
 0.135588993546402D+04 0.184301905502824D+02 -.471110752486837D+02 0.135494589993764D+04
0.351481086773D-04 0.000000000000D+00 0.000000000000D+00 0.406078912550D-05 0.000000000000D+00  6 1 2 25 1 2 21 0 0.10522769D+00 0.25543157D+00 0.33160787D+06 0.33160787D+06 0.33160787D+06 0.10813479D+01  1  2  2  1  6  1        1 0.150806515265D-03 0.100000000000D+01
0.755206669136D-05 0.000000000000D+00 -.134977992031D-06 0.406078912550D-05 0.000000000000D+00  6 1 2 25 1 2 21 2 0.10522769D+00 0.25543157D+00 0.33160787D+06 0.33160787D+06 0.33160787D+06 0.10813479D+01  1  2  3  1  6  1        1 0.378891469253D-04 0.100000000000D+01
-.214126800232D-04 0.000000000000D+00 0.000000000000D+00 0.406078912550D-05 0.000000000000D+00  6 1 2 25 1 2 21 2 0.10522769D+00 0.25543157D+00 0.33160787D+06 0.33160787D+06 0.33160787D+06 0.10813479D+01  1  2 15  1  6  1        1 -.107428630151D-03 0.100000000000D+01
0.120132274152D-01 0.000000000000D+00 0.000000000000D+00 0.406078912550D-05 0.000000000000D+00  6 1 2 25 1 2 21 2 0.25217851D+00 0.25543157D+00 0.35814600D+06 0.35814600D+06 0.35814600D+06 0.10789051D+01  1  2 12  1  6  1        1 0.114589451200D-01 0.100000000000D+01
0.423176138771D-07 0.000000000000D+00 0.000000000000D+00 0.406078912550D-05 0.000000000000D+00  6 1 2 25 1 2 21 2 0.23909388D+00 0.25543157D+00 0.35814600D+06 0.35814600D+06 0.35814600D+06 0.10789051D+01  1  2 12  1  6  1        1 0.460256081454D-07 0.100000000000D+01
-.133328885531D-01 0.000000000000D+00 -.211298889001D-04 0.406078912550D-05 0.000000000000D+00  6 1 2 25 1 2 21 2 0.23913828D+00 0.25543157D+00 0.33160787D+06 0.33160787D+06 0.33160787D+06 0.10813479D+01  1  2  5  1  6  1        1 -.146493113547D-01 0.100000000000D+01
0.114852825300D-02 0.000000000000D+00 0.000000000000D+00 0.406078912550D-05 0.000000000000D+00  6 21 2 25 1 2 -1 2 0.25217851D+00 0.25543157D+00 0.35814600D+06 0.35814600D+06 0.35814600D+06 0.10789051D+01  1  2 12  5  6  1        1 0.742238163108D-03 0.100000000000D+01
0.377500324019D-08 0.000000000000D+00 0.000000000000D+00 0.406078912550D-05 0.000000000000D+00  6 21 2 25 1 2 -1 2 0.23909388D+00 0.25543157D+00 0.35814600D+06 0.35814600D+06 0.35814600D+06 0.10789051D+01  1  2 12  5  6  1        1 0.300317737037D-08 0.100000000000D+01
-.118833402945D-02 0.000000000000D+00 -.188538352850D-05 0.406078912550D-05 0.000000000000D+00  6 21 2 25 1 2 -1 2 0.23913828D+00 0.25543157D+00 0.33160787D+06 0.33160787D+06 0.33160787D+06 0.10813479D+01  1  2  5  5  6  1        1 -.957900439243D-03 0.100000000000D+01
  </mgrwgt>
  </event>
  <event>
  5     66 0.17698235E-05 0.37937131E+02 0.75467711E-02 0.85138817E-01
        1 -1    0    0  501    0 0.00000000E+00 0.00000000E+00 0.12390577E+04 0.12390577E+04 0.32000000E+00 0.0000E+00 0.9000E+01
        2 -1    0    0  502    0 0.00000000E+00 0.00000000E+00 -.16848833E+04 0.16848834E+04 0.32000000E+00 0.0000E+00 0.9000E+01
       25  1    1    2    0    0 -.84697321E+03 -.46189134E+02 -.81324893E+03 0.11817343E+04 0.12500000E+03 0.0000E+00 0.9000E+01
        1  1    1    2  501    0 0.81372503E+03 0.27922084E+02 0.89691571E+03 0.12113571E+04 0.32000000E+00 0.0000E+00 0.9000E+01
        2  1    1    2  502    0 0.33248177E+02 0.18267050E+02 -.52949243E+03 0.53084975E+03 0.32000000E+00 0.0000E+00 0.9000E+01
#aMCatNLO 1  0  0  2  5 0.66586406D+01 0.00000000D+00  -5  6  0 0.00000000D+00 0.00000000D+00 0.00000000D+00 0.00000000D+00 0.00000000D+00
  <mgrwgt>
 0.1391092993D-02    7    2    0
 0.144487637934054D+04 0.000000000000000D+00 0.000000000000000D+00 0.144487637934054D+04
 0.144487637934054D+04 0.000000000000000D+00 0.000000000000000D+00 -.144487637934054D+04
 0.107023474633375D+04 -.846971910317631D+03 -.461895721798146D+02 -.640532995882963D+03
 0.136405873863193D+04 0.813722524466540D+03 0.279219982181610D+02 0.109440954748643D+04
 0.455459273715411D+03 0.332493858510908D+02 0.182675739616536D+02 -.453876551603463D+03
 0.000000000000000D+00 0.000000000000000D+00 0.000000000000000D+00 -.000000000000000D+00
 0.176529708741537D+04 0.000000000000000D+00 0.000000000000000D+00 0.176529708741537D+04
 0.204876964426088D+04 0.000000000000000D+00 0.000000000000000D+00 -.204876964426088D+04
 0.130842525014928D+04 -.111506306169496D+04 -.206648215227907D+03 -.640532995882963D+03
 0.122147665750085D+04 0.522315109240767D+03 -.146491958307651D+03 0.109440954748643D+04
 0.461317302019006D+03 -.700775663437584D+02 -.435759537128033D+02 -.453876551603463D+03
 0.822847522007109D+03 0.662825518797948D+03 0.396716127248362D+03 -.283472556845513D+03
0.626612698515D-03 0.000000000000D+00 0.000000000000D+00 0.663413822610D-05 0.000000000000D+00  6 1 2 25 1 2 21 0 0.19062427D+00 0.25921283D+00 0.73062312D+06 0.73062312D+06 0.73062312D+06 0.10570598D+01  1  2  2  2  6  2        2 0.887021098283D-03 0.100000000000D+01
0.303066811918D-03 0.000000000000D+00 -.240635775321D-05 0.663413822610D-05 0.000000000000D+00  6 1 2 25 1 2 21 2 0.19062427D+00 0.25921283D+00 0.73062312D+06 0.73062312D+06 0.73062312D+06 0.10570598D+01  1  2  3  2  6  2        2 0.479371517768D-03 0.100000000000D+01
-.421779876081D-03 0.000000000000D+00 0.000000000000D+00 0.663413822610D-05 0.000000000000D+00  6 1 2 25 1 2 21 2 0.19062427D+00 0.25921283D+00 0.73062312D+06 0.73062312D+06 0.73062312D+06 0.10570598D+01  1  2 15  2  6  2        2 -.667144178806D-03 0.100000000000D+01
-.806156613602D-05 0.000000000000D+00 0.000000000000D+00 0.663413822610D-05 0.000000000000D+00  6 1 2 25 1 2 21 2 0.19062427D+00 0.25921283D+00 0.73062312D+06 0.73062312D+06 0.73062312D+06 0.10570598D+01  1  2  4  2  6  2        2 -.127512648770D-04 0.100000000000D+01
-.447858264199D-03 0.000000000000D+00 -.366837628346D-03 0.663413822610D-05 0.000000000000D+00  6 1 2 25 1 2 21 2 0.19062427D+00 0.39898435D+00 0.73062312D+06 0.73062312D+06 0.73062312D+06 0.10570598D+01  1  2  5  2  6  2        2 -.216638888288D-03 0.100000000000D+01
0.582688554569D-03 0.000000000000D+00 0.335180349355D-03 0.663413822610D-05 0.000000000000D+00  6 1 2 25 1 2 21 2 0.19062427D+00 0.25921283D+00 0.73062312D+06 0.73062312D+06 0.73062312D+06 0.10570598D+01  1  2  6  2  6  2        2 0.921659138530D-03 0.100000000000D+01
-.870785452223D-05 0.000000000000D+00 -.184623283056D-04 0.663413822610D-05 0.000000000000D+00  6 1 21 25 1 2 -2 2 0.19062427D+00 0.39898435D+00 0.73062312D+06 0.73062312D+06 0.73062312D+06 0.10570598D+01  1  2  5  6  6  2        2 -.424429146636D-06 0.100000000000D+01
  </mgrwgt>
  </event>
  <event>
  5     66 0.17698235E-05 0.93720328E+02 0.75467711E-02 0.93768835E-01
        1 -1    0    0  501    0 0.00000000E+00 0.00000000E+00 0.81126955E+03 0.81126961E+03 0.32000000E+00 0.0000E+00 0.9000E+01
        2 -1    0    0  502    0 0.00000000E+00 0.00000000E+00 -.19729550E+04 0.19729550E+04 0.32000000E+00 0.0000E+00 0.9000E+01
       25  1    1    2    0    0 -.34678105E+03 0.31287044E+03 -.75852170E+03 0.89951386E+03 0.12500000E+03 0.0000E+00 0.9000E+01
        1  1    1    2  501    0 0.85257507E+02 0.38924701E+02 0.69552053E+03 0.70180687E+03 0.32000000E+00 0.0000E+00 0.9000E+01
        2  1    1    2  502    0 0.26152354E+03 -.35179514E+03 -.10986842E+04 0.11829039E+04 0.32000000E+00 0.0000E+00 0.9000E+01
#aMCatNLO 1  0  0  2  4 0.71796229D+02 0.00000000D+00  -5  6  0 0.00000000D+00 0.00000000D+00 0.00000000D+00 0.00000000D+00 0.00000000D+00
  <mgrwgt>
 0.1453192755D-02    9    2    0
 0.126514758120109D+04 0.000000000000000D+00 0.000000000000000D+00 0.126514758120109D+04
 0.126514758120109D+04 0.000000000000000D+00 0.000000000000000D+00 -.126514758120109D+04
 0.641551522026014D+03 -.346805424686671D+03 0.312900921721091D+03 -.421642462292266D+03
 0.109152846835470D+04 0.852552017559163D+02 0.389236484412219D+02 0.108749753902909D+04
 0.797215172021475D+03 0.261550222930755D+03 -.351824570162312D+03 -.665855076736828D+03
 0.000000000000000D+00 0.000000000000000D+00 0.000000000000000D+00 -.000000000000000D+00
 0.129085452769765D+04 0.000000000000000D+00 0.000000000000000D+00 0.129085452769765D+04
 0.131679922279398D+04 0.000000000000000D+00 0.000000000000000D+00 -.131679922279398D+04
 0.635409012753833D+03 -.350935576467841D+03 0.295265082002766D+03 -.421642462292266D+03
 0.109034083329866D+04 0.781982480466477D+02 0.879029956922598D+01 0.108749753902909D+04
 0.805563707680703D+03 0.256366256892239D+03 -.373960220134625D+03 -.665855076736828D+03
 0.763401967584268D+02 0.163710715289548D+02 0.699048385626330D+02 -.259446950963272D+02
0.214025697424D-03 0.000000000000D+00 0.000000000000D+00 0.190959895248D-04 0.000000000000D+00  6 1 2 25 1 2 21 0 0.12481071D+00 0.30353154D+00 0.25788569D+06 0.25788569D+06 0.25788569D+06 0.10894459D+01  1  2  2  2  6  2        2 0.483130679764D-03 0.100000000000D+01
0.591663712981D-04 0.000000000000D+00 -.821915032368D-06 0.190959895248D-04 0.000000000000D+00  6 1 2 25 1 2 21 2 0.12481071D+00 0.30353154D+00 0.25788569D+06 0.25788569D+06 0.25788569D+06 0.10894459D+01  1  2  3  2  6  2        2 0.158520335083D-03 0.100000000000D+01
-.147541736355D-03 0.000000000000D+00 0.000000000000D+00 0.190959895248D-04 0.000000000000D+00  6 1 2 25 1 2 21 2 0.12481071D+00 0.30353154D+00 0.25788569D+06 0.25788569D+06 0.25788569D+06 0.10894459D+01  1  2 15  2  6  2        2 -.395298291454D-03 0.100000000000D+01
0.284838207083D-09 0.000000000000D+00 0.000000000000D+00 0.190959895248D-04 0.000000000000D+00  6 1 2 25 1 2 21 2 0.12481071D+00 0.31940855D+00 0.29118976D+06 0.29118976D+06 0.29118976D+06 0.10855109D+01  1  2 12  2  6  2        2 0.659368200439D-09 0.100000000000D+01
-.432511084120D-04 0.000000000000D+00 0.000000000000D+00 0.190959895248D-04 0.000000000000D+00  6 1 2 25 1 2 21 2 0.12481071D+00 0.30353154D+00 0.25788569D+06 0.25788569D+06 0.25788569D+06 0.10894459D+01  1  2  4  2  6  2        2 -.115879680429D-03 0.100000000000D+01
-.394242557573D-02 0.000000000000D+00 -.788043597146D-03 0.190959895248D-04 0.000000000000D+00  6 1 2 25 1 2 21 2 0.12481071D+00 0.31880414D+00 0.25788569D+06 0.25788569D+06 0.25788569D+06 0.10894459D+01  1  2  5  2  6  2        2 -.931881682998D-02 0.100000000000D+01
0.397726686540D-02 0.000000000000D+00 0.787094970743D-03 0.190959895248D-04 0.000000000000D+00  6 1 2 25 1 2 21 2 0.12481071D+00 0.30353154D+00 0.25788569D+06 0.25788569D+06 0.25788569D+06 0.10894459D+01  1  2  6  2  6  2        2 0.106560139212D-01 0.100000000000D+01
0.381268868364D-11 0.000000000000D+00 0.000000000000D+00 0.190959895248D-04 0.000000000000D+00  6 1 21 25 1 2 -2 2 0.12481071D+00 0.31940855D+00 0.29118976D+06 0.29118976D+06 0.29118976D+06 0.10855109D+01  1  2 12  6  6  2        2 0.161619239224D-11 0.100000000000D+01
-.330912196620D-04 0.000000000000D+00 -.674831559807D-05 0.190959895248D-04 0.000000000000D+00  6 1 21 25 1 2 -2 2 0.12481071D+00 0.31880414D+00 0.25788569D+06 0.25788569D+06 0.25788569D+06 0.10894459D+01  1  2  5  6  6  2        2 -.144780405902D-04 0.100000000000D+01
  </mgrwgt>
  </event>
  <event>
  5     66 0.17698235E-05 0.19537157E+02 0.75467711E-02 0.91352151E-01
        1 -1    0    0  501    0 0.00000000E+00 0.00000000E+00 0.99691698E+03 0.99691703E+03 0.32000000E+00 0.0000E+00 0.9000E+01
        2 -1    0    0  502    0 0.00000000E+00 0.00000000E+00 -.10089408E+04 0.10089408E+04 0.32000000E+00 0.0000E+00 0.9000E+01
       25  1    1    2    0    0 0.50259340E+03 -.41034714E+03 -.14915786E+03 0.67739056E+03 0.12500000E+03 0.0000E+00 0.9000E+01
        1  1    1    2  501    0 -.52204436E+03 0.40853002E+03 0.58262914E+03 0.88254399E+03 0.32000000E+00 0.0000E+00 0.9000E+01
        2  1    1    2  502    0 0.19450955E+02 0.18171221E+01 -.44549506E+03 0.44592330E+03 0.32000000E+00 0.0000E+00 0.9000E+01
#aMCatNLO 1  0  0  1  4 0.65057983D+01 0.00000000D+00  -5  6  0 0.00000000D+00 0.00000000D+00 0.00000000D+00 0.00000000D+00 0.00000000D+00
  <mgrwgt>
 0.2706522041D-01   13    2    0
 0.100291090849827D+04 0.000000000000000D+00 0.000000000000000D+00 0.100291090849827D+04
 0.100291090849827D+04 0.000000000000000D+00 0.000000000000000D+00 -.100291090849827D+04
 0.676482156595074D+03 0.502581044991626D+03 -.410338913978234D+03 -.145042673313103D+03
 0.886033882809666D+03 -.522033488639483D+03 0.408521512476674D+03 0.587917725595541D+03
 0.443305777591793D+03 0.194524436478575D+02 0.181740150155986D+01 -.442875052282439D+03
 0.000000000000000D+00 0.000000000000000D+00 0.000000000000000D+00 0.000000000000000D+00
 0.102383724419133D+04 0.000000000000000D+00 0.000000000000000D+00 0.102383724419133D+04
 0.100342195897649D+04 0.000000000000000D+00 0.000000000000000D+00 -.100342195897649D+04
 0.675090941794211D+03 0.500417711666139D+03 -.410691510091953D+03 -.145042673313103D+03
 0.887496536163752D+03 -.524872208545719D+03 0.408058836847781D+03 0.587917725595541D+03
 0.443244889651778D+03 0.180334270919151D+02 0.158611965653225D+01 -.442875052282439D+03
 0.214268355580822D+02 0.642106978766519D+01 0.104655358764007D+01 0.204152852148391D+02
0.357695134487D-03 0.000000000000D+00 0.000000000000D+00 0.641200096178D-05 0.000000000000D+00  6 1 2 25 1 2 21 0 0.15337185D+00 0.15522166D+00 0.45102403D+06 0.45102403D+06 0.45102403D+06 0.10716890D+01  1  2  2  1  6  1        1 0.192561343129D-02 0.100000000000D+01
0.274910102872D-03 0.000000000000D+00 -.137364349972D-05 0.641200096178D-05 0.000000000000D+00  6 1 2 25 1 2 21 2 0.15337185D+00 0.15522166D+00 0.45102403D+06 0.45102403D+06 0.45102403D+06 0.10716890D+01  1  2  3  1  6  1        1 0.169974707342D-02 0.100000000000D+01
-.203096040721D-03 0.000000000000D+00 0.000000000000D+00 0.641200096178D-05 0.000000000000D+00  6 1 2 25 1 2 21 2 0.15337185D+00 0.15522166D+00 0.45102403D+06 0.45102403D+06 0.45102403D+06 0.10716890D+01  1  2 15  1  6  1        1 -.125572649835D-02 0.100000000000D+01
0.469296853116D-02 0.000000000000D+00 0.000000000000D+00 0.641200096178D-05 0.000000000000D+00  6 1 2 25 1 2 21 2 0.15683641D+00 0.15522166D+00 0.45479345D+06 0.45479345D+06 0.45479345D+06 0.10714313D+01  1  2 12  1  6  1        1 0.278583795091D-01 0.100000000000D+01
0.184811084304D-07 0.000000000000D+00 0.000000000000D+00 0.641200096178D-05 0.000000000000D+00  6 1 2 25 1 2 21 2 0.15666053D+00 0.15522166D+00 0.45479345D+06 0.45479345D+06 0.45479345D+06 0.10714313D+01  1  2 12  1  6  1        1 0.109928427774D-06 0.100000000000D+01
-.834255436302D-02 0.000000000000D+00 0.000000000000D+00 0.641200096178D-05 0.000000000000D+00  6 1 2 25 1 2 21 2 0.15337185D+00 0.15522166D+00 0.45102403D+06 0.45102403D+06 0.45102403D+06 0.10716890D+01  1  2  4  1  6  1        1 -.515813431928D-01 0.100000000000D+01
-.718436149077D-01 0.000000000000D+00 -.406772660225D-02 0.641200096178D-05 0.000000000000D+00  6 1 2 25 1 2 21 2 0.15660667D+00 0.15522166D+00 0.45102403D+06 0.45102403D+06 0.45102403D+06 0.10716890D+01  1  2  5  1  6  1        1 -.427986173666D+00 0.100000000000D+01
0.719137375900D-01 0.000000000000D+00 0.406684072835D-02 0.641200096178D-05 0.000000000000D+00  6 1 2 25 1 2 21 2 0.15337185D+00 0.15522166D+00 0.45102403D+06 0.45102403D+06 0.45102403D+06 0.10716890D+01  1  2  6  1  6  1        1 0.444636860307D+00 0.100000000000D+01
0.545887986038D-02 0.000000000000D+00 0.000000000000D+00 0.641200096178D-05 0.597934421446D-06  6 1 2 25 1 2 21 2 0.15657205D+00 0.15530076D+00 0.45479345D+06 0.45479345D+06 0.45479345D+06 0.10714313D+01  1  2 11  1  6  1        1 0.324791568262D-01 0.100000000000D+01
0.290111267761D-03 0.000000000000D+00 0.000000000000D+00 0.641200096178D-05 0.000000000000D+00  6 21 2 25 1 2 -1 2 0.15683641D+00 0.15522166D+00 0.45479345D+06 0.45479345D+06 0.45479345D+06 0.10714313D+01  1  2 12  5  6  1        1 0.219517683368D-02 0.100000000000D+01
0.108688170555D-08 0.000000000000D+00 0.000000000000D+00 0.641200096178D-05 0.000000000000D+00  6 21 2 25 1 2 -1 2 0.15666053D+00 0.15522166D+00 0.45479345D+06 0.45479345D+06 0.45479345D+06 0.10714313D+01  1  2 12  5  6  1        1 0.825238946163D-08 0.100000000000D+01
-.416222159654D-03 0.000000000000D+00 -.154321718135D-04 0.641200096178D-05 0.000000000000D+00  6 21 2 25 1 2 -1 2 0.15660667D+00 0.15522166D+00 0.45102403D+06 0.45102403D+06 0.45102403D+06 0.10716890D+01  1  2  5  5  6  1        1 -.316741787522D-02 0.100000000000D+01
0.343185190088D-04 0.000000000000D+00 0.000000000000D+00 0.641200096178D-05 0.357833363831D-08  6 21 2 25 1 2 -1 2 0.15657205D+00 0.15530076D+00 0.45479345D+06 0.45479345D+06 0.45479345D+06 0.10714313D+01  1  2 11  5  6  1        1 0.260829483196D-03 0.100000000000D+01
  </mgrwgt>
  </event>
  <event>
  5     66 0.17698235E-05 0.93261106E+02 0.75467711E-02 0.92113912E-01
        1 -1    0    0  501    0 0.00000000E+00 0.00000000E+00 0.13223932E+04 0.13223932E+04 0.32000000E+00 0.0000E+00 0.9000E+01
        2 -1    0    0  502    0 0.00000000E+00 0.00000000E+00 -.13117968E+04 0.13117968E+04 0.32000000E+00 0.0000E+00 0.9000E+01
       25  1    1    2    0    0 -.93910660E+02 0.60110407E+03 0.72720901E+03 0.95634892E+03 0.12500000E+03 0.0000E+00 0.9000E+01
        1  1    1    2  501    0 -.49285265E+02 -.79229612E+02 0.41400209E+03 0.42438685E+03 0.32000000E+00 0.0000E+00 0.9000E+01
        2  1    1    2  502    0 0.14319593E+03 -.52187446E+03 -.11306146E+04 0.12534543E+04 0.32000000E+00 0.0000E+00 0.9000E+01
#aMCatNLO 1  0  0  5  2 0.61043471D+02 0.00000000D+00  -5  6  0 0.00000000D+00 0.00000000D+00 0.00000000D+00 0.00000000D+00 0.00000000D+00
  <mgrwgt>
 0.2954371927D-02    3    2    0
 0.131708436467863D+04 0.000000000000000D+00 0.000000000000000D+00 0.131708436467863D+04
 0.131708436467863D+04 -.000000000000000D+00 -.000000000000000D+00 -.131708436467863D+04
 0.953611328787012D+03 -.939504133056080D+02 0.601129995518962D+03 0.723578340415196D+03
 0.422512649181126D+03 -.492605355881089D+02 -.791898569180138D+02 0.412091379323725D+03
 0.125804475138911D+04 0.143210948893717D+03 -.521940138600948D+03 -.113566971973892D+04
 0.000000000000000D+00 0.000000000000000D+00 0.000000000000000D+00 0.000000000000000D+00
 0.131708436467863D+04 0.000000000000000D+00 0.000000000000000D+00 0.131708436467863D+04
 0.131708436467863D+04 -.000000000000000D+00 -.000000000000000D+00 -.131708436467863D+04
 0.439531412101754D+03 -.290736476735614D+02 0.364683073635203D+03 0.209102465406546D+03
 0.253587006306857D+03 -.177754927381433D+02 -.193938818194457D+03 0.162413473649594D+03
 0.114487475603008D+04 -.549102268194838D+01 -.876204672065844D+03 -.736867307128510D+03
 0.796175554918562D+03 0.523401630936531D+02 0.705460416625098D+03 0.365351368072371D+03
0.269790483981D-02 0.000000000000D+00 0.000000000000D+00 0.360003679672D-05 0.000000000000D+00  6 1 2 25 1 2 21 0 0.20344512D+00 0.20181489D+00 0.39414993D+06 0.39414993D+06 0.39414993D+06 0.10758892D+01  1  2  2  4  6  5        2 0.562060797703D-02 0.100000000000D+01
0.398576947560D-03 0.000000000000D+00 -.103606649595D-04 0.360003679672D-05 0.000000000000D+00  6 1 2 25 1 2 21 2 0.20344512D+00 0.20181489D+00 0.39414993D+06 0.39414993D+06 0.39414993D+06 0.10758892D+01  1  2  3  4  6  5        2 0.961178247565D-03 0.100000000000D+01
-.150419937391D-02 0.000000000000D+00 0.000000000000D+00 0.360003679672D-05 0.000000000000D+00  6 1 2 25 1 2 21 2 0.20344512D+00 0.20181489D+00 0.39414993D+06 0.39414993D+06 0.39414993D+06 0.10758892D+01  1  2 15  4  6  5        2 -.362741429741D-02 0.100000000000D+01
  </mgrwgt>
  </event>
  <event>
  5     66 0.17698235E-05 0.89020479E+02 0.75467711E-02 0.91473812E-01
        1 -1    0    0  501    0 0.00000000E+00 0.00000000E+00 0.90350897E+03 0.90350903E+03 0.32000000E+00 0.0000E+00 0.9000E+01
        2 -1    0    0  502    0 0.00000000E+00 0.00000000E+00 -.15366790E+04 0.15366790E+04 0.32000000E+00 0.0000E+00 0.9000E+01
       25  1    1    2    0    0 -.57654566E+02 -.56797305E+03 -.53564441E+03 0.79275303E+03 0.12500000E+03 0.0000E+00 0.9000E+01
        1  1    1    2  501    0 -.14833265E+02 -.87784068E+02 0.64674518E+03 0.65284416E+03 0.32000000E+00 0.0000E+00 0.9000E+01
        2  1    1    2  502    0 0.72487831E+02 0.65575712E+03 -.74427080E+03 0.99459088E+03 0.32000000E+00 0.0000E+00 0.9000E+01
#aMCatNLO 1  0  0  2  5 0.36432587D+02 0.00000000D+00  -5  6  0 0.00000000D+00 0.00000000D+00 0.00000000D+00 0.00000000D+00 0.00000000D+00
  <mgrwgt>
 0.1279477828D-01    6    2    0
 0.117830529917941D+04 0.000000000000000D+00 0.000000000000000D+00 0.117830529917941D+04
 0.117830529917941D+04 0.000000000000000D+00 0.000000000000000D+00 -.117830529917941D+04
 0.677005675764087D+03 -.576629828770922D+02 -.568049744185444D+03 -.341622823525237D+03
 0.849687402363744D+03 -.148319339854527D+02 -.877761897256731D+02 0.845011263822644D+03
 0.829917520230988D+03 0.724949168625449D+02 0.655825933911117D+03 -.503388440297407D+03
 0.000000000000000D+00 -.000000000000000D+00 -.000000000000000D+00 -.000000000000000D+00
 0.146999393000541D+04 0.000000000000000D+00 0.000000000000000D+00 0.146999393000541D+04
 0.198833077692204D+04 0.000000000000000D+00 0.000000000000000D+00 -.198833077692204D+04
 0.565195600228384D+03 0.918366149890046D+02 -.422706693951645D+03 -.341622823525237D+03
 0.874144677882370D+03 0.192632192614779D+03 0.113919797451339D+03 0.845011263822644D+03
 0.105391175363553D+04 0.299214792565790D+03 0.876242301270526D+03 -.503388440297407D+03
 0.965072675181162D+03 -.583683600169573D+03 -.567455404770220D+03 -.518336846916632D+03
0.305984672289D-02 0.000000000000D+00 0.000000000000D+00 0.216260083843D-05 0.000000000000D+00  6 1 2 25 1 2 21 0 0.13900139D+00 0.23641216D+00 0.44444404D+06 0.44444404D+06 0.44444404D+06 0.10721445D+01  1  2  2  2  6  2        2 0.967484950220D-02 0.100000000000D+01
0.992457626810D-03 0.000000000000D+00 -.117506170921D-04 0.216260083843D-05 0.000000000000D+00  6 1 2 25 1 2 21 2 0.13900139D+00 0.23641216D+00 0.44444404D+06 0.44444404D+06 0.44444404D+06 0.10721445D+01  1  2  3  2  6  2        2 0.360714133916D-02 0.100000000000D+01
-.186114340367D-02 0.000000000000D+00 0.000000000000D+00 0.216260083843D-05 0.000000000000D+00  6 1 2 25 1 2 21 2 0.13900139D+00 0.23641216D+00 0.44444404D+06 0.44444404D+06 0.44444404D+06 0.10721445D+01  1  2 15  2  6  2        2 -.676442714341D-02 0.100000000000D+01
-.112859696727D-02 0.000000000000D+00 -.155198170930D-02 0.216260083843D-05 0.000000000000D+00  6 1 2 25 1 2 21 2 0.13900139D+00 0.43113955D+00 0.44444404D+06 0.44444404D+06 0.44444404D+06 0.10721445D+01  1  2  5  2  6  2        2 -.785610682287D-03 0.100000000000D+01
0.194308722206D-02 0.000000000000D+00 0.130857382068D-02 0.216260083843D-05 0.000000000000D+00  6 1 2 25 1 2 21 2 0.13900139D+00 0.23641216D+00 0.44444404D+06 0.44444404D+06 0.44444404D+06 0.10721445D+01  1  2  6  2  6  2        2 0.706225641778D-02 0.100000000000D+01
0.993843925960D-05 0.000000000000D+00 -.101992366833D-03 0.216260083843D-05 0.000000000000D+00  6 1 21 25 1 2 -2 2 0.13900139D+00 0.43113955D+00 0.44444404D+06 0.44444404D+06 0.44444404D+06 0.10721445D+01  1  2  5  6  6  2        2 0.568841983256D-06 0.100000000000D+01
  </mgrwgt>
  </event>
  <event>
  5     66 -.17698235E-05 0.17299526E+02 0.75467711E-02 0.92530664E-01
        1 -1    0    0  501    0 0.00000000E+00 0.00000000E+00 0.11887534E+04 0.11887534E+04 0.32000000E+00 0.0000E+00 0.9000E+01
        2 -1    0    0  502    0 -.00000000E+00 -.00000000E+00 -.26359055E+04 0.26359055E+04 0.32000000E+00 0.0000E+00 0.9000E+01
       25  1    1    2    0    0 0.16871053E+03 -.57072657E+03 -.10082379E+04 0.11774382E+04 0.12500000E+03 0.0000E+00 0.9000E+01
        1  1    1    2  501    0 -.15440821E+03 0.56099494E+03 0.10274433E+04 0.11807612E+04 0.32000000E+00 0.0000E+00 0.9000E+01
        2  1    1    2  502    0 -.14302313E+02 0.97316260E+01 -.14663574E+04 0.14664595E+04 0.32000000E+00 0.0000E+00 0.9000E+01
#aMCatNLO 1  0  0  4  1 0.16314041D+02 0.00000000D+00  -5  6  0 0.00000000D+00 0.00000000D+00 0.00000000D+00 0.00000000D+00 0.00000000D+00
  <mgrwgt>
 -.1871014888D-01    8    2    0
 0.177015302299543D+04 0.000000000000000D+00 0.000000000000000D+00 0.177015302299543D+04
 0.177015302299543D+04 -.000000000000000D+00 -.000000000000000D+00 -.177015302299543D+04
 0.859864879055047D+03 0.168710588104554D+03 -.570726106611559D+03 -.607907113731841D+03
 0.169557871926799D+04 -.154408011033313D+03 0.560994205298866D+03 0.159261761292041D+04
 0.984862447667815D+03 -.143025770712405D+02 0.973190131269257D+01 -.984710499188569D+03
 0.000000000000000D+00 0.000000000000000D+00 0.000000000000000D+00 0.000000000000000D+00
 0.177015302299543D+04 0.000000000000000D+00 0.000000000000000D+00 0.177015302299543D+04
 0.177015302299543D+04 -.000000000000000D+00 -.000000000000000D+00 -.177015302299543D+04
 0.859627549455999D+03 0.168686614010072D+03 -.570639004083706D+03 -.607659836632223D+03
 0.156235599927821D+04 -.153245672169002D+03 0.527898229220387D+03 0.146246213353648D+04
 0.984580659744261D+03 -.143300361134274D+02 0.983166533041934D+01 -.984427277133391D+03
 0.133741837512381D+03 -.111090572764188D+01 0.329091095328993D+02 0.129624980229136D+03
0.110019092908D-03 0.000000000000D+00 0.000000000000D+00 0.277958873120D-03 0.000000000000D+00  6 1 2 25 1 2 21 0 0.18288514D+00 0.40552392D+00 0.36438180D+06 0.36438180D+06 0.36438180D+06 0.10783597D+01  1  2  2  3  6  4        1 0.519695357614D-04 0.100000000000D+01
0.954039182422D-04 0.000000000000D+00 -.422502285460D-06 0.277958873120D-03 0.000000000000D+00  6 1 2 25 1 2 21 2 0.18288514D+00 0.40552392D+00 0.36438180D+06 0.36438180D+06 0.36438180D+06 0.10783597D+01  1  2  3  3  6  4        1 0.524051881683D-04 0.100000000000D+01
-.764385026853D-04 0.000000000000D+00 0.000000000000D+00 0.277958873120D-03 0.000000000000D+00  6 1 2 25 1 2 21 2 0.18288514D+00 0.40552392D+00 0.36438180D+06 0.36438180D+06 0.36438180D+06 0.10783597D+01  1  2 15  3  6  4        1 -.419875220047D-04 0.100000000000D+01
0.340743162739D-01 0.000000000000D+00 0.000000000000D+00 0.277958873120D-03 0.000000000000D+00  6 1 2 25 1 2 21 2 0.18288514D+00 0.40552392D+00 0.36483708D+06 0.36483708D+06 0.36483708D+06 0.10783203D+01  1  2 12  3  6  4        1 0.187134559350D-01 0.100000000000D+01
0.201415726483D-09 0.000000000000D+00 0.000000000000D+00 0.277958873120D-03 0.000000000000D+00  6 1 2 25 1 2 21 2 0.18288514D+00 0.40552392D+00 0.36483708D+06 0.36483708D+06 0.36483708D+06 0.10783203D+01  1  2 12  3  6  4        1 0.110616579709D-09 0.100000000000D+01
-.712174564744D-01 0.000000000000D+00 0.000000000000D+00 0.277958873120D-03 0.000000000000D+00  6 1 2 25 1 2 21 2 0.18288514D+00 0.40552392D+00 0.36438180D+06 0.36438180D+06 0.36438180D+06 0.10783597D+01  1  2  4  3  6  4        1 -.391196113973D-01 0.100000000000D+01
-.362785694283D-01 0.000000000000D+00 0.000000000000D+00 0.277958873120D-03 0.000000000000D+00  6 1 2 25 1 2 21 2 0.18288514D+00 0.40552392D+00 0.36438180D+06 0.36438180D+06 0.36438180D+06 0.10783597D+01  1  2  5  3  6  4        1 -.199277481721D-01 0.100000000000D+01
0.392525818312D-01 0.000000000000D+00 -.000000000000D+00 0.277958873120D-03 0.000000000000D+00  6 1 2 25 1 2 21 2 0.18288514D+00 0.40552392D+00 0.36438180D+06 0.36438180D+06 0.36438180D+06 0.10783597D+01  1  2  6  3  6  4        1 0.215613674454D-01 0.100000000000D+01
  </mgrwgt>
  </event>
  <event>
  5     66 -.17698235E-05 0.47069293E+02 0.75467711E-02 0.94054615E-01
        1 -1    0    0  501    0 0.00000000E+00 0.00000000E+00 0.39833894E+04 0.39833894E+04 0.32000000E+00 0.0000E+00 0.9000E+01
        2 -1    0    0  502    0 0.00000000E+00 0.00000000E+00 -.39743594E+03 0.39743607E+03 0.32000000E+00 0.0000E+00 0.9000E+01
       25  1    1    2    0    0 -.47310464E+03 0.82428090E+01 0.24585742E+04 0.25068124E+04 0.12500000E+03 0.0000E+00 0.9000E+01
        1  1    1    2  501    0 -.42238026E+02 -.20824651E+02 0.13221205E+04 0.13229590E+04 0.32000000E+00 0.0000E+00 0.9000E+01
        2  1    1    2  502    0 0.51534266E+03 0.12581842E+02 -.19474131E+03 0.55105412E+03 0.32000000E+00 0.0000E+00 0.9000E+01
#aMCatNLO 1  0  0  5  2 0.69698688D+01 0.00000000D+00  -5  6  0 0.00000000D+00 0.00000000D+00 0.00000000D+00 0.00000000D+00 0.00000000D+00
  <mgrwgt>
 -.7046838960D-02    9    2    0
 0.125822987513855D+04 0.000000000000000D+00 0.000000000000000D+00 0.125822987513855D+04
 0.125822987513855D+04 -.000000000000000D+00 -.000000000000000D+00 -.125822987513855D+04
 0.860763593570332D+03 -.473188140443856D+03 0.823177832454154D+01 0.708035440910279D+03
 0.418868862660059D+03 -.422170840027369D+02 -.208143258286230D+02 0.416215816331789D+03
 0.123682729404671D+04 0.515405224446593D+03 0.125825475040815D+02 -.112425125724207D+04
 0.000000000000000D+00 0.000000000000000D+00 0.000000000000000D+00 -.000000000000000D+00
 0.125822987513855D+04 0.000000000000000D+00 0.000000000000000D+00 0.125822987513855D+04
 0.125822987513855D+04 -.000000000000000D+00 -.000000000000000D+00 -.125822987513855D+04
 0.860629822050019D+03 -.473131064585893D+03 0.823317171300578D+01 0.707910941580374D+03
 0.418805829301159D+03 -.421893094096058D+02 -.208136477696494D+02 0.416155231728129D+03
 0.117286598311532D+04 0.495049538682886D+03 0.112303986239659D+02 -.106320950275366D+04
 0.641581158105963D+02 0.202708353126123D+02 0.135007743267772D+01 -.608566705548423D+02
0.171548109331D-03 0.000000000000D+00 0.000000000000D+00 0.248782774344D-04 0.000000000000D+00  6 1 2 25 1 2 21 0 0.61282915D+00 0.61144002D-01 0.27673775D+06 0.27673775D+06 0.27673775D+06 0.10871548D+01  1  2  2  4  6  5        2 0.187317271838D-04 0.100000000000D+01
0.439352478783D-04 0.000000000000D+00 -.658789909485D-06 0.248782774344D-04 0.000000000000D+00  6 1 2 25 1 2 21 2 0.61282915D+00 0.61144002D-01 0.27673775D+06 0.27673775D+06 0.27673775D+06 0.10871548D+01  1  2  3  4  6  5        2 0.567006111208D-05 0.100000000000D+01
-.111345649269D-03 0.000000000000D+00 0.000000000000D+00 0.248782774344D-04 0.000000000000D+00  6 1 2 25 1 2 21 2 0.61282915D+00 0.61144002D-01 0.27673775D+06 0.27673775D+06 0.27673775D+06 0.10871548D+01  1  2 15  4  6  5        2 -.143697069303D-04 0.100000000000D+01
0.638809941744D-01 0.000000000000D+00 0.000000000000D+00 0.248782774344D-04 0.000000000000D+00  6 1 2 25 1 2 21 2 0.61282915D+00 0.61144002D-01 0.27666069D+06 0.27666069D+06 0.27666069D+06 0.10871638D+01  1  2 12  4  6  5        2 0.824451579713D-02 0.100000000000D+01
0.270727983190D-07 0.000000000000D+00 0.000000000000D+00 0.248782774344D-04 0.000000000000D+00  6 1 2 25 1 2 21 2 0.61282915D+00 0.61144002D-01 0.27666069D+06 0.27666069D+06 0.27666069D+06 0.10871638D+01  1  2 12  4  6  5        2 0.349403005226D-08 0.100000000000D+01
-.132760975715D+00 0.000000000000D+00 0.000000000000D+00 0.248782774344D-04 0.000000000000D+00  6 1 2 25 1 2 21 2 0.61282915D+00 0.61144002D-01 0.27673775D+06 0.27673775D+06 0.27673775D+06 0.10871548D+01  1  2  4  4  6  5        2 -.171334607623D-01 0.100000000000D+01
-.720299411077D-01 0.000000000000D+00 0.000000000000D+00 0.248782774344D-04 0.000000000000D+00  6 1 2 25 1 2 21 2 0.61282915D+00 0.61144002D-01 0.27673775D+06 0.27673775D+06 0.27673775D+06 0.10871548D+01  1  2  5  4  6  5        2 -.929582027422D-02 0.100000000000D+01
0.758631329297D-01 0.000000000000D+00 -.000000000000D+00 0.248782774344D-04 0.000000000000D+00  6 1 2 25 1 2 21 2 0.61282915D+00 0.61144002D-01 0.27673775D+06 0.27673775D+06 0.27673775D+06 0.10871548D+01  1  2  6  4  6  5        2 0.979051264390D-02 0.100000000000D+01
0.103624084379D-01 0.000000000000D+00 0.000000000000D+00 0.248782774344D-04 0.512815576913D-05  6 1 2 25 1 2 21 2 0.61282915D+00 0.61144002D-01 0.27666069D+06 0.27666069D+06 0.27666069D+06 0.10871638D+01  1  2 11  4  6  5        2 0.133737806004D-02 0.100000000000D+01
  </mgrwgt>
  </event>
  <event>
  5     66 0.17698235E-05 0.45461218E+02 0.75467711E-02 0.82804679E-01
        1 -1    0    0  501    0 0.00000000E+00 0.00000000E+00 0.72280747E+03 0.72280754E+03 0.32000000E+00 0.0000E+00 0.9000E+01
        2 -1    0    0  502    0 0.00000000E+00 0.00000000E+00 -.15048193E+04 0.15048193E+04 0.32000000E+00 0.0000E+00 0.9000E+01
       25  1    1    2    0    0 0.47445728E+03 -.37683644E+03 -.24237477E+02 0.61913478E+03 0.12500000E+03 0.0000E+00 0.9000E+01
        1  1    1    2  501    0 0.45085951E+02 -.59449775E+01 0.33571495E+03 0.33878122E+03 0.32000000E+00 0.0000E+00 0.9000E+01
        2  1    1    2  502    0 -.51954323E+03 0.38278142E+03 -.10934893E+04 0.12697109E+04 0.32000000E+00 0.0000E+00 0.9000E+01
#aMCatNLO 1  0  0  2  5 0.49112672D+02 0.00000000D+00  -5  6  0 0.00000000D+00 0.00000000D+00 0.00000000D+00 0.00000000D+00 0.00000000D+00
  <mgrwgt>
 0.1023504806D-01    5    2    0
 0.104292604701432D+04 0.000000000000000D+00 0.000000000000000D+00 0.104292604701432D+04
 0.104292604701432D+04 0.000000000000000D+00 0.000000000000000D+00 -.104292604701432D+04
 0.652262581806548D+03 0.474543547542636D+03 -.376893970798189D+03 0.206351234274399D+03
 0.487510892697780D+03 0.450710865582908D+02 -.594301752784156D+01 0.485386596640353D+03
 0.946078619524314D+03 -.519614634100926D+03 0.382836988326031D+03 -.691737830914752D+03
 0.000000000000000D+00 -.000000000000000D+00 0.000000000000000D+00 -.000000000000000D+00
 0.153455760301525D+04 0.000000000000000D+00 0.000000000000000D+00 0.153455760301525D+04
 0.369892801949055D+04 0.000000000000000D+00 0.000000000000000D+00 -.369892801949055D+04
 0.124446564711048D+04 0.102200340050229D+04 -.667830790180624D+03 0.206351234274399D+03
 0.635311814336187D+03 0.369155657410888D+03 -.178171417007801D+03 0.485386596640353D+03
 0.705082168536503D+03 -.430338417326631D+02 0.129567457855820D+03 -.691737830914752D+03
 0.264862599252264D+04 -.134812521618052D+04 0.716434749332605D+03 -.216437041647530D+04
0.290829055295D-02 0.000000000000D+00 0.000000000000D+00 0.563808025902D-05 0.000000000000D+00  6 1 2 25 1 2 21 0 0.11120116D+00 0.23151067D+00 0.42878918D+06 0.42878918D+06 0.42878918D+06 0.10732584D+01  1  2  2  2  6  2        2 0.137574225829D-01 0.100000000000D+01
0.126717812183D-02 0.000000000000D+00 -.111686014938D-04 0.563808025902D-05 0.000000000000D+00  6 1 2 25 1 2 21 2 0.11120116D+00 0.23151067D+00 0.42878918D+06 0.42878918D+06 0.42878918D+06 0.10732584D+01  1  2  3  2  6  2        2 0.690471209179D-02 0.100000000000D+01
-.191375583496D-02 0.000000000000D+00 0.000000000000D+00 0.563808025902D-05 0.000000000000D+00  6 1 2 25 1 2 21 2 0.11120116D+00 0.23151067D+00 0.42878918D+06 0.42878918D+06 0.42878918D+06 0.10732584D+01  1  2 15  2  6  2        2 -.104278418533D-01 0.100000000000D+01
0.308595013170D-03 0.000000000000D+00 -.152618069277D-02 0.563808025902D-05 0.000000000000D+00  6 1 2 25 1 2 21 2 0.11120116D+00 0.84315407D+00 0.42878918D+06 0.42878918D+06 0.42878918D+06 0.10732584D+01  1  2  5  2  6  2        2 0.754419919131D-06 0.100000000000D+01
0.871017659366D-04 0.000000000000D+00 -.232269325417D-03 0.563808025902D-05 0.000000000000D+00  6 1 21 25 1 2 -2 2 0.11120116D+00 0.84315407D+00 0.42878918D+06 0.42878918D+06 0.42878918D+06 0.10732584D+01  1  2  5  6  6  2        2 0.822084781649D-09 0.100000000000D+01
  </mgrwgt>
  </event>
  <event>
  5     66 0.17698235E-05 0.82982558E+02 0.75467711E-02 0.82928636E-01
        1 -1    0    0  501    0 0.00000000E+00 0.00000000E+00 0.31395493E+03 0.31395509E+03 0.32000000E+00 0.0000E+00 0.9000E+01
        2 -1    0    0  502    0 0.00000000E+00 0.00000000E+00 -.13915818E+04 0.13915818E+04 0.32000000E+00 0.0000E+00 0.9000E+01
       25  1    1    2    0    0 0.10452043E+03 0.44589078E+03 -.47162126E+03 0.66917465E+03 0.12500000E+03 0.0000E+00 0.9000E+01
        1  1    1    2  501    0 0.52019080E+02 -.64694887E+02 0.15222272E+03 0.17338763E+03 0.32000000E+00 0.0000E+00 0.9000E+01
        2  1    1    2  502    0 -.15653951E+03 -.38119589E+03 -.75822831E+03 0.86297462E+03 0.32000000E+00 0.0000E+00 0.9000E+01
#aMCatNLO 1  0  0  2  4 0.60269673D+02 0.00000000D+00  -5  6  0 0.00000000D+00 0.00000000D+00 0.00000000D+00 0.00000000D+00 0.00000000D+00
  <mgrwgt>
 0.1236956218D-01    3    2    0
 0.660979673850348D+03 0.000000000000000D+00 0.000000000000000D+00 0.660979673850348D+03
 0.660979673850348D+03 0.000000000000000D+00 0.000000000000000D+00 -.660979673850348D+03
 0.478951690176295D+03 0.104564471864966D+03 0.445964073258222D+03 -.628652376855868D+02
 0.347651383825755D+03 0.519990423665605D+02 -.646699661117687D+02 0.337602398913316D+03
 0.495356273698646D+03 -.156563514231527D+03 -.381294107146453D+03 -.274737161227729D+03
 0.000000000000000D+00 0.000000000000000D+00 -.000000000000000D+00 0.000000000000000D+00
 0.206225904438925D+04 0.000000000000000D+00 0.000000000000000D+00 0.206225904438925D+04
 0.150802874068387D+04 0.000000000000000D+00 0.000000000000000D+00 -.150802874068387D+04
 0.838994880813255D+03 -.423702082389772D+03 0.710501173327781D+03 -.628652376855868D+02
 0.437851503336901D+03 -.262850521866537D+03 0.929954965406796D+02 0.337602398913316D+03
 0.710018682439941D+03 -.639708498012008D+03 -.139352284608108D+03 -.274737161227729D+03
 0.158342271848303D+04 0.132626110226832D+04 -.664144385260352D+03 0.554230303705379D+03
0.131456020816D-02 0.000000000000D+00 0.000000000000D+00 0.776057425832D-06 0.000000000000D+00  6 1 2 25 1 2 21 0 0.48300774D-01 0.21408952D+00 0.23521367D+06 0.23521367D+06 0.23521367D+06 0.10924566D+01  1  2  2  2  6  2        2 0.238922234946D-01 0.100000000000D+01
0.254047429581D-03 0.000000000000D+00 -.504825733097D-05 0.776057425832D-06 0.000000000000D+00  6 1 2 25 1 2 21 2 0.48300774D-01 0.21408952D+00 0.23521367D+06 0.23521367D+06 0.23521367D+06 0.10924566D+01  1  2  3  2  6  2        2 0.551060497781D-02 0.100000000000D+01
-.785259973415D-03 0.000000000000D+00 0.000000000000D+00 0.776057425832D-06 0.000000000000D+00  6 1 2 25 1 2 21 2 0.48300774D-01 0.21408952D+00 0.23521367D+06 0.23521367D+06 0.23521367D+06 0.10924566D+01  1  2 15  2  6  2        2 -.170332662902D-01 0.100000000000D+01
  </mgrwgt>
  </event>
  <event>
  5     66 0.17698235E-05 0.59644907E+02 0.75467711E-02 0.95231355E-01
        1 -1    0    0  501    0 0.00000000E+00 0.00000000E+00 0.60446532E+03 0.60446541E+03 0.32000000E+00 0.0000E+00 0.9000E+01
        2 -1    0    0  502    0 -.00000000E+00 -.00000000E+00 -.15716129E+04 0.15716129E+04 0.32000000E+00 0.0000E+00 0.9000E+01
       25  1    1    2    0    0 0.37917931E+03 0.25690136E+03 -.69603658E+03 0.84253616E+03 0.12500000E+03 0.0000E+00 0.9000E+01
        1  1    1    2  501    0 -.39593028E+02 -.44613239E+02 0.47927631E+03 0.48297395E+03 0.32000000E+00 0.0000E+00 0.9000E+01
        2  1    1    2  502    0 -.33958628E+03 -.21228812E+03 -.75038726E+03 0.85056818E+03 0.32000000E+00 0.0000E+00 0.9000E+01
#aMCatNLO 1  0  0  4  2 0.26756367D+02 0.00000000D+00  -5  6  0 0.00000000D+00 0.00000000D+00 0.00000000D+00 0.00000000D+00 0.00000000D+00
  <mgrwgt>
 0.9739691931D-03    7    2    0
 0.974672046176913D+03 0.000000000000000D+00 0.000000000000000D+00 0.974672046176913D+03
 0.974672046176913D+03 -.000000000000000D+00 -.000000000000000D+00 -.974672046176913D+03
 0.595216695094855D+03 0.379222267341886D+03 0.256928466102842D+03 -.358937528516818D+03
 0.776890814940539D+03 -.395906124548179D+02 -.446105177170990D+02 0.774597846274723D+03
 0.577236582318431D+03 -.339631654887069D+03 -.212317948385744D+03 -.415660317757906D+03
 0.000000000000000D+00 -.000000000000000D+00 0.000000000000000D+00 0.000000000000000D+00
 0.974672046176913D+03 0.000000000000000D+00 0.000000000000000D+00 0.974672046176913D+03
 0.974672046176913D+03 -.000000000000000D+00 -.000000000000000D+00 -.974672046176913D+03
 0.594845007080532D+03 0.379193491695941D+03 0.256896041839017D+03 -.358374527542800D+03
 0.367554223024244D+03 0.761125372716850D+01 -.163575360140602D+02 0.367111163947932D+03
 0.576871550519383D+03 -.339659561177097D+03 -.212349393063371D+03 -.415114325897381D+03
 0.410073311729665D+03 -.471451842460132D+02 -.281891127615857D+02 0.406377689492250D+03
0.901253539718D-05 0.000000000000D+00 0.000000000000D+00 0.124902628993D-04 0.000000000000D+00  6 1 2 25 1 2 21 0 0.92994674D-01 0.24178660D+00 0.21855280D+06 0.21855280D+06 0.21855280D+06 0.10948787D+01  1  2  2  3  6  4        1 0.531533107962D-04 0.100000000000D+01
0.333601324647D-05 0.000000000000D+00 -.346105089802D-07 0.124902628993D-04 0.000000000000D+00  6 1 2 25 1 2 21 2 0.92994674D-01 0.24178660D+00 0.21855280D+06 0.21855280D+06 0.21855280D+06 0.10948787D+01  1  2  3  3  6  4        1 0.235853913185D-04 0.100000000000D+01
-.612165034813D-05 0.000000000000D+00 0.000000000000D+00 0.124902628993D-04 0.000000000000D+00  6 1 2 25 1 2 21 2 0.92994674D-01 0.24178660D+00 0.21855280D+06 0.21855280D+06 0.21855280D+06 0.10948787D+01  1  2 15  3  6  4        1 -.432796599740D-04 0.100000000000D+01
0.495609696780D-09 0.000000000000D+00 0.000000000000D+00 0.124902628993D-04 0.000000000000D+00  6 1 2 25 1 2 21 2 0.92994674D-01 0.24178660D+00 0.22482725D+06 0.22482725D+06 0.22482725D+06 0.10939436D+01  1  2 12  3  6  4        1 0.349264020486D-08 0.100000000000D+01
-.573476387131D-04 0.000000000000D+00 0.000000000000D+00 0.124902628993D-04 0.000000000000D+00  6 1 2 25 1 2 21 2 0.92994674D-01 0.24178660D+00 0.21855280D+06 0.21855280D+06 0.21855280D+06 0.10948787D+01  1  2  4  3  6  4        1 -.405443983675D-03 0.100000000000D+01
-.299613044819D-03 0.000000000000D+00 0.000000000000D+00 0.124902628993D-04 0.000000000000D+00  6 1 2 25 1 2 21 2 0.92994674D-01 0.24178660D+00 0.21855280D+06 0.21855280D+06 0.21855280D+06 0.10948787D+01  1  2  5  3  6  4        1 -.211824425867D-02 0.100000000000D+01
0.489989753440D-03 0.000000000000D+00 -.000000000000D+00 0.124902628993D-04 0.000000000000D+00  6 1 2 25 1 2 21 2 0.92994674D-01 0.24178660D+00 0.21855280D+06 0.21855280D+06 0.21855280D+06 0.10948787D+01  1  2  6  3  6  4        1 0.346419490066D-02 0.100000000000D+01
  </mgrwgt>
  </event>
  <event>
  5     66 -.17698235E-05 0.12278230E+03 0.75467711E-02 0.92211369E-01
        1 -1    0    0  501    0 0.00000000E+00 0.00000000E+00 0.28626320E+04 0.28626320E+04 0.32000000E+00 0.0000E+00 0.9000E+01
        2 -1    0    0  502    0 0.00000000E+00 0.00000000E+00 -.11635364E+04 0.11635364E+04 0.32000000E+00 0.0000E+00 0.9000E+01
       25  1    1    2    0    0 0.19514081E+02 0.56705900E+03 0.29365124E+03 0.65099367E+03 0.12500000E+03 0.0000E+00 0.9000E+01
        1  1    1    2  501    0 -.11686166E+03 -.37681459E+02 0.23150185E+04 0.23182725E+04 0.32000000E+00 0.0000E+00 0.9000E+01
        2  1    1    2  502    0 0.97347576E+02 -.52937754E+03 -.90957414E+03 0.10569022E+04 0.32000000E+00 0.0000E+00 0.9000E+01
#aMCatNLO 1  0  0  5  1 0.67998029D+02 0.00000000D+00  -5  6  0 0.00000000D+00 0.00000000D+00 0.00000000D+00 0.00000000D+00 0.00000000D+00
  <mgrwgt>
 -.2979806259D-02    5    2    0
 0.182504151168922D+04 0.000000000000000D+00 0.000000000000000D+00 0.182504151168922D+04
 0.182504151168922D+04 -.000000000000000D+00 -.000000000000000D+00 -.182504151168922D+04
 0.581415028371662D+03 0.195044167350715D+02 0.567098114715115D+03 0.209222663879211D+02
 0.147945403483479D+04 -.116857600768944D+03 -.376801509502863D+02 0.147435028014235D+04
 0.158921396017200D+04 0.973531840338729D+02 -.529417963764829D+03 -.149527254653027D+04
 0.000000000000000D+00 0.000000000000000D+00 0.000000000000000D+00 -.000000000000000D+00
 0.182504151168922D+04 0.000000000000000D+00 0.000000000000000D+00 0.182504151168922D+04
 0.182504151168922D+04 -.000000000000000D+00 -.000000000000000D+00 -.182504151168922D+04
 0.580330186572459D+03 0.196919176815204D+02 0.566078462710323D+03 0.180423912153124D+02
 0.147219334863972D+04 -.116381216901926D+03 -.402707819537825D+02 0.146703337802938D+04
 0.140185719676103D+03 0.496331101197144D+02 -.902351910529306D+02 -.951115170554631D+02
 0.145737376849017D+04 0.470561891006913D+02 -.435572489703610D+03 -.138996425218923D+04
0.234700771462D-01 0.000000000000D+00 0.000000000000D+00 0.506187095949D-04 0.000000000000D+00  6 1 2 25 1 2 21 0 0.44040492D+00 0.17900560D+00 0.38571261D+06 0.38571261D+06 0.38571261D+06 0.10765682D+01  1  2  2  4  6  5        2 0.527172728460D-02 0.100000000000D+01
0.623148134614D-02 0.000000000000D+00 -.901312760545D-04 0.506187095949D-04 0.000000000000D+00  6 1 2 25 1 2 21 2 0.44040492D+00 0.17900560D+00 0.38571261D+06 0.38571261D+06 0.38571261D+06 0.10765682D+01  1  2  3  4  6  5        2 0.162223145139D-02 0.100000000000D+01
-.138497854838D-01 0.000000000000D+00 0.000000000000D+00 0.506187095949D-04 0.000000000000D+00  6 1 2 25 1 2 21 2 0.44040492D+00 0.17900560D+00 0.38571261D+06 0.38571261D+06 0.38571261D+06 0.10765682D+01  1  2 15  4  6  5        2 -.360549223514D-02 0.100000000000D+01
0.523228727195D-09 0.000000000000D+00 0.000000000000D+00 0.506187095949D-04 0.000000000000D+00  6 1 2 25 1 2 21 2 0.44040492D+00 0.17900560D+00 0.38706617D+06 0.38706617D+06 0.38706617D+06 0.10764582D+01  1  2 12  4  6  5        2 0.136138406946D-09 0.100000000000D+01
-.240783308649D-01 0.000000000000D+00 0.000000000000D+00 0.506187095949D-04 0.000000000000D+00  6 1 2 25 1 2 21 2 0.44040492D+00 0.17900560D+00 0.38571261D+06 0.38571261D+06 0.38571261D+06 0.10765682D+01  1  2  5  4  6  5        2 -.626827289634D-02 0.100000000000D+01
  </mgrwgt>
  </event>
  <event>
  5     66 0.17698235E-05 0.34760419E+02 0.75467711E-02 0.92072091E-01
        1 -1    0    0  501    0 0.00000000E+00 0.00000000E+00 0.25483050E+04 0.25483050E+04 0.32000000E+00 0.0000E+00 0.9000E+01
        2 -1    0    0  502    0 0.00000000E+00 0.00000000E+00 -.17926475E+04 0.17926476E+04 0.32000000E+00 0.0000E+00 0.9000E+01
       25  1    1    2    0    0 -.46313075E+03 -.35842990E+03 0.33258825E+03 0.68498323E+03 0.12500000E+03 0.0000E+00 0.9000E+01
        1  1    1    2  501    0 0.49781096E+03 0.35610276E+03 0.19934018E+04 0.20852520E+04 0.32000000E+00 0.0000E+00 0.9000E+01
        2  1    1    2  502    0 -.34680207E+02 0.23271387E+01 -.15703326E+04 0.15707173E+04 0.32000000E+00 0.0000E+00 0.9000E+01
#aMCatNLO 1  0  0  1  5 0.19933130D+02 0.00000000D+00  -5  6  0 0.00000000D+00 0.00000000D+00 0.00000000D+00 0.00000000D+00 0.00000000D+00
  <mgrwgt>
 0.2409227191D-01    9    2    0
 0.213733776392164D+04 0.000000000000000D+00 0.000000000000000D+00 0.213733776392164D+04
 0.213733776392164D+04 0.000000000000000D+00 0.000000000000000D+00 -.213733776392164D+04
 0.636821203205184D+03 -.463115075049457D+03 -.358420446607039D+03 0.216738218982359D+03
 0.176515079717141D+04 0.497797496307937D+03 0.356093133288324D+03 0.165564267577558D+04
 0.187270352746669D+04 -.346824212584801D+02 0.232731331871491D+01 -.187238089475794D+04
 0.000000000000000D+00 -.000000000000000D+00 0.000000000000000D+00 0.000000000000000D+00
 0.217326627631020D+04 0.000000000000000D+00 0.000000000000000D+00 0.217326627631020D+04
 0.214012751441890D+04 0.000000000000000D+00 0.000000000000000D+00 -.214012751441890D+04
 0.635193982114836D+03 -.460257278020054D+03 -.359213275613288D+03 0.216738218982359D+03
 0.176696287453898D+04 0.505732986445964D+03 0.353891616982056D+03 0.165564267577558D+04
 0.187256514577081D+04 -.262680423955411D+02 -.705947385002448D-02 -.187238089475794D+04
 0.386717883044701D+02 -.192076660303689D+02 0.532871810508258D+01 0.331387618912977D+02
0.143370090312D-01 0.000000000000D+00 0.000000000000D+00 0.411131376048D-03 0.000000000000D+00  6 1 2 25 1 2 21 0 0.39204692D+00 0.27579193D+00 0.38788832D+06 0.38788832D+06 0.38788832D+06 0.10763916D+01  1  2  2  1  6  1        1 0.240222120841D-02 0.100000000000D+01
0.107699271747D-01 0.000000000000D+00 -.550578897009D-04 0.411131376048D-03 0.000000000000D+00  6 1 2 25 1 2 21 2 0.39204692D+00 0.27579193D+00 0.38788832D+06 0.38788832D+06 0.38788832D+06 0.10763916D+01  1  2  3  1  6  1        1 0.209077733104D-02 0.100000000000D+01
-.972963126780D-02 0.000000000000D+00 0.000000000000D+00 0.411131376048D-03 0.000000000000D+00  6 1 2 25 1 2 21 2 0.39204692D+00 0.27579193D+00 0.38788832D+06 0.38788832D+06 0.38788832D+06 0.10763916D+01  1  2 15  1  6  1        1 -.188882358852D-02 0.100000000000D+01
0.594989672990D-10 0.000000000000D+00 0.000000000000D+00 0.411131376048D-03 0.000000000000D+00  6 1 2 25 1 2 21 2 0.39892713D+00 0.27579193D+00 0.39723404D+06 0.39723404D+06 0.39723404D+06 0.10756449D+01  1  2 12  1  6  1        1 0.107046231313D-10 0.100000000000D+01
-.597566308670D-02 0.000000000000D+00 0.000000000000D+00 0.411131376048D-03 0.000000000000D+00  6 1 2 25 1 2 21 2 0.39204692D+00 0.27579193D+00 0.38788832D+06 0.38788832D+06 0.38788832D+06 0.10763916D+01  1  2  4  1  6  1        1 -.116006178287D-02 0.100000000000D+01
-.169548022076D+01 0.000000000000D+00 -.142825133895D+00 0.411131376048D-03 0.000000000000D+00  6 1 2 25 1 2 21 2 0.39879893D+00 0.27579193D+00 0.38788832D+06 0.38788832D+06 0.38788832D+06 0.10763916D+01  1  2  5  1  6  1        1 -.306630089819D+00 0.100000000000D+01
0.169769238116D+01 0.000000000000D+00 0.142804313698D+00 0.411131376048D-03 0.000000000000D+00  6 1 2 25 1 2 21 2 0.39204692D+00 0.27579193D+00 0.38788832D+06 0.38788832D+06 0.38788832D+06 0.10763916D+01  1  2  6  1  6  1        1 0.329574814021D+00 0.100000000000D+01
0.421445499128D-11 0.000000000000D+00 0.000000000000D+00 0.411131376048D-03 0.000000000000D+00  6 21 2 25 1 2 -1 2 0.39892713D+00 0.27579193D+00 0.39723404D+06 0.39723404D+06 0.39723404D+06 0.10756449D+01  1  2 12  5  6  1        1 0.235185979624D-12 0.100000000000D+01
-.527674470855D-02 0.000000000000D+00 -.445794032008D-03 0.411131376048D-03 0.000000000000D+00  6 21 2 25 1 2 -1 2 0.39879893D+00 0.27579193D+00 0.38788832D+06 0.38788832D+06 0.38788832D+06 0.10763916D+01  1  2  5  5  6  1        1 -.296565475278D-03 0.100000000000D+01
  </mgrwgt>
  </event>
  <event>
  6     66 0.17698235E-05 0.25828249E+03 0.75467711E-02 0.88778429E-01
        1 -1    0    0  501    0 0.00000000E+00 0.00000000E+00 0.28964528E+04 0.28964528E+04 0.32000000E+00 0.0000E+00 0.9000E+01
        2 -1    0    0  503    0 0.00000000E+00 0.00000000E+00 -.22460733E+04 0.22460733E+04 0.32000000E+00 0.0000E+00 0.9000E+01
       25  1    1    2    0    0 0.58846921E+03 0.88818051E+02 0.46220329E+03 0.76383345E+03 0.12500000E+03 0.0000E+00 0.9000E+01
        1  1    1    2  501    0 0.34672328E+02 -.10188451E+03 0.21566005E+04 0.21592843E+04 0.32000000E+00 0.0000E+00 0.9000E+01
        2  1    1    2  502    0 -.63939240E+03 -.29860148E+03 -.12360221E+04 0.14232836E+04 0.32000000E+00 0.0000E+00 0.9000E+01
       21  1    1    2  503  502 0.16250865E+02 0.31166794E+03 -.73240228E+03 0.79612478E+03 0.75000000E+00 0.0000E+00 0.9000E+01
#aMCatNLO 2  0  0  2  1 0.14624771D+03 0.00000000D+00  -5  6  0 0.00000000D+00 0.00000000D+00 0.00000000D+00 0.00000000D+00 0.00000000D+00
  <mgrwgt>
 0.1317311863D-03    1    2    0
 0.205436838540478D+04 0.000000000000000D+00 0.000000000000000D+00 0.205436838540478D+04
 0.205436838540478D+04 0.000000000000000D+00 0.000000000000000D+00 -.205436838540478D+04
 0.661593022751672D+03 0.591106446526699D+03 0.138523209982150D+03 0.231267846715697D+03
 0.155072631549526D+04 0.408015027217925D+02 0.156991696239496D+02 0.155010995707345D+04
 0.189641743256263D+04 -.631907949248491D+03 -.154222379606100D+03 -.178137780378915D+04
 0.000000000000000D+00 0.000000000000000D+00 0.000000000000000D+00 -.000000000000000D+00
 0.208320160069086D+04 0.000000000000000D+00 0.000000000000000D+00 0.208320160069086D+04
 0.312290680678562D+04 0.000000000000000D+00 0.000000000000000D+00 -.312290680678562D+04
 0.650653234867735D+03 0.588515082489672D+03 0.888246182176330D+02 0.231267846715697D+03
 0.155384119011195D+04 0.346707444606507D+02 -.101879853498178D+03 0.155010995707345D+04
 0.191607821090748D+04 -.639436691696371D+03 -.298612705346144D+03 -.178137780378915D+04
 0.108553577158932D+04 0.162508647460479D+02 0.311667940626688D+03 -.103970520609476D+04
0.240606960165D-02 0.000000000000D+00 0.000000000000D+00 0.265501230965D-03 0.130107647931D-08  6 1 2 25 1 2 21 2 0.44560809D+00 0.34554972D+00 0.75134213D+06 0.75134213D+06 0.75134213D+06 0.10562304D+01  1  2  1  2  6  2        2 0.131731186254D-03 0.100000000000D+01
  </mgrwgt>
  </event>
  <event>
  5     66 -.17698235E-05 0.63348903E+02 0.75467711E-02 0.89321082E-01
        1 -1    0    0  501    0 0.00000000E+00 0.00000000E+00 0.75428157E+03 0.75428164E+03 0.32000000E+00 0.0000E+00 0.9000E+01
        2 -1    0    0  502    0 -.00000000E+00 -.00000000E+00 -.13652370E+04 0.13652370E+04 0.32000000E+00 0.0000E+00 0.9000E+01
       25  1    1    2    0    0 0.72574493E+03 -.25813820E+03 -.56167732E+03 0.96148190E+03 0.12500000E+03 0.0000E+00 0.9000E+01
        1  1    1    2  501    0 -.73087617E+03 0.32127990E+03 0.26208734E+03 0.84029199E+03 0.32000000E+00 0.0000E+00 0.9000E+01
        2  1    1    2  502    0 0.51312397E+01 -.63141692E+02 -.31136543E+03 0.31774477E+03 0.32000000E+00 0.0000E+00 0.9000E+01
#aMCatNLO 1  0  0  5  2 0.37330222D+01 0.00000000D+00  -5  6  0 0.00000000D+00 0.00000000D+00 0.00000000D+00 0.00000000D+00 0.00000000D+00
  <mgrwgt>
 -.4911097913D-02    9    2    0
 0.101477741512044D+04 0.000000000000000D+00 0.000000000000000D+00 0.101477741512044D+04
 0.101477741512044D+04 -.000000000000000D+00 -.000000000000000D+00 -.101477741512044D+04
 0.835023633847395D+03 0.725746286913382D+03 -.258139617150092D+03 -.297145981249540D+03
 0.956436861651903D+03 -.730877276969983D+03 0.321280383959913D+03 0.526658135053523D+03
 0.238094334741582D+03 0.513099005660173D+01 -.631407668098214D+02 -.229512153803983D+03
 0.000000000000000D+00 0.000000000000000D+00 0.000000000000000D+00 -.000000000000000D+00
 0.101477741512044D+04 0.000000000000000D+00 0.000000000000000D+00 0.101477741512044D+04
 0.101477741512044D+04 -.000000000000000D+00 -.000000000000000D+00 -.101477741512044D+04
 0.835046082595312D+03 0.725747377081807D+03 -.258153032508451D+03 -.297194745113946D+03
 0.956399992183686D+03 -.730876028330887D+03 0.321265018498444D+03 0.526602282704335D+03
 0.145049027177434D+03 0.117874560312252D+01 -.415355200434917D+02 -.138969893929008D+03
 0.930597282844494D+02 0.394990564595720D+01 -.215764659465013D+02 -.904376436613817D+02
0.564834197113D-05 0.000000000000D+00 0.000000000000D+00 0.219049377640D-06 0.000000000000D+00  6 1 2 25 1 2 21 0 0.11604333D+00 0.21003647D+00 0.67411359D+06 0.67411359D+06 0.67411359D+06 0.10594585D+01  1  2  2  4  6  5        2 0.292146397383D-04 0.100000000000D+01
0.149334975987D-05 0.000000000000D+00 -.216911204117D-07 0.219049377640D-06 0.000000000000D+00  6 1 2 25 1 2 21 2 0.11604333D+00 0.21003647D+00 0.67411359D+06 0.67411359D+06 0.67411359D+06 0.10594585D+01  1  2  3  4  6  5        2 0.866979853635D-05 0.100000000000D+01
-.357646693192D-05 0.000000000000D+00 0.000000000000D+00 0.219049377640D-06 0.000000000000D+00  6 1 2 25 1 2 21 2 0.11604333D+00 0.21003647D+00 0.67411359D+06 0.67411359D+06 0.67411359D+06 0.10594585D+01  1  2 15  4  6  5        2 -.207635535927D-04 0.100000000000D+01
0.831870754777D-04 0.000000000000D+00 0.000000000000D+00 0.219049377640D-06 0.000000000000D+00  6 1 2 25 1 2 21 2 0.11604333D+00 0.21003647D+00 0.67422567D+06 0.67422567D+06 0.67422567D+06 0.10594536D+01  1  2 12  4  6  5        2 0.482942609684D-03 0.100000000000D+01
0.175568473240D-07 0.000000000000D+00 0.000000000000D+00 0.219049377640D-06 0.000000000000D+00  6 1 2 25 1 2 21 2 0.11604333D+00 0.21003647D+00 0.67422567D+06 0.67422567D+06 0.67422567D+06 0.10594536D+01  1  2 12  4  6  5        2 0.101926286214D-06 0.100000000000D+01
-.360911332691D-02 0.000000000000D+00 0.000000000000D+00 0.219049377640D-06 0.000000000000D+00  6 1 2 25 1 2 21 2 0.11604333D+00 0.21003647D+00 0.67411359D+06 0.67411359D+06 0.67411359D+06 0.10594585D+01  1  2  4  4  6  5        2 -.209530856602D-01 0.100000000000D+01
-.127240169697D-02 0.000000000000D+00 0.000000000000D+00 0.219049377640D-06 0.000000000000D+00  6 1 2 25 1 2 21 2 0.11604333D+00 0.21003647D+00 0.67411359D+06 0.67411359D+06 0.67411359D+06 0.10594585D+01  1  2  5  4  6  5        2 -.738706140145D-02 0.100000000000D+01
0.240526476325D-02 0.000000000000D+00 -.000000000000D+00 0.219049377640D-06 0.000000000000D+00  6 1 2 25 1 2 21 2 0.11604333D+00 0.21003647D+00 0.67411359D+06 0.67411359D+06 0.67411359D+06 0.10594585D+01  1  2  6  4  6  5        2 0.139640166586D-01 0.100000000000D+01
0.154420226865D-02 0.000000000000D+00 0.000000000000D+00 0.219049377640D-06 0.510889244696D-07  6 1 2 25 1 2 21 2 0.11604333D+00 0.21003647D+00 0.67422567D+06 0.67422567D+06 0.67422567D+06 0.10594536D+01  1  2 11  4  6  5        2 0.896486706884D-02 0.100000000000D+01
  </mgrwgt>
  </event>
  <event>
  5     66 0.17698235E-05 0.61937814E+02 0.75467711E-02 0.89775433E-01
        1 -1    0    0  501    0 0.00000000E+00 0.00000000E+00 0.57695082E+03 0.57695090E+03 0.32000000E+00 0.0000E+00 0.9000E+01
        2 -1    0    0  502    0 0.00000000E+00 0.00000000E+00 -.24286207E+04 0.24286207E+04 0.32000000E+00 0.0000E+00 0.9000E+01
       25  1    1    2    0    0 0.16384339E+02 -.65484937E+03 -.48483778E+03 0.82449306E+03 0.12500000E+03 0.0000E+00 0.9000E+01
        1  1    1    2  501    0 0.41754450E+02 -.45762528E+02 0.33451555E+03 0.34020347E+03 0.32000000E+00 0.0000E+00 0.9000E+01
        2  1    1    2  502    0 -.58138789E+02 0.70061189E+03 -.17013476E+04 0.18408751E+04 0.32000000E+00 0.0000E+00 0.9000E+01
#aMCatNLO 1  0  0  2  5 0.81378927D+01 0.00000000D+00  -5  6  0 0.00000000D+00 0.00000000D+00 0.00000000D+00 0.00000000D+00 0.00000000D+00
  <mgrwgt>
 0.9862825509D-02    4    2    0
 0.118372076098636D+04 0.000000000000000D+00 0.000000000000000D+00 0.118372076098636D+04
 0.118372076098636D+04 0.000000000000000D+00 0.000000000000000D+00 -.118372076098636D+04
 0.667613955317274D+03 0.163953704333256D+02 -.654941860883856D+03 0.294235284206491D+02
 0.693419110051639D+03 0.417471038219851D+02 -.457544760413031D+02 0.690647355333726D+03
 0.100640845660381D+04 -.581424742553107D+02 0.700696336925159D+03 -.720070883754375D+03
 0.000000000000000D+00 -.000000000000000D+00 -.000000000000000D+00 0.000000000000000D+00
 0.140881855239931D+04 0.000000000000000D+00 0.000000000000000D+00 0.140881855239931D+04
 0.120018453807669D+04 0.000000000000000D+00 0.000000000000000D+00 -.120018453807669D+04
 0.651535433628327D+03 0.434392962674063D+02 -.637276003618781D+03 0.294235284206491D+02
 0.694737739246520D+03 0.702057539135394D+02 -.271644808771928D+02 0.690647355333726D+03
 0.102400925018755D+04 -.165168127989080D+02 0.727887396328467D+03 -.720070883754375D+03
 0.238720667413598D+03 -.971282373820376D+02 -.634469118324938D+02 0.208634014322622D+03
0.628270456220D-02 0.000000000000D+00 0.000000000000D+00 0.491795330676D-05 0.000000000000D+00  6 1 2 25 1 2 21 0 0.88761672D-01 0.37363396D+00 0.51266140D+06 0.51266140D+06 0.51266140D+06 0.10677437D+01  1  2  2  2  6  2        2 0.126168805010D-01 0.100000000000D+01
0.265155222617D-02 0.000000000000D+00 -.241272397929D-04 0.491795330676D-05 0.000000000000D+00  6 1 2 25 1 2 21 2 0.88761672D-01 0.37363396D+00 0.51266140D+06 0.51266140D+06 0.51266140D+06 0.10677437D+01  1  2  3  2  6  2        2 0.607071088078D-02 0.100000000000D+01
-.383796232460D-02 0.000000000000D+00 0.000000000000D+00 0.491795330676D-05 0.000000000000D+00  6 1 2 25 1 2 21 2 0.88761672D-01 0.37363396D+00 0.51266140D+06 0.51266140D+06 0.51266140D+06 0.10677437D+01  1  2 15  2  6  2        2 -.878698877358D-02 0.100000000000D+01
-.165002012173D-04 0.000000000000D+00 0.000000000000D+00 0.491795330676D-05 0.000000000000D+00  6 1 2 25 1 2 21 2 0.88761672D-01 0.37363396D+00 0.51266140D+06 0.51266140D+06 0.51266140D+06 0.10677437D+01  1  2  4  2  6  2        2 -.377770990427D-04 0.100000000000D+01
  </mgrwgt>
  </event>
  <event>
  6     66 0.17698235E-05 0.55879936E+02 0.75467711E-02 0.94557881E-01
        1 -1    0    0  501    0 0.00000000E+00 0.00000000E+00 0.16964285E+03 0.16964315E+03 0.32000000E+00 0.0000E+00 0.9000E+01
        2 -1    0    0  502    0 -.00000000E+00 -.00000000E+00 -.18488463E+04 0.18488463E+04 0.32000000E+00 0.0000E+00 0.9000E+01
       25  1    1    2    0    0 0.12566030E+03 -.47824550E+03 -.61646875E+03 0.80010499E+03 0.12500000E+03 0.0000E+00 0.9000E+01
        1  1    1    2  503    0 -.63273474E+01 0.43950007E+02 -.10440790E+01 0.44416561E+02 0.32000000E+00 0.0000E+00 0.9000E+01
        2  1    1    2  502    0 -.12006817E+03 0.41760593E+03 -.10703124E+04 0.11551536E+04 0.32000000E+00 0.0000E+00 0.9000E+01
       21  1    1    2  501  503 0.73521790E+00 0.16689564E+02 0.86217664E+01 0.18814342E+02 0.75000000E+00 0.0000E+00 0.9000E+01
#aMCatNLO 2  0  0  4  1 0.73158005D+01 0.00000000D+00  -5  6  0 0.00000000D+00 0.00000000D+00 0.00000000D+00 0.00000000D+00 0.00000000D+00
  <mgrwgt>
 0.4257745523D-02    6    2    0
 0.560039173530866D+03 0.000000000000000D+00 0.000000000000000D+00 0.560039173530866D+03
 0.560039173530866D+03 -.000000000000000D+00 -.000000000000000D+00 -.560039173530866D+03
 0.518091926570438D+03 0.125773064997408D+03 -.478606647713748D+03 0.889441243862310D+02
 0.124383930730932D+03 -.559238737238028D+01 0.606423670983929D+02 0.108455478147755D+03
 0.477602489760363D+03 -.120180677625027D+03 0.417964280615356D+03 -.197399602533986D+03
 0.000000000000000D+00 0.000000000000000D+00 0.000000000000000D+00 0.000000000000000D+00
 0.560039173530866D+03 0.000000000000000D+00 0.000000000000000D+00 0.560039173530866D+03
 0.560039173530866D+03 -.000000000000000D+00 -.000000000000000D+00 -.560039173530866D+03
 0.517959467229691D+03 0.125753930177897D+03 -.478399154800284D+03 0.893152138442910D+02
 0.775922630827192D+02 -.627699713130966D+01 0.434961240332181D+02 0.639472109743525D+02
 0.477633096059612D+03 -.120198319858447D+03 0.418155588320680D+03 -.197057459414462D+03
 0.468935206897105D+02 0.721386811859944D+00 0.167474424463860D+02 0.437950345958189D+02
-.204427305599D-03 0.000000000000D+00 0.000000000000D+00 0.748972481368D-07 0.000000000000D+00  6 1 2 25 1 2 21 2 0.26098925D-01 0.28443791D+00 0.25300831D+06 0.25300831D+06 0.25300831D+06 0.10900685D+01  1  2 13  3  6  4        1 -.557652759812D-02 0.100000000000D+01
-.111183921897D-05 0.000000000000D+00 0.000000000000D+00 0.748972481368D-07 0.000000000000D+00  6 1 2 25 1 2 21 2 0.26098925D-01 0.28443791D+00 0.25300831D+06 0.25300831D+06 0.25300831D+06 0.10900685D+01  1  2 13  3  6  4        1 -.303296180082D-04 0.100000000000D+01
-.336452999224D-04 0.000000000000D+00 0.000000000000D+00 0.748972481368D-07 0.000000000000D+00  6 1 2 25 1 2 21 2 0.26098925D-01 0.28443791D+00 0.25310919D+06 0.25310919D+06 0.25310919D+06 0.10900555D+01  1  2  8  3  6  4        1 -.917766843318D-03 0.100000000000D+01
-.645920177958D-05 0.000000000000D+00 0.000000000000D+00 0.748972481368D-07 0.000000000000D+00  6 1 2 25 1 2 21 2 0.26098925D-01 0.28443791D+00 0.25310919D+06 0.25310919D+06 0.25310919D+06 0.10900555D+01  1  2  9  3  6  4        1 -.176192253933D-03 0.100000000000D+01
0.930639455215D-05 0.000000000000D+00 0.000000000000D+00 0.748972481368D-07 0.000000000000D+00  6 1 2 25 1 2 21 2 0.26098925D-01 0.28443791D+00 0.25310919D+06 0.25310919D+06 0.25310919D+06 0.10900555D+01  1  2 10  3  6  4        1 0.253857161936D-03 0.100000000000D+01
0.392418740030D-03 0.000000000000D+00 0.000000000000D+00 0.748972481368D-07 0.711349815532D-08  6 1 2 25 1 2 21 2 0.26098925D-01 0.28443791D+00 0.25300831D+06 0.25300831D+06 0.25300831D+06 0.10900685D+01  1  2  1  3  6  4        1 0.107047046743D-01 0.100000000000D+01
  </mgrwgt>
  </event>
  <event>
  5     66 0.17698235E-05 0.14342622E+03 0.75467711E-02 0.92431874E-01
        1 -1    0    0  501    0 0.00000000E+00 0.00000000E+00 0.10438068E+04 0.10438068E+04 0.32000000E+00 0.0000E+00 0.9000E+01
        2 -1    0    0  502    0 0.00000000E+00 0.00000000E+00 -.77813146E+03 0.77813153E+03 0.32000000E+00 0.0000E+00 0.9000E+01
       25  1    1    2    0    0 -.41717008E+03 -.28799255E+03 0.41664028E+03 0.66797059E+03 0.12500000E+03 0.0000E+00 0.9000E+01
        1  1    1    2  501    0 0.36290904E+03 0.42073613E+03 0.33397004E+03 0.64827306E+03 0.32000000E+00 0.0000E+00 0.9000E+01
        2  1    1    2  502    0 0.54261035E+02 -.13274358E+03 -.48493499E+03 0.50569473E+03 0.32000000E+00 0.0000E+00 0.9000E+01
#aMCatNLO 1  0  0  4  1 0.12297611D+03 0.00000000D+00  -5  6  0 0.00000000D+00 0.00000000D+00 0.00000000D+00 0.00000000D+00 0.00000000D+00
  <mgrwgt>
 0.1404528687D-01    8    2    0
 0.901231941862149D+03 0.000000000000000D+00 0.000000000000000D+00 0.901231941862149D+03
 0.901231941862149D+03 -.000000000000000D+00 -.000000000000000D+00 -.901231941862149D+03
 0.613775108152920D+03 -.417127415398745D+03 -.287912771971542D+03 0.322809291140380D+03
 0.605962698659513D+03 0.362855913878080D+03 0.420674533980252D+03 0.241990318795859D+03
 0.582726076911865D+03 0.542715015206653D+02 -.132761762008710D+03 -.564799609936239D+03
 0.000000000000000D+00 0.000000000000000D+00 0.000000000000000D+00 0.000000000000000D+00
 0.901231941862149D+03 0.000000000000000D+00 0.000000000000000D+00 0.901231941862149D+03
 0.901231941862149D+03 -.000000000000000D+00 -.000000000000000D+00 -.901231941862149D+03
 0.598324931539392D+03 -.398768690757400D+03 -.266628709517031D+03 0.335052811112711D+03
 0.495410776274264D+03 0.375898607556949D+03 0.248912714020649D+03 0.205364395366603D+03
 0.569034291994951D+03 0.717163086926395D+02 -.112537243551747D+03 -.553165585830745D+03
 0.139693883915692D+03 -.488462254921888D+02 0.130253239048129D+03 0.127483793514315D+02
0.111341852783D-02 0.000000000000D+00 0.000000000000D+00 0.171604067725D-06 0.000000000000D+00  6 1 2 25 1 2 21 0 0.16058567D+00 0.11971254D+00 0.37271093D+06 0.37271093D+06 0.37271093D+06 0.10776469D+01  1  2  2  3  6  4        1 0.792259311463D-02 0.100000000000D+01
0.157165636137D-03 0.000000000000D+00 -.427582031671D-05 0.171604067725D-06 0.000000000000D+00  6 1 2 25 1 2 21 2 0.16058567D+00 0.11971254D+00 0.37271093D+06 0.37271093D+06 0.37271093D+06 0.10776469D+01  1  2  3  3  6  4        1 0.129873177168D-02 0.100000000000D+01
-.613086796897D-03 0.000000000000D+00 0.000000000000D+00 0.171604067725D-06 0.000000000000D+00  6 1 2 25 1 2 21 2 0.16058567D+00 0.11971254D+00 0.37271093D+06 0.37271093D+06 0.37271093D+06 0.10776469D+01  1  2 15  3  6  4        1 -.506621753645D-02 0.100000000000D+01
0.131752885841D-02 0.000000000000D+00 0.000000000000D+00 0.171604067725D-06 0.000000000000D+00  6 1 2 25 1 2 21 2 0.16058567D+00 0.11971254D+00 0.37155833D+06 0.37155833D+06 0.37155833D+06 0.10777445D+01  1  2 12  3  6  4        1 0.108908675757D-01 0.100000000000D+01
0.439294340738D-06 0.000000000000D+00 0.000000000000D+00 0.171604067725D-06 0.000000000000D+00  6 1 2 25 1 2 21 2 0.16058567D+00 0.11971254D+00 0.37155833D+06 0.37155833D+06 0.37155833D+06 0.10777445D+01  1  2 12  3  6  4        1 0.363126504681D-05 0.100000000000D+01
-.476414587705D-03 0.000000000000D+00 0.000000000000D+00 0.171604067725D-06 0.000000000000D+00  6 1 2 25 1 2 21 2 0.16058567D+00 0.11971254D+00 0.37271093D+06 0.37271093D+06 0.37271093D+06 0.10776469D+01  1  2  4  3  6  4        1 -.393683235566D-02 0.100000000000D+01
-.138506131933D-02 0.000000000000D+00 0.000000000000D+00 0.171604067725D-06 0.000000000000D+00  6 1 2 25 1 2 21 2 0.16058567D+00 0.11971254D+00 0.37271093D+06 0.37271093D+06 0.37271093D+06 0.10776469D+01  1  2  5  3  6  4        1 -.114453972595D-01 0.100000000000D+01
0.173993850553D-02 0.000000000000D+00 -.000000000000D+00 0.171604067725D-06 0.000000000000D+00  6 1 2 25 1 2 21 2 0.16058567D+00 0.11971254D+00 0.37271093D+06 0.37271093D+06 0.37271093D+06 0.10776469D+01  1  2  6  3  6  4        1 0.143779102954D-01 0.100000000000D+01
  </mgrwgt>
  </event>
  <event>
  6     66 0.17698235E-05 0.20608882E+02 0.75467711E-02 0.92987127E-01
        1 -1    0    0  501    0 0.00000000E+00 0.00000000E+00 0.21648415E+04 0.21648416E+04 0.32000000E+00 0.0000E+00 0.9000E+01
        2 -1    0    0  502    0 0.00000000E+00 0.00000000E+00 -.20274568E+04 0.20274569E+04 0.32000000E+00 0.0000E+00 0.9000E+01
       25  1    1    2    0    0 -.40434185E+02 -.55216277E+03 0.41250580E+03 0.70164427E+03 0.12500000E+03 0.0000E+00 0.9000E+01
        1  1    1    2  503    0 -.14008513E+02 0.15655818E+02 0.27079153E+03 0.27160540E+03 0.32000000E+00 0.0000E+00 0.9000E+01
        2  1    1    2  502    0 0.85172298E+02 0.53174266E+03 -.18437769E+04 0.19208118E+04 0.32000000E+00 0.0000E+00 0.9000E+01
       21  1    1    2  501  503 -.30729601E+02 0.47642907E+01 0.12978643E+04 0.12982370E+04 0.75000000E+00 0.0000E+00 0.9000E+01
#aMCatNLO 2  0  0  4  2 0.13623277D+02 0.00000000D+00  -5  6  0 0.00000000D+00 0.00000000D+00 0.00000000D+00 0.00000000D+00 0.00000000D+00
  <mgrwgt>
 0.1727110929D-02    2    2    0
 0.209502336303291D+04 0.000000000000000D+00 0.000000000000000D+00 0.209502336303291D+04
 0.209502336303291D+04 -.000000000000000D+00 -.000000000000000D+00 -.209502336303291D+04
 0.688717944390406D+03 -.404606083862661D+02 -.552293615331288D+03 0.389925773139781D+03
 0.151880994757105D+04 -.447377399588056D+02 0.204199384175214D+02 0.151801357621702D+04
 0.198251883410437D+04 0.851983483450720D+02 0.531873676913766D+03 -.190793934935680D+04
 0.000000000000000D+00 0.000000000000000D+00 0.000000000000000D+00 0.000000000000000D+00
 0.209502336303291D+04 0.000000000000000D+00 0.000000000000000D+00 0.209502336303291D+04
 0.209502336303291D+04 -.000000000000000D+00 -.000000000000000D+00 -.209502336303291D+04
 0.688757009748880D+03 -.404626748366246D+02 -.552292672127874D+03 0.389995890666987D+03
 0.263148138719217D+03 -.140004930402921D+02 0.156282384261270D+02 0.262310288150720D+03
 0.198232507769687D+04 0.851924003943683D+02 0.531876391775697D+03 -.190773752713853D+04
 0.125581649990085D+04 -.307292325174514D+02 0.478804192604974D+01 0.125543134832082D+04
-.741951235929D-11 0.000000000000D+00 0.000000000000D+00 0.554502823955D-03 0.000000000000D+00  6 1 2 25 1 2 21 2 0.33305255D+00 0.31191644D+00 0.33549792D+06 0.33549792D+06 0.33549792D+06 0.10809767D+01  1  2 13  3  6  4        1 -.200650094574D-11 0.100000000000D+01
0.638640162481D-02 0.000000000000D+00 0.000000000000D+00 0.554502823955D-03 0.267692983443D-05  6 1 2 25 1 2 21 2 0.33305255D+00 0.31191644D+00 0.33549792D+06 0.33549792D+06 0.33549792D+06 0.10809767D+01  1  2  1  3  6  4        1 0.172711093122D-02 0.100000000000D+01
  </mgrwgt>
  </event>
  <event>
  5     66 0.17698235E-05 0.60898213E+02 0.75467711E-02 0.92739719E-01
        1 -1    0    0  501    0 0.00000000E+00 0.00000000E+00 0.38309176E+04 0.38309176E+04 0.32000000E+00 0.0000E+00 0.9000E+01
        2 -1    0    0  502    0 0.00000000E+00 0.00000000E+00 -.18017163E+04 0.18017163E+04 0.32000000E+00 0.0000E+00 0.9000E+01
       25  1    1    2    0    0 -.24889997E+03 -.45816748E+03 0.50353724E+02 0.53854353E+03 0.12500000E+03 0.0000E+00 0.9000E+01
        1  1    1    2  501    0 0.26139893E+03 0.39856836E+03 0.35198046E+04 0.35519306E+04 0.32000000E+00 0.0000E+00 0.9000E+01
        2  1    1    2  502    0 -.12498958E+02 0.59599127E+02 -.15409570E+04 0.15421598E+04 0.32000000E+00 0.0000E+00 0.9000E+01
#aMCatNLO 1  0  0  1  4 0.17269537D+03 0.00000000D+00  -5  6  0 0.00000000D+00 0.00000000D+00 0.00000000D+00 0.00000000D+00 0.00000000D+00
  <mgrwgt>
 0.1985156397D+00    7    2    0
 0.262720889673164D+04 0.000000000000000D+00 0.000000000000000D+00 0.262720889673164D+04
 0.262720889673164D+04 0.000000000000000D+00 0.000000000000000D+00 -.262720889673164D+04
 0.557850112072380D+03 -.248897945626180D+03 -.458167642543711D+03 -.153960941566918D+03
 0.244827426147516D+04 0.261397380401766D+03 0.398565993840826D+03 0.240142945294558D+04
 0.224829341991575D+04 -.124994347755863D+02 0.596016487028855D+02 -.224746851137866D+04
 0.000000000000000D+00 -.000000000000000D+00 0.000000000000000D+00 0.000000000000000D+00
 0.309130055054076D+04 0.000000000000000D+00 0.000000000000000D+00 0.309130055054076D+04
 0.264474238017619D+04 0.000000000000000D+00 0.000000000000000D+00 -.264474238017619D+04
 0.567672180227312D+03 -.240291934971623D+03 -.474534001588349D+03 -.153960941566918D+03
 0.244200040964381D+04 0.298789581525895D+03 0.327455904203330D+03 0.240142945294558D+04
 0.224758240109124D+04 0.218770991072712D+02 -.577343841010530D+01 -.224746851137866D+04
 0.478787939754584D+03 -.803747456615436D+02 0.152851535795124D+03 0.446558170364571D+03
0.130059560200D+01 0.000000000000D+00 0.000000000000D+00 0.216920650250D-02 0.000000000000D+00  6 1 2 25 1 2 21 0 0.58937194D+00 0.27718712D+00 0.28821833D+06 0.28821833D+06 0.28821833D+06 0.10858415D+01  1  2  2  1  6  1        1 0.223390646644D-01 0.100000000000D+01
0.604950835313D+00 0.000000000000D+00 -.499462956638D-02 0.216920650250D-02 0.000000000000D+00  6 1 2 25 1 2 21 2 0.58937194D+00 0.27718712D+00 0.28821833D+06 0.28821833D+06 0.28821833D+06 0.10858415D+01  1  2  3  1  6  1        1 0.122511166034D-01 0.100000000000D+01
-.857678024781D+00 0.000000000000D+00 0.000000000000D+00 0.216920650250D-02 0.000000000000D+00  6 1 2 25 1 2 21 2 0.58937194D+00 0.27718712D+00 0.28821833D+06 0.28821833D+06 0.28821833D+06 0.10858415D+01  1  2 15  1  6  1        1 -.173692023820D-01 0.100000000000D+01
-.158857511968D+01 0.000000000000D+00 0.000000000000D+00 0.216920650250D-02 0.000000000000D+00  6 1 2 25 1 2 21 2 0.58937194D+00 0.27718712D+00 0.28821833D+06 0.28821833D+06 0.28821833D+06 0.10858415D+01  1  2  4  1  6  1        1 -.321709102432D-01 0.100000000000D+01
-.124510020028D+02 0.000000000000D+00 -.994675480017D+00 0.216920650250D-02 0.000000000000D+00  6 1 2 25 1 2 21 2 0.69414190D+00 0.27718712D+00 0.28821833D+06 0.28821833D+06 0.28821833D+06 0.10858415D+01  1  2  5  1  6  1        1 -.538940651630D-01 0.100000000000D+01
0.132054291098D+02 0.000000000000D+00 0.105255155897D+01 0.216920650250D-02 0.000000000000D+00  6 1 2 25 1 2 21 2 0.58937194D+00 0.27718712D+00 0.28821833D+06 0.28821833D+06 0.28821833D+06 0.10858415D+01  1  2  6  1  6  1        1 0.267428760120D+00 0.100000000000D+01
-.296487594003D+00 0.000000000000D+00 -.243296819236D-01 0.216920650250D-02 0.000000000000D+00  6 21 2 25 1 2 -1 2 0.69414190D+00 0.27718712D+00 0.28821833D+06 0.28821833D+06 0.28821833D+06 0.10858415D+01  1  2  5  5  6  1        1 -.691238951357D-04 0.100000000000D+01
  </mgrwgt>
  </event>
  <event>
  5     66 -.17698235E-05 0.19301560E+03 0.75467711E-02 0.94181748E-01
        1 -1    0    0  501    0 0.00000000E+00 0.00000000E+00 0.12217070E+04 0.12217070E+04 0.32000000E+00 0.0000E+00 0.9000E+01
        2 -1    0    0  502    0 0.00000000E+00 0.00000000E+00 -.64798693E+03 0.64798701E+03 0.32000000E+00 0.0000E+00 0.9000E+01
       25  1    1    2    0    0 -.20255457E+03 -.44421327E+03 0.55781825E+03 0.75175792E+03 0.12500000E+03 0.0000E+00 0.9000E+01
        1  1    1    2  501    0 0.17353045E+03 0.14822805E+03 0.50008989E+03 0.54970389E+03 0.32000000E+00 0.0000E+00 0.9000E+01
        2  1    1    2  502    0 0.29024123E+02 0.29598522E+03 -.48418808E+03 0.56823222E+03 0.32000000E+00 0.0000E+00 0.9000E+01
#aMCatNLO 1  0  0  2  5 0.14524767D+02 0.00000000D+00  -5  6  0 0.00000000D+00 0.00000000D+00 0.00000000D+00 0.00000000D+00 0.00000000D+00
  <mgrwgt>
 -.2298132996D-02   11    2    0
 0.889747307062274D+03 0.000000000000000D+00 0.000000000000000D+00 0.889747307062274D+03
 0.889747307062274D+03 0.000000000000000D+00 0.000000000000000D+00 -.889747307062274D+03
 0.610105719893809D+03 -.202499073502865D+03 -.444212264470033D+03 0.343909259503185D+03
 0.416176326669668D+03 0.173464223253801D+03 0.148171479409020D+03 0.348077736749934D+03
 0.753212567561071D+03 0.290348502490634D+02 0.296040785061013D+03 -.691986996253119D+03
 0.000000000000000D+00 0.000000000000000D+00 0.000000000000000D+00 -.000000000000000D+00
 0.889940776687946D+03 0.000000000000000D+00 0.000000000000000D+00 0.889940776687946D+03
 0.121170709043161D+04 0.000000000000000D+00 0.000000000000000D+00 -.121170709043161D+04
 0.613829243407802D+03 -.202746444291454D+03 -.449201113776155D+03 0.343909259503185D+03
 0.414912134774715D+03 0.173296251086767D+03 0.144783901458785D+03 0.348077736749934D+03
 0.750812512702657D+03 0.287308701510042D+02 0.289910267751643D+03 -.691986996253119D+03
 0.322093976234377D+03 0.719323053682371D+00 0.145069445657275D+02 -.321766313743659D+03
0.145373221006D-05 0.000000000000D+00 0.000000000000D+00 0.525013383313D-06 0.000000000000D+00  6 1 2 25 1 2 21 0 0.18795493D+00 0.99690306D-01 0.26498507D+06 0.26498507D+06 0.26498507D+06 0.10885623D+01  1  2  2  2  6  2        2 0.977495695571D-05 0.100000000000D+01
0.902699006184D-07 0.000000000000D+00 -.558271446311D-08 0.525013383313D-06 0.000000000000D+00  6 1 2 25 1 2 21 2 0.18795493D+00 0.99690306D-01 0.26498507D+06 0.26498507D+06 0.26498507D+06 0.10885623D+01  1  2  3  2  6  2        2 0.719250161492D-06 0.100000000000D+01
-.964444303709D-06 0.000000000000D+00 0.000000000000D+00 0.525013383313D-06 0.000000000000D+00  6 1 2 25 1 2 21 2 0.18795493D+00 0.99690306D-01 0.26498507D+06 0.26498507D+06 0.26498507D+06 0.10885623D+01  1  2 15  2  6  2        2 -.768447418731D-05 0.100000000000D+01
0.932264145579D-03 0.000000000000D+00 0.000000000000D+00 0.525013383313D-06 0.000000000000D+00  6 1 2 25 1 2 21 2 0.18795493D+00 0.13612157D+00 0.27045988D+06 0.27045988D+06 0.27045988D+06 0.10878983D+01  1  2 12  2  6  2        2 0.500574638024D-02 0.100000000000D+01
0.578910136365D-07 0.000000000000D+00 0.000000000000D+00 0.525013383313D-06 0.000000000000D+00  6 1 2 25 1 2 21 2 0.18795493D+00 0.13578835D+00 0.27045988D+06 0.27045988D+06 0.27045988D+06 0.10878983D+01  1  2 12  2  6  2        2 0.311865656486D-06 0.100000000000D+01
-.117789110467D-02 0.000000000000D+00 0.000000000000D+00 0.525013383313D-06 0.000000000000D+00  6 1 2 25 1 2 21 2 0.18795493D+00 0.99690306D-01 0.26498507D+06 0.26498507D+06 0.26498507D+06 0.10885623D+01  1  2  4  2  6  2        2 -.938517004509D-02 0.100000000000D+01
-.943478895444D-03 0.000000000000D+00 -.130565266376D-05 0.525013383313D-06 0.000000000000D+00  6 1 2 25 1 2 21 2 0.18795493D+00 0.13577460D+00 0.26498507D+06 0.26498507D+06 0.26498507D+06 0.10885623D+01  1  2  5  2  6  2        2 -.509513880415D-02 0.100000000000D+01
0.900623200926D-03 0.000000000000D+00 0.124573424465D-05 0.525013383313D-06 0.000000000000D+00  6 1 2 25 1 2 21 2 0.18795493D+00 0.99690306D-01 0.26498507D+06 0.26498507D+06 0.26498507D+06 0.10885623D+01  1  2  6  2  6  2        2 0.717596206789D-02 0.100000000000D+01
0.370270036479D-04 0.000000000000D+00 0.000000000000D+00 0.525013383313D-06 0.000000000000D+00  6 1 21 25 1 2 -2 2 0.18795493D+00 0.13612157D+00 0.27045988D+06 0.27045988D+06 0.27045988D+06 0.10878983D+01  1  2 12  6  6  2        2 0.168343168460D-03 0.100000000000D+01
0.228621130266D-08 0.000000000000D+00 0.000000000000D+00 0.525013383313D-06 0.000000000000D+00  6 1 21 25 1 2 -2 2 0.18795493D+00 0.13578835D+00 0.27045988D+06 0.27045988D+06 0.27045988D+06 0.10878983D+01  1  2 12  6  6  2        2 0.104673194630D-07 0.100000000000D+01
-.372200963521D-04 0.000000000000D+00 -.515501832294D-07 0.525013383313D-06 0.000000000000D+00  6 1 21 25 1 2 -2 2 0.18795493D+00 0.13577460D+00 0.26498507D+06 0.26498507D+06 0.26498507D+06 0.10885623D+01  1  2  5  6  6  2        2 -.171007829029D-03 0.100000000000D+01
  </mgrwgt>
  </event>
  <event>
  5     66 0.17698235E-05 0.11479409E+03 0.75467711E-02 0.91261659E-01
        1 -1    0    0  501    0 0.00000000E+00 0.00000000E+00 0.99006247E+03 0.99006252E+03 0.32000000E+00 0.0000E+00 0.9000E+01
        2 -1    0    0  502    0 0.00000000E+00 0.00000000E+00 -.34302249E+04 0.34302249E+04 0.32000000E+00 0.0000E+00 0.9000E+01
       25  1    1    2    0    0 -.42982329E+03 0.41668092E+03 -.11445024E+04 0.12976447E+04 0.12500000E+03 0.0000E+00 0.9000E+01
        1  1    1    2  501    0 -.96136875E+02 -.62736444E+02 0.86413468E+03 0.87172645E+03 0.32000000E+00 0.0000E+00 0.9000E+01
        2  1    1    2  502    0 0.52596017E+03 -.35394447E+03 -.21597947E+04 0.22509163E+04 0.32000000E+00 0.0000E+00 0.9000E+01
#aMCatNLO 1  0  0  1  2 0.13247443D+04 0.00000000D+00  -5  6  0 0.00000000D+00 0.00000000D+00 0.00000000D+00 0.00000000D+00 0.00000000D+00
  <mgrwgt>
 0.6528526793D-04    1    2    0
 0.184286112105709D+04 0.000000000000000D+00 0.000000000000000D+00 0.184286112105709D+04
 0.184286112105709D+04 0.000000000000000D+00 0.000000000000000D+00 -.184286112105709D+04
 0.798558886599469D+03 -.429856871398617D+03 0.416705165388251D+03 -.513469736807464D+03
 0.161753986606995D+04 -.961351372160960D+02 -.627353104160859D+02 0.161346135204567D+04
 0.126962348944477D+04 0.525992008614713D+03 -.353969854972165D+03 -.109999161523820D+04
 0.000000000000000D+00 -.000000000000000D+00 0.000000000000000D+00 0.000000000000000D+00
 0.342261372768520D+04 0.000000000000000D+00 0.000000000000000D+00 0.342261372768520D+04
 0.227659151463327D+04 0.000000000000000D+00 0.000000000000000D+00 -.227659151463327D+04
 0.631126537555349D+03 -.255558567776995D+03 0.231806717385945D+03 -.513469736807464D+03
 0.171561645533742D+04 0.310222431177269D+03 -.493805964396930D+03 0.161346135204567D+04
 0.157942916835682D+04 0.873330686615891D+03 -.722432319374623D+03 -.109999161523820D+04
 0.177303308106887D+04 -.927994550016165D+03 0.984431566385608D+03 0.114602221305193D+04
0.284309159387D-03 0.000000000000D+00 0.000000000000D+00 0.178879599346D-04 0.000000000000D+00  6 1 2 25 1 2 21 2 0.15231731D+00 0.52772692D+00 0.46266613D+06 0.46266613D+06 0.46266613D+06 0.10709005D+01  1  2 14  1  6  1        1 0.652852679252D-04 0.100000000000D+01
  </mgrwgt>
  </event>
  <event>
  6     66 0.17698235E-05 0.89470073E+02 0.75467711E-02 0.89872144E-01
        1 -1    0    0  501    0 0.00000000E+00 0.00000000E+00 0.65503218E+03 0.65503226E+03 0.32000000E+00 0.0000E+00 0.9000E+01
        2 -1    0    0  502    0 -.00000000E+00 -.00000000E+00 -.27660722E+04 0.27660722E+04 0.32000000E+00 0.0000E+00 0.9000E+01
       25  1    1    2    0    0 -.74679237E+03 0.25175258E+02 -.21981401E+03 0.78884462E+03 0.12500000E+03 0.0000E+00 0.9000E+01
        1  1    1    2  501    0 0.70249455E+03 0.56643698E+02 0.33151882E+02 0.70555386E+03 0.32000000E+00 0.0000E+00 0.9000E+01
        2  1    1    2  503    0 0.36591651E+02 -.70637767E+02 -.14976004E+04 0.14997119E+04 0.32000000E+00 0.0000E+00 0.9000E+01
       21  1    1    2  502  503 0.77061689E+01 -.11181188E+02 -.42677739E+03 0.42699404E+03 0.75000000E+00 0.0000E+00 0.9000E+01
#aMCatNLO 2  0  0  5  2 0.72781790D+01 0.00000000D+00  -5  6  0 0.00000000D+00 0.00000000D+00 0.00000000D+00 0.00000000D+00 0.00000000D+00
  <mgrwgt>
 0.2258963985D-02    3    2    0
 0.134605588560220D+04 0.000000000000000D+00 0.000000000000000D+00 0.134605588560220D+04
 0.134605588560220D+04 -.000000000000000D+00 -.000000000000000D+00 -.134605588560220D+04
 0.830111050521224D+03 -.746748872103478D+03 0.251901449477496D+02 0.339397900416524D+03
 0.922574387564699D+03 0.702441730689917D+03 0.566445468466595D+02 0.595407852558455D+03
 0.939426333118486D+03 0.443071414135615D+02 -.818346917944092D+02 -.934805752974979D+03
 0.000000000000000D+00 0.000000000000000D+00 0.000000000000000D+00 -.000000000000000D+00
 0.134605588560220D+04 0.000000000000000D+00 0.000000000000000D+00 0.134605588560220D+04
 0.134605588560220D+04 -.000000000000000D+00 -.000000000000000D+00 -.134605588560220D+04
 0.830088216024184D+03 -.746746488875825D+03 0.251857431584615D+02 0.339347618343485D+03
 0.922540039662446D+03 0.702444379364576D+03 0.566396547803367D+02 0.595351970002509D+03
 0.731991810535362D+03 0.366207627422249D+02 -.706947482950628D+02 -.727649079564122D+03
 0.207491704982416D+03 0.768134676902469D+01 -.111306496437355D+02 -.207050508781873D+03
-.161508238544D-02 0.000000000000D+00 0.000000000000D+00 0.222878681849D-05 0.000000000000D+00  6 1 2 25 1 2 21 2 0.10077419D+00 0.42554957D+00 0.60483270D+06 0.60483270D+06 0.60483270D+06 0.10627166D+01  1  2 13  4  6  5        2 -.189047868741D-02 0.100000000000D+01
-.458696667957D-08 0.000000000000D+00 0.000000000000D+00 0.222878681849D-05 0.000000000000D+00  6 1 2 25 1 2 21 2 0.10077419D+00 0.42554957D+00 0.60483270D+06 0.60483270D+06 0.60483270D+06 0.10627166D+01  1  2 13  4  6  5        2 -.536911480539D-08 0.100000000000D+01
0.354497540014D-02 0.000000000000D+00 0.000000000000D+00 0.222878681849D-05 0.370096870628D-06  6 1 2 25 1 2 21 2 0.10077419D+00 0.42554957D+00 0.60483270D+06 0.60483270D+06 0.60483270D+06 0.10627166D+01  1  2  1  4  6  5        2 0.414944804164D-02 0.100000000000D+01
  </mgrwgt>
  </event>
  <event>
  5     66 0.17698235E-05 0.15307292E+03 0.75467711E-02 0.91874620E-01
        1 -1    0    0  501    0 0.00000000E+00 0.00000000E+00 0.28388529E+04 0.28388529E+04 0.32000000E+00 0.0000E+00 0.9000E+01
        2 -1    0    0  502    0 0.00000000E+00 0.00000000E+00 -.17983999E+04 0.17983999E+04 0.32000000E+00 0.0000E+00 0.9000E+01
       25  1    1    2    0    0 0.47478734E+03 -.10692860E+03 0.29417681E+03 0.58225573E+03 0.12500000E+03 0.0000E+00 0.9000E+01
        1  1    1    2  501    0 -.62416651E+03 0.73543430E+02 0.23558093E+04 0.24382022E+04 0.32000000E+00 0.0000E+00 0.9000E+01
        2  1    1    2  502    0 0.14937917E+03 0.33385169E+02 -.16095331E+04 0.16167949E+04 0.32000000E+00 0.0000E+00 0.9000E+01
#aMCatNLO 1  0  0  1  4 0.48844022D+01 0.00000000D+00  -5  6  0 0.00000000D+00 0.00000000D+00 0.00000000D+00 0.00000000D+00 0.00000000D+00
  <mgrwgt>
 0.2796057402D-01    7    2    0
 0.225951164605287D+04 0.000000000000000D+00 0.000000000000000D+00 0.225951164605287D+04
 0.225951164605287D+04 0.000000000000000D+00 0.000000000000000D+00 -.225951164605287D+04
 0.529761293283425D+03 0.474768025614763D+03 -.106929297957434D+03 0.167879346417351D+03
 0.195955950359020D+04 -.624155498719051D+03 0.735421328709594D+02 0.185604281098853D+04
 0.202970249523212D+04 0.149387473104288D+03 0.333871650864742D+02 -.202392215740588D+04
 0.000000000000000D+00 0.000000000000000D+00 -.000000000000000D+00 0.000000000000000D+00
 0.304898971574177D+04 0.000000000000000D+00 0.000000000000000D+00 0.304898971574177D+04
 0.242016855945173D+04 0.000000000000000D+00 0.000000000000000D+00 -.242016855945173D+04
 0.483410415546728D+03 0.433129534382693D+03 -.477070367029292D+02 0.167879346417351D+03
 0.203987872232734D+04 -.788521096427415D+03 0.307318671854685D+03 0.185604281098853D+04
 0.204211610314969D+04 -.179527531669946D+02 0.271394506500251D+03 -.202392215740588D+04
 0.903753034169736D+03 0.373344315211716D+03 -.531006141652006D+03 0.628821156290044D+03
0.153868911254D+00 0.000000000000D+00 0.000000000000D+00 0.443761128769D-04 0.000000000000D+00  6 1 2 25 1 2 21 0 0.43674660D+00 0.27667691D+00 0.41216632D+06 0.41216632D+06 0.41216632D+06 0.10744908D+01  1  2  2  1  6  1        1 0.157829279590D-01 0.100000000000D+01
0.355472083921D-01 0.000000000000D+00 -.590897133831D-03 0.443761128769D-04 0.000000000000D+00  6 1 2 25 1 2 21 2 0.43674660D+00 0.27667691D+00 0.41216632D+06 0.41216632D+06 0.41216632D+06 0.10744908D+01  1  2  3  1  6  1        1 0.420966572409D-02 0.100000000000D+01
-.870064628723D-01 0.000000000000D+00 0.000000000000D+00 0.443761128769D-04 0.000000000000D+00  6 1 2 25 1 2 21 2 0.43674660D+00 0.27667691D+00 0.41216632D+06 0.41216632D+06 0.41216632D+06 0.10744908D+01  1  2 15  1  6  1        1 -.103037099422D-01 0.100000000000D+01
-.120198119900D-01 0.000000000000D+00 0.000000000000D+00 0.443761128769D-04 0.000000000000D+00  6 1 2 25 1 2 21 2 0.43674660D+00 0.27667691D+00 0.41216632D+06 0.41216632D+06 0.41216632D+06 0.10744908D+01  1  2  4  1  6  1        1 -.142344203196D-02 0.100000000000D+01
-.165874680386D+00 0.000000000000D+00 -.938005837543D-01 0.443761128769D-04 0.000000000000D+00  6 1 2 25 1 2 21 2 0.59744665D+00 0.27667691D+00 0.41216632D+06 0.41216632D+06 0.41216632D+06 0.10744908D+01  1  2  5  1  6  1        1 -.283098745379D-02 0.100000000000D+01
0.190270820413D+00 0.000000000000D+00 0.893777289757D-01 0.443761128769D-04 0.000000000000D+00  6 1 2 25 1 2 21 2 0.43674660D+00 0.27667691D+00 0.41216632D+06 0.41216632D+06 0.41216632D+06 0.10744908D+01  1  2  6  1  6  1        1 0.225327553758D-01 0.100000000000D+01
-.436751087927D-02 0.000000000000D+00 -.374128946289D-02 0.443761128769D-04 0.000000000000D+00  6 21 2 25 1 2 -1 2 0.59744665D+00 0.27667691D+00 0.41216632D+06 0.41216632D+06 0.41216632D+06 0.10744908D+01  1  2  5  5  6  1        1 -.663561079840D-05 0.100000000000D+01
  </mgrwgt>
  </event>
  <event>
  5     66 0.17698235E-05 0.46277076E+02 0.75467711E-02 0.91339159E-01
        1 -1    0    0  501    0 0.00000000E+00 0.00000000E+00 0.15038196E+04 0.15038197E+04 0.32000000E+00 0.0000E+00 0.9000E+01
        2 -1    0    0  502    0 -.00000000E+00 -.00000000E+00 -.15376708E+04 0.15376709E+04 0.32000000E+00 0.0000E+00 0.9000E+01
       25  1    1    2    0    0 -.10853133E+03 -.45032096E+03 -.13368094E+03 0.49805984E+03 0.12500000E+03 0.0000E+00 0.9000E+01
        1  1    1    2  501    0 0.15294863E+03 0.46329822E+03 0.12761323E+04 0.13662183E+04 0.32000000E+00 0.0000E+00 0.9000E+01
        2  1    1    2  502    0 -.44417292E+02 -.12977262E+02 -.11763026E+04 0.11772125E+04 0.32000000E+00 0.0000E+00 0.9000E+01
#aMCatNLO 1  0  0  5  2 0.72093662D+01 0.00000000D+00  -5  6  0 0.00000000D+00 0.00000000D+00 0.00000000D+00 0.00000000D+00 0.00000000D+00
  <mgrwgt>
 0.1107600288D+00    3    2    0
 0.152065108658754D+04 0.000000000000000D+00 0.000000000000000D+00 0.152065108658754D+04
 0.152065108658754D+04 -.000000000000000D+00 -.000000000000000D+00 -.152065108658754D+04
 0.496582145515364D+03 -.108526692141470D+03 -.450314573394090D+03 -.128092034593769D+03
 0.138048982219083D+04 0.152946741776233D+03 0.463292514164350D+03 0.129140214095833D+04
 0.116423020546889D+04 -.444200496347637D+02 -.129779407702594D+02 -.116331010636456D+04
 0.000000000000000D+00 0.000000000000000D+00 0.000000000000000D+00 0.000000000000000D+00
 0.152065108658754D+04 0.000000000000000D+00 0.000000000000000D+00 0.152065108658754D+04
 0.152065108658754D+04 -.000000000000000D+00 -.000000000000000D+00 -.152065108658754D+04
 0.506839136843812D+03 -.109802693202462D+03 -.450687375007968D+03 -.161509037550518D+03
 0.129671525339055D+04 0.149542272908577D+03 0.462297850815661D+03 0.120224300959510D+04
 0.197116839002394D+03 -.580595850609349D+01 -.196280692526677D+03 -.171822235280915D+02
 0.104063094393832D+04 -.339336212000227D+02 0.184670216718984D+03 -.102355174851649D+04
0.106109762774D+00 0.000000000000D+00 0.000000000000D+00 0.224046709708D-03 0.000000000000D+00  6 1 2 25 1 2 21 0 0.23135687D+00 0.23656475D+00 0.25701873D+06 0.25701873D+06 0.25701873D+06 0.10895556D+01  1  2  2  4  6  5        2 0.128336860931D+00 0.100000000000D+01
0.527636850252D-01 0.000000000000D+00 -.407489428395D-03 0.224046709708D-03 0.000000000000D+00  6 1 2 25 1 2 21 2 0.23135687D+00 0.23656475D+00 0.25701873D+06 0.25701873D+06 0.25701873D+06 0.10895556D+01  1  2  3  4  6  5        2 0.757582641805D-01 0.100000000000D+01
-.650054971414D-01 0.000000000000D+00 0.000000000000D+00 0.224046709708D-03 0.000000000000D+00  6 1 2 25 1 2 21 2 0.23135687D+00 0.23656475D+00 0.25701873D+06 0.25701873D+06 0.25701873D+06 0.10895556D+01  1  2 15  4  6  5        2 -.933350963502D-01 0.100000000000D+01
  </mgrwgt>
  </event>
  <event>
  5     66 0.17698235E-05 0.15158582E+03 0.75467711E-02 0.95231078E-01
        1 -1    0    0  501    0 0.00000000E+00 0.00000000E+00 0.18139013E+04 0.18139013E+04 0.32000000E+00 0.0000E+00 0.9000E+01
        2 -1    0    0  502    0 0.00000000E+00 0.00000000E+00 -.82892247E+03 0.82892254E+03 0.32000000E+00 0.0000E+00 0.9000E+01
       25  1    1    2    0    0 -.35279758E+03 -.28761410E+03 0.25658349E+03 0.53725980E+03 0.12500000E+03 0.0000E+00 0.9000E+01
        1  1    1    2  501    0 0.65281313E+02 0.13681978E+03 0.13743101E+04 0.13826459E+04 0.32000000E+00 0.0000E+00 0.9000E+01
        2  1    1    2  502    0 0.28751627E+03 0.15079432E+03 -.64591483E+03 0.72291811E+03 0.32000000E+00 0.0000E+00 0.9000E+01
#aMCatNLO 1  0  0  5  5 0.41768500D+02 0.00000000D+00  -5  6  0 0.00000000D+00 0.00000000D+00 0.00000000D+00 0.00000000D+00 0.00000000D+00
  <mgrwgt>
 0.1188304423D-01    3    2    0
 0.122620701283501D+04 0.000000000000000D+00 0.000000000000000D+00 0.122620701283501D+04
 0.122620701283501D+04 -.000000000000000D+00 -.000000000000000D+00 -.122620701283501D+04
 0.475956873317980D+03 -.352825941128363D+03 -.287623773411155D+03 0.607977425094086D+02
 0.937961934451759D+03 0.652769967764348D+02 0.136810729772969D+03 0.925631853595868D+03
 0.103849521790028D+04 0.287548944351929D+03 0.150813043638187D+03 -.986429596105277D+03
 0.000000000000000D+00 0.000000000000000D+00 -.000000000000000D+00 0.000000000000000D+00
 0.122620701283501D+04 0.000000000000000D+00 0.000000000000000D+00 0.122620701283501D+04
 0.122620701283501D+04 -.000000000000000D+00 -.000000000000000D+00 -.122620701283501D+04
 0.450457603361514D+03 -.332435536517845D+03 -.276929458440683D+03 -.915104005249219D+01
 0.815292931667257D+03 0.103866177974966D+03 0.157049899425191D+03 0.793252614612773D+03
 0.456984983321543D+03 0.259029301756265D+03 0.363756221187201D+03 -.970592981669501D+02
 0.729678507319701D+03 -.304599432133861D+02 -.243876662171709D+03 -.687042276393331D+03
0.118413950151D-01 0.000000000000D+00 0.000000000000D+00 0.303399533231D-04 0.000000000000D+00  6 1 2 25 1 2 21 0 0.27906174D+00 0.12752654D+00 0.22483810D+06 0.22483810D+06 0.22483810D+06 0.10939420D+01  1  2  2  4  6  5        2 0.235892860471D-01 0.100000000000D+01
0.184247777585D-02 0.000000000000D+00 -.454740747687D-04 0.303399533231D-04 0.000000000000D+00  6 1 2 25 1 2 21 2 0.27906174D+00 0.12752654D+00 0.22483810D+06 0.22483810D+06 0.22483810D+06 0.10939420D+01  1  2  3  4  6  5        2 0.439240877139D-02 0.100000000000D+01
-.675287922254D-02 0.000000000000D+00 0.000000000000D+00 0.303399533231D-04 0.000000000000D+00  6 1 2 25 1 2 21 2 0.27906174D+00 0.12752654D+00 0.22483810D+06 0.22483810D+06 0.22483810D+06 0.10939420D+01  1  2 15  4  6  5        2 -.160986505878D-01 0.100000000000D+01
  </mgrwgt>
  </event>
  <event>
  5     66 0.17698235E-05 0.14375589E+03 0.75467711E-02 0.92347022E-01
        1 -1    0    0  501    0 0.00000000E+00 0.00000000E+00 0.68839283E+03 0.68839291E+03 0.32000000E+00 0.0000E+00 0.9000E+01
        2 -1    0    0  502    0 0.00000000E+00 0.00000000E+00 -.22729761E+04 0.22729761E+04 0.32000000E+00 0.0000E+00 0.9000E+01
       25  1    1    2    0    0 -.22967680E+03 0.52933019E+03 -.16749031E+03 0.61369364E+03 0.12500000E+03 0.0000E+00 0.9000E+01
        1  1    1    2  501    0 -.20925375E+02 -.14224373E+03 0.42504306E+03 0.44870130E+03 0.32000000E+00 0.0000E+00 0.9000E+01
        2  1    1    2  502    0 0.25060217E+03 -.38708645E+03 -.18421360E+04 0.18989741E+04 0.32000000E+00 0.0000E+00 0.9000E+01
#aMCatNLO 1  0  0  1  1 0.34122442D+02 0.00000000D+00  -5  6  0 0.00000000D+00 0.00000000D+00 0.00000000D+00 0.00000000D+00 0.00000000D+00
  <mgrwgt>
 0.6558127565D-03    4    2    0
 0.125087992407949D+04 0.000000000000000D+00 0.000000000000000D+00 0.125087992407949D+04
 0.125087992407949D+04 0.000000000000000D+00 0.000000000000000D+00 -.125087992407949D+04
 0.620424015181740D+03 -.229708424693406D+03 0.529361120877290D+03 0.190556558382662D+03
 0.800246585984984D+03 -.209226438972149D+02 -.142225170307065D+03 0.787228583248918D+03
 0.108108924699225D+04 0.250631068590621D+03 -.387135950570225D+03 -.977785141631580D+03
 0.000000000000000D+00 -.000000000000000D+00 -.000000000000000D+00 -.000000000000000D+00
 0.125634323631784D+04 0.000000000000000D+00 0.000000000000000D+00 0.125634323631784D+04
 0.130543560829217D+04 0.000000000000000D+00 0.000000000000000D+00 -.130543560829217D+04
 0.619518633158637D+03 -.221598036308655D+03 0.531752616535404D+03 0.190556558382662D+03
 0.799498649230691D+03 -.104588089838661D+02 -.139139718097458D+03 0.787228583248918D+03
 0.108297525934338D+04 0.264786081049890D+03 -.382962087466389D+03 -.977785141631580D+03
 0.597863028772964D+02 -.327292357573687D+02 -.965081097155694D+01 -.490923719743269D+02
0.793697285334D-03 0.000000000000D+00 0.000000000000D+00 0.626919648343D-05 0.000000000000D+00  6 1 2 25 1 2 21 0 0.10590660D+00 0.34968863D+00 0.35723029D+06 0.35723029D+06 0.35723029D+06 0.10789860D+01  1  2  2  1  6  1        1 0.154290143648D-02 0.100000000000D+01
0.136035175852D-03 0.000000000000D+00 -.304800656098D-05 0.626919648343D-05 0.000000000000D+00  6 1 2 25 1 2 21 2 0.10590660D+00 0.34968863D+00 0.35723029D+06 0.35723029D+06 0.35723029D+06 0.10789860D+01  1  2  3  1  6  1        1 0.307869140762D-03 0.100000000000D+01
-.484369585510D-03 0.000000000000D+00 0.000000000000D+00 0.626919648343D-05 0.000000000000D+00  6 1 2 25 1 2 21 2 0.10590660D+00 0.34968863D+00 0.35723029D+06 0.35723029D+06 0.35723029D+06 0.10789860D+01  1  2 15  1  6  1        1 -.109620505997D-02 0.100000000000D+01
-.436349324894D-04 0.000000000000D+00 0.000000000000D+00 0.626919648343D-05 0.000000000000D+00  6 1 2 25 1 2 21 2 0.10590660D+00 0.34968863D+00 0.35723029D+06 0.35723029D+06 0.35723029D+06 0.10789860D+01  1  2  4  1  6  1        1 -.987527607373D-04 0.100000000000D+01
  </mgrwgt>
  </event>
  <event>
  6     66 0.17698235E-05 0.22699722E+02 0.75467711E-02 0.94551876E-01
        1 -1    0    0  501    0 0.00000000E+00 0.00000000E+00 0.15979727E+04 0.15979727E+04 0.32000000E+00 0.0000E+00 0.9000E+01
        2 -1    0    0  503    0 0.00000000E+00 0.00000000E+00 -.30949844E+04 0.30949844E+04 0.32000000E+00 0.0000E+00 0.9000E+01
       25  1    1    2    0    0 -.48572810E+03 -.49718758E+02 -.47558754E+03 0.69297348E+03 0.12500000E+03 0.0000E+00 0.9000E+01
        1  1    1    2  501    0 0.35550035E+02 0.12538923E+02 0.14672683E+04 0.14677525E+04 0.32000000E+00 0.0000E+00 0.9000E+01
        2  1    1    2  502    0 0.41733619E+03 0.29550880E+01 -.21389078E+04 0.21792441E+04 0.32000000E+00 0.0000E+00 0.9000E+01
       21  1    1    2  503  502 0.32841876E+02 0.34224746E+02 -.34978472E+03 0.35298702E+03 0.75000000E+00 0.0000E+00 0.9000E+01
#aMCatNLO 2  0  0  2  5 0.47433344D+02 0.00000000D+00  -5  6  0 0.00000000D+00 0.00000000D+00 0.00000000D+00 0.00000000D+00 0.00000000D+00
  <mgrwgt>
 0.7658546320D-02    3    2    0
 0.209266340747235D+04 0.000000000000000D+00 0.000000000000000D+00 0.209266340747235D+04
 0.209266340747235D+04 0.000000000000000D+00 0.000000000000000D+00 -.209266340747235D+04
 0.584005971700032D+03 -.481151133940012D+03 -.449271567255220D+02 -.303171753100614D+03
 0.192453758692955D+04 0.506489325399351D+02 0.282737998128875D+02 0.192366322452277D+04
 0.167678325631511D+04 0.430502201400077D+03 0.166533569126345D+02 -.162049147142215D+04
 0.000000000000000D+00 0.000000000000000D+00 0.000000000000000D+00 -.000000000000000D+00
 0.209489633753121D+04 0.000000000000000D+00 0.000000000000000D+00 0.209489633753121D+04
 0.236083189806548D+04 0.000000000000000D+00 0.000000000000000D+00 -.236083189806548D+04
 0.588186408627957D+03 -.485750029435656D+03 -.497196975032437D+02 -.303171753100614D+03
 0.192403253778806D+04 0.355497285967386D+02 0.125388150372063D+02 0.192366322452277D+04
 0.167337664680770D+04 0.417358424365929D+03 0.295613603229447D+01 -.162049147142215D+04
 0.270132642372962D+03 0.328418764729883D+02 0.342247464337429D+02 -.265935560534272D+03
-.750258921152D-01 0.000000000000D+00 0.000000000000D+00 0.971353406750D-03 0.000000000000D+00  6 1 2 25 1 2 21 2 0.24557985D+00 0.49325493D+00 0.25327683D+06 0.25327683D+06 0.25327683D+06 0.10900339D+01  1  2 13  2  6  2        2 -.101231242597D-01 0.100000000000D+01
-.585801512544D-10 0.000000000000D+00 0.000000000000D+00 0.971353406750D-03 0.000000000000D+00  6 1 2 25 1 2 21 2 0.24557985D+00 0.47638028D+00 0.25327683D+06 0.25327683D+06 0.25327683D+06 0.10900339D+01  1  2 13  2  6  2        2 -.931872875948D-11 0.100000000000D+01
0.111826196946D+00 0.000000000000D+00 0.000000000000D+00 0.971353406750D-03 0.784420263629D-05  6 1 2 25 1 2 21 2 0.24584189D+00 0.47615133D+00 0.25327683D+06 0.25327683D+06 0.25327683D+06 0.10900339D+01  1  2  1  2  6  2        2 0.177816705894D-01 0.100000000000D+01
  </mgrwgt>
  </event>
  <event>
  6     66 -.17698235E-05 0.38424460E+02 0.75467711E-02 0.95355820E-01
        1 -1    0    0  501    0 0.00000000E+00 0.00000000E+00 0.59081264E+03 0.59081273E+03 0.32000000E+00 0.0000E+00 0.9000E+01
        2 -1    0    0  502    0 -.00000000E+00 -.00000000E+00 -.11199383E+04 0.11199383E+04 0.32000000E+00 0.0000E+00 0.9000E+01
       25  1    1    2    0    0 -.45614858E+03 0.50951588E+02 -.15112837E+03 0.49913162E+03 0.12500000E+03 0.0000E+00 0.9000E+01
        1  1    1    2  501    0 0.56080369E+02 0.11937837E+02 0.36065548E+03 0.36518488E+03 0.32000000E+00 0.0000E+00 0.9000E+01
        2  1    1    2  503    0 0.32978905E+03 -.50666252E+02 -.66434464E+03 0.74342572E+03 0.32000000E+00 0.0000E+00 0.9000E+01
       21  1    1    2  502  503 0.70279156E+02 -.12223173E+02 -.74308123E+02 0.10300886E+03 0.75000000E+00 0.0000E+00 0.9000E+01
#aMCatNLO 2  0  0  5  2 0.27493293D+02 0.00000000D+00  -5  6  0 0.00000000D+00 0.00000000D+00 0.00000000D+00 0.00000000D+00 0.00000000D+00
  <mgrwgt>
 -.1176275174D-01    3    2    0
 0.813433351490942D+03 0.000000000000000D+00 0.000000000000000D+00 0.813433351490942D+03
 0.813433351490942D+03 -.000000000000000D+00 -.000000000000000D+00 -.813433351490942D+03
 0.476704394285064D+03 -.457151818781183D+03 0.511109536362124D+02 0.468663356189412D+01
 0.502397485919125D+03 0.550602859037702D+02 0.120953079477087D+02 0.499224701211491D+03
 0.647764822777694D+03 0.402091532877413D+03 -.632062615839211D+02 -.503911334773386D+03
 0.000000000000000D+00 0.000000000000000D+00 -.000000000000000D+00 0.000000000000000D+00
 0.813433351490942D+03 0.000000000000000D+00 0.000000000000000D+00 0.813433351490942D+03
 0.813433351490942D+03 -.000000000000000D+00 -.000000000000000D+00 -.813433351490942D+03
 0.475755770463212D+03 -.456190235350673D+03 0.509597987650599D+02 0.348155275231640D+01
 0.501244209377320D+03 0.560735411138934D+02 0.119360305975889D+02 0.497954864013614D+03
 0.565661979972115D+03 0.329783448936677D+03 -.506632427010070D+02 -.456781773095667D+03
 0.842047431692364D+02 0.703332453001020D+02 -.122325866616419D+02 -.446546436702632D+02
-.168992798471D-02 0.000000000000D+00 0.000000000000D+00 0.103655338701D-04 0.000000000000D+00  6 1 2 25 1 2 21 2 0.90894262D-01 0.17229821D+00 0.22001461D+06 0.22001461D+06 0.22001461D+06 0.10946582D+01  1  2 13  4  6  5        2 -.221317270058D-01 0.100000000000D+01
-.709397388821D-08 0.000000000000D+00 0.000000000000D+00 0.103655338701D-04 0.000000000000D+00  6 1 2 25 1 2 21 2 0.90894262D-01 0.17229821D+00 0.22001461D+06 0.22001461D+06 0.22001461D+06 0.10946582D+01  1  2 13  4  6  5        2 -.929044875876D-07 0.100000000000D+01
0.791758296832D-03 0.000000000000D+00 0.000000000000D+00 0.103655338701D-04 0.295482708451D-07  6 1 2 25 1 2 21 2 0.90894262D-01 0.17229821D+00 0.22001461D+06 0.22001461D+06 0.22001461D+06 0.10946582D+01  1  2  1  4  6  5        2 0.103690681724D-01 0.100000000000D+01
  </mgrwgt>
  </event>
  <event>
  5     66 0.17698235E-05 0.33116943E+02 0.75467711E-02 0.93644618E-01
        1 -1    0    0  501    0 0.00000000E+00 0.00000000E+00 0.17507429E+04 0.17507430E+04 0.32000000E+00 0.0000E+00 0.9000E+01
        2 -1    0    0  502    0 0.00000000E+00 0.00000000E+00 -.47178511E+03 0.47178522E+03 0.32000000E+00 0.0000E+00 0.9000E+01
       25  1    1    2    0    0 -.33185888E+03 0.33728720E+03 0.35672583E+03 0.60561645E+03 0.12500000E+03 0.0000E+00 0.9000E+01
        1  1    1    2  501    0 -.96245135E+01 0.31694060E+02 0.10872632E+04 0.10877677E+04 0.32000000E+00 0.0000E+00 0.9000E+01
        2  1    1    2  502    0 0.34148340E+03 -.36898126E+03 -.16503117E+03 0.52914409E+03 0.32000000E+00 0.0000E+00 0.9000E+01
#aMCatNLO 1  0  0  4  2 0.50011343D+02 0.00000000D+00  -5  6  0 0.00000000D+00 0.00000000D+00 0.00000000D+00 0.00000000D+00 0.00000000D+00
  <mgrwgt>
 0.5356411540D-01    6    2    0
 0.908831454232809D+03 0.000000000000000D+00 0.000000000000000D+00 0.908831454232809D+03
 0.908831454232809D+03 -.000000000000000D+00 -.000000000000000D+00 -.908831454232809D+03
 0.489590237044003D+03 -.331913978198081D+03 0.337348728225755D+03 0.101265418575392D+02
 0.564921644037906D+03 -.962270267071922D+01 0.316880971549346D+02 0.563950114810256D+03
 0.763151027383708D+03 0.341536680868800D+03 -.369036825380690D+03 -.574076656667796D+03
 0.000000000000000D+00 0.000000000000000D+00 0.000000000000000D+00 0.000000000000000D+00
 0.908831454232809D+03 0.000000000000000D+00 0.000000000000000D+00 0.908831454232809D+03
 0.908831454232809D+03 -.000000000000000D+00 -.000000000000000D+00 -.908831454232809D+03
 0.489775363733111D+03 -.331956935221097D+03 0.337490188100949D+03 0.126440900860233D+02
 0.198036043554394D+03 -.517675123636517D+02 0.159709295340071D+02 0.190481832782490D+03
 0.760073126472902D+03 0.341469869072486D+03 -.368816810405153D+03 -.570161070632220D+03
 0.369778374705211D+03 0.422545785122627D+02 0.153556927701974D+02 0.367035147763707D+03
0.325642959031D-02 0.000000000000D+00 0.000000000000D+00 0.150421317419D-04 0.000000000000D+00  6 1 2 25 1 2 21 0 0.26934508D+00 0.72582336D-01 0.26287664D+06 0.26287664D+06 0.26287664D+06 0.10888220D+01  1  2  2  3  6  4        1 0.138534644592D-01 0.100000000000D+01
0.179358270783D-02 0.000000000000D+00 -.125055470644D-04 0.150421317419D-04 0.000000000000D+00  6 1 2 25 1 2 21 2 0.26934508D+00 0.72582336D-01 0.26287664D+06 0.26287664D+06 0.26287664D+06 0.10888220D+01  1  2  3  3  6  4        1 0.904590190048D-02 0.100000000000D+01
-.187314633802D-02 0.000000000000D+00 0.000000000000D+00 0.150421317419D-04 0.000000000000D+00  6 1 2 25 1 2 21 2 0.26934508D+00 0.72582336D-01 0.26287664D+06 0.26287664D+06 0.26287664D+06 0.10888220D+01  1  2 15  3  6  4        1 -.944717962826D-02 0.100000000000D+01
-.388995839033D-03 0.000000000000D+00 0.000000000000D+00 0.150421317419D-04 0.000000000000D+00  6 1 2 25 1 2 21 2 0.26934508D+00 0.72582336D-01 0.26287664D+06 0.26287664D+06 0.26287664D+06 0.10888220D+01  1  2  4  3  6  4        1 -.196189346843D-02 0.100000000000D+01
-.106028315803D-01 0.000000000000D+00 0.000000000000D+00 0.150421317419D-04 0.000000000000D+00  6 1 2 25 1 2 21 2 0.26934508D+00 0.72582336D-01 0.26287664D+06 0.26287664D+06 0.26287664D+06 0.10888220D+01  1  2  5  3  6  4        1 -.534751890303D-01 0.100000000000D+01
0.189450489356D-01 0.000000000000D+00 -.000000000000D+00 0.150421317419D-04 0.000000000000D+00  6 1 2 25 1 2 21 2 0.26934508D+00 0.72582336D-01 0.26287664D+06 0.26287664D+06 0.26287664D+06 0.10888220D+01  1  2  6  3  6  4        1 0.955490111626D-01 0.100000000000D+01
  </mgrwgt>
  </event>
  <event>
  6     66 0.17698235E-05 0.71774429E+02 0.75467711E-02 0.94259663E-01
        1 -1    0    0  501    0 0.00000000E+00 0.00000000E+00 0.73143961E+03 0.73143968E+03 0.32000000E+00 0.0000E+00 0.9000E+01
        2 -1    0    0  502    0 -.00000000E+00 -.00000000E+00 -.17491529E+04 0.17491529E+04 0.32000000E+00 0.0000E+00 0.9000E+01
       25  1    1    2    0    0 -.86003672E+02 0.49072312E+03 -.11588065E+04 0.12675422E+04 0.12500000E+03 0.0000E+00 0.9000E+01
        1  1    1    2  503    0 0.35367742E+02 -.40997365E+03 0.39356226E+03 0.56940375E+03 0.32000000E+00 0.0000E+00 0.9000E+01
        2  1    1    2  502    0 -.92625363E+01 -.31963952E+01 -.43572490E+03 0.43583518E+03 0.32000000E+00 0.0000E+00 0.9000E+01
       21  1    1    2  501  503 0.59898467E+02 -.77553072E+02 0.18325588E+03 0.20781142E+03 0.75000000E+00 0.0000E+00 0.9000E+01
#aMCatNLO 2  0  0  4  1 0.59830927D+00 0.00000000D+00  -5  6  0 0.00000000D+00 0.00000000D+00 0.00000000D+00 0.00000000D+00 0.00000000D+00
  <mgrwgt>
 0.1130606849D-01    1    2    0
 0.113110556700022D+04 0.000000000000000D+00 0.000000000000000D+00 0.113110556700022D+04
 0.113110556700022D+04 -.000000000000000D+00 -.000000000000000D+00 -.113110556700022D+04
 0.872755500665239D+03 -.863739335847134D+02 0.492621906000370D+03 -.704230335378346D+03
 0.110630255104205D+04 0.957575117084428D+02 -.490040980249564D+03 0.987216121763419D+03
 0.283153082293153D+03 -.938357812372938D+01 -.258092575080650D+01 -.282985786385073D+03
 0.000000000000000D+00 0.000000000000000D+00 0.000000000000000D+00 0.000000000000000D+00
 0.113110556700022D+04 0.000000000000000D+00 0.000000000000000D+00 0.113110556700022D+04
 0.113110556700022D+04 -.000000000000000D+00 -.000000000000000D+00 -.113110556700022D+04
 0.868558911995580D+03 -.860027226599861D+02 0.490722226673003D+03 -.700403320631124D+03
 0.801276459677653D+03 0.353442119231204D+02 -.409924343414208D+03 0.687573111889577D+03
 0.281914263082288D+03 -.926311787238999D+01 -.319738349489653D+01 -.281743896323059D+03
 0.310461499244923D+03 0.599216286092557D+02 -.776004997638978D+02 0.294574105064605D+03
0.272006125258D-02 0.000000000000D+00 0.000000000000D+00 0.388601240604D-04 0.561383812192D-07  6 1 2 25 1 2 21 2 0.11252918D+00 0.26910045D+00 0.26673678D+06 0.26673678D+06 0.26673678D+06 0.10883482D+01  1  2  1  3  6  4        1 0.113060684915D-01 0.100000000000D+01
  </mgrwgt>
  </event>
  <event>
  5     66 0.17698235E-05 0.39496169E+02 0.75467711E-02 0.92639067E-01
        1 -1    0    0  501    0 0.00000000E+00 0.00000000E+00 0.26123922E+04 0.26123922E+04 0.32000000E+00 0.0000E+00 0.9000E+01
        2 -1    0    0  502    0 0.00000000E+00 0.00000000E+00 -.29754724E+03 0.29754741E+03 0.32000000E+00 0.0000E+00 0.9000E+01
       25  1    1    2    0    0 0.32078841E+03 0.47719658E+03 0.18735675E+04 0.19637978E+04 0.12500000E+03 0.0000E+00 0.9000E+01
        1  1    1    2  501    0 0.26960395E+02 -.28975952E+02 0.37260227E+03 0.37469858E+03 0.32000000E+00 0.0000E+00 0.9000E+01
        2  1    1    2  502    0 -.34774880E+03 -.44822063E+03 0.68675187E+02 0.57144321E+03 0.32000000E+00 0.0000E+00 0.9000E+01
#aMCatNLO 1  0  0  1  1 0.64812337D+00 0.00000000D+00  -5  6  0 0.00000000D+00 0.00000000D+00 0.00000000D+00 0.00000000D+00 0.00000000D+00
  <mgrwgt>
 0.1067226019D+00   10    2    0
 0.881652062635724D+03 0.000000000000000D+00 0.000000000000000D+00 0.881652062635724D+03
 0.881652062635724D+03 0.000000000000000D+00 0.000000000000000D+00 -.881652062635724D+03
 0.781429502490864D+03 0.320898909987270D+03 0.477226835523335D+03 0.514087059152908D+03
 0.128938795410205D+03 0.269042171886491D+02 -.289155740949890D+02 0.122740643774007D+03
 0.852935827370380D+03 -.347803127175919D+03 -.448311261428346D+03 -.636827702926915D+03
 0.000000000000000D+00 0.000000000000000D+00 -.000000000000000D+00 0.000000000000000D+00
 0.882063238366720D+03 0.000000000000000D+00 0.000000000000000D+00 0.882063238366720D+03
 0.881907563310791D+03 0.000000000000000D+00 0.000000000000000D+00 -.881907563310791D+03
 0.781512067978291D+03 0.320742024757662D+03 0.477467445551606D+03 0.514087059152908D+03
 0.128924500000284D+03 0.268783333404795D+02 -.288758768369655D+02 0.122740643774007D+03
 0.852867676405589D+03 -.347974352626321D+03 -.448048658246614D+03 -.636827702926915D+03
 0.666557293345221D+00 0.353994528179131D+00 -.542910468026232D+00 0.155675055928942D+00
0.464352941914D-02 0.000000000000D+00 0.000000000000D+00 0.761158198681D-06 0.000000000000D+00  6 1 2 25 1 2 21 0 0.40190650D+00 0.45776513D-01 0.35725408D+06 0.35725408D+06 0.35725408D+06 0.10789839D+01  1  2  2  1  6  1        1 0.846483712246D-02 0.100000000000D+01
0.112981954659D-02 0.000000000000D+00 -.178323756389D-04 0.761158198681D-06 0.000000000000D+00  6 1 2 25 1 2 21 2 0.40190650D+00 0.45776513D-01 0.35725408D+06 0.35725408D+06 0.35725408D+06 0.10789839D+01  1  2  3  1  6  1        1 0.239778059927D-02 0.100000000000D+01
-.279097155883D-02 0.000000000000D+00 0.000000000000D+00 0.761158198681D-06 0.000000000000D+00  6 1 2 25 1 2 21 2 0.40190650D+00 0.45776513D-01 0.35725408D+06 0.35725408D+06 0.35725408D+06 0.10789839D+01  1  2 15  1  6  1        1 -.592319143095D-02 0.100000000000D+01
-.121137082198D-01 0.000000000000D+00 0.000000000000D+00 0.761158198681D-06 0.000000000000D+00  6 1 2 25 1 2 21 2 0.40190650D+00 0.45776513D-01 0.35725408D+06 0.35725408D+06 0.35725408D+06 0.10789839D+01  1  2  4  1  6  1        1 -.257085431406D-01 0.100000000000D+01
-.196409117270D+02 0.000000000000D+00 -.133210920038D+01 0.761158198681D-06 0.000000000000D+00  6 1 2 25 1 2 21 2 0.40213907D+00 0.45776513D-01 0.35725408D+06 0.35725408D+06 0.35725408D+06 0.10789839D+01  1  2  5  1  6  1        1 -.415812337008D+02 0.100000000000D+01
0.196416792731D+02 0.000000000000D+00 0.133210897749D+01 0.761158198681D-06 0.000000000000D+00  6 1 2 25 1 2 21 2 0.40190650D+00 0.45776513D-01 0.35725408D+06 0.35725408D+06 0.35725408D+06 0.10789839D+01  1  2  6  1  6  1        1 0.416849200743D+02 0.100000000000D+01
0.118281888999D-01 0.000000000000D+00 0.000000000000D+00 0.761158198681D-06 0.178710969248D-05  6 1 2 25 1 2 21 2 0.40209394D+00 0.45789779D-01 0.35761794D+06 0.35761794D+06 0.35761794D+06 0.10789517D+01  1  2 11  1  6  1        1 0.250418810073D-01 0.100000000000D+01
0.207118127604D-14 0.000000000000D+00 0.000000000000D+00 0.761158198681D-06 0.000000000000D+00  6 21 2 25 1 2 -1 2 0.40216285D+00 0.45776513D-01 0.35761794D+06 0.35761794D+06 0.35761794D+06 0.10789517D+01  1  2 12  5  6  1        1 0.134356814811D-14 0.100000000000D+01
-.212836784485D-02 0.000000000000D+00 -.144364017112D-03 0.761158198681D-06 0.000000000000D+00  6 21 2 25 1 2 -1 2 0.40213907D+00 0.45776513D-01 0.35725408D+06 0.35725408D+06 0.35725408D+06 0.10789839D+01  1  2  5  5  6  1        1 -.138142724765D-02 0.100000000000D+01
0.223185814098D-03 0.000000000000D+00 0.000000000000D+00 0.761158198681D-06 0.912246989044D-09  6 21 2 25 1 2 -1 2 0.40209394D+00 0.45789779D-01 0.35761794D+06 0.35761794D+06 0.35761794D+06 0.10789517D+01  1  2 11  5  6  1        1 0.144891470077D-03 0.100000000000D+01
  </mgrwgt>
  </event>
</LesHouchesEvents>
