<event>
 5    0  0.2183692E+001  0.2451643E+03  0.7546771E-02  0.1116400E+00
         21   -1    0    0  504  501  0.00000000000E+00  0.00000000000E+00  0.29367877364E+03  0.29367877364E+03  0.00000000000E+00 0. -1.
         21   -1    0    0  503  502 -0.00000000000E+00 -0.00000000000E+00 -0.29055662225E+03  0.29055662225E+03  0.00000000000E+00 0. -1.
         25    1    1    2    0    0  0.44836745681E+02 -0.22287922309E+03  0.14253760472E+03  0.29601934162E+03  0.12500000000E+03 0.  0.
         21    1    1    2  503  501 -0.34868697111E+02  0.20411851738E+03 -0.15761989064E+03  0.26023878477E+03  0.00000000000E+00 0. -1.
         21    1    1    2  504  502 -0.99680485699E+01  0.18760705719E+02  0.18204437310E+02  0.27977269508E+02  0.00000000000E+00 0. -1.
<mgrwt>
<rscale>  4 0.24516427E+03</rscale>
<asrwt>0</asrwt>
<pdfrwt beam="1">  1       21 0.45181350E-01 0.24516427E+03</pdfrwt>
<pdfrwt beam="2">  1       21 0.44701019E-01 0.24516427E+03</pdfrwt>
<totfact> 0.21945534E+04</totfact>
</mgrwt>
</event>
<event>
 5    0  0.1911311E+001  0.2574211E+03  0.7546771E-02  0.1108703E+00
         21   -1    0    0  502  501  0.00000000000E+00  0.00000000000E+00  0.25354014935E+04  0.25354014935E+04  0.00000000000E+00 0. -1.
         21   -1    0    0  504  502 -0.00000000000E+00 -0.00000000000E+00 -0.20695272892E+03  0.20695272892E+03  0.00000000000E+00 0. -1.
         25    1    1    2    0    0  0.20694818872E+03 -0.12249268654E+02 -0.11038636593E+03  0.26605966846E+03  0.12500000000E+03 0.  0.
         21    1    1    2  503  501 -0.22444099104E+03 -0.22841831793E+02  0.24238388120E+04  0.24343151181E+04  0.00000000000E+00 0. -1.
         21    1    1    2  504  503  0.17492802325E+02  0.35091100447E+02  0.14996318472E+02  0.41979435816E+02  0.00000000000E+00 0.  1.
<mgrwt>
<rscale>  4 0.25742110E+03</rscale>
<asrwt>0</asrwt>
<pdfrwt beam="1">  1       21 0.39006175E+00 0.25742110E+03</pdfrwt>
<pdfrwt beam="2">  1       21 0.31838883E-01 0.25742110E+03</pdfrwt>
<totfact> 0.86010204E+01</totfact>
</mgrwt>
</event>
<event>
 5    0  0.1911311E+001  0.2418376E+03  0.7546771E-02  0.1118575E+00
         21   -1    0    0  504  501  0.00000000000E+00  0.00000000000E+00  0.19289612856E+03  0.19289612856E+03  0.00000000000E+00 0. -1.
         21   -1    0    0  501  502 -0.00000000000E+00 -0.00000000000E+00 -0.32132419773E+03  0.32132419773E+03  0.00000000000E+00 0. -1.
         25    1    1    2    0    0 -0.74924065028E+02  0.20236146816E+03 -0.23291002492E+02  0.25046207320E+03  0.12500000000E+03 0.  0.
         21    1    1    2  503  502  0.42195777502E+02 -0.57692377882E+01 -0.19502848899E+02  0.46841529211E+02  0.00000000000E+00 0. -1.
         21    1    1    2  504  503  0.32728287527E+02 -0.19659223037E+03 -0.85634217781E+02  0.21691672388E+03  0.00000000000E+00 0. -1.
<mgrwt>
<rscale>  4 0.24183756E+03</rscale>
<asrwt>0</asrwt>
<pdfrwt beam="1">  1       21 0.29676328E-01 0.24183756E+03</pdfrwt>
<pdfrwt beam="2">  1       21 0.49434492E-01 0.24183756E+03</pdfrwt>
<totfact> 0.41489054E+04</totfact>
</mgrwt>
</event>
<event>
 5    0  0.1911311E+001  0.3146099E+03  0.7546771E-02  0.1078157E+00
         21   -1    0    0  502  501  0.00000000000E+00  0.00000000000E+00  0.59982687641E+02  0.59982687641E+02  0.00000000000E+00 0. -1.
         21   -1    0    0  504  502 -0.00000000000E+00 -0.00000000000E+00 -0.21235751897E+04  0.21235751897E+04  0.00000000000E+00 0. -1.
         25    1    1    2    0    0 -0.50946817099E+02  0.29604863373E+03 -0.14200456347E+04  0.14568441839E+04  0.12500000000E+03 0.  0.
         21    1    1    2  503  501  0.14154844191E+02 -0.28473862864E+03 -0.47636198536E+03  0.55515510206E+03  0.00000000000E+00 0. -1.
         21    1    1    2  504  503  0.36791972908E+02 -0.11310005094E+02 -0.16718488203E+03  0.17155859134E+03  0.00000000000E+00 0. -1.
<mgrwt>
<rscale>  4 0.31460993E+03</rscale>
<asrwt>0</asrwt>
<pdfrwt beam="1">  1       21 0.92281078E-02 0.31460993E+03</pdfrwt>
<pdfrwt beam="2">  1       21 0.32670380E+00 0.31460993E+03</pdfrwt>
<totfact> 0.19756947E+03</totfact>
</mgrwt>
</event>
<event>
 5    0  0.1911311E+001  0.3318054E+03  0.7546771E-02  0.1070341E+00
         21   -1    0    0  504  501  0.00000000000E+00  0.00000000000E+00  0.11526106016E+03  0.11526106016E+03  0.00000000000E+00 0. -1.
         21   -1    0    0  503  502 -0.00000000000E+00 -0.00000000000E+00 -0.12518854253E+04  0.12518854253E+04  0.00000000000E+00 0. -1.
         25    1    1    2    0    0 -0.26819703437E+03 -0.86139096375E+02 -0.36904209341E+03  0.48079794080E+03  0.12500000000E+03 0.  0.
         21    1    1    2  503  501  0.29253710599E+03  0.13776841887E+03 -0.76346850388E+03  0.82912137352E+03  0.00000000000E+00 0. -1.
         21    1    1    2  504  502 -0.24340071622E+02 -0.51629322498E+02 -0.41137678235E+01  0.57227171116E+02  0.00000000000E+00 0. -1.
<mgrwt>
<rscale>  4 0.33180536E+03</rscale>
<asrwt>0</asrwt>
<pdfrwt beam="1">  1       21 0.17732470E-01 0.33180536E+03</pdfrwt>
<pdfrwt beam="2">  1       21 0.19259776E+00 0.33180536E+03</pdfrwt>
<totfact> 0.39179730E+03</totfact>
</mgrwt>
</event>
<event>
 5    0  0.1911311E+001  0.2138828E+03  0.7546771E-02  0.1138528E+00
         21   -1    0    0  504  501  0.00000000000E+00  0.00000000000E+00  0.10023274943E+03  0.10023274943E+03  0.00000000000E+00 0. -1.
         21   -1    0    0  501  502 -0.00000000000E+00 -0.00000000000E+00 -0.62887516270E+03  0.62887516270E+03  0.00000000000E+00 0. -1.
         25    1    1    2    0    0  0.19354377324E+03  0.85081211599E+02 -0.17346951507E+03  0.30069033470E+03  0.12500000000E+03 0.  0.
         21    1    1    2  503  502 -0.34888842758E+02 -0.48752531685E+02 -0.35441843917E+02  0.69643125970E+02  0.00000000000E+00 0. -1.
         21    1    1    2  504  503 -0.15865493048E+03 -0.36328679914E+02 -0.31973105428E+03  0.35877445146E+03  0.00000000000E+00 0. -1.
<mgrwt>
<rscale>  4 0.21388276E+03</rscale>
<asrwt>0</asrwt>
<pdfrwt beam="1">  1       21 0.15420423E-01 0.21388276E+03</pdfrwt>
<pdfrwt beam="2">  1       21 0.96750025E-01 0.21388276E+03</pdfrwt>
<totfact> 0.32720241E+04</totfact>
</mgrwt>
</event>
