<event>
 5    0  0.1856407E+000  0.2324151E+03  0.7546771E-02  0.1124951E+00
         21   -1    0    0  502  501  0.00000000000E+00  0.00000000000E+00  0.24902353871E+03  0.24902353871E+03  0.00000000000E+00 0.  1.
         21   -1    0    0  503  502 -0.00000000000E+00 -0.00000000000E+00 -0.35255237357E+03  0.35255237357E+03  0.00000000000E+00 0.  1.
         25    1    1    2    0    0  0.15495436570E+03 -0.14379149572E+03  0.12348721063E+03  0.27488350420E+03  0.12500000000E+03 0.  0.
         21    1    1    2  503  504 -0.12755034366E+03  0.10529254268E+03 -0.10516351231E+03  0.19599738272E+03  0.00000000000E+00 0.  1.
         21    1    1    2  504  501 -0.27404022046E+02  0.38498953044E+02 -0.12185253318E+03  0.13069502535E+03  0.00000000000E+00 0. -1.
<mgrwt>
<rscale>  4 0.23241513E+03</rscale>
<asrwt>0</asrwt>
<pdfrwt beam="1">  1       21 0.38311314E-01 0.23241513E+03</pdfrwt>
<pdfrwt beam="2">  1       21 0.54238827E-01 0.23241513E+03</pdfrwt>
<totfact> 0.20637966E+04</totfact>
</mgrwt>
</event>
<event>
 5    0  0.1856407E+000  0.2250860E+03  0.7546771E-02  0.1130147E+00
         21   -1    0    0  502  501  0.00000000000E+00  0.00000000000E+00  0.40571014236E+03  0.40571014236E+03  0.00000000000E+00 0. -1.
         21   -1    0    0  503  502 -0.00000000000E+00 -0.00000000000E+00 -0.13469727266E+04  0.13469727266E+04  0.00000000000E+00 0. -1.
         25    1    1    2    0    0 -0.28018165396E+03 -0.48987589214E+02  0.28004319108E+03  0.41827112258E+03  0.12500000000E+03 0.  0.
         21    1    1    2  503  504  0.14317878603E+03  0.11854267294E+03 -0.11501729865E+04  0.11650967466E+04  0.00000000000E+00 0. -1.
         21    1    1    2  504  501  0.13700286793E+03 -0.69555083723E+02 -0.71132788776E+02  0.16931499972E+03  0.00000000000E+00 0. -1.
<mgrwt>
<rscale>  4 0.22508599E+03</rscale>
<asrwt>0</asrwt>
<pdfrwt beam="1">  1       21 0.62416945E-01 0.22508599E+03</pdfrwt>
<pdfrwt beam="2">  1       21 0.20722657E+00 0.22508599E+03</pdfrwt>
<totfact> 0.27623447E+02</totfact>
</mgrwt>
</event>
<event>
 5    0  0.1856407E+000  0.6404042E+03  0.7546771E-02  0.9824954E-01
         21   -1    0    0  502  501  0.00000000000E+00  0.00000000000E+00  0.53735730656E+03  0.53735730656E+03  0.00000000000E+00 0. -1.
         21   -1    0    0  503  502 -0.00000000000E+00 -0.00000000000E+00 -0.13341152701E+04  0.13341152701E+04  0.00000000000E+00 0. -1.
         25    1    1    2    0    0 -0.23695756137E+03  0.58167314466E+03  0.21639213270E+03  0.67597565651E+03  0.12500000000E+03 0.  0.
         21    1    1    2  503  504  0.81154177419E-01 -0.29312929517E+02 -0.23173770148E+02  0.37366804061E+02  0.00000000000E+00 0.  1.
         21    1    1    2  504  501  0.23687640719E+03 -0.55236021514E+03 -0.98997632614E+03  0.11581301161E+04  0.00000000000E+00 0. -1.
<mgrwt>
<rscale>  4 0.64040420E+03</rscale>
<asrwt>0</asrwt>
<pdfrwt beam="1">  1       21 0.82670356E-01 0.64040420E+03</pdfrwt>
<pdfrwt beam="2">  1       21 0.20524850E+00 0.64040420E+03</pdfrwt>
<totfact> 0.11613017E+02</totfact>
</mgrwt>
</event>
<event>
 5    0  0.1856407E+000  0.2412598E+03  0.7546771E-02  0.1118956E+00
         21   -1    0    0  502  501  0.00000000000E+00  0.00000000000E+00  0.20690445408E+03  0.20690445408E+03  0.00000000000E+00 0. -1.
         21   -1    0    0  503  502 -0.00000000000E+00 -0.00000000000E+00 -0.84092095873E+03  0.84092095873E+03  0.00000000000E+00 0. -1.
         25    1    1    2    0    0 -0.24958846222E+03 -0.86675049709E+01  0.70512475185E+02  0.28803912108E+03  0.12500000000E+03 0.  0.
         21    1    1    2  503  504  0.12359785695E+03  0.27441176976E+02 -0.52245645725E+03  0.53757808564E+03  0.00000000000E+00 0. -1.
         21    1    1    2  504  501  0.12599060527E+03 -0.18773672005E+02 -0.18207252258E+03  0.22220820610E+03  0.00000000000E+00 0. -1.
<mgrwt>
<rscale>  4 0.24125982E+03</rscale>
<asrwt>0</asrwt>
<pdfrwt beam="1">  1       21 0.31831454E-01 0.24125982E+03</pdfrwt>
<pdfrwt beam="2">  1       21 0.12937246E+00 0.24125982E+03</pdfrwt>
<totfact> 0.39989473E+03</totfact>
</mgrwt>
</event>
<event>
 5    0  0.1856407E+000  0.4421652E+03  0.7546771E-02  0.1030085E+00
         21   -1    0    0  502  501  0.00000000000E+00  0.00000000000E+00  0.21398312329E+03  0.21398312329E+03  0.00000000000E+00 0.  1.
         21   -1    0    0  503  502 -0.00000000000E+00 -0.00000000000E+00 -0.21675963932E+04  0.21675963932E+04  0.00000000000E+00 0. -1.
         25    1    1    2    0    0  0.37781849312E+03 -0.23120441354E+03 -0.10006970483E+03  0.47100025521E+03  0.12500000000E+03 0.  0.
         21    1    1    2  503  504 -0.35970067978E+03  0.22010517040E+03 -0.18334992574E+04  0.18813692865E+04  0.00000000000E+00 0. -1.
         21    1    1    2  504  501 -0.18117813350E+02  0.11099243142E+02 -0.20044307613E+02  0.29209974779E+02  0.00000000000E+00 0. -1.
<mgrwt>
<rscale>  4 0.44216520E+03</rscale>
<asrwt>0</asrwt>
<pdfrwt beam="1">  1       21 0.32920482E-01 0.44216520E+03</pdfrwt>
<pdfrwt beam="2">  1       21 0.33347635E+00 0.44216520E+03</pdfrwt>
<totfact> 0.15046155E+02</totfact>
</mgrwt>
</event>
<event>
 5    0  0.1856407E+000  0.2727107E+03  0.7546771E-02  0.1099738E+00
         21   -1    0    0  502  501  0.00000000000E+00  0.00000000000E+00  0.16707211833E+04  0.16707211833E+04  0.00000000000E+00 0.  1.
         21   -1    0    0  503  502 -0.00000000000E+00 -0.00000000000E+00 -0.30500447479E+03  0.30500447479E+03  0.00000000000E+00 0.  1.
         25    1    1    2    0    0  0.21172107415E+03 -0.11960335287E+03  0.15996779676E+04  0.16228756499E+04  0.12500000000E+03 0.  0.
         21    1    1    2  503  504 -0.32133858637E+01  0.33612487749E+02 -0.10520618018E+02  0.35366772327E+02  0.00000000000E+00 0. -1.
         21    1    1    2  504  501 -0.20850768829E+03  0.85990865116E+02 -0.22344064104E+03  0.31748323582E+03  0.00000000000E+00 0.  1.
<mgrwt>
<rscale>  4 0.27271068E+03</rscale>
<asrwt>0</asrwt>
<pdfrwt beam="1">  1       21 0.25703402E+00 0.27271068E+03</pdfrwt>
<pdfrwt beam="2">  1       21 0.46923766E-01 0.27271068E+03</pdfrwt>
<totfact> 0.23880718E+02</totfact>
</mgrwt>
</event>
<event>
 5    0  0.1856407E+000  0.2390980E+03  0.7546771E-02  0.1120395E+00
         21   -1    0    0  502  501  0.00000000000E+00  0.00000000000E+00  0.10799511908E+04  0.10799511908E+04  0.00000000000E+00 0. -1.
         21   -1    0    0  503  502 -0.00000000000E+00 -0.00000000000E+00 -0.11455757489E+03  0.11455757489E+03  0.00000000000E+00 0. -1.
         25    1    1    2    0    0  0.25442346650E+02 -0.20222647188E+03  0.95674796660E+03  0.98617165368E+03  0.12500000000E+03 0.  0.
         21    1    1    2  503  504 -0.27763988912E+02  0.99658962834E+02 -0.10452849637E+02  0.10398081563E+03  0.00000000000E+00 0. -1.
         21    1    1    2  504  501  0.23216422626E+01  0.10256750905E+03  0.19098498972E+02  0.10435629640E+03  0.00000000000E+00 0. -1.
<mgrwt>
<rscale>  4 0.23909801E+03</rscale>
<asrwt>0</asrwt>
<pdfrwt beam="1">  1       21 0.16614633E+00 0.23909801E+03</pdfrwt>
<pdfrwt beam="2">  1       21 0.17624243E-01 0.23909801E+03</pdfrwt>
<totfact> 0.63995550E+03</totfact>
</mgrwt>
</event>
<event>
 5    0  0.1856407E+000  0.2479325E+03  0.7546771E-02  0.1114618E+00
         21   -1    0    0  502  501  0.00000000000E+00  0.00000000000E+00  0.68203860212E+03  0.68203860212E+03  0.00000000000E+00 0. -1.
         21   -1    0    0  503  502 -0.00000000000E+00 -0.00000000000E+00 -0.23503009427E+03  0.23503009427E+03  0.00000000000E+00 0. -1.
         25    1    1    2    0    0 -0.15149572088E+03 -0.15130947762E+03  0.60126250882E+03  0.65037459666E+03  0.12500000000E+03 0.  0.
         21    1    1    2  503  504  0.14300899779E+03  0.13044166219E+03 -0.14690794514E+03  0.24299906385E+03  0.00000000000E+00 0. -1.
         21    1    1    2  504  501  0.84867230931E+01  0.20867815424E+02 -0.73460558358E+01  0.23695035889E+02  0.00000000000E+00 0. -1.
<mgrwt>
<rscale>  4 0.24793247E+03</rscale>
<asrwt>0</asrwt>
<pdfrwt beam="1">  1       21 0.10492901E+00 0.24793247E+03</pdfrwt>
<pdfrwt beam="2">  1       21 0.36158476E-01 0.24793247E+03</pdfrwt>
<totfact> 0.51882731E+03</totfact>
</mgrwt>
</event>
<event>
 5    0  0.1856407E+000  0.2848755E+03  0.7546771E-02  0.1093055E+00
         21   -1    0    0  502  501  0.00000000000E+00  0.00000000000E+00  0.27735337552E+03  0.27735337552E+03  0.00000000000E+00 0. -1.
         21   -1    0    0  503  502 -0.00000000000E+00 -0.00000000000E+00 -0.39645824632E+03  0.39645824632E+03  0.00000000000E+00 0. -1.
         25    1    1    2    0    0  0.76384319380E+02  0.24432454150E+03 -0.24841647736E+03  0.37797459181E+03  0.12500000000E+03 0.  0.
         21    1    1    2  503  504 -0.49423059111E+02 -0.22873635910E+03  0.10582568169E+03  0.25683075293E+03  0.00000000000E+00 0. -1.
         21    1    1    2  504  501 -0.26961260269E+02 -0.15588182405E+02  0.23485924874E+02  0.39006277099E+02  0.00000000000E+00 0. -1.
<mgrwt>
<rscale>  4 0.28487549E+03</rscale>
<asrwt>0</asrwt>
<pdfrwt beam="1">  1       21 0.42669750E-01 0.28487549E+03</pdfrwt>
<pdfrwt beam="2">  1       21 0.60993577E-01 0.28487549E+03</pdfrwt>
<totfact> 0.12554268E+04</totfact>
</mgrwt>
</event>
<event>
 5    0  0.1856407E+000  0.3462751E+03  0.7546771E-02  0.1064154E+00
         21   -1    0    0  502  501  0.00000000000E+00  0.00000000000E+00  0.11514060477E+04  0.11514060477E+04  0.00000000000E+00 0. -1.
         21   -1    0    0  503  502 -0.00000000000E+00 -0.00000000000E+00 -0.10792052706E+03  0.10792052706E+03  0.00000000000E+00 0.  1.
         25    1    1    2    0    0  0.12024437235E+03 -0.29970439336E+03  0.69069476432E+03  0.77263554794E+03  0.12500000000E+03 0.  0.
         21    1    1    2  503  504  0.90002825852E+01  0.67013808389E+02  0.53980406525E+02  0.86520170423E+02  0.00000000000E+00 0. -1.
         21    1    1    2  504  501 -0.12924465494E+03  0.23269058497E+03  0.29881034980E+03  0.40017085640E+03  0.00000000000E+00 0.  1.
<mgrwt>
<rscale>  4 0.34627508E+03</rscale>
<asrwt>0</asrwt>
<pdfrwt beam="1">  1       21 0.17713938E+00 0.34627508E+03</pdfrwt>
<pdfrwt beam="2">  1       21 0.16603159E-01 0.34627508E+03</pdfrwt>
<totfact> 0.56141809E+03</totfact>
</mgrwt>
</event>
<event>
 5    0  0.1942545E+000  0.1999603E+03  0.7546771E-02  0.1149772E+00
         21   -1    0    0  502  501  0.00000000000E+00  0.00000000000E+00  0.20036944656E+03  0.20036944656E+03  0.00000000000E+00 0. -1.
         21   -1    0    0  503  502 -0.00000000000E+00 -0.00000000000E+00 -0.55658026769E+03  0.55658026769E+03  0.00000000000E+00 0. -1.
         25    1    1    2    0    0  0.16026844125E+03 -0.15281920061E+03  0.49197548435E+02  0.25900787654E+03  0.12500000000E+03 0.  0.
         21    1    1    2  503  504 -0.13564415272E+03  0.65732289817E+02 -0.37216064494E+03  0.40152660651E+03  0.00000000000E+00 0. -1.
         21    1    1    2  504  501 -0.24624288522E+02  0.87086910795E+02 -0.33247724625E+02  0.96415231212E+02  0.00000000000E+00 0. -1.
<mgrwt>
<rscale>  4 0.19996034E+03</rscale>
<asrwt>0</asrwt>
<pdfrwt beam="1">  1       21 0.30826068E-01 0.19996034E+03</pdfrwt>
<pdfrwt beam="2">  1       21 0.85627734E-01 0.19996034E+03</pdfrwt>
<totfact> 0.11848355E+04</totfact>
</mgrwt>
</event>
<event>
 5    0  0.1856407E+000  0.2399459E+03  0.7546771E-02  0.1119829E+00
         21   -1    0    0  502  501  0.00000000000E+00  0.00000000000E+00  0.88662122499E+03  0.88662122499E+03  0.00000000000E+00 0. -1.
         21   -1    0    0  503  502 -0.00000000000E+00 -0.00000000000E+00 -0.85944424647E+02  0.85944424647E+02  0.00000000000E+00 0. -1.
         25    1    1    2    0    0  0.16018796862E+03  0.15425203757E+03  0.45850216670E+03  0.52469335164E+03  0.12500000000E+03 0.  0.
         21    1    1    2  503  504  0.24809633824E+02 -0.89249859630E+02  0.10110941628E+03  0.13712829553E+03  0.00000000000E+00 0. -1.
         21    1    1    2  504  501 -0.18499760245E+03 -0.65002177939E+02  0.24106521737E+03  0.31074400248E+03  0.00000000000E+00 0. -1.
<mgrwt>
<rscale>  4 0.23994587E+03</rscale>
<asrwt>0</asrwt>
<pdfrwt beam="1">  1       21 0.13640326E+00 0.23994587E+03</pdfrwt>
<pdfrwt beam="2">  1       21 0.13222220E-01 0.23994587E+03</pdfrwt>
<totfact> 0.18320433E+04</totfact>
</mgrwt>
</event>
