<event>
 5    0  0.1283376E+001  0.2273135E+03  0.7546771E-02  0.1128545E+00
         21   -1    0    0  503  501  0.00000000000E+00  0.00000000000E+00  0.14582071129E+03  0.14582071129E+03  0.00000000000E+00 0. -1.
         21   -1    0    0  504  502 -0.00000000000E+00 -0.00000000000E+00 -0.43684004032E+03  0.43684004032E+03  0.00000000000E+00 0. -1.
         25    1    1    2    0    0  0.76872040454E+01 -0.21554925452E+03 -0.77737032350E+02  0.26112950892E+03  0.12500000000E+03 0.  0.
         21    1    1    2  503  502 -0.39359136693E+02  0.16354399881E+03 -0.10797121996E+03  0.19988388011E+03  0.00000000000E+00 0. -1.
         21    1    1    2  504  501  0.31671932647E+02  0.52005255711E+02 -0.10531107673E+03  0.12164736257E+03  0.00000000000E+00 0. -1.
<mgrwt>
<rscale>  4 0.22731353E+03</rscale>
<asrwt>0</asrwt>
<pdfrwt beam="1">  1       21 0.22433955E-01 0.22731353E+03</pdfrwt>
<pdfrwt beam="2">  1       21 0.67206160E-01 0.22731353E+03</pdfrwt>
<totfact> 0.37043950E+04</totfact>
</mgrwt>
</event>
<event>
 5    0  0.1283376E+001  0.2486801E+03  0.7546771E-02  0.1114142E+00
         21   -1    0    0  503  501  0.00000000000E+00  0.00000000000E+00  0.33010067488E+03  0.33010067488E+03  0.00000000000E+00 0. -1.
         21   -1    0    0  504  502 -0.00000000000E+00 -0.00000000000E+00 -0.31055074972E+03  0.31055074972E+03  0.00000000000E+00 0. -1.
         25    1    1    2    0    0 -0.18732868217E+03 -0.93544145840E+02  0.34195519503E+02  0.24624556024E+03  0.12500000000E+03 0.  0.
         21    1    1    2  503  502 -0.17294713187E+02  0.16247730013E+02 -0.14020192664E+03  0.14219590736E+03  0.00000000000E+00 0. -1.
         21    1    1    2  504  501  0.20462339536E+03  0.77296415828E+02  0.12555633230E+03  0.25220995700E+03  0.00000000000E+00 0. -1.
<mgrwt>
<rscale>  4 0.24868012E+03</rscale>
<asrwt>0</asrwt>
<pdfrwt beam="1">  1       21 0.50784719E-01 0.24868012E+03</pdfrwt>
<pdfrwt beam="2">  1       21 0.47777038E-01 0.24868012E+03</pdfrwt>
<totfact> 0.14955009E+04</totfact>
</mgrwt>
</event>
<event>
 5    0  0.1283376E+001  0.2667968E+03  0.7546771E-02  0.1103127E+00
         21   -1    0    0  503  501  0.00000000000E+00  0.00000000000E+00  0.92448562545E+03  0.92448562545E+03  0.00000000000E+00 0. -1.
         21   -1    0    0  504  502 -0.00000000000E+00 -0.00000000000E+00 -0.10866992948E+03  0.10866992948E+03  0.00000000000E+00 0. -1.
         25    1    1    2    0    0  0.12949709891E+03  0.20673353269E+03  0.66345873980E+03  0.71785148296E+03  0.12500000000E+03 0.  0.
         21    1    1    2  503  502 -0.13868912008E+03 -0.17105171457E+03  0.16625426159E+03  0.27592361367E+03  0.00000000000E+00 0. -1.
         21    1    1    2  504  501  0.91920211660E+01 -0.35681818121E+02 -0.13897305420E+02  0.39380458295E+02  0.00000000000E+00 0.  1.
<mgrwt>
<rscale>  4 0.26679676E+03</rscale>
<asrwt>0</asrwt>
<pdfrwt beam="1">  1       21 0.14222855E+00 0.26679676E+03</pdfrwt>
<pdfrwt beam="2">  1       21 0.16718451E-01 0.26679676E+03</pdfrwt>
<totfact> 0.10533533E+04</totfact>
</mgrwt>
</event>
<event>
 5    0  0.1283376E+001  0.2486096E+03  0.7546771E-02  0.1114187E+00
         21   -1    0    0  503  501  0.00000000000E+00  0.00000000000E+00  0.93504444914E+03  0.93504444914E+03  0.00000000000E+00 0.  1.
         21   -1    0    0  504  502 -0.00000000000E+00 -0.00000000000E+00 -0.20605374479E+03  0.20605374479E+03  0.00000000000E+00 0.  1.
         25    1    1    2    0    0 -0.21914420223E+03  0.33131168605E+01  0.71353119887E+03  0.75682688236E+03  0.12500000000E+03 0.  0.
         21    1    1    2  503  502  0.20454493637E+03  0.12201486271E+02  0.14625647043E+03  0.25175079424E+03  0.00000000000E+00 0.  1.
         21    1    1    2  504  501  0.14599265866E+02 -0.15514603131E+02 -0.13079696494E+03  0.13252051732E+03  0.00000000000E+00 0.  1.
<mgrwt>
<rscale>  4 0.24860963E+03</rscale>
<asrwt>0</asrwt>
<pdfrwt beam="1">  1       21 0.14385299E+00 0.24860963E+03</pdfrwt>
<pdfrwt beam="2">  1       21 0.31700577E-01 0.24860963E+03</pdfrwt>
<totfact> 0.30499516E+03</totfact>
</mgrwt>
</event>
<event>
 5    0  0.1283376E+001  0.3166109E+03  0.7546771E-02  0.1077220E+00
         21   -1    0    0  503  501  0.00000000000E+00  0.00000000000E+00  0.11184324529E+04  0.11184324529E+04  0.00000000000E+00 0. -1.
         21   -1    0    0  504  502 -0.00000000000E+00 -0.00000000000E+00 -0.18324331776E+04  0.18324331776E+04  0.00000000000E+00 0.  1.
         25    1    1    2    0    0 -0.27433227343E+03  0.66554352647E+00 -0.42061223351E+02  0.30438920103E+03  0.12500000000E+03 0.  0.
         21    1    1    2  503  502  0.26272345905E+03  0.13788323574E+03  0.96195652733E+03  0.10066755997E+04  0.00000000000E+00 0. -1.
         21    1    1    2  504  501  0.11608814383E+02 -0.13854877927E+03 -0.16338960287E+04  0.16398008298E+04  0.00000000000E+00 0.  1.
<mgrwt>
<rscale>  4 0.31661094E+03</rscale>
<asrwt>0</asrwt>
<pdfrwt beam="1">  1       21 0.17206653E+00 0.31661094E+03</pdfrwt>
<pdfrwt beam="2">  1       21 0.28191279E+00 0.31661094E+03</pdfrwt>
<totfact> 0.73976844E+00</totfact>
</mgrwt>
</event>
<event>
 5    0  0.1283376E+001  0.2589309E+03  0.7546771E-02  0.1107787E+00
         21   -1    0    0  504  501  0.00000000000E+00  0.00000000000E+00  0.18621709181E+03  0.18621709181E+03  0.00000000000E+00 0. -1.
         21   -1    0    0  503  502 -0.00000000000E+00 -0.00000000000E+00 -0.34144746734E+03  0.34144746734E+03  0.00000000000E+00 0. -1.
         25    1    1    2    0    0  0.19465117519E+03 -0.11632349282E+03 -0.15318256316E+02  0.25938366171E+03  0.12500000000E+03 0.  0.
         21    1    1    2  503  501 -0.17643273214E+03  0.10062171839E+03 -0.11394924900E+03  0.23288982488E+03  0.00000000000E+00 0. -1.
         21    1    1    2  504  502 -0.18218443049E+02  0.15701774429E+02 -0.25962870219E+02  0.35391072566E+02  0.00000000000E+00 0.  1.
<mgrwt>
<rscale>  4 0.25893095E+03</rscale>
<asrwt>0</asrwt>
<pdfrwt beam="1">  1       21 0.28648783E-01 0.25893095E+03</pdfrwt>
<pdfrwt beam="2">  1       21 0.52530379E-01 0.25893095E+03</pdfrwt>
<totfact> 0.38837932E+04</totfact>
</mgrwt>
</event>
<event>
 5    0  0.1283376E+001  0.2635491E+03  0.7546771E-02  0.1105029E+00
         21   -1    0    0  504  501  0.00000000000E+00  0.00000000000E+00  0.99825341014E+03  0.99825341014E+03  0.00000000000E+00 0. -1.
         21   -1    0    0  501  502 -0.00000000000E+00 -0.00000000000E+00 -0.40207337400E+03  0.40207337400E+03  0.00000000000E+00 0. -1.
         25    1    1    2    0    0  0.33211557978E+02 -0.23082084944E+03  0.93882428820E+03  0.97539597920E+03  0.12500000000E+03 0.  0.
         21    1    1    2  503  502 -0.38563662043E+02  0.21025656111E+03 -0.24564979051E+03  0.32563598864E+03  0.00000000000E+00 0. -1.
         21    1    1    2  504  503  0.53521040649E+01  0.20564288332E+02 -0.96994461546E+02  0.99294816296E+02  0.00000000000E+00 0.  1.
<mgrwt>
<rscale>  4 0.26354910E+03</rscale>
<asrwt>0</asrwt>
<pdfrwt beam="1">  1       21 0.15357745E+00 0.26354910E+03</pdfrwt>
<pdfrwt beam="2">  1       21 0.61857443E-01 0.26354910E+03</pdfrwt>
<totfact> 0.63674889E+02</totfact>
</mgrwt>
</event>
<event>
 5    0  0.1283376E+001  0.4534003E+03  0.7546771E-02  0.1026713E+00
         21   -1    0    0  503  501  0.00000000000E+00  0.00000000000E+00  0.26539713461E+04  0.26539713461E+04  0.00000000000E+00 0. -1.
         21   -1    0    0  504  502 -0.00000000000E+00 -0.00000000000E+00 -0.34746918855E+03  0.34746918855E+03  0.00000000000E+00 0.  1.
         25    1    1    2    0    0  0.38286624121E+03  0.21197194508E+03  0.24447036660E+04  0.24867086035E+04  0.12500000000E+03 0.  0.
         21    1    1    2  503  502 -0.73492095323E+01 -0.46613872133E+02  0.45156102067E+02  0.65314144791E+02  0.00000000000E+00 0.  1.
         21    1    1    2  504  501 -0.37551703168E+03 -0.16535807295E+03 -0.18335761051E+03  0.44941778637E+03  0.00000000000E+00 0.  1.
<mgrwt>
<rscale>  4 0.45340029E+03</rscale>
<asrwt>0</asrwt>
<pdfrwt beam="1">  1       21 0.40830327E+00 0.45340029E+03</pdfrwt>
<pdfrwt beam="2">  1       21 0.53456800E-01 0.45340029E+03</pdfrwt>
<totfact> 0.18595711E+01</totfact>
</mgrwt>
</event>
<event>
 5    0  0.1283376E+001  0.4064844E+03  0.7546771E-02  0.1041557E+00
         21   -1    0    0  503  501  0.00000000000E+00  0.00000000000E+00  0.31580050036E+03  0.31580050036E+03  0.00000000000E+00 0.  1.
         21   -1    0    0  504  502 -0.00000000000E+00 -0.00000000000E+00 -0.14901467788E+04  0.14901467788E+04  0.00000000000E+00 0.  1.
         25    1    1    2    0    0  0.24316079204E+03 -0.30523517647E+03  0.12767501674E+03  0.42921043049E+03  0.12500000000E+03 0.  0.
         21    1    1    2  503  502 -0.23424869531E+03  0.28128864768E+03 -0.86885299289E+03  0.94281561179E+03  0.00000000000E+00 0.  1.
         21    1    1    2  504  501 -0.89120967255E+01  0.23946528794E+02 -0.43316830225E+03  0.43392123685E+03  0.00000000000E+00 0. -1.
<mgrwt>
<rscale>  4 0.40648442E+03</rscale>
<asrwt>0</asrwt>
<pdfrwt beam="1">  1       21 0.48584693E-01 0.40648442E+03</pdfrwt>
<pdfrwt beam="2">  1       21 0.22925335E+00 0.40648442E+03</pdfrwt>
<totfact> 0.29581822E+02</totfact>
</mgrwt>
</event>
<event>
 5    0  0.1283376E+001  0.2407346E+03  0.7546771E-02  0.1119304E+00
         21   -1    0    0  504  501  0.00000000000E+00  0.00000000000E+00  0.21791238555E+03  0.21791238555E+03  0.00000000000E+00 0. -1.
         21   -1    0    0  503  502 -0.00000000000E+00 -0.00000000000E+00 -0.53328079620E+03  0.53328079620E+03  0.00000000000E+00 0. -1.
         25    1    1    2    0    0 -0.20225398227E+03  0.43860267579E+02  0.11145391962E+03  0.26622804626E+03  0.12500000000E+03 0.  0.
         21    1    1    2  503  501  0.19879217208E+03 -0.21077498735E+02 -0.41092184976E+03  0.45696756477E+03  0.00000000000E+00 0. -1.
         21    1    1    2  504  502  0.34618101863E+01 -0.22782768843E+02 -0.15900480515E+02  0.27997570725E+02  0.00000000000E+00 0. -1.
<mgrwt>
<rscale>  4 0.24073463E+03</rscale>
<asrwt>0</asrwt>
<pdfrwt beam="1">  1       21 0.33524983E-01 0.24073463E+03</pdfrwt>
<pdfrwt beam="2">  1       21 0.82043199E-01 0.24073463E+03</pdfrwt>
<totfact> 0.10797744E+04</totfact>
</mgrwt>
</event>
<event>
 5    0  0.1283376E+001  0.2833429E+03  0.7546771E-02  0.1093877E+00
         21   -1    0    0  503  501  0.00000000000E+00  0.00000000000E+00  0.14150799552E+03  0.14150799552E+03  0.00000000000E+00 0.  1.
         21   -1    0    0  504  502 -0.00000000000E+00 -0.00000000000E+00 -0.11637402726E+04  0.11637402726E+04  0.00000000000E+00 0. -1.
         25    1    1    2    0    0 -0.19773880613E+03 -0.69840844533E+02 -0.19843095303E+03  0.31460804525E+03  0.12500000000E+03 0.  0.
         21    1    1    2  503  502  0.27071655013E+03  0.14832845689E+03 -0.22414916378E+03  0.38148608004E+03  0.00000000000E+00 0.  1.
         21    1    1    2  504  501 -0.72977744004E+02 -0.78487612360E+02 -0.59965216023E+03  0.60915414280E+03  0.00000000000E+00 0. -1.
<mgrwt>
<rscale>  4 0.28334286E+03</rscale>
<asrwt>0</asrwt>
<pdfrwt beam="1">  1       21 0.21770460E-01 0.28334286E+03</pdfrwt>
<pdfrwt beam="2">  1       21 0.17903697E+00 0.28334286E+03</pdfrwt>
<totfact> 0.33883741E+03</totfact>
</mgrwt>
</event>
<event>
 5    0  0.1283376E+001  0.2138762E+03  0.7546771E-02  0.1138533E+00
         21   -1    0    0  504  501  0.00000000000E+00  0.00000000000E+00  0.12333610112E+03  0.12333610112E+03  0.00000000000E+00 0.  1.
         21   -1    0    0  501  502 -0.00000000000E+00 -0.00000000000E+00 -0.22907068730E+04  0.22907068730E+04  0.00000000000E+00 0.  1.
         25    1    1    2    0    0  0.20181780247E+03  0.18127168282E+02 -0.15821045363E+02  0.23860914715E+03  0.12500000000E+03 0.  0.
         21    1    1    2  503  502 -0.93780133890E+02  0.19175441380E+01 -0.18821634463E+04  0.18844993047E+04  0.00000000000E+00 0.  1.
         21    1    1    2  504  503 -0.10803766858E+03 -0.20044712420E+02 -0.26938628020E+03  0.29093452234E+03  0.00000000000E+00 0.  1.
<mgrwt>
<rscale>  4 0.21387616E+03</rscale>
<asrwt>0</asrwt>
<pdfrwt beam="1">  1       21 0.18974784E-01 0.21387616E+03</pdfrwt>
<pdfrwt beam="2">  1       21 0.35241645E+00 0.21387616E+03</pdfrwt>
<totfact> 0.41738381E+02</totfact>
</mgrwt>
</event>
<event>
 5    0  0.1283376E+001  0.5271450E+03  0.7546771E-02  0.1006927E+00
         21   -1    0    0  504  501  0.00000000000E+00  0.00000000000E+00  0.11951106308E+04  0.11951106308E+04  0.00000000000E+00 0.  1.
         21   -1    0    0  501  502 -0.00000000000E+00 -0.00000000000E+00 -0.54901596412E+03  0.54901596412E+03  0.00000000000E+00 0. -1.
         25    1    1    2    0    0 -0.31203392652E+03  0.39910446944E+03  0.76681039354E+03  0.92750888323E+03  0.12500000000E+03 0.  0.
         21    1    1    2  503  502 -0.25050682042E+00  0.24020057084E+02 -0.26912256688E+03  0.27019249046E+03  0.00000000000E+00 0. -1.
         21    1    1    2  504  503  0.31228443334E+03 -0.42312452653E+03  0.14840684005E+03  0.54642522126E+03  0.00000000000E+00 0. -1.
<mgrwt>
<rscale>  4 0.52714496E+03</rscale>
<asrwt>0</asrwt>
<pdfrwt beam="1">  1       21 0.18386317E+00 0.52714496E+03</pdfrwt>
<pdfrwt beam="2">  1       21 0.84463994E-01 0.52714496E+03</pdfrwt>
<totfact> 0.16209110E+02</totfact>
</mgrwt>
</event>
<event>
 5    0  0.1283376E+001  0.4114447E+03  0.7546771E-02  0.1039887E+00
         21   -1    0    0  503  501  0.00000000000E+00  0.00000000000E+00  0.46249505515E+03  0.46249505515E+03  0.00000000000E+00 0. -1.
         21   -1    0    0  504  502 -0.00000000000E+00 -0.00000000000E+00 -0.70517584044E+03  0.70517584044E+03  0.00000000000E+00 0. -1.
         25    1    1    2    0    0  0.31201584372E+03  0.26883404330E+03  0.21898023718E+03  0.48291093780E+03  0.12500000000E+03 0.  0.
         21    1    1    2  503  502  0.13848834042E+02 -0.15370396662E+03 -0.96659513412E+02  0.18209821825E+03  0.00000000000E+00 0. -1.
         21    1    1    2  504  501 -0.32586467776E+03 -0.11513007668E+03 -0.36500150906E+03  0.50266173953E+03  0.00000000000E+00 0. -1.
<mgrwt>
<rscale>  4 0.41144470E+03</rscale>
<asrwt>0</asrwt>
<pdfrwt beam="1">  1       21 0.71153086E-01 0.41144470E+03</pdfrwt>
<pdfrwt beam="2">  1       21 0.10848859E+00 0.41144470E+03</pdfrwt>
<totfact> 0.10432054E+03</totfact>
</mgrwt>
</event>
<event>
 5    0  0.1283376E+001  0.2469550E+03  0.7546771E-02  0.1115244E+00
         21   -1    0    0  504  501  0.00000000000E+00  0.00000000000E+00  0.17500892504E+03  0.17500892504E+03  0.00000000000E+00 0.  1.
         21   -1    0    0  501  502 -0.00000000000E+00 -0.00000000000E+00 -0.10634184634E+04  0.10634184634E+04  0.00000000000E+00 0.  1.
         25    1    1    2    0    0 -0.49032600423E+02  0.20726214626E+03  0.67323446898E+02  0.25596726291E+03  0.12500000000E+03 0.  0.
         21    1    1    2  503  502  0.42052271757E+02 -0.33687190522E+02 -0.22890334797E+03  0.23515944182E+03  0.00000000000E+00 0.  1.
         21    1    1    2  504  503  0.69803286662E+01 -0.17357495574E+03 -0.72682963730E+03  0.74730068373E+03  0.00000000000E+00 0.  1.
<mgrwt>
<rscale>  4 0.24695504E+03</rscale>
<asrwt>0</asrwt>
<pdfrwt beam="1">  1       21 0.26924451E-01 0.24695504E+03</pdfrwt>
<pdfrwt beam="2">  1       21 0.16360284E+00 0.24695504E+03</pdfrwt>
<totfact> 0.29756838E+03</totfact>
</mgrwt>
</event>
<event>
 5    0  0.1283376E+001  0.2561682E+03  0.7546771E-02  0.1109468E+00
         21   -1    0    0  503  501  0.00000000000E+00  0.00000000000E+00  0.30609709027E+03  0.30609709027E+03  0.00000000000E+00 0. -1.
         21   -1    0    0  504  502 -0.00000000000E+00 -0.00000000000E+00 -0.45258576427E+03  0.45258576427E+03  0.00000000000E+00 0. -1.
         25    1    1    2    0    0 -0.21637983040E+03 -0.56364149257E+02  0.21268185046E+03  0.33295002304E+03  0.12500000000E+03 0.  0.
         21    1    1    2  503  502  0.18845403210E+03  0.54277879780E+02 -0.28076371962E+03  0.34247522057E+03  0.00000000000E+00 0. -1.
         21    1    1    2  504  501  0.27925798293E+02  0.20862694766E+01 -0.78406804841E+02  0.83257610919E+02  0.00000000000E+00 0. -1.
<mgrwt>
<rscale>  4 0.25616820E+03</rscale>
<asrwt>0</asrwt>
<pdfrwt beam="1">  1       21 0.47091860E-01 0.25616820E+03</pdfrwt>
<pdfrwt beam="2">  1       21 0.69628579E-01 0.25616820E+03</pdfrwt>
<totfact> 0.77658032E+03</totfact>
</mgrwt>
</event>
<event>
 5    0  0.1283376E+001  0.2702795E+03  0.7546771E-02  0.1101120E+00
         21   -1    0    0  504  501  0.00000000000E+00  0.00000000000E+00  0.17628169189E+03  0.17628169189E+03  0.00000000000E+00 0. -1.
         21   -1    0    0  503  502 -0.00000000000E+00 -0.00000000000E+00 -0.67640673925E+03  0.67640673925E+03  0.00000000000E+00 0.  1.
         25    1    1    2    0    0 -0.18971401116E+03  0.16155619967E+03 -0.27327897445E+03  0.39038213273E+03  0.12500000000E+03 0.  0.
         21    1    1    2  503  501  0.16644229574E+03 -0.16792458304E+03 -0.22785567848E+01  0.23644638974E+03  0.00000000000E+00 0. -1.
         21    1    1    2  504  502  0.23271715418E+02  0.63683833708E+01 -0.22456751612E+03  0.22585990867E+03  0.00000000000E+00 0.  1.
<mgrwt>
<rscale>  4 0.27027954E+03</rscale>
<asrwt>0</asrwt>
<pdfrwt beam="1">  1       21 0.27120261E-01 0.27027954E+03</pdfrwt>
<pdfrwt beam="2">  1       21 0.10406257E+00 0.27027954E+03</pdfrwt>
<totfact> 0.92170117E+03</totfact>
</mgrwt>
</event>
<event>
 5    0  0.1283376E+001  0.2681746E+03  0.7546771E-02  0.1102329E+00
         21   -1    0    0  503  501  0.00000000000E+00  0.00000000000E+00  0.34713954072E+03  0.34713954072E+03  0.00000000000E+00 0.  1.
         21   -1    0    0  504  502 -0.00000000000E+00 -0.00000000000E+00 -0.29869044852E+03  0.29869044852E+03  0.00000000000E+00 0.  1.
         25    1    1    2    0    0 -0.20600369366E+03  0.13386671138E+03  0.13769133009E+03  0.30812614397E+03  0.12500000000E+03 0.  0.
         21    1    1    2  503  502 -0.14857716940E+02 -0.66499209262E+02 -0.82091355338E+02  0.10668592787E+03  0.00000000000E+00 0.  1.
         21    1    1    2  504  501  0.22086141060E+03 -0.67367502121E+02 -0.71508825476E+01  0.23101791739E+03  0.00000000000E+00 0.  1.
<mgrwt>
<rscale>  4 0.26817463E+03</rscale>
<asrwt>0</asrwt>
<pdfrwt beam="1">  1       21 0.53406083E-01 0.26817463E+03</pdfrwt>
<pdfrwt beam="2">  1       21 0.45952377E-01 0.26817463E+03</pdfrwt>
<totfact> 0.14441127E+04</totfact>
</mgrwt>
</event>
<event>
 5    0  0.1283376E+001  0.2856519E+03  0.7546771E-02  0.1092641E+00
         21   -1    0    0  503  501  0.00000000000E+00  0.00000000000E+00  0.81331211981E+03  0.81331211981E+03  0.00000000000E+00 0. -1.
         21   -1    0    0  504  502 -0.00000000000E+00 -0.00000000000E+00 -0.10905285664E+03  0.10905285664E+03  0.00000000000E+00 0. -1.
         25    1    1    2    0    0 -0.19491451455E+03 -0.14917312791E+03  0.38892034603E+03  0.47657982083E+03  0.12500000000E+03 0.  0.
         21    1    1    2  503  502 -0.83064188544E+00 -0.38780803543E+02  0.16602482008E+02  0.42193401122E+02  0.00000000000E+00 0.  1.
         21    1    1    2  504  501  0.19574515644E+03  0.18795393145E+03  0.29873643513E+03  0.40359175449E+03  0.00000000000E+00 0. -1.
<mgrwt>
<rscale>  4 0.28565191E+03</rscale>
<asrwt>0</asrwt>
<pdfrwt beam="1">  1       21 0.12512494E+00 0.28565191E+03</pdfrwt>
<pdfrwt beam="2">  1       21 0.16777363E-01 0.28565191E+03</pdfrwt>
<totfact> 0.14416920E+04</totfact>
</mgrwt>
</event>
