<event>
 5    0  0.1943430E+001  0.2384553E+03  0.7546771E-02  0.1120826E+00
         21   -1    0    0  502  501  0.00000000000E+00  0.00000000000E+00  0.28949765038E+03  0.28949765038E+03  0.00000000000E+00 0.  1.
         21   -1    0    0  503  502 -0.00000000000E+00 -0.00000000000E+00 -0.52104329382E+03  0.52104329382E+03  0.00000000000E+00 0.  1.
         25    1    1    2    0    0 -0.89497602440E+02 -0.19191885389E+03  0.16607437118E+03  0.29672944593E+03  0.12500000000E+03 0.  0.
         21    1    1    2  503  504  0.15752247802E+03  0.11541846387E+03 -0.15120183972E+03  0.24697519960E+03  0.00000000000E+00 0.  1.
         21    1    1    2  504  501 -0.68024875581E+02  0.76500390013E+02 -0.24641817489E+03  0.26683629867E+03  0.00000000000E+00 0.  1.
<mgrwt>
<rscale>  4 0.23845528E+03</rscale>
<asrwt>0</asrwt>
<pdfrwt beam="1">  1       21 0.44538100E-01 0.23845528E+03</pdfrwt>
<pdfrwt beam="2">  1       21 0.80160506E-01 0.23845528E+03</pdfrwt>
<totfact> 0.64190324E+03</totfact>
</mgrwt>
</event>
<event>
 5    0  0.1943430E+001  0.3312603E+03  0.7546771E-02  0.1070581E+00
         21   -1    0    0  504  501  0.00000000000E+00  0.00000000000E+00  0.27395181169E+03  0.27395181169E+03  0.00000000000E+00 0.  1.
         21   -1    0    0  501  502 -0.00000000000E+00 -0.00000000000E+00 -0.47453023693E+03  0.47453023693E+03  0.00000000000E+00 0.  1.
         25    1    1    2    0    0  0.29387325489E+03 -0.12957032792E+03  0.99112900784E+00  0.34463885758E+03  0.12500000000E+03 0.  0.
         21    1    1    2  503  502 -0.27009912795E+03  0.10292639219E+03 -0.11660437505E+03  0.31167926047E+03  0.00000000000E+00 0.  1.
         21    1    1    2  504  503 -0.23774126943E+02  0.26643935727E+02 -0.84965179191E+02  0.92163930569E+02  0.00000000000E+00 0.  1.
<mgrwt>
<rscale>  4 0.33126025E+03</rscale>
<asrwt>0</asrwt>
<pdfrwt beam="1">  1       21 0.42146433E-01 0.33126025E+03</pdfrwt>
<pdfrwt beam="2">  1       21 0.73004652E-01 0.33126025E+03</pdfrwt>
<totfact> 0.84772048E+03</totfact>
</mgrwt>
</event>
<event>
 5    0  0.1943430E+001  0.3263766E+03  0.7546771E-02  0.1072751E+00
         21   -1    0    0  503  501  0.00000000000E+00  0.00000000000E+00  0.10146956633E+04  0.10146956633E+04  0.00000000000E+00 0.  1.
         21   -1    0    0  504  502 -0.00000000000E+00 -0.00000000000E+00 -0.21049940465E+03  0.21049940465E+03  0.00000000000E+00 0.  1.
         25    1    1    2    0    0  0.13873857661E+03 -0.26854698750E+03  0.79079118992E+03  0.85576958534E+03  0.12500000000E+03 0.  0.
         21    1    1    2  503  502 -0.19266390144E+03  0.23436300229E+03 -0.33798772480E+01  0.30340866720E+03  0.00000000000E+00 0.  1.
         21    1    1    2  504  501  0.53925324828E+02  0.34183985216E+02  0.16784945938E+02  0.66016815382E+02  0.00000000000E+00 0. -1.
<mgrwt>
<rscale>  4 0.32637659E+03</rscale>
<asrwt>0</asrwt>
<pdfrwt beam="1">  1       21 0.15610702E+00 0.32637659E+03</pdfrwt>
<pdfrwt beam="2">  1       21 0.32384524E-01 0.32637659E+03</pdfrwt>
<totfact> 0.22377584E+03</totfact>
</mgrwt>
</event>
<event>
 5    0  0.1943430E+001  0.2264015E+03  0.7546771E-02  0.1129198E+00
         21   -1    0    0  503  501  0.00000000000E+00  0.00000000000E+00  0.82650480854E+03  0.82650480854E+03  0.00000000000E+00 0. -1.
         21   -1    0    0  504  502 -0.00000000000E+00 -0.00000000000E+00 -0.17782269064E+03  0.17782269064E+03  0.00000000000E+00 0. -1.
         25    1    1    2    0    0  0.11702703479E+03  0.17786576939E+03  0.43501536288E+03  0.50019488675E+03  0.12500000000E+03 0.  0.
         21    1    1    2  503  502 -0.11028638842E+03 -0.13393315443E+03  0.33371483824E+03  0.37612068620E+03  0.00000000000E+00 0. -1.
         21    1    1    2  504  501 -0.67406463744E+01 -0.43932614961E+02 -0.12004808322E+03  0.12801192623E+03  0.00000000000E+00 0. -1.
<mgrwt>
<rscale>  4 0.22640149E+03</rscale>
<asrwt>0</asrwt>
<pdfrwt beam="1">  1       21 0.12715458E+00 0.22640149E+03</pdfrwt>
<pdfrwt beam="2">  1       21 0.27357338E-01 0.22640149E+03</pdfrwt>
<totfact> 0.56759946E+03</totfact>
</mgrwt>
</event>
<event>
 5    0  0.1943430E+001  0.2541330E+03  0.7546771E-02  0.1110720E+00
         21   -1    0    0  503  501  0.00000000000E+00  0.00000000000E+00  0.50019673418E+03  0.50019673418E+03  0.00000000000E+00 0.  1.
         21   -1    0    0  504  502 -0.00000000000E+00 -0.00000000000E+00 -0.85904125569E+03  0.85904125569E+03  0.00000000000E+00 0. -1.
         25    1    1    2    0    0  0.29314320367E+02  0.21869541212E+03  0.44157922007E+03  0.50921922612E+03  0.12500000000E+03 0.  0.
         21    1    1    2  503  502  0.23617206354E+02  0.76099801064E+01 -0.26715152450E+03  0.26830136279E+03  0.00000000000E+00 0.  1.
         21    1    1    2  504  501 -0.52931526722E+02 -0.22630539222E+03 -0.53327221708E+03  0.58171740096E+03  0.00000000000E+00 0. -1.
<mgrwt>
<rscale>  4 0.25413303E+03</rscale>
<asrwt>0</asrwt>
<pdfrwt beam="1">  1       21 0.76953345E-01 0.25413303E+03</pdfrwt>
<pdfrwt beam="2">  1       21 0.13216019E+00 0.25413303E+03</pdfrwt>
<totfact> 0.58633254E+02</totfact>
</mgrwt>
</event>
<event>
 5    0  0.1943430E+001  0.2464322E+03  0.7546771E-02  0.1115581E+00
         21   -1    0    0  503  501  0.00000000000E+00  0.00000000000E+00  0.14884050664E+03  0.14884050664E+03  0.00000000000E+00 0.  1.
         21   -1    0    0  504  502 -0.00000000000E+00 -0.00000000000E+00 -0.39585888091E+03  0.39585888091E+03  0.00000000000E+00 0.  1.
         25    1    1    2    0    0 -0.15744521023E+03  0.12408598000E+03 -0.76113617000E+02  0.24820275452E+03  0.12500000000E+03 0.  0.
         21    1    1    2  503  502 -0.21175664789E+02  0.47132729152E+01 -0.10812888920E+02  0.24239271598E+02  0.00000000000E+00 0.  1.
         21    1    1    2  504  501  0.17862087502E+03 -0.12879925291E+03 -0.16009186835E+03  0.27225736143E+03  0.00000000000E+00 0.  1.
<mgrwt>
<rscale>  4 0.24643215E+03</rscale>
<asrwt>0</asrwt>
<pdfrwt beam="1">  1       21 0.22898540E-01 0.24643215E+03</pdfrwt>
<pdfrwt beam="2">  1       21 0.60901365E-01 0.24643215E+03</pdfrwt>
<totfact> 0.43803155E+04</totfact>
</mgrwt>
</event>
<event>
 5    0  0.1943430E+001  0.1935979E+03  0.7546771E-02  0.1155256E+00
         21   -1    0    0  503  501  0.00000000000E+00  0.00000000000E+00  0.25784883152E+03  0.25784883152E+03  0.00000000000E+00 0.  1.
         21   -1    0    0  504  502 -0.00000000000E+00 -0.00000000000E+00 -0.26187853111E+03  0.26187853111E+03  0.00000000000E+00 0.  1.
         25    1    1    2    0    0 -0.15697628179E+03 -0.12588934781E+03  0.71116796417E+02  0.24733030480E+03  0.12500000000E+03 0.  0.
         21    1    1    2  503  502  0.43979837005E+02  0.13301811077E+03 -0.75555994621E+02  0.15917522476E+03  0.00000000000E+00 0.  1.
         21    1    1    2  504  501  0.11299644479E+03 -0.71287629560E+01  0.40949861325E+00  0.11322183308E+03  0.00000000000E+00 0.  1.
<mgrwt>
<rscale>  4 0.19359793E+03</rscale>
<asrwt>0</asrwt>
<pdfrwt beam="1">  1       21 0.39669051E-01 0.19359793E+03</pdfrwt>
<pdfrwt beam="2">  1       21 0.40289004E-01 0.19359793E+03</pdfrwt>
<totfact> 0.36348083E+04</totfact>
</mgrwt>
</event>
<event>
 5    0  0.1943430E+001  0.2860421E+03  0.7546771E-02  0.1092434E+00
         21   -1    0    0  503  501  0.00000000000E+00  0.00000000000E+00  0.42896879464E+03  0.42896879464E+03  0.00000000000E+00 0. -1.
         21   -1    0    0  504  502 -0.00000000000E+00 -0.00000000000E+00 -0.34106606066E+03  0.34106606066E+03  0.00000000000E+00 0. -1.
         25    1    1    2    0    0 -0.25069518825E+03 -0.95530273918E+02 -0.10941811098E+03  0.31554941556E+03  0.12500000000E+03 0.  0.
         21    1    1    2  503  502  0.23248827807E+03  0.10422146533E+03  0.27461508513E+03  0.37460159938E+03  0.00000000000E+00 0. -1.
         21    1    1    2  504  501  0.18206910182E+02 -0.86911914100E+01 -0.77294240172E+02  0.79883840358E+02  0.00000000000E+00 0. -1.
<mgrwt>
<rscale>  4 0.28604210E+03</rscale>
<asrwt>0</asrwt>
<pdfrwt beam="1">  1       21 0.65995199E-01 0.28604210E+03</pdfrwt>
<pdfrwt beam="2">  1       21 0.52471702E-01 0.28604210E+03</pdfrwt>
<totfact> 0.68554693E+03</totfact>
</mgrwt>
</event>
<event>
 5    0  0.1943430E+001  0.3029151E+03  0.7546771E-02  0.1083792E+00
         21   -1    0    0  503  501  0.00000000000E+00  0.00000000000E+00  0.17776833813E+04  0.17776833813E+04  0.00000000000E+00 0.  1.
         21   -1    0    0  504  502 -0.00000000000E+00 -0.00000000000E+00 -0.61894097250E+02  0.61894097250E+02  0.00000000000E+00 0.  1.
         25    1    1    2    0    0  0.27681341892E+03  0.11328994710E+02  0.80394702184E+03  0.85948230286E+03  0.12500000000E+03 0.  0.
         21    1    1    2  503  502 -0.95738735366E+01  0.67973736077E+02  0.29984797556E+03  0.30760509797E+03  0.00000000000E+00 0.  1.
         21    1    1    2  504  501 -0.26723954539E+03 -0.79302730787E+02  0.61199428667E+03  0.67249007773E+03  0.00000000000E+00 0.  1.
<mgrwt>
<rscale>  4 0.30291514E+03</rscale>
<asrwt>0</asrwt>
<pdfrwt beam="1">  1       21 0.27348971E+00 0.30291514E+03</pdfrwt>
<pdfrwt beam="2">  1       21 0.95221702E-02 0.30291514E+03</pdfrwt>
<totfact> 0.38915353E+03</totfact>
</mgrwt>
</event>
<event>
 5    0  0.1943430E+001  0.4072585E+03  0.7546771E-02  0.1041295E+00
         21   -1    0    0  504  501  0.00000000000E+00  0.00000000000E+00  0.64877233820E+03  0.64877233820E+03  0.00000000000E+00 0. -1.
         21   -1    0    0  503  502 -0.00000000000E+00 -0.00000000000E+00 -0.39951095794E+03  0.39951095794E+03  0.00000000000E+00 0. -1.
         25    1    1    2    0    0  0.38495785612E+03  0.46082103447E+02  0.13001310212E+01  0.40736077571E+03  0.12500000000E+03 0.  0.
         21    1    1    2  503  501 -0.38776226493E+03 -0.12942097339E+02  0.35681023419E+03  0.52710588615E+03  0.00000000000E+00 0. -1.
         21    1    1    2  504  502  0.28044088092E+01 -0.33140006108E+02 -0.10884898495E+03  0.11381663428E+03  0.00000000000E+00 0.  1.
<mgrwt>
<rscale>  4 0.40725849E+03</rscale>
<asrwt>0</asrwt>
<pdfrwt beam="1">  1       21 0.99811129E-01 0.40725849E+03</pdfrwt>
<pdfrwt beam="2">  1       21 0.61463224E-01 0.40725849E+03</pdfrwt>
<totfact> 0.17754139E+03</totfact>
</mgrwt>
</event>
<event>
 5    0  0.1943430E+001  0.3284678E+03  0.7546771E-02  0.1071817E+00
         21   -1    0    0  503  501  0.00000000000E+00  0.00000000000E+00  0.34926009427E+03  0.34926009427E+03  0.00000000000E+00 0. -1.
         21   -1    0    0  504  502 -0.00000000000E+00 -0.00000000000E+00 -0.47908793570E+03  0.47908793570E+03  0.00000000000E+00 0. -1.
         25    1    1    2    0    0 -0.30059738059E+03  0.45031777825E+02  0.16059736141E+03  0.36579114085E+03  0.12500000000E+03 0.  0.
         21    1    1    2  503  502  0.48248199465E+01  0.25290438847E+02 -0.10128401876E+03  0.10450520389E+03  0.00000000000E+00 0. -1.
         21    1    1    2  504  501  0.29577256064E+03 -0.70322216672E+02 -0.18914118407E+03  0.35805168523E+03  0.00000000000E+00 0. -1.
<mgrwt>
<rscale>  4 0.32846776E+03</rscale>
<asrwt>0</asrwt>
<pdfrwt beam="1">  1       21 0.53732323E-01 0.32846776E+03</pdfrwt>
<pdfrwt beam="2">  1       21 0.73705835E-01 0.32846776E+03</pdfrwt>
<totfact> 0.49909746E+03</totfact>
</mgrwt>
</event>
