<event>
 5    0  0.1911311E+001  0.2495876E+03  0.7546771E-02  0.1113566E+00
         21   -1    0    0  504  501  0.00000000000E+00  0.00000000000E+00  0.76053042366E+03  0.76053042366E+03  0.00000000000E+00 0.  1.
         21   -1    0    0  503  502 -0.00000000000E+00 -0.00000000000E+00 -0.11743200751E+04  0.11743200751E+04  0.00000000000E+00 0. -1.
         25    1    1    2    0    0  0.90264139035E+02  0.24000024602E+03 -0.64238315167E+01  0.28533138365E+03  0.12500000000E+03 0.  0.
         21    1    1    2  503  501 -0.72748460083E+02 -0.20002118066E+03 -0.10166413904E+04  0.10386821111E+04  0.00000000000E+00 0. -1.
         21    1    1    2  504  502 -0.17515678952E+02 -0.39979065359E+02  0.60927557050E+03  0.61083700402E+03  0.00000000000E+00 0.  1.
<mgrwt>
<rscale>  4 0.24958763E+03</rscale>
<asrwt>0</asrwt>
<pdfrwt beam="1">  1       21 0.11700468E+00 0.24958763E+03</pdfrwt>
<pdfrwt beam="2">  1       21 0.18066463E+00 0.24958763E+03</pdfrwt>
<totfact> 0.94202159E+01</totfact>
</mgrwt>
</event>
<event>
 5    0  0.1911311E+001  0.3017212E+03  0.7546771E-02  0.1084383E+00
         21   -1    0    0  502  501  0.00000000000E+00  0.00000000000E+00  0.79679951877E+03  0.79679951877E+03  0.00000000000E+00 0.  1.
         21   -1    0    0  504  502 -0.00000000000E+00 -0.00000000000E+00 -0.80150291239E+03  0.80150291239E+03  0.00000000000E+00 0.  1.
         25    1    1    2    0    0 -0.19007744531E+03  0.15351609369E+03  0.68537936029E+03  0.73828618689E+03  0.12500000000E+03 0.  0.
         21    1    1    2  503  501 -0.36811502117E+02  0.30820477812E+01  0.54611146271E+02  0.65931502362E+02  0.00000000000E+00 0. -1.
         21    1    1    2  504  503  0.22688894743E+03 -0.15659814147E+03 -0.74469390018E+03  0.79408474192E+03  0.00000000000E+00 0.  1.
<mgrwt>
<rscale>  4 0.30172116E+03</rscale>
<asrwt>0</asrwt>
<pdfrwt beam="1">  1       21 0.12258454E+00 0.30172116E+03</pdfrwt>
<pdfrwt beam="2">  1       21 0.12330814E+00 0.30172116E+03</pdfrwt>
<totfact> 0.22191590E+02</totfact>
</mgrwt>
</event>
<event>
 5    0  0.4951455E+001  0.2282470E+03  0.7546771E-02  0.1127880E+00
         21   -1    0    0  504  501  0.00000000000E+00  0.00000000000E+00  0.88507239960E+02  0.88507239960E+02  0.00000000000E+00 0.  1.
         21   -1    0    0  503  502 -0.00000000000E+00 -0.00000000000E+00 -0.24343356230E+04  0.24343356230E+04  0.00000000000E+00 0. -1.
         25    1    1    2    0    0  0.96446673850E+01 -0.20476367916E+03 -0.11585074979E+03  0.26658503360E+03  0.12500000000E+03 0.  0.
         21    1    1    2  503  501 -0.26933951757E+02  0.18835115354E+03 -0.22234027175E+04  0.22315289016E+04  0.00000000000E+00 0. -1.
         21    1    1    2  504  502  0.17289284372E+02  0.16412525620E+02 -0.65749158483E+01  0.24728927792E+02  0.00000000000E+00 0.  1.
<mgrwt>
<rscale>  4 0.22824702E+03</rscale>
<asrwt>0</asrwt>
<pdfrwt beam="1">  1       21 0.13616500E-01 0.22824702E+03</pdfrwt>
<pdfrwt beam="2">  1       21 0.37451314E+00 0.22824702E+03</pdfrwt>
<totfact> 0.55417143E+02</totfact>
</mgrwt>
</event>
<event>
 5    0  0.1911311E+001  0.2126087E+03  0.7546771E-02  0.1139517E+00
         21   -1    0    0  502  501  0.00000000000E+00  0.00000000000E+00  0.13229872403E+03  0.13229872403E+03  0.00000000000E+00 0. -1.
         21   -1    0    0  504  502 -0.00000000000E+00 -0.00000000000E+00 -0.46357956919E+03  0.46357956919E+03  0.00000000000E+00 0. -1.
         25    1    1    2    0    0 -0.74174059658E+01 -0.20595236830E+03 -0.18361299322E+03  0.30300186005E+03  0.12500000000E+03 0.  0.
         21    1    1    2  503  501 -0.11252228129E+02  0.47970108953E+02 -0.12221243520E+03  0.13177110195E+03  0.00000000000E+00 0. -1.
         21    1    1    2  504  503  0.18669634095E+02  0.15798225934E+03 -0.25455416745E+02  0.16110533122E+03  0.00000000000E+00 0. -1.
<mgrwt>
<rscale>  4 0.21260873E+03</rscale>
<asrwt>0</asrwt>
<pdfrwt beam="1">  1       21 0.20353650E-01 0.21260873E+03</pdfrwt>
<pdfrwt beam="2">  1       21 0.71319933E-01 0.21260873E+03</pdfrwt>
<totfact> 0.39311962E+04</totfact>
</mgrwt>
</event>
<event>
 5    0  0.2852011E+001  0.3082836E+03  0.7546771E-02  0.1081171E+00
         21   -1    0    0  502  501  0.00000000000E+00  0.00000000000E+00  0.19633826642E+03  0.19633826642E+03  0.00000000000E+00 0.  1.
         21   -1    0    0  504  502 -0.00000000000E+00 -0.00000000000E+00 -0.53322879706E+03  0.53322879706E+03  0.00000000000E+00 0.  1.
         25    1    1    2    0    0 -0.65303544122E+01 -0.29486887182E+03 -0.16615411906E+03  0.36086353151E+03  0.12500000000E+03 0.  0.
         21    1    1    2  503  501  0.59356614917E+00  0.27232509498E+03 -0.93348629949E+02  0.28788066346E+03  0.00000000000E+00 0.  1.
         21    1    1    2  504  503  0.59367882630E+01  0.22543776832E+02 -0.77387781627E+02  0.80822868508E+02  0.00000000000E+00 0. -1.
<mgrwt>
<rscale>  4 0.30828365E+03</rscale>
<asrwt>0</asrwt>
<pdfrwt beam="1">  1       21 0.30205887E-01 0.30828365E+03</pdfrwt>
<pdfrwt beam="2">  1       21 0.82035200E-01 0.30828365E+03</pdfrwt>
<totfact> 0.12842723E+04</totfact>
</mgrwt>
</event>
