<LesHouchesEvents version="3.0">
  <!--
  <scalesfunctionalform>
    muR  H_T/2 := sum_i mT(i)/2, i=final state
    muF1 H_T/2 := sum_i mT(i)/2, i=final state
    muF2 H_T/2 := sum_i mT(i)/2, i=final state
    QES  H_T/2 := sum_i mT(i)/2, i=final state
  </scalesfunctionalform>
HERWIG6   
  -->
  <header>
      290
  </header>
  <init>
   2212   2212 0.65000000D+04 0.65000000D+04 -1 -1   247000   247000 -3   1
 0.59682489D-01 0.14688046D-02 0.43535451D-03     66
  </init>
  <event>
  5     66 0.43535451E-03 0.40776204E+02 0.75467711E-02 0.11575767E+00
       -3 -1    0    0    0  501 0.00000000E+00 0.00000000E+00 0.11572464E+03 0.11572572E+03 0.50000000E+00 0.0000E+00 0.9000E+01
        4 -1    0    0  502    0 0.00000000E+00 0.00000000E+00 -.24905161E+03 0.24905643E+03 0.15500000E+01 0.0000E+00 0.9000E+01
       25  1    1    2    0    0 0.99491405E+02 -.92186498E+01 -.51363523E+02 0.16806765E+03 0.12500000E+03 0.0000E+00 0.9000E+01
       24  1    1    2    0    0 -.96274806E+02 0.49862171E+02 -.77597951E+02 0.15570399E+03 0.80419002E+02 0.0000E+00 0.9000E+01
       21  1    1    2  502  501 -.32165982E+01 -.40643521E+02 -.43654963E+01 0.41010515E+02 0.75000000E+00 0.0000E+00 0.9000E+01
#aMCatNLO 1  0  0  1  2 0.43297988D+02 0.00000000D+00  -5  6  0 0.00000000D+00 0.00000000D+00 0.00000000D+00 0.00000000D+00 0.00000000D+00
  <mgrwgt>
 0.1169564378D-01    4    2    0
 0.169771860431231D+03 0.000000000000000D+00 0.000000000000000D+00 0.169771860431231D+03
 0.169771860431231D+03 0.000000000000000D+00 0.000000000000000D+00 -.169771860431231D+03
 0.160391444963803D+03 0.994916430054101D+02 -.921563766679022D+01 0.108120586409403D+02
 0.136808437881179D+03 -.962746030946688D+02 0.498647398214952D+02 -.222270385480496D+02
 0.423438380174808D+02 -.321703991074128D+01 -.406491021547049D+02 0.114149799071093D+02
 0.000000000000000D+00 0.000000000000000D+00 -.000000000000000D+00 -.000000000000000D+00
 0.192080954821093D+03 0.000000000000000D+00 0.000000000000000D+00 0.192080954821093D+03
 0.193534657690021D+03 0.000000000000000D+00 0.000000000000000D+00 -.193534657690021D+03
 0.149120941966652D+03 0.804818363932454D+02 -.422240828643106D+01 0.108120586409403D+02
 0.151405649582261D+03 -.113976298719576D+03 0.545143729545278D+02 -.222270385480496D+02
 0.417666366976586D+02 -.838298455757518D+01 -.392921842694186D+02 0.114149799071093D+02
 0.433223842645421D+02 0.418774468839061D+02 -.109997803986781D+02 -.145370286892763D+01
0.219768020091D-03 0.000000000000D+00 0.000000000000D+00 0.116829687636D-04 0.000000000000D+00  6 -3 4 25 24 21 21 2 0.17804245D-01 0.38316086D-01 0.28189332D+05 0.28189332D+05 0.28189332D+05 0.12177463D+01  1  2  2  1  6  1       -3 0.120735018724D-01 0.100000000000D+01
0.215773038149D-04 0.115974770429D-04 -.843967063399D-06 0.116829687636D-04 0.000000000000D+00  6 -3 4 25 24 21 21 4 0.17804245D-01 0.38316086D-01 0.28189332D+05 0.28189332D+05 0.28189332D+05 0.12177463D+01  1  2  3  1  6  1       -3 0.175784079682D-02 0.100000000000D+01
0.940844910661D-05 0.000000000000D+00 0.000000000000D+00 0.116829687636D-04 0.000000000000D+00  6 -3 4 25 24 21 21 4 0.17804245D-01 0.38316086D-01 0.28189332D+05 0.28189332D+05 0.28189332D+05 0.12177463D+01  1  2 15  1  6  1       -3 0.766479251363D-03 0.100000000000D+01
-.356239197168D-04 0.000000000000D+00 0.000000000000D+00 0.116829687636D-04 0.000000000000D+00  6 -3 4 25 24 21 21 4 0.17804245D-01 0.38316086D-01 0.28189332D+05 0.28189332D+05 0.28189332D+05 0.12177463D+01  1  2  4  1  6  1       -3 -.290217813858D-02 0.100000000000D+01
  </mgrwgt>
  </event>
  <event>
  6     66 -.43535451E-03 0.36987657E+02 0.75467711E-02 0.12103684E+00
       -1 -1    0    0    0  501 0.00000000E+00 0.00000000E+00 0.45494119E+03 0.45494131E+03 0.32000000E+00 0.0000E+00 0.9000E+01
        2 -1    0    0  502    0 0.00000000E+00 0.00000000E+00 -.52611214E+02 0.52612187E+02 0.32000000E+00 0.0000E+00 0.9000E+01
       25  1    1    2    0    0 0.76951848E+01 -.31386963E+02 0.10965132E+03 0.16938940E+03 0.12500000E+03 0.0000E+00 0.9000E+01
       24  1    1    2    0    0 0.21433827E+02 0.36742015E+02 0.11548504E+03 0.14701495E+03 0.80419002E+02 0.0000E+00 0.9000E+01
       21  1    1    2  502  503 -.42971791E+02 -.17516328E+02 0.82335287E+02 0.94514859E+02 0.75000000E+00 0.0000E+00 0.9000E+01
       21  1    1    2  503  501 0.13842780E+02 0.12161277E+02 0.94858331E+02 0.96634283E+02 0.75000000E+00 0.0000E+00 0.9000E+01
#aMCatNLO 2  0  0  5  2 0.31835689D+02 0.00000000D+00  -5  6  0 0.00000000D+00 0.00000000D+00 0.00000000D+00 0.00000000D+00 0.00000000D+00
  <mgrwgt>
 -.3233273965D-01    2    2    0
 0.154710322635440D+03 0.000000000000000D+00 0.000000000000000D+00 0.154710322635440D+03
 0.154710322635440D+03 -.000000000000000D+00 -.000000000000000D+00 -.154710322635440D+03
 0.139759607253789D+03 0.160872884095734D+02 -.298441666206562D+02 -.525192601821375D+02
 0.934008073006757D+02 0.270601060112751D+02 0.377763446369212D+02 -.985866616629908D+01
 0.762602307164157D+02 -.431473944208484D+02 -.793217801626500D+01 0.623779263484366D+02
 0.000000000000000D+00 0.000000000000000D+00 0.000000000000000D+00 0.000000000000000D+00
 0.154710322635440D+03 0.000000000000000D+00 0.000000000000000D+00 0.154710322635440D+03
 0.154710322635440D+03 -.000000000000000D+00 -.000000000000000D+00 -.154710322635440D+03
 0.135261034687881D+03 0.765445979167409D+01 -.313944502165878D+02 -.403279710093633D+02
 0.909829478841086D+02 0.214064336308297D+02 0.367369786133343D+02 -.168518630548023D+01
 0.474912982695234D+02 -.426547385276159D+02 -.175261925739005D+02 0.113502980722142D+02
 0.356853644293672D+02 0.135938451051122D+02 0.121836641771540D+02 0.306628592426293D+02
-.107900094284D-03 0.000000000000D+00 0.000000000000D+00 0.149979242465D-04 0.000000000000D+00  6 -1 2 25 24 21 21 4 0.69991036D-01 0.80941164D-02 0.20227427D+05 0.20227427D+05 0.20227427D+05 0.12332858D+01  1  2 13  3  6  5       21 -.498186832104D-01 0.100000000000D+01
0.378720359057D-04 0.000000000000D+00 0.000000000000D+00 0.151529539670D-04 0.104860174936D-06  6 -1 2 25 24 21 21 4 0.69991036D-01 0.80941164D-02 0.20227427D+05 0.20227427D+05 0.20227427D+05 0.12332858D+01  1  2  1  3  6  5       21 0.174859435650D-01 0.100000000000D+01
  </mgrwgt>
  </event>
  <event>
  5     66 0.43535451E-03 0.24922735E+02 0.75467711E-02 0.11396959E+00
       -1 -1    0    0    0  501 0.00000000E+00 0.00000000E+00 0.22958884E+02 0.22961114E+02 0.32000000E+00 0.0000E+00 0.9000E+01
        2 -1    0    0  502    0 -.00000000E+00 -.00000000E+00 -.26445103E+04 0.26445103E+04 0.32000000E+00 0.0000E+00 0.9000E+01
       25  1    1    2    0    0 0.59022637E+02 0.15492096E+03 -.10182221E+04 0.10391753E+04 0.12500000E+03 0.0000E+00 0.9000E+01
       24  1    1    2    0    0 -.38103308E+02 -.16846655E+03 -.72511300E+03 0.74972589E+03 0.80419002E+02 0.0000E+00 0.9000E+01
       21  1    1    2  502  501 -.20919329E+02 0.13545591E+02 -.87821635E+03 0.87857021E+03 0.75000000E+00 0.0000E+00 0.9000E+01
#aMCatNLO 1  0  0  5  1 0.37625036D+01 0.00000000D+00  -5  6  0 0.00000000D+00 0.00000000D+00 0.00000000D+00 0.00000000D+00 0.00000000D+00
  <mgrwgt>
 0.3883682367D+00   20    2    0
 0.246410239337992D+03 0.000000000000000D+00 0.000000000000000D+00 0.246410239337992D+03
 0.246410239337992D+03 -.000000000000000D+00 -.000000000000000D+00 -.246410239337992D+03
 0.208288845212069D+03 0.590229912836143D+02 0.154920732246613D+03 0.165860260425688D+02
 0.200786428242876D+03 -.381029663139528D+02 -.168466774378526D+03 0.633646881214905D+02
 0.837452052210390D+02 -.209200249696615D+02 0.135460421319130D+02 -.799507141640593D+02
 0.000000000000000D+00 -.000000000000000D+00 0.000000000000000D+00 0.000000000000000D+00
 0.246410239337992D+03 0.000000000000000D+00 0.000000000000000D+00 0.246410239337992D+03
 0.246410239337992D+03 -.000000000000000D+00 -.000000000000000D+00 -.246410239337992D+03
 0.208266707218996D+03 0.587955704857044D+02 0.155067990756803D+03 0.157168848615701D+02
 0.200446418578122D+03 -.383220215963494D+02 -.168324932669978D+03 0.625275176929456D+02
 0.796419281231372D+02 -.168391915893021D+02 0.150529599288857D+02 -.763720285128599D+02
 0.446542475572822D+01 -.363435730005295D+01 -.179601801571026D+01 -.187237404165579D+01
0.135219332488D-02 0.000000000000D+00 0.000000000000D+00 0.283863363510D-04 0.000000000000D+00  6 -1 2 25 24 21 21 2 0.35323091D-02 0.40684791D+00 0.44748331D+05 0.44748331D+05 0.44748331D+05 0.11970843D+01  1  2  2  3  6  5       21 0.219905389209D+00 0.100000000000D+01
0.304073705241D-03 0.713572021822D-04 -.519277840821D-05 0.283863363510D-04 0.000000000000D+00  6 -1 2 25 24 21 21 4 0.35323091D-02 0.40684791D+00 0.44748331D+05 0.44748331D+05 0.44748331D+05 0.11970843D+01  1  2  3  3  6  5       21 0.708639610488D-01 0.100000000000D+01
0.269237596718D-04 0.000000000000D+00 0.000000000000D+00 0.283863363510D-04 0.000000000000D+00  6 -1 2 25 24 21 21 4 0.35323091D-02 0.40684791D+00 0.44748331D+05 0.44748331D+05 0.44748331D+05 0.11970843D+01  1  2 15  3  6  5       21 0.627454536115D-02 0.100000000000D+01
0.336498828574D-04 0.000000000000D+00 0.000000000000D+00 0.283699604478D-04 0.000000000000D+00  6 -1 2 25 24 21 21 4 0.35323091D-02 0.40684791D+00 0.45104766D+05 0.45104766D+05 0.45104766D+05 0.11967390D+01  1  2 12  3  6  5       21 0.783174550635D-02 0.100000000000D+01
-.941132168010D-02 0.000000000000D+00 0.000000000000D+00 0.283863363510D-04 0.000000000000D+00  6 -1 2 25 24 21 21 4 0.35323091D-02 0.40684791D+00 0.44748331D+05 0.44748331D+05 0.44748331D+05 0.11970843D+01  1  2  4  3  6  5       21 -.219329564333D+01 0.100000000000D+01
-.163181144329D-01 0.000000000000D+00 0.000000000000D+00 0.283863363510D-04 0.000000000000D+00  6 -1 2 25 24 21 21 4 0.35323091D-02 0.40684791D+00 0.44748331D+05 0.44748331D+05 0.44748331D+05 0.11970843D+01  1  2  5  3  6  5       21 -.380291424622D+01 0.100000000000D+01
0.175567127268D-01 0.000000000000D+00 -.000000000000D+00 0.283863363510D-04 0.000000000000D+00  6 -1 2 25 24 21 21 4 0.35323091D-02 0.40684791D+00 0.44748331D+05 0.44748331D+05 0.44748331D+05 0.11970843D+01  1  2  6  3  6  5       21 0.409156788428D+01 0.100000000000D+01
0.869131844727D-02 0.000000000000D+00 0.000000000000D+00 0.283863363510D-04 0.895662906808D-05  6 -1 2 25 24 21 21 4 0.35323091D-02 0.40684791D+00 0.45104766D+05 0.45104766D+05 0.45104766D+05 0.11967390D+01  1  2 11  3  6  5       21 0.202283599269D+01 0.100000000000D+01
0.249384691231D-05 0.000000000000D+00 0.000000000000D+00 0.283699604478D-04 0.000000000000D+00  6 -1 2 25 24 1 -1 4 0.35323091D-02 0.40684791D+00 0.45104766D+05 0.45104766D+05 0.45104766D+05 0.11967390D+01  1  2 12  6  6  5       21 0.580423249368D-03 0.100000000000D+01
-.737653327267D-04 0.000000000000D+00 0.000000000000D+00 0.283863363510D-04 0.000000000000D+00  6 -1 2 25 24 1 -1 4 0.35323091D-02 0.40684791D+00 0.44748331D+05 0.44748331D+05 0.44748331D+05 0.11970843D+01  1  2  5  6  6  5       21 -.171909098847D-01 0.100000000000D+01
0.328332629661D-04 0.000000000000D+00 0.000000000000D+00 0.283863363510D-04 0.543351561107D-07  6 -1 2 25 24 1 -1 4 0.35323091D-02 0.40684791D+00 0.45104766D+05 0.45104766D+05 0.45104766D+05 0.11967390D+01  1  2 11  6  6  5       21 0.764168365112D-02 0.100000000000D+01
0.249384691231D-05 0.000000000000D+00 0.000000000000D+00 0.283699604478D-04 0.000000000000D+00  6 -1 2 25 24 2 -2 4 0.35323091D-02 0.40684791D+00 0.45104766D+05 0.45104766D+05 0.45104766D+05 0.11967390D+01  1  2 12  7  6  5       21 0.580423249368D-03 0.100000000000D+01
-.737653327267D-04 0.000000000000D+00 0.000000000000D+00 0.283863363510D-04 0.000000000000D+00  6 -1 2 25 24 2 -2 4 0.35323091D-02 0.40684791D+00 0.44748331D+05 0.44748331D+05 0.44748331D+05 0.11970843D+01  1  2  5  7  6  5       21 -.171909098847D-01 0.100000000000D+01
0.353162530988D-04 0.000000000000D+00 0.000000000000D+00 0.283863363510D-04 0.621364039512D-07  6 -1 2 25 24 2 -2 4 0.35323091D-02 0.40684791D+00 0.45104766D+05 0.45104766D+05 0.45104766D+05 0.11967390D+01  1  2 11  7  6  5       21 0.821958007045D-02 0.100000000000D+01
0.249384691231D-05 0.000000000000D+00 0.000000000000D+00 0.283699604478D-04 0.000000000000D+00  6 -1 2 25 24 3 -3 4 0.35323091D-02 0.40684791D+00 0.45104766D+05 0.45104766D+05 0.45104766D+05 0.11967390D+01  1  2 12  8  6  5       21 0.580423249368D-03 0.100000000000D+01
0.249384691231D-05 0.000000000000D+00 0.000000000000D+00 0.283699604478D-04 0.000000000000D+00  6 -1 2 25 24 4 -4 4 0.35323091D-02 0.40684791D+00 0.45104766D+05 0.45104766D+05 0.45104766D+05 0.11967390D+01  1  2 12  8  6  5       21 0.580423249368D-03 0.100000000000D+01
-.737653327267D-04 0.000000000000D+00 0.000000000000D+00 0.283863363510D-04 0.000000000000D+00  6 -1 2 25 24 3 -3 4 0.35323091D-02 0.40684791D+00 0.44748331D+05 0.44748331D+05 0.44748331D+05 0.11970843D+01  1  2  5  8  6  5       21 -.171909098847D-01 0.100000000000D+01
-.737653327267D-04 0.000000000000D+00 0.000000000000D+00 0.283863363510D-04 0.000000000000D+00  6 -1 2 25 24 4 -4 4 0.35323091D-02 0.40684791D+00 0.44748331D+05 0.44748331D+05 0.44748331D+05 0.11970843D+01  1  2  5  8  6  5       21 -.171909098847D-01 0.100000000000D+01
0.341134860225D-04 0.000000000000D+00 0.000000000000D+00 0.283863363510D-04 0.543538840078D-07  6 -1 2 25 24 3 -3 4 0.35323091D-02 0.40684791D+00 0.45104766D+05 0.45104766D+05 0.45104766D+05 0.11967390D+01  1  2 11  8  6  5       21 0.793964549579D-02 0.100000000000D+01
0.341134860225D-04 0.000000000000D+00 0.000000000000D+00 0.283863363510D-04 0.543538840078D-07  6 -1 2 25 24 4 -4 4 0.35323091D-02 0.40684791D+00 0.45104766D+05 0.45104766D+05 0.45104766D+05 0.11967390D+01  1  2 11  8  6  5       21 0.793964549579D-02 0.100000000000D+01
  </mgrwgt>
  </event>
  <event>
  5     66 0.43535451E-03 0.22608750E+02 0.75467711E-02 0.10672538E+00
       -1 -1    0    0    0  501 0.00000000E+00 0.00000000E+00 0.64020985E+03 0.64020993E+03 0.32000000E+00 0.0000E+00 0.9000E+01
        2 -1    0    0  502    0 0.00000000E+00 0.00000000E+00 -.20035480E+03 0.20035505E+03 0.32000000E+00 0.0000E+00 0.9000E+01
       25  1    1    2    0    0 -.14217630E+03 -.28355207E+03 0.21487108E+03 0.40300181E+03 0.12500000E+03 0.0000E+00 0.9000E+01
       24  1    1    2    0    0 0.14433237E+03 0.26104796E+03 0.12205558E+03 0.33217864E+03 0.80419002E+02 0.0000E+00 0.9000E+01
       21  1    1    2  502  501 -.21560679E+01 0.22504109E+02 0.10292840E+03 0.10538454E+03 0.75000000E+00 0.0000E+00 0.9000E+01
#aMCatNLO 1  0  0  5  1 0.76570516D+01 0.00000000D+00  -5  6  0 0.00000000D+00 0.00000000D+00 0.00000000D+00 0.00000000D+00 0.00000000D+00
  <mgrwgt>
 0.1302144152D+01   25    2    0
 0.358146976514728D+03 0.000000000000000D+00 0.000000000000000D+00 0.358146976514728D+03
 0.358146976514728D+03 -.000000000000000D+00 -.000000000000000D+00 -.358146976514728D+03
 0.340973875289998D+03 -.142176223974431D+03 -.283552890663147D+03 0.467580615779569D+01
 0.314857893911296D+03 0.144332443725412D+03 0.261047196151158D+03 -.607518269170198D+02
 0.604621838281615D+02 -.215621975098189D+01 0.225056945119882D+02 0.560760207592241D+02
 0.000000000000000D+00 0.000000000000000D+00 0.000000000000000D+00 0.000000000000000D+00
 0.358146976514728D+03 0.000000000000000D+00 0.000000000000000D+00 0.358146976514728D+03
 0.358146976514728D+03 -.000000000000000D+00 -.000000000000000D+00 -.358146976514728D+03
 0.340599210565024D+03 -.142223918092516D+03 -.283055079968686D+03 0.591616969431725D+01
 0.315000330190261D+03 0.144288368433796D+03 0.261507235091162D+03 -.596055768807911D+02
 0.460699103275392D+02 0.293805189357828D+01 0.226784003710694D+02 0.399936825669708D+02
 0.146245019466307D+02 -.500250223485791D+01 -.113055549354628D+01 0.136957246195029D+02
0.109160096586D-01 0.000000000000D+00 0.000000000000D+00 0.280427544119D-04 0.000000000000D+00  6 -1 2 25 24 21 21 2 0.98493849D-01 0.30823841D-01 0.11306132D+06 0.11306132D+06 0.11306132D+06 0.11587057D+01  1  2  2  3  6  5       21 0.296141963871D+00 0.100000000000D+01
0.417310744584D-02 0.576053655866D-03 -.419203513404D-04 0.280427544119D-04 0.000000000000D+00  6 -1 2 25 24 21 21 4 0.98493849D-01 0.30823841D-01 0.11306132D+06 0.11306132D+06 0.11306132D+06 0.11587057D+01  1  2  3  3  6  5       21 0.151999395876D+00 0.100000000000D+01
-.401695457887D-05 0.000000000000D+00 0.000000000000D+00 0.280427544119D-04 0.000000000000D+00  6 -1 2 25 24 21 21 4 0.98493849D-01 0.30823841D-01 0.11306132D+06 0.11306132D+06 0.11306132D+06 0.11587057D+01  1  2 15  3  6  5       21 -.146311753813D-03 0.100000000000D+01
0.695469014075D-02 0.000000000000D+00 0.000000000000D+00 0.280125087911D-04 0.000000000000D+00  6 -1 2 25 24 21 21 4 0.98493849D-01 0.30823841D-01 0.11487149D+06 0.11487149D+06 0.11487149D+06 0.11580806D+01  1  2 12  3  6  5       21 0.252711894158D+00 0.100000000000D+01
0.878351890415D-02 0.000000000000D+00 0.000000000000D+00 0.280125087911D-04 0.000000000000D+00  6 -1 2 25 24 21 21 4 0.98493849D-01 0.30823841D-01 0.11487149D+06 0.11487149D+06 0.11487149D+06 0.11580806D+01  1  2 12  3  6  5       21 0.319165865728D+00 0.100000000000D+01
-.211640887095D-01 0.000000000000D+00 0.000000000000D+00 0.280427544119D-04 0.000000000000D+00  6 -1 2 25 24 21 21 4 0.98493849D-01 0.30823841D-01 0.11306132D+06 0.11306132D+06 0.11306132D+06 0.11587057D+01  1  2  4  3  6  5       21 -.770871284736D+00 0.100000000000D+01
-.502402866405D-01 0.000000000000D+00 0.000000000000D+00 0.280427544119D-04 0.000000000000D+00  6 -1 2 25 24 21 21 4 0.98493849D-01 0.30823841D-01 0.11306132D+06 0.11306132D+06 0.11306132D+06 0.11587057D+01  1  2  5  3  6  5       21 -.182992969079D+01 0.100000000000D+01
0.785707340229D-01 0.000000000000D+00 -.000000000000D+00 0.280427544119D-04 0.000000000000D+00  6 -1 2 25 24 21 21 4 0.98493849D-01 0.30823841D-01 0.11306132D+06 0.11306132D+06 0.11306132D+06 0.11587057D+01  1  2  6  3  6  5       21 0.286182521300D+01 0.100000000000D+01
0.414177379394D-03 0.000000000000D+00 0.000000000000D+00 0.280427544119D-04 0.246407863655D-05  6 -1 2 25 24 21 21 4 0.98493849D-01 0.30823841D-01 0.11487149D+06 0.11487149D+06 0.11487149D+06 0.11580806D+01  1  2 11  3  6  5       21 0.150499228500D-01 0.100000000000D+01
0.356125951259D-03 0.000000000000D+00 0.000000000000D+00 0.280125087911D-04 0.000000000000D+00  6 -1 2 25 24 1 -1 4 0.98493849D-01 0.30823841D-01 0.11487149D+06 0.11487149D+06 0.11487149D+06 0.11580806D+01  1  2 12  6  6  5       21 0.129405137943D-01 0.100000000000D+01
0.419017130717D-03 0.000000000000D+00 0.000000000000D+00 0.280125087911D-04 0.000000000000D+00  6 -1 2 25 24 1 -1 4 0.98493849D-01 0.30823841D-01 0.11487149D+06 0.11487149D+06 0.11487149D+06 0.11580806D+01  1  2 12  6  6  5       21 0.152257844196D-01 0.100000000000D+01
-.739612357661D-03 0.000000000000D+00 0.000000000000D+00 0.280427544119D-04 0.000000000000D+00  6 -1 2 25 24 1 -1 4 0.98493849D-01 0.30823841D-01 0.11306132D+06 0.11306132D+06 0.11306132D+06 0.11587057D+01  1  2  5  6  6  5       21 -.269393091374D-01 0.100000000000D+01
0.758812938725D-05 0.000000000000D+00 0.000000000000D+00 0.280427544119D-04 0.810356867244D-07  6 -1 2 25 24 1 -1 4 0.98493849D-01 0.30823841D-01 0.11487149D+06 0.11487149D+06 0.11487149D+06 0.11580806D+01  1  2 11  6  6  5       21 0.275729113988D-03 0.100000000000D+01
0.356125951259D-03 0.000000000000D+00 0.000000000000D+00 0.280125087911D-04 0.000000000000D+00  6 -1 2 25 24 2 -2 4 0.98493849D-01 0.30823841D-01 0.11487149D+06 0.11487149D+06 0.11487149D+06 0.11580806D+01  1  2 12  7  6  5       21 0.129405137943D-01 0.100000000000D+01
0.419017130717D-03 0.000000000000D+00 0.000000000000D+00 0.280125087911D-04 0.000000000000D+00  6 -1 2 25 24 2 -2 4 0.98493849D-01 0.30823841D-01 0.11487149D+06 0.11487149D+06 0.11487149D+06 0.11580806D+01  1  2 12  7  6  5       21 0.152257844196D-01 0.100000000000D+01
-.739612357661D-03 0.000000000000D+00 0.000000000000D+00 0.280427544119D-04 0.000000000000D+00  6 -1 2 25 24 2 -2 4 0.98493849D-01 0.30823841D-01 0.11306132D+06 0.11306132D+06 0.11306132D+06 0.11587057D+01  1  2  5  7  6  5       21 -.269393091374D-01 0.100000000000D+01
0.930133380754D-05 0.000000000000D+00 0.000000000000D+00 0.280427544119D-04 0.734105657159D-07  6 -1 2 25 24 2 -2 4 0.98493849D-01 0.30823841D-01 0.11487149D+06 0.11487149D+06 0.11487149D+06 0.11580806D+01  1  2 11  7  6  5       21 0.337981655132D-03 0.100000000000D+01
0.356125951259D-03 0.000000000000D+00 0.000000000000D+00 0.280125087911D-04 0.000000000000D+00  6 -1 2 25 24 3 -3 4 0.98493849D-01 0.30823841D-01 0.11487149D+06 0.11487149D+06 0.11487149D+06 0.11580806D+01  1  2 12  8  6  5       21 0.129405137943D-01 0.100000000000D+01
0.356125951259D-03 0.000000000000D+00 0.000000000000D+00 0.280125087911D-04 0.000000000000D+00  6 -1 2 25 24 4 -4 4 0.98493849D-01 0.30823841D-01 0.11487149D+06 0.11487149D+06 0.11487149D+06 0.11580806D+01  1  2 12  8  6  5       21 0.129405137943D-01 0.100000000000D+01
0.419017130717D-03 0.000000000000D+00 0.000000000000D+00 0.280125087911D-04 0.000000000000D+00  6 -1 2 25 24 3 -3 4 0.98493849D-01 0.30823841D-01 0.11487149D+06 0.11487149D+06 0.11487149D+06 0.11580806D+01  1  2 12  8  6  5       21 0.152257844196D-01 0.100000000000D+01
0.419017130717D-03 0.000000000000D+00 0.000000000000D+00 0.280125087911D-04 0.000000000000D+00  6 -1 2 25 24 4 -4 4 0.98493849D-01 0.30823841D-01 0.11487149D+06 0.11487149D+06 0.11487149D+06 0.11580806D+01  1  2 12  8  6  5       21 0.152257844196D-01 0.100000000000D+01
-.739612357661D-03 0.000000000000D+00 0.000000000000D+00 0.280427544119D-04 0.000000000000D+00  6 -1 2 25 24 3 -3 4 0.98493849D-01 0.30823841D-01 0.11306132D+06 0.11306132D+06 0.11306132D+06 0.11587057D+01  1  2  5  8  6  5       21 -.269393091374D-01 0.100000000000D+01
-.739612357661D-03 0.000000000000D+00 0.000000000000D+00 0.280427544119D-04 0.000000000000D+00  6 -1 2 25 24 4 -4 4 0.98493849D-01 0.30823841D-01 0.11306132D+06 0.11306132D+06 0.11306132D+06 0.11587057D+01  1  2  5  8  6  5       21 -.269393091374D-01 0.100000000000D+01
0.929519453469D-05 0.000000000000D+00 0.000000000000D+00 0.280427544119D-04 0.733330387287D-07  6 -1 2 25 24 3 -3 4 0.98493849D-01 0.30823841D-01 0.11487149D+06 0.11487149D+06 0.11487149D+06 0.11580806D+01  1  2 11  8  6  5       21 0.337758572976D-03 0.100000000000D+01
0.929519453469D-05 0.000000000000D+00 0.000000000000D+00 0.280427544119D-04 0.733330387287D-07  6 -1 2 25 24 4 -4 4 0.98493849D-01 0.30823841D-01 0.11487149D+06 0.11487149D+06 0.11487149D+06 0.11580806D+01  1  2 11  8  6  5       21 0.337758572976D-03 0.100000000000D+01
  </mgrwgt>
  </event>
  <event>
  5     66 0.43535451E-03 0.23738919E+02 0.75467711E-02 0.10941000E+00
       -1 -1    0    0    0  501 0.00000000E+00 0.00000000E+00 0.11437212E+04 0.11437213E+04 0.32000000E+00 0.0000E+00 0.9000E+01
        2 -1    0    0  502    0 0.00000000E+00 0.00000000E+00 -.92887211E+02 0.92887762E+02 0.32000000E+00 0.0000E+00 0.9000E+01
       25  1    1    2    0    0 -.11902012E+03 -.22046748E+03 0.80250672E+03 0.84994926E+03 0.12500000E+03 0.0000E+00 0.9000E+01
       24  1    1    2    0    0 0.13878237E+03 0.20731951E+03 0.25080319E+03 0.36278283E+03 0.80419002E+02 0.0000E+00 0.9000E+01
       21  1    1    2  502  501 -.19762249E+02 0.13147970E+02 -.24759043E+01 0.23876939E+02 0.75000000E+00 0.0000E+00 0.9000E+01
#aMCatNLO 1  0  0  5  1 0.79173138D+01 0.00000000D+00  -5  6  0 0.00000000D+00 0.00000000D+00 0.00000000D+00 0.00000000D+00 0.00000000D+00
  <mgrwgt>
 0.2521304592D+00    9    2    0
 0.325940856386201D+03 0.000000000000000D+00 0.000000000000000D+00 0.325940856386201D+03
 0.325940856386201D+03 -.000000000000000D+00 -.000000000000000D+00 -.325940856386201D+03
 0.318699521265737D+03 -.119019005846691D+03 -.220468221563746D+03 0.152225570725797D+03
 0.283897296802458D+03 0.138783370649774D+03 0.207318843615241D+03 -.109034546316750D+03
 0.492848947042072D+02 -.197643648030831D+02 0.131493779485050D+02 -.431910244090460D+02
 0.000000000000000D+00 0.000000000000000D+00 0.000000000000000D+00 0.000000000000000D+00
 0.325940856386201D+03 0.000000000000000D+00 0.000000000000000D+00 0.325940856386201D+03
 0.325940856386201D+03 -.000000000000000D+00 -.000000000000000D+00 -.325940856386201D+03
 0.316900915104312D+03 -.120627703971342D+03 -.219397942814247D+03 0.148710086132143D+03
 0.285121779419653D+03 0.137343189258400D+03 0.208277006936868D+03 -.112181771651236D+03
 0.419252132886298D+02 -.110638003205662D+02 0.667754711705924D+01 -.398839089892553D+02
 0.793380495980737D+01 -.565168496649238D+01 0.444338876031952D+01 0.335559450834785D+01
0.307317119517D-01 0.000000000000D+00 0.000000000000D+00 0.216240973821D-04 0.000000000000D+00  6 -1 2 25 24 21 21 2 0.17595716D+00 0.14290386D-01 0.80048656D+05 0.80048656D+05 0.80048656D+05 0.11725556D+01  1  2  2  3  6  5       21 0.485927384276D+00 0.100000000000D+01
0.980849542034D-02 0.162175699495D-02 -.118017865740D-03 0.216240973821D-04 0.000000000000D+00  6 -1 2 25 24 21 21 4 0.17595716D+00 0.14290386D-01 0.80048656D+05 0.80048656D+05 0.80048656D+05 0.11725556D+01  1  2  3  3  6  5       21 0.213232742603D+00 0.100000000000D+01
0.689098896675D-03 0.000000000000D+00 0.000000000000D+00 0.216240973821D-04 0.000000000000D+00  6 -1 2 25 24 21 21 4 0.17595716D+00 0.14290386D-01 0.80048656D+05 0.80048656D+05 0.80048656D+05 0.11725556D+01  1  2 15  3  6  5       21 0.149807326574D-01 0.100000000000D+01
0.470597428840D-02 0.000000000000D+00 0.000000000000D+00 0.216443057650D-04 0.000000000000D+00  6 -1 2 25 24 21 21 4 0.17595716D+00 0.14290386D-01 0.78983263D+05 0.78983263D+05 0.78983263D+05 0.11731034D+01  1  2 12  3  6  5       21 0.102522271274D+00 0.100000000000D+01
-.274739452267D-01 0.000000000000D+00 0.000000000000D+00 0.216240973821D-04 0.000000000000D+00  6 -1 2 25 24 21 21 4 0.17595716D+00 0.14290386D-01 0.80048656D+05 0.80048656D+05 0.80048656D+05 0.11725556D+01  1  2  4  3  6  5       21 -.597272511201D+00 0.100000000000D+01
0.375705789116D-03 0.000000000000D+00 0.000000000000D+00 0.216443057650D-04 0.000000000000D+00  6 -1 2 25 24 1 -1 4 0.17595716D+00 0.14290386D-01 0.78983263D+05 0.78983263D+05 0.78983263D+05 0.11731034D+01  1  2 12  6  6  5       21 0.818495989784D-02 0.100000000000D+01
0.375705789116D-03 0.000000000000D+00 0.000000000000D+00 0.216443057650D-04 0.000000000000D+00  6 -1 2 25 24 2 -2 4 0.17595716D+00 0.14290386D-01 0.78983263D+05 0.78983263D+05 0.78983263D+05 0.11731034D+01  1  2 12  7  6  5       21 0.818495989784D-02 0.100000000000D+01
0.375705789116D-03 0.000000000000D+00 0.000000000000D+00 0.216443057650D-04 0.000000000000D+00  6 -1 2 25 24 3 -3 4 0.17595716D+00 0.14290386D-01 0.78983263D+05 0.78983263D+05 0.78983263D+05 0.11731034D+01  1  2 12  8  6  5       21 0.818495989784D-02 0.100000000000D+01
0.375705789116D-03 0.000000000000D+00 0.000000000000D+00 0.216443057650D-04 0.000000000000D+00  6 -1 2 25 24 4 -4 4 0.17595716D+00 0.14290386D-01 0.78983263D+05 0.78983263D+05 0.78983263D+05 0.11731034D+01  1  2 12  8  6  5       21 0.818495989784D-02 0.100000000000D+01
  </mgrwgt>
  </event>
  <event>
  5     66 0.43535451E-03 0.64955811E+02 0.75467711E-02 0.11087681E+00
       -1 -1    0    0    0  501 0.00000000E+00 0.00000000E+00 0.47295482E+02 0.47296564E+02 0.32000000E+00 0.0000E+00 0.9000E+01
        2 -1    0    0  502    0 0.00000000E+00 0.00000000E+00 -.12624732E+04 0.12624733E+04 0.32000000E+00 0.0000E+00 0.9000E+01
       25  1    1    2    0    0 0.14330344E+03 0.15128060E+03 -.52619391E+03 0.57959186E+03 0.12500000E+03 0.0000E+00 0.9000E+01
       24  1    1    2    0    0 -.80513030E+02 -.13466248E+03 -.48143892E+03 0.51270555E+03 0.80419002E+02 0.0000E+00 0.9000E+01
       21  1    1    2  502  501 -.62790412E+02 -.16618122E+02 -.20754490E+03 0.21747240E+03 0.75000000E+00 0.0000E+00 0.9000E+01
#aMCatNLO 1  0  0  2  5 0.29425751D+02 0.00000000D+00  -5  6  0 0.00000000D+00 0.00000000D+00 0.00000000D+00 0.00000000D+00 0.00000000D+00
  <mgrwgt>
 0.4205951431D+00    7    4    0
 0.244356326791420D+03 0.000000000000000D+00 0.000000000000000D+00 0.244356326791420D+03
 0.244356326791420D+03 0.000000000000000D+00 0.000000000000000D+00 -.244356326791420D+03
 0.244956957084978D+03 0.143305427386110D+03 0.151281129013131D+03 0.309270967038404D+02
 0.176979101180115D+03 -.805115958301316D+02 -.134662102341612D+03 -.154398001921573D+02
 0.667765953177458D+02 -.627938315559779D+02 -.166190266715195D+02 -.154872965116830D+02
 0.000000000000000D+00 0.000000000000000D+00 -.000000000000000D+00 -.000000000000000D+00
 0.257514876237193D+03 0.000000000000000D+00 0.000000000000000D+00 0.257514876237193D+03
 0.261822178012985D+03 0.000000000000000D+00 0.000000000000000D+00 -.261822178012985D+03
 0.242407004090754D+03 0.130565265546927D+03 0.158531958148465D+03 0.309270967038404D+02
 0.177502188626692D+03 -.897780770656460D+02 -.129388254727067D+03 -.154398001921573D+02
 0.696885325737594D+02 -.663611610124857D+02 -.145887466260157D+02 -.154872965116830D+02
 0.297393289589729D+02 0.255739725312047D+02 -.145549567953827D+02 -.430730177579177D+01
 0.244356326791420D+03 0.000000000000000D+00 0.000000000000000D+00 0.244356326791420D+03
 0.244356326791420D+03 0.000000000000000D+00 0.000000000000000D+00 -.244356326791420D+03
 0.244956957084978D+03 0.143305427386110D+03 0.151281129013131D+03 0.309270967038404D+02
 0.176979101180115D+03 -.805115958301316D+02 -.134662102341612D+03 -.154398001921573D+02
 0.000000000000000D+00 0.000000000000000D+00 -.000000000000000D+00 -.000000000000000D+00
 0.667765953177458D+02 -.627938315559779D+02 -.166190266715195D+02 -.154872965116830D+02
 0.257514876237193D+03 0.000000000000000D+00 0.000000000000000D+00 0.257514876237193D+03
 0.261822178012985D+03 0.000000000000000D+00 0.000000000000000D+00 -.261822178012985D+03
 0.242407004090754D+03 0.130565265546927D+03 0.158531958148465D+03 0.309270967038404D+02
 0.177502188626692D+03 -.897780770656460D+02 -.129388254727067D+03 -.154398001921573D+02
 0.297393289589729D+02 0.255739725312047D+02 -.145549567953827D+02 -.430730177579177D+01
 0.696885325737594D+02 -.663611610124857D+02 -.145887466260157D+02 -.154872965116830D+02
0.418118142514D-03 0.000000000000D+00 0.000000000000D+00 0.381940931496D-05 0.000000000000D+00  6 -1 2 25 24 21 21 2 0.72763144D-02 0.19422673D+00 0.58626185D+05 0.58626185D+05 0.58626185D+05 0.11854963D+01  1  2  2  2  6  2        2 0.122612755204D+00 0.100000000000D+01
0.309002939319D-04 0.220647005739D-04 -.160568376029D-05 0.381940931496D-05 0.000000000000D+00  6 -1 2 25 24 21 21 4 0.72763144D-02 0.19422673D+00 0.58626185D+05 0.58626185D+05 0.58626185D+05 0.11854963D+01  1  2  3  2  6  2        2 0.127350207739D-01 0.100000000000D+01
0.183504249495D-04 0.000000000000D+00 0.000000000000D+00 0.381940931496D-05 0.000000000000D+00  6 -1 2 25 24 21 21 4 0.72763144D-02 0.19422673D+00 0.58626185D+05 0.58626185D+05 0.58626185D+05 0.11854963D+01  1  2 15  2  6  2        2 0.756280970847D-02 0.100000000000D+01
-.290872404060D-03 0.000000000000D+00 0.000000000000D+00 0.381940931496D-05 0.000000000000D+00  6 -1 2 25 24 21 21 4 0.72763144D-02 0.19422673D+00 0.58626185D+05 0.58626185D+05 0.58626185D+05 0.11854963D+01  1  2  4  2  6  2        2 -.119878021757D+00 0.100000000000D+01
-.579432929688D-02 0.000000000000D+00 -.115686915466D-02 0.381940931496D-05 0.000000000000D+00  6 -1 2 25 24 21 21 4 0.72763144D-02 0.21505925D+00 0.58626185D+05 0.58626185D+05 0.58626185D+05 0.11854963D+01  1  2  5  2  6  2        2 -.201208269153D+01 0.100000000000D+01
0.588759242106D-02 0.000000000000D+00 0.115089027128D-02 0.381940931496D-05 0.000000000000D+00  6 -1 2 25 24 21 21 4 0.72763144D-02 0.19422673D+00 0.58626185D+05 0.58626185D+05 0.58626185D+05 0.11854963D+01  1  2  6  2  6  2        2 0.242646920951D+01 0.100000000000D+01
-.916925929999D-04 0.000000000000D+00 -.190957796270D-04 0.381940931496D-05 0.000000000000D+00  6 -1 21 25 24 -2 21 4 0.72763144D-02 0.21505925D+00 0.58626185D+05 0.58626185D+05 0.58626185D+05 0.11854963D+01  3  4  5  5  5  2        2 -.168239387708D-01 0.100000000000D+01
  </mgrwgt>
  </event>
  <event>
  5     66 0.43535451E-03 0.40441661E+02 0.75467711E-02 0.12199657E+00
       -1 -1    0    0    0  501 0.00000000E+00 0.00000000E+00 0.52394691E+02 0.52395668E+02 0.32000000E+00 0.0000E+00 0.9000E+01
        2 -1    0    0  502    0 -.00000000E+00 -.00000000E+00 -.10791113E+04 0.10791114E+04 0.32000000E+00 0.0000E+00 0.9000E+01
       25  1    1    2    0    0 -.16712418E+02 0.11955395E+02 -.12166902E+03 0.17564335E+03 0.12500000E+03 0.0000E+00 0.9000E+01
       24  1    1    2    0    0 0.51896777E+02 -.34774686E+02 -.79339954E+02 0.12909143E+03 0.80419002E+02 0.0000E+00 0.9000E+01
       21  1    1    2  502  501 -.35184359E+02 0.22819292E+02 -.82570766E+03 0.82677225E+03 0.75000000E+00 0.0000E+00 0.9000E+01
#aMCatNLO 1  0  0  5  1 0.65818915D+01 0.00000000D+00  -5  6  0 0.00000000D+00 0.00000000D+00 0.00000000D+00 0.00000000D+00 0.00000000D+00
  <mgrwgt>
 0.2725484914D+00   25    2    0
 0.237782008593550D+03 0.000000000000000D+00 0.000000000000000D+00 0.237782008593550D+03
 0.237782008593550D+03 -.000000000000000D+00 -.000000000000000D+00 -.237782008593550D+03
 0.155230850918447D+03 -.167123228850765D+02 0.119553329858107D+02 0.897183668701596D+02
 0.135856308042095D+03 0.518968598749864D+02 -.347747401442728D+02 0.899286042562227D+02
 0.184476858226557D+03 -.351845369899099D+02 0.228194071584622D+02 -.179646971126382D+03
 0.000000000000000D+00 0.000000000000000D+00 0.000000000000000D+00 0.000000000000000D+00
 0.237782008593550D+03 0.000000000000000D+00 0.000000000000000D+00 0.237782008593550D+03
 0.237782008593550D+03 -.000000000000000D+00 -.000000000000000D+00 -.237782008593550D+03
 0.155069403171060D+03 -.167701950632849D+02 0.119928667694175D+02 0.894228802042242D+02
 0.135657526159116D+03 0.518462215116855D+02 -.347418979491252D+02 0.896700523647366D+02
 0.157064318655105D+03 -.252253112565968D+02 0.150512631121632D+02 -.154293043736031D+03
 0.277727692018175D+02 -.985071519180375D+01 0.769776806754458D+01 -.247998888329299D+02
0.315361772846D-04 0.000000000000D+00 0.000000000000D+00 0.310936125892D-04 0.000000000000D+00  6 -1 2 25 24 21 21 2 0.80608004D-02 0.16601721D+00 0.18285311D+05 0.18285311D+05 0.18285311D+05 0.12381348D+01  1  2  2  3  6  5       21 0.109289086408D-01 0.100000000000D+01
0.273080835053D-05 0.166420979689D-05 -.121107224439D-06 0.310936125892D-04 0.000000000000D+00  6 -1 2 25 24 21 21 4 0.80608004D-02 0.16601721D+00 0.18285311D+05 0.18285311D+05 0.18285311D+05 0.12381348D+01  1  2  3  3  6  5       21 0.145075750883D-02 0.100000000000D+01
0.141040131289D-05 0.000000000000D+00 0.000000000000D+00 0.310936125892D-04 0.000000000000D+00  6 -1 2 25 24 21 21 4 0.80608004D-02 0.16601721D+00 0.18285311D+05 0.18285311D+05 0.18285311D+05 0.12381348D+01  1  2 15  3  6  5       21 0.749283740372D-03 0.100000000000D+01
0.733215156017D-03 0.000000000000D+00 0.000000000000D+00 0.310951618563D-04 0.000000000000D+00  6 -1 2 25 24 21 21 4 0.80608004D-02 0.16601721D+00 0.18273645D+05 0.18273645D+05 0.18273645D+05 0.12381656D+01  1  2 12  3  6  5       21 0.389561928268D+00 0.100000000000D+01
0.441526406444D-03 0.000000000000D+00 0.000000000000D+00 0.310951618563D-04 0.000000000000D+00  6 -1 2 25 24 21 21 4 0.80608004D-02 0.16601721D+00 0.18273645D+05 0.18273645D+05 0.18273645D+05 0.12381656D+01  1  2 12  3  6  5       21 0.234585819543D+00 0.100000000000D+01
-.991776454273D-03 0.000000000000D+00 0.000000000000D+00 0.310936125892D-04 0.000000000000D+00  6 -1 2 25 24 21 21 4 0.80608004D-02 0.16601721D+00 0.18285311D+05 0.18285311D+05 0.18285311D+05 0.12381348D+01  1  2  4  3  6  5       21 -.526886897000D+00 0.100000000000D+01
-.159558367292D-02 0.000000000000D+00 0.000000000000D+00 0.310936125892D-04 0.000000000000D+00  6 -1 2 25 24 21 21 4 0.80608004D-02 0.16601721D+00 0.18285311D+05 0.18285311D+05 0.18285311D+05 0.12381348D+01  1  2  5  3  6  5       21 -.847662925155D+00 0.100000000000D+01
0.181579827907D-02 0.000000000000D+00 -.000000000000D+00 0.310936125892D-04 0.000000000000D+00  6 -1 2 25 24 21 21 4 0.80608004D-02 0.16601721D+00 0.18285311D+05 0.18285311D+05 0.18285311D+05 0.12381348D+01  1  2  6  3  6  5       21 0.964653190460D+00 0.100000000000D+01
0.911464419265D-04 0.000000000000D+00 0.000000000000D+00 0.310936125892D-04 0.394449575874D-05  6 -1 2 25 24 21 21 4 0.80608004D-02 0.16601721D+00 0.18273645D+05 0.18273645D+05 0.18273645D+05 0.12381656D+01  1  2 11  3  6  5       21 0.484266908291D-01 0.100000000000D+01
0.696163962268D-05 0.000000000000D+00 0.000000000000D+00 0.310951618563D-04 0.000000000000D+00  6 -1 2 25 24 1 -1 4 0.80608004D-02 0.16601721D+00 0.18273645D+05 0.18273645D+05 0.18273645D+05 0.12381656D+01  1  2 12  6  6  5       21 0.369876390724D-02 0.100000000000D+01
0.501789353511D-05 0.000000000000D+00 0.000000000000D+00 0.310951618563D-04 0.000000000000D+00  6 -1 2 25 24 1 -1 4 0.80608004D-02 0.16601721D+00 0.18273645D+05 0.18273645D+05 0.18273645D+05 0.12381656D+01  1  2 12  6  6  5       21 0.266603910918D-02 0.100000000000D+01
-.145420010486D-04 0.000000000000D+00 0.000000000000D+00 0.310936125892D-04 0.000000000000D+00  6 -1 2 25 24 1 -1 4 0.80608004D-02 0.16601721D+00 0.18285311D+05 0.18285311D+05 0.18285311D+05 0.12381348D+01  1  2  5  6  6  5       21 -.772552098372D-02 0.100000000000D+01
0.102286011326D-05 0.000000000000D+00 0.000000000000D+00 0.310936125892D-04 0.688169731015D-07  6 -1 2 25 24 1 -1 4 0.80608004D-02 0.16601721D+00 0.18273645D+05 0.18273645D+05 0.18273645D+05 0.12381656D+01  1  2 11  6  6  5       21 0.543452156982D-03 0.100000000000D+01
0.696163962268D-05 0.000000000000D+00 0.000000000000D+00 0.310951618563D-04 0.000000000000D+00  6 -1 2 25 24 2 -2 4 0.80608004D-02 0.16601721D+00 0.18273645D+05 0.18273645D+05 0.18273645D+05 0.12381656D+01  1  2 12  7  6  5       21 0.369876390724D-02 0.100000000000D+01
0.501789353511D-05 0.000000000000D+00 0.000000000000D+00 0.310951618563D-04 0.000000000000D+00  6 -1 2 25 24 2 -2 4 0.80608004D-02 0.16601721D+00 0.18273645D+05 0.18273645D+05 0.18273645D+05 0.12381656D+01  1  2 12  7  6  5       21 0.266603910918D-02 0.100000000000D+01
-.145420010486D-04 0.000000000000D+00 0.000000000000D+00 0.310936125892D-04 0.000000000000D+00  6 -1 2 25 24 2 -2 4 0.80608004D-02 0.16601721D+00 0.18285311D+05 0.18285311D+05 0.18285311D+05 0.12381348D+01  1  2  5  7  6  5       21 -.772552098372D-02 0.100000000000D+01
0.102044898757D-05 0.000000000000D+00 0.000000000000D+00 0.310936125892D-04 0.776307173004D-07  6 -1 2 25 24 2 -2 4 0.80608004D-02 0.16601721D+00 0.18273645D+05 0.18273645D+05 0.18273645D+05 0.12381656D+01  1  2 11  7  6  5       21 0.542171110395D-03 0.100000000000D+01
0.696163962268D-05 0.000000000000D+00 0.000000000000D+00 0.310951618563D-04 0.000000000000D+00  6 -1 2 25 24 3 -3 4 0.80608004D-02 0.16601721D+00 0.18273645D+05 0.18273645D+05 0.18273645D+05 0.12381656D+01  1  2 12  8  6  5       21 0.369876390724D-02 0.100000000000D+01
0.696163962268D-05 0.000000000000D+00 0.000000000000D+00 0.310951618563D-04 0.000000000000D+00  6 -1 2 25 24 4 -4 4 0.80608004D-02 0.16601721D+00 0.18273645D+05 0.18273645D+05 0.18273645D+05 0.12381656D+01  1  2 12  8  6  5       21 0.369876390724D-02 0.100000000000D+01
0.501789353511D-05 0.000000000000D+00 0.000000000000D+00 0.310951618563D-04 0.000000000000D+00  6 -1 2 25 24 3 -3 4 0.80608004D-02 0.16601721D+00 0.18273645D+05 0.18273645D+05 0.18273645D+05 0.12381656D+01  1  2 12  8  6  5       21 0.266603910918D-02 0.100000000000D+01
0.501789353511D-05 0.000000000000D+00 0.000000000000D+00 0.310951618563D-04 0.000000000000D+00  6 -1 2 25 24 4 -4 4 0.80608004D-02 0.16601721D+00 0.18273645D+05 0.18273645D+05 0.18273645D+05 0.12381656D+01  1  2 12  8  6  5       21 0.266603910918D-02 0.100000000000D+01
-.145420010486D-04 0.000000000000D+00 0.000000000000D+00 0.310936125892D-04 0.000000000000D+00  6 -1 2 25 24 3 -3 4 0.80608004D-02 0.16601721D+00 0.18285311D+05 0.18285311D+05 0.18285311D+05 0.12381348D+01  1  2  5  8  6  5       21 -.772552098372D-02 0.100000000000D+01
-.145420010486D-04 0.000000000000D+00 0.000000000000D+00 0.310936125892D-04 0.000000000000D+00  6 -1 2 25 24 4 -4 4 0.80608004D-02 0.16601721D+00 0.18285311D+05 0.18285311D+05 0.18285311D+05 0.12381348D+01  1  2  5  8  6  5       21 -.772552098372D-02 0.100000000000D+01
0.103422719953D-05 0.000000000000D+00 0.000000000000D+00 0.310936125892D-04 0.694702906617D-07  6 -1 2 25 24 3 -3 4 0.80608004D-02 0.16601721D+00 0.18273645D+05 0.18273645D+05 0.18273645D+05 0.12381656D+01  1  2 11  8  6  5       21 0.549491563027D-03 0.100000000000D+01
0.103422719953D-05 0.000000000000D+00 0.000000000000D+00 0.310936125892D-04 0.694702906617D-07  6 -1 2 25 24 4 -4 4 0.80608004D-02 0.16601721D+00 0.18273645D+05 0.18273645D+05 0.18273645D+05 0.12381656D+01  1  2 11  8  6  5       21 0.549491563027D-03 0.100000000000D+01
  </mgrwgt>
  </event>
  <event>
  5     66 0.43535451E-03 0.87172027E+02 0.75467711E-02 0.11813433E+00
       -1 -1    0    0    0  501 0.00000000E+00 0.00000000E+00 0.10785216E+02 0.10789962E+02 0.32000000E+00 0.0000E+00 0.9000E+01
        2 -1    0    0  502    0 -.00000000E+00 -.00000000E+00 -.34441921E+04 0.34441921E+04 0.32000000E+00 0.0000E+00 0.9000E+01
       25  1    1    2    0    0 0.31357564E+02 -.16707433E+02 -.65345448E+03 0.66625085E+03 0.12500000E+03 0.0000E+00 0.9000E+01
       24  1    1    2    0    0 0.60341679E+02 -.25318700E+02 -.87702458E+03 0.88313164E+03 0.80419002E+02 0.0000E+00 0.9000E+01
       21  1    1    2  502  501 -.91699243E+02 0.42026133E+02 -.19029278E+04 0.19055996E+04 0.75000000E+00 0.0000E+00 0.9000E+01
#aMCatNLO 1  0  0  5  1 0.10310884D+02 0.00000000D+00  -5  6  0 0.00000000D+00 0.00000000D+00 0.00000000D+00 0.00000000D+00 0.00000000D+00
  <mgrwgt>
 0.2611690337D+00   20    2    0
 0.192755233640196D+03 0.000000000000000D+00 0.000000000000000D+00 0.192755233640196D+03
 0.192755233640196D+03 -.000000000000000D+00 -.000000000000000D+00 -.192755233640196D+03
 0.151253463541488D+03 0.313581590929669D+02 -.167077055993047D+02 0.773959215023861D+02
 0.103815225420781D+03 0.603420868042199D+02 -.253188866651903D+02 0.530769375005395D+01
 0.130441778318123D+03 -.917002458971868D+02 0.420265922644950D+02 -.827036152524400D+02
 0.000000000000000D+00 0.000000000000000D+00 0.000000000000000D+00 -.000000000000000D+00
 0.192755233640196D+03 0.000000000000000D+00 0.000000000000000D+00 0.192755233640196D+03
 0.192755233640196D+03 -.000000000000000D+00 -.000000000000000D+00 -.192755233640196D+03
 0.150510574665927D+03 0.303180457997528D+02 -.162310174851660D+02 0.764578528115194D+02
 0.103291242440008D+03 0.596282370306940D+02 -.249917264370300D+02 0.466387915130228D+01
 0.113925368775945D+03 -.869478469278856D+02 0.351595872118187D+02 -.646750724192454D+02
 0.177832813985122D+02 -.299843590256116D+01 0.606315671037733D+01 -.164466595435763D+02
0.209978147934D-03 0.000000000000D+00 0.000000000000D+00 0.338800083457D-05 0.000000000000D+00  6 -1 2 25 24 21 21 2 0.16596302D-02 0.52987607D+00 0.27973122D+05 0.27973122D+05 0.27973122D+05 0.12180999D+01  1  2  2  3  6  5       21 0.361528034291D-01 0.100000000000D+01
-.158120573031D-04 0.110808512957D-04 -.806371376583D-06 0.338800083457D-05 0.000000000000D+00  6 -1 2 25 24 21 21 4 0.16596302D-02 0.52987607D+00 0.27973122D+05 0.27973122D+05 0.27973122D+05 0.12180999D+01  1  2  3  3  6  5       21 -.403944855058D-02 0.100000000000D+01
0.129825148980D-04 0.000000000000D+00 0.000000000000D+00 0.338800083457D-05 0.000000000000D+00  6 -1 2 25 24 21 21 4 0.16596302D-02 0.52987607D+00 0.27973122D+05 0.27973122D+05 0.27973122D+05 0.12180999D+01  1  2 15  3  6  5       21 0.331659568281D-02 0.100000000000D+01
0.103150135135D-02 0.000000000000D+00 0.000000000000D+00 0.338971867582D-05 0.000000000000D+00  6 -1 2 25 24 21 21 4 0.16596302D-02 0.52987607D+00 0.27785865D+05 0.27785865D+05 0.27785865D+05 0.12184087D+01  1  2 12  3  6  5       21 0.263824513890D+00 0.100000000000D+01
0.871058053505D-03 0.000000000000D+00 0.000000000000D+00 0.338971867582D-05 0.000000000000D+00  6 -1 2 25 24 21 21 4 0.16596302D-02 0.52987607D+00 0.27785865D+05 0.27785865D+05 0.27785865D+05 0.12184087D+01  1  2 12  3  6  5       21 0.222788333952D+00 0.100000000000D+01
-.127317018420D-02 0.000000000000D+00 0.000000000000D+00 0.338800083457D-05 0.000000000000D+00  6 -1 2 25 24 21 21 4 0.16596302D-02 0.52987607D+00 0.27973122D+05 0.27973122D+05 0.27973122D+05 0.12180999D+01  1  2  4  3  6  5       21 -.325252138710D+00 0.100000000000D+01
-.193273882998D-02 0.000000000000D+00 0.000000000000D+00 0.338800083457D-05 0.000000000000D+00  6 -1 2 25 24 21 21 4 0.16596302D-02 0.52987607D+00 0.27973122D+05 0.27973122D+05 0.27973122D+05 0.12180999D+01  1  2  5  3  6  5       21 -.493749732611D+00 0.100000000000D+01
0.217505345536D-02 0.000000000000D+00 -.000000000000D+00 0.338800083457D-05 0.000000000000D+00  6 -1 2 25 24 21 21 4 0.16596302D-02 0.52987607D+00 0.27973122D+05 0.27973122D+05 0.27973122D+05 0.12180999D+01  1  2  6  3  6  5       21 0.555652965285D+00 0.100000000000D+01
0.976143519666D-05 0.000000000000D+00 0.000000000000D+00 0.338971867582D-05 0.000000000000D+00  6 -1 2 25 24 1 -1 4 0.16596302D-02 0.52987607D+00 0.27785865D+05 0.27785865D+05 0.27785865D+05 0.12184087D+01  1  2 12  6  6  5       21 0.249665780104D-02 0.100000000000D+01
0.906043533829D-05 0.000000000000D+00 0.000000000000D+00 0.338971867582D-05 0.000000000000D+00  6 -1 2 25 24 1 -1 4 0.16596302D-02 0.52987607D+00 0.27785865D+05 0.27785865D+05 0.27785865D+05 0.12184087D+01  1  2 12  6  6  5       21 0.231736482520D-02 0.100000000000D+01
-.164218782586D-04 0.000000000000D+00 0.000000000000D+00 0.338800083457D-05 0.000000000000D+00  6 -1 2 25 24 1 -1 4 0.16596302D-02 0.52987607D+00 0.27973122D+05 0.27973122D+05 0.27973122D+05 0.12180999D+01  1  2  5  6  6  5       21 -.419523728368D-02 0.100000000000D+01
0.976143519666D-05 0.000000000000D+00 0.000000000000D+00 0.338971867582D-05 0.000000000000D+00  6 -1 2 25 24 2 -2 4 0.16596302D-02 0.52987607D+00 0.27785865D+05 0.27785865D+05 0.27785865D+05 0.12184087D+01  1  2 12  7  6  5       21 0.249665780104D-02 0.100000000000D+01
0.906043533829D-05 0.000000000000D+00 0.000000000000D+00 0.338971867582D-05 0.000000000000D+00  6 -1 2 25 24 2 -2 4 0.16596302D-02 0.52987607D+00 0.27785865D+05 0.27785865D+05 0.27785865D+05 0.12184087D+01  1  2 12  7  6  5       21 0.231736482520D-02 0.100000000000D+01
-.164218782586D-04 0.000000000000D+00 0.000000000000D+00 0.338800083457D-05 0.000000000000D+00  6 -1 2 25 24 2 -2 4 0.16596302D-02 0.52987607D+00 0.27973122D+05 0.27973122D+05 0.27973122D+05 0.12180999D+01  1  2  5  7  6  5       21 -.419523728368D-02 0.100000000000D+01
0.976143519666D-05 0.000000000000D+00 0.000000000000D+00 0.338971867582D-05 0.000000000000D+00  6 -1 2 25 24 3 -3 4 0.16596302D-02 0.52987607D+00 0.27785865D+05 0.27785865D+05 0.27785865D+05 0.12184087D+01  1  2 12  8  6  5       21 0.249665780104D-02 0.100000000000D+01
0.976143519666D-05 0.000000000000D+00 0.000000000000D+00 0.338971867582D-05 0.000000000000D+00  6 -1 2 25 24 4 -4 4 0.16596302D-02 0.52987607D+00 0.27785865D+05 0.27785865D+05 0.27785865D+05 0.12184087D+01  1  2 12  8  6  5       21 0.249665780104D-02 0.100000000000D+01
0.906043533829D-05 0.000000000000D+00 0.000000000000D+00 0.338971867582D-05 0.000000000000D+00  6 -1 2 25 24 3 -3 4 0.16596302D-02 0.52987607D+00 0.27785865D+05 0.27785865D+05 0.27785865D+05 0.12184087D+01  1  2 12  8  6  5       21 0.231736482520D-02 0.100000000000D+01
0.906043533829D-05 0.000000000000D+00 0.000000000000D+00 0.338971867582D-05 0.000000000000D+00  6 -1 2 25 24 4 -4 4 0.16596302D-02 0.52987607D+00 0.27785865D+05 0.27785865D+05 0.27785865D+05 0.12184087D+01  1  2 12  8  6  5       21 0.231736482520D-02 0.100000000000D+01
-.164218782586D-04 0.000000000000D+00 0.000000000000D+00 0.338800083457D-05 0.000000000000D+00  6 -1 2 25 24 3 -3 4 0.16596302D-02 0.52987607D+00 0.27973122D+05 0.27973122D+05 0.27973122D+05 0.12180999D+01  1  2  5  8  6  5       21 -.419523728368D-02 0.100000000000D+01
-.164218782586D-04 0.000000000000D+00 0.000000000000D+00 0.338800083457D-05 0.000000000000D+00  6 -1 2 25 24 4 -4 4 0.16596302D-02 0.52987607D+00 0.27973122D+05 0.27973122D+05 0.27973122D+05 0.12180999D+01  1  2  5  8  6  5       21 -.419523728368D-02 0.100000000000D+01
  </mgrwgt>
  </event>
  <event>
  5     66 0.43535451E-03 0.28484855E+02 0.75467711E-02 0.12211574E+00
       -1 -1    0    0    0  501 0.00000000E+00 0.00000000E+00 0.11950366E+02 0.11954649E+02 0.32000000E+00 0.0000E+00 0.9000E+01
        2 -1    0    0  502    0 0.00000000E+00 0.00000000E+00 -.14714362E+04 0.14714362E+04 0.32000000E+00 0.0000E+00 0.9000E+01
       25  1    1    2    0    0 0.35427738E+02 0.29277923E+02 -.81138284E+03 0.82224049E+03 0.12500000E+03 0.0000E+00 0.9000E+01
       24  1    1    2    0    0 -.25131324E+02 -.55828427E+02 -.53867953E+03 0.54807960E+03 0.80419002E+02 0.0000E+00 0.9000E+01
       21  1    1    2  502  501 -.10296414E+02 0.26550504E+02 -.10942342E+03 0.11307074E+03 0.75000000E+00 0.0000E+00 0.9000E+01
#aMCatNLO 1  0  0  2  5 0.58364359D+01 0.00000000D+00  -5  6  0 0.00000000D+00 0.00000000D+00 0.00000000D+00 0.00000000D+00 0.00000000D+00
  <mgrwgt>
 0.3117878339D+00    9    4    0
 0.132617506218560D+03 0.000000000000000D+00 0.000000000000000D+00 0.132617506218560D+03
 0.132617506218560D+03 0.000000000000000D+00 0.000000000000000D+00 -.132617506218560D+03
 0.133851901474315D+03 0.354293344355656D+02 0.292738057022157D+02 -.133842478104445D+02
 0.101123548629348D+03 -.251301176008866D+02 -.558315375829897D+02 0.317375700179253D+01
 0.302595623334572D+02 -.102992168346790D+02 0.265577318807740D+02 0.102104908086520D+02
 0.000000000000000D+00 -.000000000000000D+00 -.000000000000000D+00 -.000000000000000D+00
 0.134099868908435D+03 0.000000000000000D+00 0.000000000000000D+00 0.134099868908435D+03
 0.138521660691926D+03 0.000000000000000D+00 0.000000000000000D+00 -.138521660691926D+03
 0.134691967431387D+03 0.361156926788422D+02 0.321472353930162D+02 -.133842478104445D+02
 0.998246111374253D+02 -.246165239504741D+02 -.536813845709754D+02 0.317375700179253D+01
 0.307826408171816D+02 -.101432020297574D+02 0.272108857942841D+02 0.102104908086520D+02
 0.732231021436653D+01 -.135596669861068D+01 -.567673661632491D+01 -.442179178349132D+01
 0.132617506218560D+03 0.000000000000000D+00 0.000000000000000D+00 0.132617506218560D+03
 0.132617506218560D+03 0.000000000000000D+00 0.000000000000000D+00 -.132617506218560D+03
 0.133851901474315D+03 0.354293344355656D+02 0.292738057022157D+02 -.133842478104445D+02
 0.101123548629348D+03 -.251301176008866D+02 -.558315375829897D+02 0.317375700179253D+01
 0.000000000000000D+00 -.000000000000000D+00 -.000000000000000D+00 -.000000000000000D+00
 0.302595623334572D+02 -.102992168346790D+02 0.265577318807740D+02 0.102104908086520D+02
 0.134099868908435D+03 0.000000000000000D+00 0.000000000000000D+00 0.134099868908435D+03
 0.138521660691926D+03 0.000000000000000D+00 0.000000000000000D+00 -.138521660691926D+03
 0.134691967431387D+03 0.361156926788422D+02 0.321472353930162D+02 -.133842478104445D+02
 0.998246111374253D+02 -.246165239504741D+02 -.536813845709754D+02 0.317375700179253D+01
 0.732231021436653D+01 -.135596669861068D+01 -.567673661632491D+01 -.442179178349132D+01
 0.307826408171816D+02 -.101432020297574D+02 0.272108857942841D+02 0.102104908086520D+02
0.482899695428D-04 0.000000000000D+00 0.000000000000D+00 0.293072697622D-04 0.000000000000D+00  6 -1 2 25 24 21 21 2 0.18388500D-02 0.22637512D+00 0.17258030D+05 0.17258030D+05 0.17258030D+05 0.12409391D+01  1  2  2  2  6  2        2 0.899815785766D-01 0.100000000000D+01
0.609484014445D-05 0.254833170424D-05 -.185446198085D-06 0.293072697622D-04 0.000000000000D+00  6 -1 2 25 24 21 21 4 0.18388500D-02 0.22637512D+00 0.17258030D+05 0.17258030D+05 0.17258030D+05 0.12409391D+01  1  2  3  2  6  2        2 0.174887961545D-01 0.100000000000D+01
0.103847400883D-05 0.000000000000D+00 0.000000000000D+00 0.293072697622D-04 0.000000000000D+00  6 -1 2 25 24 21 21 4 0.18388500D-02 0.22637512D+00 0.17258030D+05 0.17258030D+05 0.17258030D+05 0.12409391D+01  1  2 15  2  6  2        2 0.297984193542D-02 0.100000000000D+01
-.160549148378D-03 0.000000000000D+00 0.000000000000D+00 0.293072697622D-04 0.000000000000D+00  6 -1 2 25 24 21 21 4 0.18388500D-02 0.22637512D+00 0.17258030D+05 0.17258030D+05 0.17258030D+05 0.12409391D+01  1  2  4  2  6  2        2 -.460686623803D+00 0.100000000000D+01
-.202374609171D-02 0.000000000000D+00 -.259896536038D-03 0.293072697622D-04 0.000000000000D+00  6 -1 2 25 24 21 21 4 0.18388500D-02 0.23769466D+00 0.17258030D+05 0.17258030D+05 0.17258030D+05 0.12409391D+01  1  2  5  2  6  2        2 -.531771393117D+01 0.100000000000D+01
0.203431428522D-02 0.000000000000D+00 0.259587461745D-03 0.293072697622D-04 0.000000000000D+00  6 -1 2 25 24 21 21 4 0.18388500D-02 0.22637512D+00 0.17258030D+05 0.17258030D+05 0.17258030D+05 0.12409391D+01  1  2  6  2  6  2        2 0.583734880741D+01 0.100000000000D+01
0.629702151927D-04 0.000000000000D+00 0.000000000000D+00 0.293072697622D-04 0.221128805226D-05  6 -1 2 25 24 21 21 4 0.18594041D-02 0.23645338D+00 0.18046675D+05 0.18046675D+05 0.18046675D+05 0.12387702D+01  1  2 11  2  6  2        2 0.163426208879D+00 0.100000000000D+01
-.170141769232D-04 0.000000000000D+00 -.221303361827D-05 0.293072697622D-04 0.000000000000D+00  6 -1 21 25 24 -2 21 4 0.18388500D-02 0.23769466D+00 0.17258030D+05 0.17258030D+05 0.17258030D+05 0.12409391D+01  3  4  5  5  5  2        2 -.221565880429D-01 0.100000000000D+01
0.866748170154D-06 0.000000000000D+00 0.000000000000D+00 0.293072697622D-04 0.572574636678D-07  6 -1 21 25 24 -2 21 4 0.18594041D-02 0.23645338D+00 0.18046675D+05 0.18046675D+05 0.18046675D+05 0.12387702D+01  3  4 11  5  5  2        2 0.111974397034D-02 0.100000000000D+01
  </mgrwgt>
  </event>
  <event>
  6     66 0.43535451E-03 0.18034145E+03 0.75467711E-02 0.11039336E+00
       -1 -1    0    0    0  501 0.00000000E+00 0.00000000E+00 0.24781079E+03 0.24781099E+03 0.32000000E+00 0.0000E+00 0.9000E+01
        2 -1    0    0  503    0 0.00000000E+00 0.00000000E+00 -.71196428E+03 0.71196435E+03 0.32000000E+00 0.0000E+00 0.9000E+01
       25  1    1    2    0    0 -.54090475E+02 0.13644879E+03 0.11518456E+02 0.19313655E+03 0.12500000E+03 0.0000E+00 0.9000E+01
       24  1    1    2    0    0 -.71624296E+02 -.13208512E+02 0.91630316E+02 0.14201350E+03 0.80419002E+02 0.0000E+00 0.9000E+01
       21  1    1    2  502  501 0.15796458E+03 -.11727597E+03 -.55623459E+03 0.59000335E+03 0.75000000E+00 0.0000E+00 0.9000E+01
       21  1    1    2  503  502 -.32249813E+02 -.59643054E+01 -.11067675E+02 0.34621948E+02 0.75000000E+00 0.0000E+00 0.9000E+01
#aMCatNLO 2  0  0  2  5 0.32796697D+02 0.00000000D+00  -5  6  0 0.00000000D+00 0.00000000D+00 0.00000000D+00 0.00000000D+00 0.00000000D+00
  <mgrwgt>
 0.9276898247D-01    2    2    0
 0.402972216222231D+03 0.000000000000000D+00 0.000000000000000D+00 0.402972216222231D+03
 0.402972216222231D+03 0.000000000000000D+00 0.000000000000000D+00 -.402972216222231D+03
 0.229334057041237D+03 -.632366829059433D+02 0.134757374939199D+03 0.121699143602338D+03
 0.217495723335817D+03 -.802610283018963D+02 -.148057097496876D+02 0.184867877171049D+03
 0.359114652067408D+03 0.143497711207840D+03 -.119951665189511D+03 -.306567020773387D+03
 0.000000000000000D+00 -.000000000000000D+00 -.000000000000000D+00 0.000000000000000D+00
 0.423424825162727D+03 0.000000000000000D+00 0.000000000000000D+00 0.423424825162727D+03
 0.416671434661282D+03 0.000000000000000D+00 0.000000000000000D+00 -.416671434661282D+03
 0.227990708443682D+03 -.540905577284562D+02 0.136448866421580D+03 0.121699143602338D+03
 0.214354523260968D+03 -.716243728845699D+02 -.132084399998022D+02 0.184867877171049D+03
 0.364266230867009D+03 0.157964743403885D+03 -.117276121037199D+03 -.306567020773387D+03
 0.334847972523498D+02 -.322498127908592D+02 -.596430538457817D+01 0.675339050144422D+01
-.121729039951D-03 0.000000000000D+00 0.000000000000D+00 0.220209359530D-05 0.000000000000D+00  6 -1 2 25 24 21 21 4 0.36282862D-01 0.10593073D+00 0.61500926D+05 0.61500926D+05 0.61500926D+05 0.11834786D+01  1  2  8  2  6  2        2 -.862879339887D-02 0.100000000000D+01
0.166009887355D-02 0.000000000000D+00 0.000000000000D+00 0.220209359530D-05 0.553654366924D-08  6 -1 2 25 24 21 21 4 0.38124376D-01 0.10953189D+00 0.70444311D+05 0.70444311D+05 0.70444311D+05 0.11778132D+01  1  2  1  2  6  2        2 0.101397775870D+00 0.100000000000D+01
  </mgrwgt>
  </event>
  <event>
  5     66 0.43535451E-03 0.48623266E+02 0.75467711E-02 0.11530883E+00
       -1 -1    0    0    0  501 0.00000000E+00 0.00000000E+00 0.13013080E+03 0.13013119E+03 0.32000000E+00 0.0000E+00 0.9000E+01
        2 -1    0    0  502    0 -.00000000E+00 -.00000000E+00 -.39212367E+03 0.39212380E+03 0.32000000E+00 0.0000E+00 0.9000E+01
       25  1    1    2    0    0 0.12779820E+03 -.96146501E+02 -.25360037E+03 0.32483023E+03 0.12500000E+03 0.0000E+00 0.9000E+01
       24  1    1    2    0    0 -.10349896E+03 0.54036300E+02 0.16623972E+02 0.14274288E+03 0.80419002E+02 0.0000E+00 0.9000E+01
       21  1    1    2  502  501 -.24299234E+02 0.42110201E+02 -.25016477E+02 0.54681884E+02 0.75000000E+00 0.0000E+00 0.9000E+01
#aMCatNLO 1  0  0  5  1 0.58595929D+01 0.00000000D+00  -5  6  0 0.00000000D+00 0.00000000D+00 0.00000000D+00 0.00000000D+00 0.00000000D+00
  <mgrwgt>
 0.2021768999D+00   25    2    0
 0.225892678947895D+03 0.000000000000000D+00 0.000000000000000D+00 0.225892678947895D+03
 0.225892678947895D+03 -.000000000000000D+00 -.000000000000000D+00 -.225892678947895D+03
 0.228435027966451D+03 0.127799654661839D+03 -.961490264006897D+02 -.104786330179788D+03
 0.174646965548398D+03 -.103497849905528D+03 0.540343695877189D+02 0.101994257627984D+03
 0.487033643809411D+02 -.243018047563113D+02 0.421146568129708D+02 0.279207255180463D+01
 0.000000000000000D+00 0.000000000000000D+00 0.000000000000000D+00 0.000000000000000D+00
 0.225892678947895D+03 0.000000000000000D+00 0.000000000000000D+00 0.225892678947895D+03
 0.225892678947895D+03 -.000000000000000D+00 -.000000000000000D+00 -.225892678947895D+03
 0.226844161443432D+03 0.126608671959469D+03 -.940850715511025D+02 -.104649496304843D+03
 0.175749309960479D+03 -.104414465276520D+03 0.556228500386950D+02 0.102099569008911D+03
 0.430544772431287D+02 -.253173506987647D+02 0.348013423163944D+02 -.125949880983715D+01
 0.613740924875059D+01 0.312314401581612D+01 0.366087919601317D+01 0.380942610576963D+01
0.381844069676D-03 0.000000000000D+00 0.000000000000D+00 0.534013623700D-05 0.000000000000D+00  6 -1 2 25 24 21 21 2 0.20020163D-01 0.60326759D-01 0.38686362D+05 0.38686362D+05 0.38686362D+05 0.12034757D+01  1  2  2  3  6  5       21 0.102658893266D+00 0.100000000000D+01
0.351569578008D-04 0.201504651596D-04 -.146638176941D-05 0.534013623700D-05 0.000000000000D+00  6 -1 2 25 24 21 21 4 0.20020163D-01 0.60326759D-01 0.38686362D+05 0.38686362D+05 0.38686362D+05 0.12034757D+01  1  2  3  3  6  5       21 0.136897806961D-01 0.100000000000D+01
0.135199213502D-04 0.000000000000D+00 0.000000000000D+00 0.534013623700D-05 0.000000000000D+00  6 -1 2 25 24 21 21 4 0.20020163D-01 0.60326759D-01 0.38686362D+05 0.38686362D+05 0.38686362D+05 0.12034757D+01  1  2 15  3  6  5       21 0.526452713458D-02 0.100000000000D+01
0.734147504202D-04 0.000000000000D+00 0.000000000000D+00 0.534256855142D-05 0.000000000000D+00  6 -1 2 25 24 21 21 4 0.20020163D-01 0.60326759D-01 0.38447702D+05 0.38447702D+05 0.38447702D+05 0.12037498D+01  1  2 12  3  6  5       21 0.286112512326D-01 0.100000000000D+01
0.744143535640D-04 0.000000000000D+00 0.000000000000D+00 0.534256855142D-05 0.000000000000D+00  6 -1 2 25 24 21 21 4 0.20020163D-01 0.60326759D-01 0.38447702D+05 0.38447702D+05 0.38447702D+05 0.12037498D+01  1  2 12  3  6  5       21 0.290008173145D-01 0.100000000000D+01
-.596445283812D-03 0.000000000000D+00 0.000000000000D+00 0.534013623700D-05 0.000000000000D+00  6 -1 2 25 24 21 21 4 0.20020163D-01 0.60326759D-01 0.38686362D+05 0.38686362D+05 0.38686362D+05 0.12034757D+01  1  2  4  3  6  5       21 -.232250047881D+00 0.100000000000D+01
-.109504557163D-02 0.000000000000D+00 0.000000000000D+00 0.534013623700D-05 0.000000000000D+00  6 -1 2 25 24 21 21 4 0.20020163D-01 0.60326759D-01 0.38686362D+05 0.38686362D+05 0.38686362D+05 0.12034757D+01  1  2  5  3  6  5       21 -.426400196874D+00 0.100000000000D+01
0.136593411469D-02 0.000000000000D+00 -.000000000000D+00 0.534013623700D-05 0.000000000000D+00  6 -1 2 25 24 21 21 4 0.20020163D-01 0.60326759D-01 0.38686362D+05 0.38686362D+05 0.38686362D+05 0.12034757D+01  1  2  6  3  6  5       21 0.531881586037D+00 0.100000000000D+01
0.380697643201D-03 0.000000000000D+00 0.000000000000D+00 0.534013623700D-05 0.129123788315D-05  6 -1 2 25 24 21 21 4 0.20020163D-01 0.60326759D-01 0.38447702D+05 0.38447702D+05 0.38447702D+05 0.12037498D+01  1  2 11  3  6  5       21 0.148365769153D+00 0.100000000000D+01
0.429979553467D-05 0.000000000000D+00 0.000000000000D+00 0.534256855142D-05 0.000000000000D+00  6 -1 2 25 24 1 -1 4 0.20020163D-01 0.60326759D-01 0.38447702D+05 0.38447702D+05 0.38447702D+05 0.12037498D+01  1  2 12  6  6  5       21 0.167571951940D-02 0.100000000000D+01
0.431840441948D-05 0.000000000000D+00 0.000000000000D+00 0.534256855142D-05 0.000000000000D+00  6 -1 2 25 24 1 -1 4 0.20020163D-01 0.60326759D-01 0.38447702D+05 0.38447702D+05 0.38447702D+05 0.12037498D+01  1  2 12  6  6  5       21 0.168297178785D-02 0.100000000000D+01
-.108090948876D-04 0.000000000000D+00 0.000000000000D+00 0.534013623700D-05 0.000000000000D+00  6 -1 2 25 24 1 -1 4 0.20020163D-01 0.60326759D-01 0.38686362D+05 0.38686362D+05 0.38686362D+05 0.12034757D+01  1  2  5  6  6  5       21 -.420895742380D-02 0.100000000000D+01
0.264015485761D-05 0.000000000000D+00 0.000000000000D+00 0.534013623700D-05 0.170941512480D-07  6 -1 2 25 24 1 -1 4 0.20020163D-01 0.60326759D-01 0.38447702D+05 0.38447702D+05 0.38447702D+05 0.12037498D+01  1  2 11  6  6  5       21 0.102892311819D-02 0.100000000000D+01
0.429979553467D-05 0.000000000000D+00 0.000000000000D+00 0.534256855142D-05 0.000000000000D+00  6 -1 2 25 24 2 -2 4 0.20020163D-01 0.60326759D-01 0.38447702D+05 0.38447702D+05 0.38447702D+05 0.12037498D+01  1  2 12  7  6  5       21 0.167571951940D-02 0.100000000000D+01
0.431840441948D-05 0.000000000000D+00 0.000000000000D+00 0.534256855142D-05 0.000000000000D+00  6 -1 2 25 24 2 -2 4 0.20020163D-01 0.60326759D-01 0.38447702D+05 0.38447702D+05 0.38447702D+05 0.12037498D+01  1  2 12  7  6  5       21 0.168297178785D-02 0.100000000000D+01
-.108090948876D-04 0.000000000000D+00 0.000000000000D+00 0.534013623700D-05 0.000000000000D+00  6 -1 2 25 24 2 -2 4 0.20020163D-01 0.60326759D-01 0.38686362D+05 0.38686362D+05 0.38686362D+05 0.12034757D+01  1  2  5  7  6  5       21 -.420895742380D-02 0.100000000000D+01
0.319560446250D-05 0.000000000000D+00 0.000000000000D+00 0.534013623700D-05 0.163256068210D-07  6 -1 2 25 24 2 -2 4 0.20020163D-01 0.60326759D-01 0.38447702D+05 0.38447702D+05 0.38447702D+05 0.12037498D+01  1  2 11  7  6  5       21 0.124539335206D-02 0.100000000000D+01
0.429979553467D-05 0.000000000000D+00 0.000000000000D+00 0.534256855142D-05 0.000000000000D+00  6 -1 2 25 24 3 -3 4 0.20020163D-01 0.60326759D-01 0.38447702D+05 0.38447702D+05 0.38447702D+05 0.12037498D+01  1  2 12  8  6  5       21 0.167571951940D-02 0.100000000000D+01
0.429979553467D-05 0.000000000000D+00 0.000000000000D+00 0.534256855142D-05 0.000000000000D+00  6 -1 2 25 24 4 -4 4 0.20020163D-01 0.60326759D-01 0.38447702D+05 0.38447702D+05 0.38447702D+05 0.12037498D+01  1  2 12  8  6  5       21 0.167571951940D-02 0.100000000000D+01
0.431840441948D-05 0.000000000000D+00 0.000000000000D+00 0.534256855142D-05 0.000000000000D+00  6 -1 2 25 24 3 -3 4 0.20020163D-01 0.60326759D-01 0.38447702D+05 0.38447702D+05 0.38447702D+05 0.12037498D+01  1  2 12  8  6  5       21 0.168297178785D-02 0.100000000000D+01
0.431840441948D-05 0.000000000000D+00 0.000000000000D+00 0.534256855142D-05 0.000000000000D+00  6 -1 2 25 24 4 -4 4 0.20020163D-01 0.60326759D-01 0.38447702D+05 0.38447702D+05 0.38447702D+05 0.12037498D+01  1  2 12  8  6  5       21 0.168297178785D-02 0.100000000000D+01
-.108090948876D-04 0.000000000000D+00 0.000000000000D+00 0.534013623700D-05 0.000000000000D+00  6 -1 2 25 24 3 -3 4 0.20020163D-01 0.60326759D-01 0.38686362D+05 0.38686362D+05 0.38686362D+05 0.12034757D+01  1  2  5  8  6  5       21 -.420895742380D-02 0.100000000000D+01
-.108090948876D-04 0.000000000000D+00 0.000000000000D+00 0.534013623700D-05 0.000000000000D+00  6 -1 2 25 24 4 -4 4 0.20020163D-01 0.60326759D-01 0.38686362D+05 0.38686362D+05 0.38686362D+05 0.12034757D+01  1  2  5  8  6  5       21 -.420895742380D-02 0.100000000000D+01
0.318339205089D-05 0.000000000000D+00 0.000000000000D+00 0.534013623700D-05 0.162052946170D-07  6 -1 2 25 24 3 -3 4 0.20020163D-01 0.60326759D-01 0.38447702D+05 0.38447702D+05 0.38447702D+05 0.12037498D+01  1  2 11  8  6  5       21 0.124063392191D-02 0.100000000000D+01
0.318339205089D-05 0.000000000000D+00 0.000000000000D+00 0.534013623700D-05 0.162052946170D-07  6 -1 2 25 24 4 -4 4 0.20020163D-01 0.60326759D-01 0.38447702D+05 0.38447702D+05 0.38447702D+05 0.12037498D+01  1  2 11  8  6  5       21 0.124063392191D-02 0.100000000000D+01
  </mgrwgt>
  </event>
  <event>
  5     66 0.43535451E-03 0.38468808E+02 0.75467711E-02 0.11887029E+00
       -1 -1    0    0    0  501 0.00000000E+00 0.00000000E+00 0.66449532E+02 0.66450303E+02 0.32000000E+00 0.0000E+00 0.9000E+01
        2 -1    0    0  502    0 0.00000000E+00 0.00000000E+00 -.48805384E+03 0.48805395E+03 0.32000000E+00 0.0000E+00 0.9000E+01
       25  1    1    2    0    0 -.50167256E+01 0.21543544E+02 -.28174155E+03 0.30901876E+03 0.12500000E+03 0.0000E+00 0.9000E+01
       24  1    1    2    0    0 -.33450429E+02 -.21250318E+02 -.17290685E+03 0.19476782E+03 0.80419002E+02 0.0000E+00 0.9000E+01
       21  1    1    2  502  501 0.38467155E+02 -.29322577E+00 0.33044092E+02 0.50717674E+02 0.75000000E+00 0.0000E+00 0.9000E+01
#aMCatNLO 1  0  0  1  2 0.73248656D+02 0.00000000D+00  -5  6  0 0.00000000D+00 0.00000000D+00 0.00000000D+00 0.00000000D+00 0.00000000D+00
  <mgrwgt>
 0.1818487116D+00    4    2    0
 0.180086623673462D+03 0.000000000000000D+00 0.000000000000000D+00 0.180086623673462D+03
 0.180086623673462D+03 0.000000000000000D+00 0.000000000000000D+00 -.180086623673462D+03
 0.145954567197735D+03 -.501704722303308D+01 0.215435465889833D+02 -.720308303673394D+02
 0.974570485336647D+02 -.334506436736346D+02 -.212503167340196D+02 -.382117629931664D+02
 0.116761631615524D+03 0.384676908966677D+02 -.293229854963776D+00 0.110242593360506D+03
 0.000000000000000D+00 0.000000000000000D+00 -.000000000000000D+00 -.000000000000000D+00
 0.193026414121927D+03 0.000000000000000D+00 0.000000000000000D+00 0.193026414121927D+03
 0.328730192407470D+03 0.000000000000000D+00 0.000000000000000D+00 -.328730192407470D+03
 0.150627859556608D+03 -.345104943103639D+02 0.261598420035569D+02 -.720308303673394D+02
 0.105504779797378D+03 -.536340510661020D+02 -.180912227589941D+02 -.382117629931664D+02
 0.111413458118303D+03 0.157769670754424D+02 0.325830767875074D+01 0.110242593360506D+03
 0.154210509057108D+03 0.723675783010235D+02 -.113269269233136D+02 -.135703778285542D+03
0.273434070991D-03 0.000000000000D+00 0.000000000000D+00 0.270590916596D-04 0.000000000000D+00  6 -1 2 25 24 21 21 2 0.10223072D-01 0.75085274D-01 0.16264453D+05 0.16264453D+05 0.16264453D+05 0.12438354D+01  1  2  2  1  6  1       -1 0.175255291380D+00 0.100000000000D+01
0.143102047461D-04 0.144295123547D-04 -.105005882945D-05 0.270590916596D-04 0.000000000000D+00  6 -1 2 25 24 21 21 4 0.10223072D-01 0.75085274D-01 0.16264453D+05 0.16264453D+05 0.16264453D+05 0.12438354D+01  1  2  3  1  6  1       -1 0.141902545275D-01 0.100000000000D+01
0.137537306386D-04 0.000000000000D+00 0.000000000000D+00 0.270590916596D-04 0.000000000000D+00  6 -1 2 25 24 21 21 4 0.10223072D-01 0.75085274D-01 0.16264453D+05 0.16264453D+05 0.16264453D+05 0.12438354D+01  1  2 15  1  6  1       -1 0.136384448670D-01 0.100000000000D+01
-.214147810078D-04 0.000000000000D+00 0.000000000000D+00 0.270590916596D-04 0.000000000000D+00  6 -1 2 25 24 21 21 4 0.10223072D-01 0.75085274D-01 0.16264453D+05 0.16264453D+05 0.16264453D+05 0.12438354D+01  1  2  4  1  6  1       -1 -.212352791971D-01 0.100000000000D+01
  </mgrwgt>
  </event>
  <event>
  5     66 0.43535451E-03 0.65295150E+02 0.75467711E-02 0.11637411E+00
       -1 -1    0    0    0  501 0.00000000E+00 0.00000000E+00 0.69832577E+02 0.69833310E+02 0.32000000E+00 0.0000E+00 0.9000E+01
        2 -1    0    0  502    0 0.00000000E+00 0.00000000E+00 -.43431869E+03 0.43431881E+03 0.32000000E+00 0.0000E+00 0.9000E+01
       25  1    1    2    0    0 0.66935951E+02 0.89673774E+02 -.10742252E+03 0.19921447E+03 0.12500000E+03 0.0000E+00 0.9000E+01
       24  1    1    2    0    0 -.27898595E+02 -.27089382E+02 -.15684704E+03 0.18050035E+03 0.80419002E+02 0.0000E+00 0.9000E+01
       21  1    1    2  502  501 -.39037357E+02 -.62584391E+02 -.10021656E+03 0.12443730E+03 0.75000000E+00 0.0000E+00 0.9000E+01
#aMCatNLO 1  0  0  1  5 0.35749860D+02 0.00000000D+00  -5  6  0 0.00000000D+00 0.00000000D+00 0.00000000D+00 0.00000000D+00 0.00000000D+00
  <mgrwgt>
 0.7818793465D-01    9    4    0
 0.174154552473280D+03 0.000000000000000D+00 0.000000000000000D+00 0.174154552473280D+03
 0.174154552473280D+03 0.000000000000000D+00 0.000000000000000D+00 -.174154552473280D+03
 0.175938061109399D+03 0.669369308894978D+02 0.896753444088328D+02 0.529809516259034D+02
 0.971289542462124D+02 -.278980537543181D+02 -.270885153464651D+02 -.381409062770903D+02
 0.752420895909498D+02 -.390388771351797D+02 -.625868290623677D+02 -.148400453488130D+02
 0.000000000000000D+00 0.000000000000000D+00 -.000000000000000D+00 0.000000000000000D+00
 0.218356679952326D+03 0.000000000000000D+00 0.000000000000000D+00 0.218356679952326D+03
 0.182450712828822D+03 0.000000000000000D+00 0.000000000000000D+00 -.182450712828822D+03
 0.171005517486414D+03 0.492786035812891D+02 0.915561303501189D+02 0.529809516259034D+02
 0.100192060920455D+03 -.379410673322125D+02 -.260188353923129D+02 -.381409062770903D+02
 0.789413727163198D+02 -.468863261467853D+02 -.617509983792924D+02 -.148400453488130D+02
 0.506684416579599D+02 0.355487898977087D+02 -.378629657851361D+01 0.359059671235046D+02
 0.174154552473280D+03 0.000000000000000D+00 0.000000000000000D+00 0.174154552473280D+03
 0.174154552473280D+03 0.000000000000000D+00 0.000000000000000D+00 -.174154552473280D+03
 0.175938061109399D+03 0.669369308894978D+02 0.896753444088328D+02 0.529809516259034D+02
 0.971289542462124D+02 -.278980537543181D+02 -.270885153464651D+02 -.381409062770903D+02
 0.000000000000000D+00 0.000000000000000D+00 -.000000000000000D+00 0.000000000000000D+00
 0.752420895909498D+02 -.390388771351797D+02 -.625868290623677D+02 -.148400453488130D+02
 0.218356679952326D+03 0.000000000000000D+00 0.000000000000000D+00 0.218356679952326D+03
 0.182450712828822D+03 0.000000000000000D+00 0.000000000000000D+00 -.182450712828822D+03
 0.171005517486414D+03 0.492786035812891D+02 0.915561303501189D+02 0.529809516259034D+02
 0.100192060920455D+03 -.379410673322125D+02 -.260188353923129D+02 -.381409062770903D+02
 0.506684416579599D+02 0.355487898977087D+02 -.378629657851361D+01 0.359059671235046D+02
 0.789413727163198D+02 -.468863261467853D+02 -.617509983792924D+02 -.148400453488130D+02
0.571363113134D-04 0.000000000000D+00 0.000000000000D+00 0.364080036593D-05 0.000000000000D+00  6 -1 2 25 24 21 21 2 0.10743539D-01 0.66818326D-01 0.27367483D+05 0.27367483D+05 0.27367483D+05 0.12191070D+01  1  2  2  1  6  1       -1 0.374485004133D-01 0.100000000000D+01
-.199059112739D-05 0.301516598502D-05 -.219418479780D-06 0.364080036593D-05 0.000000000000D+00  6 -1 2 25 24 21 21 4 0.10743539D-01 0.66818326D-01 0.27367483D+05 0.27367483D+05 0.27367483D+05 0.12191070D+01  1  2  3  1  6  1       -1 -.193904538594D-02 0.100000000000D+01
0.282513736866D-05 0.000000000000D+00 0.000000000000D+00 0.364080036593D-05 0.000000000000D+00  6 -1 2 25 24 21 21 4 0.10743539D-01 0.66818326D-01 0.27367483D+05 0.27367483D+05 0.27367483D+05 0.12191070D+01  1  2 15  1  6  1       -1 0.275198131046D-02 0.100000000000D+01
0.112977994968D-03 0.000000000000D+00 0.000000000000D+00 0.358244415701D-05 0.000000000000D+00  6 -1 2 25 24 21 21 4 0.14425254D-01 0.66818326D-01 0.33952375D+05 0.33952375D+05 0.33952375D+05 0.12092974D+01  1  2 12  1  6  1       -1 0.676239282242D-01 0.100000000000D+01
-.828054507060D-04 0.000000000000D+00 0.000000000000D+00 0.364080036593D-05 0.000000000000D+00  6 -1 2 25 24 21 21 4 0.10743539D-01 0.66818326D-01 0.27367483D+05 0.27367483D+05 0.27367483D+05 0.12191070D+01  1  2  4  1  6  1       -1 -.806612291762D-01 0.100000000000D+01
-.226858779354D-03 0.000000000000D+00 -.479199597093D-04 0.364080036593D-05 0.000000000000D+00  6 -1 2 25 24 21 21 4 0.14068645D-01 0.66818326D-01 0.27367483D+05 0.27367483D+05 0.27367483D+05 0.12191070D+01  1  2  5  1  6  1       -1 -.145367114472D+00 0.100000000000D+01
0.232950811295D-03 0.000000000000D+00 0.462291407033D-04 0.364080036593D-05 0.000000000000D+00  6 -1 2 25 24 21 21 4 0.10743539D-01 0.66818326D-01 0.27367483D+05 0.27367483D+05 0.27367483D+05 0.12191070D+01  1  2  6  1  6  1       -1 0.226918622101D+00 0.100000000000D+01
0.431101790676D-05 0.000000000000D+00 0.000000000000D+00 0.358244415701D-05 0.000000000000D+00  6 21 2 25 24 1 21 4 0.14425254D-01 0.66818326D-01 0.33952375D+05 0.33952375D+05 0.33952375D+05 0.12092974D+01  3  4 12  4  5  1       -1 0.353599608139D-01 0.100000000000D+01
-.720789494593D-05 0.000000000000D+00 -.171432191881D-05 0.364080036593D-05 0.000000000000D+00  6 21 2 25 24 1 21 4 0.14068645D-01 0.66818326D-01 0.27367483D+05 0.27367483D+05 0.27367483D+05 0.12191070D+01  3  4  5  4  5  1       -1 -.639476691835D-01 0.100000000000D+01
  </mgrwgt>
  </event>
  <event>
  5     66 0.43535451E-03 0.77552415E+02 0.75467711E-02 0.10931515E+00
       -1 -1    0    0    0  501 0.00000000E+00 0.00000000E+00 0.20150641E+02 0.20153182E+02 0.32000000E+00 0.0000E+00 0.9000E+01
        2 -1    0    0  502    0 0.00000000E+00 0.00000000E+00 -.26871666E+04 0.26871666E+04 0.32000000E+00 0.0000E+00 0.9000E+01
       25  1    1    2    0    0 0.14765352E+02 0.39835465E+02 -.36485736E+03 0.38800873E+03 0.12500000E+03 0.0000E+00 0.9000E+01
       24  1    1    2    0    0 -.84968924E+02 -.72786099E+02 -.60964131E+03 0.62501782E+03 0.80419002E+02 0.0000E+00 0.9000E+01
       21  1    1    2  502  501 0.70203573E+02 0.32950634E+02 -.16925173E+04 0.16942932E+04 0.75000000E+00 0.0000E+00 0.9000E+01
#aMCatNLO 1  0  0  1  2 0.19580433D+03 0.00000000D+00  -5  6  0 0.00000000D+00 0.00000000D+00 0.00000000D+00 0.00000000D+00 0.00000000D+00
  <mgrwgt>
 0.1935522170D+00    5    4    0
 0.232704951023550D+03 0.000000000000000D+00 0.000000000000000D+00 0.232704951023550D+03
 0.232704951023550D+03 0.000000000000000D+00 0.000000000000000D+00 -.232704951023550D+03
 0.166269433072560D+03 0.147650651593544D+02 0.398353305414558D+02 0.101072566336091D+03
 0.142240572792098D+03 -.849691696279766D+02 -.727862139054070D+02 0.353209834503821D+02
 0.156899896182442D+03 0.702041044686222D+02 0.329508833639512D+02 -.136393549786473D+03
 0.000000000000000D+00 0.000000000000000D+00 0.000000000000000D+00 0.000000000000000D+00
 0.375842964559308D+03 0.000000000000000D+00 0.000000000000000D+00 0.375842964559308D+03
 0.330144820827188D+03 0.000000000000000D+00 0.000000000000000D+00 -.330144820827188D+03
 0.162513931467459D+03 -.928604874430445D+01 -.219973533400022D+02 0.101072566336091D+03
 0.195814469289852D+03 -.109698523968012D+03 -.136362576963891D+03 0.353209834503821D+02
 0.146593089709807D+03 0.480030287454995D+02 -.241255623472523D+02 -.136393549786473D+03
 0.201066294919377D+03 0.709815439668170D+02 0.182485492651146D+03 0.456981437321194D+02
 0.232704951023550D+03 0.000000000000000D+00 0.000000000000000D+00 0.232704951023550D+03
 0.232704951023550D+03 0.000000000000000D+00 0.000000000000000D+00 -.232704951023550D+03
 0.166269433072560D+03 0.147650651593544D+02 0.398353305414558D+02 0.101072566336091D+03
 0.142240572792098D+03 -.849691696279766D+02 -.727862139054070D+02 0.353209834503821D+02
 0.000000000000000D+00 0.000000000000000D+00 0.000000000000000D+00 0.000000000000000D+00
 0.156899896182442D+03 0.702041044686222D+02 0.329508833639512D+02 -.136393549786473D+03
 0.375842964559308D+03 0.000000000000000D+00 0.000000000000000D+00 0.375842964559308D+03
 0.330144820827188D+03 0.000000000000000D+00 0.000000000000000D+00 -.330144820827188D+03
 0.162513931467459D+03 -.928604874430445D+01 -.219973533400022D+02 0.101072566336091D+03
 0.195814469289852D+03 -.109698523968012D+03 -.136362576963891D+03 0.353209834503821D+02
 0.201066294919377D+03 0.709815439668170D+02 0.182485492651146D+03 0.456981437321194D+02
 0.146593089709807D+03 0.480030287454995D+02 -.241255623472523D+02 -.136393549786473D+03
0.702078645097D-03 0.000000000000D+00 0.000000000000D+00 0.534118857649D-05 0.000000000000D+00  6 -1 2 25 24 21 21 2 0.31002955D-02 0.41341044D+00 0.30164740D+05 0.30164740D+05 0.30164740D+05 0.12146489D+01  1  2  2  1  6  1       -1 0.135950698542D+00 0.100000000000D+01
-.170959773107D-04 0.370497079850D-04 -.269616685872D-05 0.534118857649D-05 0.000000000000D+00  6 -1 2 25 24 21 21 4 0.31002955D-02 0.41341044D+00 0.30164740D+05 0.30164740D+05 0.30164740D+05 0.12146489D+01  1  2  3  1  6  1       -1 -.488417379795D-02 0.100000000000D+01
0.355608803154D-04 0.000000000000D+00 0.000000000000D+00 0.534118857649D-05 0.000000000000D+00  6 -1 2 25 24 21 21 4 0.31002955D-02 0.41341044D+00 0.30164740D+05 0.30164740D+05 0.30164740D+05 0.12146489D+01  1  2 15  1  6  1       -1 0.101594379023D-01 0.100000000000D+01
0.209446536994D-03 0.000000000000D+00 -.333256597886D-03 0.534118857649D-05 0.000000000000D+00  6 -1 2 25 24 21 21 4 0.88000958D-02 0.41341044D+00 0.30164740D+05 0.30164740D+05 0.30164740D+05 0.12146489D+01  1  2  5  1  6  1       -1 0.126103483039D-01 0.100000000000D+01
0.428549268129D-04 0.000000000000D+00 -.391447425148D-04 0.534118857649D-05 0.000000000000D+00  6 21 2 25 24 1 21 4 0.88000958D-02 0.41341044D+00 0.30164740D+05 0.30164740D+05 0.30164740D+05 0.12146489D+01  3  4  5  4  5  1       -1 0.397159060775D-01 0.100000000000D+01
  </mgrwgt>
  </event>
  <event>
  5     66 0.43535451E-03 0.20432338E+02 0.75467711E-02 0.10768773E+00
       -1 -1    0    0    0  501 0.00000000E+00 0.00000000E+00 0.32966494E+02 0.32968047E+02 0.32000000E+00 0.0000E+00 0.9000E+01
        2 -1    0    0  502    0 -.00000000E+00 -.00000000E+00 -.30623411E+04 0.30623412E+04 0.32000000E+00 0.0000E+00 0.9000E+01
       25  1    1    2    0    0 -.28255915E+03 0.52300363E+01 -.14673012E+04 0.14994882E+04 0.12500000E+03 0.0000E+00 0.9000E+01
       24  1    1    2    0    0 0.29360322E+03 -.22405685E+02 -.14339107E+04 0.14660396E+04 0.80419002E+02 0.0000E+00 0.9000E+01
       21  1    1    2  502  501 -.11044075E+02 0.17175648E+02 -.12816271E+03 0.12978142E+03 0.75000000E+00 0.0000E+00 0.9000E+01
#aMCatNLO 1  0  0  5  5 0.14509852D+01 0.00000000D+00  -5  6  0 0.00000000D+00 0.00000000D+00 0.00000000D+00 0.00000000D+00 0.00000000D+00
  <mgrwgt>
 0.2461559387D+01    6    2    0
 0.317737436889408D+03 0.000000000000000D+00 0.000000000000000D+00 0.317737436889408D+03
 0.317737436889408D+03 -.000000000000000D+00 -.000000000000000D+00 -.317737436889408D+03
 0.309016993159182D+03 -.282555776649996D+03 0.522479591065111D+01 0.119860358405818D+01
 0.305276112837932D+03 0.293606549913461D+03 -.224108615389272D+02 0.438591473518758D+01
 0.211817677817013D+02 -.110507732634651D+02 0.171860656282761D+02 -.558451831924576D+01
 0.000000000000000D+00 0.000000000000000D+00 0.000000000000000D+00 0.000000000000000D+00
 0.317737436889408D+03 0.000000000000000D+00 0.000000000000000D+00 0.317737436889408D+03
 0.317737436889408D+03 -.000000000000000D+00 -.000000000000000D+00 -.317737436889408D+03
 0.312153216017648D+03 -.285845218848020D+03 0.103405075579576D+02 -.463719022423550D+00
 0.301836434689786D+03 0.290391550862825D+03 -.174109232213294D+02 0.276121204094305D+01
 0.643331243343180D+01 0.219506711444164D+01 -.548787314005438D+01 0.254016488203321D+01
 0.150519106379506D+02 -.674139912924684D+01 0.125582888034262D+02 -.483765790055271D+01
0.408168096597D-01 0.000000000000D+00 0.000000000000D+00 0.346769109735D-04 0.000000000000D+00  6 -1 2 25 24 21 21 2 0.50718890D-02 0.47112953D+00 0.10070836D+06 0.10070836D+06 0.10070836D+06 0.11632902D+01  1  2  2  3  6  5       21 0.204667760612D+01 0.100000000000D+01
0.237291394579D-01 0.215396222251D-02 -.156747296406D-03 0.346769109735D-04 0.000000000000D+00  6 -1 2 25 24 21 21 4 0.50718890D-02 0.47112953D+00 0.10070836D+06 0.10070836D+06 0.10070836D+06 0.11632902D+01  1  2  3  3  6  5       21 0.161015792797D+01 0.100000000000D+01
0.888982975006D-03 0.000000000000D+00 0.000000000000D+00 0.346769109735D-04 0.000000000000D+00  6 -1 2 25 24 21 21 4 0.50718890D-02 0.47112953D+00 0.10070836D+06 0.10070836D+06 0.10070836D+06 0.11632902D+01  1  2 15  3  6  5       21 0.603225830237D-01 0.100000000000D+01
-.185033620224D-01 0.000000000000D+00 0.000000000000D+00 0.346769109735D-04 0.000000000000D+00  6 -1 2 25 24 21 21 4 0.50718890D-02 0.47112953D+00 0.10070836D+06 0.10070836D+06 0.10070836D+06 0.11632902D+01  1  2  4  3  6  5       21 -.125555901879D+01 0.100000000000D+01
0.245185550550D-06 0.000000000000D+00 0.000000000000D+00 0.346769109735D-04 0.000000000000D+00  6 -1 2 25 24 21 21 4 0.50718890D-02 0.47112953D+00 0.10070836D+06 0.10070836D+06 0.10070836D+06 0.11632902D+01  1  2  5  3  6  5       21 0.166372429451D-04 0.100000000000D+01
-.830419720244D-06 0.000000000000D+00 0.000000000000D+00 0.346769109735D-04 0.000000000000D+00  6 -1 2 25 24 21 21 4 0.50718890D-02 0.47112953D+00 0.10070836D+06 0.10070836D+06 0.10070836D+06 0.11632902D+01  1  2  6  3  6  5       21 -.563487309963D-04 0.100000000000D+01
  </mgrwgt>
  </event>
  <event>
  5     66 0.43535451E-03 0.69075244E+02 0.75467711E-02 0.11583310E+00
       -1 -1    0    0    0  501 0.00000000E+00 0.00000000E+00 0.46378799E+02 0.46379903E+02 0.32000000E+00 0.0000E+00 0.9000E+01
        2 -1    0    0  502    0 -.00000000E+00 -.00000000E+00 -.78392316E+03 0.78392322E+03 0.32000000E+00 0.0000E+00 0.9000E+01
       25  1    1    2    0    0 0.27942901E+02 0.70108162E+02 -.31384109E+03 0.34614619E+03 0.12500000E+03 0.0000E+00 0.9000E+01
       24  1    1    2    0    0 -.45906005E+02 -.13680342E+03 -.29855033E+03 0.34120676E+03 0.80419002E+02 0.0000E+00 0.9000E+01
       21  1    1    2  502  501 0.17963104E+02 0.66695256E+02 -.12515294E+03 0.14295017E+03 0.75000000E+00 0.0000E+00 0.9000E+01
#aMCatNLO 1  0  0  5  5 0.14509852D+01 0.00000000D+00  -5  6  0 0.00000000D+00 0.00000000D+00 0.00000000D+00 0.00000000D+00 0.00000000D+00
  <mgrwgt>
 0.5938158175D-02    1    2    0
 0.190677475566501D+03 0.000000000000000D+00 0.000000000000000D+00 0.190677475566501D+03
 0.190677475566501D+03 -.000000000000000D+00 -.000000000000000D+00 -.190677475566501D+03
 0.146672392091858D+03 0.279424946026042D+02 0.701066553390597D+02 -.138587327884409D+02
 0.165492826294705D+03 -.459064627100429D+02 -.136805119494814D+03 0.988005881055336D+01
 0.691897327464399D+02 0.179639681074387D+02 0.666984641557538D+02 0.397867397788755D+01
 0.000000000000000D+00 0.000000000000000D+00 0.000000000000000D+00 0.000000000000000D+00
 0.190677475566501D+03 0.000000000000000D+00 0.000000000000000D+00 0.190677475566501D+03
 0.190677475566501D+03 -.000000000000000D+00 -.000000000000000D+00 -.190677475566501D+03
 0.149131997268844D+03 0.291784177189959D+02 0.746955175094276D+02 -.135849995513049D+02
 0.160967484714798D+03 -.445424537248041D+02 -.131740686967102D+03 0.101821606080358D+02
 0.257632071117827D+02 -.121136227973202D+02 0.219808500369023D+02 -.581766405562118D+01
 0.454922620375780D+02 0.274776588031284D+02 0.350643194207726D+02 0.922050299889027D+01
0.668046008023D-05 0.000000000000D+00 0.000000000000D+00 0.397783244283D-05 0.000000000000D+00  6 -1 2 25 24 21 21 4 0.71352897D-02 0.12060365D+00 0.36154944D+05 0.36154944D+05 0.36154944D+05 0.12064832D+01  1  2 14  3  6  5       21 0.593815817524D-02 0.100000000000D+01
  </mgrwgt>
  </event>
  <event>
  5     66 -.43535451E-03 0.36499114E+02 0.75467711E-02 0.12197552E+00
       -1 -1    0    0    0  501 0.00000000E+00 0.00000000E+00 0.63241206E+02 0.63242015E+02 0.32000000E+00 0.0000E+00 0.9000E+01
        2 -1    0    0  502    0 0.00000000E+00 0.00000000E+00 -.42142254E+03 0.42142266E+03 0.32000000E+00 0.0000E+00 0.9000E+01
       25  1    1    2    0    0 0.14722346E+01 0.21237707E+02 -.36262584E+02 0.13188322E+03 0.12500000E+03 0.0000E+00 0.9000E+01
       24  1    1    2    0    0 0.22545111E+02 -.48712316E+02 -.28462221E+03 0.30059639E+03 0.80419002E+02 0.0000E+00 0.9000E+01
       21  1    1    2  502  501 -.24017346E+02 0.27474610E+02 -.37296540E+02 0.52185070E+02 0.75000000E+00 0.0000E+00 0.9000E+01
#aMCatNLO 1  0  0  1  5 0.10200336D+02 0.00000000D+00  -5  6  0 0.00000000D+00 0.00000000D+00 0.00000000D+00 0.00000000D+00 0.00000000D+00
  <mgrwgt>
 -.1112969564D+00    9    4    0
 0.163252856435715D+03 0.000000000000000D+00 0.000000000000000D+00 0.163252856435715D+03
 0.163252856435715D+03 0.000000000000000D+00 0.000000000000000D+00 -.163252856435715D+03
 0.155986256888735D+03 0.147465127890499D+01 0.212349420579331D+02 0.908494082400115D+02
 0.133971690663866D+03 0.225471868795747D+02 -.487146908101662D+02 -.927345739627439D+02
 0.365477653188292D+02 -.240218381584797D+02 0.274797487522332D+02 0.188516572273242D+01
 0.000000000000000D+00 -.000000000000000D+00 -.000000000000000D+00 0.000000000000000D+00
 0.198440179944232D+03 0.000000000000000D+00 0.000000000000000D+00 0.198440179944232D+03
 0.164073416393432D+03 0.000000000000000D+00 0.000000000000000D+00 -.164073416393432D+03
 0.156122446238845D+03 0.634765266101477D+01 0.213380071172495D+02 0.908494082400115D+02
 0.134709108567677D+03 0.267421416914130D+02 -.486259665860979D+02 -.927345739627439D+02
 0.358334531036722D+02 -.228917390171319D+02 0.275036505995554D+02 0.188516572273242D+01
 0.358485884274711D+02 -.101980553352959D+02 -.215691130706988D+00 0.343667635507999D+02
 0.163252856435715D+03 0.000000000000000D+00 0.000000000000000D+00 0.163252856435715D+03
 0.163252856435715D+03 0.000000000000000D+00 0.000000000000000D+00 -.163252856435715D+03
 0.155986256888735D+03 0.147465127890499D+01 0.212349420579331D+02 0.908494082400115D+02
 0.133971690663866D+03 0.225471868795747D+02 -.487146908101662D+02 -.927345739627439D+02
 0.000000000000000D+00 -.000000000000000D+00 -.000000000000000D+00 0.000000000000000D+00
 0.365477653188292D+02 -.240218381584797D+02 0.274797487522332D+02 0.188516572273242D+01
 0.198440179944232D+03 0.000000000000000D+00 0.000000000000000D+00 0.198440179944232D+03
 0.164073416393432D+03 0.000000000000000D+00 0.000000000000000D+00 -.164073416393432D+03
 0.156122446238845D+03 0.634765266101477D+01 0.213380071172495D+02 0.908494082400115D+02
 0.134709108567677D+03 0.267421416914130D+02 -.486259665860979D+02 -.927345739627439D+02
 0.358485884274711D+02 -.101980553352959D+02 -.215691130706988D+00 0.343667635507999D+02
 0.358334531036722D+02 -.228917390171319D+02 0.275036505995554D+02 0.188516572273242D+01
0.188478607730D-04 0.000000000000D+00 0.000000000000D+00 0.981227639895D-05 0.000000000000D+00  6 -1 2 25 24 21 21 2 0.97294879D-02 0.64834308D-01 0.16898348D+05 0.16898348D+05 0.16898348D+05 0.12419655D+01  1  2  2  1  6  1       -1 0.152357428800D-01 0.100000000000D+01
0.107587904557D-05 0.994628938880D-06 -.723807481242D-07 0.981227639895D-05 0.000000000000D+00  6 -1 2 25 24 21 21 4 0.97294879D-02 0.64834308D-01 0.16898348D+05 0.16898348D+05 0.16898348D+05 0.12419655D+01  1  2  3  1  6  1       -1 0.134147953051D-02 0.100000000000D+01
0.528951520142D-06 0.000000000000D+00 0.000000000000D+00 0.981227639895D-05 0.000000000000D+00  6 -1 2 25 24 21 21 4 0.97294879D-02 0.64834308D-01 0.16898348D+05 0.16898348D+05 0.16898348D+05 0.12419655D+01  1  2 15  1  6  1       -1 0.659532909224D-03 0.100000000000D+01
0.369702500109D-03 0.000000000000D+00 0.000000000000D+00 0.975064399736D-05 0.000000000000D+00  6 -1 2 25 24 21 21 4 0.12068409D-01 0.64834308D-01 0.18314080D+05 0.18314080D+05 0.18314080D+05 0.12380588D+01  1  2 12  1  6  1       -1 0.327853206831D+00 0.100000000000D+01
-.459808602791D-03 0.000000000000D+00 0.000000000000D+00 0.981227639895D-05 0.000000000000D+00  6 -1 2 25 24 21 21 4 0.97294879D-02 0.64834308D-01 0.16898348D+05 0.16898348D+05 0.16898348D+05 0.12419655D+01  1  2  4  1  6  1       -1 -.573320793942D+00 0.100000000000D+01
-.452100983543D-03 0.000000000000D+00 -.204119963401D-04 0.981227639895D-05 0.000000000000D+00  6 -1 2 25 24 21 21 4 0.11869007D-01 0.64834308D-01 0.16898348D+05 0.16898348D+05 0.16898348D+05 0.12419655D+01  1  2  5  1  6  1       -1 -.415817367436D+00 0.100000000000D+01
0.447682018325D-03 0.000000000000D+00 0.200152983400D-04 0.981227639895D-05 0.000000000000D+00  6 -1 2 25 24 21 21 4 0.97294879D-02 0.64834308D-01 0.16898348D+05 0.16898348D+05 0.16898348D+05 0.12419655D+01  1  2  6  1  6  1       -1 0.558200539577D+00 0.100000000000D+01
0.111958672057D-04 0.000000000000D+00 0.000000000000D+00 0.975064399736D-05 0.000000000000D+00  6 21 2 25 24 1 21 4 0.12068409D-01 0.64834308D-01 0.18314080D+05 0.18314080D+05 0.18314080D+05 0.12380588D+01  3  4 12  4  5  1       -1 0.143486256272D+00 0.100000000000D+01
-.126439580248D-04 0.000000000000D+00 -.581365939443D-06 0.981227639895D-05 0.000000000000D+00  6 21 2 25 24 1 21 4 0.11869007D-01 0.64834308D-01 0.16898348D+05 0.16898348D+05 0.16898348D+05 0.12419655D+01  3  4  5  4  5  1       -1 -.168935553016D+00 0.100000000000D+01
  </mgrwgt>
  </event>
  <event>
  5     66 -.43535451E-03 0.31210661E+02 0.75467711E-02 0.12382325E+00
       -1 -1    0    0    0  501 0.00000000E+00 0.00000000E+00 0.30982963E+02 0.30984615E+02 0.32000000E+00 0.0000E+00 0.9000E+01
        2 -1    0    0  502    0 0.00000000E+00 0.00000000E+00 -.13457536E+04 0.13457537E+04 0.32000000E+00 0.0000E+00 0.9000E+01
       25  1    1    2    0    0 0.18770037E+02 -.54861579E+01 -.71698542E+03 0.72806284E+03 0.12500000E+03 0.0000E+00 0.9000E+01
       24  1    1    2    0    0 0.21502797E+01 -.17674813E+02 -.60971576E+03 0.61525405E+03 0.80419002E+02 0.0000E+00 0.9000E+01
       21  1    1    2  502  501 -.20920317E+02 0.23160971E+02 0.11930506E+02 0.33421396E+02 0.75000000E+00 0.0000E+00 0.9000E+01
#aMCatNLO 1  0  0  2  5 0.46116235D+01 0.00000000D+00  -5  6  0 0.00000000D+00 0.00000000D+00 0.00000000D+00 0.00000000D+00 0.00000000D+00
  <mgrwgt>
 -.2677886200D+00   11    4    0
 0.204197450343463D+03 0.000000000000000D+00 0.000000000000000D+00 0.204197450343463D+03
 0.204197450343463D+03 0.000000000000000D+00 0.000000000000000D+00 -.204197450343463D+03
 0.146134857440718D+03 0.187701290407667D+02 -.548626002996636D+01 -.731298828516468D+02
 0.111185400771993D+03 0.215034993165309D+01 -.176748908436446D+02 -.746856855046197D+02
 0.151074642474214D+03 -.209204789724198D+02 0.231611508736110D+02 0.147815568356267D+03
 0.000000000000000D+00 0.000000000000000D+00 -.000000000000000D+00 -.000000000000000D+00
 0.204550477744964D+03 0.000000000000000D+00 0.000000000000000D+00 0.204550477744964D+03
 0.219847601495351D+03 0.000000000000000D+00 0.000000000000000D+00 -.219847601495351D+03
 0.145945928374211D+03 0.175529140921090D+02 -.437372266952086D+01 -.731298828516468D+02
 0.111039914136534D+03 0.122425007019822D+01 -.168284333658523D+02 -.746856855046197D+02
 0.151435094732257D+03 -.221811554431944D+02 0.243134121687240D+02 0.147815568356267D+03
 0.159771419973139D+02 0.340399128088724D+01 -.311125613335089D+01 -.152971237503872D+02
 0.204197450343463D+03 0.000000000000000D+00 0.000000000000000D+00 0.204197450343463D+03
 0.204197450343463D+03 0.000000000000000D+00 0.000000000000000D+00 -.204197450343463D+03
 0.146134857440718D+03 0.187701290407667D+02 -.548626002996636D+01 -.731298828516468D+02
 0.111185400771993D+03 0.215034993165309D+01 -.176748908436446D+02 -.746856855046197D+02
 0.000000000000000D+00 0.000000000000000D+00 -.000000000000000D+00 -.000000000000000D+00
 0.151074642474214D+03 -.209204789724198D+02 0.231611508736110D+02 0.147815568356267D+03
 0.204550477744964D+03 0.000000000000000D+00 0.000000000000000D+00 0.204550477744964D+03
 0.219847601495351D+03 0.000000000000000D+00 0.000000000000000D+00 -.219847601495351D+03
 0.145945928374211D+03 0.175529140921090D+02 -.437372266952086D+01 -.731298828516468D+02
 0.111039914136534D+03 0.122425007019822D+01 -.168284333658523D+02 -.746856855046197D+02
 0.159771419973139D+02 0.340399128088724D+01 -.311125613335089D+01 -.152971237503872D+02
 0.151435094732257D+03 -.221811554431944D+02 0.243134121687240D+02 0.147815568356267D+03
0.720362079401D-04 0.000000000000D+00 0.000000000000D+00 0.546557971555D-04 0.000000000000D+00  6 -1 2 25 24 21 21 2 0.47667397D-02 0.20703915D+00 0.14411713D+05 0.14411713D+05 0.14411713D+05 0.12498083D+01  1  2  2  2  6  2        2 0.395803211916D-01 0.100000000000D+01
0.860922462289D-05 0.380145513208D-05 -.276638006059D-06 0.546557971555D-04 0.000000000000D+00  6 -1 2 25 24 21 21 4 0.47667397D-02 0.20703915D+00 0.14411713D+05 0.14411713D+05 0.14411713D+05 0.12498083D+01  1  2  3  2  6  2        2 0.738889145733D-02 0.100000000000D+01
0.461985930823D-05 0.000000000000D+00 0.000000000000D+00 0.546557971555D-04 0.000000000000D+00  6 -1 2 25 24 21 21 4 0.47667397D-02 0.20703915D+00 0.14411713D+05 0.14411713D+05 0.14411713D+05 0.12498083D+01  1  2 15  2  6  2        2 0.396500735802D-02 0.100000000000D+01
0.129184021322D-02 0.000000000000D+00 0.000000000000D+00 0.544454388069D-04 0.000000000000D+00  6 -1 2 25 24 21 21 4 0.47667397D-02 0.22314617D+00 0.15128381D+05 0.15128381D+05 0.15128381D+05 0.12474008D+01  1  2 12  2  6  2        2 0.969566118711D+00 0.100000000000D+01
-.546808000521D-02 0.000000000000D+00 0.000000000000D+00 0.546557971555D-04 0.000000000000D+00  6 -1 2 25 24 21 21 4 0.47667397D-02 0.20703915D+00 0.14411713D+05 0.14411713D+05 0.14411713D+05 0.12498083D+01  1  2  4  2  6  2        2 -.469299517765D+01 0.100000000000D+01
-.658137427600D-02 0.000000000000D+00 -.263975841058D-03 0.546557971555D-04 0.000000000000D+00  6 -1 2 25 24 21 21 4 0.47667397D-02 0.22305542D+00 0.14411713D+05 0.14411713D+05 0.14411713D+05 0.12498083D+01  1  2  5  2  6  2        2 -.497956760536D+01 0.100000000000D+01
0.658349033294D-02 0.000000000000D+00 0.263244723937D-03 0.546557971555D-04 0.000000000000D+00  6 -1 2 25 24 21 21 4 0.47667397D-02 0.20703915D+00 0.14411713D+05 0.14411713D+05 0.14411713D+05 0.12498083D+01  1  2  6  2  6  2        2 0.565029925589D+01 0.100000000000D+01
0.365625247840D-02 0.000000000000D+00 0.000000000000D+00 0.546557971555D-04 0.969737851267D-05  6 -1 2 25 24 21 21 4 0.47749807D-02 0.22290710D+00 0.15128381D+05 0.15128381D+05 0.15128381D+05 0.12474008D+01  1  2 11  2  6  2        2 0.274227404303D+01 0.100000000000D+01
0.185485545058D-04 0.000000000000D+00 0.000000000000D+00 0.544454388069D-04 0.000000000000D+00  6 -1 21 25 24 -2 21 4 0.47667397D-02 0.22314617D+00 0.15128381D+05 0.15128381D+05 0.15128381D+05 0.12474008D+01  3  4 12  5  5  2        2 0.756381564544D-02 0.100000000000D+01
-.833254966466D-04 0.000000000000D+00 -.330933222834D-05 0.546557971555D-04 0.000000000000D+00  6 -1 21 25 24 -2 21 4 0.47667397D-02 0.22305542D+00 0.14411713D+05 0.14411713D+05 0.14411713D+05 0.12498083D+01  3  4  5  5  5  2        2 -.343682785404D-01 0.100000000000D+01
0.453462592422D-04 0.000000000000D+00 0.000000000000D+00 0.546557971555D-04 0.239759958755D-06  6 -1 21 25 24 -2 21 4 0.47749807D-02 0.22290710D+00 0.15128381D+05 0.15128381D+05 0.15128381D+05 0.12474008D+01  3  4 11  5  5  2        2 0.185049882397D-01 0.100000000000D+01
  </mgrwgt>
  </event>
  <event>
  5     66 0.43535451E-03 0.22504025E+02 0.75467711E-02 0.12479809E+00
       -1 -1    0    0    0  501 0.00000000E+00 0.00000000E+00 0.22135633E+02 0.22137946E+02 0.32000000E+00 0.0000E+00 0.9000E+01
        2 -1    0    0  502    0 0.00000000E+00 0.00000000E+00 -.64335347E+03 0.64335355E+03 0.32000000E+00 0.0000E+00 0.9000E+01
       25  1    1    2    0    0 0.50025276E+01 -.21676622E+02 -.37772657E+03 0.39849374E+03 0.12500000E+03 0.0000E+00 0.9000E+01
       24  1    1    2    0    0 -.19246850E+02 0.42637710E+01 -.21685169E+03 0.23212172E+03 0.80419002E+02 0.0000E+00 0.9000E+01
       21  1    1    2  502  501 0.14244322E+02 0.17412851E+02 -.26639574E+02 0.34876030E+02 0.75000000E+00 0.0000E+00 0.9000E+01
#aMCatNLO 1  0  0  1  1 0.18624183D+01 0.00000000D+00  -5  6  0 0.00000000D+00 0.00000000D+00 0.00000000D+00 0.00000000D+00 0.00000000D+00
  <mgrwgt>
 0.3673746252D+00    8    4    0
 0.119339147814054D+03 0.000000000000000D+00 0.000000000000000D+00 0.119339147814054D+03
 0.119339147814054D+03 0.000000000000000D+00 0.000000000000000D+00 -.119339147814054D+03
 0.127971082535085D+03 0.499976793391559D+01 -.216799955298509D+02 -.160180548018228D+02
 0.828016932832576D+02 -.192486355998218D+02 0.426158817897297D+01 -.483063083084937D+00
 0.279055198097661D+02 0.142488676659062D+02 0.174184073508779D+02 0.165011178849078D+02
 0.000000000000000D+00 -.000000000000000D+00 -.000000000000000D+00 -.000000000000000D+00
 0.119484184150710D+03 0.000000000000000D+00 0.000000000000000D+00 0.119484184150710D+03
 0.125475245312294D+03 0.000000000000000D+00 0.000000000000000D+00 -.125475245312294D+03
 0.127816727361050D+03 0.519524415118809D+01 -.207013804337849D+02 -.160180548018228D+02
 0.828074027021260D+02 -.191220750743523D+02 0.489518976242193D+01 -.483063083084937D+00
 0.280614317241044D+02 0.142916383045170D+02 0.176325305480470D+02 0.165011178849078D+02
 0.627386767572378D+01 -.364807381352770D+00 -.182633987668400D+01 -.599106116158366D+01
 0.119339147814054D+03 0.000000000000000D+00 0.000000000000000D+00 0.119339147814054D+03
 0.119339147814054D+03 0.000000000000000D+00 0.000000000000000D+00 -.119339147814054D+03
 0.127971082535085D+03 0.499976793391559D+01 -.216799955298509D+02 -.160180548018228D+02
 0.828016932832576D+02 -.192486355998218D+02 0.426158817897297D+01 -.483063083084937D+00
 0.000000000000000D+00 -.000000000000000D+00 -.000000000000000D+00 -.000000000000000D+00
 0.279055198097661D+02 0.142488676659062D+02 0.174184073508779D+02 0.165011178849078D+02
 0.119484184150710D+03 0.000000000000000D+00 0.000000000000000D+00 0.119484184150710D+03
 0.125475245312294D+03 0.000000000000000D+00 0.000000000000000D+00 -.125475245312294D+03
 0.127816727361050D+03 0.519524415118809D+01 -.207013804337849D+02 -.160180548018228D+02
 0.828074027021260D+02 -.191220750743523D+02 0.489518976242193D+01 -.483063083084937D+00
 0.627386767572378D+01 -.364807381352770D+00 -.182633987668400D+01 -.599106116158366D+01
 0.280614317241044D+02 0.142916383045170D+02 0.176325305480470D+02 0.165011178849078D+02
0.113521565170D-03 0.000000000000D+00 0.000000000000D+00 0.537321319091D-04 0.000000000000D+00  6 -1 2 25 24 21 21 2 0.34056660D-02 0.98977640D-01 0.13487216D+05 0.13487216D+05 0.13487216D+05 0.12531204D+01  1  2  2  1  6  1       -1 0.276206919959D+00 0.100000000000D+01
0.157475817045D-04 0.599069757913D-05 -.435952701167D-06 0.537321319091D-04 0.000000000000D+00  6 -1 2 25 24 21 21 4 0.34056660D-02 0.98977640D-01 0.13487216D+05 0.13487216D+05 0.13487216D+05 0.12531204D+01  1  2  3  1  6  1       -1 0.601666299195D-01 0.100000000000D+01
0.363711471542D-05 0.000000000000D+00 0.000000000000D+00 0.537321319091D-04 0.000000000000D+00  6 -1 2 25 24 21 21 4 0.34056660D-02 0.98977640D-01 0.13487216D+05 0.13487216D+05 0.13487216D+05 0.12531204D+01  1  2 15  1  6  1       -1 0.138962882787D-01 0.100000000000D+01
-.270292783054D-04 0.000000000000D+00 0.000000000000D+00 0.537321319091D-04 0.000000000000D+00  6 -1 2 25 24 21 21 4 0.34056660D-02 0.98977640D-01 0.13487216D+05 0.13487216D+05 0.13487216D+05 0.12531204D+01  1  2  4  1  6  1       -1 -.103270496722D+00 0.100000000000D+01
0.445214997558D-07 0.000000000000D+00 0.000000000000D+00 0.537321319091D-04 0.000000000000D+00  6 -1 2 25 24 21 21 4 0.36026719D-02 0.98977640D-01 0.13487216D+05 0.13487216D+05 0.13487216D+05 0.12531204D+01  1  2  5  1  6  1       -1 0.156726768932D-03 0.100000000000D+01
-.444511949319D-07 0.000000000000D+00 0.000000000000D+00 0.537321319091D-04 0.000000000000D+00  6 -1 2 25 24 21 21 4 0.34056660D-02 0.98977640D-01 0.13487216D+05 0.13487216D+05 0.13487216D+05 0.12531204D+01  1  2  6  1  6  1       -1 -.169834241545D-03 0.100000000000D+01
0.276773415294D-04 0.000000000000D+00 0.000000000000D+00 0.537321319091D-04 0.574649191341D-04  6 -1 2 25 24 21 21 4 0.34098050D-02 0.10406680D+00 0.13709429D+05 0.13709429D+05 0.13709429D+05 0.12523015D+01  1  2 11  1  6  1       -1 0.994024403776D-01 0.100000000000D+01
0.308564340784D-06 0.000000000000D+00 0.000000000000D+00 0.536619263530D-04 0.571522880150D-07  6 21 2 25 24 1 21 4 0.34098050D-02 0.10406680D+00 0.13709429D+05 0.13709429D+05 0.13709429D+05 0.12523015D+01  3  4 11  4  5  1       -1 0.209859508578D-01 0.100000000000D+01
  </mgrwgt>
  </event>
  <event>
  6     66 0.43535451E-03 0.15333047E+02 0.75467711E-02 0.11919482E+00
       -1 -1    0    0    0  501 0.00000000E+00 0.00000000E+00 0.47361413E+02 0.47362494E+02 0.32000000E+00 0.0000E+00 0.9000E+01
        2 -1    0    0  503    0 0.00000000E+00 0.00000000E+00 -.76830944E+03 0.76830951E+03 0.32000000E+00 0.0000E+00 0.9000E+01
       25  1    1    2    0    0 0.87195049E+01 -.86948922E+02 -.21723860E+03 0.26543126E+03 0.12500000E+03 0.0000E+00 0.9000E+01
       24  1    1    2    0    0 -.36528996E+01 0.93878904E+02 -.29755479E+03 0.32223076E+03 0.80419002E+02 0.0000E+00 0.9000E+01
       21  1    1    2  502  501 0.14096907E+02 0.56610914E+01 0.46935153E+01 0.15917359E+02 0.75000000E+00 0.0000E+00 0.9000E+01
       21  1    1    2  503  502 -.19163512E+02 -.12591073E+02 -.21084815E+03 0.21209262E+03 0.75000000E+00 0.0000E+00 0.9000E+01
#aMCatNLO 2  0  0  2  5 0.73138563D+02 0.00000000D+00  -5  6  0 0.00000000D+00 0.00000000D+00 0.00000000D+00 0.00000000D+00 0.00000000D+00
  <mgrwgt>
 0.2337252177D+00    1    2    0
 0.160919551258119D+03 0.000000000000000D+00 0.000000000000000D+00 0.160919551258119D+03
 0.160919551258119D+03 0.000000000000000D+00 0.000000000000000D+00 -.160919551258119D+03
 0.156361129522682D+03 -.483037426778352D+00 -.929949278892597D+02 0.132481276912912D+02
 0.129249172561913D+03 -.114328744315985D+02 0.887675085141629D+02 -.471990621515712D+02
 0.362288004316425D+02 0.119159118583768D+02 0.422741937509679D+01 0.339509344602801D+02
 0.000000000000000D+00 -.000000000000000D+00 -.000000000000000D+00 -.000000000000000D+00
 0.163472974423631D+03 0.000000000000000D+00 0.000000000000000D+00 0.163472974423631D+03
 0.222591616854178D+03 0.000000000000000D+00 0.000000000000000D+00 -.222591616854178D+03
 0.153090538923837D+03 0.871825958131063D+01 -.869493655557006D+02 0.132481276912912D+02
 0.132368821706149D+03 -.365387333586845D+01 0.938785744840709D+02 -.471990621515712D+02
 0.371955374008666D+02 0.140991256164760D+02 0.566186441588496D+01 0.339509344602801D+02
 0.634096932469569D+02 -.191635118619182D+02 -.125910733442554D+02 -.591186424305470D+02
0.251544058999D-03 0.000000000000D+00 0.000000000000D+00 0.112916289156D-03 0.666395436096D-06  6 -1 2 25 24 21 21 4 0.72863619D-02 0.11819996D+00 0.24697289D+05 0.24697289D+05 0.24697289D+05 0.12238653D+01  1  2  1  2  6  2        2 0.233725217657D+00 0.100000000000D+01
  </mgrwgt>
  </event>
  <event>
  6     66 -.43535451E-03 0.10913757E+02 0.75467711E-02 0.12393040E+00
       -1 -1    0    0    0  501 0.00000000E+00 0.00000000E+00 0.19346094E+03 0.19346121E+03 0.32000000E+00 0.0000E+00 0.9000E+01
        2 -1    0    0  502    0 0.00000000E+00 0.00000000E+00 -.78606744E+02 0.78607395E+02 0.32000000E+00 0.0000E+00 0.9000E+01
       25  1    1    2    0    0 -.38843836E+02 -.25354174E+02 0.69885347E+02 0.15053451E+03 0.12500000E+03 0.0000E+00 0.9000E+01
       24  1    1    2    0    0 0.35869429E+02 0.19888906E+02 0.32127816E+02 0.95820651E+02 0.80419002E+02 0.0000E+00 0.9000E+01
       21  1    1    2  502  503 -.73976152E+01 -.37648925E+01 0.55504206E+01 0.10013431E+02 0.75000000E+00 0.0000E+00 0.9000E+01
       21  1    1    2  503  501 0.10372022E+02 0.92301605E+01 0.72906148E+01 0.15700009E+02 0.75000000E+00 0.0000E+00 0.9000E+01
#aMCatNLO 2  0  0  5  2 0.46266068D+01 0.00000000D+00  -5  6  0 0.00000000D+00 0.00000000D+00 0.00000000D+00 0.00000000D+00 0.00000000D+00
  <mgrwgt>
 -.3074320112D+00    1    2    0
 0.123318528235652D+03 0.000000000000000D+00 0.000000000000000D+00 0.123318528235652D+03
 0.123318528235652D+03 -.000000000000000D+00 -.000000000000000D+00 -.123318528235652D+03
 0.136201068826212D+03 -.428650197353434D+02 -.327428215575634D+02 0.402850703620340D+01
 0.889786019582706D+02 0.331899911649107D+02 0.149656242230159D+02 -.111548299030708D+02
 0.214573856868205D+02 0.967502857043269D+01 0.177771973345475D+02 0.712632286686742D+01
 0.000000000000000D+00 0.000000000000000D+00 0.000000000000000D+00 -.000000000000000D+00
 0.123318528235652D+03 0.000000000000000D+00 0.000000000000000D+00 0.123318528235652D+03
 0.123318528235652D+03 -.000000000000000D+00 -.000000000000000D+00 -.123318528235652D+03
 0.133759623577314D+03 -.392504093226025D+02 -.261012243646436D+02 0.669091579826667D+01
 0.905420401550134D+02 0.355936639978232D+02 0.193822071785394D+02 -.938435981619167D+01
 0.753558939733737D+01 -.634176391571261D+01 -.400932081756708D+01 0.701772459171835D+00
 0.147998033416382D+02 0.999850924049191D+01 0.107283380036712D+02 0.199167155875315D+01
-.224534941901D-03 0.000000000000D+00 0.000000000000D+00 0.602104613957D-04 0.000000000000D+00  6 -1 2 25 24 21 21 4 0.29763292D-01 0.12093416D-01 0.15106203D+05 0.15106203D+05 0.15106203D+05 0.12474734D+01  1  2 13  3  6  5       21 -.307432011237D+00 0.100000000000D+01
  </mgrwgt>
  </event>
  <event>
  5     66 -.43535451E-03 0.32809386E+02 0.75467711E-02 0.11475280E+00
       -1 -1    0    0    0  501 0.00000000E+00 0.00000000E+00 0.30927378E+03 0.30927395E+03 0.32000000E+00 0.0000E+00 0.9000E+01
        2 -1    0    0  502    0 0.00000000E+00 0.00000000E+00 -.12174364E+04 0.12174364E+04 0.32000000E+00 0.0000E+00 0.9000E+01
       25  1    1    2    0    0 -.27644432E+02 0.76069403E+02 -.41641766E+03 0.44224364E+03 0.12500000E+03 0.0000E+00 0.9000E+01
       24  1    1    2    0    0 0.51003778E+02 -.99108409E+02 -.78117890E+03 0.79317814E+03 0.80419002E+02 0.0000E+00 0.9000E+01
       21  1    1    2  502  501 -.23359346E+02 0.23039006E+02 0.28943397E+03 0.29128859E+03 0.75000000E+00 0.0000E+00 0.9000E+01
#aMCatNLO 1  0  0  2  5 0.73138563D+02 0.00000000D+00  -5  6  0 0.00000000D+00 0.00000000D+00 0.00000000D+00 0.00000000D+00 0.00000000D+00
  <mgrwgt>
 -.6216929678D+00    7    4    0
 0.613613326234047D+03 0.000000000000000D+00 0.000000000000000D+00 0.613613326234047D+03
 0.613613326234047D+03 0.000000000000000D+00 0.000000000000000D+00 -.613613326234047D+03
 0.242011612087719D+03 -.276444281427066D+02 0.760693991650654D+02 -.190771728745707D+03
 0.408658023544487D+03 0.510037849797682D+02 -.991084150903710D+02 -.384851010429918D+03
 0.576557016835886D+03 -.233593568370616D+02 0.230390159253055D+02 0.575622739175624D+03
 0.000000000000000D+00 0.000000000000000D+00 -.000000000000000D+00 -.000000000000000D+00
 0.637955583310270D+03 0.000000000000000D+00 0.000000000000000D+00 0.637955583310270D+03
 0.659062122251776D+03 0.000000000000000D+00 0.000000000000000D+00 -.659062122251776D+03
 0.246238589630249D+03 -.366283000500210D+02 0.852816402862565D+02 -.190771728745707D+03
 0.403605307664996D+03 0.360580262337030D+02 -.837827365045259D+02 -.384851010429918D+03
 0.579088709180606D+03 -.446233996090595D+02 0.448435887473509D+02 0.575622739175624D+03
 0.680850990861947D+02 0.451936734253775D+02 -.463424925290815D+02 -.211065389415059D+02
 0.613613326234047D+03 0.000000000000000D+00 0.000000000000000D+00 0.613613326234047D+03
 0.613613326234047D+03 0.000000000000000D+00 0.000000000000000D+00 -.613613326234047D+03
 0.242011612087719D+03 -.276444281427066D+02 0.760693991650654D+02 -.190771728745707D+03
 0.408658023544487D+03 0.510037849797682D+02 -.991084150903710D+02 -.384851010429918D+03
 0.000000000000000D+00 0.000000000000000D+00 -.000000000000000D+00 -.000000000000000D+00
 0.576557016835886D+03 -.233593568370616D+02 0.230390159253055D+02 0.575622739175624D+03
 0.637955583310270D+03 0.000000000000000D+00 0.000000000000000D+00 0.637955583310270D+03
 0.659062122251776D+03 0.000000000000000D+00 0.000000000000000D+00 -.659062122251776D+03
 0.246238589630249D+03 -.366283000500210D+02 0.852816402862565D+02 -.190771728745707D+03
 0.403605307664996D+03 0.360580262337030D+02 -.837827365045259D+02 -.384851010429918D+03
 0.680850990861947D+02 0.451936734253775D+02 -.463424925290815D+02 -.211065389415059D+02
 0.579088709180606D+03 -.446233996090595D+02 0.448435887473509D+02 0.575622739175624D+03
0.264253129201D-01 0.000000000000D+00 0.000000000000D+00 0.126620336275D-03 0.000000000000D+00  6 -1 2 25 24 21 21 2 0.47580598D-01 0.18729792D+00 0.25467295D+05 0.25467295D+05 0.25467295D+05 0.12224363D+01  1  2  2  2  6  2        2 0.415538319748D+00 0.100000000000D+01
0.953168476438D-02 0.139450207457D-02 -.101480159558D-03 0.126620336275D-03 0.000000000000D+00  6 -1 2 25 24 21 21 4 0.47580598D-01 0.18729792D+00 0.25467295D+05 0.25467295D+05 0.25467295D+05 0.12224363D+01  1  2  3  2  6  2        2 0.223981981001D+00 0.100000000000D+01
0.112785384182D-02 0.000000000000D+00 0.000000000000D+00 0.126620336275D-03 0.000000000000D+00  6 -1 2 25 24 21 21 4 0.47580598D-01 0.18729792D+00 0.25467295D+05 0.25467295D+05 0.25467295D+05 0.12224363D+01  1  2 15  2  6  2        2 0.265030730678D-01 0.100000000000D+01
-.906139941951D-01 0.000000000000D+00 0.000000000000D+00 0.126620336275D-03 0.000000000000D+00  6 -1 2 25 24 21 21 4 0.47580598D-01 0.18729792D+00 0.25467295D+05 0.25467295D+05 0.25467295D+05 0.12224363D+01  1  2  4  2  6  2        2 -.212930897610D+01 0.100000000000D+01
-.216646968008D+00 0.000000000000D+00 -.790239103909D-01 0.126620336275D-03 0.000000000000D+00  6 -1 2 25 24 21 21 4 0.47580598D-01 0.20589703D+00 0.25467295D+05 0.25467295D+05 0.25467295D+05 0.12224363D+01  1  2  5  2  6  2        2 -.437291105120D+01 0.100000000000D+01
0.223479133216D+00 0.000000000000D+00 0.786710635109D-01 0.126620336275D-03 0.000000000000D+00  6 -1 2 25 24 21 21 4 0.47580598D-01 0.18729792D+00 0.25467295D+05 0.25467295D+05 0.25467295D+05 0.12224363D+01  1  2  6  2  6  2        2 0.525146395493D+01 0.100000000000D+01
-.312054186177D-02 0.000000000000D+00 -.122406028519D-02 0.126620336275D-03 0.000000000000D+00  6 -1 21 25 24 -2 21 4 0.47580598D-01 0.20589703D+00 0.25467295D+05 0.25467295D+05 0.25467295D+05 0.12224363D+01  3  4  5  5  5  2        2 -.369602692908D-01 0.100000000000D+01
  </mgrwgt>
  </event>
  <event>
  5     66 -.43535451E-03 0.21672534E+03 0.75467711E-02 0.10963586E+00
       -1 -1    0    0    0  501 0.00000000E+00 0.00000000E+00 0.21404648E+04 0.21404648E+04 0.32000000E+00 0.0000E+00 0.9000E+01
        2 -1    0    0  502    0 0.00000000E+00 0.00000000E+00 -.10992636E+03 0.10992683E+03 0.32000000E+00 0.0000E+00 0.9000E+01
       25  1    1    2    0    0 0.52895113E+02 -.13323254E+03 0.13635930E+04 0.13767933E+04 0.12500000E+03 0.0000E+00 0.9000E+01
       24  1    1    2    0    0 -.50167636E+02 -.83475488E+02 0.64330496E+03 0.65558633E+03 0.80419002E+02 0.0000E+00 0.9000E+01
       21  1    1    2  502  501 -.27274772E+01 0.21670802E+03 0.23640423E+02 0.21801202E+03 0.75000000E+00 0.0000E+00 0.9000E+01
#aMCatNLO 1  0  0  2  5 0.23735701D+02 0.00000000D+00  -5  6  0 0.00000000D+00 0.00000000D+00 0.00000000D+00 0.00000000D+00 0.00000000D+00
  <mgrwgt>
 -.6408251697D-01    7    4    0
 0.485071192901569D+03 0.000000000000000D+00 0.000000000000000D+00 0.485071192901569D+03
 0.485071192901569D+03 0.000000000000000D+00 0.000000000000000D+00 -.485071192901569D+03
 0.339637006156536D+03 0.528951140539847D+02 -.133232638143597D+03 0.281388462793854D+03
 0.174274054535871D+03 -.501676349304086D+02 -.834755406176764D+02 0.120080275874421D+03
 0.456231325110731D+03 -.272747912357614D+01 0.216708178761274D+03 -.401468738668275D+03
 0.000000000000000D+00 0.000000000000000D+00 -.000000000000000D+00 -.000000000000000D+00
 0.493849965411108D+03 0.000000000000000D+00 0.000000000000000D+00 0.493849965411108D+03
 0.501530016735063D+03 0.000000000000000D+00 0.000000000000000D+00 -.501530016735063D+03
 0.337753686802077D+03 0.448161645971190D+02 -.131394814759607D+03 0.281388462793854D+03
 0.175070020045894D+03 -.543341124904627D+02 -.825277379448632D+02 0.120080275874421D+03
 0.457608996769067D+03 -.136264623084009D+02 0.219187511781704D+03 -.401468738668275D+03
 0.249472785291333D+02 0.231444102017446D+02 -.526495907723443D+01 -.768005132395496D+01
 0.485071192901569D+03 0.000000000000000D+00 0.000000000000000D+00 0.485071192901569D+03
 0.485071192901569D+03 0.000000000000000D+00 0.000000000000000D+00 -.485071192901569D+03
 0.339637006156536D+03 0.528951140539847D+02 -.133232638143597D+03 0.281388462793854D+03
 0.174274054535871D+03 -.501676349304086D+02 -.834755406176764D+02 0.120080275874421D+03
 0.000000000000000D+00 0.000000000000000D+00 -.000000000000000D+00 -.000000000000000D+00
 0.456231325110731D+03 -.272747912357614D+01 0.216708178761274D+03 -.401468738668275D+03
 0.493849965411108D+03 0.000000000000000D+00 0.000000000000000D+00 0.493849965411108D+03
 0.501530016735063D+03 0.000000000000000D+00 0.000000000000000D+00 -.501530016735063D+03
 0.337753686802077D+03 0.448161645971190D+02 -.131394814759607D+03 0.281388462793854D+03
 0.175070020045894D+03 -.543341124904627D+02 -.825277379448632D+02 0.120080275874421D+03
 0.249472785291333D+02 0.231444102017446D+02 -.526495907723443D+01 -.768005132395496D+01
 0.457608996769067D+03 -.136264623084009D+02 0.219187511781704D+03 -.401468738668275D+03
0.203679502231D-01 0.000000000000D+00 0.000000000000D+00 0.326289470054D-05 0.000000000000D+00  6 -1 2 25 24 21 21 2 0.32930231D+00 0.16911786D-01 0.71081277D+05 0.71081277D+05 0.71081277D+05 0.11774405D+01  1  2  2  2  6  2        2 0.276029623282D-01 0.100000000000D+01
-.125713570550D-02 0.107484626300D-02 -.782182918610D-04 0.326289470054D-05 0.000000000000D+00  6 -1 2 25 24 21 21 4 0.32930231D+00 0.16911786D-01 0.71081277D+05 0.71081277D+05 0.71081277D+05 0.11774405D+01  1  2  3  2  6  2        2 -.236193798906D-02 0.100000000000D+01
0.795590832509D-03 0.000000000000D+00 0.000000000000D+00 0.326289470054D-05 0.000000000000D+00  6 -1 2 25 24 21 21 4 0.32930231D+00 0.16911786D-01 0.71081277D+05 0.71081277D+05 0.71081277D+05 0.11774405D+01  1  2 15  2  6  2        2 0.149477594410D-02 0.100000000000D+01
-.535881362743D-01 0.000000000000D+00 0.000000000000D+00 0.326289470054D-05 0.000000000000D+00  6 -1 2 25 24 21 21 4 0.32930231D+00 0.16911786D-01 0.71081277D+05 0.71081277D+05 0.71081277D+05 0.11774405D+01  1  2  4  2  6  2        2 -.100682730015D+00 0.100000000000D+01
-.680373825270D+00 0.000000000000D+00 -.126466392968D+00 0.326289470054D-05 0.000000000000D+00  6 -1 2 25 24 21 21 4 0.32930231D+00 0.17848262D-01 0.71081277D+05 0.71081277D+05 0.71081277D+05 0.11774405D+01  1  2  5  2  6  2        2 -.120008240325D+01 0.100000000000D+01
0.686376125957D+00 0.000000000000D+00 0.126282940924D+00 0.326289470054D-05 0.000000000000D+00  6 -1 2 25 24 21 21 4 0.32930231D+00 0.16911786D-01 0.71081277D+05 0.71081277D+05 0.71081277D+05 0.11774405D+01  1  2  6  2  6  2        2 0.128958062330D+01 0.100000000000D+01
-.622380835782D-02 0.000000000000D+00 -.118078232715D-02 0.326289470054D-05 0.000000000000D+00  6 -1 21 25 24 -2 21 4 0.32930231D+00 0.17848262D-01 0.71081277D+05 0.71081277D+05 0.71081277D+05 0.11774405D+01  3  4  5  5  5  2        2 -.796338072916D-01 0.100000000000D+01
  </mgrwgt>
  </event>
  <event>
  5     66 -.43535451E-03 0.40300691E+02 0.75467711E-02 0.11878076E+00
       -1 -1    0    0    0  501 0.00000000E+00 0.00000000E+00 0.24448438E+03 0.24448459E+03 0.32000000E+00 0.0000E+00 0.9000E+01
        2 -1    0    0  502    0 0.00000000E+00 0.00000000E+00 -.24844854E+03 0.24844875E+03 0.32000000E+00 0.0000E+00 0.9000E+01
       25  1    1    2    0    0 -.24042652E+01 -.82141645E+02 0.12287286E+03 0.19358660E+03 0.12500000E+03 0.0000E+00 0.9000E+01
       24  1    1    2    0    0 -.35085989E+02 0.96926895E+02 0.32723773E+02 0.13477355E+03 0.80419002E+02 0.0000E+00 0.9000E+01
       21  1    1    2  502  501 0.37490254E+02 -.14785250E+02 -.15956080E+03 0.16457319E+03 0.75000000E+00 0.0000E+00 0.9000E+01
#aMCatNLO 1  0  0  2  5 0.10628421D+01 0.00000000D+00  -5  6  0 0.00000000D+00 0.00000000D+00 0.00000000D+00 0.00000000D+00 0.00000000D+00
  <mgrwgt>
 -.1161698780D+01   11    4    0
 0.246458699984467D+03 0.000000000000000D+00 0.000000000000000D+00 0.246458699984467D+03
 0.246458699984467D+03 0.000000000000000D+00 0.000000000000000D+00 -.246458699984467D+03
 0.194581429659157D+03 -.240442126362150D+01 -.821415830693429D+02 0.124434367670072D+03
 0.135041258162616D+03 -.350860971288450D+02 0.969269376275398D+02 0.338091703859166D+02
 0.163294712147162D+03 0.374905183924665D+02 -.147853545581969D+02 -.158243538055988D+03
 0.000000000000000D+00 0.000000000000000D+00 0.000000000000000D+00 -.000000000000000D+00
 0.246465299614604D+03 0.000000000000000D+00 0.000000000000000D+00 0.246465299614604D+03
 0.293318812408765D+03 0.000000000000000D+00 0.000000000000000D+00 -.293318812408765D+03
 0.194686407045279D+03 -.275039763642200D+01 -.823791268683453D+02 0.124434367670072D+03
 0.134985644296508D+03 -.353260936542767D+02 0.967621584955519D+02 0.338091703859166D+02
 0.163246494490477D+03 0.372002926620315D+02 -.149846205428007D+02 -.158243538055988D+03
 0.468655661911048D+02 0.876198628667117D+00 0.601588915594011D+00 -.468535127941607D+02
 0.246458699984467D+03 0.000000000000000D+00 0.000000000000000D+00 0.246458699984467D+03
 0.246458699984467D+03 0.000000000000000D+00 0.000000000000000D+00 -.246458699984467D+03
 0.194581429659157D+03 -.240442126362150D+01 -.821415830693429D+02 0.124434367670072D+03
 0.135041258162616D+03 -.350860971288450D+02 0.969269376275398D+02 0.338091703859166D+02
 0.000000000000000D+00 0.000000000000000D+00 0.000000000000000D+00 -.000000000000000D+00
 0.163294712147162D+03 0.374905183924665D+02 -.147853545581969D+02 -.158243538055988D+03
 0.246465299614604D+03 0.000000000000000D+00 0.000000000000000D+00 0.246465299614604D+03
 0.293318812408765D+03 0.000000000000000D+00 0.000000000000000D+00 -.293318812408765D+03
 0.194686407045279D+03 -.275039763642200D+01 -.823791268683453D+02 0.124434367670072D+03
 0.134985644296508D+03 -.353260936542767D+02 0.967621584955519D+02 0.338091703859166D+02
 0.468655661911048D+02 0.876198628667117D+00 0.601588915594011D+00 -.468535127941607D+02
 0.163246494490477D+03 0.372002926620315D+02 -.149846205428007D+02 -.158243538055988D+03
0.191781565413D-04 0.000000000000D+00 0.000000000000D+00 0.189648498921D-04 0.000000000000D+00  6 -1 2 25 24 21 21 2 0.37613014D-01 0.38222885D-01 0.25701549D+05 0.25701549D+05 0.25701549D+05 0.12220111D+01  1  2  2  2  6  2        2 0.300300613732D-02 0.100000000000D+01
0.194029673998D-05 0.101205912544D-05 -.736491708432D-07 0.189648498921D-04 0.000000000000D+00  6 -1 2 25 24 21 21 4 0.37613014D-01 0.38222885D-01 0.25701549D+05 0.25701549D+05 0.25701549D+05 0.12220111D+01  1  2  3  2  6  2        2 0.453699009037D-03 0.100000000000D+01
0.895300330074D-06 0.000000000000D+00 0.000000000000D+00 0.189648498921D-04 0.000000000000D+00  6 -1 2 25 24 21 21 4 0.37613014D-01 0.38222885D-01 0.25701549D+05 0.25701549D+05 0.25701549D+05 0.12220111D+01  1  2 15  2  6  2        2 0.209347809628D-03 0.100000000000D+01
0.197682006704D-05 0.000000000000D+00 0.000000000000D+00 0.189563651285D-04 0.000000000000D+00  6 -1 2 25 24 21 21 4 0.37613014D-01 0.45544450D-01 0.25853449D+05 0.25853449D+05 0.25853449D+05 0.12217377D+01  1  2 12  2  6  2        2 0.383055580277D-03 0.100000000000D+01
-.141771199385D+00 0.000000000000D+00 0.000000000000D+00 0.189648498921D-04 0.000000000000D+00  6 -1 2 25 24 21 21 4 0.37613014D-01 0.38222885D-01 0.25701549D+05 0.25701549D+05 0.25701549D+05 0.12220111D+01  1  2  4  2  6  2        2 -.331503173435D+02 0.100000000000D+01
-.126785858217D+00 0.000000000000D+00 -.387832330016D-04 0.189648498921D-04 0.000000000000D+00  6 -1 2 25 24 21 21 4 0.37613014D-01 0.45490876D-01 0.25701549D+05 0.25701549D+05 0.25701549D+05 0.12220111D+01  1  2  5  2  6  2        2 -.246200854762D+02 0.100000000000D+01
0.124896048261D+00 0.000000000000D+00 0.382029393579D-04 0.189648498921D-04 0.000000000000D+00  6 -1 2 25 24 21 21 4 0.37613014D-01 0.38222885D-01 0.25701549D+05 0.25701549D+05 0.25701549D+05 0.12220111D+01  1  2  6  2  6  2        2 0.292044057803D+02 0.100000000000D+01
0.141510137676D+00 0.000000000000D+00 0.000000000000D+00 0.189648498921D-04 0.758898731562D-04  6 -1 2 25 24 21 21 4 0.37614021D-01 0.45490345D-01 0.25853449D+05 0.25853449D+05 0.25853449D+05 0.12217377D+01  1  2 11  2  6  2        2 0.274543945012D+02 0.100000000000D+01
0.510550430779D-07 0.000000000000D+00 0.000000000000D+00 0.189563651285D-04 0.000000000000D+00  6 -1 21 25 24 -2 21 4 0.37613014D-01 0.45544450D-01 0.25853449D+05 0.25853449D+05 0.25853449D+05 0.12217377D+01  3  4 12  5  5  2        2 0.335978587189D-04 0.100000000000D+01
-.325681086134D-02 0.000000000000D+00 -.996351332554D-06 0.189648498921D-04 0.000000000000D+00  6 -1 21 25 24 -2 21 4 0.37613014D-01 0.45490876D-01 0.25701549D+05 0.25701549D+05 0.25701549D+05 0.12220111D+01  3  4  5  5  5  2        2 -.215062696620D+01 0.100000000000D+01
0.317815063021D-02 0.000000000000D+00 0.000000000000D+00 0.189648498921D-04 0.340878747577D-05  6 -1 21 25 24 -2 21 4 0.37614021D-01 0.45490345D-01 0.25853449D+05 0.25853449D+05 0.25853449D+05 0.12217377D+01  3  4 11  5  5  2        2 0.209644801847D+01 0.100000000000D+01
  </mgrwgt>
  </event>
  <event>
  5     66 0.43535451E-03 0.68707568E+02 0.75467711E-02 0.11112635E+00
       -3 -1    0    0    0  501 0.00000000E+00 0.00000000E+00 0.36022164E+03 0.36022199E+03 0.50000000E+00 0.0000E+00 0.9000E+01
        4 -1    0    0  502    0 0.00000000E+00 0.00000000E+00 -.21761554E+03 0.21762106E+03 0.15500000E+01 0.0000E+00 0.9000E+01
       25  1    1    2    0    0 0.11118334E+03 -.17360590E+03 0.56603525E+02 0.24764834E+03 0.12500000E+03 0.0000E+00 0.9000E+01
       24  1    1    2    0    0 -.12448130E+03 0.10580110E+03 0.15007174E+03 0.23596230E+03 0.80419002E+02 0.0000E+00 0.9000E+01
       21  1    1    2  502  501 0.13297958E+02 0.67804800E+02 -.64069159E+02 0.94232405E+02 0.75000000E+00 0.0000E+00 0.9000E+01
#aMCatNLO 1  0  0  5  1 0.17570175D+02 0.00000000D+00  -5  6  0 0.00000000D+00 0.00000000D+00 0.00000000D+00 0.00000000D+00 0.00000000D+00
  <mgrwgt>
 0.2318071025D-01    9    2    0
 0.279984861677579D+03 0.000000000000000D+00 0.000000000000000D+00 0.279984861677579D+03
 0.279984861677579D+03 -.000000000000000D+00 -.000000000000000D+00 -.279984861677579D+03
 0.241138182077518D+03 0.111183216340184D+03 -.173606532980638D+03 -.465692670596080D+01
 0.205275557813592D+03 -.124481406007101D+03 0.105800554096397D+03 0.947705702879391D+02
 0.113555983464049D+03 0.132981896669172D+02 0.678059788842414D+02 -.901136435819783D+02
 0.000000000000000D+00 0.000000000000000D+00 0.000000000000000D+00 0.000000000000000D+00
 0.279984861677579D+03 0.000000000000000D+00 0.000000000000000D+00 0.279984861677579D+03
 0.279984861677579D+03 -.000000000000000D+00 -.000000000000000D+00 -.279984861677579D+03
 0.236500965610879D+03 0.112803786651660D+03 -.165343426567458D+03 -.156385339100759D+02
 0.204077324986182D+03 -.123092522512117D+03 0.112882315395668D+03 0.853589619879595D+02
 0.201341252183343D+02 0.146194487591352D+02 -.129970536486345D+02 0.476773664762424D+01
 0.992573075397629D+02 -.433071289867806D+01 0.654581648204248D+02 -.744881647255079D+02
0.269707315589D-02 0.000000000000D+00 0.000000000000D+00 0.351205432917D-05 0.000000000000D+00  6 -3 4 25 24 21 21 2 0.55419166D-01 0.33479765D-01 0.60585007D+05 0.60585007D+05 0.60585007D+05 0.11841099D+01  1  2  2  3  6  5       21 0.224530260397D-01 0.100000000000D+01
0.964766538633D-04 0.142328460690D-03 -.103574710743D-04 0.351205432917D-05 0.000000000000D+00  6 -3 4 25 24 21 21 4 0.55419166D-01 0.33479765D-01 0.60585007D+05 0.60585007D+05 0.60585007D+05 0.11841099D+01  1  2  3  3  6  5       21 0.112612969660D-02 0.100000000000D+01
0.723718993704D-04 0.000000000000D+00 0.000000000000D+00 0.351205432917D-05 0.000000000000D+00  6 -3 4 25 24 21 21 4 0.55419166D-01 0.33479765D-01 0.60585007D+05 0.60585007D+05 0.60585007D+05 0.11841099D+01  1  2 15  3  6  5       21 0.844765462078D-03 0.100000000000D+01
0.211991873644D-03 0.000000000000D+00 0.000000000000D+00 0.349787350428D-05 0.000000000000D+00  6 -3 4 25 24 21 21 4 0.55419166D-01 0.33479765D-01 0.64139208D+05 0.64139208D+05 0.64139208D+05 0.11817169D+01  1  2 12  3  6  5       21 0.246085419679D-02 0.100000000000D+01
-.454255105758D-03 0.000000000000D+00 0.000000000000D+00 0.351205432917D-05 0.000000000000D+00  6 -3 4 25 24 21 21 4 0.55419166D-01 0.33479765D-01 0.60585007D+05 0.60585007D+05 0.60585007D+05 0.11841099D+01  1  2  4  3  6  5       21 -.530232075786D-02 0.100000000000D+01
0.344206905030D-04 0.000000000000D+00 0.000000000000D+00 0.349787350428D-05 0.000000000000D+00  6 -3 4 25 24 3 -3 4 0.55419166D-01 0.33479765D-01 0.64139208D+05 0.64139208D+05 0.64139208D+05 0.11817169D+01  1  2 12  6  6  5       21 0.399563904146D-03 0.100000000000D+01
0.344206905030D-04 0.000000000000D+00 0.000000000000D+00 0.349787350428D-05 0.000000000000D+00  6 -3 4 25 24 4 -4 4 0.55419166D-01 0.33479765D-01 0.64139208D+05 0.64139208D+05 0.64139208D+05 0.11817169D+01  1  2 12  7  6  5       21 0.399563904146D-03 0.100000000000D+01
0.344206905030D-04 0.000000000000D+00 0.000000000000D+00 0.349787350428D-05 0.000000000000D+00  6 -3 4 25 24 1 -1 4 0.55419166D-01 0.33479765D-01 0.64139208D+05 0.64139208D+05 0.64139208D+05 0.11817169D+01  1  2 12  8  6  5       21 0.399563904146D-03 0.100000000000D+01
0.344206905030D-04 0.000000000000D+00 0.000000000000D+00 0.349787350428D-05 0.000000000000D+00  6 -3 4 25 24 2 -2 4 0.55419166D-01 0.33479765D-01 0.64139208D+05 0.64139208D+05 0.64139208D+05 0.11817169D+01  1  2 12  8  6  5       21 0.399563904146D-03 0.100000000000D+01
  </mgrwgt>
  </event>
  <event>
  5     66 0.43535451E-03 0.12263917E+03 0.75467711E-02 0.11701639E+00
       -1 -1    0    0    0  501 0.00000000E+00 0.00000000E+00 0.16024274E+03 0.16024306E+03 0.32000000E+00 0.0000E+00 0.9000E+01
        2 -1    0    0  502    0 -.00000000E+00 -.00000000E+00 -.34018424E+03 0.34018439E+03 0.32000000E+00 0.0000E+00 0.9000E+01
       25  1    1    2    0    0 -.43183726E+02 -.88133378E+02 -.12358924E+03 0.20132468E+03 0.12500000E+03 0.0000E+00 0.9000E+01
       24  1    1    2    0    0 0.32354396E+02 -.37396654E+02 0.72388237E+02 0.11896466E+03 0.80419002E+02 0.0000E+00 0.9000E+01
       21  1    1    2  502  501 0.10829330E+02 0.12553003E+03 -.12874049E+03 0.18013811E+03 0.75000000E+00 0.0000E+00 0.9000E+01
#aMCatNLO 1  0  0  5  1 0.41233937D+02 0.00000000D+00  -5  6  0 0.00000000D+00 0.00000000D+00 0.00000000D+00 0.00000000D+00 0.00000000D+00
  <mgrwgt>
 0.3684986607D-01   20    2    0
 0.233478420063337D+03 0.000000000000000D+00 0.000000000000000D+00 0.233478420063337D+03
 0.233478420063337D+03 -.000000000000000D+00 -.000000000000000D+00 -.233478420063337D+03
 0.168130462443526D+03 -.431837793643975D+02 -.881339963082467D+02 -.548672242419724D+02
 0.155386955363350D+03 0.323543466524938D+02 -.373972246430678D+02 0.123420151451890D+03
 0.143439422319799D+03 0.108294327119037D+02 0.125531220951315D+03 -.685529272099173D+02
 0.000000000000000D+00 0.000000000000000D+00 0.000000000000000D+00 0.000000000000000D+00
 0.233478420063337D+03 0.000000000000000D+00 0.000000000000000D+00 0.233478420063337D+03
 0.233478420063337D+03 -.000000000000000D+00 -.000000000000000D+00 -.233478420063337D+03
 0.165143136770378D+03 -.424183321992164D+02 -.792611846130156D+02 -.597126898534825D+02
 0.150238337270387D+03 0.330562924844046D+02 -.292604995102182D+02 0.118976664632179D+03
 0.958722267192062D+02 -.501471533595632D+00 0.567421331411403D+02 -.772758869828938D+02
 0.557031393667036D+02 0.986351124840750D+01 0.517795509820936D+02 0.180119122041973D+02
0.118095063192D-03 0.000000000000D+00 0.000000000000D+00 0.110684125288D-05 0.000000000000D+00  6 -1 2 25 24 21 21 2 0.24652766D-01 0.52336072D-01 0.35972773D+05 0.35972773D+05 0.35972773D+05 0.12067086D+01  1  2  2  3  6  5       21 0.264396460503D-01 0.100000000000D+01
-.112033175226D-04 0.623204770047D-05 -.453516137800D-06 0.110684125288D-05 0.000000000000D+00  6 -1 2 25 24 21 21 4 0.24652766D-01 0.52336072D-01 0.35972773D+05 0.35972773D+05 0.35972773D+05 0.12067086D+01  1  2  3  3  6  5       21 -.365237499553D-02 0.100000000000D+01
0.586217751740D-05 0.000000000000D+00 0.000000000000D+00 0.110684125288D-05 0.000000000000D+00  6 -1 2 25 24 21 21 4 0.24652766D-01 0.52336072D-01 0.35972773D+05 0.35972773D+05 0.35972773D+05 0.12067086D+01  1  2 15  3  6  5       21 0.191111878608D-02 0.100000000000D+01
0.632627849706D-04 0.000000000000D+00 0.000000000000D+00 0.111773043471D-05 0.000000000000D+00  6 -1 2 25 24 21 21 4 0.24652766D-01 0.52336072D-01 0.31535365D+05 0.31535365D+05 0.31535365D+05 0.12126299D+01  1  2 12  3  6  5       21 0.210048317680D-01 0.100000000000D+01
0.491312846955D-04 0.000000000000D+00 0.000000000000D+00 0.111773043471D-05 0.000000000000D+00  6 -1 2 25 24 21 21 4 0.24652766D-01 0.52336072D-01 0.31535365D+05 0.31535365D+05 0.31535365D+05 0.12126299D+01  1  2 12  3  6  5       21 0.163128191409D-01 0.100000000000D+01
-.123947212710D-03 0.000000000000D+00 0.000000000000D+00 0.110684125288D-05 0.000000000000D+00  6 -1 2 25 24 21 21 4 0.24652766D-01 0.52336072D-01 0.35972773D+05 0.35972773D+05 0.35972773D+05 0.12067086D+01  1  2  4  3  6  5       21 -.404078255884D-01 0.100000000000D+01
-.105224752793D-03 0.000000000000D+00 0.000000000000D+00 0.110684125288D-05 0.000000000000D+00  6 -1 2 25 24 21 21 4 0.24652766D-01 0.52336072D-01 0.35972773D+05 0.35972773D+05 0.35972773D+05 0.12067086D+01  1  2  5  3  6  5       21 -.343041474308D-01 0.100000000000D+01
0.145524443769D-03 0.000000000000D+00 -.000000000000D+00 0.110684125288D-05 0.000000000000D+00  6 -1 2 25 24 21 21 4 0.24652766D-01 0.52336072D-01 0.35972773D+05 0.35972773D+05 0.35972773D+05 0.12067086D+01  1  2  6  3  6  5       21 0.474421829592D-01 0.100000000000D+01
0.145799856629D-05 0.000000000000D+00 0.000000000000D+00 0.111773043471D-05 0.000000000000D+00  6 -1 2 25 24 1 -1 4 0.24652766D-01 0.52336072D-01 0.31535365D+05 0.31535365D+05 0.31535365D+05 0.12126299D+01  1  2 12  6  6  5       21 0.484092102762D-03 0.100000000000D+01
0.115933476523D-05 0.000000000000D+00 0.000000000000D+00 0.111773043471D-05 0.000000000000D+00  6 -1 2 25 24 1 -1 4 0.24652766D-01 0.52336072D-01 0.31535365D+05 0.31535365D+05 0.31535365D+05 0.12126299D+01  1  2 12  6  6  5       21 0.384928227832D-03 0.100000000000D+01
-.105247761803D-05 0.000000000000D+00 0.000000000000D+00 0.110684125288D-05 0.000000000000D+00  6 -1 2 25 24 1 -1 4 0.24652766D-01 0.52336072D-01 0.35972773D+05 0.35972773D+05 0.35972773D+05 0.12067086D+01  1  2  5  6  6  5       21 -.343116485601D-03 0.100000000000D+01
0.145799856629D-05 0.000000000000D+00 0.000000000000D+00 0.111773043471D-05 0.000000000000D+00  6 -1 2 25 24 2 -2 4 0.24652766D-01 0.52336072D-01 0.31535365D+05 0.31535365D+05 0.31535365D+05 0.12126299D+01  1  2 12  7  6  5       21 0.484092102762D-03 0.100000000000D+01
0.115933476523D-05 0.000000000000D+00 0.000000000000D+00 0.111773043471D-05 0.000000000000D+00  6 -1 2 25 24 2 -2 4 0.24652766D-01 0.52336072D-01 0.31535365D+05 0.31535365D+05 0.31535365D+05 0.12126299D+01  1  2 12  7  6  5       21 0.384928227832D-03 0.100000000000D+01
-.105247761803D-05 0.000000000000D+00 0.000000000000D+00 0.110684125288D-05 0.000000000000D+00  6 -1 2 25 24 2 -2 4 0.24652766D-01 0.52336072D-01 0.35972773D+05 0.35972773D+05 0.35972773D+05 0.12067086D+01  1  2  5  7  6  5       21 -.343116485601D-03 0.100000000000D+01
0.145799856629D-05 0.000000000000D+00 0.000000000000D+00 0.111773043471D-05 0.000000000000D+00  6 -1 2 25 24 3 -3 4 0.24652766D-01 0.52336072D-01 0.31535365D+05 0.31535365D+05 0.31535365D+05 0.12126299D+01  1  2 12  8  6  5       21 0.484092102762D-03 0.100000000000D+01
0.145799856629D-05 0.000000000000D+00 0.000000000000D+00 0.111773043471D-05 0.000000000000D+00  6 -1 2 25 24 4 -4 4 0.24652766D-01 0.52336072D-01 0.31535365D+05 0.31535365D+05 0.31535365D+05 0.12126299D+01  1  2 12  8  6  5       21 0.484092102762D-03 0.100000000000D+01
0.115933476523D-05 0.000000000000D+00 0.000000000000D+00 0.111773043471D-05 0.000000000000D+00  6 -1 2 25 24 3 -3 4 0.24652766D-01 0.52336072D-01 0.31535365D+05 0.31535365D+05 0.31535365D+05 0.12126299D+01  1  2 12  8  6  5       21 0.384928227832D-03 0.100000000000D+01
0.115933476523D-05 0.000000000000D+00 0.000000000000D+00 0.111773043471D-05 0.000000000000D+00  6 -1 2 25 24 4 -4 4 0.24652766D-01 0.52336072D-01 0.31535365D+05 0.31535365D+05 0.31535365D+05 0.12126299D+01  1  2 12  8  6  5       21 0.384928227832D-03 0.100000000000D+01
-.105247761803D-05 0.000000000000D+00 0.000000000000D+00 0.110684125288D-05 0.000000000000D+00  6 -1 2 25 24 3 -3 4 0.24652766D-01 0.52336072D-01 0.35972773D+05 0.35972773D+05 0.35972773D+05 0.12067086D+01  1  2  5  8  6  5       21 -.343116485601D-03 0.100000000000D+01
-.105247761803D-05 0.000000000000D+00 0.000000000000D+00 0.110684125288D-05 0.000000000000D+00  6 -1 2 25 24 4 -4 4 0.24652766D-01 0.52336072D-01 0.35972773D+05 0.35972773D+05 0.35972773D+05 0.12067086D+01  1  2  5  8  6  5       21 -.343116485601D-03 0.100000000000D+01
  </mgrwgt>
  </event>
  <event>
  5     66 -.43535451E-03 0.34584041E+02 0.75467711E-02 0.11448028E+00
       -1 -1    0    0    0  501 0.00000000E+00 0.00000000E+00 0.24356307E+02 0.24358409E+02 0.32000000E+00 0.0000E+00 0.9000E+01
        2 -1    0    0  502    0 0.00000000E+00 0.00000000E+00 -.14038129E+04 0.14038130E+04 0.32000000E+00 0.0000E+00 0.9000E+01
       25  1    1    2    0    0 -.61104775E+02 0.38391027E+02 -.90302272E+03 0.91448494E+03 0.12500000E+03 0.0000E+00 0.9000E+01
       24  1    1    2    0    0 0.71194459E+02 -.53122937E+01 -.46497236E+03 0.47724562E+03 0.80419002E+02 0.0000E+00 0.9000E+01
       21  1    1    2  502  501 -.10089684E+02 -.33078734E+02 -.11461554E+02 0.36440830E+02 0.75000000E+00 0.0000E+00 0.9000E+01
#aMCatNLO 1  0  0  1  5 0.62026811D+01 0.00000000D+00  -5  6  0 0.00000000D+00 0.00000000D+00 0.00000000D+00 0.00000000D+00 0.00000000D+00
  <mgrwgt>
 -.5345186997D-01    5    4    0
 0.184914104653672D+03 0.000000000000000D+00 0.000000000000000D+00 0.184914104653672D+03
 0.184914104653672D+03 0.000000000000000D+00 0.000000000000000D+00 -.184914104653672D+03
 0.163212970181797D+03 -.611046444927007D+02 0.383914551478002D+02 -.761957494130692D+02
 0.108643392984375D+03 0.711945461698404D+02 -.531200896178399D+01 -.154690025938038D+02
 0.979718461411717D+02 -.100899016771397D+02 -.330794461860162D+02 0.916647520068730D+02
 0.000000000000000D+00 -.000000000000000D+00 0.000000000000000D+00 0.000000000000000D+00
 0.500796413612651D+03 0.000000000000000D+00 0.000000000000000D+00 0.500796413612651D+03
 0.201024547749965D+03 0.000000000000000D+00 0.000000000000000D+00 -.201024547749965D+03
 0.149250455237091D+03 -.229820382221374D+02 0.177969682534970D+02 -.761957494130692D+02
 0.131330676631276D+03 0.100472971184985D+03 -.211287171894644D+02 -.154690025938038D+02
 0.103749362904286D+03 0.145214211314500D+02 -.463749056159330D+02 0.916647520068730D+02
 0.317490466589963D+03 -.920123540942979D+02 0.497066545519004D+02 0.299771865862686D+03
 0.184914104653672D+03 0.000000000000000D+00 0.000000000000000D+00 0.184914104653672D+03
 0.184914104653672D+03 0.000000000000000D+00 0.000000000000000D+00 -.184914104653672D+03
 0.163212970181797D+03 -.611046444927007D+02 0.383914551478002D+02 -.761957494130692D+02
 0.108643392984375D+03 0.711945461698404D+02 -.531200896178399D+01 -.154690025938038D+02
 0.000000000000000D+00 -.000000000000000D+00 0.000000000000000D+00 0.000000000000000D+00
 0.979718461411717D+02 -.100899016771397D+02 -.330794461860162D+02 0.916647520068730D+02
 0.500796413612651D+03 0.000000000000000D+00 0.000000000000000D+00 0.500796413612651D+03
 0.201024547749965D+03 0.000000000000000D+00 0.000000000000000D+00 -.201024547749965D+03
 0.149250455237091D+03 -.229820382221374D+02 0.177969682534970D+02 -.761957494130692D+02
 0.131330676631276D+03 0.100472971184985D+03 -.211287171894644D+02 -.154690025938038D+02
 0.317490466589963D+03 -.920123540942979D+02 0.497066545519004D+02 0.299771865862686D+03
 0.103749362904286D+03 0.145214211314500D+02 -.463749056159330D+02 0.916647520068730D+02
0.736800053041D-04 0.000000000000D+00 0.000000000000D+00 0.225070738185D-04 0.000000000000D+00  6 -1 2 25 24 21 21 2 0.37472886D-02 0.21597139D+00 0.20514237D+05 0.20514237D+05 0.20514237D+05 0.12326141D+01  1  2  2  1  6  1       -1 0.524479360900D-01 0.100000000000D+01
0.571812317376D-05 0.388820070218D-05 -.282950620759D-06 0.225070738185D-04 0.000000000000D+00  6 -1 2 25 24 21 21 4 0.37472886D-02 0.21597139D+00 0.20514237D+05 0.20514237D+05 0.20514237D+05 0.12326141D+01  1  2  3  1  6  1       -1 0.618424259255D-02 0.100000000000D+01
0.186795576793D-05 0.000000000000D+00 0.000000000000D+00 0.225070738185D-04 0.000000000000D+00  6 -1 2 25 24 21 21 4 0.37472886D-02 0.21597139D+00 0.20514237D+05 0.20514237D+05 0.20514237D+05 0.12326141D+01  1  2 15  1  6  1       -1 0.202022434110D-02 0.100000000000D+01
-.199252940792D-03 0.000000000000D+00 -.352767717802D-04 0.225070738185D-04 0.000000000000D+00  6 -1 2 25 24 21 21 4 0.11027474D-01 0.21597139D+00 0.20514237D+05 0.20514237D+05 0.20514237D+05 0.12326141D+01  1  2  5  1  6  1       -1 -.427830090860D-01 0.100000000000D+01
-.225543808568D-04 0.000000000000D+00 -.431648607264D-05 0.225070738185D-04 0.000000000000D+00  6 21 2 25 24 1 21 4 0.11027474D-01 0.21597139D+00 0.20514237D+05 0.20514237D+05 0.20514237D+05 0.12326141D+01  3  4  5  4  5  1       -1 -.713212639113D-01 0.100000000000D+01
  </mgrwgt>
  </event>
  <event>
  6     66 0.43535451E-03 0.24467833E+02 0.75467711E-02 0.11846659E+00
       -1 -1    0    0    0  503 0.00000000E+00 0.00000000E+00 0.17803197E+02 0.17806072E+02 0.32000000E+00 0.0000E+00 0.9000E+01
        2 -1    0    0  502    0 0.00000000E+00 0.00000000E+00 -.18990778E+04 0.18990779E+04 0.32000000E+00 0.0000E+00 0.9000E+01
       25  1    1    2    0    0 -.66283856E+02 -.48202794E+02 -.89550654E+03 0.90789538E+03 0.12500000E+03 0.0000E+00 0.9000E+01
       24  1    1    2    0    0 0.45356846E+02 0.87923766E+02 -.70311325E+03 0.71457910E+03 0.80419002E+02 0.0000E+00 0.9000E+01
       21  1    1    2  502  501 -.30350377E+01 -.16928225E+02 -.23909003E+03 0.23970895E+03 0.75000000E+00 0.0000E+00 0.9000E+01
       21  1    1    2  501  503 0.23962048E+02 -.22792747E+02 -.43564815E+02 0.54700500E+02 0.75000000E+00 0.0000E+00 0.9000E+01
#aMCatNLO 2  0  0  1  5 0.26757134D+02 0.00000000D+00  -5  6  0 0.00000000D+00 0.00000000D+00 0.00000000D+00 0.00000000D+00 0.00000000D+00
  <mgrwgt>
 0.6392240938D-01    1    2    0
 0.149546030998807D+03 0.000000000000000D+00 0.000000000000000D+00 0.149546030998807D+03
 0.149546030998807D+03 0.000000000000000D+00 0.000000000000000D+00 -.149546030998807D+03
 0.148771642919738D+03 -.543716853356685D+02 -.595290390660539D+02 0.283109142719995D+01
 0.125857132984585D+03 0.555006633968467D+02 0.782788675432302D+02 0.128412315370586D+02
 0.244632860932905D+02 -.112897806117821D+01 -.187498284771763D+02 -.156723229642586D+02
 0.000000000000000D+00 0.000000000000000D+00 -.000000000000000D+00 0.000000000000000D+00
 0.218914042328341D+03 0.000000000000000D+00 0.000000000000000D+00 0.218914042328341D+03
 0.154451523489236D+03 0.000000000000000D+00 0.000000000000000D+00 -.154451523489236D+03
 0.149497863030198D+03 -.662834614632752D+02 -.481985342969390D+02 0.283109142719995D+01
 0.128143026080673D+03 0.453568405426604D+02 0.879276916980129D+02 0.128412315370586D+02
 0.232739668977961D+02 -.303542662274249D+01 -.169364108736659D+02 -.156723229642586D+02
 0.724507098089094D+02 0.239620475433573D+02 -.227927465274080D+02 0.644625188391054D+02
0.701389093930D-04 0.000000000000D+00 0.000000000000D+00 0.543288642421D-04 0.282238900329D-06  6 -1 2 25 24 21 21 4 0.27391430D-02 0.29216245D+00 0.26772533D+05 0.26772533D+05 0.26772533D+05 0.12201209D+01  1  2  1  1  6  1       -1 0.639224093767D-01 0.100000000000D+01
  </mgrwgt>
  </event>
  <event>
  5     66 0.43535451E-03 0.20764869E+02 0.75467711E-02 0.11415840E+00
       -1 -1    0    0    0  501 0.00000000E+00 0.00000000E+00 0.58481236E+02 0.58482112E+02 0.32000000E+00 0.0000E+00 0.9000E+01
        2 -1    0    0  502    0 -.00000000E+00 -.00000000E+00 -.12212448E+04 0.12212449E+04 0.32000000E+00 0.0000E+00 0.9000E+01
       25  1    1    2    0    0 -.12620439E+02 0.25761888E+02 -.82402476E+03 0.83394530E+03 0.12500000E+03 0.0000E+00 0.9000E+01
       24  1    1    2    0    0 0.12059303E+02 -.46519103E+02 -.38438074E+03 0.39563269E+03 0.80419002E+02 0.0000E+00 0.9000E+01
       21  1    1    2  502  501 0.56113601E+00 0.20757214E+02 0.45641903E+02 0.50149004E+02 0.75000000E+00 0.0000E+00 0.9000E+01
#aMCatNLO 1  0  0  5  2 0.71822684D+00 0.00000000D+00  -5  6  0 0.00000000D+00 0.00000000D+00 0.00000000D+00 0.00000000D+00 0.00000000D+00
  <mgrwgt>
 0.1199921441D+01    3    2    0
 0.267246131398213D+03 0.000000000000000D+00 0.000000000000000D+00 0.267246131398213D+03
 0.267246131398213D+03 -.000000000000000D+00 -.000000000000000D+00 -.267246131398213D+03
 0.204074994153857D+03 -.126204402391664D+02 0.257618421549260D+02 -.158740842935431D+03
 0.111054884504400D+03 0.120593022922664D+02 -.465191280104888D+02 -.596365271899921D+02
 0.219362384138168D+03 0.561137946899955D+00 0.207572858555628D+02 0.218377370125423D+03
 0.000000000000000D+00 -.000000000000000D+00 0.000000000000000D+00 0.000000000000000D+00
 0.267246131398213D+03 0.000000000000000D+00 0.000000000000000D+00 0.267246131398213D+03
 0.267246131398213D+03 -.000000000000000D+00 -.000000000000000D+00 -.267246131398213D+03
 0.171486802313767D+03 -.125023313051708D+02 0.301308585769769D+02 -.112776533202395D+03
 0.985505591318792D+02 0.121252202736489D+02 -.440807287004112D+02 -.339833068048377D+02
 0.107278086734399D+03 0.457572619286820D+02 0.949588043365929D+02 0.199420749459009D+02
 0.157176814616380D+03 -.453801508971601D+02 -.810089342131586D+02 0.126817765061332D+03
0.320024490746D-02 0.000000000000D+00 0.000000000000D+00 0.157723456130D-03 0.000000000000D+00  6 -1 2 25 24 21 21 2 0.89971838D-02 0.18788389D+00 0.14725618D+05 0.14725618D+05 0.14725618D+05 0.12487376D+01  1  2  2  3  6  5       21 0.794523045358D+00 0.100000000000D+01
0.944445233612D-03 0.168881563526D-03 -.122897830885D-04 0.157723456130D-03 0.000000000000D+00  6 -1 2 25 24 21 21 4 0.89971838D-02 0.18788389D+00 0.14725618D+05 0.14725618D+05 0.14725618D+05 0.12487376D+01  1  2  3  3  6  5       21 0.365630519115D+00 0.100000000000D+01
0.102722775610D-03 0.000000000000D+00 0.000000000000D+00 0.157723456130D-03 0.000000000000D+00  6 -1 2 25 24 21 21 4 0.89971838D-02 0.18788389D+00 0.14725618D+05 0.14725618D+05 0.14725618D+05 0.12487376D+01  1  2 15  3  6  5       21 0.397678768811D-01 0.100000000000D+01
  </mgrwgt>
  </event>
  <event>
  5     66 0.43535451E-03 0.11536391E+03 0.75467711E-02 0.11251014E+00
       -1 -1    0    0    0  501 0.00000000E+00 0.00000000E+00 0.38303737E+02 0.38305073E+02 0.32000000E+00 0.0000E+00 0.9000E+01
        2 -1    0    0  502    0 -.00000000E+00 -.00000000E+00 -.16571739E+04 0.16571739E+04 0.32000000E+00 0.0000E+00 0.9000E+01
       25  1    1    2    0    0 0.59962701E+02 0.90116439E+02 -.87080711E+03 0.88636704E+03 0.12500000E+03 0.0000E+00 0.9000E+01
       24  1    1    2    0    0 0.56471531E+02 -.14099968E+03 -.52475309E+03 0.55218020E+03 0.80419002E+02 0.0000E+00 0.9000E+01
       21  1    1    2  502  501 -.11643423E+03 0.50883246E+02 -.22330996E+03 0.25693177E+03 0.75000000E+00 0.0000E+00 0.9000E+01
#aMCatNLO 1  0  0  5  2 0.31189348D+01 0.00000000D+00  -5  6  0 0.00000000D+00 0.00000000D+00 0.00000000D+00 0.00000000D+00 0.00000000D+00
  <mgrwgt>
 0.2338261175D-01   25    2    0
 0.251946646129011D+03 0.000000000000000D+00 0.000000000000000D+00 0.251946646129011D+03
 0.251946646129011D+03 -.000000000000000D+00 -.000000000000000D+00 -.251946646129011D+03
 0.184747767171154D+03 0.599632561796162D+02 0.901161959945524D+02 -.824027705998782D+02
 0.172066143406046D+03 0.564720482525168D+02 -.140999910445403D+03 0.833515283682419D+01
 0.147079381680822D+03 -.116435304432133D+03 0.508837144508503D+02 0.740676177630540D+02
 0.000000000000000D+00 -.000000000000000D+00 0.000000000000000D+00 0.000000000000000D+00
 0.251946646129011D+03 0.000000000000000D+00 0.000000000000000D+00 0.251946646129011D+03
 0.251946646129011D+03 -.000000000000000D+00 -.000000000000000D+00 -.251946646129011D+03
 0.184453359335629D+03 0.592126061891734D+02 0.904442396231796D+02 -.819252620225861D+02
 0.171609772713734D+03 0.557732954464470D+02 -.140694546548866D+03 0.877964822422624D+01
 0.144647263575112D+03 -.112918333233328D+03 0.526456546140221D+02 0.734895634075746D+02
 0.318289663354767D+01 -.206756840229217D+01 -.239534768833527D+01 -.343949609214756D+00
0.590158681791D-04 0.000000000000D+00 0.000000000000D+00 0.129192017900D-05 0.000000000000D+00  6 -1 2 25 24 21 21 2 0.58929878D-02 0.25494994D+00 0.53890158D+05 0.53890158D+05 0.53890158D+05 0.11890726D+01  1  2  2  3  6  5       21 0.147012947952D-01 0.100000000000D+01
-.391883907368D-05 0.311435292583D-05 -.226636473043D-06 0.129192017900D-05 0.000000000000D+00  6 -1 2 25 24 21 21 4 0.58929878D-02 0.25494994D+00 0.53890158D+05 0.53890158D+05 0.53890158D+05 0.11890726D+01  1  2  3  3  6  5       21 -.138026010440D-02 0.100000000000D+01
0.267859706476D-05 0.000000000000D+00 0.000000000000D+00 0.129192017900D-05 0.000000000000D+00  6 -1 2 25 24 21 21 4 0.58929878D-02 0.25494994D+00 0.53890158D+05 0.53890158D+05 0.53890158D+05 0.11890726D+01  1  2 15  3  6  5       21 0.943432632662D-03 0.100000000000D+01
0.216664924334D-06 0.000000000000D+00 0.000000000000D+00 0.129187495358D-05 0.000000000000D+00  6 -1 2 25 24 21 21 4 0.58929878D-02 0.25494994D+00 0.53916461D+05 0.53916461D+05 0.53916461D+05 0.11890518D+01  1  2 12  3  6  5       21 0.763062908984D-04 0.100000000000D+01
0.313211495465D-06 0.000000000000D+00 0.000000000000D+00 0.129187495358D-05 0.000000000000D+00  6 -1 2 25 24 21 21 4 0.58929878D-02 0.25494994D+00 0.53916461D+05 0.53916461D+05 0.53916461D+05 0.11890518D+01  1  2 12  3  6  5       21 0.110308613908D-03 0.100000000000D+01
-.646748236696D-03 0.000000000000D+00 0.000000000000D+00 0.129192017900D-05 0.000000000000D+00  6 -1 2 25 24 21 21 4 0.58929878D-02 0.25494994D+00 0.53890158D+05 0.53890158D+05 0.53890158D+05 0.11890726D+01  1  2  4  3  6  5       21 -.227792152706D+00 0.100000000000D+01
-.110586220115D-02 0.000000000000D+00 0.000000000000D+00 0.129192017900D-05 0.000000000000D+00  6 -1 2 25 24 21 21 4 0.58929878D-02 0.25494994D+00 0.53890158D+05 0.53890158D+05 0.53890158D+05 0.11890726D+01  1  2  5  3  6  5       21 -.389497360957D+00 0.100000000000D+01
0.112981657114D-02 0.000000000000D+00 -.000000000000D+00 0.129192017900D-05 0.000000000000D+00  6 -1 2 25 24 21 21 4 0.58929878D-02 0.25494994D+00 0.53890158D+05 0.53890158D+05 0.53890158D+05 0.11890726D+01  1  2  6  3  6  5       21 0.397934365029D+00 0.100000000000D+01
0.648316307100D-03 0.000000000000D+00 0.000000000000D+00 0.129192017900D-05 0.650012216198D-06  6 -1 2 25 24 21 21 4 0.58929878D-02 0.25494994D+00 0.53916461D+05 0.53916461D+05 0.53916461D+05 0.11890518D+01  1  2 11  3  6  5       21 0.228327740984D+00 0.100000000000D+01
0.199253891690D-07 0.000000000000D+00 0.000000000000D+00 0.129187495358D-05 0.000000000000D+00  6 -1 2 25 24 1 -1 4 0.58929878D-02 0.25494994D+00 0.53916461D+05 0.53916461D+05 0.53916461D+05 0.11890518D+01  1  2 12  6  6  5       21 0.701743739493D-05 0.100000000000D+01
0.204862312284D-07 0.000000000000D+00 0.000000000000D+00 0.129187495358D-05 0.000000000000D+00  6 -1 2 25 24 1 -1 4 0.58929878D-02 0.25494994D+00 0.53916461D+05 0.53916461D+05 0.53916461D+05 0.11890518D+01  1  2 12  6  6  5       21 0.721495795562D-05 0.100000000000D+01
-.201839839281D-05 0.000000000000D+00 0.000000000000D+00 0.129192017900D-05 0.000000000000D+00  6 -1 2 25 24 1 -1 4 0.58929878D-02 0.25494994D+00 0.53890158D+05 0.53890158D+05 0.53890158D+05 0.11890726D+01  1  2  5  6  6  5       21 -.710903082266D-03 0.100000000000D+01
0.184116914013D-05 0.000000000000D+00 0.000000000000D+00 0.129192017900D-05 0.283112811107D-08  6 -1 2 25 24 1 -1 4 0.58929878D-02 0.25494994D+00 0.53916461D+05 0.53916461D+05 0.53916461D+05 0.11890518D+01  1  2 11  6  6  5       21 0.648433466708D-03 0.100000000000D+01
0.199253891690D-07 0.000000000000D+00 0.000000000000D+00 0.129187495358D-05 0.000000000000D+00  6 -1 2 25 24 2 -2 4 0.58929878D-02 0.25494994D+00 0.53916461D+05 0.53916461D+05 0.53916461D+05 0.11890518D+01  1  2 12  7  6  5       21 0.701743739493D-05 0.100000000000D+01
0.204862312284D-07 0.000000000000D+00 0.000000000000D+00 0.129187495358D-05 0.000000000000D+00  6 -1 2 25 24 2 -2 4 0.58929878D-02 0.25494994D+00 0.53916461D+05 0.53916461D+05 0.53916461D+05 0.11890518D+01  1  2 12  7  6  5       21 0.721495795562D-05 0.100000000000D+01
-.201839839281D-05 0.000000000000D+00 0.000000000000D+00 0.129192017900D-05 0.000000000000D+00  6 -1 2 25 24 2 -2 4 0.58929878D-02 0.25494994D+00 0.53890158D+05 0.53890158D+05 0.53890158D+05 0.11890726D+01  1  2  5  7  6  5       21 -.710903082266D-03 0.100000000000D+01
0.198540197062D-05 0.000000000000D+00 0.000000000000D+00 0.129192017900D-05 0.239055753429D-08  6 -1 2 25 24 2 -2 4 0.58929878D-02 0.25494994D+00 0.53916461D+05 0.53916461D+05 0.53916461D+05 0.11890518D+01  1  2 11  7  6  5       21 0.699230208978D-03 0.100000000000D+01
0.199253891690D-07 0.000000000000D+00 0.000000000000D+00 0.129187495358D-05 0.000000000000D+00  6 -1 2 25 24 3 -3 4 0.58929878D-02 0.25494994D+00 0.53916461D+05 0.53916461D+05 0.53916461D+05 0.11890518D+01  1  2 12  8  6  5       21 0.701743739493D-05 0.100000000000D+01
0.199253891690D-07 0.000000000000D+00 0.000000000000D+00 0.129187495358D-05 0.000000000000D+00  6 -1 2 25 24 4 -4 4 0.58929878D-02 0.25494994D+00 0.53916461D+05 0.53916461D+05 0.53916461D+05 0.11890518D+01  1  2 12  8  6  5       21 0.701743739493D-05 0.100000000000D+01
0.204862312284D-07 0.000000000000D+00 0.000000000000D+00 0.129187495358D-05 0.000000000000D+00  6 -1 2 25 24 3 -3 4 0.58929878D-02 0.25494994D+00 0.53916461D+05 0.53916461D+05 0.53916461D+05 0.11890518D+01  1  2 12  8  6  5       21 0.721495795562D-05 0.100000000000D+01
0.204862312284D-07 0.000000000000D+00 0.000000000000D+00 0.129187495358D-05 0.000000000000D+00  6 -1 2 25 24 4 -4 4 0.58929878D-02 0.25494994D+00 0.53916461D+05 0.53916461D+05 0.53916461D+05 0.11890518D+01  1  2 12  8  6  5       21 0.721495795562D-05 0.100000000000D+01
-.201839839281D-05 0.000000000000D+00 0.000000000000D+00 0.129192017900D-05 0.000000000000D+00  6 -1 2 25 24 3 -3 4 0.58929878D-02 0.25494994D+00 0.53890158D+05 0.53890158D+05 0.53890158D+05 0.11890726D+01  1  2  5  8  6  5       21 -.710903082266D-03 0.100000000000D+01
-.201839839281D-05 0.000000000000D+00 0.000000000000D+00 0.129192017900D-05 0.000000000000D+00  6 -1 2 25 24 4 -4 4 0.58929878D-02 0.25494994D+00 0.53890158D+05 0.53890158D+05 0.53890158D+05 0.11890726D+01  1  2  5  8  6  5       21 -.710903082266D-03 0.100000000000D+01
0.198468619082D-05 0.000000000000D+00 0.000000000000D+00 0.129192017900D-05 0.238833168870D-08  6 -1 2 25 24 3 -3 4 0.58929878D-02 0.25494994D+00 0.53916461D+05 0.53916461D+05 0.53916461D+05 0.11890518D+01  1  2 11  8  6  5       21 0.698978121558D-03 0.100000000000D+01
0.198468619082D-05 0.000000000000D+00 0.000000000000D+00 0.129192017900D-05 0.238833168870D-08  6 -1 2 25 24 4 -4 4 0.58929878D-02 0.25494994D+00 0.53916461D+05 0.53916461D+05 0.53916461D+05 0.11890518D+01  1  2 11  8  6  5       21 0.698978121558D-03 0.100000000000D+01
  </mgrwgt>
  </event>
  <event>
  5     66 -.43535451E-03 0.31658667E+02 0.75467711E-02 0.12127905E+00
       -1 -1    0    0    0  501 0.00000000E+00 0.00000000E+00 0.69067816E+02 0.69068557E+02 0.32000000E+00 0.0000E+00 0.9000E+01
        2 -1    0    0  502    0 -.00000000E+00 -.00000000E+00 -.42380410E+03 0.42380422E+03 0.32000000E+00 0.0000E+00 0.9000E+01
       25  1    1    2    0    0 -.45348647E+02 0.73373087E+02 -.12582208E+03 0.19722146E+03 0.12500000E+03 0.0000E+00 0.9000E+01
       24  1    1    2    0    0 0.30518099E+02 -.45405023E+02 -.24243623E+03 0.26121928E+03 0.80419002E+02 0.0000E+00 0.9000E+01
       21  1    1    2  502  501 0.14830547E+02 -.27968064E+02 0.13522020E+02 0.34432039E+02 0.75000000E+00 0.0000E+00 0.9000E+01
#aMCatNLO 1  0  0  5  1 0.13598644D+01 0.00000000D+00  -5  6  0 0.00000000D+00 0.00000000D+00 0.00000000D+00 0.00000000D+00 0.00000000D+00
  <mgrwgt>
 -.2407191308D+00   25    2    0
 0.171088969968961D+03 0.000000000000000D+00 0.000000000000000D+00 0.171088969968961D+03
 0.171088969968961D+03 -.000000000000000D+00 -.000000000000000D+00 -.171088969968961D+03
 0.153637997095559D+03 -.453491096318699D+02 0.733739595660669D+02 0.232240062161750D+02
 0.124926594937779D+03 0.305177230250340D+02 -.454043127928737D+02 -.783999689384604D+02
 0.636133479045841D+02 0.148313866068359D+02 -.279696467731933D+02 0.551759627222853D+02
 0.000000000000000D+00 0.000000000000000D+00 0.000000000000000D+00 0.000000000000000D+00
 0.171088969968961D+03 0.000000000000000D+00 0.000000000000000D+00 0.171088969968961D+03
 0.171088969968961D+03 -.000000000000000D+00 -.000000000000000D+00 -.171088969968961D+03
 0.153632891138362D+03 -.453410431019971D+02 0.733587473679623D+02 0.232540154501976D+02
 0.124917382448826D+03 0.305242819734548D+02 -.454166819310667D+02 -.783755682331752D+02
 0.475459157366867D+02 0.109750988942078D+02 -.221170339786719D+02 0.406324761181096D+02
 0.160817506140479D+02 0.384166223433443D+01 -.582503145822370D+01 0.144890766648680D+02
0.102004611299D-04 0.000000000000D+00 0.000000000000D+00 0.197013439959D-04 0.000000000000D+00  6 -1 2 25 24 21 21 2 0.10625884D-01 0.65200697D-01 0.19711357D+05 0.19711357D+05 0.19711357D+05 0.12345217D+01  1  2  2  3  6  5       21 0.710559871428D-02 0.100000000000D+01
0.709972397637D-06 0.538293122592D-06 -.391724565818D-07 0.197013439959D-04 0.000000000000D+00  6 -1 2 25 24 21 21 4 0.10625884D-01 0.65200697D-01 0.19711357D+05 0.19711357D+05 0.19711357D+05 0.12345217D+01  1  2  3  3  6  5       21 0.753736937424D-03 0.100000000000D+01
0.229068396758D-06 0.000000000000D+00 0.000000000000D+00 0.197013439959D-04 0.000000000000D+00  6 -1 2 25 24 21 21 4 0.10625884D-01 0.65200697D-01 0.19711357D+05 0.19711357D+05 0.19711357D+05 0.12345217D+01  1  2 15  3  6  5       21 0.243188766785D-03 0.100000000000D+01
0.849549889062D-07 0.000000000000D+00 0.000000000000D+00 0.197012613796D-04 0.000000000000D+00  6 -1 2 25 24 21 21 4 0.10625884D-01 0.65200697D-01 0.19712423D+05 0.19712423D+05 0.19712423D+05 0.12345191D+01  1  2 12  3  6  5       21 0.901911949680D-04 0.100000000000D+01
0.854694637307D-07 0.000000000000D+00 0.000000000000D+00 0.197012613796D-04 0.000000000000D+00  6 -1 2 25 24 21 21 4 0.10625884D-01 0.65200697D-01 0.19712423D+05 0.19712423D+05 0.19712423D+05 0.12345191D+01  1  2 12  3  6  5       21 0.907373794805D-04 0.100000000000D+01
-.281823625792D-02 0.000000000000D+00 0.000000000000D+00 0.197013439959D-04 0.000000000000D+00  6 -1 2 25 24 21 21 4 0.10625884D-01 0.65200697D-01 0.19711357D+05 0.19711357D+05 0.19711357D+05 0.12345217D+01  1  2  4  3  6  5       21 -.299195964949D+01 0.100000000000D+01
-.174554873160D-02 0.000000000000D+00 0.000000000000D+00 0.197013439959D-04 0.000000000000D+00  6 -1 2 25 24 21 21 4 0.10625884D-01 0.65200697D-01 0.19711357D+05 0.19711357D+05 0.19711357D+05 0.12345217D+01  1  2  5  3  6  5       21 -.185314888221D+01 0.100000000000D+01
0.230421175927D-02 0.000000000000D+00 -.000000000000D+00 0.197013439959D-04 0.000000000000D+00  6 -1 2 25 24 21 21 4 0.10625884D-01 0.65200697D-01 0.19711357D+05 0.19711357D+05 0.19711357D+05 0.12345217D+01  1  2  6  3  6  5       21 0.244624934770D+01 0.100000000000D+01
0.201712155356D-02 0.000000000000D+00 0.000000000000D+00 0.197013439959D-04 0.760393645561D-04  6 -1 2 25 24 21 21 4 0.10625884D-01 0.65200697D-01 0.19712423D+05 0.19712423D+05 0.19712423D+05 0.12345191D+01  1  2 11  3  6  5       21 0.214144696684D+01 0.100000000000D+01
0.982148321602D-09 0.000000000000D+00 0.000000000000D+00 0.197012613796D-04 0.000000000000D+00  6 -1 2 25 24 1 -1 4 0.10625884D-01 0.65200697D-01 0.19712423D+05 0.19712423D+05 0.19712423D+05 0.12345191D+01  1  2 12  6  6  5       21 0.104268309491D-05 0.100000000000D+01
0.987778143419D-09 0.000000000000D+00 0.000000000000D+00 0.197012613796D-04 0.000000000000D+00  6 -1 2 25 24 1 -1 4 0.10625884D-01 0.65200697D-01 0.19712423D+05 0.19712423D+05 0.19712423D+05 0.12345191D+01  1  2 12  6  6  5       21 0.104865991115D-05 0.100000000000D+01
-.201947478153D-04 0.000000000000D+00 0.000000000000D+00 0.197013439959D-04 0.000000000000D+00  6 -1 2 25 24 1 -1 4 0.10625884D-01 0.65200697D-01 0.19711357D+05 0.19711357D+05 0.19711357D+05 0.12345217D+01  1  2  5  6  6  5       21 -.214396044424D-01 0.100000000000D+01
0.220622211644D-04 0.000000000000D+00 0.000000000000D+00 0.197013439959D-04 0.150021633271D-05  6 -1 2 25 24 1 -1 4 0.10625884D-01 0.65200697D-01 0.19712423D+05 0.19712423D+05 0.19712423D+05 0.12345191D+01  1  2 11  6  6  5       21 0.234220275475D-01 0.100000000000D+01
0.982148321602D-09 0.000000000000D+00 0.000000000000D+00 0.197012613796D-04 0.000000000000D+00  6 -1 2 25 24 2 -2 4 0.10625884D-01 0.65200697D-01 0.19712423D+05 0.19712423D+05 0.19712423D+05 0.12345191D+01  1  2 12  7  6  5       21 0.104268309491D-05 0.100000000000D+01
0.987778143419D-09 0.000000000000D+00 0.000000000000D+00 0.197012613796D-04 0.000000000000D+00  6 -1 2 25 24 2 -2 4 0.10625884D-01 0.65200697D-01 0.19712423D+05 0.19712423D+05 0.19712423D+05 0.12345191D+01  1  2 12  7  6  5       21 0.104865991115D-05 0.100000000000D+01
-.201947478153D-04 0.000000000000D+00 0.000000000000D+00 0.197013439959D-04 0.000000000000D+00  6 -1 2 25 24 2 -2 4 0.10625884D-01 0.65200697D-01 0.19711357D+05 0.19711357D+05 0.19711357D+05 0.12345217D+01  1  2  5  7  6  5       21 -.214396044424D-01 0.100000000000D+01
0.222151220479D-04 0.000000000000D+00 0.000000000000D+00 0.197013439959D-04 0.150698897051D-05  6 -1 2 25 24 2 -2 4 0.10625884D-01 0.65200697D-01 0.19712423D+05 0.19712423D+05 0.19712423D+05 0.12345191D+01  1  2 11  7  6  5       21 0.235843524866D-01 0.100000000000D+01
0.982148321602D-09 0.000000000000D+00 0.000000000000D+00 0.197012613796D-04 0.000000000000D+00  6 -1 2 25 24 3 -3 4 0.10625884D-01 0.65200697D-01 0.19712423D+05 0.19712423D+05 0.19712423D+05 0.12345191D+01  1  2 12  8  6  5       21 0.104268309491D-05 0.100000000000D+01
0.982148321602D-09 0.000000000000D+00 0.000000000000D+00 0.197012613796D-04 0.000000000000D+00  6 -1 2 25 24 4 -4 4 0.10625884D-01 0.65200697D-01 0.19712423D+05 0.19712423D+05 0.19712423D+05 0.12345191D+01  1  2 12  8  6  5       21 0.104268309491D-05 0.100000000000D+01
0.987778143419D-09 0.000000000000D+00 0.000000000000D+00 0.197012613796D-04 0.000000000000D+00  6 -1 2 25 24 3 -3 4 0.10625884D-01 0.65200697D-01 0.19712423D+05 0.19712423D+05 0.19712423D+05 0.12345191D+01  1  2 12  8  6  5       21 0.104865991115D-05 0.100000000000D+01
0.987778143419D-09 0.000000000000D+00 0.000000000000D+00 0.197012613796D-04 0.000000000000D+00  6 -1 2 25 24 4 -4 4 0.10625884D-01 0.65200697D-01 0.19712423D+05 0.19712423D+05 0.19712423D+05 0.12345191D+01  1  2 12  8  6  5       21 0.104865991115D-05 0.100000000000D+01
-.201947478153D-04 0.000000000000D+00 0.000000000000D+00 0.197013439959D-04 0.000000000000D+00  6 -1 2 25 24 3 -3 4 0.10625884D-01 0.65200697D-01 0.19711357D+05 0.19711357D+05 0.19711357D+05 0.12345217D+01  1  2  5  8  6  5       21 -.214396044424D-01 0.100000000000D+01
-.201947478153D-04 0.000000000000D+00 0.000000000000D+00 0.197013439959D-04 0.000000000000D+00  6 -1 2 25 24 4 -4 4 0.10625884D-01 0.65200697D-01 0.19711357D+05 0.19711357D+05 0.19711357D+05 0.12345217D+01  1  2  5  8  6  5       21 -.214396044424D-01 0.100000000000D+01
0.222078694590D-04 0.000000000000D+00 0.000000000000D+00 0.197013439959D-04 0.150648816579D-05  6 -1 2 25 24 3 -3 4 0.10625884D-01 0.65200697D-01 0.19712423D+05 0.19712423D+05 0.19712423D+05 0.12345191D+01  1  2 11  8  6  5       21 0.235766528840D-01 0.100000000000D+01
0.222078694590D-04 0.000000000000D+00 0.000000000000D+00 0.197013439959D-04 0.150648816579D-05  6 -1 2 25 24 4 -4 4 0.10625884D-01 0.65200697D-01 0.19712423D+05 0.19712423D+05 0.19712423D+05 0.12345191D+01  1  2 11  8  6  5       21 0.235766528840D-01 0.100000000000D+01
  </mgrwgt>
  </event>
  <event>
  5     66 0.43535451E-03 0.27335385E+02 0.75467711E-02 0.12388811E+00
       -1 -1    0    0    0  501 0.00000000E+00 0.00000000E+00 0.56595572E+02 0.56596477E+02 0.32000000E+00 0.0000E+00 0.9000E+01
        2 -1    0    0  502    0 -.00000000E+00 -.00000000E+00 -.33027647E+03 0.33027663E+03 0.32000000E+00 0.0000E+00 0.9000E+01
       25  1    1    2    0    0 0.54352030E+01 0.38388859E+02 -.22751774E+03 0.26247394E+03 0.12500000E+03 0.0000E+00 0.9000E+01
       24  1    1    2    0    0 0.19353726E+02 -.26880593E+02 -.42541252E+02 0.96819972E+02 0.80419002E+02 0.0000E+00 0.9000E+01
       21  1    1    2  502  501 -.24788929E+02 -.11508266E+02 -.36219072E+01 0.27579193E+02 0.75000000E+00 0.0000E+00 0.9000E+01
#aMCatNLO 1  0  0  5  1 0.10810673D+02 0.00000000D+00  -5  6  0 0.00000000D+00 0.00000000D+00 0.00000000D+00 0.00000000D+00 0.00000000D+00
  <mgrwgt>
 0.8784264890D+00   20    2    0
 0.136720118641836D+03 0.000000000000000D+00 0.000000000000000D+00 0.136720118641836D+03
 0.136720118641836D+03 -.000000000000000D+00 -.000000000000000D+00 -.136720118641836D+03
 0.143641169318501D+03 0.543812738816201D+01 0.383902163670388D+02 -.591980031841315D+02
 0.944051551716155D+02 0.193556478084762D+02 -.268797005590473D+02 0.367145470403279D+02
 0.353939127935552D+02 -.247937751966382D+02 -.115105158079915D+02 0.224834561438036D+02
 0.000000000000000D+00 0.000000000000000D+00 0.000000000000000D+00 0.000000000000000D+00
 0.136720118641836D+03 0.000000000000000D+00 0.000000000000000D+00 0.136720118641836D+03
 0.136720118641836D+03 -.000000000000000D+00 -.000000000000000D+00 -.136720118641836D+03
 0.142200337724295D+03 0.265954658849933D+01 0.371002595950408D+02 -.566783344747168D+02
 0.949551962315022D+02 0.175149318044590D+02 -.277342533850782D+02 0.383837425227138D+02
 0.152485860610679D+02 -.828536458958850D+01 -.127379842467974D+02 0.127116789124307D+01
 0.210361172668065D+02 -.118891138033698D+02 0.337197803683485D+01 0.170234240607600D+02
0.349822582592D-03 0.000000000000D+00 0.000000000000D+00 0.282389688607D-04 0.000000000000D+00  6 -1 2 25 24 21 21 2 0.87070926D-02 0.50811846D-01 0.15028829D+05 0.15028829D+05 0.15028829D+05 0.12477275D+01  1  2  2  3  6  5       21 0.436006812006D+00 0.100000000000D+01
0.323545306394D-04 0.184606448610D-04 -.134341082755D-05 0.282389688607D-04 0.000000000000D+00  6 -1 2 25 24 21 21 4 0.87070926D-02 0.50811846D-01 0.15028829D+05 0.15028829D+05 0.15028829D+05 0.12477275D+01  1  2  3  3  6  5       21 0.627798131085D-01 0.100000000000D+01
0.100224891446D-04 0.000000000000D+00 0.000000000000D+00 0.282389688607D-04 0.000000000000D+00  6 -1 2 25 24 21 21 4 0.87070926D-02 0.50811846D-01 0.15028829D+05 0.15028829D+05 0.15028829D+05 0.12477275D+01  1  2 15  3  6  5       21 0.194473535219D-01 0.100000000000D+01
0.702696599105D-04 0.000000000000D+00 0.000000000000D+00 0.282456018638D-04 0.000000000000D+00  6 -1 2 25 24 21 21 4 0.87070926D-02 0.50811846D-01 0.14984413D+05 0.14984413D+05 0.14984413D+05 0.12478740D+01  1  2 12  3  6  5       21 0.136399390102D+00 0.100000000000D+01
0.811836969066D-04 0.000000000000D+00 0.000000000000D+00 0.282456018638D-04 0.000000000000D+00  6 -1 2 25 24 21 21 4 0.87070926D-02 0.50811846D-01 0.14984413D+05 0.14984413D+05 0.14984413D+05 0.12478740D+01  1  2 12  3  6  5       21 0.157584464737D+00 0.100000000000D+01
-.218479102013D-03 0.000000000000D+00 0.000000000000D+00 0.282389688607D-04 0.000000000000D+00  6 -1 2 25 24 21 21 4 0.87070926D-02 0.50811846D-01 0.15028829D+05 0.15028829D+05 0.15028829D+05 0.12477275D+01  1  2  4  3  6  5       21 -.423930649632D+00 0.100000000000D+01
-.116180751527D-03 0.000000000000D+00 0.000000000000D+00 0.282389688607D-04 0.000000000000D+00  6 -1 2 25 24 21 21 4 0.87070926D-02 0.50811846D-01 0.15028829D+05 0.15028829D+05 0.15028829D+05 0.12477275D+01  1  2  5  3  6  5       21 -.225433833330D+00 0.100000000000D+01
0.367107319522D-03 0.000000000000D+00 -.000000000000D+00 0.282389688607D-04 0.000000000000D+00  6 -1 2 25 24 21 21 4 0.87070926D-02 0.50811846D-01 0.15028829D+05 0.15028829D+05 0.15028829D+05 0.12477275D+01  1  2  6  3  6  5       21 0.712324625171D+00 0.100000000000D+01
0.373475067403D-05 0.000000000000D+00 0.000000000000D+00 0.282456018638D-04 0.000000000000D+00  6 -1 2 25 24 1 -1 4 0.87070926D-02 0.50811846D-01 0.14984413D+05 0.14984413D+05 0.14984413D+05 0.12478740D+01  1  2 12  6  6  5       21 0.724946889980D-02 0.100000000000D+01
0.428775931944D-05 0.000000000000D+00 0.000000000000D+00 0.282456018638D-04 0.000000000000D+00  6 -1 2 25 24 1 -1 4 0.87070926D-02 0.50811846D-01 0.14984413D+05 0.14984413D+05 0.14984413D+05 0.12478740D+01  1  2 12  6  6  5       21 0.832290574368D-02 0.100000000000D+01
-.760691722240D-05 0.000000000000D+00 0.000000000000D+00 0.282389688607D-04 0.000000000000D+00  6 -1 2 25 24 1 -1 4 0.87070926D-02 0.50811846D-01 0.15028829D+05 0.15028829D+05 0.15028829D+05 0.12477275D+01  1  2  5  6  6  5       21 -.147602463122D-01 0.100000000000D+01
0.373475067403D-05 0.000000000000D+00 0.000000000000D+00 0.282456018638D-04 0.000000000000D+00  6 -1 2 25 24 2 -2 4 0.87070926D-02 0.50811846D-01 0.14984413D+05 0.14984413D+05 0.14984413D+05 0.12478740D+01  1  2 12  7  6  5       21 0.724946889980D-02 0.100000000000D+01
0.428775931944D-05 0.000000000000D+00 0.000000000000D+00 0.282456018638D-04 0.000000000000D+00  6 -1 2 25 24 2 -2 4 0.87070926D-02 0.50811846D-01 0.14984413D+05 0.14984413D+05 0.14984413D+05 0.12478740D+01  1  2 12  7  6  5       21 0.832290574368D-02 0.100000000000D+01
-.760691722240D-05 0.000000000000D+00 0.000000000000D+00 0.282389688607D-04 0.000000000000D+00  6 -1 2 25 24 2 -2 4 0.87070926D-02 0.50811846D-01 0.15028829D+05 0.15028829D+05 0.15028829D+05 0.12477275D+01  1  2  5  7  6  5       21 -.147602463122D-01 0.100000000000D+01
0.373475067403D-05 0.000000000000D+00 0.000000000000D+00 0.282456018638D-04 0.000000000000D+00  6 -1 2 25 24 3 -3 4 0.87070926D-02 0.50811846D-01 0.14984413D+05 0.14984413D+05 0.14984413D+05 0.12478740D+01  1  2 12  8  6  5       21 0.724946889980D-02 0.100000000000D+01
0.373475067403D-05 0.000000000000D+00 0.000000000000D+00 0.282456018638D-04 0.000000000000D+00  6 -1 2 25 24 4 -4 4 0.87070926D-02 0.50811846D-01 0.14984413D+05 0.14984413D+05 0.14984413D+05 0.12478740D+01  1  2 12  8  6  5       21 0.724946889980D-02 0.100000000000D+01
0.428775931944D-05 0.000000000000D+00 0.000000000000D+00 0.282456018638D-04 0.000000000000D+00  6 -1 2 25 24 3 -3 4 0.87070926D-02 0.50811846D-01 0.14984413D+05 0.14984413D+05 0.14984413D+05 0.12478740D+01  1  2 12  8  6  5       21 0.832290574368D-02 0.100000000000D+01
0.428775931944D-05 0.000000000000D+00 0.000000000000D+00 0.282456018638D-04 0.000000000000D+00  6 -1 2 25 24 4 -4 4 0.87070926D-02 0.50811846D-01 0.14984413D+05 0.14984413D+05 0.14984413D+05 0.12478740D+01  1  2 12  8  6  5       21 0.832290574368D-02 0.100000000000D+01
-.760691722240D-05 0.000000000000D+00 0.000000000000D+00 0.282389688607D-04 0.000000000000D+00  6 -1 2 25 24 3 -3 4 0.87070926D-02 0.50811846D-01 0.15028829D+05 0.15028829D+05 0.15028829D+05 0.12477275D+01  1  2  5  8  6  5       21 -.147602463122D-01 0.100000000000D+01
-.760691722240D-05 0.000000000000D+00 0.000000000000D+00 0.282389688607D-04 0.000000000000D+00  6 -1 2 25 24 4 -4 4 0.87070926D-02 0.50811846D-01 0.15028829D+05 0.15028829D+05 0.15028829D+05 0.12477275D+01  1  2  5  8  6  5       21 -.147602463122D-01 0.100000000000D+01
  </mgrwgt>
  </event>
  <event>
  5     66 -.43535451E-03 0.13599793E+03 0.75467711E-02 0.10956180E+00
       -3 -1    0    0    0  501 0.00000000E+00 0.00000000E+00 0.10002861E+04 0.10002862E+04 0.50000000E+00 0.0000E+00 0.9000E+01
        4 -1    0    0  502    0 0.00000000E+00 0.00000000E+00 -.15987581E+03 0.15988333E+03 0.15500000E+01 0.0000E+00 0.9000E+01
       25  1    1    2    0    0 0.11191043E+02 -.20965730E+03 0.81163878E+03 0.84762252E+03 0.12500000E+03 0.0000E+00 0.9000E+01
       24  1    1    2    0    0 0.82982286E+02 0.11120561E+03 0.62614761E+02 0.17216438E+03 0.80419002E+02 0.0000E+00 0.9000E+01
       21  1    1    2  502  501 -.94173328E+02 0.98451689E+02 -.33843287E+02 0.14038262E+03 0.75000000E+00 0.0000E+00 0.9000E+01
#aMCatNLO 1  0  0  2  5 0.18844773D+02 0.00000000D+00  -5  6  0 0.00000000D+00 0.00000000D+00 0.00000000D+00 0.00000000D+00 0.00000000D+00
  <mgrwgt>
 -.9016438009D-01    9    4    0
 0.399907463593651D+03 0.000000000000000D+00 0.000000000000000D+00 0.399907463593651D+03
 0.399907463593651D+03 0.000000000000000D+00 0.000000000000000D+00 -.399907463593651D+03
 0.376682941575756D+03 0.111912605581886D+02 -.209657530805429D+03 0.286676671422447D+03
 0.183939642787604D+03 0.829823920127188D+02 0.111205502434276D+03 -.900768287555052D+02
 0.239192342823942D+03 -.941736525709074D+02 0.984520283711525D+02 -.196599842666941D+03
 0.000000000000000D+00 -.000000000000000D+00 0.000000000000000D+00 -.000000000000000D+00
 0.400827023733624D+03 0.000000000000000D+00 0.000000000000000D+00 0.400827023733624D+03
 0.509818489933685D+03 0.000000000000000D+00 0.000000000000000D+00 -.509818489933685D+03
 0.381660499675101D+03 0.131957542605687D+02 -.218362302478906D+03 0.286676671422447D+03
 0.181876103596681D+03 0.839493356427043D+02 0.107006425375490D+03 -.900768287555052D+02
 0.236500297882884D+03 -.929162764920788D+02 0.929917110546655D+02 -.196599842666941D+03
 0.110608612512642D+03 -.422881341119420D+01 0.183641660487510D+02 -.108991466200061D+03
 0.399907463593651D+03 0.000000000000000D+00 0.000000000000000D+00 0.399907463593651D+03
 0.399907463593651D+03 0.000000000000000D+00 0.000000000000000D+00 -.399907463593651D+03
 0.376682941575756D+03 0.111912605581886D+02 -.209657530805429D+03 0.286676671422447D+03
 0.183939642787604D+03 0.829823920127188D+02 0.111205502434276D+03 -.900768287555052D+02
 0.000000000000000D+00 -.000000000000000D+00 0.000000000000000D+00 -.000000000000000D+00
 0.239192342823942D+03 -.941736525709074D+02 0.984520283711525D+02 -.196599842666941D+03
 0.400827023733624D+03 0.000000000000000D+00 0.000000000000000D+00 0.400827023733624D+03
 0.509818489933685D+03 0.000000000000000D+00 0.000000000000000D+00 -.509818489933685D+03
 0.381660499675101D+03 0.131957542605687D+02 -.218362302478906D+03 0.286676671422447D+03
 0.181876103596681D+03 0.839493356427043D+02 0.107006425375490D+03 -.900768287555052D+02
 0.110608612512642D+03 -.422881341119420D+01 0.183641660487510D+02 -.108991466200061D+03
 0.236500297882884D+03 -.929162764920788D+02 0.929917110546655D+02 -.196599842666941D+03
0.637949554662D-03 0.000000000000D+00 0.000000000000D+00 0.608623356319D-06 0.000000000000D+00  6 -3 4 25 24 21 21 2 0.15389075D+00 0.24596867D-01 0.73160548D+05 0.73160548D+05 0.73160548D+05 0.11762493D+01  1  2  2  2  6  2        4 0.927742879763D-03 0.100000000000D+01
-.365824989294D-04 0.336655229075D-04 -.244989426588D-05 0.608623356319D-06 0.000000000000D+00  6 -3 4 25 24 21 21 4 0.15389075D+00 0.24596867D-01 0.73160548D+05 0.73160548D+05 0.73160548D+05 0.11762493D+01  1  2  3  2  6  2        4 -.736060349332D-04 0.100000000000D+01
0.138908801001D-04 0.000000000000D+00 0.000000000000D+00 0.608623356319D-06 0.000000000000D+00  6 -3 4 25 24 21 21 4 0.15389075D+00 0.24596867D-01 0.73160548D+05 0.73160548D+05 0.73160548D+05 0.11762493D+01  1  2 15  2  6  2        4 0.279492280687D-04 0.100000000000D+01
0.483633820096D-01 0.000000000000D+00 0.000000000000D+00 0.605646024662D-06 0.000000000000D+00  6 -3 4 25 24 21 21 4 0.15389075D+00 0.31932785D-01 0.78472764D+05 0.78472764D+05 0.78472764D+05 0.11733687D+01  1  2 12  2  6  2        4 0.587854644149D-01 0.100000000000D+01
-.907682214757D-01 0.000000000000D+00 0.000000000000D+00 0.608623356319D-06 0.000000000000D+00  6 -3 4 25 24 21 21 4 0.15389075D+00 0.24596867D-01 0.73160548D+05 0.73160548D+05 0.73160548D+05 0.11762493D+01  1  2  4  2  6  2        4 -.182630740827D+00 0.100000000000D+01
-.540771364609D-01 0.000000000000D+00 -.979753445260D-03 0.608623356319D-06 0.000000000000D+00  6 -3 4 25 24 21 21 4 0.15389075D+00 0.31391470D-01 0.73160548D+05 0.73160548D+05 0.73160548D+05 0.11762493D+01  1  2  5  2  6  2        4 -.685042330060D-01 0.100000000000D+01
0.527670542497D-01 0.000000000000D+00 0.951313393603D-03 0.608623356319D-06 0.000000000000D+00  6 -3 4 25 24 21 21 4 0.15389075D+00 0.24596867D-01 0.73160548D+05 0.73160548D+05 0.73160548D+05 0.11762493D+01  1  2  6  2  6  2        4 0.106170265895D+00 0.100000000000D+01
0.168949893111D-02 0.000000000000D+00 0.000000000000D+00 0.605646024662D-06 0.000000000000D+00  6 -3 21 25 24 -4 21 4 0.15389075D+00 0.31932785D-01 0.78472764D+05 0.78472764D+05 0.78472764D+05 0.11733687D+01  3  4 12  5  5  2        4 0.468387553301D-01 0.100000000000D+01
-.178135914907D-02 0.000000000000D+00 -.325598154340D-04 0.608623356319D-06 0.000000000000D+00  6 -3 21 25 24 -4 21 4 0.15389075D+00 0.31391470D-01 0.73160548D+05 0.73160548D+05 0.73160548D+05 0.11762493D+01  3  4  5  5  5  2        4 -.517059779661D-01 0.100000000000D+01
  </mgrwgt>
  </event>
  <event>
  5     66 0.43535451E-03 0.30454943E+02 0.75467711E-02 0.12405568E+00
       -1 -1    0    0    0  501 0.00000000E+00 0.00000000E+00 0.25119712E+02 0.25121750E+02 0.32000000E+00 0.0000E+00 0.9000E+01
        2 -1    0    0  502    0 -.00000000E+00 -.00000000E+00 -.64337968E+03 0.64337976E+03 0.32000000E+00 0.0000E+00 0.9000E+01
       25  1    1    2    0    0 -.11875551E+02 -.21654301E+02 -.23771308E+03 0.26970808E+03 0.12500000E+03 0.0000E+00 0.9000E+01
       24  1    1    2    0    0 0.27923947E+02 -.42198139E+01 -.31801511E+03 0.32923909E+03 0.80419002E+02 0.0000E+00 0.9000E+01
       21  1    1    2  502  501 -.16048396E+02 0.25874115E+02 -.62531773E+02 0.69554338E+02 0.75000000E+00 0.0000E+00 0.9000E+01
#aMCatNLO 1  0  0  5  1 0.77911250D+01 0.00000000D+00  -5  6  0 0.00000000D+00 0.00000000D+00 0.00000000D+00 0.00000000D+00 0.00000000D+00
  <mgrwgt>
 0.6918651051D+00   20    2    0
 0.127130721077310D+03 0.000000000000000D+00 0.000000000000000D+00 0.127130721077310D+03
 0.127130721077310D+03 -.000000000000000D+00 -.000000000000000D+00 -.127130721077310D+03
 0.131092785579433D+03 -.118730997948021D+02 -.216582527434846D+02 0.308264175722256D+02
 0.923499575077412D+02 0.279256733065902D+02 -.422259782656746D+01 -.355475053313132D+02
 0.308186990674449D+02 -.160525735117880D+02 0.258808505700521D+02 0.472108775908759D+01
 0.000000000000000D+00 -.000000000000000D+00 0.000000000000000D+00 0.000000000000000D+00
 0.127130721077310D+03 0.000000000000000D+00 0.000000000000000D+00 0.127130721077310D+03
 0.127130721077310D+03 -.000000000000000D+00 -.000000000000000D+00 -.127130721077310D+03
 0.130990354864205D+03 -.130009767555921D+02 -.198398268654051D+02 0.311581280054114D+02
 0.919736047346066D+02 0.271324353332052D+02 -.294369550971520D+01 -.353142127640223D+02
 0.163581364106027D+02 -.860409798040962D+00 0.159535922907260D+02 0.351158295197602D+01
 0.149393461452051D+02 -.132710487795722D+02 0.682993008439428D+01 0.644501806634847D+00
0.197483158447D-03 0.000000000000D+00 0.000000000000D+00 0.252826053863D-04 0.000000000000D+00  6 -1 2 25 24 21 21 2 0.38647340D-02 0.98981652D-01 0.14775144D+05 0.14775144D+05 0.14775144D+05 0.12485710D+01  1  2  2  3  6  5       21 0.398015680880D+00 0.100000000000D+01
0.179972701918D-04 0.104214725851D-04 -.758387326947D-06 0.252826053863D-04 0.000000000000D+00  6 -1 2 25 24 21 21 4 0.38647340D-02 0.98981652D-01 0.14775144D+05 0.14775144D+05 0.14775144D+05 0.12485710D+01  1  2  3  3  6  5       21 0.565461780481D-01 0.100000000000D+01
0.807828535453D-05 0.000000000000D+00 0.000000000000D+00 0.252826053863D-04 0.000000000000D+00  6 -1 2 25 24 21 21 4 0.38647340D-02 0.98981652D-01 0.14775144D+05 0.14775144D+05 0.14775144D+05 0.12485710D+01  1  2 15  3  6  5       21 0.253814137984D-01 0.100000000000D+01
0.930198800324D-04 0.000000000000D+00 0.000000000000D+00 0.252834222573D-04 0.000000000000D+00  6 -1 2 25 24 21 21 4 0.38647340D-02 0.98981652D-01 0.14769137D+05 0.14769137D+05 0.14769137D+05 0.12485912D+01  1  2 12  3  6  5       21 0.292276563081D+00 0.100000000000D+01
0.940017404280D-04 0.000000000000D+00 0.000000000000D+00 0.252834222573D-04 0.000000000000D+00  6 -1 2 25 24 21 21 4 0.38647340D-02 0.98981652D-01 0.14769137D+05 0.14769137D+05 0.14769137D+05 0.12485912D+01  1  2 12  3  6  5       21 0.295361653943D+00 0.100000000000D+01
-.332748009300D-03 0.000000000000D+00 0.000000000000D+00 0.252826053863D-04 0.000000000000D+00  6 -1 2 25 24 21 21 4 0.38647340D-02 0.98981652D-01 0.14775144D+05 0.14775144D+05 0.14775144D+05 0.12485710D+01  1  2  4  3  6  5       21 -.104547122861D+01 0.100000000000D+01
-.144931172799D-03 0.000000000000D+00 0.000000000000D+00 0.252826053863D-04 0.000000000000D+00  6 -1 2 25 24 21 21 4 0.38647340D-02 0.98981652D-01 0.14775144D+05 0.14775144D+05 0.14775144D+05 0.12485710D+01  1  2  5  3  6  5       21 -.455363719858D+00 0.100000000000D+01
0.376114299691D-03 0.000000000000D+00 -.000000000000D+00 0.252826053863D-04 0.000000000000D+00  6 -1 2 25 24 21 21 4 0.38647340D-02 0.98981652D-01 0.14775144D+05 0.14775144D+05 0.14775144D+05 0.12485710D+01  1  2  6  3  6  5       21 0.118172511331D+01 0.100000000000D+01
0.314866829784D-05 0.000000000000D+00 0.000000000000D+00 0.252834222573D-04 0.000000000000D+00  6 -1 2 25 24 1 -1 4 0.38647340D-02 0.98981652D-01 0.14769137D+05 0.14769137D+05 0.14769137D+05 0.12485912D+01  1  2 12  6  6  5       21 0.989338997271D-02 0.100000000000D+01
0.318178982196D-05 0.000000000000D+00 0.000000000000D+00 0.252834222573D-04 0.000000000000D+00  6 -1 2 25 24 1 -1 4 0.38647340D-02 0.98981652D-01 0.14769137D+05 0.14769137D+05 0.14769137D+05 0.12485912D+01  1  2 12  6  6  5       21 0.999746068566D-02 0.100000000000D+01
-.108348941776D-04 0.000000000000D+00 0.000000000000D+00 0.252826053863D-04 0.000000000000D+00  6 -1 2 25 24 1 -1 4 0.38647340D-02 0.98981652D-01 0.14775144D+05 0.14775144D+05 0.14775144D+05 0.12485710D+01  1  2  5  6  6  5       21 -.340424880421D-01 0.100000000000D+01
0.314866829784D-05 0.000000000000D+00 0.000000000000D+00 0.252834222573D-04 0.000000000000D+00  6 -1 2 25 24 2 -2 4 0.38647340D-02 0.98981652D-01 0.14769137D+05 0.14769137D+05 0.14769137D+05 0.12485912D+01  1  2 12  7  6  5       21 0.989338997271D-02 0.100000000000D+01
0.318178982196D-05 0.000000000000D+00 0.000000000000D+00 0.252834222573D-04 0.000000000000D+00  6 -1 2 25 24 2 -2 4 0.38647340D-02 0.98981652D-01 0.14769137D+05 0.14769137D+05 0.14769137D+05 0.12485912D+01  1  2 12  7  6  5       21 0.999746068566D-02 0.100000000000D+01
-.108348941776D-04 0.000000000000D+00 0.000000000000D+00 0.252826053863D-04 0.000000000000D+00  6 -1 2 25 24 2 -2 4 0.38647340D-02 0.98981652D-01 0.14775144D+05 0.14775144D+05 0.14775144D+05 0.12485710D+01  1  2  5  7  6  5       21 -.340424880421D-01 0.100000000000D+01
0.314866829784D-05 0.000000000000D+00 0.000000000000D+00 0.252834222573D-04 0.000000000000D+00  6 -1 2 25 24 3 -3 4 0.38647340D-02 0.98981652D-01 0.14769137D+05 0.14769137D+05 0.14769137D+05 0.12485912D+01  1  2 12  8  6  5       21 0.989338997271D-02 0.100000000000D+01
0.314866829784D-05 0.000000000000D+00 0.000000000000D+00 0.252834222573D-04 0.000000000000D+00  6 -1 2 25 24 4 -4 4 0.38647340D-02 0.98981652D-01 0.14769137D+05 0.14769137D+05 0.14769137D+05 0.12485912D+01  1  2 12  8  6  5       21 0.989338997271D-02 0.100000000000D+01
0.318178982196D-05 0.000000000000D+00 0.000000000000D+00 0.252834222573D-04 0.000000000000D+00  6 -1 2 25 24 3 -3 4 0.38647340D-02 0.98981652D-01 0.14769137D+05 0.14769137D+05 0.14769137D+05 0.12485912D+01  1  2 12  8  6  5       21 0.999746068566D-02 0.100000000000D+01
0.318178982196D-05 0.000000000000D+00 0.000000000000D+00 0.252834222573D-04 0.000000000000D+00  6 -1 2 25 24 4 -4 4 0.38647340D-02 0.98981652D-01 0.14769137D+05 0.14769137D+05 0.14769137D+05 0.12485912D+01  1  2 12  8  6  5       21 0.999746068566D-02 0.100000000000D+01
-.108348941776D-04 0.000000000000D+00 0.000000000000D+00 0.252826053863D-04 0.000000000000D+00  6 -1 2 25 24 3 -3 4 0.38647340D-02 0.98981652D-01 0.14775144D+05 0.14775144D+05 0.14775144D+05 0.12485710D+01  1  2  5  8  6  5       21 -.340424880421D-01 0.100000000000D+01
-.108348941776D-04 0.000000000000D+00 0.000000000000D+00 0.252826053863D-04 0.000000000000D+00  6 -1 2 25 24 4 -4 4 0.38647340D-02 0.98981652D-01 0.14775144D+05 0.14775144D+05 0.14775144D+05 0.12485710D+01  1  2  5  8  6  5       21 -.340424880421D-01 0.100000000000D+01
  </mgrwgt>
  </event>
  <event>
  5     66 0.43535451E-03 0.40553041E+02 0.75467711E-02 0.11571481E+00
       -1 -1    0    0    0  501 0.00000000E+00 0.00000000E+00 0.20442756E+02 0.20445260E+02 0.32000000E+00 0.0000E+00 0.9000E+01
        2 -1    0    0  502    0 -.00000000E+00 -.00000000E+00 -.19057265E+04 0.19057265E+04 0.32000000E+00 0.0000E+00 0.9000E+01
       25  1    1    2    0    0 -.71121585E+02 -.13928670E+03 -.96449654E+03 0.98505718E+03 0.12500000E+03 0.0000E+00 0.9000E+01
       24  1    1    2    0    0 0.47394035E+02 0.10640460E+03 -.82562734E+03 0.83767288E+03 0.80419002E+02 0.0000E+00 0.9000E+01
       21  1    1    2  502  501 0.23727551E+02 0.32882107E+02 -.95159868E+02 0.10344174E+03 0.75000000E+00 0.0000E+00 0.9000E+01
#aMCatNLO 1  0  0  5  2 0.14194512D+02 0.00000000D+00  -5  6  0 0.00000000D+00 0.00000000D+00 0.00000000D+00 0.00000000D+00 0.00000000D+00
  <mgrwgt>
 0.1633421369D+00   20    2    0
 0.197384751079604D+03 0.000000000000000D+00 0.000000000000000D+00 0.197384751079604D+03
 0.197384751079604D+03 -.000000000000000D+00 -.000000000000000D+00 -.197384751079604D+03
 0.200219109415790D+03 -.711229252720724D+02 -.139288559538896D+03 -.170834937142202D+01
 0.144285823480212D+03 0.473930692468348D+02 0.106403257343021D+03 -.279897609341708D+02
 0.502645692632062D+02 0.237298560252376D+02 0.328853021958745D+02 0.296981103055928D+02
 0.000000000000000D+00 0.000000000000000D+00 0.000000000000000D+00 0.000000000000000D+00
 0.197384751079604D+03 0.000000000000000D+00 0.000000000000000D+00 0.197384751079604D+03
 0.197384751079604D+03 -.000000000000000D+00 -.000000000000000D+00 -.197384751079604D+03
 0.197399757902783D+03 -.689793123130493D+02 -.136317898449612D+03 0.974399906190976D+00
 0.146046896675206D+03 0.489582891911262D+02 0.108572369992347D+03 -.260308752793804D+02
 0.296534627247323D+02 0.194280505927036D+02 0.638252142050034D+01 0.214742199404611D+02
 0.216693848564877D+02 0.592972529219542D+00 0.213630070367647D+02 0.358225543272838D+01
0.212848027122D-03 0.000000000000D+00 0.000000000000D+00 0.109204260590D-04 0.000000000000D+00  6 -1 2 25 24 21 21 2 0.31452341D-02 0.29318889D+00 0.36540198D+05 0.36540198D+05 0.36540198D+05 0.12060106D+01  1  2  2  3  6  5       21 0.103196589438D+00 0.100000000000D+01
0.243852214215D-04 0.112322989812D-04 -.817392468321D-06 0.109204260590D-04 0.000000000000D+00  6 -1 2 25 24 21 21 4 0.31452341D-02 0.29318889D+00 0.36540198D+05 0.36540198D+05 0.36540198D+05 0.12060106D+01  1  2  3  3  6  5       21 0.171958909226D-01 0.100000000000D+01
0.767713008300D-05 0.000000000000D+00 0.000000000000D+00 0.109204260590D-04 0.000000000000D+00  6 -1 2 25 24 21 21 4 0.31452341D-02 0.29318889D+00 0.36540198D+05 0.36540198D+05 0.36540198D+05 0.12060106D+01  1  2 15  3  6  5       21 0.541373355705D-02 0.100000000000D+01
0.942809385278D-04 0.000000000000D+00 0.000000000000D+00 0.109178253423D-04 0.000000000000D+00  6 -1 2 25 24 21 21 4 0.31452341D-02 0.29318889D+00 0.36658181D+05 0.36658181D+05 0.36658181D+05 0.12058670D+01  1  2 12  3  6  5       21 0.664529633004D-01 0.100000000000D+01
0.103905008223D-03 0.000000000000D+00 0.000000000000D+00 0.109178253423D-04 0.000000000000D+00  6 -1 2 25 24 21 21 4 0.31452341D-02 0.29318889D+00 0.36658181D+05 0.36658181D+05 0.36658181D+05 0.12058670D+01  1  2 12  3  6  5       21 0.732363912154D-01 0.100000000000D+01
-.316128384869D-03 0.000000000000D+00 0.000000000000D+00 0.109204260590D-04 0.000000000000D+00  6 -1 2 25 24 21 21 4 0.31452341D-02 0.29318889D+00 0.36540198D+05 0.36540198D+05 0.36540198D+05 0.12060106D+01  1  2  4  3  6  5       21 -.222926383557D+00 0.100000000000D+01
-.157771360276D-03 0.000000000000D+00 0.000000000000D+00 0.109204260590D-04 0.000000000000D+00  6 -1 2 25 24 21 21 4 0.31452341D-02 0.29318889D+00 0.36540198D+05 0.36540198D+05 0.36540198D+05 0.12060106D+01  1  2  5  3  6  5       21 -.111256693352D+00 0.100000000000D+01
0.333713524271D-03 0.000000000000D+00 -.000000000000D+00 0.109204260590D-04 0.000000000000D+00  6 -1 2 25 24 21 21 4 0.31452341D-02 0.29318889D+00 0.36540198D+05 0.36540198D+05 0.36540198D+05 0.12060106D+01  1  2  6  3  6  5       21 0.235327014816D+00 0.100000000000D+01
0.261480646392D-05 0.000000000000D+00 0.000000000000D+00 0.109178253423D-04 0.000000000000D+00  6 -1 2 25 24 1 -1 4 0.31452341D-02 0.29318889D+00 0.36658181D+05 0.36658181D+05 0.36658181D+05 0.12058670D+01  1  2 12  6  6  5       21 0.184301981607D-02 0.100000000000D+01
0.287047505207D-05 0.000000000000D+00 0.000000000000D+00 0.109178253423D-04 0.000000000000D+00  6 -1 2 25 24 1 -1 4 0.31452341D-02 0.29318889D+00 0.36658181D+05 0.36658181D+05 0.36658181D+05 0.12058670D+01  1  2 12  6  6  5       21 0.202322522738D-02 0.100000000000D+01
-.665164794037D-05 0.000000000000D+00 0.000000000000D+00 0.109204260590D-04 0.000000000000D+00  6 -1 2 25 24 1 -1 4 0.31452341D-02 0.29318889D+00 0.36540198D+05 0.36540198D+05 0.36540198D+05 0.12060106D+01  1  2  5  6  6  5       21 -.469058740378D-02 0.100000000000D+01
0.261480646392D-05 0.000000000000D+00 0.000000000000D+00 0.109178253423D-04 0.000000000000D+00  6 -1 2 25 24 2 -2 4 0.31452341D-02 0.29318889D+00 0.36658181D+05 0.36658181D+05 0.36658181D+05 0.12058670D+01  1  2 12  7  6  5       21 0.184301981607D-02 0.100000000000D+01
0.287047505207D-05 0.000000000000D+00 0.000000000000D+00 0.109178253423D-04 0.000000000000D+00  6 -1 2 25 24 2 -2 4 0.31452341D-02 0.29318889D+00 0.36658181D+05 0.36658181D+05 0.36658181D+05 0.12058670D+01  1  2 12  7  6  5       21 0.202322522738D-02 0.100000000000D+01
-.665164794037D-05 0.000000000000D+00 0.000000000000D+00 0.109204260590D-04 0.000000000000D+00  6 -1 2 25 24 2 -2 4 0.31452341D-02 0.29318889D+00 0.36540198D+05 0.36540198D+05 0.36540198D+05 0.12060106D+01  1  2  5  7  6  5       21 -.469058740378D-02 0.100000000000D+01
0.261480646392D-05 0.000000000000D+00 0.000000000000D+00 0.109178253423D-04 0.000000000000D+00  6 -1 2 25 24 3 -3 4 0.31452341D-02 0.29318889D+00 0.36658181D+05 0.36658181D+05 0.36658181D+05 0.12058670D+01  1  2 12  8  6  5       21 0.184301981607D-02 0.100000000000D+01
0.261480646392D-05 0.000000000000D+00 0.000000000000D+00 0.109178253423D-04 0.000000000000D+00  6 -1 2 25 24 4 -4 4 0.31452341D-02 0.29318889D+00 0.36658181D+05 0.36658181D+05 0.36658181D+05 0.12058670D+01  1  2 12  8  6  5       21 0.184301981607D-02 0.100000000000D+01
0.287047505207D-05 0.000000000000D+00 0.000000000000D+00 0.109178253423D-04 0.000000000000D+00  6 -1 2 25 24 3 -3 4 0.31452341D-02 0.29318889D+00 0.36658181D+05 0.36658181D+05 0.36658181D+05 0.12058670D+01  1  2 12  8  6  5       21 0.202322522738D-02 0.100000000000D+01
0.287047505207D-05 0.000000000000D+00 0.000000000000D+00 0.109178253423D-04 0.000000000000D+00  6 -1 2 25 24 4 -4 4 0.31452341D-02 0.29318889D+00 0.36658181D+05 0.36658181D+05 0.36658181D+05 0.12058670D+01  1  2 12  8  6  5       21 0.202322522738D-02 0.100000000000D+01
-.665164794037D-05 0.000000000000D+00 0.000000000000D+00 0.109204260590D-04 0.000000000000D+00  6 -1 2 25 24 3 -3 4 0.31452341D-02 0.29318889D+00 0.36540198D+05 0.36540198D+05 0.36540198D+05 0.12060106D+01  1  2  5  8  6  5       21 -.469058740378D-02 0.100000000000D+01
-.665164794037D-05 0.000000000000D+00 0.000000000000D+00 0.109204260590D-04 0.000000000000D+00  6 -1 2 25 24 4 -4 4 0.31452341D-02 0.29318889D+00 0.36540198D+05 0.36540198D+05 0.36540198D+05 0.12060106D+01  1  2  5  8  6  5       21 -.469058740378D-02 0.100000000000D+01
  </mgrwgt>
  </event>
  <event>
  5     66 0.43535451E-03 0.48845825E+02 0.75467711E-02 0.11339141E+00
       -1 -1    0    0    0  501 0.00000000E+00 0.00000000E+00 0.13120556E+03 0.13120595E+03 0.32000000E+00 0.0000E+00 0.9000E+01
        2 -1    0    0  502    0 0.00000000E+00 0.00000000E+00 -.74817693E+03 0.74817700E+03 0.32000000E+00 0.0000E+00 0.9000E+01
       25  1    1    2    0    0 -.63333892E+02 -.27828404E+02 -.35269104E+03 0.38052802E+03 0.12500000E+03 0.0000E+00 0.9000E+01
       24  1    1    2    0    0 0.33227681E+02 0.66292927E+02 -.36815697E+03 0.38406458E+03 0.80419002E+02 0.0000E+00 0.9000E+01
       21  1    1    2  502  501 0.30106210E+02 -.38464523E+02 0.10387664E+03 0.11479034E+03 0.75000000E+00 0.0000E+00 0.9000E+01
#aMCatNLO 1  0  0  1  5 0.12976289D+03 0.00000000D+00  -5  6  0 0.00000000D+00 0.00000000D+00 0.00000000D+00 0.00000000D+00 0.00000000D+00
  <mgrwgt>
 0.2728702453D+00    3    2    0
 0.313313219500273D+03 0.000000000000000D+00 0.000000000000000D+00 0.313313219500273D+03
 0.313313219500273D+03 0.000000000000000D+00 0.000000000000000D+00 -.313313219500273D+03
 0.186761517171795D+03 -.633339280219214D+02 -.278283579614583D+02 -.120288238622043D+03
 0.176496995179961D+03 0.332276467897285D+02 0.662929710445653D+02 -.138510428604081D+03
 0.263367926648791D+03 0.301062812321929D+02 -.384646130831069D+02 0.258798667226123D+03
 0.000000000000000D+00 -.000000000000000D+00 -.000000000000000D+00 -.000000000000000D+00
 0.328577584292186D+03 0.000000000000000D+00 0.000000000000000D+00 0.328577584292186D+03
 0.808483524392620D+03 0.000000000000000D+00 0.000000000000000D+00 -.808483524392620D+03
 0.184926718312213D+03 -.632338340998643D+02 0.102524640922041D+02 -.120288238622043D+03
 0.193987720623019D+03 0.333274166095041D+02 0.104250488095712D+03 -.138510428604081D+03
 0.261006729979597D+03 0.302474929010017D+02 0.152594924498893D+02 0.258798667226123D+03
 0.497139939769977D+03 -.341075410641413D+00 -.129762444637806D+03 -.479905940100434D+03
0.170237132234D-02 0.000000000000D+00 0.000000000000D+00 0.282240839864D-04 0.000000000000D+00  6 -1 2 25 24 21 21 2 0.20185506D-01 0.11510418D+00 0.22665446D+05 0.22665446D+05 0.22665446D+05 0.12278888D+01  1  2  2  1  6  1       -1 0.225633162207D+00 0.100000000000D+01
0.181775582614D-03 0.898366028012D-04 -.653755412245D-05 0.282240839864D-04 0.000000000000D+00  6 -1 2 25 24 21 21 4 0.20185506D-01 0.11510418D+00 0.22665446D+05 0.22665446D+05 0.22665446D+05 0.12278888D+01  1  2  3  1  6  1       -1 0.363247177012D-01 0.100000000000D+01
0.546074879878D-04 0.000000000000D+00 0.000000000000D+00 0.282240839864D-04 0.000000000000D+00  6 -1 2 25 24 21 21 4 0.20185506D-01 0.11510418D+00 0.22665446D+05 0.22665446D+05 0.22665446D+05 0.12278888D+01  1  2 15  1  6  1       -1 0.109123654399D-01 0.100000000000D+01
  </mgrwgt>
  </event>
  <event>
  5     66 -.43535451E-03 0.23645995E+02 0.75467711E-02 0.12110979E+00
       -1 -1    0    0    0  501 0.00000000E+00 0.00000000E+00 0.41644451E+02 0.41645681E+02 0.32000000E+00 0.0000E+00 0.9000E+01
        2 -1    0    0  502    0 -.00000000E+00 -.00000000E+00 -.48864741E+03 0.48864751E+03 0.32000000E+00 0.0000E+00 0.9000E+01
       25  1    1    2    0    0 0.28987303E+02 0.68560698E+02 -.25984337E+03 0.29779927E+03 0.12500000E+03 0.0000E+00 0.9000E+01
       24  1    1    2    0    0 -.86677845E+01 -.80632796E+02 -.15214290E+03 0.19024052E+03 0.80419002E+02 0.0000E+00 0.9000E+01
       21  1    1    2  502  501 -.20319519E+02 0.12072098E+02 -.35016694E+02 0.42253399E+02 0.75000000E+00 0.0000E+00 0.9000E+01
#aMCatNLO 1  0  0  5  1 0.40836102D+01 0.00000000D+00  -5  6  0 0.00000000D+00 0.00000000D+00 0.00000000D+00 0.00000000D+00 0.00000000D+00
  <mgrwgt>
 -.1788549283D+01   20    2    0
 0.142652749244059D+03 0.000000000000000D+00 0.000000000000000D+00 0.142652749244059D+03
 0.142652749244059D+03 -.000000000000000D+00 -.000000000000000D+00 -.142652749244059D+03
 0.146404695694812D+03 0.289925403102461D+02 0.685575864622399D+02 -.163897793249891D+02
 0.115228482779551D+03 -.866366288756736D+01 -.806352444033829D+02 0.152736896224877D+02
 0.236723200137540D+02 -.203288774226787D+02 0.120776579411430D+02 0.111608970250142D+01
 0.000000000000000D+00 0.000000000000000D+00 0.000000000000000D+00 0.000000000000000D+00
 0.142652749244059D+03 0.000000000000000D+00 0.000000000000000D+00 0.142652749244059D+03
 0.142652749244059D+03 -.000000000000000D+00 -.000000000000000D+00 -.142652749244059D+03
 0.146475835245694D+03 0.280831108642777D+02 0.690978906581694D+02 -.163398501125347D+02
 0.114992992963474D+03 -.937852839420476D+01 -.802105332457734D+02 0.153129369460876D+02
 0.177701028343337D+02 -.147723998155413D+02 0.933182723464771D+01 -.323570068073005D+01
 0.606656744461553D+01 -.393218265453150D+01 0.178081535295625D+01 0.426261384717709D+01
0.140195373777D-03 0.000000000000D+00 0.000000000000D+00 0.378055284412D-04 0.000000000000D+00  6 -1 2 25 24 21 21 2 0.64069413D-02 0.75176627D-01 0.20070689D+05 0.20070689D+05 0.20070689D+05 0.12336574D+01  1  2  2  3  6  5       21 0.179733945389D+00 0.100000000000D+01
0.299535670460D-04 0.739831313140D-05 -.538387149594D-06 0.378055284412D-04 0.000000000000D+00  6 -1 2 25 24 21 21 4 0.64069413D-02 0.75176627D-01 0.20070689D+05 0.20070689D+05 0.20070689D+05 0.12336574D+01  1  2  3  3  6  5       21 0.584432155557D-01 0.100000000000D+01
0.125490506616D-05 0.000000000000D+00 0.000000000000D+00 0.378055284412D-04 0.000000000000D+00  6 -1 2 25 24 21 21 4 0.64069413D-02 0.75176627D-01 0.20070689D+05 0.20070689D+05 0.20070689D+05 0.12336574D+01  1  2 15  3  6  5       21 0.244847924693D-02 0.100000000000D+01
0.837787086311D-05 0.000000000000D+00 0.000000000000D+00 0.378475321475D-04 0.000000000000D+00  6 -1 2 25 24 21 21 4 0.64069413D-02 0.75176627D-01 0.19785255D+05 0.19785255D+05 0.19785255D+05 0.12343425D+01  1  2 12  3  6  5       21 0.163753885979D-01 0.100000000000D+01
0.840190957704D-05 0.000000000000D+00 0.000000000000D+00 0.378475321475D-04 0.000000000000D+00  6 -1 2 25 24 21 21 4 0.64069413D-02 0.75176627D-01 0.19785255D+05 0.19785255D+05 0.19785255D+05 0.12343425D+01  1  2 12  3  6  5       21 0.164223746745D-01 0.100000000000D+01
-.124269908432D-02 0.000000000000D+00 0.000000000000D+00 0.378055284412D-04 0.000000000000D+00  6 -1 2 25 24 21 21 4 0.64069413D-02 0.75176627D-01 0.20070689D+05 0.20070689D+05 0.20070689D+05 0.12336574D+01  1  2  4  3  6  5       21 -.242466382533D+01 0.100000000000D+01
-.357196846183D-03 0.000000000000D+00 0.000000000000D+00 0.378055284412D-04 0.000000000000D+00  6 -1 2 25 24 21 21 4 0.64069413D-02 0.75176627D-01 0.20070689D+05 0.20070689D+05 0.20070689D+05 0.12336574D+01  1  2  5  3  6  5       21 -.696936436493D+00 0.100000000000D+01
0.549189774048D-03 0.000000000000D+00 -.000000000000D+00 0.378055284412D-04 0.000000000000D+00  6 -1 2 25 24 21 21 4 0.64069413D-02 0.75176627D-01 0.20070689D+05 0.20070689D+05 0.20070689D+05 0.12336574D+01  1  2  6  3  6  5       21 0.107153903561D+01 0.100000000000D+01
0.375298749683D-06 0.000000000000D+00 0.000000000000D+00 0.378475321475D-04 0.000000000000D+00  6 -1 2 25 24 1 -1 4 0.64069413D-02 0.75176627D-01 0.19785255D+05 0.19785255D+05 0.19785255D+05 0.12343425D+01  1  2 12  6  6  5       21 0.733559035080D-03 0.100000000000D+01
0.376028095941D-06 0.000000000000D+00 0.000000000000D+00 0.378475321475D-04 0.000000000000D+00  6 -1 2 25 24 1 -1 4 0.64069413D-02 0.75176627D-01 0.19785255D+05 0.19785255D+05 0.19785255D+05 0.12343425D+01  1  2 12  6  6  5       21 0.734984615467D-03 0.100000000000D+01
-.227889241228D-05 0.000000000000D+00 0.000000000000D+00 0.378055284412D-04 0.000000000000D+00  6 -1 2 25 24 1 -1 4 0.64069413D-02 0.75176627D-01 0.20070689D+05 0.20070689D+05 0.20070689D+05 0.12336574D+01  1  2  5  6  6  5       21 -.444640867897D-02 0.100000000000D+01
0.375298749683D-06 0.000000000000D+00 0.000000000000D+00 0.378475321475D-04 0.000000000000D+00  6 -1 2 25 24 2 -2 4 0.64069413D-02 0.75176627D-01 0.19785255D+05 0.19785255D+05 0.19785255D+05 0.12343425D+01  1  2 12  7  6  5       21 0.733559035080D-03 0.100000000000D+01
0.376028095941D-06 0.000000000000D+00 0.000000000000D+00 0.378475321475D-04 0.000000000000D+00  6 -1 2 25 24 2 -2 4 0.64069413D-02 0.75176627D-01 0.19785255D+05 0.19785255D+05 0.19785255D+05 0.12343425D+01  1  2 12  7  6  5       21 0.734984615467D-03 0.100000000000D+01
-.227889241228D-05 0.000000000000D+00 0.000000000000D+00 0.378055284412D-04 0.000000000000D+00  6 -1 2 25 24 2 -2 4 0.64069413D-02 0.75176627D-01 0.20070689D+05 0.20070689D+05 0.20070689D+05 0.12336574D+01  1  2  5  7  6  5       21 -.444640867897D-02 0.100000000000D+01
0.375298749683D-06 0.000000000000D+00 0.000000000000D+00 0.378475321475D-04 0.000000000000D+00  6 -1 2 25 24 3 -3 4 0.64069413D-02 0.75176627D-01 0.19785255D+05 0.19785255D+05 0.19785255D+05 0.12343425D+01  1  2 12  8  6  5       21 0.733559035080D-03 0.100000000000D+01
0.375298749683D-06 0.000000000000D+00 0.000000000000D+00 0.378475321475D-04 0.000000000000D+00  6 -1 2 25 24 4 -4 4 0.64069413D-02 0.75176627D-01 0.19785255D+05 0.19785255D+05 0.19785255D+05 0.12343425D+01  1  2 12  8  6  5       21 0.733559035080D-03 0.100000000000D+01
0.376028095941D-06 0.000000000000D+00 0.000000000000D+00 0.378475321475D-04 0.000000000000D+00  6 -1 2 25 24 3 -3 4 0.64069413D-02 0.75176627D-01 0.19785255D+05 0.19785255D+05 0.19785255D+05 0.12343425D+01  1  2 12  8  6  5       21 0.734984615467D-03 0.100000000000D+01
0.376028095941D-06 0.000000000000D+00 0.000000000000D+00 0.378475321475D-04 0.000000000000D+00  6 -1 2 25 24 4 -4 4 0.64069413D-02 0.75176627D-01 0.19785255D+05 0.19785255D+05 0.19785255D+05 0.12343425D+01  1  2 12  8  6  5       21 0.734984615467D-03 0.100000000000D+01
-.227889241228D-05 0.000000000000D+00 0.000000000000D+00 0.378055284412D-04 0.000000000000D+00  6 -1 2 25 24 3 -3 4 0.64069413D-02 0.75176627D-01 0.20070689D+05 0.20070689D+05 0.20070689D+05 0.12336574D+01  1  2  5  8  6  5       21 -.444640867897D-02 0.100000000000D+01
-.227889241228D-05 0.000000000000D+00 0.000000000000D+00 0.378055284412D-04 0.000000000000D+00  6 -1 2 25 24 4 -4 4 0.64069413D-02 0.75176627D-01 0.20070689D+05 0.20070689D+05 0.20070689D+05 0.12336574D+01  1  2  5  8  6  5       21 -.444640867897D-02 0.100000000000D+01
  </mgrwgt>
  </event>
  <event>
  5     66 0.43535451E-03 0.21131280E+02 0.75467711E-02 0.11884942E+00
       -1 -1    0    0    0  501 0.00000000E+00 0.00000000E+00 0.82823835E+01 0.82885630E+01 0.32000000E+00 0.0000E+00 0.9000E+01
        2 -1    0    0  502    0 0.00000000E+00 0.00000000E+00 -.25809280E+04 0.25809280E+04 0.32000000E+00 0.0000E+00 0.9000E+01
       25  1    1    2    0    0 -.23335305E+02 -.45643890E+02 -.86972174E+03 0.88015272E+03 0.12500000E+03 0.0000E+00 0.9000E+01
       24  1    1    2    0    0 0.29497502E+02 0.65849181E+02 -.16159653E+04 0.16195732E+04 0.80419002E+02 0.0000E+00 0.9000E+01
       21  1    1    2  502  501 -.61621967E+01 -.20205291E+02 -.86958604E+02 0.89490713E+02 0.75000000E+00 0.0000E+00 0.9000E+01
#aMCatNLO 1  0  0  2  5 0.37419234D+02 0.00000000D+00  -5  6  0 0.00000000D+00 0.00000000D+00 0.00000000D+00 0.00000000D+00 0.00000000D+00
  <mgrwgt>
 0.9946223541D+00    7    4    0
 0.146233584789101D+03 0.000000000000000D+00 0.000000000000000D+00 0.146233584789101D+03
 0.146233584789101D+03 0.000000000000000D+00 0.000000000000000D+00 -.146233584789101D+03
 0.141621062608125D+03 -.233341819597461D+02 -.456402074511765D+02 0.424736717312901D+02
 0.123503256699918D+03 0.294984811522841D+02 0.658523920206807D+02 -.598259185970284D+02
 0.273428502701593D+02 -.616429919253801D+01 -.202121845695042D+02 0.173522468657383D+02
 0.000000000000000D+00 0.000000000000000D+00 0.000000000000000D+00 -.000000000000000D+00
 0.162682317330280D+03 0.000000000000000D+00 0.000000000000000D+00 0.162682317330280D+03
 0.195393655529157D+03 0.000000000000000D+00 0.000000000000000D+00 -.195393655529157D+03
 0.150927508460155D+03 -.465705893640196D+02 -.564028388110074D+02 0.424736717312901D+02
 0.115805585818307D+03 0.104907733385249D+02 0.570484083137483D+02 -.598259185970284D+02
 0.302505517829369D+02 -.107388002711692D+02 -.223310004392674D+02 0.173522468657383D+02
 0.610923267980391D+02 0.468186162966640D+02 0.216854309365264D+02 -.327113381988769D+02
 0.146233584789101D+03 0.000000000000000D+00 0.000000000000000D+00 0.146233584789101D+03
 0.146233584789101D+03 0.000000000000000D+00 0.000000000000000D+00 -.146233584789101D+03
 0.141621062608125D+03 -.233341819597461D+02 -.456402074511765D+02 0.424736717312901D+02
 0.123503256699918D+03 0.294984811522841D+02 0.658523920206807D+02 -.598259185970284D+02
 0.000000000000000D+00 0.000000000000000D+00 0.000000000000000D+00 -.000000000000000D+00
 0.273428502701593D+02 -.616429919253801D+01 -.202121845695042D+02 0.173522468657383D+02
 0.162682317330280D+03 0.000000000000000D+00 0.000000000000000D+00 0.162682317330280D+03
 0.195393655529157D+03 0.000000000000000D+00 0.000000000000000D+00 -.195393655529157D+03
 0.150927508460155D+03 -.465705893640196D+02 -.564028388110074D+02 0.424736717312901D+02
 0.115805585818307D+03 0.104907733385249D+02 0.570484083137483D+02 -.598259185970284D+02
 0.610923267980391D+02 0.468186162966640D+02 0.216854309365264D+02 -.327113381988769D+02
 0.302505517829369D+02 -.107388002711692D+02 -.223310004392674D+02 0.173522468657383D+02
0.318265565759D-03 0.000000000000D+00 0.000000000000D+00 0.415873978800D-04 0.000000000000D+00  6 -1 2 25 24 21 21 2 0.12746897D-02 0.39706633D+00 0.17460851D+05 0.17460851D+05 0.17460851D+05 0.12403708D+01  1  2  2  2  6  2        2 0.266956894914D+00 0.100000000000D+01
0.578959241855D-04 0.167953353309D-04 -.122222357376D-05 0.415873978800D-04 0.000000000000D+00  6 -1 2 25 24 21 21 4 0.12746897D-02 0.39706633D+00 0.17460851D+05 0.17460851D+05 0.17460851D+05 0.12403708D+01  1  2  3  2  6  2        2 0.747141000894D-01 0.100000000000D+01
0.104127626009D-04 0.000000000000D+00 0.000000000000D+00 0.415873978800D-04 0.000000000000D+00  6 -1 2 25 24 21 21 4 0.12746897D-02 0.39706633D+00 0.17460851D+05 0.17460851D+05 0.17460851D+05 0.12403708D+01  1  2 15  2  6  2        2 0.134375640102D-01 0.100000000000D+01
-.128557587696D-03 0.000000000000D+00 0.000000000000D+00 0.415873978800D-04 0.000000000000D+00  6 -1 2 25 24 21 21 4 0.12746897D-02 0.39706633D+00 0.17460851D+05 0.17460851D+05 0.17460851D+05 0.12403708D+01  1  2  4  2  6  2        2 -.165902256670D+00 0.100000000000D+01
-.793191908450D-03 0.000000000000D+00 -.245932823535D-03 0.415873978800D-04 0.000000000000D+00  6 -1 2 25 24 21 21 4 0.12746897D-02 0.54484199D+00 0.17460851D+05 0.17460851D+05 0.17460851D+05 0.12403708D+01  1  2  5  2  6  2        2 -.278421018543D+00 0.100000000000D+01
0.840403295754D-03 0.000000000000D+00 0.234116710184D-03 0.415873978800D-04 0.000000000000D+00  6 -1 2 25 24 21 21 4 0.12746897D-02 0.39706633D+00 0.17460851D+05 0.17460851D+05 0.17460851D+05 0.12403708D+01  1  2  6  2  6  2        2 0.108453188783D+01 0.100000000000D+01
-.258769993847D-04 0.000000000000D+00 -.987859561064D-05 0.415873978800D-04 0.000000000000D+00  6 -1 21 25 24 -2 21 4 0.12746897D-02 0.54484199D+00 0.17460851D+05 0.17460851D+05 0.17460851D+05 0.12403708D+01  3  4  5  5  5  2        2 -.694817562124D-03 0.100000000000D+01
  </mgrwgt>
  </event>
  <event>
  5     66 0.43535451E-03 0.33531992E+02 0.75467711E-02 0.12294964E+00
       -1 -1    0    0    0  501 0.00000000E+00 0.00000000E+00 0.53561164E+03 0.53561173E+03 0.32000000E+00 0.0000E+00 0.9000E+01
        2 -1    0    0  502    0 0.00000000E+00 0.00000000E+00 -.32038243E+02 0.32039841E+02 0.32000000E+00 0.0000E+00 0.9000E+01
       25  1    1    2    0    0 -.14933860E+02 -.18102888E+02 0.20134847E+03 0.23815319E+03 0.12500000E+03 0.0000E+00 0.9000E+01
       24  1    1    2    0    0 0.46575906E+02 0.29181004E+02 0.21442237E+03 0.23551012E+03 0.80419002E+02 0.0000E+00 0.9000E+01
       21  1    1    2  502  501 -.31642046E+02 -.11078117E+02 0.87802551E+02 0.93988266E+02 0.75000000E+00 0.0000E+00 0.9000E+01
#aMCatNLO 1  0  0  5  2 0.29416852D+01 0.00000000D+00  -5  6  0 0.00000000D+00 0.00000000D+00 0.00000000D+00 0.00000000D+00 0.00000000D+00
  <mgrwgt>
 0.7498238138D+00   19    2    0
 0.130998230197112D+03 0.000000000000000D+00 0.000000000000000D+00 0.130998230197112D+03
 0.130998230197112D+03 -.000000000000000D+00 -.000000000000000D+00 -.130998230197112D+03
 0.128987206189318D+03 -.149302567730127D+02 -.181016263547467D+02 -.214969280719536D+02
 0.981336787313519D+02 0.465786472837993D+02 0.291819641569431D+02 0.119098921964882D+02
 0.348755754735530D+02 -.316483905107867D+02 -.110803378021963D+02 0.958703587546541D+01
 0.000000000000000D+00 0.000000000000000D+00 0.000000000000000D+00 -.000000000000000D+00
 0.130998230197112D+03 0.000000000000000D+00 0.000000000000000D+00 0.130998230197112D+03
 0.130998230197112D+03 -.000000000000000D+00 -.000000000000000D+00 -.130998230197112D+03
 0.129175409329641D+03 -.164780457818744D+02 -.186435188424190D+02 -.210280666696478D+02
 0.975044549117177D+02 0.454057177627753D+02 0.287713127746339D+02 0.122651999140676D+02
 0.323549244185886D+02 -.296281283134035D+02 -.777485800048872D+01 0.104195359709208D+02
 0.296167173427578D+01 0.700456332502625D+00 -.235293593172615D+01 -.165666921534054D+01
0.106778448988D-02 0.000000000000D+00 0.000000000000D+00 0.217926652365D-04 0.000000000000D+00  6 -1 2 25 24 21 21 2 0.82401921D-01 0.49290907D-02 0.16656940D+05 0.16656940D+05 0.16656940D+05 0.12426682D+01  1  2  2  3  6  5       21 0.445059729331D+00 0.100000000000D+01
0.859247956040D-04 0.563485356193D-04 -.410057359524D-05 0.217926652365D-04 0.000000000000D+00  6 -1 2 25 24 21 21 4 0.82401921D-01 0.49290907D-02 0.16656940D+05 0.16656940D+05 0.16656940D+05 0.12426682D+01  1  2  3  3  6  5       21 0.553048917436D-01 0.100000000000D+01
0.507469788022D-04 0.000000000000D+00 0.000000000000D+00 0.217926652365D-04 0.000000000000D+00  6 -1 2 25 24 21 21 4 0.82401921D-01 0.49290907D-02 0.16656940D+05 0.16656940D+05 0.16656940D+05 0.12426682D+01  1  2 15  3  6  5       21 0.326629368070D-01 0.100000000000D+01
0.305546933254D-05 0.000000000000D+00 0.000000000000D+00 0.218040471887D-04 0.000000000000D+00  6 -1 2 25 24 21 21 4 0.82401921D-01 0.49290907D-02 0.16546780D+05 0.16546780D+05 0.16546780D+05 0.12429926D+01  1  2 12  3  6  5       21 0.196833925643D-02 0.100000000000D+01
0.358503851735D-05 0.000000000000D+00 0.000000000000D+00 0.218040471887D-04 0.000000000000D+00  6 -1 2 25 24 21 21 4 0.82401921D-01 0.49290907D-02 0.16546780D+05 0.16546780D+05 0.16546780D+05 0.12429926D+01  1  2 12  3  6  5       21 0.230948875001D-02 0.100000000000D+01
-.323492154642D-02 0.000000000000D+00 0.000000000000D+00 0.217926652365D-04 0.000000000000D+00  6 -1 2 25 24 21 21 4 0.82401921D-01 0.49290907D-02 0.16656940D+05 0.16656940D+05 0.16656940D+05 0.12426682D+01  1  2  4  3  6  5       21 -.208213455343D+01 0.100000000000D+01
0.346911937936D-02 0.000000000000D+00 0.000000000000D+00 0.217926652365D-04 0.167279469264D-04  6 -1 2 25 24 21 21 4 0.82401921D-01 0.49290907D-02 0.16546780D+05 0.16546780D+05 0.16546780D+05 0.12429926D+01  1  2 11  3  6  5       21 0.223481341701D+01 0.100000000000D+01
0.169879698763D-06 0.000000000000D+00 0.000000000000D+00 0.218040471887D-04 0.000000000000D+00  6 -1 2 25 24 1 -1 4 0.82401921D-01 0.49290907D-02 0.16546780D+05 0.16546780D+05 0.16546780D+05 0.12429926D+01  1  2 12  6  6  5       21 0.109436830664D-03 0.100000000000D+01
0.175069699563D-06 0.000000000000D+00 0.000000000000D+00 0.218040471887D-04 0.000000000000D+00  6 -1 2 25 24 1 -1 4 0.82401921D-01 0.49290907D-02 0.16546780D+05 0.16546780D+05 0.16546780D+05 0.12429926D+01  1  2 12  6  6  5       21 0.112780239222D-03 0.100000000000D+01
0.225691648782D-04 0.000000000000D+00 0.000000000000D+00 0.218040471887D-04 0.141965261670D-06  6 -1 2 25 24 1 -1 4 0.82401921D-01 0.49290907D-02 0.16546780D+05 0.16546780D+05 0.16546780D+05 0.12429926D+01  1  2 11  6  6  5       21 0.145390996864D-01 0.100000000000D+01
0.169879698763D-06 0.000000000000D+00 0.000000000000D+00 0.218040471887D-04 0.000000000000D+00  6 -1 2 25 24 2 -2 4 0.82401921D-01 0.49290907D-02 0.16546780D+05 0.16546780D+05 0.16546780D+05 0.12429926D+01  1  2 12  7  6  5       21 0.109436830664D-03 0.100000000000D+01
0.175069699563D-06 0.000000000000D+00 0.000000000000D+00 0.218040471887D-04 0.000000000000D+00  6 -1 2 25 24 2 -2 4 0.82401921D-01 0.49290907D-02 0.16546780D+05 0.16546780D+05 0.16546780D+05 0.12429926D+01  1  2 12  7  6  5       21 0.112780239222D-03 0.100000000000D+01
0.229652253026D-04 0.000000000000D+00 0.000000000000D+00 0.218040471887D-04 0.133723125425D-06  6 -1 2 25 24 2 -2 4 0.82401921D-01 0.49290907D-02 0.16546780D+05 0.16546780D+05 0.16546780D+05 0.12429926D+01  1  2 11  7  6  5       21 0.147942425782D-01 0.100000000000D+01
0.169879698763D-06 0.000000000000D+00 0.000000000000D+00 0.218040471887D-04 0.000000000000D+00  6 -1 2 25 24 3 -3 4 0.82401921D-01 0.49290907D-02 0.16546780D+05 0.16546780D+05 0.16546780D+05 0.12429926D+01  1  2 12  8  6  5       21 0.109436830664D-03 0.100000000000D+01
0.169879698763D-06 0.000000000000D+00 0.000000000000D+00 0.218040471887D-04 0.000000000000D+00  6 -1 2 25 24 4 -4 4 0.82401921D-01 0.49290907D-02 0.16546780D+05 0.16546780D+05 0.16546780D+05 0.12429926D+01  1  2 12  8  6  5       21 0.109436830664D-03 0.100000000000D+01
0.175069699563D-06 0.000000000000D+00 0.000000000000D+00 0.218040471887D-04 0.000000000000D+00  6 -1 2 25 24 3 -3 4 0.82401921D-01 0.49290907D-02 0.16546780D+05 0.16546780D+05 0.16546780D+05 0.12429926D+01  1  2 12  8  6  5       21 0.112780239222D-03 0.100000000000D+01
0.175069699563D-06 0.000000000000D+00 0.000000000000D+00 0.218040471887D-04 0.000000000000D+00  6 -1 2 25 24 4 -4 4 0.82401921D-01 0.49290907D-02 0.16546780D+05 0.16546780D+05 0.16546780D+05 0.12429926D+01  1  2 12  8  6  5       21 0.112780239222D-03 0.100000000000D+01
0.229876318083D-04 0.000000000000D+00 0.000000000000D+00 0.218040471887D-04 0.133458408294D-06  6 -1 2 25 24 3 -3 4 0.82401921D-01 0.49290907D-02 0.16546780D+05 0.16546780D+05 0.16546780D+05 0.12429926D+01  1  2 11  8  6  5       21 0.148086768925D-01 0.100000000000D+01
0.229876318083D-04 0.000000000000D+00 0.000000000000D+00 0.218040471887D-04 0.133458408294D-06  6 -1 2 25 24 4 -4 4 0.82401921D-01 0.49290907D-02 0.16546780D+05 0.16546780D+05 0.16546780D+05 0.12429926D+01  1  2 11  8  6  5       21 0.148086768925D-01 0.100000000000D+01
  </mgrwgt>
  </event>
  <event>
  6     66 0.43535451E-03 0.22427321E+02 0.75467711E-02 0.11688020E+00
       -1 -1    0    0    0  503 0.00000000E+00 0.00000000E+00 0.79562148E+02 0.79562791E+02 0.32000000E+00 0.0000E+00 0.9000E+01
        2 -1    0    0  502    0 0.00000000E+00 0.00000000E+00 -.16954226E+04 0.16954226E+04 0.32000000E+00 0.0000E+00 0.9000E+01
       25  1    1    2    0    0 -.10377986E+03 -.35165959E+02 -.73777475E+03 0.75626945E+03 0.12500000E+03 0.0000E+00 0.9000E+01
       24  1    1    2    0    0 0.75215093E+02 -.19638712E+02 -.91780934E+03 0.92459948E+03 0.80419002E+02 0.0000E+00 0.9000E+01
       21  1    1    2  502  501 -.90954118E+01 0.37196040E+02 0.26202762E+01 0.38388803E+02 0.75000000E+00 0.0000E+00 0.9000E+01
       21  1    1    2  501  503 0.37660179E+02 0.17608631E+02 0.37103364E+02 0.55727687E+02 0.75000000E+00 0.0000E+00 0.9000E+01
#aMCatNLO 2  0  0  1  5 0.41573465D+02 0.00000000D+00  -5  6  0 0.00000000D+00 0.00000000D+00 0.00000000D+00 0.00000000D+00 0.00000000D+00
  <mgrwgt>
 0.1109543551D+00    1    2    0
 0.235493856692510D+03 0.000000000000000D+00 0.000000000000000D+00 0.235493856692510D+03
 0.235493856692510D+03 0.000000000000000D+00 0.000000000000000D+00 -.235493856692510D+03
 0.161744423277779D+03 -.905147978339211D+02 -.289638410152538D+02 -.387869275425217D+02
 0.159252914376748D+03 0.876897249486636D+02 -.138061689630436D+02 -.104948447440202D+03
 0.149990375730494D+03 0.282507288525746D+01 0.427700099782974D+02 0.143735374982723D+03
 0.000000000000000D+00 0.000000000000000D+00 0.000000000000000D+00 0.000000000000000D+00
 0.567451532596988D+03 0.000000000000000D+00 0.000000000000000D+00 0.567451532596988D+03
 0.237714722162327D+03 0.000000000000000D+00 0.000000000000000D+00 -.237714722162327D+03
 0.170693728452960D+03 -.103779887578064D+03 -.351661501911772D+02 -.387869275425217D+02
 0.153376604112210D+03 0.752150477859082D+02 -.196389078382107D+02 -.104948447440202D+03
 0.148748638241530D+03 -.909533940732818D+01 0.371964266879363D+02 0.143735374982723D+03
 0.332347283952615D+03 0.376601791994836D+02 0.176086313414517D+02 0.329736810434662D+03
0.928728406370D-03 0.000000000000D+00 0.000000000000D+00 0.155679200880D-04 0.766208123306D-07  6 -1 2 25 24 21 21 4 0.12240361D-01 0.26083384D+00 0.32030854D+05 0.32030854D+05 0.32030854D+05 0.12119240D+01  1  2  1  1  6  1       -1 0.110954355052D+00 0.100000000000D+01
  </mgrwgt>
  </event>
  <event>
  5     66 0.43535451E-03 0.21134342E+02 0.75467711E-02 0.11687811E+00
       -1 -1    0    0    0  501 0.00000000E+00 0.00000000E+00 0.12111382E+02 0.12115609E+02 0.32000000E+00 0.0000E+00 0.9000E+01
        2 -1    0    0  502    0 0.00000000E+00 0.00000000E+00 -.12947609E+04 0.12947610E+04 0.32000000E+00 0.0000E+00 0.9000E+01
       25  1    1    2    0    0 -.13379003E+02 0.86145838E+00 -.86343802E+03 0.87254224E+03 0.12500000E+03 0.0000E+00 0.9000E+01
       24  1    1    2    0    0 0.30151765E+02 0.11988326E+02 -.38017671E+03 0.38994153E+03 0.80419002E+02 0.0000E+00 0.9000E+01
       21  1    1    2  502  501 -.16772762E+02 -.12849784E+02 -.39034832E+02 0.44392827E+02 0.75000000E+00 0.0000E+00 0.9000E+01
#aMCatNLO 1  0  0  1  2 0.10483907D+03 0.00000000D+00  -5  6  0 0.00000000D+00 0.00000000D+00 0.00000000D+00 0.00000000D+00 0.00000000D+00
  <mgrwgt>
 0.6559646753D+00    3    2    0
 0.125236304302024D+03 0.000000000000000D+00 0.000000000000000D+00 0.125236304302024D+03
 0.125236304302024D+03 0.000000000000000D+00 0.000000000000000D+00 -.125236304302024D+03
 0.131019557647251D+03 -.133765513190088D+02 0.863336679998794D+00 -.368977914063738D+02
 0.877224151434197D+02 0.301534061132006D+02 0.119895833571697D+02 0.132298206683915D+02
 0.317306358133781D+02 -.167768547941918D+02 -.128529200371685D+02 0.236679707379823D+02
 0.000000000000000D+00 -.000000000000000D+00 0.000000000000000D+00 -.000000000000000D+00
 0.145839459947096D+03 0.000000000000000D+00 0.000000000000000D+00 0.145839459947096D+03
 0.408494653341238D+03 0.000000000000000D+00 0.000000000000000D+00 -.408494653341238D+03
 0.136487318450256D+03 0.391023835958330D+02 -.106463460491241D+02 -.368977914063738D+02
 0.106349845771580D+03 0.682260930583469D+02 0.363947968042906D+01 0.132298206683915D+02
 0.286913949835622D+02 -.492338819223652D+01 -.154526229474914D+02 0.236679707379823D+02
 0.282805554082936D+03 -.102405088461943D+03 0.224594893161864D+02 -.262655193394141D+03
0.225297288087D-03 0.000000000000D+00 0.000000000000D+00 0.571713036022D-04 0.000000000000D+00  6 -1 2 25 24 21 21 2 0.18636177D-02 0.19919432D+00 0.13638742D+05 0.13638742D+05 0.13638742D+05 0.12525604D+01  1  2  2  1  6  1       -1 0.516830786091D+00 0.100000000000D+01
0.308230833548D-04 0.118892645314D-04 -.865200908392D-06 0.571713036022D-04 0.000000000000D+00  6 -1 2 25 24 21 21 4 0.18636177D-02 0.19919432D+00 0.13638742D+05 0.13638742D+05 0.13638742D+05 0.12525604D+01  1  2  3  1  6  1       -1 0.110934299707D+00 0.100000000000D+01
0.783525293502D-05 0.000000000000D+00 0.000000000000D+00 0.571713036022D-04 0.000000000000D+00  6 -1 2 25 24 21 21 4 0.18636177D-02 0.19919432D+00 0.13638742D+05 0.13638742D+05 0.13638742D+05 0.12525604D+01  1  2 15  1  6  1       -1 0.281995894883D-01 0.100000000000D+01
  </mgrwgt>
  </event>
  <event>
  5     66 0.43535451E-03 0.45770867E+02 0.75467711E-02 0.10650879E+00
       -3 -1    0    0    0  501 0.00000000E+00 0.00000000E+00 0.43427265E+03 0.43427294E+03 0.50000000E+00 0.0000E+00 0.9000E+01
        4 -1    0    0  502    0 0.00000000E+00 0.00000000E+00 -.49279387E+02 0.49303758E+02 0.15500000E+01 0.0000E+00 0.9000E+01
       25  1    1    2    0    0 -.22884095E+02 -.22801527E+02 0.17875599E+03 0.22050464E+03 0.12500000E+03 0.0000E+00 0.9000E+01
       24  1    1    2    0    0 0.28110176E+02 0.68268918E+02 0.10277089E+03 0.14993298E+03 0.80419002E+02 0.0000E+00 0.9000E+01
       21  1    1    2  502  501 -.52260808E+01 -.45467391E+02 0.10346639E+03 0.11313908E+03 0.75000000E+00 0.0000E+00 0.9000E+01
#aMCatNLO 1  0  0  1  1 0.43689899D+01 0.00000000D+00  -5  6  0 0.00000000D+00 0.00000000D+00 0.00000000D+00 0.00000000D+00 0.00000000D+00
  <mgrwgt>
 0.1514816250D-01    5    4    0
 0.146310123478194D+03 0.000000000000000D+00 0.000000000000000D+00 0.146310123478194D+03
 0.146310123478194D+03 0.000000000000000D+00 0.000000000000000D+00 -.146310123478194D+03
 0.129214961684093D+03 -.228838440181161D+02 -.227993422548699D+02 0.529395870039143D+01
 0.112563693203186D+03 0.281103947355156D+02 0.682708216197294D+02 -.274275353677825D+02
 0.508415920691088D+02 -.522655071739946D+01 -.454714793648595D+02 0.221335766673910D+02
 0.000000000000000D+00 -.000000000000000D+00 0.000000000000000D+00 0.000000000000000D+00
 0.669544629279680D+03 0.000000000000000D+00 0.000000000000000D+00 0.669544629279680D+03
 0.247916768069955D+03 0.000000000000000D+00 0.000000000000000D+00 -.247916768069955D+03
 0.168618935413337D+03 0.884655617720162D+02 -.703787166803088D+02 0.529395870039143D+01
 0.156194219694148D+03 0.128589333480103D+03 0.253363756343598D+02 -.274275353677825D+02
 0.837010196429175D+02 0.450741034847844D+02 -.669648465108054D+02 0.221335766673910D+02
 0.508947222599232D+03 -.262128998736903D+03 0.112007187556754D+03 0.421627861209725D+03
 0.146310123478194D+03 0.000000000000000D+00 0.000000000000000D+00 0.146310123478194D+03
 0.146310123478194D+03 0.000000000000000D+00 0.000000000000000D+00 -.146310123478194D+03
 0.129214961684093D+03 -.228838440181161D+02 -.227993422548699D+02 0.529395870039143D+01
 0.112563693203186D+03 0.281103947355156D+02 0.682708216197294D+02 -.274275353677825D+02
 0.000000000000000D+00 -.000000000000000D+00 0.000000000000000D+00 0.000000000000000D+00
 0.508415920691088D+02 -.522655071739946D+01 -.454714793648595D+02 0.221335766673910D+02
 0.669544629279680D+03 0.000000000000000D+00 0.000000000000000D+00 0.669544629279680D+03
 0.247916768069955D+03 0.000000000000000D+00 0.000000000000000D+00 -.247916768069955D+03
 0.168618935413337D+03 0.884655617720162D+02 -.703787166803088D+02 0.529395870039143D+01
 0.156194219694148D+03 0.128589333480103D+03 0.253363756343598D+02 -.274275353677825D+02
 0.508947222599232D+03 -.262128998736903D+03 0.112007187556754D+03 0.421627861209725D+03
 0.837010196429175D+02 0.450741034847844D+02 -.669648465108054D+02 0.221335766673910D+02
0.174395395383D-03 0.000000000000D+00 0.000000000000D+00 0.112071496080D-04 0.000000000000D+00  6 -3 4 25 24 21 21 2 0.66813074D-01 0.75833410D-02 0.20170870D+05 0.20170870D+05 0.20170870D+05 0.12334195D+01  1  2  2  1  6  1       -3 0.139436889067D-01 0.100000000000D+01
0.436836746733D-05 0.920309785518D-05 -.669724237632D-06 0.112071496080D-04 0.000000000000D+00  6 -3 4 25 24 21 21 4 0.66813074D-01 0.75833410D-02 0.20170870D+05 0.20170870D+05 0.20170870D+05 0.12334195D+01  1  2  3  1  6  1       -3 0.531353395682D-03 0.100000000000D+01
0.512656623588D-05 0.000000000000D+00 0.000000000000D+00 0.112071496080D-04 0.000000000000D+00  6 -3 4 25 24 21 21 4 0.66813074D-01 0.75833410D-02 0.20170870D+05 0.20170870D+05 0.20170870D+05 0.12334195D+01  1  2 15  1  6  1       -3 0.623578121115D-03 0.100000000000D+01
0.354677799149D-04 0.000000000000D+00 -.113025255655D-03 0.112071496080D-04 0.000000000000D+00  6 -3 4 25 24 21 21 4 0.38523026D+00 0.75833410D-02 0.20170870D+05 0.20170870D+05 0.20170870D+05 0.12334195D+01  1  2  5  1  6  1       -3 0.325175141070D-04 0.100000000000D+01
0.127380243982D-05 0.000000000000D+00 -.242591838865D-04 0.112071496080D-04 0.000000000000D+00  6 21 4 25 24 3 21 4 0.38523026D+00 0.75833410D-02 0.20170870D+05 0.20170870D+05 0.20170870D+05 0.12334195D+01  3  4  5  4  5  1       -3 0.170245651394D-04 0.100000000000D+01
  </mgrwgt>
  </event>
  <event>
  5     66 0.43535451E-03 0.21429803E+02 0.75467711E-02 0.10161549E+00
       -1 -1    0    0    0  501 0.00000000E+00 0.00000000E+00 0.10909764E+02 0.10914456E+02 0.32000000E+00 0.0000E+00 0.9000E+01
        2 -1    0    0  502    0 0.00000000E+00 0.00000000E+00 -.18413435E+04 0.18413435E+04 0.32000000E+00 0.0000E+00 0.9000E+01
       25  1    1    2    0    0 0.80574534E+01 -.62702417E+02 -.13161218E+04 0.13235551E+04 0.12500000E+03 0.0000E+00 0.9000E+01
       24  1    1    2    0    0 0.12520767E+02 0.56764858E+02 -.38256350E+03 0.39522280E+03 0.80419002E+02 0.0000E+00 0.9000E+01
       21  1    1    2  502  501 -.20578220E+02 0.59375585E+01 -.13174840E+03 0.13348005E+03 0.75000000E+00 0.0000E+00 0.9000E+01
#aMCatNLO 1  0  0  1  1 0.77899981D+02 0.00000000D+00  -5  6  0 0.00000000D+00 0.00000000D+00 0.00000000D+00 0.00000000D+00 0.00000000D+00
  <mgrwgt>
 0.4497262462D+00    5    4    0
 0.141749759183918D+03 0.000000000000000D+00 0.000000000000000D+00 0.141749759183918D+03
 0.141749759183918D+03 0.000000000000000D+00 0.000000000000000D+00 -.141749759183918D+03
 0.149884292316396D+03 0.806410639231905D+01 -.627043364967272D+02 -.533238919789764D+02
 0.112160258242776D+03 0.125257454812854D+02 0.567634219412577D+02 0.522850571805418D+02
 0.214549678086638D+02 -.205898518736044D+02 0.594091455546949D+01 0.103883479843457D+01
 0.000000000000000D+00 -.000000000000000D+00 -.000000000000000D+00 0.000000000000000D+00
 0.134864454837058D+04 0.000000000000000D+00 0.000000000000000D+00 0.134864454837058D+04
 0.316678407744308D+03 0.000000000000000D+00 0.000000000000000D+00 -.316678407744308D+03
 0.226548850145501D+03 0.164364497078795D+03 0.764215685948540D+02 -.533238919789764D+02
 0.288245617141544D+03 0.178779955581992D+03 0.204749408117991D+03 0.522850571805418D+02
 0.222540382628724D+02 -.244125135235743D+01 0.220953237835874D+02 0.103883479843457D+01
 0.112827445056497D+04 -.340703201308430D+03 -.303266300496432D+03 0.103196614062628D+04
 0.141749759183918D+03 0.000000000000000D+00 0.000000000000000D+00 0.141749759183918D+03
 0.141749759183918D+03 0.000000000000000D+00 0.000000000000000D+00 -.141749759183918D+03
 0.149884292316396D+03 0.806410639231905D+01 -.627043364967272D+02 -.533238919789764D+02
 0.112160258242776D+03 0.125257454812854D+02 0.567634219412577D+02 0.522850571805418D+02
 0.000000000000000D+00 -.000000000000000D+00 -.000000000000000D+00 0.000000000000000D+00
 0.214549678086638D+02 -.205898518736044D+02 0.594091455546949D+01 0.103883479843457D+01
 0.134864454837058D+04 0.000000000000000D+00 0.000000000000000D+00 0.134864454837058D+04
 0.316678407744308D+03 0.000000000000000D+00 0.000000000000000D+00 -.316678407744308D+03
 0.226548850145501D+03 0.164364497078795D+03 0.764215685948540D+02 -.533238919789764D+02
 0.288245617141544D+03 0.178779955581992D+03 0.204749408117991D+03 0.522850571805418D+02
 0.112827445056497D+04 -.340703201308430D+03 -.303266300496432D+03 0.103196614062628D+04
 0.222540382628724D+02 -.244125135235743D+01 0.220953237835874D+02 0.103883479843457D+01
0.216113954386D-03 0.000000000000D+00 0.000000000000D+00 0.403386871928D-04 0.000000000000D+00  6 -1 2 25 24 21 21 2 0.16787883D-02 0.28328398D+00 0.16995798D+05 0.16995798D+05 0.16995798D+05 0.12416850D+01  1  2  2  1  6  1       -1 0.296620898512D+00 0.100000000000D+01
0.464713614293D-04 0.114046466979D-04 -.829934488952D-06 0.403386871928D-04 0.000000000000D+00  6 -1 2 25 24 21 21 4 0.16787883D-02 0.28328398D+00 0.16995798D+05 0.16995798D+05 0.16995798D+05 0.12416850D+01  1  2  3  1  6  1       -1 0.983393153693D-01 0.100000000000D+01
0.644488870040D-05 0.000000000000D+00 0.000000000000D+00 0.403386871928D-04 0.000000000000D+00  6 -1 2 25 24 21 21 4 0.16787883D-02 0.28328398D+00 0.16995798D+05 0.16995798D+05 0.16995798D+05 0.12416850D+01  1  2 15  1  6  1       -1 0.136382047553D-01 0.100000000000D+01
0.133173609912D-02 0.000000000000D+00 -.660434481877D-03 0.403386871928D-04 0.000000000000D+00  6 -1 2 25 24 21 21 4 0.51376321D-01 0.28328398D+00 0.16995798D+05 0.16995798D+05 0.16995798D+05 0.12416850D+01  1  2  5  1  6  1       -1 0.138785033432D-01 0.100000000000D+01
0.257639074878D-03 0.000000000000D+00 -.224185907541D-03 0.403386871928D-04 0.000000000000D+00  6 21 2 25 24 1 21 4 0.51376321D-01 0.28328398D+00 0.16995798D+05 0.16995798D+05 0.16995798D+05 0.12416850D+01  3  4  5  4  5  1       -1 0.272493241829D-01 0.100000000000D+01
  </mgrwgt>
  </event>
  <event>
  5     66 0.43535451E-03 0.29685470E+02 0.75467711E-02 0.11233921E+00
       -1 -1    0    0    0  501 0.00000000E+00 0.00000000E+00 0.48756641E+03 0.48756652E+03 0.32000000E+00 0.0000E+00 0.9000E+01
        2 -1    0    0  502    0 0.00000000E+00 0.00000000E+00 -.91873127E+02 0.91873684E+02 0.32000000E+00 0.0000E+00 0.9000E+01
       25  1    1    2    0    0 0.63869113E+02 -.16217039E+03 0.22420821E+03 0.31027862E+03 0.12500000E+03 0.0000E+00 0.9000E+01
       24  1    1    2    0    0 -.59893773E+02 0.13275786E+03 0.10602310E+03 0.19728159E+03 0.80419002E+02 0.0000E+00 0.9000E+01
       21  1    1    2  502  501 -.39753396E+01 0.29412533E+02 0.65461974E+02 0.71879990E+02 0.75000000E+00 0.0000E+00 0.9000E+01
#aMCatNLO 1  0  0  1  1 0.56538555D+02 0.00000000D+00  -5  6  0 0.00000000D+00 0.00000000D+00 0.00000000D+00 0.00000000D+00 0.00000000D+00
  <mgrwgt>
 0.4582510578D+00    7    4    0
 0.211646976406111D+03 0.000000000000000D+00 0.000000000000000D+00 0.211646976406111D+03
 0.211646976406111D+03 0.000000000000000D+00 0.000000000000000D+00 -.211646976406111D+03
 0.215148752438707D+03 0.638695235088777D+02 -.162173429594324D+03 0.168655974188804D+02
 0.170944075781204D+03 -.598934468120882D+02 0.132755442881981D+03 -.392864926469124D+02
 0.372011245923121D+02 -.397607669678953D+01 0.294179867123429D+02 0.224208952280319D+02
 0.000000000000000D+00 -.000000000000000D+00 0.000000000000000D+00 0.000000000000000D+00
 0.336176207875433D+03 0.000000000000000D+00 0.000000000000000D+00 0.336176207875433D+03
 0.220042297379897D+03 0.000000000000000D+00 0.000000000000000D+00 -.220042297379897D+03
 0.238746465143672D+03 0.639612629349899D+02 -.192352237018612D+03 0.168655974188804D+02
 0.154706068360584D+03 -.598276277503759D+02 0.111103456681085D+03 -.392864926469124D+02
 0.336005997700539D+02 -.396176654477833D+01 0.247104870030042D+02 0.224208952280319D+02
 0.129165371981019D+03 -.171868639835676D+00 0.565382933345219D+02 0.116133910495537D+03
 0.211646976406111D+03 0.000000000000000D+00 0.000000000000000D+00 0.211646976406111D+03
 0.211646976406111D+03 0.000000000000000D+00 0.000000000000000D+00 -.211646976406111D+03
 0.215148752438707D+03 0.638695235088777D+02 -.162173429594324D+03 0.168655974188804D+02
 0.170944075781204D+03 -.598934468120882D+02 0.132755442881981D+03 -.392864926469124D+02
 0.000000000000000D+00 -.000000000000000D+00 0.000000000000000D+00 0.000000000000000D+00
 0.372011245923121D+02 -.397607669678953D+01 0.294179867123429D+02 0.224208952280319D+02
 0.336176207875433D+03 0.000000000000000D+00 0.000000000000000D+00 0.336176207875433D+03
 0.220042297379897D+03 0.000000000000000D+00 0.000000000000000D+00 -.220042297379897D+03
 0.238746465143672D+03 0.639612629349899D+02 -.192352237018612D+03 0.168655974188804D+02
 0.154706068360584D+03 -.598276277503759D+02 0.111103456681085D+03 -.392864926469124D+02
 0.129165371981019D+03 -.171868639835676D+00 0.565382933345219D+02 0.116133910495537D+03
 0.336005997700539D+02 -.396176654477833D+01 0.247104870030042D+02 0.224208952280319D+02
0.117079822902D-02 0.000000000000D+00 0.000000000000D+00 0.188519207470D-04 0.000000000000D+00  6 -1 2 25 24 21 21 2 0.75010268D-01 0.14134378D-01 0.42135889D+05 0.42135889D+05 0.42135889D+05 0.11997128D+01  1  2  2  1  6  1       -1 0.149263177728D+00 0.100000000000D+01
0.260304153323D-03 0.617847199845D-04 -.449617347768D-05 0.188519207470D-04 0.000000000000D+00  6 -1 2 25 24 21 21 4 0.75010268D-01 0.14134378D-01 0.42135889D+05 0.42135889D+05 0.42135889D+05 0.11997128D+01  1  2  3  1  6  1       -1 0.477646160715D-01 0.100000000000D+01
0.149210725402D-04 0.000000000000D+00 0.000000000000D+00 0.188519207470D-04 0.000000000000D+00  6 -1 2 25 24 21 21 4 0.75010268D-01 0.14134378D-01 0.42135889D+05 0.42135889D+05 0.42135889D+05 0.11997128D+01  1  2 15  1  6  1       -1 0.273794825077D-02 0.100000000000D+01
-.701403510561D-03 0.000000000000D+00 0.000000000000D+00 0.188519207470D-04 0.000000000000D+00  6 -1 2 25 24 21 21 4 0.75010268D-01 0.14134378D-01 0.42135889D+05 0.42135889D+05 0.42135889D+05 0.11997128D+01  1  2  4  1  6  1       -1 -.128704321331D+00 0.100000000000D+01
-.443879987674D-02 0.000000000000D+00 -.612750533347D-03 0.188519207470D-04 0.000000000000D+00  6 -1 2 25 24 21 21 4 0.12137238D+00 0.14134378D-01 0.42135889D+05 0.42135889D+05 0.42135889D+05 0.11997128D+01  1  2  5  1  6  1       -1 -.283728821287D+00 0.100000000000D+01
0.429174637521D-02 0.000000000000D+00 0.548054238968D-03 0.188519207470D-04 0.000000000000D+00  6 -1 2 25 24 21 21 4 0.75010268D-01 0.14134378D-01 0.42135889D+05 0.42135889D+05 0.42135889D+05 0.11997128D+01  1  2  6  1  6  1       -1 0.787515739841D+00 0.100000000000D+01
-.216417198742D-03 0.000000000000D+00 -.335261001281D-04 0.188519207470D-04 0.000000000000D+00  6 21 2 25 24 1 21 4 0.12137238D+00 0.14134378D-01 0.42135889D+05 0.42135889D+05 0.42135889D+05 0.11997128D+01  3  4  5  4  5  1       -1 -.116597281486D+00 0.100000000000D+01
  </mgrwgt>
  </event>
  <event>
  6     66 0.43535451E-03 0.15846364E+02 0.75467711E-02 0.12339585E+00
       -1 -1    0    0    0  501 0.00000000E+00 0.00000000E+00 0.17218470E+03 0.17218500E+03 0.32000000E+00 0.0000E+00 0.9000E+01
        2 -1    0    0  502    0 0.00000000E+00 0.00000000E+00 -.93413381E+02 0.93413929E+02 0.32000000E+00 0.0000E+00 0.9000E+01
       25  1    1    2    0    0 -.13498504E+01 0.65942926E+01 0.23736241E+02 0.12741160E+03 0.12500000E+03 0.0000E+00 0.9000E+01
       24  1    1    2    0    0 -.54545662E+00 0.25030761E+02 0.31429553E+02 0.89899217E+02 0.80419002E+02 0.0000E+00 0.9000E+01
        1  1    1    2  502    0 0.14618116E+02 -.20000626E+02 0.15649271E+02 0.29303863E+02 0.32000000E+00 0.0000E+00 0.9000E+01
       -1  1    1    2    0  501 -.12722809E+02 -.11624428E+02 0.79562553E+01 0.18984246E+02 0.32000000E+00 0.0000E+00 0.9000E+01
#aMCatNLO 2  0  0  5  2 0.13498008D+02 0.00000000D+00  -5  6  0 0.00000000D+00 0.00000000D+00 0.00000000D+00 0.00000000D+00 0.00000000D+00
  <mgrwgt>
 0.5354516831D-02    3    2    0
 0.126824553094919D+03 0.000000000000000D+00 0.000000000000000D+00 0.126824553094919D+03
 0.126824553094919D+03 -.000000000000000D+00 -.000000000000000D+00 -.126824553094919D+03
 0.126580740428137D+03 -.164311910652021D+01 0.114877673598147D+02 -.162177436169131D+02
 0.853554677599805D+02 -.742494189753683D+00 0.283185258780786D+02 0.398117025826855D+01
 0.417128980017212D+02 0.238561329627390D+01 -.398062932378933D+02 0.122365733586445D+02
 0.000000000000000D+00 0.000000000000000D+00 -.000000000000000D+00 0.000000000000000D+00
 0.126824553094919D+03 0.000000000000000D+00 0.000000000000000D+00 0.126824553094919D+03
 0.126824553094919D+03 -.000000000000000D+00 -.000000000000000D+00 -.126824553094919D+03
 0.126040979283404D+03 -.134860574500591D+01 0.657352360990472D+01 -.147070904197249D+02
 0.843701186318050D+02 -.544623424562515D+00 0.250168584558236D+02 0.499611267897631D+01
 0.256063935911567D+02 0.146760713494039D+02 -.197084031851302D+02 0.720271937429121D+01
 0.176316146834731D+02 -.127828421798355D+02 -.118819788805982D+02 0.250825836645737D+01
-.309330832072D-05 0.000000000000D+00 0.000000000000D+00 0.172724161202D-04 0.000000000000D+00  6 -1 2 25 24 1 -1 4 0.26490019D-01 0.14371354D-01 0.15803866D+05 0.15803866D+05 0.15803866D+05 0.12452461D+01  1  2 13  6  6  5       21 -.416552276476D-02 0.100000000000D+01
-.328832792676D-05 0.000000000000D+00 0.000000000000D+00 0.172724161202D-04 0.000000000000D+00  6 -1 2 25 24 1 -1 4 0.26490019D-01 0.14371354D-01 0.15803866D+05 0.15803866D+05 0.15803866D+05 0.12452461D+01  1  2 13  6  6  5       21 -.442814081776D-02 0.100000000000D+01
0.103578890257D-04 0.000000000000D+00 0.000000000000D+00 0.172805636953D-04 0.370934719534D-07  6 -1 2 25 24 1 -1 4 0.26490019D-01 0.14371354D-01 0.15803866D+05 0.15803866D+05 0.15803866D+05 0.12452461D+01  1  2  1  6  6  5       21 0.139481804133D-01 0.100000000000D+01
  </mgrwgt>
  </event>
  <event>
  5     66 -.43535451E-03 0.35023587E+02 0.75467711E-02 0.10885996E+00
       -1 -1    0    0    0  501 0.00000000E+00 0.00000000E+00 0.25160376E+02 0.25162411E+02 0.32000000E+00 0.0000E+00 0.9000E+01
        2 -1    0    0  502    0 0.00000000E+00 0.00000000E+00 -.31268316E+04 0.31268316E+04 0.32000000E+00 0.0000E+00 0.9000E+01
       25  1    1    2    0    0 0.20911006E+03 -.39676333E+02 -.97359479E+03 0.10043969E+04 0.12500000E+03 0.0000E+00 0.9000E+01
       24  1    1    2    0    0 -.23911394E+03 0.21621002E+02 -.18175607E+04 0.18351123E+04 0.80419002E+02 0.0000E+00 0.9000E+01
       21  1    1    2  502  501 0.30003878E+02 0.18055331E+02 -.31051575E+03 0.31248491E+03 0.75000000E+00 0.0000E+00 0.9000E+01
#aMCatNLO 1  0  0  1  5 0.47697411D+02 0.00000000D+00  -5  6  0 0.00000000D+00 0.00000000D+00 0.00000000D+00 0.00000000D+00 0.00000000D+00
  <mgrwgt>
 -.6318080530D+00    7    4    0
 0.280491517726557D+03 0.000000000000000D+00 0.000000000000000D+00 0.280491517726557D+03
 0.280491517726557D+03 0.000000000000000D+00 0.000000000000000D+00 -.280491517726557D+03
 0.260402126977961D+03 0.209107473529614D+03 -.396778894658584D+02 0.829698579982087D+02
 0.261662559844533D+03 -.239116537840842D+03 0.216194374571799D+02 -.659997009468056D+02
 0.389183486306191D+02 0.300090643112274D+02 0.180584520086785D+02 -.169701570514032D+02
 0.000000000000000D+00 -.000000000000000D+00 -.000000000000000D+00 0.000000000000000D+00
 0.413262244050955D+03 0.000000000000000D+00 0.000000000000000D+00 0.413262244050955D+03
 0.286130428416371D+03 0.000000000000000D+00 0.000000000000000D+00 -.286130428416371D+03
 0.272891817221218D+03 0.226642501562775D+03 -.243746395957619D+02 0.829698579982087D+02
 0.248149714203136D+03 -.222353601350911D+03 0.362488640641313D+02 -.659997009468056D+02
 0.420824537339477D+02 0.326724197751716D+02 0.203828277713260D+02 -.169701570514032D+02
 0.136268687309023D+03 -.369613199870363D+02 -.322570522396953D+02 0.127131815634584D+03
 0.280491517726557D+03 0.000000000000000D+00 0.000000000000000D+00 0.280491517726557D+03
 0.280491517726557D+03 0.000000000000000D+00 0.000000000000000D+00 -.280491517726557D+03
 0.260402126977961D+03 0.209107473529614D+03 -.396778894658584D+02 0.829698579982087D+02
 0.261662559844533D+03 -.239116537840842D+03 0.216194374571799D+02 -.659997009468056D+02
 0.000000000000000D+00 -.000000000000000D+00 -.000000000000000D+00 0.000000000000000D+00
 0.389183486306191D+02 0.300090643112274D+02 0.180584520086785D+02 -.169701570514032D+02
 0.413262244050955D+03 0.000000000000000D+00 0.000000000000000D+00 0.413262244050955D+03
 0.286130428416371D+03 0.000000000000000D+00 0.000000000000000D+00 -.286130428416371D+03
 0.272891817221218D+03 0.226642501562775D+03 -.243746395957619D+02 0.829698579982087D+02
 0.248149714203136D+03 -.222353601350911D+03 0.362488640641313D+02 -.659997009468056D+02
 0.136268687309023D+03 -.369613199870363D+02 -.322570522396953D+02 0.127131815634584D+03
 0.420824537339477D+02 0.326724197751716D+02 0.203828277713260D+02 -.169701570514032D+02
0.240278854347D-02 0.000000000000D+00 0.000000000000D+00 0.114326509968D-04 0.000000000000D+00  6 -1 2 25 24 21 21 2 0.38709849D-02 0.48105117D+00 0.71571284D+05 0.71571284D+05 0.71571284D+05 0.11771564D+01  1  2  2  1  6  1       -1 0.171208885065D+00 0.100000000000D+01
0.657901202653D-03 0.126798635034D-03 -.922734067566D-05 0.114326509968D-04 0.000000000000D+00  6 -1 2 25 24 21 21 4 0.38709849D-02 0.48105117D+00 0.71571284D+05 0.71571284D+05 0.71571284D+05 0.11771564D+01  1  2  3  1  6  1       -1 0.649590599705D-01 0.100000000000D+01
0.423799968752D-04 0.000000000000D+00 0.000000000000D+00 0.114326509968D-04 0.000000000000D+00  6 -1 2 25 24 21 21 4 0.38709849D-02 0.48105117D+00 0.71571284D+05 0.71571284D+05 0.71571284D+05 0.11771564D+01  1  2 15  1  6  1       -1 0.418446530796D-02 0.100000000000D+01
-.912777480341D-02 0.000000000000D+00 0.000000000000D+00 0.114326509968D-04 0.000000000000D+00  6 -1 2 25 24 21 21 4 0.38709849D-02 0.48105117D+00 0.71571284D+05 0.71571284D+05 0.71571284D+05 0.11771564D+01  1  2  4  1  6  1       -1 -.901247282208D+00 0.100000000000D+01
-.168828843899D-01 0.000000000000D+00 -.148538385942D-02 0.114326509968D-04 0.000000000000D+00  6 -1 2 25 24 21 21 4 0.58514372D-02 0.48105117D+00 0.71571284D+05 0.71571284D+05 0.71571284D+05 0.11771564D+01  1  2  5  1  6  1       -1 -.896417647196D+00 0.100000000000D+01
0.162113957095D-01 0.000000000000D+00 0.136702739005D-02 0.114326509968D-04 0.000000000000D+00  6 -1 2 25 24 21 21 4 0.38709849D-02 0.48105117D+00 0.71571284D+05 0.71571284D+05 0.71571284D+05 0.11771564D+01  1  2  6  1  6  1       -1 0.160066134832D+01 0.100000000000D+01
-.770085206217D-03 0.000000000000D+00 -.724123101440D-04 0.114326509968D-04 0.000000000000D+00  6 21 2 25 24 1 21 4 0.58514372D-02 0.48105117D+00 0.71571284D+05 0.71571284D+05 0.71571284D+05 0.11771564D+01  3  4  5  4  5  1       -1 -.675156882229D+00 0.100000000000D+01
  </mgrwgt>
  </event>
  <event>
  6     66 -.43535451E-03 0.24343625E+02 0.75467711E-02 0.12243014E+00
       -1 -1    0    0    0  501 0.00000000E+00 0.00000000E+00 0.25309176E+03 0.25309196E+03 0.32000000E+00 0.0000E+00 0.9000E+01
        2 -1    0    0  502    0 0.00000000E+00 0.00000000E+00 -.74355982E+02 0.74356671E+02 0.32000000E+00 0.0000E+00 0.9000E+01
       25  1    1    2    0    0 0.37399770E+02 0.25863946E+01 0.70274748E+02 0.14821934E+03 0.12500000E+03 0.0000E+00 0.9000E+01
       24  1    1    2    0    0 0.69609735E+01 -.10489835E+02 0.35237023E+02 0.88698114E+02 0.80419002E+02 0.0000E+00 0.9000E+01
       21  1    1    2  502  503 -.16588093E+02 -.10038656E+02 0.19978504E+02 0.27850360E+02 0.75000000E+00 0.0000E+00 0.9000E+01
       21  1    1    2  503  501 -.27772650E+02 0.17942096E+02 0.53245503E+02 0.62680819E+02 0.75000000E+00 0.0000E+00 0.9000E+01
#aMCatNLO 2  0  0  5  1 0.12801601D+02 0.00000000D+00  -5  6  0 0.00000000D+00 0.00000000D+00 0.00000000D+00 0.00000000D+00 0.00000000D+00
  <mgrwgt>
 -.2145680668D-01    3    2    0
 0.137182477527684D+03 0.000000000000000D+00 0.000000000000000D+00 0.137182477527684D+03
 0.137182477527684D+03 -.000000000000000D+00 -.000000000000000D+00 -.137182477527684D+03
 0.132141140307538D+03 0.402631671258767D+02 0.207624334653808D+01 -.145205904954316D+02
 0.833436226349813D+02 0.876921795278375D+01 -.108119969960602D+02 -.168862375029308D+02
 0.588801921128482D+02 -.490323850786605D+02 0.873575364952212D+01 0.314068279983625D+02
 0.000000000000000D+00 0.000000000000000D+00 0.000000000000000D+00 0.000000000000000D+00
 0.137182477527684D+03 0.000000000000000D+00 0.000000000000000D+00 0.137182477527684D+03
 0.137182477527684D+03 -.000000000000000D+00 -.000000000000000D+00 -.137182477527684D+03
 0.131145085058783D+03 0.374845767987234D+02 0.257128515517163D+01 -.127408135512177D+02
 0.829162779494399D+02 0.701459463014470D+01 -.104993881545835D+02 -.157623445328533D+02
 0.194402238978866D+02 -.158816895207528D+02 -.984118715918904D+01 0.537078006105135D+01
 0.408633681492574D+02 -.286174819081153D+02 0.177692901586009D+02 0.231323780230197D+02
-.421528959842D-04 0.000000000000D+00 0.000000000000D+00 0.117000481204D-04 0.000000000000D+00  6 -1 2 25 24 21 21 4 0.38937262D-01 0.11439450D-01 0.17463364D+05 0.17463364D+05 0.17463364D+05 0.12403638D+01  1  2 13  3  6  5       21 -.382996414021D-01 0.100000000000D+01
-.477765145351D-04 0.000000000000D+00 0.000000000000D+00 0.117000481204D-04 0.000000000000D+00  6 -1 2 25 24 21 21 4 0.38937262D-01 0.11439450D-01 0.17463364D+05 0.17463364D+05 0.17463364D+05 0.12403638D+01  1  2 13  3  6  5       21 -.434091971954D-01 0.100000000000D+01
0.663138750418D-04 0.000000000000D+00 0.000000000000D+00 0.117107573362D-04 0.359904696401D-06  6 -1 2 25 24 21 21 4 0.38937262D-01 0.11439450D-01 0.17463364D+05 0.17463364D+05 0.17463364D+05 0.12403638D+01  1  2  1  3  6  5       21 0.602520319134D-01 0.100000000000D+01
  </mgrwgt>
  </event>
  <event>
  6     66 -.43535451E-03 0.12270862E+03 0.75467711E-02 0.11210090E+00
       -1 -1    0    0    0  501 0.00000000E+00 0.00000000E+00 0.64816703E+02 0.64817493E+02 0.32000000E+00 0.0000E+00 0.9000E+01
        2 -1    0    0  502    0 -.00000000E+00 -.00000000E+00 -.10958462E+04 0.10958462E+04 0.32000000E+00 0.0000E+00 0.9000E+01
       25  1    1    2    0    0 0.14122658E+03 -.19268666E+02 -.18818278E+03 0.26712167E+03 0.12500000E+03 0.0000E+00 0.9000E+01
       24  1    1    2    0    0 -.72609365E+02 -.78449205E+02 -.29860506E+03 0.32719810E+03 0.80419002E+02 0.0000E+00 0.9000E+01
       21  1    1    2  503  501 -.62908779E+02 0.11702940E+03 -.42110291E+03 0.44156723E+03 0.75000000E+00 0.0000E+00 0.9000E+01
       21  1    1    2  502  503 -.57084387E+01 -.19311525E+02 -.12313870E+03 0.12477669E+03 0.75000000E+00 0.0000E+00 0.9000E+01
#aMCatNLO 2  0  0  5  1 0.33142914D+02 0.00000000D+00  -5  6  0 0.00000000D+00 0.00000000D+00 0.00000000D+00 0.00000000D+00 0.00000000D+00
  <mgrwgt>
 -.3911131768D-01    2    2    0
 0.266513827572118D+03 0.000000000000000D+00 0.000000000000000D+00 0.266513827572118D+03
 0.266513827572118D+03 -.000000000000000D+00 -.000000000000000D+00 -.266513827572118D+03
 0.226604280954985D+03 0.147383105339144D+03 -.280361782708397D+02 0.114963877438447D+03
 0.135586087589468D+03 -.688612237934401D+02 -.837869384619414D+02 -.124198226353273D+02
 0.170837286599782D+03 -.785218815457042D+02 0.111823116732781D+03 -.102544054803120D+03
 0.000000000000000D+00 0.000000000000000D+00 -.000000000000000D+00 0.000000000000000D+00
 0.266513827572118D+03 0.000000000000000D+00 0.000000000000000D+00 0.266513827572118D+03
 0.266513827572118D+03 -.000000000000000D+00 -.000000000000000D+00 -.266513827572118D+03
 0.217612320920505D+03 0.141196044473255D+03 -.192251766007327D+02 0.106884011087656D+03
 0.134880641017797D+03 -.726282917171196D+02 -.784222519837558D+02 -.173393484032883D+02
 0.146827358430853D+03 -.628033935800289D+02 0.117036622937475D+03 -.625814335886103D+02
 0.337073347750801D+02 -.576435917610664D+01 -.193891943529860D+02 -.269632290957573D+02
-.187503094789D-03 0.000000000000D+00 0.000000000000D+00 0.115970103627D-05 0.000000000000D+00  6 -1 2 25 24 21 21 4 0.99718648D-02 0.16859178D+00 0.56731270D+05 0.56731270D+05 0.56731270D+05 0.11868873D+01  1  2 13  3  6  5       21 -.596030315669D-01 0.100000000000D+01
0.644641668281D-04 0.000000000000D+00 0.000000000000D+00 0.116302713252D-05 0.643676333351D-08  6 -1 2 25 24 21 21 4 0.99718648D-02 0.16859178D+00 0.56731270D+05 0.56731270D+05 0.56731270D+05 0.11868873D+01  1  2  1  3  6  5       21 0.204917138820D-01 0.100000000000D+01
  </mgrwgt>
  </event>
  <event>
  6     66 0.43535451E-03 0.69801441E+02 0.75467711E-02 0.11603559E+00
       21 -1    0    0  503  501 0.00000000E+00 0.00000000E+00 0.22576170E+03 0.22576294E+03 0.75000000E+00 0.0000E+00 0.9000E+01
        2 -1    0    0  502    0 0.00000000E+00 0.00000000E+00 -.10184967E+04 0.10184968E+04 0.32000000E+00 0.0000E+00 0.9000E+01
       25  1    1    2    0    0 -.72648012E+02 0.10000171E+03 -.49387160E+03 0.52422537E+03 0.12500000E+03 0.0000E+00 0.9000E+01
       24  1    1    2    0    0 0.31984835E+02 -.65121775E+01 -.47794577E+03 0.48576209E+03 0.80419002E+02 0.0000E+00 0.9000E+01
        1  1    1    2  503    0 0.13600503E+02 -.83177976E+02 0.18624633E+03 0.20442932E+03 0.32000000E+00 0.0000E+00 0.9000E+01
       21  1    1    2  502  501 0.27062674E+02 -.10311560E+02 -.71640120E+01 0.29842958E+02 0.75000000E+00 0.0000E+00 0.9000E+01
#aMCatNLO 2  0  0  1  5 0.84282557D+02 0.00000000D+00  -5  6  0 0.00000000D+00 0.00000000D+00 0.00000000D+00 0.00000000D+00 0.00000000D+00
  <mgrwgt>
 0.2865427691D+00    1    2    0
 0.170102325700581D+03 0.000000000000000D+00 0.000000000000000D+00 0.170102325700581D+03
 0.170102325700581D+03 0.000000000000000D+00 0.000000000000000D+00 -.170102325700581D+03
 0.153756213499820D+03 -.661594906687529D+02 0.603156205297672D+02 -.959637620373492D+00
 0.112247038763878D+03 0.362851208607612D+02 -.328144868125784D+02 -.611455739709425D+02
 0.000000000000000D+00 0.000000000000000D+00 -.000000000000000D+00 0.000000000000000D+00
 0.742013991374655D+02 0.298743698079917D+02 -.275011337171888D+02 0.621052115913160D+02
 0.130038669156299D+04 0.000000000000000D+00 0.000000000000000D+00 0.130038669156299D+04
 0.176823020718559D+03 0.000000000000000D+00 0.000000000000000D+00 -.176823020718559D+03
 0.175796074742107D+03 -.726487279264253D+02 0.100002506573797D+03 -.959637620373492D+00
 0.106166826822724D+03 0.319843180906820D+02 -.651163138343298D+01 -.611455739709425D+02
 0.112672040536615D+04 0.136005032520567D+02 -.831779762818282D+02 0.112356367084444D+04
 0.685264053505678D+02 0.270639065836866D+02 -.103128989085358D+02 0.621052115913160D+02
0.517133012724D-03 0.000000000000D+00 0.000000000000D+00 0.140581961268D-04 0.441925336218D-07  6 21 2 25 24 1 21 4 0.34732664D-01 0.15669189D+00 0.35311836D+05 0.35311836D+05 0.35311836D+05 0.12075373D+01  1  2  1  4  5  1       -1 0.286542769055D+00 0.100000000000D+01
  </mgrwgt>
  </event>
  <event>
  5     66 0.43535451E-03 0.52888967E+02 0.75467711E-02 0.12139945E+00
       -1 -1    0    0    0  501 0.00000000E+00 0.00000000E+00 0.30755421E+02 0.30757086E+02 0.32000000E+00 0.0000E+00 0.9000E+01
        2 -1    0    0  502    0 -.00000000E+00 -.00000000E+00 -.86690998E+03 0.86691004E+03 0.32000000E+00 0.0000E+00 0.9000E+01
       25  1    1    2    0    0 -.27640509E+02 0.22044011E+02 -.54540850E+03 0.56066512E+03 0.12500000E+03 0.0000E+00 0.9000E+01
       24  1    1    2    0    0 -.19907962E+02 -.45200753E+02 -.25817833E+03 0.27488670E+03 0.80419002E+02 0.0000E+00 0.9000E+01
       21  1    1    2  502  501 0.47548470E+02 0.23156743E+02 -.32567726E+02 0.62115304E+02 0.75000000E+00 0.0000E+00 0.9000E+01
#aMCatNLO 1  0  0  5  2 0.47142532D+01 0.00000000D+00  -5  6  0 0.00000000D+00 0.00000000D+00 0.00000000D+00 0.00000000D+00 0.00000000D+00
  <mgrwgt>
 0.9094631888D-01   14    2    0
 0.163287952420807D+03 0.000000000000000D+00 0.000000000000000D+00 0.163287952420807D+03
 0.163287952420807D+03 -.000000000000000D+00 -.000000000000000D+00 -.163287952420807D+03
 0.144667834132959D+03 -.276412849225406D+02 0.220436327594992D+02 -.636696148513294D+02
 0.945564551904296D+02 -.199084691922758D+02 -.452010006348284D+02 -.585061192010144D+01
 0.873516155182261D+02 0.475497541148164D+02 0.231573678753292D+02 0.695202267714308D+02
 0.000000000000000D+00 0.000000000000000D+00 0.000000000000000D+00 -.000000000000000D+00
 0.163287952420807D+03 0.000000000000000D+00 0.000000000000000D+00 0.163287952420807D+03
 0.163287952420807D+03 -.000000000000000D+00 -.000000000000000D+00 -.163287952420807D+03
 0.143384467967371D+03 -.259151368269978D+02 0.228842900289198D+02 -.611458960797570D+02
 0.939743514615873D+02 -.187787018185014D+02 -.446507887741138D+02 -.419883294698408D+01
 0.841351573015567D+02 0.474299409675908D+02 0.178837148699777D+02 0.671513077789098D+02
 0.508192811109934D+01 -.273610232209161D+01 0.388278387521622D+01 -.180657875216873D+01
0.661566320008D-04 0.000000000000D+00 0.000000000000D+00 0.105379723547D-04 0.000000000000D+00  6 -1 2 25 24 21 21 2 0.47317359D-02 0.13337090D+00 0.19205513D+05 0.19205513D+05 0.19205513D+05 0.12357688D+01  1  2  2  3  6  5       21 0.680883775672D-01 0.100000000000D+01
-.855274006318D-06 0.349118138547D-05 -.254058886324D-06 0.105379723547D-04 0.000000000000D+00  6 -1 2 25 24 21 21 4 0.47317359D-02 0.13337090D+00 0.19205513D+05 0.19205513D+05 0.19205513D+05 0.12357688D+01  1  2  3  3  6  5       21 -.134424781264D-02 0.100000000000D+01
0.279466154182D-05 0.000000000000D+00 0.000000000000D+00 0.105379723547D-04 0.000000000000D+00  6 -1 2 25 24 21 21 4 0.47317359D-02 0.13337090D+00 0.19205513D+05 0.19205513D+05 0.19205513D+05 0.12357688D+01  1  2 15  3  6  5       21 0.439241417009D-02 0.100000000000D+01
0.131523619298D-04 0.000000000000D+00 0.000000000000D+00 0.105271103203D-04 0.000000000000D+00  6 -1 2 25 24 21 21 4 0.47317359D-02 0.13337090D+00 0.19462068D+05 0.19462068D+05 0.19462068D+05 0.12351318D+01  1  2 12  3  6  5       21 0.206355224635D-01 0.100000000000D+01
-.100500040267D-03 0.000000000000D+00 0.000000000000D+00 0.105379723547D-04 0.000000000000D+00  6 -1 2 25 24 21 21 4 0.47317359D-02 0.13337090D+00 0.19205513D+05 0.19205513D+05 0.19205513D+05 0.12357688D+01  1  2  4  3  6  5       21 -.157957518061D+00 0.100000000000D+01
0.964674234570D-04 0.000000000000D+00 0.000000000000D+00 0.105379723547D-04 0.180774641287D-05  6 -1 2 25 24 21 21 4 0.47317359D-02 0.13337090D+00 0.19462068D+05 0.19462068D+05 0.19462068D+05 0.12351318D+01  1  2 11  3  6  5       21 0.151353475092D+00 0.100000000000D+01
0.189476115211D-06 0.000000000000D+00 0.000000000000D+00 0.105271103203D-04 0.000000000000D+00  6 -1 2 25 24 1 -1 4 0.47317359D-02 0.13337090D+00 0.19462068D+05 0.19462068D+05 0.19462068D+05 0.12351318D+01  1  2 12  6  6  5       21 0.297280340415D-03 0.100000000000D+01
0.653895704887D-06 0.000000000000D+00 0.000000000000D+00 0.105271103203D-04 0.125641750872D-07  6 -1 2 25 24 1 -1 4 0.47317359D-02 0.13337090D+00 0.19462068D+05 0.19462068D+05 0.19462068D+05 0.12351318D+01  1  2 11  6  6  5       21 0.102593584172D-02 0.100000000000D+01
0.189476115211D-06 0.000000000000D+00 0.000000000000D+00 0.105271103203D-04 0.000000000000D+00  6 -1 2 25 24 2 -2 4 0.47317359D-02 0.13337090D+00 0.19462068D+05 0.19462068D+05 0.19462068D+05 0.12351318D+01  1  2 12  7  6  5       21 0.297280340415D-03 0.100000000000D+01
0.755803514861D-06 0.000000000000D+00 0.000000000000D+00 0.105271103203D-04 0.104236275130D-07  6 -1 2 25 24 2 -2 4 0.47317359D-02 0.13337090D+00 0.19462068D+05 0.19462068D+05 0.19462068D+05 0.12351318D+01  1  2 11  7  6  5       21 0.118582506262D-02 0.100000000000D+01
0.189476115211D-06 0.000000000000D+00 0.000000000000D+00 0.105271103203D-04 0.000000000000D+00  6 -1 2 25 24 3 -3 4 0.47317359D-02 0.13337090D+00 0.19462068D+05 0.19462068D+05 0.19462068D+05 0.12351318D+01  1  2 12  8  6  5       21 0.297280340415D-03 0.100000000000D+01
0.189476115211D-06 0.000000000000D+00 0.000000000000D+00 0.105271103203D-04 0.000000000000D+00  6 -1 2 25 24 4 -4 4 0.47317359D-02 0.13337090D+00 0.19462068D+05 0.19462068D+05 0.19462068D+05 0.12351318D+01  1  2 12  8  6  5       21 0.297280340415D-03 0.100000000000D+01
0.757640104357D-06 0.000000000000D+00 0.000000000000D+00 0.105271103203D-04 0.104086459419D-07  6 -1 2 25 24 3 -3 4 0.47317359D-02 0.13337090D+00 0.19462068D+05 0.19462068D+05 0.19462068D+05 0.12351318D+01  1  2 11  8  6  5       21 0.118870659705D-02 0.100000000000D+01
0.757640104357D-06 0.000000000000D+00 0.000000000000D+00 0.105271103203D-04 0.104086459419D-07  6 -1 2 25 24 4 -4 4 0.47317359D-02 0.13337090D+00 0.19462068D+05 0.19462068D+05 0.19462068D+05 0.12351318D+01  1  2 11  8  6  5       21 0.118870659705D-02 0.100000000000D+01
  </mgrwgt>
  </event>
  <event>
  6     66 0.43535451E-03 0.43077876E+02 0.75467711E-02 0.10954868E+00
       -1 -1    0    0    0  501 0.00000000E+00 0.00000000E+00 0.96682036E+02 0.96682565E+02 0.32000000E+00 0.0000E+00 0.9000E+01
        2 -1    0    0  503    0 0.00000000E+00 0.00000000E+00 -.11859563E+04 0.11859563E+04 0.32000000E+00 0.0000E+00 0.9000E+01
       25  1    1    2    0    0 -.20008637E+03 -.69323353E+02 -.25066352E+03 0.35113741E+03 0.12500000E+03 0.0000E+00 0.9000E+01
       24  1    1    2    0    0 0.24570172E+03 0.73518083E+02 -.36082162E+03 0.44992633E+03 0.80419002E+02 0.0000E+00 0.9000E+01
       21  1    1    2  502  501 -.18089934E+01 0.63516845E+00 -.32912323E+00 0.20848785E+01 0.75000000E+00 0.0000E+00 0.9000E+01
       21  1    1    2  503  502 -.43806355E+02 -.48298990E+01 -.47746000E+03 0.47949029E+03 0.75000000E+00 0.0000E+00 0.9000E+01
#aMCatNLO 2  0  0  2  2 0.13810463D+02 0.00000000D+00  -5  6  0 0.00000000D+00 0.00000000D+00 0.00000000D+00 0.00000000D+00 0.00000000D+00
  <mgrwgt>
 0.6539683005D+00    1    2    0
 0.259224171504428D+03 0.000000000000000D+00 0.000000000000000D+00 0.259224171504428D+03
 0.259224171504428D+03 0.000000000000000D+00 0.000000000000000D+00 -.259224171504428D+03
 0.265678546654171D+03 -.221684363056558D+03 -.717187986205177D+02 0.259335160151914D+02
 0.249782032228326D+03 0.223806317317857D+03 0.710906951601557D+02 -.279408850970469D+02
 0.298776412635834D+01 -.212195426129913D+01 0.628103460362017D+00 0.200736908185554D+01
 0.000000000000000D+00 -.000000000000000D+00 -.000000000000000D+00 -.000000000000000D+00
 0.262918916147512D+03 0.000000000000000D+00 0.000000000000000D+00 0.262918916147512D+03
 0.436105391703033D+03 0.000000000000000D+00 0.000000000000000D+00 -.436105391703033D+03
 0.247237360032110D+03 -.200053923909229D+03 -.693339200626749D+02 0.259335160151914D+02
 0.270255724020244D+03 0.245737095627153D+03 0.735086878134903D+02 -.279408850970469D+02
 0.282509648132318D+01 -.187681714231471D+01 0.655131217626460D+00 0.200736908185554D+01
 0.178706127316867D+03 -.438063545756087D+02 -.482989896844188D+01 -.173186475555521D+03
0.455978377676D-02 0.000000000000D+00 0.000000000000D+00 0.324135425735D-02 0.879903327567D-05  6 -1 2 25 24 21 21 4 0.14874159D-01 0.18245432D+00 0.78607517D+05 0.78607517D+05 0.78607517D+05 0.11732985D+01  1  2  1  2  6  2        2 0.653968300540D+00 0.100000000000D+01
  </mgrwgt>
  </event>
  <event>
  5     66 0.43535451E-03 0.20408096E+02 0.75467711E-02 0.11950642E+00
       -1 -1    0    0    0  501 0.00000000E+00 0.00000000E+00 0.18284598E+03 0.18284626E+03 0.32000000E+00 0.0000E+00 0.9000E+01
        2 -1    0    0  502    0 0.00000000E+00 0.00000000E+00 -.13194492E+03 0.13194530E+03 0.32000000E+00 0.0000E+00 0.9000E+01
       25  1    1    2    0    0 0.10359906E+03 0.15508386E+02 0.17404341E+02 0.16401581E+03 0.12500000E+03 0.0000E+00 0.9000E+01
       24  1    1    2    0    0 -.91052801E+02 -.31588981E+02 0.35002216E+02 0.13031058E+03 0.80419002E+02 0.0000E+00 0.9000E+01
       21  1    1    2  502  501 -.12546263E+02 0.16080595E+02 -.15054919E+01 0.20465172E+02 0.75000000E+00 0.0000E+00 0.9000E+01
#aMCatNLO 1  0  0  5  2 0.28964628D+00 0.00000000D+00  -5  6  0 0.00000000D+00 0.00000000D+00 0.00000000D+00 0.00000000D+00 0.00000000D+00
  <mgrwgt>
 0.5969776546D-01   15    2    0
 0.155324508601123D+03 0.000000000000000D+00 0.000000000000000D+00 0.155324508601123D+03
 0.155324508601123D+03 -.000000000000000D+00 -.000000000000000D+00 -.155324508601123D+03
 0.163353287579525D+03 0.103603281789711D+03 0.155029802009565D+02 -.923656702078673D+01
 0.126311876430446D+03 -.910495400029944D+02 -.315931614447678D+02 0.141183422602513D+02
 0.209838531922741D+02 -.125537417867171D+02 0.160901812438112D+02 -.488177523946458D+01
 0.000000000000000D+00 0.000000000000000D+00 0.000000000000000D+00 0.000000000000000D+00
 0.155324508601123D+03 0.000000000000000D+00 0.000000000000000D+00 0.155324508601123D+03
 0.155324508601123D+03 -.000000000000000D+00 -.000000000000000D+00 -.155324508601123D+03
 0.163343733368227D+03 0.103583801224789D+03 0.155279485192202D+02 -.924414243066085D+01
 0.126317253437482D+03 -.910646039853698D+02 -.315738538780843D+02 0.141124843274200D+02
 0.202572096562629D+02 -.121976096887361D+02 0.153954163729651D+02 -.495520086798516D+01
 0.730820740272844D+00 -.321587550683363D+00 0.650488985899059D+00 0.868589712259859D-01
0.792947093116D-04 0.000000000000D+00 0.000000000000D+00 0.472083738856D-04 0.000000000000D+00  6 -1 2 25 24 21 21 2 0.28130202D-01 0.20299269D-01 0.23873403D+05 0.23873403D+05 0.23873403D+05 0.12254505D+01  1  2  2  3  6  5       21 0.410013515736D-01 0.100000000000D+01
0.228699134449D-04 0.418449677293D-05 -.304512562533D-06 0.472083738856D-04 0.000000000000D+00  6 -1 2 25 24 21 21 4 0.28130202D-01 0.20299269D-01 0.23873403D+05 0.23873403D+05 0.23873403D+05 0.12254505D+01  1  2  3  3  6  5       21 0.177586529148D-01 0.100000000000D+01
-.455275151086D-06 0.000000000000D+00 0.000000000000D+00 0.472083738856D-04 0.000000000000D+00  6 -1 2 25 24 21 21 4 0.28130202D-01 0.20299269D-01 0.23873403D+05 0.23873403D+05 0.23873403D+05 0.12254505D+01  1  2 15  3  6  5       21 -.353524441986D-03 0.100000000000D+01
-.957744789671D-02 0.000000000000D+00 0.000000000000D+00 0.472083738856D-04 0.000000000000D+00  6 -1 2 25 24 21 21 4 0.28130202D-01 0.20299269D-01 0.23873403D+05 0.23873403D+05 0.23873403D+05 0.12254505D+01  1  2  4  3  6  5       21 -.743695744268D+01 0.100000000000D+01
-.855530554441D-02 0.000000000000D+00 0.000000000000D+00 0.472083738856D-04 0.000000000000D+00  6 -1 2 25 24 21 21 4 0.28130202D-01 0.20299269D-01 0.23873403D+05 0.23873403D+05 0.23873403D+05 0.12254505D+01  1  2  5  3  6  5       21 -.664325652606D+01 0.100000000000D+01
0.924563190830D-02 0.000000000000D+00 -.000000000000D+00 0.472083738856D-04 0.000000000000D+00  6 -1 2 25 24 21 21 4 0.28130202D-01 0.20299269D-01 0.23873403D+05 0.23873403D+05 0.23873403D+05 0.12254505D+01  1  2  6  3  6  5       21 0.717929993190D+01 0.100000000000D+01
0.888923988178D-02 0.000000000000D+00 0.000000000000D+00 0.472083738856D-04 0.474519437074D-02  6 -1 2 25 24 21 21 4 0.28130202D-01 0.20299269D-01 0.23866516D+05 0.23866516D+05 0.23866516D+05 0.12254640D+01  1  2 11  3  6  5       21 0.690281510899D+01 0.100000000000D+01
-.231103159479D-04 0.000000000000D+00 0.000000000000D+00 0.472083738856D-04 0.000000000000D+00  6 -1 2 25 24 1 -1 4 0.28130202D-01 0.20299269D-01 0.23873403D+05 0.23873403D+05 0.23873403D+05 0.12254505D+01  1  2  5  6  6  5       21 -.179453271941D-01 0.100000000000D+01
0.227646058427D-04 0.000000000000D+00 0.000000000000D+00 0.472083738856D-04 0.242622227560D-04  6 -1 2 25 24 1 -1 4 0.28130202D-01 0.20299269D-01 0.23866516D+05 0.23866516D+05 0.23866516D+05 0.12254640D+01  1  2 11  6  6  5       21 0.176775368030D-01 0.100000000000D+01
-.231103159479D-04 0.000000000000D+00 0.000000000000D+00 0.472083738856D-04 0.000000000000D+00  6 -1 2 25 24 2 -2 4 0.28130202D-01 0.20299269D-01 0.23873403D+05 0.23873403D+05 0.23873403D+05 0.12254505D+01  1  2  5  7  6  5       21 -.179453271941D-01 0.100000000000D+01
0.229700108095D-04 0.000000000000D+00 0.000000000000D+00 0.472083738856D-04 0.244453303945D-04  6 -1 2 25 24 2 -2 4 0.28130202D-01 0.20299269D-01 0.23866516D+05 0.23866516D+05 0.23866516D+05 0.12254640D+01  1  2 11  7  6  5       21 0.178370411619D-01 0.100000000000D+01
-.231103159479D-04 0.000000000000D+00 0.000000000000D+00 0.472083738856D-04 0.000000000000D+00  6 -1 2 25 24 3 -3 4 0.28130202D-01 0.20299269D-01 0.23873403D+05 0.23873403D+05 0.23873403D+05 0.12254505D+01  1  2  5  8  6  5       21 -.179453271941D-01 0.100000000000D+01
-.231103159479D-04 0.000000000000D+00 0.000000000000D+00 0.472083738856D-04 0.000000000000D+00  6 -1 2 25 24 4 -4 4 0.28130202D-01 0.20299269D-01 0.23873403D+05 0.23873403D+05 0.23873403D+05 0.12254505D+01  1  2  5  8  6  5       21 -.179453271941D-01 0.100000000000D+01
0.229589757485D-04 0.000000000000D+00 0.000000000000D+00 0.472083738856D-04 0.244332748758D-04  6 -1 2 25 24 3 -3 4 0.28130202D-01 0.20299269D-01 0.23866516D+05 0.23866516D+05 0.23866516D+05 0.12254640D+01  1  2 11  8  6  5       21 0.178284720394D-01 0.100000000000D+01
0.229589757485D-04 0.000000000000D+00 0.000000000000D+00 0.472083738856D-04 0.244332748758D-04  6 -1 2 25 24 4 -4 4 0.28130202D-01 0.20299269D-01 0.23866516D+05 0.23866516D+05 0.23866516D+05 0.12254640D+01  1  2 11  8  6  5       21 0.178284720394D-01 0.100000000000D+01
  </mgrwgt>
  </event>
  <event>
  5     66 0.43535451E-03 0.88068485E+02 0.75467711E-02 0.11706326E+00
       -1 -1    0    0    0  501 0.00000000E+00 0.00000000E+00 0.21240190E+03 0.21240214E+03 0.32000000E+00 0.0000E+00 0.9000E+01
        2 -1    0    0  502    0 -.00000000E+00 -.00000000E+00 -.78197694E+03 0.78197700E+03 0.32000000E+00 0.0000E+00 0.9000E+01
       25  1    1    2    0    0 -.87895518E+01 0.50058503E+02 -.60188649E+03 0.61682693E+03 0.12500000E+03 0.0000E+00 0.9000E+01
       24  1    1    2    0    0 -.13144756E+02 0.62920813E+02 -.13789436E+03 0.17208685E+03 0.80419002E+02 0.0000E+00 0.9000E+01
       21  1    1    2  502  501 0.21934308E+02 -.11297932E+03 0.17020581E+03 0.20546537E+03 0.75000000E+00 0.0000E+00 0.9000E+01
#aMCatNLO 1  0  0  5  1 0.11031839D+02 0.00000000D+00  -5  6  0 0.00000000D+00 0.00000000D+00 0.00000000D+00 0.00000000D+00 0.00000000D+00
  <mgrwgt>
 0.1802344115D+00   20    2    0
 0.407545749197920D+03 0.000000000000000D+00 0.000000000000000D+00 0.407545749197920D+03
 0.407545749197920D+03 -.000000000000000D+00 -.000000000000000D+00 -.407545749197920D+03
 0.331914317825741D+03 -.878957017025492D+01 0.500585973891892D+02 -.303247414929421D+03
 0.113580422951561D+03 -.131447626288921D+02 0.629208456748350D+02 -.479737315463228D+02
 0.369596757618538D+03 0.219343327991470D+02 -.112979443064024D+03 0.351221146475744D+03
 0.000000000000000D+00 0.000000000000000D+00 0.000000000000000D+00 0.000000000000000D+00
 0.407545749197920D+03 0.000000000000000D+00 0.000000000000000D+00 0.407545749197920D+03
 0.407545749197920D+03 -.000000000000000D+00 -.000000000000000D+00 -.407545749197920D+03
 0.331382405091145D+03 -.875509834682991D+01 0.498810397927206D+02 -.302695438561810D+03
 0.113465699576283D+03 -.131329629417012D+02 0.628600678021112D+02 -.477847903233932D+02
 0.320406955983342D+03 0.165944214786933D+02 -.108176181379702D+03 0.301136441501863D+03
 0.498364377450695D+02 0.529363980983782D+01 -.456492621512953D+01 0.493437873833405D+02
0.580619796582D-04 0.000000000000D+00 0.000000000000D+00 0.688002037498D-05 0.000000000000D+00  6 -1 2 25 24 21 21 2 0.32677239D-01 0.12030417D+00 0.31148374D+05 0.31148374D+05 0.31148374D+05 0.12131899D+01  1  2  2  3  6  5       21 0.319456526209D-02 0.100000000000D+01
-.635929213429D-06 0.306401484562D-05 -.222973289958D-06 0.688002037498D-05 0.000000000000D+00  6 -1 2 25 24 21 21 4 0.32677239D-01 0.12030417D+00 0.31148374D+05 0.31148374D+05 0.31148374D+05 0.12131899D+01  1  2  3  3  6  5       21 -.514975144929D-04 0.100000000000D+01
0.248128931678D-05 0.000000000000D+00 0.000000000000D+00 0.688002037498D-05 0.000000000000D+00  6 -1 2 25 24 21 21 4 0.32677239D-01 0.12030417D+00 0.31148374D+05 0.31148374D+05 0.31148374D+05 0.12131899D+01  1  2 15  3  6  5       21 0.200934679291D-03 0.100000000000D+01
0.152482159306D-02 0.000000000000D+00 0.000000000000D+00 0.687642362325D-05 0.000000000000D+00  6 -1 2 25 24 21 21 4 0.32677239D-01 0.12030417D+00 0.31366905D+05 0.31366905D+05 0.31366905D+05 0.12128727D+01  1  2 12  3  6  5       21 0.123339557517D+00 0.100000000000D+01
0.198423892896D-02 0.000000000000D+00 0.000000000000D+00 0.687642362325D-05 0.000000000000D+00  6 -1 2 25 24 21 21 4 0.32677239D-01 0.12030417D+00 0.31366905D+05 0.31366905D+05 0.31366905D+05 0.12128727D+01  1  2 12  3  6  5       21 0.160500843259D+00 0.100000000000D+01
-.182475938711D-02 0.000000000000D+00 0.000000000000D+00 0.688002037498D-05 0.000000000000D+00  6 -1 2 25 24 21 21 4 0.32677239D-01 0.12030417D+00 0.31148374D+05 0.31148374D+05 0.31148374D+05 0.12131899D+01  1  2  4  3  6  5       21 -.147768919872D+00 0.100000000000D+01
-.392934517163D-02 0.000000000000D+00 0.000000000000D+00 0.688002037498D-05 0.000000000000D+00  6 -1 2 25 24 21 21 4 0.32677239D-01 0.12030417D+00 0.31148374D+05 0.31148374D+05 0.31148374D+05 0.12131899D+01  1  2  5  3  6  5       21 -.318198166794D+00 0.100000000000D+01
0.444102434843D-02 0.000000000000D+00 -.000000000000D+00 0.688002037498D-05 0.000000000000D+00  6 -1 2 25 24 21 21 4 0.32677239D-01 0.12030417D+00 0.31148374D+05 0.31148374D+05 0.31148374D+05 0.12131899D+01  1  2  6  3  6  5       21 0.359633919810D+00 0.100000000000D+01
0.164216691326D-04 0.000000000000D+00 0.000000000000D+00 0.687642362325D-05 0.000000000000D+00  6 -1 2 25 24 1 -1 4 0.32677239D-01 0.12030417D+00 0.31366905D+05 0.31366905D+05 0.31366905D+05 0.12128727D+01  1  2 12  6  6  5       21 0.132831369500D-02 0.100000000000D+01
0.186899869414D-04 0.000000000000D+00 0.000000000000D+00 0.687642362325D-05 0.000000000000D+00  6 -1 2 25 24 1 -1 4 0.32677239D-01 0.12030417D+00 0.31366905D+05 0.31366905D+05 0.31366905D+05 0.12128727D+01  1  2 12  6  6  5       21 0.151179307129D-02 0.100000000000D+01
-.369759805497D-04 0.000000000000D+00 0.000000000000D+00 0.688002037498D-05 0.000000000000D+00  6 -1 2 25 24 1 -1 4 0.32677239D-01 0.12030417D+00 0.31148374D+05 0.31148374D+05 0.31148374D+05 0.12131899D+01  1  2  5  6  6  5       21 -.299431297390D-02 0.100000000000D+01
0.164216691326D-04 0.000000000000D+00 0.000000000000D+00 0.687642362325D-05 0.000000000000D+00  6 -1 2 25 24 2 -2 4 0.32677239D-01 0.12030417D+00 0.31366905D+05 0.31366905D+05 0.31366905D+05 0.12128727D+01  1  2 12  7  6  5       21 0.132831369500D-02 0.100000000000D+01
0.186899869414D-04 0.000000000000D+00 0.000000000000D+00 0.687642362325D-05 0.000000000000D+00  6 -1 2 25 24 2 -2 4 0.32677239D-01 0.12030417D+00 0.31366905D+05 0.31366905D+05 0.31366905D+05 0.12128727D+01  1  2 12  7  6  5       21 0.151179307129D-02 0.100000000000D+01
-.369759805497D-04 0.000000000000D+00 0.000000000000D+00 0.688002037498D-05 0.000000000000D+00  6 -1 2 25 24 2 -2 4 0.32677239D-01 0.12030417D+00 0.31148374D+05 0.31148374D+05 0.31148374D+05 0.12131899D+01  1  2  5  7  6  5       21 -.299431297390D-02 0.100000000000D+01
0.164216691326D-04 0.000000000000D+00 0.000000000000D+00 0.687642362325D-05 0.000000000000D+00  6 -1 2 25 24 3 -3 4 0.32677239D-01 0.12030417D+00 0.31366905D+05 0.31366905D+05 0.31366905D+05 0.12128727D+01  1  2 12  8  6  5       21 0.132831369500D-02 0.100000000000D+01
0.164216691326D-04 0.000000000000D+00 0.000000000000D+00 0.687642362325D-05 0.000000000000D+00  6 -1 2 25 24 4 -4 4 0.32677239D-01 0.12030417D+00 0.31366905D+05 0.31366905D+05 0.31366905D+05 0.12128727D+01  1  2 12  8  6  5       21 0.132831369500D-02 0.100000000000D+01
0.186899869414D-04 0.000000000000D+00 0.000000000000D+00 0.687642362325D-05 0.000000000000D+00  6 -1 2 25 24 3 -3 4 0.32677239D-01 0.12030417D+00 0.31366905D+05 0.31366905D+05 0.31366905D+05 0.12128727D+01  1  2 12  8  6  5       21 0.151179307129D-02 0.100000000000D+01
0.186899869414D-04 0.000000000000D+00 0.000000000000D+00 0.687642362325D-05 0.000000000000D+00  6 -1 2 25 24 4 -4 4 0.32677239D-01 0.12030417D+00 0.31366905D+05 0.31366905D+05 0.31366905D+05 0.12128727D+01  1  2 12  8  6  5       21 0.151179307129D-02 0.100000000000D+01
-.369759805497D-04 0.000000000000D+00 0.000000000000D+00 0.688002037498D-05 0.000000000000D+00  6 -1 2 25 24 3 -3 4 0.32677239D-01 0.12030417D+00 0.31148374D+05 0.31148374D+05 0.31148374D+05 0.12131899D+01  1  2  5  8  6  5       21 -.299431297390D-02 0.100000000000D+01
-.369759805497D-04 0.000000000000D+00 0.000000000000D+00 0.688002037498D-05 0.000000000000D+00  6 -1 2 25 24 4 -4 4 0.32677239D-01 0.12030417D+00 0.31148374D+05 0.31148374D+05 0.31148374D+05 0.12131899D+01  1  2  5  8  6  5       21 -.299431297390D-02 0.100000000000D+01
  </mgrwgt>
  </event>
  <event>
  5     66 0.43535451E-03 0.38133167E+02 0.75467711E-02 0.10398798E+00
       -1 -1    0    0    0  501 0.00000000E+00 0.00000000E+00 0.15371734E+03 0.15371768E+03 0.32000000E+00 0.0000E+00 0.9000E+01
        2 -1    0    0  502    0 0.00000000E+00 0.00000000E+00 -.12599798E+03 0.12599838E+03 0.32000000E+00 0.0000E+00 0.9000E+01
       25  1    1    2    0    0 0.30534424E+02 -.26831281E+02 0.34809915E+02 0.13597426E+03 0.12500000E+03 0.0000E+00 0.9000E+01
       24  1    1    2    0    0 -.89970076E+01 0.58292999E+02 -.23119097E+02 0.10237543E+03 0.80419002E+02 0.0000E+00 0.9000E+01
       21  1    1    2  502  501 -.21537417E+02 -.31461718E+02 0.16028546E+02 0.41366373E+02 0.75000000E+00 0.0000E+00 0.9000E+01
#aMCatNLO 1  0  0  1  5 0.53829586D+02 0.00000000D+00  -5  6  0 0.00000000D+00 0.00000000D+00 0.00000000D+00 0.00000000D+00 0.00000000D+00
  <mgrwgt>
 0.9587237099D-01    5    4    0
 0.139169600904075D+03 0.000000000000000D+00 0.000000000000000D+00 0.139169600904075D+03
 0.139169600904075D+03 0.000000000000000D+00 0.000000000000000D+00 -.139169600904075D+03
 0.133179935784868D+03 0.305362384123656D+02 -.268286307961849D+02 0.214396363981935D+02
 0.105185534566948D+03 -.899557472281834D+01 0.582950923971961D+02 -.334296659506582D+02
 0.399737314563336D+02 -.215406636895472D+02 -.314664616010112D+02 0.119900295524648D+02
 0.000000000000000D+00 -.000000000000000D+00 0.000000000000000D+00 0.000000000000000D+00
 0.107279200393719D+04 0.000000000000000D+00 0.000000000000000D+00 0.107279200393719D+04
 0.270838063655169D+03 0.000000000000000D+00 0.000000000000000D+00 -.270838063655169D+03
 0.267606969922058D+03 0.225485490079260D+03 -.684479810198532D+02 0.214396363981935D+02
 0.146619854770471D+03 0.113486650913858D+03 0.321465916906769D+02 -.334296659506582D+02
 0.470922457004730D+02 0.208096398025987D+02 -.405077484900215D+02 0.119900295524648D+02
 0.882310997199353D+03 -.359781780795716D+03 0.768091378191978D+02 0.801953940282016D+03
 0.139169600904075D+03 0.000000000000000D+00 0.000000000000000D+00 0.139169600904075D+03
 0.139169600904075D+03 0.000000000000000D+00 0.000000000000000D+00 -.139169600904075D+03
 0.133179935784868D+03 0.305362384123656D+02 -.268286307961849D+02 0.214396363981935D+02
 0.105185534566948D+03 -.899557472281834D+01 0.582950923971961D+02 -.334296659506582D+02
 0.000000000000000D+00 -.000000000000000D+00 0.000000000000000D+00 0.000000000000000D+00
 0.399737314563336D+02 -.215406636895472D+02 -.314664616010112D+02 0.119900295524648D+02
 0.107279200393719D+04 0.000000000000000D+00 0.000000000000000D+00 0.107279200393719D+04
 0.270838063655169D+03 0.000000000000000D+00 0.000000000000000D+00 -.270838063655169D+03
 0.267606969922058D+03 0.225485490079260D+03 -.684479810198532D+02 0.214396363981935D+02
 0.146619854770471D+03 0.113486650913858D+03 0.321465916906769D+02 -.334296659506582D+02
 0.882310997199353D+03 -.359781780795716D+03 0.768091378191978D+02 0.801953940282016D+03
 0.470922457004730D+02 0.208096398025987D+02 -.405077484900215D+02 0.119900295524648D+02
0.113902871102D-03 0.000000000000D+00 0.000000000000D+00 0.156074128003D-04 0.000000000000D+00  6 -1 2 25 24 21 21 2 0.23648879D-01 0.19384361D-01 0.18131697D+05 0.18131697D+05 0.18131697D+05 0.12385427D+01  1  2  2  1  6  1       -1 0.838137237324D-01 0.100000000000D+01
0.656762673190D-05 0.601081964599D-05 -.437417016346D-06 0.156074128003D-04 0.000000000000D+00  6 -1 2 25 24 21 21 4 0.23648879D-01 0.19384361D-01 0.18131697D+05 0.18131697D+05 0.18131697D+05 0.12385427D+01  1  2  3  1  6  1       -1 0.741328884317D-02 0.100000000000D+01
0.361094371251D-05 0.000000000000D+00 0.000000000000D+00 0.156074128003D-04 0.000000000000D+00  6 -1 2 25 24 21 21 4 0.23648879D-01 0.19384361D-01 0.18131697D+05 0.18131697D+05 0.18131697D+05 0.12385427D+01  1  2 15  1  6  1       -1 0.407589679347D-02 0.100000000000D+01
0.984443009406D-04 0.000000000000D+00 -.137661409922D-03 0.156074128003D-04 0.000000000000D+00  6 -1 2 25 24 21 21 4 0.27477248D+00 0.19384361D-01 0.18131697D+05 0.18131697D+05 0.18131697D+05 0.12385427D+01  1  2  5  1  6  1       -1 0.447797526696D-03 0.100000000000D+01
0.286820264995D-05 0.000000000000D+00 -.394653262083D-04 0.156074128003D-04 0.000000000000D+00  6 21 2 25 24 1 21 4 0.27477248D+00 0.19384361D-01 0.18131697D+05 0.18131697D+05 0.18131697D+05 0.12385427D+01  3  4  5  4  5  1       -1 0.121664091006D-03 0.100000000000D+01
  </mgrwgt>
  </event>
  <event>
  6     66 -.43535451E-03 0.20203445E+02 0.75467711E-02 0.11710803E+00
       -1 -1    0    0    0  501 0.00000000E+00 0.00000000E+00 0.44554111E+02 0.44555260E+02 0.32000000E+00 0.0000E+00 0.9000E+01
        2 -1    0    0  502    0 -.00000000E+00 -.00000000E+00 -.11276935E+04 0.11276936E+04 0.32000000E+00 0.0000E+00 0.9000E+01
       25  1    1    2    0    0 0.28506089E+02 -.12318159E+03 -.19172419E+03 0.26147556E+03 0.12500000E+03 0.0000E+00 0.9000E+01
       24  1    1    2    0    0 -.49034804E+02 0.97946732E+02 -.52929491E+03 0.54645978E+03 0.80419002E+02 0.0000E+00 0.9000E+01
       21  1    1    2  502  503 0.23514630E+02 0.12813301E+02 -.26583368E+03 0.26718014E+03 0.75000000E+00 0.0000E+00 0.9000E+01
       21  1    1    2  503  501 -.29859156E+01 0.12421553E+02 -.96286614E+02 0.97133337E+02 0.75000000E+00 0.0000E+00 0.9000E+01
#aMCatNLO 2  0  0  5  1 0.10275867D+02 0.00000000D+00  -5  6  0 0.00000000D+00 0.00000000D+00 0.00000000D+00 0.00000000D+00 0.00000000D+00
  <mgrwgt>
 -.1730182356D+00    4    2    0
 0.224151915922323D+03 0.000000000000000D+00 0.000000000000000D+00 0.224151915922323D+03
 0.224151915922323D+03 -.000000000000000D+00 -.000000000000000D+00 -.224151915922323D+03
 0.221698156859830D+03 0.280235980877357D+02 -.123774686590549D+03 0.131983247666793D+03
 0.149488790064236D+03 -.493616828069575D+02 0.975449167449403D+02 -.626745234380512D+02
 0.771168849205807D+02 0.213380847192218D+02 0.262297698456084D+02 -.693087242287421D+02
 0.000000000000000D+00 0.000000000000000D+00 0.000000000000000D+00 -.000000000000000D+00
 0.224151915922323D+03 0.000000000000000D+00 0.000000000000000D+00 0.224151915922323D+03
 0.224151915922323D+03 -.000000000000000D+00 -.000000000000000D+00 -.224151915922323D+03
 0.220493004943940D+03 0.285083608901491D+02 -.123178793524028D+03 0.130408678447910D+03
 0.150094513369288D+03 -.490332573333767D+02 0.979486326686895D+02 -.637412897799059D+02
 0.560203242660129D+02 0.235009241202481D+02 0.126269726135999D+02 -.492599518775544D+02
 0.216959892654053D+02 -.297602767702047D+01 0.126031882417386D+02 -.174074367904494D+02
-.435126933467D-03 0.000000000000D+00 0.000000000000D+00 0.123684681214D-04 0.000000000000D+00  6 -1 2 25 24 21 21 4 0.68545704D-02 0.17349140D+00 0.31206940D+05 0.31206940D+05 0.31206940D+05 0.12131047D+01  1  2 13  3  6  5       21 -.255994557764D+00 0.100000000000D+01
-.325519123527D-03 0.000000000000D+00 0.000000000000D+00 0.123684681214D-04 0.000000000000D+00  6 -1 2 25 24 21 21 4 0.68545704D-02 0.17349140D+00 0.31206940D+05 0.31206940D+05 0.31206940D+05 0.12131047D+01  1  2 13  3  6  5       21 -.191509919662D+00 0.100000000000D+01
-.678182937926D-06 0.000000000000D+00 0.000000000000D+00 0.123983745226D-04 0.000000000000D+00  6 -1 2 25 24 21 21 4 0.68545704D-02 0.17349140D+00 0.30216761D+05 0.30216761D+05 0.30216761D+05 0.12145704D+01  1  2  8  3  6  5       21 -.400836173455D-03 0.100000000000D+01
0.467239508283D-03 0.000000000000D+00 0.000000000000D+00 0.123983745226D-04 0.450847926637D-06  6 -1 2 25 24 21 21 4 0.68545704D-02 0.17349140D+00 0.31206940D+05 0.31206940D+05 0.31206940D+05 0.12131047D+01  1  2  1  3  6  5       21 0.274887077984D+00 0.100000000000D+01
  </mgrwgt>
  </event>
  <event>
  6     66 0.43535451E-03 0.28031314E+02 0.75467711E-02 0.11942465E+00
       -1 -1    0    0    0  503 0.00000000E+00 0.00000000E+00 0.40849631E+02 0.40850884E+02 0.32000000E+00 0.0000E+00 0.9000E+01
        2 -1    0    0  502    0 0.00000000E+00 0.00000000E+00 -.86716874E+03 0.86716880E+03 0.32000000E+00 0.0000E+00 0.9000E+01
       25  1    1    2    0    0 -.33786283E+02 -.90683026E+02 -.59635335E+03 0.61694995E+03 0.12500000E+03 0.0000E+00 0.9000E+01
       24  1    1    2    0    0 0.87703076E+01 0.83108409E+02 -.21750678E+03 0.24649612E+03 0.80419002E+02 0.0000E+00 0.9000E+01
       21  1    1    2  502  501 -.34019256E+01 -.42749643E+01 -.12622546E+02 0.13774599E+02 0.75000000E+00 0.0000E+00 0.9000E+01
       21  1    1    2  501  503 0.28417901E+02 0.11849581E+02 0.16356190E+00 0.30799009E+02 0.75000000E+00 0.0000E+00 0.9000E+01
#aMCatNLO 2  0  0  1  5 0.43355957D+02 0.00000000D+00  -5  6  0 0.00000000D+00 0.00000000D+00 0.00000000D+00 0.00000000D+00 0.00000000D+00
  <mgrwgt>
 0.1885759884D+00    1    2    0
 0.146197226407875D+03 0.000000000000000D+00 0.000000000000000D+00 0.146197226407875D+03
 0.146197226407875D+03 0.000000000000000D+00 0.000000000000000D+00 -.146197226407875D+03
 0.158303660277699D+03 -.181318364602751D+02 -.841387831983481D+02 -.450216672924962D+02
 0.128948990584994D+03 0.210429841951605D+02 0.882394337850882D+02 0.439502145611112D+02
 0.514180195305624D+01 -.291114773488540D+01 -.410065058674013D+01 0.107145273138504D+01
 0.000000000000000D+00 0.000000000000000D+00 0.000000000000000D+00 0.000000000000000D+00
 0.236712432168116D+03 0.000000000000000D+00 0.000000000000000D+00 0.236712432168116D+03
 0.149647440506530D+03 0.000000000000000D+00 0.000000000000000D+00 -.149647440506530D+03
 0.164350948564004D+03 -.337680585067144D+02 -.906587116209950D+02 -.450216672924962D+02
 0.124040766783258D+03 0.878280283315934D+01 0.831272331082553D+02 0.439502145611112D+02
 0.561934861857779D+01 -.343264575537637D+01 -.431810271526932D+01 0.107145273138504D+01
 0.923488087088060D+02 0.284179014289314D+02 0.118495812280090D+02 0.870649916615858D+02
0.188678336175D-03 0.000000000000D+00 0.000000000000D+00 0.643561834901D-03 0.215294633100D-05  6 -1 2 25 24 21 21 4 0.62845966D-02 0.13340934D+00 0.24081355D+05 0.24081355D+05 0.24081355D+05 0.12250447D+01  1  2  1  1  6  1       -1 0.188575988396D+00 0.100000000000D+01
  </mgrwgt>
  </event>
  <event>
  6     66 -.43535451E-03 0.16463459E+02 0.75467711E-02 0.12035629E+00
       -1 -1    0    0    0  501 0.00000000E+00 0.00000000E+00 0.20185560E+02 0.20188096E+02 0.32000000E+00 0.0000E+00 0.9000E+01
        2 -1    0    0  502    0 -.00000000E+00 -.00000000E+00 -.16326227E+04 0.16326227E+04 0.32000000E+00 0.0000E+00 0.9000E+01
       25  1    1    2    0    0 -.41790992E+02 0.72965189E+02 -.12303376E+04 0.12395265E+04 0.12500000E+03 0.0000E+00 0.9000E+01
       24  1    1    2    0    0 0.30808912E+02 -.83674125E+02 -.23403675E+03 0.26304175E+03 0.80419002E+02 0.0000E+00 0.9000E+01
       21  1    1    2  502  503 0.16323987E+02 0.10634419E+02 -.10041046E+03 0.10228581E+03 0.75000000E+00 0.0000E+00 0.9000E+01
       21  1    1    2  503  501 -.53419073E+01 0.74516958E-01 -.47652299E+02 0.47956706E+02 0.75000000E+00 0.0000E+00 0.9000E+01
#aMCatNLO 2  0  0  5  2 0.67943770D+01 0.00000000D+00  -5  6  0 0.00000000D+00 0.00000000D+00 0.00000000D+00 0.00000000D+00 0.00000000D+00
  <mgrwgt>
 -.2693080279D+00    3    2    0
 0.181542074094014D+03 0.000000000000000D+00 0.000000000000000D+00 0.181542074094014D+03
 0.181542074094014D+03 -.000000000000000D+00 -.000000000000000D+00 -.181542074094014D+03
 0.177144731728788D+03 -.449167115370212D+02 0.699172113216597D+02 -.940708699065058D+02
 0.160124220275685D+03 0.280135262439762D+02 -.863999841381794D+02 0.104512367941914D+03
 0.258151961835554D+02 0.169031852930450D+02 0.164827728165197D+02 -.104414980354084D+02
 0.000000000000000D+00 -.000000000000000D+00 0.000000000000000D+00 0.000000000000000D+00
 0.181542074094014D+03 0.000000000000000D+00 0.000000000000000D+00 0.181542074094014D+03
 0.181542074094014D+03 -.000000000000000D+00 -.000000000000000D+00 -.181542074094014D+03
 0.178705135290306D+03 -.416570495807725D+02 0.730957996499559D+02 -.960844403266486D+02
 0.157973417962175D+03 0.309273695971365D+02 -.835586132852653D+02 0.102712417866231D+03
 0.193848630059944D+02 0.162849321998916D+02 0.102517069791801D+02 -.234017115167598D+01
 0.702073192955288D+01 -.555525221625561D+01 0.211106656129231D+00 -.428780638790610D+01
-.823478997696D-04 0.000000000000D+00 0.000000000000D+00 0.224765258144D-04 0.000000000000D+00  6 -1 2 25 24 21 21 4 0.31056683D-02 0.25117291D+00 0.21830434D+05 0.21830434D+05 0.21830434D+05 0.12296609D+01  1  2 13  3  6  5       21 -.882683973331D-01 0.100000000000D+01
-.687343515810D-04 0.000000000000D+00 0.000000000000D+00 0.224765258144D-04 0.000000000000D+00  6 -1 2 25 24 21 21 4 0.31056683D-02 0.25117291D+00 0.21830434D+05 0.21830434D+05 0.21830434D+05 0.12296609D+01  1  2 13  3  6  5       21 -.736760873411D-01 0.100000000000D+01
-.100115331529D-03 0.000000000000D+00 0.000000000000D+00 0.224821134042D-04 0.000000000000D+00  6 -1 2 25 24 21 21 4 0.31056683D-02 0.25117291D+00 0.21760044D+05 0.21760044D+05 0.21760044D+05 0.12298137D+01  1  2  8  3  6  5       21 -.107363543200D+00 0.100000000000D+01
  </mgrwgt>
  </event>
  <event>
  5     66 0.43535451E-03 0.53886068E+02 0.75467711E-02 0.10709308E+00
       -1 -1    0    0    0  501 0.00000000E+00 0.00000000E+00 0.13146803E+02 0.13150697E+02 0.32000000E+00 0.0000E+00 0.9000E+01
        2 -1    0    0  502    0 0.00000000E+00 0.00000000E+00 -.20406730E+04 0.20406730E+04 0.32000000E+00 0.0000E+00 0.9000E+01
       25  1    1    2    0    0 0.24490620E+02 -.45454447E+02 -.45484910E+03 0.47452988E+03 0.12500000E+03 0.0000E+00 0.9000E+01
       24  1    1    2    0    0 -.40540192E+02 -.59824315E+01 -.10306675E+04 0.10346120E+04 0.80419002E+02 0.0000E+00 0.9000E+01
       21  1    1    2  502  501 0.16049572E+02 0.51436878E+02 -.54200959E+03 0.54468183E+03 0.75000000E+00 0.0000E+00 0.9000E+01
#aMCatNLO 1  0  0  2  5 0.57728831D+01 0.00000000D+00  -5  6  0 0.00000000D+00 0.00000000D+00 0.00000000D+00 0.00000000D+00 0.00000000D+00
  <mgrwgt>
 0.2435240943D+00    3    2    0
 0.163805832049175D+03 0.000000000000000D+00 0.000000000000000D+00 0.163805832049175D+03
 0.163805832049175D+03 0.000000000000000D+00 0.000000000000000D+00 -.163805832049175D+03
 0.159892274732362D+03 0.244900128282763D+02 -.454563912409180D+02 0.852906518096358D+02
 0.107460405738360D+03 -.405405997258233D+02 -.598373844544205D+01 -.583196150121853D+02
 0.602589836276275D+02 0.160505868975470D+02 0.514401296863601D+02 -.269710367974506D+02
 0.000000000000000D+00 0.000000000000000D+00 -.000000000000000D+00 0.000000000000000D+00
 0.443642786185259D+03 0.000000000000000D+00 0.000000000000000D+00 0.443642786185259D+03
 0.293662203978466D+03 0.000000000000000D+00 0.000000000000000D+00 -.293662203978466D+03
 0.168857901514203D+03 -.700194437054248D+02 0.266603285960751D+02 0.852906518096358D+02
 0.163588726161506D+03 -.118462097570360D+03 0.534753150232389D+02 -.583196150121853D+02
 0.937364880760084D+02 -.282201980052296D+02 0.852215512381690D+02 -.269710367974506D+02
 0.311121874412007D+03 0.216701739281014D+03 -.165357194857483D+03 0.149980582206793D+03
0.279815073885D-03 0.000000000000D+00 0.000000000000D+00 0.590407193484D-05 0.000000000000D+00  6 -1 2 25 24 21 21 2 0.20228865D-02 0.31395000D+00 0.19514520D+05 0.19514520D+05 0.19514520D+05 0.12350027D+01  1  2  2  2  6  2        2 0.230101300107D+00 0.100000000000D+01
-.492054616914D-05 0.147662471286D-04 -.107456356072D-05 0.590407193484D-05 0.000000000000D+00  6 -1 2 25 24 21 21 4 0.20228865D-02 0.31395000D+00 0.19514520D+05 0.19514520D+05 0.19514520D+05 0.12350027D+01  1  2  3  2  6  2        2 -.617159021296D-02 0.100000000000D+01
0.156224035716D-04 0.000000000000D+00 0.000000000000D+00 0.590407193484D-05 0.000000000000D+00  6 -1 2 25 24 21 21 4 0.20228865D-02 0.31395000D+00 0.19514520D+05 0.19514520D+05 0.19514520D+05 0.12350027D+01  1  2 15  2  6  2        2 0.195943843775D-01 0.100000000000D+01
  </mgrwgt>
  </event>
  <event>
  6     66 0.43535451E-03 0.26904190E+02 0.75467711E-02 0.11736622E+00
       -1 -1    0    0    0  501 0.00000000E+00 0.00000000E+00 0.71644993E+02 0.71645707E+02 0.32000000E+00 0.0000E+00 0.9000E+01
        2 -1    0    0  503    0 0.00000000E+00 0.00000000E+00 -.10233952E+04 0.10233952E+04 0.32000000E+00 0.0000E+00 0.9000E+01
       25  1    1    2    0    0 -.13109509E+03 -.29619093E+02 -.34574405E+03 0.39144241E+03 0.12500000E+03 0.0000E+00 0.9000E+01
       24  1    1    2    0    0 0.10423339E+03 0.12063728E+02 -.46938974E+02 0.14028762E+03 0.80419002E+02 0.0000E+00 0.9000E+01
       21  1    1    2  502  501 0.21118716E+01 0.29512698E+01 -.20662285E+00 0.37114941E+01 0.75000000E+00 0.0000E+00 0.9000E+01
       21  1    1    2  503  502 0.24749825E+02 0.14604095E+02 -.55886054E+03 0.55959941E+03 0.75000000E+00 0.0000E+00 0.9000E+01
#aMCatNLO 2  0  0  2  5 0.57728831D+01 0.00000000D+00  -5  6  0 0.00000000D+00 0.00000000D+00 0.00000000D+00 0.00000000D+00 0.00000000D+00
  <mgrwgt>
 0.1713833704D+01    1    2    0
 0.181321207735298D+03 0.000000000000000D+00 0.000000000000000D+00 0.181321207735298D+03
 0.181321207735298D+03 0.000000000000000D+00 0.000000000000000D+00 -.181321207735298D+03
 0.193260581843282D+03 -.117615717673934D+03 -.216738465665791D+02 -.861477789931800D+02
 0.163863461210441D+03 0.115114427268827D+03 0.184770698022154D+02 0.824092500365647D+02
 0.551837241687335D+01 0.250129040510728D+01 0.319677676436363D+01 0.373852895661538D+01
 0.000000000000000D+00 0.000000000000000D+00 0.000000000000000D+00 -.000000000000000D+00
 0.182831761165163D+03 0.000000000000000D+00 0.000000000000000D+00 0.182831761165163D+03
 0.401030152289319D+03 0.000000000000000D+00 0.000000000000000D+00 -.401030152289319D+03
 0.202766375462925D+03 -.131108704335943D+03 -.296356346357642D+02 -.861477789931800D+02
 0.155776667297915D+03 0.104224007030916D+03 0.120509745209720D+02 0.824092500365647D+02
 0.523622405121342D+01 0.213487184692066D+01 0.298056467003817D+01 0.373852895661538D+01
 0.220082646642429D+03 0.247498254581057D+02 0.146040954447541D+02 -.218198391124156D+03
0.520137117867D-02 0.000000000000D+00 0.000000000000D+00 0.848119615290D-03 0.695626836282D-05  6 -1 2 25 24 21 21 4 0.11022327D-01 0.15744492D+00 0.30302598D+05 0.30302598D+05 0.30302598D+05 0.12144412D+01  1  2  1  2  6  2        2 0.171383370390D+01 0.100000000000D+01
  </mgrwgt>
  </event>
  <event>
  6     66 -.43535451E-03 0.93913465E+02 0.75467711E-02 0.11424631E+00
       -1 -1    0    0    0  501 0.00000000E+00 0.00000000E+00 0.63938714E+02 0.63939515E+02 0.32000000E+00 0.0000E+00 0.9000E+01
        2 -1    0    0  502    0 -.00000000E+00 -.00000000E+00 -.74394299E+03 0.74394306E+03 0.32000000E+00 0.0000E+00 0.9000E+01
       25  1    1    2    0    0 -.66057137E+02 -.60778867E+02 -.32626145E+03 0.36073418E+03 0.12500000E+03 0.0000E+00 0.9000E+01
       24  1    1    2    0    0 -.20958393E+02 0.12507410E+03 -.14179265E+03 0.20653125E+03 0.80419002E+02 0.0000E+00 0.9000E+01
       21  1    1    2  502  503 0.74395092E+02 -.67703357E+02 -.18249628E+03 0.20838385E+03 0.75000000E+00 0.0000E+00 0.9000E+01
       21  1    1    2  503  501 0.12620438E+02 0.34081195E+01 -.29453891E+02 0.32233289E+02 0.75000000E+00 0.0000E+00 0.9000E+01
#aMCatNLO 2  0  0  5  2 0.10756857D+02 0.00000000D+00  -5  6  0 0.00000000D+00 0.00000000D+00 0.00000000D+00 0.00000000D+00 0.00000000D+00
  <mgrwgt>
 -.4390183751D-01    4    2    0
 0.218098853526390D+03 0.000000000000000D+00 0.000000000000000D+00 0.218098853526390D+03
 0.218098853526390D+03 -.000000000000000D+00 -.000000000000000D+00 -.218098853526390D+03
 0.159640981358005D+03 -.677062167106239D+02 -.595603718053649D+02 -.415773166292335D+02
 0.162779660399680D+03 -.226338998490739D+02 0.126312125639954D+03 0.596904965585227D+02
 0.113777065295095D+03 0.903401165596978D+02 -.667517538345895D+02 -.181131799292892D+02
 0.000000000000000D+00 0.000000000000000D+00 0.000000000000000D+00 -.000000000000000D+00
 0.218098853526390D+03 0.000000000000000D+00 0.000000000000000D+00 0.218098853526390D+03
 0.218098853526390D+03 -.000000000000000D+00 -.000000000000000D+00 -.218098853526390D+03
 0.159494849416334D+03 -.660459160172646D+02 -.607871577272238D+02 -.419102066712301D+02
 0.161462439456047D+03 -.209470338462796D+02 0.125065710775125D+03 0.593522801759367D+02
 0.101357418881459D+03 0.742638618044323D+02 -.677240291602195D+02 -.131019489584344D+02
 0.138829992989388D+02 0.127290880591118D+02 0.344547611231866D+01 -.434012454627214D+01
-.150022769076D-03 0.000000000000D+00 0.000000000000D+00 0.149641847762D-05 0.000000000000D+00  6 -1 2 25 24 21 21 4 0.98367922D-02 0.11445284D+00 0.43627142D+05 0.43627142D+05 0.43627142D+05 0.11981909D+01  1  2 13  3  6  5       21 -.849984344936D-01 0.100000000000D+01
-.143872606735D-03 0.000000000000D+00 0.000000000000D+00 0.149641847762D-05 0.000000000000D+00  6 -1 2 25 24 21 21 4 0.98367922D-02 0.11445284D+00 0.43627142D+05 0.43627142D+05 0.43627142D+05 0.11981909D+01  1  2 13  3  6  5       21 -.815139356132D-01 0.100000000000D+01
-.741002838966D-04 0.000000000000D+00 0.000000000000D+00 0.149633698766D-05 0.000000000000D+00  6 -1 2 25 24 21 21 4 0.98367922D-02 0.11445284D+00 0.43659747D+05 0.43659747D+05 0.43659747D+05 0.11981583D+01  1  2  8  3  6  5       21 -.419787616470D-01 0.100000000000D+01
0.290501134877D-03 0.000000000000D+00 0.000000000000D+00 0.149633698766D-05 0.775950147248D-07  6 -1 2 25 24 21 21 4 0.98367922D-02 0.11445284D+00 0.43627142D+05 0.43627142D+05 0.43627142D+05 0.11981909D+01  1  2  1  3  6  5       21 0.164589294247D+00 0.100000000000D+01
  </mgrwgt>
  </event>
  <event>
  5     66 0.43535451E-03 0.25453540E+02 0.75467711E-02 0.11463485E+00
       -1 -1    0    0    0  501 0.00000000E+00 0.00000000E+00 0.29696119E+02 0.29697843E+02 0.32000000E+00 0.0000E+00 0.9000E+01
        2 -1    0    0  502    0 0.00000000E+00 0.00000000E+00 -.23480211E+04 0.23480211E+04 0.32000000E+00 0.0000E+00 0.9000E+01
       25  1    1    2    0    0 -.13072676E+03 0.99368921E+02 -.13175418E+04 0.13336060E+04 0.12500000E+03 0.0000E+00 0.9000E+01
       24  1    1    2    0    0 0.12851350E+03 -.74012101E+02 -.10043321E+04 0.10184025E+04 0.80419002E+02 0.0000E+00 0.9000E+01
       21  1    1    2  502  501 0.22132617E+01 -.25356820E+02 0.35489358E+01 0.25710392E+02 0.75000000E+00 0.0000E+00 0.9000E+01
#aMCatNLO 1  0  0  1  5 0.64370759D+01 0.00000000D+00  -5  6  0 0.00000000D+00 0.00000000D+00 0.00000000D+00 0.00000000D+00 0.00000000D+00
  <mgrwgt>
 0.2249704468D+01   11    4    0
 0.264062853857747D+03 0.000000000000000D+00 0.000000000000000D+00 0.264062853857747D+03
 0.264062853857747D+03 0.000000000000000D+00 0.000000000000000D+00 -.264062853857747D+03
 0.220497707845175D+03 -.130726771910530D+03 0.993690935084260D+02 -.776565098761338D+02
 0.176296781562049D+03 0.128513483072178D+03 -.740119633122735D+02 -.511845014636874D+02
 0.131331218308270D+03 0.221328883835287D+01 -.253571301961525D+02 0.128841011339821D+03
 0.000000000000000D+00 0.000000000000000D+00 0.000000000000000D+00 0.000000000000000D+00
 0.347692497589739D+03 0.000000000000000D+00 0.000000000000000D+00 0.347692497589739D+03
 0.264206364210345D+03 0.000000000000000D+00 0.000000000000000D+00 -.264206364210345D+03
 0.219940770428418D+03 -.131670860272308D+03 0.968565616035099D+02 -.776565098761338D+02
 0.176603364567159D+03 0.127757034811490D+03 -.760251227434719D+02 -.511845014636874D+02
 0.131620800508720D+03 0.164964612111326D+01 -.268571702002172D+02 0.128841011339821D+03
 0.837339262957868D+02 0.226417933970512D+01 0.602573134017925D+01 0.834861333793936D+02
 0.264062853857747D+03 0.000000000000000D+00 0.000000000000000D+00 0.264062853857747D+03
 0.264062853857747D+03 0.000000000000000D+00 0.000000000000000D+00 -.264062853857747D+03
 0.220497707845175D+03 -.130726771910530D+03 0.993690935084260D+02 -.776565098761338D+02
 0.176296781562049D+03 0.128513483072178D+03 -.740119633122735D+02 -.511845014636874D+02
 0.000000000000000D+00 0.000000000000000D+00 0.000000000000000D+00 0.000000000000000D+00
 0.131331218308270D+03 0.221328883835287D+01 -.253571301961525D+02 0.128841011339821D+03
 0.347692497589739D+03 0.000000000000000D+00 0.000000000000000D+00 0.347692497589739D+03
 0.264206364210345D+03 0.000000000000000D+00 0.000000000000000D+00 -.264206364210345D+03
 0.219940770428418D+03 -.131670860272308D+03 0.968565616035099D+02 -.776565098761338D+02
 0.176603364567159D+03 0.127757034811490D+03 -.760251227434719D+02 -.511845014636874D+02
 0.837339262957868D+02 0.226417933970512D+01 0.602573134017925D+01 0.834861333793936D+02
 0.131620800508720D+03 0.164964612111326D+01 -.268571702002172D+02 0.128841011339821D+03
0.177957772644D-03 0.000000000000D+00 0.000000000000D+00 0.324455570907D-04 0.000000000000D+00  6 -1 2 25 24 21 21 2 0.45687681D-02 0.36123415D+00 0.40105440D+05 0.40105440D+05 0.40105440D+05 0.12018842D+01  1  2  2  1  6  1       -1 0.289066418304D-01 0.100000000000D+01
0.434307876668D-04 0.939108966803D-05 -.683404704310D-06 0.324455570907D-04 0.000000000000D+00  6 -1 2 25 24 21 21 4 0.45687681D-02 0.36123415D+00 0.40105440D+05 0.40105440D+05 0.40105440D+05 0.12018842D+01  1  2  3  1  6  1       -1 0.101906907202D-01 0.100000000000D+01
0.511070867471D-05 0.000000000000D+00 0.000000000000D+00 0.324455570907D-04 0.000000000000D+00  6 -1 2 25 24 21 21 4 0.45687681D-02 0.36123415D+00 0.40105440D+05 0.40105440D+05 0.40105440D+05 0.12018842D+01  1  2 15  1  6  1       -1 0.119918735678D-02 0.100000000000D+01
0.272402008352D-01 0.000000000000D+00 0.000000000000D+00 0.323561262137D-04 0.000000000000D+00  6 -1 2 25 24 21 21 4 0.63009966D-02 0.36123415D+00 0.41645251D+05 0.41645251D+05 0.41645251D+05 0.12002266D+01  1  2 12  1  6  1       -1 0.392412544548D+01 0.100000000000D+01
-.182951433277D-01 0.000000000000D+00 0.000000000000D+00 0.324455570907D-04 0.000000000000D+00  6 -1 2 25 24 21 21 4 0.45687681D-02 0.36123415D+00 0.40105440D+05 0.40105440D+05 0.40105440D+05 0.12018842D+01  1  2  4  1  6  1       -1 -.429281063849D+01 0.100000000000D+01
-.381286034346D-01 0.000000000000D+00 -.147676864814D-03 0.324455570907D-04 0.000000000000D+00  6 -1 2 25 24 21 21 4 0.60173105D-02 0.36123415D+00 0.40105440D+05 0.40105440D+05 0.40105440D+05 0.12018842D+01  1  2  5  1  6  1       -1 -.592495003913D+01 0.100000000000D+01
0.367714309427D-01 0.000000000000D+00 0.142248384438D-03 0.324455570907D-04 0.000000000000D+00  6 -1 2 25 24 21 21 4 0.45687681D-02 0.36123415D+00 0.40105440D+05 0.40105440D+05 0.40105440D+05 0.12018842D+01  1  2  6  1  6  1       -1 0.862812535087D+01 0.100000000000D+01
0.233400766328D-02 0.000000000000D+00 0.000000000000D+00 0.324455570907D-04 0.186326206684D-05  6 -1 2 25 24 21 21 4 0.60157131D-02 0.36143047D+00 0.41645251D+05 0.41645251D+05 0.41645251D+05 0.12002266D+01  1  2 11  1  6  1       -1 0.359968379753D+00 0.100000000000D+01
0.110679033221D-02 0.000000000000D+00 0.000000000000D+00 0.323561262137D-04 0.000000000000D+00  6 21 2 25 24 1 21 4 0.63009966D-02 0.36123415D+00 0.41645251D+05 0.41645251D+05 0.41645251D+05 0.12002266D+01  3  4 12  4  5  1       -1 0.262166160313D+01 0.100000000000D+01
-.138230299512D-02 0.000000000000D+00 -.536504194751D-05 0.324455570907D-04 0.000000000000D+00  6 21 2 25 24 1 21 4 0.60173105D-02 0.36123415D+00 0.40105440D+05 0.40105440D+05 0.40105440D+05 0.12018842D+01  3  4  5  4  5  1       -1 -.356919983458D+01 0.100000000000D+01
0.180604041409D-03 0.000000000000D+00 0.000000000000D+00 0.324455570907D-04 0.288333891615D-06  6 21 2 25 24 1 21 4 0.60157131D-02 0.36143047D+00 0.41645251D+05 0.41645251D+05 0.41645251D+05 0.12002266D+01  3  4 11  4  5  1       -1 0.462487681297D+00 0.100000000000D+01
  </mgrwgt>
  </event>
  <event>
  5     66 0.43535451E-03 0.13550543E+03 0.75467711E-02 0.11065640E+00
       -1 -1    0    0    0  501 0.00000000E+00 0.00000000E+00 0.10812049E+03 0.10812096E+03 0.32000000E+00 0.0000E+00 0.9000E+01
        2 -1    0    0  502    0 0.00000000E+00 0.00000000E+00 -.79927369E+03 0.79927376E+03 0.32000000E+00 0.0000E+00 0.9000E+01
       25  1    1    2    0    0 -.29949037E+02 0.12411764E+03 -.68691591E+02 0.19143058E+03 0.12500000E+03 0.0000E+00 0.9000E+01
       24  1    1    2    0    0 -.10671536E+03 -.14777101E+03 -.25775931E+03 0.32577832E+03 0.80419002E+02 0.0000E+00 0.9000E+01
       21  1    1    2  502  501 0.13666439E+03 0.23653374E+02 -.36470230E+03 0.39018581E+03 0.75000000E+00 0.0000E+00 0.9000E+01
#aMCatNLO 1  0  0  1  5 0.49811210D+01 0.00000000D+00  -5  6  0 0.00000000D+00 0.00000000D+00 0.00000000D+00 0.00000000D+00 0.00000000D+00
  <mgrwgt>
 0.2506274591D-01   11    4    0
 0.293969569620401D+03 0.000000000000000D+00 0.000000000000000D+00 0.293969569620401D+03
 0.293969569620401D+03 0.000000000000000D+00 0.000000000000000D+00 -.293969569620401D+03
 0.214693671545789D+03 -.299495029619660D+02 0.124117557209298D+03 0.119021980602487D+03
 0.199780057489583D+03 -.106715792513313D+03 -.147771086771850D+03 -.148425388223253D+02
 0.173465410205430D+03 0.136665295475279D+03 0.236535295625521D+02 -.104179441780162D+03
 0.000000000000000D+00 -.000000000000000D+00 -.000000000000000D+00 0.000000000000000D+00
 0.337803813681222D+03 0.000000000000000D+00 0.000000000000000D+00 0.337803813681222D+03
 0.294121661620129D+03 0.000000000000000D+00 0.000000000000000D+00 -.294121661620129D+03
 0.215610501960373D+03 -.293486340870410D+02 0.125838445501723D+03 0.119021980602487D+03
 0.198307225577790D+03 -.106159910714748D+03 -.146179041453740D+03 -.148425388223253D+02
 0.174042511778823D+03 0.137150549179441D+03 0.250432960377289D+02 -.104179441780162D+03
 0.439652359843643D+02 -.164200437765206D+01 -.470270008571169D+01 0.436821520610931D+02
 0.293969569620401D+03 0.000000000000000D+00 0.000000000000000D+00 0.293969569620401D+03
 0.293969569620401D+03 0.000000000000000D+00 0.000000000000000D+00 -.293969569620401D+03
 0.214693671545789D+03 -.299495029619660D+02 0.124117557209298D+03 0.119021980602487D+03
 0.199780057489583D+03 -.106715792513313D+03 -.147771086771850D+03 -.148425388223253D+02
 0.000000000000000D+00 -.000000000000000D+00 -.000000000000000D+00 0.000000000000000D+00
 0.173465410205430D+03 0.136665295475279D+03 0.236535295625521D+02 -.104179441780162D+03
 0.337803813681222D+03 0.000000000000000D+00 0.000000000000000D+00 0.337803813681222D+03
 0.294121661620129D+03 0.000000000000000D+00 0.000000000000000D+00 -.294121661620129D+03
 0.215610501960373D+03 -.293486340870410D+02 0.125838445501723D+03 0.119021980602487D+03
 0.198307225577790D+03 -.106159910714748D+03 -.146179041453740D+03 -.148425388223253D+02
 0.439652359843643D+02 -.164200437765206D+01 -.470270008571169D+01 0.436821520610931D+02
 0.174042511778823D+03 0.137150549179441D+03 0.250432960377289D+02 -.104179441780162D+03
0.334004605775D-04 0.000000000000D+00 0.000000000000D+00 0.100337784009D-05 0.000000000000D+00  6 -1 2 25 24 21 21 2 0.16633963D-01 0.12296522D+00 0.66720630D+05 0.66720630D+05 0.66720630D+05 0.11800693D+01  1  2  2  1  6  1       -1 0.512890675058D-02 0.100000000000D+01
-.215063261939D-05 0.176259072912D-05 -.128266563161D-06 0.100337784009D-05 0.000000000000D+00  6 -1 2 25 24 21 21 4 0.16633963D-01 0.12296522D+00 0.66720630D+05 0.66720630D+05 0.66720630D+05 0.11800693D+01  1  2  3  1  6  1       -1 -.459889620850D-03 0.100000000000D+01
0.855362392528D-06 0.000000000000D+00 0.000000000000D+00 0.100337784009D-05 0.000000000000D+00  6 -1 2 25 24 21 21 4 0.16633963D-01 0.12296522D+00 0.66720630D+05 0.66720630D+05 0.66720630D+05 0.11800693D+01  1  2 15  1  6  1       -1 0.182910034398D-03 0.100000000000D+01
0.259096762089D-02 0.000000000000D+00 0.000000000000D+00 0.100192655671D-05 0.000000000000D+00  6 -1 2 25 24 21 21 4 0.19123332D-01 0.12296522D+00 0.68103404D+05 0.68103404D+05 0.68103404D+05 0.11792156D+01  1  2 12  1  6  1       -1 0.441069917693D+00 0.100000000000D+01
-.641318135525D-02 0.000000000000D+00 0.000000000000D+00 0.100337784009D-05 0.000000000000D+00  6 -1 2 25 24 21 21 4 0.16633963D-01 0.12296522D+00 0.66720630D+05 0.66720630D+05 0.66720630D+05 0.11800693D+01  1  2  4  1  6  1       -1 -.137138975542D+01 0.100000000000D+01
-.681960202691D-02 0.000000000000D+00 -.493210502160D-04 0.100337784009D-05 0.000000000000D+00  6 -1 2 25 24 21 21 4 0.19119079D-01 0.12296522D+00 0.66720630D+05 0.66720630D+05 0.66720630D+05 0.11800693D+01  1  2  5  1  6  1       -1 -.116482728982D+01 0.100000000000D+01
0.676129440633D-02 0.000000000000D+00 0.488467682810D-04 0.100337784009D-05 0.000000000000D+00  6 -1 2 25 24 21 21 4 0.16633963D-01 0.12296522D+00 0.66720630D+05 0.66720630D+05 0.66720630D+05 0.11800693D+01  1  2  6  1  6  1       -1 0.144582998182D+01 0.100000000000D+01
0.398027092860D-02 0.000000000000D+00 0.000000000000D+00 0.100337784009D-05 0.147140529982D-06  6 -1 2 25 24 21 21 4 0.19114278D-01 0.12302884D+00 0.68103404D+05 0.68103404D+05 0.68103404D+05 0.11792156D+01  1  2 11  1  6  1       -1 0.677649826632D+00 0.100000000000D+01
0.556968639956D-04 0.000000000000D+00 0.000000000000D+00 0.100192655671D-05 0.000000000000D+00  6 21 2 25 24 1 21 4 0.19123332D-01 0.12296522D+00 0.68103404D+05 0.68103404D+05 0.68103404D+05 0.11792156D+01  3  4 12  4  5  1       -1 0.119395177143D+00 0.100000000000D+01
-.146106868347D-03 0.000000000000D+00 -.105884560991D-05 0.100337784009D-05 0.000000000000D+00  6 21 2 25 24 1 21 4 0.19119079D-01 0.12296522D+00 0.66720630D+05 0.66720630D+05 0.66720630D+05 0.11800693D+01  3  4  5  4  5  1       -1 -.314423250214D+00 0.100000000000D+01
0.871704371509D-04 0.000000000000D+00 0.000000000000D+00 0.100337784009D-05 0.644348604336D-08  6 21 2 25 24 1 21 4 0.19114278D-01 0.12302884D+00 0.68103404D+05 0.68103404D+05 0.68103404D+05 0.11792156D+01  3  4 11  4  5  1       -1 0.186906210927D+00 0.100000000000D+01
  </mgrwgt>
  </event>
  <event>
  5     66 -.43535451E-03 0.36012013E+02 0.75467711E-02 0.11916203E+00
       -1 -1    0    0    0  501 0.00000000E+00 0.00000000E+00 0.35044005E+02 0.35045466E+02 0.32000000E+00 0.0000E+00 0.9000E+01
        2 -1    0    0  502    0 -.00000000E+00 -.00000000E+00 -.82853957E+03 0.82853963E+03 0.32000000E+00 0.0000E+00 0.9000E+01
       25  1    1    2    0    0 0.57086238E+01 -.99271179E+02 -.40386954E+03 0.43430745E+03 0.12500000E+03 0.0000E+00 0.9000E+01
       24  1    1    2    0    0 0.26824163E+02 0.83834315E+02 -.36897614E+03 0.38776067E+03 0.80419002E+02 0.0000E+00 0.9000E+01
       21  1    1    2  502  501 -.32532787E+02 0.15436864E+02 -.20649876E+02 0.41516971E+02 0.75000000E+00 0.0000E+00 0.9000E+01
#aMCatNLO 1  0  0  5  2 0.22920817D+01 0.00000000D+00  -5  6  0 0.00000000D+00 0.00000000D+00 0.00000000D+00 0.00000000D+00 0.00000000D+00
  <mgrwgt>
 -.1800477499D+00   25    2    0
 0.170399537000718D+03 0.000000000000000D+00 0.000000000000000D+00 0.170399537000718D+03
 0.170399537000718D+03 -.000000000000000D+00 -.000000000000000D+00 -.170399537000718D+03
 0.160191007695359D+03 0.570994201788909D+01 -.992718048495279D+02 -.121927958452616D+02
 0.123484756539702D+03 0.268251792715458D+02 0.838338331679631D+02 -.321491417725972D+02
 0.571233097663740D+02 -.325351212894349D+02 0.154379716815648D+02 0.443419376178589D+02
 0.000000000000000D+00 0.000000000000000D+00 0.000000000000000D+00 0.000000000000000D+00
 0.170399537000718D+03 0.000000000000000D+00 0.000000000000000D+00 0.170399537000718D+03
 0.170399537000718D+03 -.000000000000000D+00 -.000000000000000D+00 -.170399537000718D+03
 0.160168678279578D+03 0.565836900085699D+01 -.992473333631796D+02 -.121225072643875D+02
 0.123474839722645D+03 0.267854225480195D+02 0.838526978024758D+02 -.320949575530638D+02
 0.345438953067811D+02 -.214474022601106D+02 0.947780500128007D+01 0.253665301453819D+02
 0.226116606924314D+02 -.109963892887659D+02 0.591683055942378D+01 0.188509346720694D+02
0.923518538668D-05 0.000000000000D+00 0.000000000000D+00 0.164011316174D-04 0.000000000000D+00  6 -1 2 25 24 21 21 2 0.53915025D-02 0.12746774D+00 0.24800683D+05 0.24800683D+05 0.24800683D+05 0.12236705D+01  1  2  2  3  6  5       21 0.818301567302D-02 0.100000000000D+01
0.739108431409D-06 0.487354122154D-06 -.354655435650D-07 0.164011316174D-04 0.000000000000D+00  6 -1 2 25 24 21 21 4 0.53915025D-02 0.12746774D+00 0.24800683D+05 0.24800683D+05 0.24800683D+05 0.12236705D+01  1  2  3  3  6  5       21 0.980629427062D-03 0.100000000000D+01
0.306484912408D-06 0.000000000000D+00 0.000000000000D+00 0.164011316174D-04 0.000000000000D+00  6 -1 2 25 24 21 21 4 0.53915025D-02 0.12746774D+00 0.24800683D+05 0.24800683D+05 0.24800683D+05 0.12236705D+01  1  2 15  3  6  5       21 0.406636037807D-03 0.100000000000D+01
0.596120555636D-06 0.000000000000D+00 0.000000000000D+00 0.164018403347D-04 0.000000000000D+00  6 -1 2 25 24 21 21 4 0.53915025D-02 0.12746774D+00 0.24786619D+05 0.24786619D+05 0.24786619D+05 0.12236970D+01  1  2 12  3  6  5       21 0.790975675191D-03 0.100000000000D+01
0.599120051530D-06 0.000000000000D+00 0.000000000000D+00 0.164018403347D-04 0.000000000000D+00  6 -1 2 25 24 21 21 4 0.53915025D-02 0.12746774D+00 0.24786619D+05 0.24786619D+05 0.24786619D+05 0.12236970D+01  1  2 12  3  6  5       21 0.794955622312D-03 0.100000000000D+01
-.849704696368D-03 0.000000000000D+00 0.000000000000D+00 0.164011316174D-04 0.000000000000D+00  6 -1 2 25 24 21 21 4 0.53915025D-02 0.12746774D+00 0.24800683D+05 0.24800683D+05 0.24800683D+05 0.12236705D+01  1  2  4  3  6  5       21 -.112736561262D+01 0.100000000000D+01
-.410216690058D-03 0.000000000000D+00 0.000000000000D+00 0.164011316174D-04 0.000000000000D+00  6 -1 2 25 24 21 21 4 0.53915025D-02 0.12746774D+00 0.24800683D+05 0.24800683D+05 0.24800683D+05 0.12236705D+01  1  2  5  3  6  5       21 -.544264604012D+00 0.100000000000D+01
0.653857668784D-03 0.000000000000D+00 -.000000000000D+00 0.164011316174D-04 0.000000000000D+00  6 -1 2 25 24 21 21 4 0.53915025D-02 0.12746774D+00 0.24800683D+05 0.24800683D+05 0.24800683D+05 0.12236705D+01  1  2  6  3  6  5       21 0.867520980510D+00 0.100000000000D+01
0.459327966284D-03 0.000000000000D+00 0.000000000000D+00 0.164011316174D-04 0.196790060892D-04  6 -1 2 25 24 21 21 4 0.53915025D-02 0.12746774D+00 0.24786619D+05 0.24786619D+05 0.24786619D+05 0.12236970D+01  1  2 11  3  6  5       21 0.609469418275D+00 0.100000000000D+01
0.412623742259D-08 0.000000000000D+00 0.000000000000D+00 0.164018403347D-04 0.000000000000D+00  6 -1 2 25 24 1 -1 4 0.53915025D-02 0.12746774D+00 0.24786619D+05 0.24786619D+05 0.24786619D+05 0.12236970D+01  1  2 12  6  6  5       21 0.547498891033D-05 0.100000000000D+01
0.415391280521D-08 0.000000000000D+00 0.000000000000D+00 0.164018403347D-04 0.000000000000D+00  6 -1 2 25 24 1 -1 4 0.53915025D-02 0.12746774D+00 0.24786619D+05 0.24786619D+05 0.24786619D+05 0.12236970D+01  1  2 12  6  6  5       21 0.551171060068D-05 0.100000000000D+01
-.266568266587D-05 0.000000000000D+00 0.000000000000D+00 0.164011316174D-04 0.000000000000D+00  6 -1 2 25 24 1 -1 4 0.53915025D-02 0.12746774D+00 0.24800683D+05 0.24800683D+05 0.24800683D+05 0.12236705D+01  1  2  5  6  6  5       21 -.353675692804D-02 0.100000000000D+01
0.329346796083D-05 0.000000000000D+00 0.000000000000D+00 0.164011316174D-04 0.198474121976D-06  6 -1 2 25 24 1 -1 4 0.53915025D-02 0.12746774D+00 0.24786619D+05 0.24786619D+05 0.24786619D+05 0.12236970D+01  1  2 11  6  6  5       21 0.437001042726D-02 0.100000000000D+01
0.412623742259D-08 0.000000000000D+00 0.000000000000D+00 0.164018403347D-04 0.000000000000D+00  6 -1 2 25 24 2 -2 4 0.53915025D-02 0.12746774D+00 0.24786619D+05 0.24786619D+05 0.24786619D+05 0.12236970D+01  1  2 12  7  6  5       21 0.547498891033D-05 0.100000000000D+01
0.415391280521D-08 0.000000000000D+00 0.000000000000D+00 0.164018403347D-04 0.000000000000D+00  6 -1 2 25 24 2 -2 4 0.53915025D-02 0.12746774D+00 0.24786619D+05 0.24786619D+05 0.24786619D+05 0.12236970D+01  1  2 12  7  6  5       21 0.551171060068D-05 0.100000000000D+01
-.266568266587D-05 0.000000000000D+00 0.000000000000D+00 0.164011316174D-04 0.000000000000D+00  6 -1 2 25 24 2 -2 4 0.53915025D-02 0.12746774D+00 0.24800683D+05 0.24800683D+05 0.24800683D+05 0.12236705D+01  1  2  5  7  6  5       21 -.353675692804D-02 0.100000000000D+01
0.331065491847D-05 0.000000000000D+00 0.000000000000D+00 0.164011316174D-04 0.199069849922D-06  6 -1 2 25 24 2 -2 4 0.53915025D-02 0.12746774D+00 0.24786619D+05 0.24786619D+05 0.24786619D+05 0.12236970D+01  1  2 11  7  6  5       21 0.439281532016D-02 0.100000000000D+01
0.412623742259D-08 0.000000000000D+00 0.000000000000D+00 0.164018403347D-04 0.000000000000D+00  6 -1 2 25 24 3 -3 4 0.53915025D-02 0.12746774D+00 0.24786619D+05 0.24786619D+05 0.24786619D+05 0.12236970D+01  1  2 12  8  6  5       21 0.547498891033D-05 0.100000000000D+01
0.412623742259D-08 0.000000000000D+00 0.000000000000D+00 0.164018403347D-04 0.000000000000D+00  6 -1 2 25 24 4 -4 4 0.53915025D-02 0.12746774D+00 0.24786619D+05 0.24786619D+05 0.24786619D+05 0.12236970D+01  1  2 12  8  6  5       21 0.547498891033D-05 0.100000000000D+01
0.415391280521D-08 0.000000000000D+00 0.000000000000D+00 0.164018403347D-04 0.000000000000D+00  6 -1 2 25 24 3 -3 4 0.53915025D-02 0.12746774D+00 0.24786619D+05 0.24786619D+05 0.24786619D+05 0.12236970D+01  1  2 12  8  6  5       21 0.551171060068D-05 0.100000000000D+01
0.415391280521D-08 0.000000000000D+00 0.000000000000D+00 0.164018403347D-04 0.000000000000D+00  6 -1 2 25 24 4 -4 4 0.53915025D-02 0.12746774D+00 0.24786619D+05 0.24786619D+05 0.24786619D+05 0.12236970D+01  1  2 12  8  6  5       21 0.551171060068D-05 0.100000000000D+01
-.266568266587D-05 0.000000000000D+00 0.000000000000D+00 0.164011316174D-04 0.000000000000D+00  6 -1 2 25 24 3 -3 4 0.53915025D-02 0.12746774D+00 0.24800683D+05 0.24800683D+05 0.24800683D+05 0.12236705D+01  1  2  5  8  6  5       21 -.353675692804D-02 0.100000000000D+01
-.266568266587D-05 0.000000000000D+00 0.000000000000D+00 0.164011316174D-04 0.000000000000D+00  6 -1 2 25 24 4 -4 4 0.53915025D-02 0.12746774D+00 0.24800683D+05 0.24800683D+05 0.24800683D+05 0.12236705D+01  1  2  5  8  6  5       21 -.353675692804D-02 0.100000000000D+01
0.330706753643D-05 0.000000000000D+00 0.000000000000D+00 0.164011316174D-04 0.198847117351D-06  6 -1 2 25 24 3 -3 4 0.53915025D-02 0.12746774D+00 0.24786619D+05 0.24786619D+05 0.24786619D+05 0.12236970D+01  1  2 11  8  6  5       21 0.438805532337D-02 0.100000000000D+01
0.330706753643D-05 0.000000000000D+00 0.000000000000D+00 0.164011316174D-04 0.198847117351D-06  6 -1 2 25 24 4 -4 4 0.53915025D-02 0.12746774D+00 0.24786619D+05 0.24786619D+05 0.24786619D+05 0.12236970D+01  1  2 11  8  6  5       21 0.438805532337D-02 0.100000000000D+01
  </mgrwgt>
  </event>
  <event>
  5     66 0.43535451E-03 0.13982601E+03 0.75467711E-02 0.11071872E+00
       -1 -1    0    0    0  501 0.00000000E+00 0.00000000E+00 0.28821845E+03 0.28821862E+03 0.32000000E+00 0.0000E+00 0.9000E+01
        2 -1    0    0  502    0 0.00000000E+00 0.00000000E+00 -.43504061E+03 0.43504072E+03 0.32000000E+00 0.0000E+00 0.9000E+01
       25  1    1    2    0    0 0.17149177E+03 -.87842088E+02 0.62421008E+02 0.23800639E+03 0.12500000E+03 0.0000E+00 0.9000E+01
       24  1    1    2    0    0 0.12015510E+02 0.16757001E+02 0.92951068E+02 0.12462859E+03 0.80419002E+02 0.0000E+00 0.9000E+01
       21  1    1    2  502  501 -.18350728E+03 0.71085087E+02 -.30219424E+03 0.36062436E+03 0.75000000E+00 0.0000E+00 0.9000E+01
#aMCatNLO 1  0  0  1  5 0.93873208D+01 0.00000000D+00  -5  6  0 0.00000000D+00 0.00000000D+00 0.00000000D+00 0.00000000D+00 0.00000000D+00
  <mgrwgt>
 0.4758639532D-01   11    4    0
 0.354100034907242D+03 0.000000000000000D+00 0.000000000000000D+00 0.354100034907242D+03
 0.354100034907242D+03 0.000000000000000D+00 0.000000000000000D+00 -.354100034907242D+03
 0.256008627739887D+03 0.171491971775737D+03 -.878421650999120D+02 0.113091445849321D+03
 0.146549210353022D+03 0.120156246648461D+02 0.167569569336458D+02 0.120765410026883D+03
 0.305642231721575D+03 -.183507596440583D+03 0.710852081662662D+02 -.233856855876204D+03
 0.000000000000000D+00 0.000000000000000D+00 0.000000000000000D+00 0.000000000000000D+00
 0.378755662312101D+03 0.000000000000000D+00 0.000000000000000D+00 0.378755662312101D+03
 0.355025796072162D+03 0.000000000000000D+00 0.000000000000000D+00 -.355025796072162D+03
 0.253871777272508D+03 0.168126510121657D+03 -.881457926705771D+02 0.113091445849321D+03
 0.146383501078860D+03 0.100821245776526D+02 0.165825190720099D+02 0.120765410026883D+03
 0.308007004052675D+03 -.187557983456345D+03 0.707197875208227D+02 -.233856855876204D+03
 0.255191759802198D+02 0.934934875703599D+01 0.843486077744460D+00 0.237298662399389D+02
 0.354100034907242D+03 0.000000000000000D+00 0.000000000000000D+00 0.354100034907242D+03
 0.354100034907242D+03 0.000000000000000D+00 0.000000000000000D+00 -.354100034907242D+03
 0.256008627739887D+03 0.171491971775737D+03 -.878421650999120D+02 0.113091445849321D+03
 0.146549210353022D+03 0.120156246648461D+02 0.167569569336458D+02 0.120765410026883D+03
 0.000000000000000D+00 0.000000000000000D+00 0.000000000000000D+00 0.000000000000000D+00
 0.305642231721575D+03 -.183507596440583D+03 0.710852081662662D+02 -.233856855876204D+03
 0.378755662312101D+03 0.000000000000000D+00 0.000000000000000D+00 0.378755662312101D+03
 0.355025796072162D+03 0.000000000000000D+00 0.000000000000000D+00 -.355025796072162D+03
 0.253871777272508D+03 0.168126510121657D+03 -.881457926705771D+02 0.113091445849321D+03
 0.146383501078860D+03 0.100821245776526D+02 0.165825190720099D+02 0.120765410026883D+03
 0.255191759802198D+02 0.934934875703599D+01 0.843486077744460D+00 0.237298662399389D+02
 0.308007004052675D+03 -.187557983456345D+03 0.707197875208227D+02 -.233856855876204D+03
0.109172033929D-03 0.000000000000D+00 0.000000000000D+00 0.155223143803D-05 0.000000000000D+00  6 -1 2 25 24 21 21 2 0.44341322D-01 0.66929347D-01 0.64895110D+05 0.64895110D+05 0.64895110D+05 0.11812269D+01  1  2  2  1  6  1       -1 0.651481973696D-02 0.100000000000D+01
-.937690416561D-05 0.576116650954D-05 -.419249355944D-06 0.155223143803D-05 0.000000000000D+00  6 -1 2 25 24 21 21 4 0.44341322D-01 0.66929347D-01 0.64895110D+05 0.64895110D+05 0.64895110D+05 0.11812269D+01  1  2  3  1  6  1       -1 -.780759305153D-03 0.100000000000D+01
0.501417645594D-05 0.000000000000D+00 0.000000000000D+00 0.155223143803D-05 0.000000000000D+00  6 -1 2 25 24 21 21 4 0.44341322D-01 0.66929347D-01 0.64895110D+05 0.64895110D+05 0.64895110D+05 0.11812269D+01  1  2 15  1  6  1       -1 0.417500793067D-03 0.100000000000D+01
0.334764691672D-02 0.000000000000D+00 0.000000000000D+00 0.154782090610D-05 0.000000000000D+00  6 -1 2 25 24 21 21 4 0.47503119D-01 0.66929347D-01 0.67561936D+05 0.67561936D+05 0.67561936D+05 0.11795476D+01  1  2 12  1  6  1       -1 0.244357982161D+00 0.100000000000D+01
-.294196689450D-02 0.000000000000D+00 0.000000000000D+00 0.155223143803D-05 0.000000000000D+00  6 -1 2 25 24 21 21 4 0.44341322D-01 0.66929347D-01 0.64895110D+05 0.64895110D+05 0.64895110D+05 0.11812269D+01  1  2  4  1  6  1       -1 -.244960168918D+00 0.100000000000D+01
-.521234465459D-02 0.000000000000D+00 -.304134529682D-03 0.155223143803D-05 0.000000000000D+00  6 -1 2 25 24 21 21 4 0.47498529D-01 0.66929347D-01 0.64895110D+05 0.64895110D+05 0.64895110D+05 0.11812269D+01  1  2  5  1  6  1       -1 -.382858802261D+00 0.100000000000D+01
0.522162512519D-02 0.000000000000D+00 0.303416526178D-03 0.155223143803D-05 0.000000000000D+00  6 -1 2 25 24 21 21 4 0.44341322D-01 0.66929347D-01 0.64895110D+05 0.64895110D+05 0.64895110D+05 0.11812269D+01  1  2  6  1  6  1       -1 0.434773815804D+00 0.100000000000D+01
0.823784357596D-07 0.000000000000D+00 0.000000000000D+00 0.155223143803D-05 0.574881087152D-07  6 -1 2 25 24 21 21 4 0.47428764D-01 0.67104327D-01 0.67561936D+05 0.67561936D+05 0.67561936D+05 0.11795476D+01  1  2 11  1  6  1       -1 0.601311195190D-05 0.100000000000D+01
0.481400364837D-04 0.000000000000D+00 0.000000000000D+00 0.154782090610D-05 0.000000000000D+00  6 21 2 25 24 1 21 4 0.47503119D-01 0.66929347D-01 0.67561936D+05 0.67561936D+05 0.67561936D+05 0.11795476D+01  3  4 12  4  5  1       -1 0.351195012484D-01 0.100000000000D+01
-.612376123308D-04 0.000000000000D+00 -.354803664385D-05 0.155223143803D-05 0.000000000000D+00  6 21 2 25 24 1 21 4 0.47498529D-01 0.66929347D-01 0.64895110D+05 0.64895110D+05 0.64895110D+05 0.11812269D+01  3  4  5  4  5  1       -1 -.450042849513D-01 0.100000000000D+01
0.106589070976D-08 0.000000000000D+00 0.000000000000D+00 0.155223143803D-05 0.147655794241D-08  6 21 2 25 24 1 21 4 0.47428764D-01 0.67104327D-01 0.67561936D+05 0.67561936D+05 0.67561936D+05 0.11795476D+01  3  4 11  4  5  1       -1 0.777898986993D-06 0.100000000000D+01
  </mgrwgt>
  </event>
  <event>
  5     66 0.43535451E-03 0.20210485E+02 0.75467711E-02 0.12449283E+00
       -3 -1    0    0    0  501 0.00000000E+00 0.00000000E+00 0.55535338E+02 0.55537589E+02 0.50000000E+00 0.0000E+00 0.9000E+01
        4 -1    0    0  502    0 -.00000000E+00 -.00000000E+00 -.29142891E+03 0.29143303E+03 0.15500000E+01 0.0000E+00 0.9000E+01
       25  1    1    2    0    0 0.23190196E+02 0.74071943E+01 -.12866685E+03 0.18103262E+03 0.12500000E+03 0.0000E+00 0.9000E+01
       24  1    1    2    0    0 -.40855739E+02 0.24022077E+01 -.11328489E+03 0.14482971E+03 0.80419002E+02 0.0000E+00 0.9000E+01
       21  1    1    2  502  501 0.17665543E+02 -.98094020E+01 0.60581747E+01 0.21108287E+02 0.75000000E+00 0.0000E+00 0.9000E+01
#aMCatNLO 1  0  0  5  2 0.46315090D+01 0.00000000D+00  -5  6  0 0.00000000D+00 0.00000000D+00 0.00000000D+00 0.00000000D+00 0.00000000D+00
  <mgrwgt>
 0.1306903491D+00    9    2    0
 0.127223066414953D+03 0.000000000000000D+00 0.000000000000000D+00 0.127223066414953D+03
 0.127223066414953D+03 -.000000000000000D+00 -.000000000000000D+00 -.127223066414953D+03
 0.127576270111837D+03 0.231880900666831D+02 0.740836363235857D+01 -.762452116520090D+01
 0.924706031315313D+02 -.408572655965676D+02 0.240305525946325D+01 -.202115230136209D+02
 0.343992595865374D+02 0.176691755298845D+02 -.981141889182180D+01 0.278360441788217D+02
 0.000000000000000D+00 0.000000000000000D+00 0.000000000000000D+00 -.000000000000000D+00
 0.127223066414953D+03 0.000000000000000D+00 0.000000000000000D+00 0.127223066414953D+03
 0.127223066414953D+03 -.000000000000000D+00 -.000000000000000D+00 -.127223066414953D+03
 0.127954621484753D+03 0.267080133801399D+02 0.545380485642685D+01 -.207922898709510D+01
 0.905626412277751D+02 -.383359931980231D+02 0.100303183445005D+01 -.162395069026243D+02
 0.728751339728777D+01 -.113951304217708D+01 0.587461918479757D+01 -.415911180133039D+01
 0.286413567200897D+02 0.127674928600603D+02 -.123314558756745D+02 0.224778476910497D+02
0.969613017287D-03 0.000000000000D+00 0.000000000000D+00 0.644431159816D-04 0.000000000000D+00  6 -3 4 25 24 21 21 2 0.85443884D-02 0.44835707D-01 0.14136431D+05 0.14136431D+05 0.14136431D+05 0.12507690D+01  1  2  2  3  6  5       21 0.133639109978D+00 0.100000000000D+01
0.141413248956D-03 0.511678846805D-04 -.372356929135D-05 0.644431159816D-04 0.000000000000D+00  6 -3 4 25 24 21 21 4 0.85443884D-02 0.44835707D-01 0.14136431D+05 0.14136431D+05 0.14136431D+05 0.12507690D+01  1  2  3  3  6  5       21 0.304915447600D-01 0.100000000000D+01
0.452454550994D-04 0.000000000000D+00 0.000000000000D+00 0.644431159816D-04 0.000000000000D+00  6 -3 4 25 24 21 21 4 0.85443884D-02 0.44835707D-01 0.14136431D+05 0.14136431D+05 0.14136431D+05 0.12507690D+01  1  2 15  3  6  5       21 0.975583143402D-02 0.100000000000D+01
0.434428937904D-04 0.000000000000D+00 0.000000000000D+00 0.643156483388D-04 0.000000000000D+00  6 -3 4 25 24 21 21 4 0.85443884D-02 0.44835707D-01 0.14492173D+05 0.14492173D+05 0.14492173D+05 0.12495313D+01  1  2 12  3  6  5       21 0.935241783704D-02 0.100000000000D+01
-.256297660023D-03 0.000000000000D+00 0.000000000000D+00 0.644431159816D-04 0.000000000000D+00  6 -3 4 25 24 21 21 4 0.85443884D-02 0.44835707D-01 0.14136431D+05 0.14136431D+05 0.14136431D+05 0.12507690D+01  1  2  4  3  6  5       21 -.552629377389D-01 0.100000000000D+01
0.315214330725D-05 0.000000000000D+00 0.000000000000D+00 0.643156483388D-04 0.000000000000D+00  6 -3 4 25 24 3 -3 4 0.85443884D-02 0.44835707D-01 0.14492173D+05 0.14492173D+05 0.14492173D+05 0.12495313D+01  1  2 12  6  6  5       21 0.678595708517D-03 0.100000000000D+01
0.315214330725D-05 0.000000000000D+00 0.000000000000D+00 0.643156483388D-04 0.000000000000D+00  6 -3 4 25 24 4 -4 4 0.85443884D-02 0.44835707D-01 0.14492173D+05 0.14492173D+05 0.14492173D+05 0.12495313D+01  1  2 12  7  6  5       21 0.678595708517D-03 0.100000000000D+01
0.315214330725D-05 0.000000000000D+00 0.000000000000D+00 0.643156483388D-04 0.000000000000D+00  6 -3 4 25 24 1 -1 4 0.85443884D-02 0.44835707D-01 0.14492173D+05 0.14492173D+05 0.14492173D+05 0.12495313D+01  1  2 12  8  6  5       21 0.678595708517D-03 0.100000000000D+01
0.315214330725D-05 0.000000000000D+00 0.000000000000D+00 0.643156483388D-04 0.000000000000D+00  6 -3 4 25 24 2 -2 4 0.85443884D-02 0.44835707D-01 0.14492173D+05 0.14492173D+05 0.14492173D+05 0.12495313D+01  1  2 12  8  6  5       21 0.678595708517D-03 0.100000000000D+01
  </mgrwgt>
  </event>
  <event>
  5     66 0.43535451E-03 0.64557427E+02 0.75467711E-02 0.11913311E+00
       -1 -1    0    0    0  501 0.00000000E+00 0.00000000E+00 0.15789022E+03 0.15789054E+03 0.32000000E+00 0.0000E+00 0.9000E+01
        2 -1    0    0  502    0 -.00000000E+00 -.00000000E+00 -.49951155E+03 0.49951165E+03 0.32000000E+00 0.0000E+00 0.9000E+01
       25  1    1    2    0    0 -.28448018E+02 0.16290661E-01 0.35101720E+02 0.13291509E+03 0.12500000E+03 0.0000E+00 0.9000E+01
       24  1    1    2    0    0 0.71609683E+02 -.51535435E+02 0.20925575E+02 0.12119795E+03 0.80419002E+02 0.0000E+00 0.9000E+01
       21  1    1    2  502  501 -.43161665E+02 0.51519145E+02 -.39764862E+03 0.40328915E+03 0.75000000E+00 0.0000E+00 0.9000E+01
#aMCatNLO 1  0  0  5  1 0.29687805D+01 0.00000000D+00  -5  6  0 0.00000000D+00 0.00000000D+00 0.00000000D+00 0.00000000D+00 0.00000000D+00
  <mgrwgt>
 0.1964237372D+00   25    2    0
 0.280834699016229D+03 0.000000000000000D+00 0.000000000000000D+00 0.280834699016229D+03
 0.280834699016229D+03 -.000000000000000D+00 -.000000000000000D+00 -.280834699016229D+03
 0.176919560479633D+03 -.284479456178972D+02 0.162045074113449D-01 0.121927211925155D+03
 0.154583047246665D+03 0.716097456685905D+02 -.515355107124683D+02 0.982081361322932D+02
 0.230166790306161D+03 -.431618000506934D+02 0.515193062050570D+02 -.220135348057448D+03
 0.000000000000000D+00 -.000000000000000D+00 0.000000000000000D+00 0.000000000000000D+00
 0.280834699016229D+03 0.000000000000000D+00 0.000000000000000D+00 0.280834699016229D+03
 0.280834699016229D+03 -.000000000000000D+00 -.000000000000000D+00 -.280834699016229D+03
 0.176876314213756D+03 -.284608419208440D+02 0.315979474358452D-01 0.121861437742092D+03
 0.154536838095395D+03 0.715984778614356D+02 -.515220610971513D+02 0.981506676614004D+02
 0.207800035460796D+03 -.363553757526650D+02 0.479145316912527D+02 -.198905351974749D+03
 0.224562102625116D+02 -.678226018792662D+01 0.357593145846272D+01 -.211067534287434D+02
0.705961787422D-04 0.000000000000D+00 0.000000000000D+00 0.136762891393D-04 0.000000000000D+00  6 -1 2 25 24 21 21 2 0.24290836D-01 0.76847963D-01 0.24772263D+05 0.24772263D+05 0.24772263D+05 0.12237240D+01  1  2  2  3  6  5       21 0.109578730869D-01 0.100000000000D+01
0.180891310948D-05 0.372546270353D-05 -.271107914771D-06 0.136762891393D-04 0.000000000000D+00  6 -1 2 25 24 21 21 4 0.24290836D-01 0.76847963D-01 0.24772263D+05 0.24772263D+05 0.24772263D+05 0.12237240D+01  1  2  3  3  6  5       21 0.420464865557D-03 0.100000000000D+01
0.388381515953D-05 0.000000000000D+00 0.000000000000D+00 0.136762891393D-04 0.000000000000D+00  6 -1 2 25 24 21 21 4 0.24290836D-01 0.76847963D-01 0.24772263D+05 0.24772263D+05 0.24772263D+05 0.12237240D+01  1  2 15  3  6  5       21 0.902756362559D-03 0.100000000000D+01
0.147362033109D-03 0.000000000000D+00 0.000000000000D+00 0.136723663131D-04 0.000000000000D+00  6 -1 2 25 24 21 21 4 0.24290836D-01 0.76847963D-01 0.24865739D+05 0.24865739D+05 0.24865739D+05 0.12235485D+01  1  2 12  3  6  5       21 0.342337954073D-01 0.100000000000D+01
0.134290932457D-03 0.000000000000D+00 0.000000000000D+00 0.136723663131D-04 0.000000000000D+00  6 -1 2 25 24 21 21 4 0.24290836D-01 0.76847963D-01 0.24865739D+05 0.24865739D+05 0.24865739D+05 0.12235485D+01  1  2 12  3  6  5       21 0.311972372380D-01 0.100000000000D+01
-.182744983370D-01 0.000000000000D+00 0.000000000000D+00 0.136762891393D-04 0.000000000000D+00  6 -1 2 25 24 21 21 4 0.24290836D-01 0.76847963D-01 0.24772263D+05 0.24772263D+05 0.24772263D+05 0.12237240D+01  1  2  4  3  6  5       21 -.424773553030D+01 0.100000000000D+01
-.208001218968D-01 0.000000000000D+00 0.000000000000D+00 0.136762891393D-04 0.000000000000D+00  6 -1 2 25 24 21 21 4 0.24290836D-01 0.76847963D-01 0.24772263D+05 0.24772263D+05 0.24772263D+05 0.12237240D+01  1  2  5  3  6  5       21 -.483479300973D+01 0.100000000000D+01
0.228576088110D-01 0.000000000000D+00 -.000000000000D+00 0.136762891393D-04 0.000000000000D+00  6 -1 2 25 24 21 21 4 0.24290836D-01 0.76847963D-01 0.24772263D+05 0.24772263D+05 0.24772263D+05 0.12237240D+01  1  2  6  3  6  5       21 0.531303652194D+01 0.100000000000D+01
0.167418855479D-01 0.000000000000D+00 0.000000000000D+00 0.136762891393D-04 0.987438011231D-05  6 -1 2 25 24 21 21 4 0.24290836D-01 0.76847963D-01 0.24865739D+05 0.24865739D+05 0.24865739D+05 0.12235485D+01  1  2 11  3  6  5       21 0.388932123483D+01 0.100000000000D+01
0.118871524858D-05 0.000000000000D+00 0.000000000000D+00 0.136723663131D-04 0.000000000000D+00  6 -1 2 25 24 1 -1 4 0.24290836D-01 0.76847963D-01 0.24865739D+05 0.24865739D+05 0.24865739D+05 0.12235485D+01  1  2 12  6  6  5       21 0.276151419459D-03 0.100000000000D+01
0.115484306612D-05 0.000000000000D+00 0.000000000000D+00 0.136723663131D-04 0.000000000000D+00  6 -1 2 25 24 1 -1 4 0.24290836D-01 0.76847963D-01 0.24865739D+05 0.24865739D+05 0.24865739D+05 0.12235485D+01  1  2 12  6  6  5       21 0.268282544826D-03 0.100000000000D+01
-.164024480375D-03 0.000000000000D+00 0.000000000000D+00 0.136762891393D-04 0.000000000000D+00  6 -1 2 25 24 1 -1 4 0.24290836D-01 0.76847963D-01 0.24772263D+05 0.24772263D+05 0.24772263D+05 0.12237240D+01  1  2  5  6  6  5       21 -.381259501784D-01 0.100000000000D+01
0.159484165387D-03 0.000000000000D+00 0.000000000000D+00 0.136762891393D-04 0.177272915386D-06  6 -1 2 25 24 1 -1 4 0.24290836D-01 0.76847963D-01 0.24865739D+05 0.24865739D+05 0.24865739D+05 0.12235485D+01  1  2 11  6  6  5       21 0.370498979512D-01 0.100000000000D+01
0.118871524858D-05 0.000000000000D+00 0.000000000000D+00 0.136723663131D-04 0.000000000000D+00  6 -1 2 25 24 2 -2 4 0.24290836D-01 0.76847963D-01 0.24865739D+05 0.24865739D+05 0.24865739D+05 0.12235485D+01  1  2 12  7  6  5       21 0.276151419459D-03 0.100000000000D+01
0.115484306612D-05 0.000000000000D+00 0.000000000000D+00 0.136723663131D-04 0.000000000000D+00  6 -1 2 25 24 2 -2 4 0.24290836D-01 0.76847963D-01 0.24865739D+05 0.24865739D+05 0.24865739D+05 0.12235485D+01  1  2 12  7  6  5       21 0.268282544826D-03 0.100000000000D+01
-.164024480375D-03 0.000000000000D+00 0.000000000000D+00 0.136762891393D-04 0.000000000000D+00  6 -1 2 25 24 2 -2 4 0.24290836D-01 0.76847963D-01 0.24772263D+05 0.24772263D+05 0.24772263D+05 0.12237240D+01  1  2  5  7  6  5       21 -.381259501784D-01 0.100000000000D+01
0.163477956676D-03 0.000000000000D+00 0.000000000000D+00 0.136762891393D-04 0.182182595650D-06  6 -1 2 25 24 2 -2 4 0.24290836D-01 0.76847963D-01 0.24865739D+05 0.24865739D+05 0.24865739D+05 0.12235485D+01  1  2 11  7  6  5       21 0.379776988984D-01 0.100000000000D+01
0.118871524858D-05 0.000000000000D+00 0.000000000000D+00 0.136723663131D-04 0.000000000000D+00  6 -1 2 25 24 3 -3 4 0.24290836D-01 0.76847963D-01 0.24865739D+05 0.24865739D+05 0.24865739D+05 0.12235485D+01  1  2 12  8  6  5       21 0.276151419459D-03 0.100000000000D+01
0.118871524858D-05 0.000000000000D+00 0.000000000000D+00 0.136723663131D-04 0.000000000000D+00  6 -1 2 25 24 4 -4 4 0.24290836D-01 0.76847963D-01 0.24865739D+05 0.24865739D+05 0.24865739D+05 0.12235485D+01  1  2 12  8  6  5       21 0.276151419459D-03 0.100000000000D+01
0.115484306612D-05 0.000000000000D+00 0.000000000000D+00 0.136723663131D-04 0.000000000000D+00  6 -1 2 25 24 3 -3 4 0.24290836D-01 0.76847963D-01 0.24865739D+05 0.24865739D+05 0.24865739D+05 0.12235485D+01  1  2 12  8  6  5       21 0.268282544826D-03 0.100000000000D+01
0.115484306612D-05 0.000000000000D+00 0.000000000000D+00 0.136723663131D-04 0.000000000000D+00  6 -1 2 25 24 4 -4 4 0.24290836D-01 0.76847963D-01 0.24865739D+05 0.24865739D+05 0.24865739D+05 0.12235485D+01  1  2 12  8  6  5       21 0.268282544826D-03 0.100000000000D+01
-.164024480375D-03 0.000000000000D+00 0.000000000000D+00 0.136762891393D-04 0.000000000000D+00  6 -1 2 25 24 3 -3 4 0.24290836D-01 0.76847963D-01 0.24772263D+05 0.24772263D+05 0.24772263D+05 0.12237240D+01  1  2  5  8  6  5       21 -.381259501784D-01 0.100000000000D+01
-.164024480375D-03 0.000000000000D+00 0.000000000000D+00 0.136762891393D-04 0.000000000000D+00  6 -1 2 25 24 4 -4 4 0.24290836D-01 0.76847963D-01 0.24772263D+05 0.24772263D+05 0.24772263D+05 0.12237240D+01  1  2  5  8  6  5       21 -.381259501784D-01 0.100000000000D+01
0.159658642006D-03 0.000000000000D+00 0.000000000000D+00 0.136762891393D-04 0.177420156776D-06  6 -1 2 25 24 3 -3 4 0.24290836D-01 0.76847963D-01 0.24865739D+05 0.24865739D+05 0.24865739D+05 0.12235485D+01  1  2 11  8  6  5       21 0.370904307585D-01 0.100000000000D+01
0.159658642006D-03 0.000000000000D+00 0.000000000000D+00 0.136762891393D-04 0.177420156776D-06  6 -1 2 25 24 4 -4 4 0.24290836D-01 0.76847963D-01 0.24865739D+05 0.24865739D+05 0.24865739D+05 0.12235485D+01  1  2 11  8  6  5       21 0.370904307585D-01 0.100000000000D+01
  </mgrwgt>
  </event>
  <event>
  5     66 -.43535451E-03 0.22422381E+02 0.75467711E-02 0.11760563E+00
       -1 -1    0    0    0  501 0.00000000E+00 0.00000000E+00 0.26345344E+02 0.26347288E+02 0.32000000E+00 0.0000E+00 0.9000E+01
        2 -1    0    0  502    0 -.00000000E+00 -.00000000E+00 -.13652603E+04 0.13652604E+04 0.32000000E+00 0.0000E+00 0.9000E+01
       25  1    1    2    0    0 0.12112355E+03 -.40898399E+02 -.98017280E+03 0.99634699E+03 0.12500000E+03 0.0000E+00 0.9000E+01
       24  1    1    2    0    0 -.11574993E+03 0.19141333E+02 -.29097035E+03 0.32387559E+03 0.80419002E+02 0.0000E+00 0.9000E+01
       21  1    1    2  502  501 -.53736214E+01 0.21757067E+02 -.67771834E+02 0.71385080E+02 0.75000000E+00 0.0000E+00 0.9000E+01
#aMCatNLO 1  0  0  5  1 0.17492838D+01 0.00000000D+00  -5  6  0 0.00000000D+00 0.00000000D+00 0.00000000D+00 0.00000000D+00 0.00000000D+00
  <mgrwgt>
 -.2101468229D+01   20    2    0
 0.189656615422935D+03 0.000000000000000D+00 0.000000000000000D+00 0.189656615422935D+03
 0.189656615422935D+03 -.000000000000000D+00 -.000000000000000D+00 -.189656615422935D+03
 0.195503403247326D+03 0.121125067983822D+03 -.409045409633709D+02 -.790703301863398D+02
 0.161139858030228D+03 -.115748679419877D+03 0.191362704034485D+02 0.757290186073491D+02
 0.226699695683165D+02 -.537638856394453D+01 0.217682705599224D+02 0.334131157899065D+01
 0.000000000000000D+00 -.000000000000000D+00 0.000000000000000D+00 0.000000000000000D+00
 0.189656615422935D+03 0.000000000000000D+00 0.000000000000000D+00 0.189656615422935D+03
 0.189656615422935D+03 -.000000000000000D+00 -.000000000000000D+00 -.189656615422935D+03
 0.195358106880954D+03 0.121040338371185D+03 -.405614822148477D+02 -.790176725273145D+02
 0.161244307087327D+03 -.115818564749394D+03 0.194192266561444D+02 0.757724508589319D+02
 0.199184615612548D+02 -.337220659610643D+01 0.192095095006689D+02 0.404574818594415D+01
 0.279235531633511D+01 -.184956702568423D+01 0.193274605803434D+01 -.800526517561568D+00
0.225484155357D-03 0.000000000000D+00 0.000000000000D+00 0.290620810082D-04 0.000000000000D+00  6 -1 2 25 24 21 21 2 0.40532823D-02 0.21004020D+00 0.29490980D+05 0.29490980D+05 0.29490980D+05 0.12156792D+01  1  2  2  3  6  5       21 0.146400792988D+00 0.100000000000D+01
0.657424945333D-04 0.118991257882D-04 -.865918527911D-06 0.290620810082D-04 0.000000000000D+00  6 -1 2 25 24 21 21 4 0.40532823D-02 0.21004020D+00 0.29490980D+05 0.29490980D+05 0.29490980D+05 0.12156792D+01  1  2  3  3  6  5       21 0.630828847841D-01 0.100000000000D+01
0.537871490436D-05 0.000000000000D+00 0.000000000000D+00 0.290620810082D-04 0.000000000000D+00  6 -1 2 25 24 21 21 4 0.40532823D-02 0.21004020D+00 0.29490980D+05 0.29490980D+05 0.29490980D+05 0.12156792D+01  1  2 15  3  6  5       21 0.516111922748D-02 0.100000000000D+01
0.171384124669D-07 0.000000000000D+00 0.000000000000D+00 0.290656987075D-04 0.000000000000D+00  6 -1 2 25 24 21 21 4 0.40532823D-02 0.21004020D+00 0.29442169D+05 0.29442169D+05 0.29442169D+05 0.12157549D+01  1  2 12  3  6  5       21 0.164489059485D-04 0.100000000000D+01
0.172262670399D-07 0.000000000000D+00 0.000000000000D+00 0.290656987075D-04 0.000000000000D+00  6 -1 2 25 24 21 21 4 0.40532823D-02 0.21004020D+00 0.29442169D+05 0.29442169D+05 0.29442169D+05 0.12157549D+01  1  2 12  3  6  5       21 0.165332259875D-04 0.100000000000D+01
-.297911374810D-02 0.000000000000D+00 0.000000000000D+00 0.290620810082D-04 0.000000000000D+00  6 -1 2 25 24 21 21 4 0.40532823D-02 0.21004020D+00 0.29490980D+05 0.29490980D+05 0.29490980D+05 0.12156792D+01  1  2  4  3  6  5       21 -.285859383134D+01 0.100000000000D+01
-.199025412774D-02 0.000000000000D+00 0.000000000000D+00 0.290620810082D-04 0.000000000000D+00  6 -1 2 25 24 21 21 4 0.40532823D-02 0.21004020D+00 0.29490980D+05 0.29490980D+05 0.29490980D+05 0.12156792D+01  1  2  5  3  6  5       21 -.190973848380D+01 0.100000000000D+01
0.263144469307D-02 0.000000000000D+00 -.000000000000D+00 0.290620810082D-04 0.000000000000D+00  6 -1 2 25 24 21 21 4 0.40532823D-02 0.21004020D+00 0.29490980D+05 0.29490980D+05 0.29490980D+05 0.12156792D+01  1  2  6  3  6  5       21 0.252498971277D+01 0.100000000000D+01
0.495711055244D-08 0.000000000000D+00 0.000000000000D+00 0.290656987075D-04 0.000000000000D+00  6 -1 2 25 24 1 -1 4 0.40532823D-02 0.21004020D+00 0.29442169D+05 0.29442169D+05 0.29442169D+05 0.12157549D+01  1  2 12  6  6  5       21 0.475767784273D-05 0.100000000000D+01
0.496661173436D-08 0.000000000000D+00 0.000000000000D+00 0.290656987075D-04 0.000000000000D+00  6 -1 2 25 24 1 -1 4 0.40532823D-02 0.21004020D+00 0.29442169D+05 0.29442169D+05 0.29442169D+05 0.12157549D+01  1  2 12  6  6  5       21 0.476679677648D-05 0.100000000000D+01
-.189781354494D-04 0.000000000000D+00 0.000000000000D+00 0.290620810082D-04 0.000000000000D+00  6 -1 2 25 24 1 -1 4 0.40532823D-02 0.21004020D+00 0.29490980D+05 0.29490980D+05 0.29490980D+05 0.12156792D+01  1  2  5  6  6  5       21 -.182103758074D-01 0.100000000000D+01
0.495711055244D-08 0.000000000000D+00 0.000000000000D+00 0.290656987075D-04 0.000000000000D+00  6 -1 2 25 24 2 -2 4 0.40532823D-02 0.21004020D+00 0.29442169D+05 0.29442169D+05 0.29442169D+05 0.12157549D+01  1  2 12  7  6  5       21 0.475767784273D-05 0.100000000000D+01
0.496661173436D-08 0.000000000000D+00 0.000000000000D+00 0.290656987075D-04 0.000000000000D+00  6 -1 2 25 24 2 -2 4 0.40532823D-02 0.21004020D+00 0.29442169D+05 0.29442169D+05 0.29442169D+05 0.12157549D+01  1  2 12  7  6  5       21 0.476679677648D-05 0.100000000000D+01
-.189781354494D-04 0.000000000000D+00 0.000000000000D+00 0.290620810082D-04 0.000000000000D+00  6 -1 2 25 24 2 -2 4 0.40532823D-02 0.21004020D+00 0.29490980D+05 0.29490980D+05 0.29490980D+05 0.12156792D+01  1  2  5  7  6  5       21 -.182103758074D-01 0.100000000000D+01
0.495711055244D-08 0.000000000000D+00 0.000000000000D+00 0.290656987075D-04 0.000000000000D+00  6 -1 2 25 24 3 -3 4 0.40532823D-02 0.21004020D+00 0.29442169D+05 0.29442169D+05 0.29442169D+05 0.12157549D+01  1  2 12  8  6  5       21 0.475767784273D-05 0.100000000000D+01
0.495711055244D-08 0.000000000000D+00 0.000000000000D+00 0.290656987075D-04 0.000000000000D+00  6 -1 2 25 24 4 -4 4 0.40532823D-02 0.21004020D+00 0.29442169D+05 0.29442169D+05 0.29442169D+05 0.12157549D+01  1  2 12  8  6  5       21 0.475767784273D-05 0.100000000000D+01
0.496661173436D-08 0.000000000000D+00 0.000000000000D+00 0.290656987075D-04 0.000000000000D+00  6 -1 2 25 24 3 -3 4 0.40532823D-02 0.21004020D+00 0.29442169D+05 0.29442169D+05 0.29442169D+05 0.12157549D+01  1  2 12  8  6  5       21 0.476679677648D-05 0.100000000000D+01
0.496661173436D-08 0.000000000000D+00 0.000000000000D+00 0.290656987075D-04 0.000000000000D+00  6 -1 2 25 24 4 -4 4 0.40532823D-02 0.21004020D+00 0.29442169D+05 0.29442169D+05 0.29442169D+05 0.12157549D+01  1  2 12  8  6  5       21 0.476679677648D-05 0.100000000000D+01
-.189781354494D-04 0.000000000000D+00 0.000000000000D+00 0.290620810082D-04 0.000000000000D+00  6 -1 2 25 24 3 -3 4 0.40532823D-02 0.21004020D+00 0.29490980D+05 0.29490980D+05 0.29490980D+05 0.12156792D+01  1  2  5  8  6  5       21 -.182103758074D-01 0.100000000000D+01
-.189781354494D-04 0.000000000000D+00 0.000000000000D+00 0.290620810082D-04 0.000000000000D+00  6 -1 2 25 24 4 -4 4 0.40532823D-02 0.21004020D+00 0.29490980D+05 0.29490980D+05 0.29490980D+05 0.12156792D+01  1  2  5  8  6  5       21 -.182103758074D-01 0.100000000000D+01
  </mgrwgt>
  </event>
  <event>
  5     66 0.43535451E-03 0.37558145E+02 0.75467711E-02 0.11832888E+00
       -1 -1    0    0    0  501 0.00000000E+00 0.00000000E+00 0.32135884E+02 0.32137477E+02 0.32000000E+00 0.0000E+00 0.9000E+01
        2 -1    0    0  502    0 0.00000000E+00 0.00000000E+00 -.96908597E+03 0.96908602E+03 0.32000000E+00 0.0000E+00 0.9000E+01
       25  1    1    2    0    0 -.48911161E+02 -.92572618E+02 -.36551222E+03 0.40023265E+03 0.12500000E+03 0.0000E+00 0.9000E+01
       24  1    1    2    0    0 0.18927705E+02 0.69958150E+02 -.54350144E+03 0.55417816E+03 0.80419002E+02 0.0000E+00 0.9000E+01
       21  1    1    2  502  501 0.29983456E+02 0.22614468E+02 -.27936432E+02 0.46812696E+02 0.75000000E+00 0.0000E+00 0.9000E+01
#aMCatNLO 1  0  0  2  5 0.20941583D+02 0.00000000D+00  -5  6  0 0.00000000D+00 0.00000000D+00 0.00000000D+00 0.00000000D+00 0.00000000D+00
  <mgrwgt>
 0.5484414757D+00    9    4    0
 0.176474525172338D+03 0.000000000000000D+00 0.000000000000000D+00 0.176474525172338D+03
 0.176474525172338D+03 0.000000000000000D+00 0.000000000000000D+00 -.176474525172338D+03
 0.165054490077733D+03 -.489123081356811D+02 -.925734829886093D+02 0.256070508848337D+02
 0.129261033173726D+03 0.189268065260790D+02 0.699574722578279D+02 -.706323354617995D+02
 0.586335270932170D+02 0.299855016096021D+02 0.226160107307814D+02 0.450252845769658D+02
 0.000000000000000D+00 0.000000000000000D+00 -.000000000000000D+00 -.000000000000000D+00
 0.182088927149404D+03 0.000000000000000D+00 0.000000000000000D+00 0.182088927149404D+03
 0.197455436018590D+03 0.000000000000000D+00 0.000000000000000D+00 -.197455436018590D+03
 0.166660557527120D+03 -.583813034994811D+02 -.899257681753873D+02 0.256070508848337D+02
 0.129524625432697D+03 0.115396221964698D+02 0.720230723163392D+02 -.706323354617995D+02
 0.573845867461090D+02 0.266736983314763D+02 0.235420551801740D+02 0.450252845769658D+02
 0.259745934620677D+02 0.201679829715349D+02 -.563935932112586D+01 -.153665088691868D+02
 0.176474525172338D+03 0.000000000000000D+00 0.000000000000000D+00 0.176474525172338D+03
 0.176474525172338D+03 0.000000000000000D+00 0.000000000000000D+00 -.176474525172338D+03
 0.165054490077733D+03 -.489123081356811D+02 -.925734829886093D+02 0.256070508848337D+02
 0.129261033173726D+03 0.189268065260790D+02 0.699574722578279D+02 -.706323354617995D+02
 0.000000000000000D+00 0.000000000000000D+00 -.000000000000000D+00 -.000000000000000D+00
 0.586335270932170D+02 0.299855016096021D+02 0.226160107307814D+02 0.450252845769658D+02
 0.182088927149404D+03 0.000000000000000D+00 0.000000000000000D+00 0.182088927149404D+03
 0.197455436018590D+03 0.000000000000000D+00 0.000000000000000D+00 -.197455436018590D+03
 0.166660557527120D+03 -.583813034994811D+02 -.899257681753873D+02 0.256070508848337D+02
 0.129524625432697D+03 0.115396221964698D+02 0.720230723163392D+02 -.706323354617995D+02
 0.259745934620677D+02 0.201679829715349D+02 -.563935932112586D+01 -.153665088691868D+02
 0.573845867461090D+02 0.266736983314763D+02 0.235420551801740D+02 0.450252845769658D+02
0.158317553730D-03 0.000000000000D+00 0.000000000000D+00 0.133224638122D-04 0.000000000000D+00  6 -1 2 25 24 21 21 2 0.49441087D-02 0.14909028D+00 0.23850284D+05 0.23850284D+05 0.23850284D+05 0.12254958D+01  1  2  2  2  6  2        2 0.130172951575D+00 0.100000000000D+01
0.980476884800D-05 0.835464684131D-05 -.607981092294D-06 0.133224638122D-04 0.000000000000D+00  6 -1 2 25 24 21 21 4 0.49441087D-02 0.14909028D+00 0.23850284D+05 0.23850284D+05 0.23850284D+05 0.12254958D+01  1  2  3  2  6  2        2 0.121074512338D-01 0.100000000000D+01
0.785219592014D-05 0.000000000000D+00 0.000000000000D+00 0.133224638122D-04 0.000000000000D+00  6 -1 2 25 24 21 21 4 0.49441087D-02 0.14909028D+00 0.23850284D+05 0.23850284D+05 0.23850284D+05 0.12254958D+01  1  2 15  2  6  2        2 0.969631009714D-02 0.100000000000D+01
0.707077502695D-03 0.000000000000D+00 0.000000000000D+00 0.131905062355D-04 0.000000000000D+00  6 -1 2 25 24 21 21 4 0.49441087D-02 0.17466060D+00 0.27187265D+05 0.27187265D+05 0.27187265D+05 0.12194115D+01  1  2 12  2  6  2        2 0.684738718781D+00 0.100000000000D+01
-.586534861143D-03 0.000000000000D+00 0.000000000000D+00 0.133224638122D-04 0.000000000000D+00  6 -1 2 25 24 21 21 4 0.49441087D-02 0.14909028D+00 0.23850284D+05 0.23850284D+05 0.23850284D+05 0.12254958D+01  1  2  4  2  6  2        2 -.724284512799D+00 0.100000000000D+01
-.199468912266D-02 0.000000000000D+00 -.368839182162D-03 0.133224638122D-04 0.000000000000D+00  6 -1 2 25 24 21 21 4 0.49441087D-02 0.16978385D+00 0.23850284D+05 0.23850284D+05 0.23850284D+05 0.12254958D+01  1  2  5  2  6  2        2 -.205091676209D+01 0.100000000000D+01
0.202856367315D-02 0.000000000000D+00 0.365745509726D-03 0.133224638122D-04 0.000000000000D+00  6 -1 2 25 24 21 21 4 0.49441087D-02 0.14909028D+00 0.23850284D+05 0.23850284D+05 0.23850284D+05 0.12254958D+01  1  2  6  2  6  2        2 0.250497855971D+01 0.100000000000D+01
0.168436477943D-04 0.000000000000D+00 0.000000000000D+00 0.131905062355D-04 0.000000000000D+00  6 -1 21 25 24 -2 21 4 0.49441087D-02 0.17466060D+00 0.27187265D+05 0.27187265D+05 0.27187265D+05 0.12194115D+01  3  4 12  5  5  2        2 0.117986635413D-01 0.100000000000D+01
-.384826642232D-04 0.000000000000D+00 -.748099770844D-05 0.133224638122D-04 0.000000000000D+00  6 -1 21 25 24 -2 21 4 0.49441087D-02 0.16978385D+00 0.23850284D+05 0.23850284D+05 0.23850284D+05 0.12254958D+01  3  4  5  5  5  2        2 -.298499043393D-01 0.100000000000D+01
  </mgrwgt>
  </event>
  <event>
  5     66 0.43535451E-03 0.20219110E+02 0.75467711E-02 0.12349020E+00
       -1 -1    0    0    0  501 0.00000000E+00 0.00000000E+00 0.14911605E+02 0.14915038E+02 0.32000000E+00 0.0000E+00 0.9000E+01
        2 -1    0    0  502    0 0.00000000E+00 0.00000000E+00 -.11759926E+04 0.11759926E+04 0.32000000E+00 0.0000E+00 0.9000E+01
       25  1    1    2    0    0 0.13439539E+01 0.37366781E+02 -.68358207E+03 0.69592207E+03 0.12500000E+03 0.0000E+00 0.9000E+01
       24  1    1    2    0    0 0.13036737E+02 -.51574261E+02 -.45331707E+03 0.46345814E+03 0.80419002E+02 0.0000E+00 0.9000E+01
       21  1    1    2  502  501 -.14380691E+02 0.14207480E+02 -.24181834E+02 0.31527454E+02 0.75000000E+00 0.0000E+00 0.9000E+01
#aMCatNLO 1  0  0  1  5 0.29149202D+01 0.00000000D+00  -5  6  0 0.00000000D+00 0.00000000D+00 0.00000000D+00 0.00000000D+00 0.00000000D+00
  <mgrwgt>
 0.2475449633D+00   11    4    0
 0.132431139133406D+03 0.000000000000000D+00 0.000000000000000D+00 0.132431139133406D+03
 0.132431139133406D+03 0.000000000000000D+00 0.000000000000000D+00 -.132431139133406D+03
 0.132464410002378D+03 0.134553700684282D+01 0.373652173531400D+02 -.228877692140132D+02
 0.966474477486289D+02 0.130378921649029D+02 -.515754025207576D+02 -.659578840409594D+01
 0.357504205158060D+02 -.143834291717457D+02 0.142101851676176D+02 0.294835576181091D+02
 0.000000000000000D+00 0.000000000000000D+00 -.000000000000000D+00 0.000000000000000D+00
 0.150556846208670D+03 0.000000000000000D+00 0.000000000000000D+00 0.150556846208670D+03
 0.132556402859191D+03 0.000000000000000D+00 0.000000000000000D+00 -.132556402859191D+03
 0.132810891719379D+03 0.559125891699175D+00 0.385949524930404D+02 -.228877692140132D+02
 0.960978062039031D+02 0.124664970553105D+02 -.506818944923206D+02 -.659578840409594D+01
 0.359696198161315D+02 -.145960439026668D+02 0.145426573324170D+02 0.294835576181091D+02
 0.182349313284470D+02 0.157042095565712D+01 -.245571533313681D+01 0.180004433494792D+02
 0.132431139133406D+03 0.000000000000000D+00 0.000000000000000D+00 0.132431139133406D+03
 0.132431139133406D+03 0.000000000000000D+00 0.000000000000000D+00 -.132431139133406D+03
 0.132464410002378D+03 0.134553700684282D+01 0.373652173531400D+02 -.228877692140132D+02
 0.966474477486289D+02 0.130378921649029D+02 -.515754025207576D+02 -.659578840409594D+01
 0.000000000000000D+00 0.000000000000000D+00 -.000000000000000D+00 0.000000000000000D+00
 0.357504205158060D+02 -.143834291717457D+02 0.142101851676176D+02 0.294835576181091D+02
 0.150556846208670D+03 0.000000000000000D+00 0.000000000000000D+00 0.150556846208670D+03
 0.132556402859191D+03 0.000000000000000D+00 0.000000000000000D+00 -.132556402859191D+03
 0.132810891719379D+03 0.559125891699175D+00 0.385949524930404D+02 -.228877692140132D+02
 0.960978062039031D+02 0.124664970553105D+02 -.506818944923206D+02 -.659578840409594D+01
 0.182349313284470D+02 0.157042095565712D+01 -.245571533313681D+01 0.180004433494792D+02
 0.359696198161315D+02 -.145960439026668D+02 0.145426573324170D+02 0.294835576181091D+02
0.738894044818D-05 0.000000000000D+00 0.000000000000D+00 0.617904967525D-04 0.000000000000D+00  6 -1 2 25 24 21 21 2 0.22943605D-02 0.18092220D+00 0.15266250D+05 0.15266250D+05 0.15266250D+05 0.12469524D+01  1  2  2  1  6  1       -1 0.145051494645D-01 0.100000000000D+01
0.113310534119D-05 0.389925100038D-06 -.283754768737D-07 0.617904967525D-04 0.000000000000D+00  6 -1 2 25 24 21 21 4 0.22943605D-02 0.18092220D+00 0.15266250D+05 0.15266250D+05 0.15266250D+05 0.12469524D+01  1  2  3  1  6  1       -1 0.345867747795D-02 0.100000000000D+01
0.175494760826D-06 0.000000000000D+00 0.000000000000D+00 0.617904967525D-04 0.000000000000D+00  6 -1 2 25 24 21 21 4 0.22943605D-02 0.18092220D+00 0.15266250D+05 0.15266250D+05 0.15266250D+05 0.12469524D+01  1  2 15  1  6  1       -1 0.535678153394D-03 0.100000000000D+01
0.932358822384D-05 0.000000000000D+00 0.000000000000D+00 0.616686307989D-04 0.000000000000D+00  6 -1 2 25 24 21 21 4 0.26561480D-02 0.18092220D+00 0.15651783D+05 0.15651783D+05 0.15651783D+05 0.12457221D+01  1  2 12  1  6  1       -1 0.229545459626D-01 0.100000000000D+01
-.467810659960D-03 0.000000000000D+00 0.000000000000D+00 0.617904967525D-04 0.000000000000D+00  6 -1 2 25 24 21 21 4 0.22943605D-02 0.18092220D+00 0.15266250D+05 0.15266250D+05 0.15266250D+05 0.12469524D+01  1  2  4  1  6  1       -1 -.142793978171D+01 0.100000000000D+01
-.852271997608D-03 0.000000000000D+00 -.118731313050D-04 0.617904967525D-04 0.000000000000D+00  6 -1 2 25 24 21 21 4 0.26102645D-02 0.18092220D+00 0.15266250D+05 0.15266250D+05 0.15266250D+05 0.12469524D+01  1  2  5  1  6  1       -1 -.215898807882D+01 0.100000000000D+01
0.846846030306D-03 0.000000000000D+00 0.117750251930D-04 0.617904967525D-04 0.000000000000D+00  6 -1 2 25 24 21 21 4 0.22943605D-02 0.18092220D+00 0.15266250D+05 0.15266250D+05 0.15266250D+05 0.12469524D+01  1  2  6  1  6  1       -1 0.258490290871D+01 0.100000000000D+01
0.501094738481D-03 0.000000000000D+00 0.000000000000D+00 0.617904967525D-04 0.204905745422D-04  6 -1 2 25 24 21 21 4 0.26083871D-02 0.18109333D+00 0.15651783D+05 0.15651783D+05 0.15651783D+05 0.12457221D+01  1  2 11  1  6  1       -1 0.126473533578D+01 0.100000000000D+01
0.208555938055D-06 0.000000000000D+00 0.000000000000D+00 0.616686307989D-04 0.000000000000D+00  6 21 2 25 24 1 21 4 0.26561480D-02 0.18092220D+00 0.15651783D+05 0.15651783D+05 0.15651783D+05 0.12457221D+01  3  4 12  4  5  1       -1 0.101661245809D-01 0.100000000000D+01
-.171155975533D-04 0.000000000000D+00 -.239313447871D-06 0.617904967525D-04 0.000000000000D+00  6 21 2 25 24 1 21 4 0.26102645D-02 0.18092220D+00 0.15266250D+05 0.15266250D+05 0.15266250D+05 0.12469524D+01  3  4  5  4  5  1       -1 -.861466886979D+00 0.100000000000D+01
0.158502213187D-04 0.000000000000D+00 0.000000000000D+00 0.617904967525D-04 0.129553432573D-05  6 21 2 25 24 1 21 4 0.26083871D-02 0.18109333D+00 0.15651783D+05 0.15651783D+05 0.15651783D+05 0.12457221D+01  3  4 11  4  5  1       -1 0.794681290692D+00 0.100000000000D+01
  </mgrwgt>
  </event>
  <event>
  5     66 0.43535451E-03 0.35893917E+02 0.75467711E-02 0.11031875E+00
       -1 -1    0    0    0  501 0.00000000E+00 0.00000000E+00 0.38788404E+02 0.38789724E+02 0.32000000E+00 0.0000E+00 0.9000E+01
        2 -1    0    0  502    0 -.00000000E+00 -.00000000E+00 -.18423999E+04 0.18423999E+04 0.32000000E+00 0.0000E+00 0.9000E+01
       25  1    1    2    0    0 -.22550800E+03 -.91879743E+02 -.87286624E+03 0.91477659E+03 0.12500000E+03 0.0000E+00 0.9000E+01
       24  1    1    2    0    0 0.19000720E+03 0.86631284E+02 -.82078025E+03 0.85073801E+03 0.80419002E+02 0.0000E+00 0.9000E+01
       21  1    1    2  502  501 0.35500800E+02 0.52484584E+01 -.10996500E+03 0.11567505E+03 0.75000000E+00 0.0000E+00 0.9000E+01
#aMCatNLO 1  0  0  5  2 0.14599564D+02 0.00000000D+00  -5  6  0 0.00000000D+00 0.00000000D+00 0.00000000D+00 0.00000000D+00 0.00000000D+00
  <mgrwgt>
 0.4981568967D+00   14    2    0
 0.267329420997019D+03 0.000000000000000D+00 0.000000000000000D+00 0.267329420997019D+03
 0.267329420997019D+03 -.000000000000000D+00 -.000000000000000D+00 -.267329420997019D+03
 0.274115929568742D+03 -.225511940081755D+03 -.918803252841302D+02 0.147279852519097D+02
 0.224496964991105D+03 0.190003971956798D+03 0.866308070396031D+02 -.180351115370534D+02
 0.360459474341911D+02 0.355079681249569D+02 0.524951824452709D+01 0.330712628514373D+01
 0.000000000000000D+00 0.000000000000000D+00 0.000000000000000D+00 -.000000000000000D+00
 0.267329420997019D+03 0.000000000000000D+00 0.000000000000000D+00 0.267329420997019D+03
 0.267329420997019D+03 -.000000000000000D+00 -.000000000000000D+00 -.267329420997019D+03
 0.267827461022341D+03 -.218229005464519D+03 -.908036120795803D+02 0.154063001704340D+02
 0.229987388114772D+03 0.196111583721593D+03 0.875337598438005D+02 -.174662633468184D+02
 0.187603231262491D+02 0.137222687611717D+02 -.127281300974215D+02 0.128209518779204D+01
 0.180836697306756D+02 0.839515298175398D+01 0.159979823332014D+02 0.777867988592271D+00
0.203314668292D-02 0.000000000000D+00 0.000000000000D+00 0.118108841612D-04 0.000000000000D+00  6 -1 2 25 24 21 21 2 0.59675505D-02 0.28344624D+00 0.71124959D+05 0.71124959D+05 0.71124959D+05 0.11774151D+01  1  2  2  3  6  5       21 0.388553270140D+00 0.100000000000D+01
0.582848315059D-03 0.107292098142D-03 -.780781860223D-05 0.118108841612D-04 0.000000000000D+00  6 -1 2 25 24 21 21 4 0.59675505D-02 0.28344624D+00 0.71124959D+05 0.71124959D+05 0.71124959D+05 0.11774151D+01  1  2  3  3  6  5       21 0.154417533239D+00 0.100000000000D+01
0.707870630644D-04 0.000000000000D+00 0.000000000000D+00 0.118108841612D-04 0.000000000000D+00  6 -1 2 25 24 21 21 4 0.59675505D-02 0.28344624D+00 0.71124959D+05 0.71124959D+05 0.71124959D+05 0.11774151D+01  1  2 15  3  6  5       21 0.187540452314D-01 0.100000000000D+01
0.416901709757D-03 0.000000000000D+00 0.000000000000D+00 0.118105563977D-04 0.000000000000D+00  6 -1 2 25 24 21 21 4 0.59675505D-02 0.28344624D+00 0.71153048D+05 0.71153048D+05 0.71153048D+05 0.11773988D+01  1  2 12  3  6  5       21 0.110445648186D+00 0.100000000000D+01
0.420680289780D-03 0.000000000000D+00 0.000000000000D+00 0.118105563977D-04 0.000000000000D+00  6 -1 2 25 24 21 21 4 0.59675505D-02 0.28344624D+00 0.71153048D+05 0.71153048D+05 0.71153048D+05 0.11773988D+01  1  2 12  3  6  5       21 0.111446670034D+00 0.100000000000D+01
-.122434477913D-02 0.000000000000D+00 0.000000000000D+00 0.118108841612D-04 0.000000000000D+00  6 -1 2 25 24 21 21 4 0.59675505D-02 0.28344624D+00 0.71124959D+05 0.71124959D+05 0.71124959D+05 0.11774151D+01  1  2  4  3  6  5       21 -.324373075710D+00 0.100000000000D+01
0.182778930245D-04 0.000000000000D+00 0.000000000000D+00 0.118105563977D-04 0.000000000000D+00  6 -1 2 25 24 1 -1 4 0.59675505D-02 0.28344624D+00 0.71153048D+05 0.71153048D+05 0.71153048D+05 0.11773988D+01  1  2 12  6  6  5       21 0.484218149105D-02 0.100000000000D+01
0.184433709139D-04 0.000000000000D+00 0.000000000000D+00 0.118105563977D-04 0.000000000000D+00  6 -1 2 25 24 1 -1 4 0.59675505D-02 0.28344624D+00 0.71153048D+05 0.71153048D+05 0.71153048D+05 0.11773988D+01  1  2 12  6  6  5       21 0.488601991227D-02 0.100000000000D+01
0.182778930245D-04 0.000000000000D+00 0.000000000000D+00 0.118105563977D-04 0.000000000000D+00  6 -1 2 25 24 2 -2 4 0.59675505D-02 0.28344624D+00 0.71153048D+05 0.71153048D+05 0.71153048D+05 0.11773988D+01  1  2 12  7  6  5       21 0.484218149105D-02 0.100000000000D+01
0.184433709139D-04 0.000000000000D+00 0.000000000000D+00 0.118105563977D-04 0.000000000000D+00  6 -1 2 25 24 2 -2 4 0.59675505D-02 0.28344624D+00 0.71153048D+05 0.71153048D+05 0.71153048D+05 0.11773988D+01  1  2 12  7  6  5       21 0.488601991227D-02 0.100000000000D+01
0.182778930245D-04 0.000000000000D+00 0.000000000000D+00 0.118105563977D-04 0.000000000000D+00  6 -1 2 25 24 3 -3 4 0.59675505D-02 0.28344624D+00 0.71153048D+05 0.71153048D+05 0.71153048D+05 0.11773988D+01  1  2 12  8  6  5       21 0.484218149105D-02 0.100000000000D+01
0.182778930245D-04 0.000000000000D+00 0.000000000000D+00 0.118105563977D-04 0.000000000000D+00  6 -1 2 25 24 4 -4 4 0.59675505D-02 0.28344624D+00 0.71153048D+05 0.71153048D+05 0.71153048D+05 0.11773988D+01  1  2 12  8  6  5       21 0.484218149105D-02 0.100000000000D+01
0.184433709139D-04 0.000000000000D+00 0.000000000000D+00 0.118105563977D-04 0.000000000000D+00  6 -1 2 25 24 3 -3 4 0.59675505D-02 0.28344624D+00 0.71153048D+05 0.71153048D+05 0.71153048D+05 0.11773988D+01  1  2 12  8  6  5       21 0.488601991227D-02 0.100000000000D+01
0.184433709139D-04 0.000000000000D+00 0.000000000000D+00 0.118105563977D-04 0.000000000000D+00  6 -1 2 25 24 4 -4 4 0.59675505D-02 0.28344624D+00 0.71153048D+05 0.71153048D+05 0.71153048D+05 0.11773988D+01  1  2 12  8  6  5       21 0.488601991227D-02 0.100000000000D+01
  </mgrwgt>
  </event>
  <event>
  5     66 0.43535451E-03 0.24760068E+02 0.75467711E-02 0.12228196E+00
       -1 -1    0    0    0  501 0.00000000E+00 0.00000000E+00 0.30579556E+03 0.30579573E+03 0.32000000E+00 0.0000E+00 0.9000E+01
        2 -1    0    0  502    0 0.00000000E+00 0.00000000E+00 -.80504075E+02 0.80504711E+02 0.32000000E+00 0.0000E+00 0.9000E+01
       25  1    1    2    0    0 -.52384260E+02 0.42522972E+02 0.13665553E+02 0.14270270E+03 0.12500000E+03 0.0000E+00 0.9000E+01
       24  1    1    2    0    0 0.30702138E+02 -.30573240E+02 0.13446449E+03 0.16255848E+03 0.80419002E+02 0.0000E+00 0.9000E+01
       21  1    1    2  502  501 0.21682122E+02 -.11949731E+02 0.77161441E+02 0.81039256E+02 0.75000000E+00 0.0000E+00 0.9000E+01
#aMCatNLO 1  0  0  1  5 0.79317562D+01 0.00000000D+00  -5  6  0 0.00000000D+00 0.00000000D+00 0.00000000D+00 0.00000000D+00 0.00000000D+00
  <mgrwgt>
 0.1590719543D+00   11    4    0
 0.156901064191738D+03 0.000000000000000D+00 0.000000000000000D+00 0.156901064191738D+03
 0.156901064191738D+03 0.000000000000000D+00 0.000000000000000D+00 -.156901064191738D+03
 0.165862703107397D+03 -.523858978384404D+02 0.425238743647582D+02 -.856322024635786D+02
 0.103575790149833D+03 0.307011146196794D+02 -.305726764231916D+02 0.488209111777307D+02
 0.443636351262463D+02 0.216847832187610D+02 -.119511979415666D+02 0.368112912858479D+02
 0.000000000000000D+00 -.000000000000000D+00 -.000000000000000D+00 0.000000000000000D+00
 0.268017984308500D+03 0.000000000000000D+00 0.000000000000000D+00 0.268017984308500D+03
 0.157092787716696D+03 0.000000000000000D+00 0.000000000000000D+00 -.157092787716696D+03
 0.165580613702542D+03 -.491589526472847D+02 0.451936158098605D+02 -.856322024635786D+02
 0.103714183581031D+03 0.327192979710401D+02 -.289029772440080D+02 0.488209111777307D+02
 0.446075578126058D+02 0.225510102586324D+02 -.112345442359037D+02 0.368112912858479D+02
 0.111208416929017D+03 -.611135558238780D+01 -.505609432994878D+01 0.110925196591804D+03
 0.156901064191738D+03 0.000000000000000D+00 0.000000000000000D+00 0.156901064191738D+03
 0.156901064191738D+03 0.000000000000000D+00 0.000000000000000D+00 -.156901064191738D+03
 0.165862703107397D+03 -.523858978384404D+02 0.425238743647582D+02 -.856322024635786D+02
 0.103575790149833D+03 0.307011146196794D+02 -.305726764231916D+02 0.488209111777307D+02
 0.000000000000000D+00 -.000000000000000D+00 -.000000000000000D+00 0.000000000000000D+00
 0.443636351262463D+02 0.216847832187610D+02 -.119511979415666D+02 0.368112912858479D+02
 0.268017984308500D+03 0.000000000000000D+00 0.000000000000000D+00 0.268017984308500D+03
 0.157092787716696D+03 0.000000000000000D+00 0.000000000000000D+00 -.157092787716696D+03
 0.165580613702542D+03 -.491589526472847D+02 0.451936158098605D+02 -.856322024635786D+02
 0.103714183581031D+03 0.327192979710401D+02 -.289029772440080D+02 0.488209111777307D+02
 0.111208416929017D+03 -.611135558238780D+01 -.505609432994878D+01 0.110925196591804D+03
 0.446075578126058D+02 0.225510102586324D+02 -.112345442359037D+02 0.368112912858479D+02
0.301850209632D-04 0.000000000000D+00 0.000000000000D+00 0.286500850048D-04 0.000000000000D+00  6 -1 2 25 24 21 21 2 0.47045533D-01 0.12385304D-01 0.16661110D+05 0.16661110D+05 0.16661110D+05 0.12426559D+01  1  2  2  1  6  1       -1 0.116167578529D-01 0.100000000000D+01
0.305643113509D-05 0.159290731889D-05 -.115918428397D-06 0.286500850048D-04 0.000000000000D+00  6 -1 2 25 24 21 21 4 0.47045533D-01 0.12385304D-01 0.16661110D+05 0.16661110D+05 0.16661110D+05 0.12426559D+01  1  2  3  1  6  1       -1 0.181639318750D-02 0.100000000000D+01
0.105856275882D-05 0.000000000000D+00 0.000000000000D+00 0.286500850048D-04 0.000000000000D+00  6 -1 2 25 24 21 21 4 0.47045533D-01 0.12385304D-01 0.16661110D+05 0.16661110D+05 0.16661110D+05 0.12426559D+01  1  2 15  1  6  1       -1 0.629088665403D-03 0.100000000000D+01
0.334706469343D-02 0.000000000000D+00 0.000000000000D+00 0.285099448854D-04 0.000000000000D+00  6 -1 2 25 24 21 21 4 0.81816993D-01 0.12385304D-01 0.17735506D+05 0.17735506D+05 0.17735506D+05 0.12396130D+01  1  2 12  1  6  1       -1 0.682024580947D+00 0.100000000000D+01
-.268958906366D-02 0.000000000000D+00 0.000000000000D+00 0.286500850048D-04 0.000000000000D+00  6 -1 2 25 24 21 21 4 0.47045533D-01 0.12385304D-01 0.16661110D+05 0.16661110D+05 0.16661110D+05 0.12426559D+01  1  2  4  1  6  1       -1 -.159838420579D+01 0.100000000000D+01
-.354188409649D-02 0.000000000000D+00 -.153750164443D-04 0.286500850048D-04 0.000000000000D+00  6 -1 2 25 24 21 21 4 0.80397044D-01 0.12385304D-01 0.16661110D+05 0.16661110D+05 0.16661110D+05 0.12426559D+01  1  2  5  1  6  1       -1 -.755050501472D+00 0.100000000000D+01
0.309674162909D-02 0.000000000000D+00 0.134040524484D-04 0.286500850048D-04 0.000000000000D+00  6 -1 2 25 24 21 21 4 0.47045533D-01 0.12385304D-01 0.16661110D+05 0.16661110D+05 0.16661110D+05 0.12426559D+01  1  2  6  1  6  1       -1 0.184034913594D+01 0.100000000000D+01
0.190197144018D-04 0.000000000000D+00 0.000000000000D+00 0.286500850048D-04 0.197116913680D-05  6 -1 2 25 24 21 21 4 0.80363055D-01 0.12400438D-01 0.17735506D+05 0.17735506D+05 0.17735506D+05 0.12396130D+01  1  2 11  1  6  1       -1 0.401510431781D-02 0.100000000000D+01
0.204951596630D-03 0.000000000000D+00 0.000000000000D+00 0.285099448854D-04 0.000000000000D+00  6 21 2 25 24 1 21 4 0.81816993D-01 0.12385304D-01 0.17735506D+05 0.17735506D+05 0.17735506D+05 0.12396130D+01  3  4 12  4  5  1       -1 0.382732787865D+00 0.100000000000D+01
-.210428158472D-03 0.000000000000D+00 -.916695462044D-06 0.286500850048D-04 0.000000000000D+00  6 21 2 25 24 1 21 4 0.80397044D-01 0.12385304D-01 0.16661110D+05 0.16661110D+05 0.16661110D+05 0.12426559D+01  3  4  5  4  5  1       -1 -.413125754412D+00 0.100000000000D+01
0.126137205890D-05 0.000000000000D+00 0.000000000000D+00 0.286500850048D-04 0.261426923188D-06  6 21 2 25 24 1 21 4 0.80363055D-01 0.12400438D-01 0.17735506D+05 0.17735506D+05 0.17735506D+05 0.12396130D+01  3  4 11  4  5  1       -1 0.244856718540D-02 0.100000000000D+01
  </mgrwgt>
  </event>
  <event>
  6     66 0.43535451E-03 0.14362541E+02 0.75467711E-02 0.12423047E+00
       -3 -1    0    0    0  503 0.00000000E+00 0.00000000E+00 0.21492129E+03 0.21492187E+03 0.50000000E+00 0.0000E+00 0.9000E+01
        4 -1    0    0  502    0 0.00000000E+00 0.00000000E+00 -.96525647E+02 0.96538091E+02 0.15500000E+01 0.0000E+00 0.9000E+01
       25  1    1    2    0    0 0.85249629E+01 -.18648348E+02 0.32295205E+02 0.13072267E+03 0.12500000E+03 0.0000E+00 0.9000E+01
       24  1    1    2    0    0 -.11640691E+02 -.11465776E+02 0.20265264E+01 0.82087103E+02 0.80419002E+02 0.0000E+00 0.9000E+01
       21  1    1    2  502  501 0.63456746E+01 0.10054898E+02 -.24368232E+00 0.11915974E+02 0.75000000E+00 0.0000E+00 0.9000E+01
       21  1    1    2  501  503 -.32299468E+01 0.20059227E+02 0.84317593E+02 0.86734215E+02 0.75000000E+00 0.0000E+00 0.9000E+01
#aMCatNLO 2  0  0  1  5 0.79317562D+01 0.00000000D+00  -5  6  0 0.00000000D+00 0.00000000D+00 0.00000000D+00 0.00000000D+00 0.00000000D+00
  <mgrwgt>
 0.5970503977D-01    1    2    0
 0.186320545500036D+03 0.000000000000000D+00 0.000000000000000D+00 0.186320545500036D+03
 0.110597855061360D+03 0.000000000000000D+00 0.000000000000000D+00 -.110597855061360D+03
 0.126018243833804D+03 0.667347422694612D+01 -.719717073788925D+01 0.126199545984979D+02
 0.822158841929637D+02 -.128463352128909D+02 -.400910555774043D+01 -.105420303303118D+02
 0.129615820959522D+02 0.617286098594474D+01 0.112062762956297D+02 -.207792426818617D+01
 0.757226904386755D+02 -.000000000000000D+00 0.000000000000000D+00 0.757226904386755D+02
 0.184465811003545D+03 0.000000000000000D+00 0.000000000000000D+00 0.184465811003545D+03
 0.112469402595656D+03 0.000000000000000D+00 0.000000000000000D+00 -.112469402595656D+03
 0.127298865612968D+03 0.851908465646773D+01 -.186591299072656D+02 0.126199545984979D+02
 0.827379688387026D+02 -.116445192273465D+02 -.114728506336629D+02 -.105420303303118D+02
 0.120900376516808D+02 0.635538134859855D+01 0.100727537976776D+02 -.207792426818617D+01
 0.748083414958498D+02 -.322994677771978D+01 0.200592267432509D+02 0.719964084078895D+02
0.372362050688D-03 0.000000000000D+00 0.000000000000D+00 0.149685770701D-03 0.234216251500D-05  6 -3 4 25 24 21 21 4 0.33065270D-01 0.14850856D-01 0.14515807D+05 0.14515807D+05 0.14515807D+05 0.12494503D+01  1  2  1  1  6  1       -3 0.597050397710D-01 0.100000000000D+01
  </mgrwgt>
  </event>
  <event>
  5     66 -.43535451E-03 0.22047613E+02 0.75467711E-02 0.12308229E+00
       -1 -1    0    0    0  501 0.00000000E+00 0.00000000E+00 0.17596730E+02 0.17599639E+02 0.32000000E+00 0.0000E+00 0.9000E+01
        2 -1    0    0  502    0 0.00000000E+00 0.00000000E+00 -.75467309E+03 0.75467315E+03 0.32000000E+00 0.0000E+00 0.9000E+01
       25  1    1    2    0    0 0.21309678E+02 -.40386112E+01 -.40078283E+03 0.42038350E+03 0.12500000E+03 0.0000E+00 0.9000E+01
       24  1    1    2    0    0 0.15967380E+00 0.90066856E+01 -.24721052E+03 0.26011805E+03 0.80419002E+02 0.0000E+00 0.9000E+01
       21  1    1    2  502  501 -.21469352E+02 -.49680744E+01 -.89083009E+02 0.91771236E+02 0.75000000E+00 0.0000E+00 0.9000E+01
#aMCatNLO 1  0  0  1  5 0.89961921D+01 0.00000000D+00  -5  6  0 0.00000000D+00 0.00000000D+00 0.00000000D+00 0.00000000D+00 0.00000000D+00
  <mgrwgt>
 -.4301044911D-01    7    4    0
 0.115242907891763D+03 0.000000000000000D+00 0.000000000000000D+00 0.115242907891763D+03
 0.115242907891763D+03 0.000000000000000D+00 0.000000000000000D+00 -.115242907891763D+03
 0.126877390275785D+03 0.213161849409649D+02 -.403710543610720D+01 0.148128405591597D+01
 0.809989300057716D+02 0.163828000365147D+00 0.900764690004617D+01 0.352791233164036D+01
 0.226094955019689D+02 -.214800129413301D+02 -.497054146393897D+01 -.500919638755633D+01
 0.000000000000000D+00 0.000000000000000D+00 -.000000000000000D+00 0.000000000000000D+00
 0.153041420970563D+03 0.000000000000000D+00 0.000000000000000D+00 0.153041420970563D+03
 0.119872737165752D+03 0.000000000000000D+00 0.000000000000000D+00 -.119872737165752D+03
 0.125403122984226D+03 0.965794402865266D+01 0.233948047269285D+01 0.148128405591597D+01
 0.818910546025944D+02 -.736354959304397D+01 0.131248177711386D+02 0.352791233164036D+01
 0.244740975865774D+02 -.236558126658130D+02 -.378046708068819D+01 -.500919638755633D+01
 0.411458829629170D+02 0.213614182302043D+02 -.116838311631432D+02 0.331686838048109D+02
 0.115242907891763D+03 0.000000000000000D+00 0.000000000000000D+00 0.115242907891763D+03
 0.115242907891763D+03 0.000000000000000D+00 0.000000000000000D+00 -.115242907891763D+03
 0.126877390275785D+03 0.213161849409649D+02 -.403710543610720D+01 0.148128405591597D+01
 0.809989300057716D+02 0.163828000365147D+00 0.900764690004617D+01 0.352791233164036D+01
 0.000000000000000D+00 0.000000000000000D+00 -.000000000000000D+00 0.000000000000000D+00
 0.226094955019689D+02 -.214800129413301D+02 -.497054146393897D+01 -.500919638755633D+01
 0.153041420970563D+03 0.000000000000000D+00 0.000000000000000D+00 0.153041420970563D+03
 0.119872737165752D+03 0.000000000000000D+00 0.000000000000000D+00 -.119872737165752D+03
 0.125403122984226D+03 0.965794402865266D+01 0.233948047269285D+01 0.148128405591597D+01
 0.818910546025944D+02 -.736354959304397D+01 0.131248177711386D+02 0.352791233164036D+01
 0.411458829629170D+02 0.213614182302043D+02 -.116838311631432D+02 0.331686838048109D+02
 0.244740975865774D+02 -.236558126658130D+02 -.378046708068819D+01 -.500919638755633D+01
0.152200519080D-04 0.000000000000D+00 0.000000000000D+00 0.562785779415D-04 0.000000000000D+00  6 -1 2 25 24 21 21 2 0.27074182D-02 0.11610378D+00 0.13206425D+05 0.13206425D+05 0.13206425D+05 0.12541772D+01  1  2  2  1  6  1       -1 0.428371089762D-01 0.100000000000D+01
0.253446671448D-05 0.803184205426D-06 -.584490068585D-07 0.562785779415D-04 0.000000000000D+00  6 -1 2 25 24 21 21 4 0.27074182D-02 0.11610378D+00 0.13206425D+05 0.13206425D+05 0.13206425D+05 0.12541772D+01  1  2  3  1  6  1       -1 0.112204020172D-01 0.100000000000D+01
0.319122027604D-06 0.000000000000D+00 0.000000000000D+00 0.562785779415D-04 0.000000000000D+00  6 -1 2 25 24 21 21 4 0.27074182D-02 0.11610378D+00 0.13206425D+05 0.13206425D+05 0.13206425D+05 0.12541772D+01  1  2 15  1  6  1       -1 0.141279324041D-02 0.100000000000D+01
-.199547549908D-04 0.000000000000D+00 0.000000000000D+00 0.562785779415D-04 0.000000000000D+00  6 -1 2 25 24 21 21 4 0.27074182D-02 0.11610378D+00 0.13206425D+05 0.13206425D+05 0.13206425D+05 0.12541772D+01  1  2  4  1  6  1       -1 -.883422030646D-01 0.100000000000D+01
-.632914263829D-04 0.000000000000D+00 -.111962619617D-04 0.562785779415D-04 0.000000000000D+00  6 -1 2 25 24 21 21 4 0.37386754D-02 0.11610378D+00 0.13206425D+05 0.13206425D+05 0.13206425D+05 0.12541772D+01  1  2  5  1  6  1       -1 -.175360561937D+00 0.100000000000D+01
0.640965056033D-04 0.000000000000D+00 0.106374466088D-04 0.562785779415D-04 0.000000000000D+00  6 -1 2 25 24 21 21 4 0.27074182D-02 0.11610378D+00 0.13206425D+05 0.13206425D+05 0.13206425D+05 0.12541772D+01  1  2  6  1  6  1       -1 0.283763269274D+00 0.100000000000D+01
-.229816774990D-05 0.000000000000D+00 -.456208452324D-06 0.562785779415D-04 0.000000000000D+00  6 21 2 25 24 1 21 4 0.37386754D-02 0.11610378D+00 0.13206425D+05 0.13206425D+05 0.13206425D+05 0.12541772D+01  3  4  5  4  5  1       -1 -.118541257616D+00 0.100000000000D+01
  </mgrwgt>
  </event>
  <event>
  5     66 0.43535451E-03 0.35139994E+02 0.75467711E-02 0.12162065E+00
       -1 -1    0    0    0  501 0.00000000E+00 0.00000000E+00 0.89498427E+02 0.89498999E+02 0.32000000E+00 0.0000E+00 0.9000E+01
        2 -1    0    0  502    0 -.00000000E+00 -.00000000E+00 -.35295262E+03 0.35295277E+03 0.32000000E+00 0.0000E+00 0.9000E+01
       25  1    1    2    0    0 -.57653102E+02 0.36232705E+02 -.18013583E+03 0.22958791E+03 0.12500000E+03 0.0000E+00 0.9000E+01
       24  1    1    2    0    0 0.24941149E+02 -.49066086E+02 -.12489891E+03 0.15841873E+03 0.80419002E+02 0.0000E+00 0.9000E+01
       21  1    1    2  502  501 0.32711953E+02 0.12833381E+02 0.41580545E+02 0.54445127E+02 0.75000000E+00 0.0000E+00 0.9000E+01
#aMCatNLO 1  0  0  5  2 0.15427221D+02 0.00000000D+00  -5  6  0 0.00000000D+00 0.00000000D+00 0.00000000D+00 0.00000000D+00 0.00000000D+00
  <mgrwgt>
 0.2750562524D+00   15    2    0
 0.177732561224894D+03 0.000000000000000D+00 0.000000000000000D+00 0.177732561224894D+03
 0.177732561224894D+03 -.000000000000000D+00 -.000000000000000D+00 -.177732561224894D+03
 0.152263095624817D+03 -.576535077235735D+02 0.362325456621231D+02 -.540585420748856D+02
 0.104616741777905D+03 0.249408706846803D+02 -.490661954752893D+02 -.380513881077286D+02
 0.985852850470668D+02 0.327126370388933D+02 0.128336498131663D+02 0.921099301826142D+02
 0.000000000000000D+00 0.000000000000000D+00 0.000000000000000D+00 0.000000000000000D+00
 0.177732561224894D+03 0.000000000000000D+00 0.000000000000000D+00 0.177732561224894D+03
 0.177732561224894D+03 -.000000000000000D+00 -.000000000000000D+00 -.177732561224894D+03
 0.151334829940201D+03 -.569208469247459D+02 0.365199792955782D+02 -.519955676058046D+02
 0.104138128545844D+03 0.254446505104677D+02 -.488685552220928D+02 -.366328804977944D+02
 0.395845836949144D+02 0.226675246998248D+02 0.147340485178125D+02 0.289141903666221D+02
 0.604075802688285D+02 0.880867171445350D+01 -.238547259129795D+01 0.597142577369770D+02
0.139288896205D-03 0.000000000000D+00 0.000000000000D+00 0.245551857073D-04 0.000000000000D+00  6 -1 2 25 24 21 21 2 0.13769044D-01 0.54300459D-01 0.18897310D+05 0.18897310D+05 0.18897310D+05 0.12365468D+01  1  2  2  3  6  5       21 0.792322662153D-01 0.100000000000D+01
0.974972454646D-05 0.735047699567D-05 -.534906037034D-06 0.245551857073D-04 0.000000000000D+00  6 -1 2 25 24 21 21 4 0.13769044D-01 0.54300459D-01 0.18897310D+05 0.18897310D+05 0.18897310D+05 0.12365468D+01  1  2  3  3  6  5       21 0.848006290870D-02 0.100000000000D+01
0.346569663080D-05 0.000000000000D+00 0.000000000000D+00 0.245551857073D-04 0.000000000000D+00  6 -1 2 25 24 21 21 4 0.13769044D-01 0.54300459D-01 0.18897310D+05 0.18897310D+05 0.18897310D+05 0.12365468D+01  1  2 15  3  6  5       21 0.301437495097D-02 0.100000000000D+01
0.869066695399D-04 0.000000000000D+00 0.000000000000D+00 0.245436564102D-04 0.000000000000D+00  6 -1 2 25 24 21 21 4 0.13769044D-01 0.54300459D-01 0.19011667D+05 0.19011667D+05 0.19011667D+05 0.12362565D+01  1  2 12  3  6  5       21 0.755284027032D-01 0.100000000000D+01
-.815521852150D-04 0.000000000000D+00 0.000000000000D+00 0.245551857073D-04 0.000000000000D+00  6 -1 2 25 24 21 21 4 0.13769044D-01 0.54300459D-01 0.18897310D+05 0.18897310D+05 0.18897310D+05 0.12365468D+01  1  2  4  3  6  5       21 -.709320204555D-01 0.100000000000D+01
-.165089926846D-03 0.000000000000D+00 0.000000000000D+00 0.245551857073D-04 0.000000000000D+00  6 -1 2 25 24 21 21 4 0.13769044D-01 0.54300459D-01 0.18897310D+05 0.18897310D+05 0.18897310D+05 0.12365468D+01  1  2  5  3  6  5       21 -.143591027478D+00 0.100000000000D+01
0.370022814032D-03 0.000000000000D+00 -.000000000000D+00 0.245551857073D-04 0.000000000000D+00  6 -1 2 25 24 21 21 4 0.13769044D-01 0.54300459D-01 0.18897310D+05 0.18897310D+05 0.18897310D+05 0.12365468D+01  1  2  6  3  6  5       21 0.321836450424D+00 0.100000000000D+01
0.524781356390D-05 0.000000000000D+00 0.000000000000D+00 0.245436564102D-04 0.000000000000D+00  6 -1 2 25 24 1 -1 4 0.13769044D-01 0.54300459D-01 0.19011667D+05 0.19011667D+05 0.19011667D+05 0.12362565D+01  1  2 12  6  6  5       21 0.456074290114D-02 0.100000000000D+01
-.481596847089D-05 0.000000000000D+00 0.000000000000D+00 0.245551857073D-04 0.000000000000D+00  6 -1 2 25 24 1 -1 4 0.13769044D-01 0.54300459D-01 0.18897310D+05 0.18897310D+05 0.18897310D+05 0.12365468D+01  1  2  5  6  6  5       21 -.418880712012D-02 0.100000000000D+01
0.524781356390D-05 0.000000000000D+00 0.000000000000D+00 0.245436564102D-04 0.000000000000D+00  6 -1 2 25 24 2 -2 4 0.13769044D-01 0.54300459D-01 0.19011667D+05 0.19011667D+05 0.19011667D+05 0.12362565D+01  1  2 12  7  6  5       21 0.456074290114D-02 0.100000000000D+01
-.481596847089D-05 0.000000000000D+00 0.000000000000D+00 0.245551857073D-04 0.000000000000D+00  6 -1 2 25 24 2 -2 4 0.13769044D-01 0.54300459D-01 0.18897310D+05 0.18897310D+05 0.18897310D+05 0.12365468D+01  1  2  5  7  6  5       21 -.418880712012D-02 0.100000000000D+01
0.524781356390D-05 0.000000000000D+00 0.000000000000D+00 0.245436564102D-04 0.000000000000D+00  6 -1 2 25 24 3 -3 4 0.13769044D-01 0.54300459D-01 0.19011667D+05 0.19011667D+05 0.19011667D+05 0.12362565D+01  1  2 12  8  6  5       21 0.456074290114D-02 0.100000000000D+01
0.524781356390D-05 0.000000000000D+00 0.000000000000D+00 0.245436564102D-04 0.000000000000D+00  6 -1 2 25 24 4 -4 4 0.13769044D-01 0.54300459D-01 0.19011667D+05 0.19011667D+05 0.19011667D+05 0.12362565D+01  1  2 12  8  6  5       21 0.456074290114D-02 0.100000000000D+01
-.481596847089D-05 0.000000000000D+00 0.000000000000D+00 0.245551857073D-04 0.000000000000D+00  6 -1 2 25 24 3 -3 4 0.13769044D-01 0.54300459D-01 0.18897310D+05 0.18897310D+05 0.18897310D+05 0.12365468D+01  1  2  5  8  6  5       21 -.418880712012D-02 0.100000000000D+01
-.481596847089D-05 0.000000000000D+00 0.000000000000D+00 0.245551857073D-04 0.000000000000D+00  6 -1 2 25 24 4 -4 4 0.13769044D-01 0.54300459D-01 0.18897310D+05 0.18897310D+05 0.18897310D+05 0.12365468D+01  1  2  5  8  6  5       21 -.418880712012D-02 0.100000000000D+01
  </mgrwgt>
  </event>
  <event>
  6     66 0.43535451E-03 0.77501047E+02 0.75467711E-02 0.11679704E+00
       21 -1    0    0  503  501 0.00000000E+00 0.00000000E+00 0.79417657E+02 0.79421198E+02 0.75000000E+00 0.0000E+00 0.9000E+01
        2 -1    0    0  502    0 0.00000000E+00 0.00000000E+00 -.12188360E+04 0.12188360E+04 0.32000000E+00 0.0000E+00 0.9000E+01
       25  1    1    2    0    0 0.59696466E+02 0.10521349E+03 -.37973720E+03 0.41768276E+03 0.12500000E+03 0.0000E+00 0.9000E+01
       24  1    1    2    0    0 -.13436376E+02 -.48295370E+02 -.77898892E+03 0.78473176E+03 0.80419002E+02 0.0000E+00 0.9000E+01
        1  1    1    2  503    0 0.34587593E+01 0.82651099E+01 -.50846782E+01 0.10306862E+02 0.32000000E+00 0.0000E+00 0.9000E+01
       21  1    1    2  502  501 -.49718849E+02 -.65183233E+02 0.24392506E+02 0.85535809E+02 0.75000000E+00 0.0000E+00 0.9000E+01
#aMCatNLO 2  0  0  1  2 0.89596349D+01 0.00000000D+00  -5  6  0 0.00000000D+00 0.00000000D+00 0.00000000D+00 0.00000000D+00 0.00000000D+00
  <mgrwgt>
 0.8762157144D-01    1    2    0
 0.304968450501275D+03 0.000000000000000D+00 0.000000000000000D+00 0.304968450501275D+03
 0.304968450501275D+03 0.000000000000000D+00 0.000000000000000D+00 -.304968450501275D+03
 0.177530064001103D+03 0.606981501400563D+02 0.107607048129566D+03 -.250675365094402D+02
 0.207589942757006D+03 -.122571645986755D+02 -.454776086980960D+02 -.185493712568891D+03
 0.000000000000000D+00 0.000000000000000D+00 0.000000000000000D+00 0.000000000000000D+00
 0.224816894244441D+03 -.484409855413809D+02 -.621294394314700D+02 0.210561249078331D+03
 0.315367712201699D+03 0.000000000000000D+00 0.000000000000000D+00 0.315367712201699D+03
 0.306937302590216D+03 0.000000000000000D+00 0.000000000000000D+00 -.306937302590216D+03
 0.175746859137156D+03 0.596965433075167D+02 0.105213591455939D+03 -.250675365094402D+02
 0.208298101171981D+03 -.134362857896958D+02 -.482952566932754D+02 -.185493712568891D+03
 0.123023113046179D+02 0.345875929932870D+01 0.826510987995036D+01 0.843040961148294D+01
 0.225957743178161D+03 -.497190168171496D+02 -.651834446426137D+02 0.210561249078331D+03
0.286160007979D-04 0.000000000000D+00 0.000000000000D+00 0.486101749009D-05 0.647627384011D-08  6 21 2 25 24 1 21 4 0.12218294D-01 0.18751223D+00 0.32337794D+05 0.32337794D+05 0.32337794D+05 0.12114929D+01  1  2  1  4  5  1       -1 0.876215714416D-01 0.100000000000D+01
  </mgrwgt>
  </event>
  <event>
  5     66 0.43535451E-03 0.24255441E+02 0.75467711E-02 0.10594118E+00
       -1 -1    0    0    0  501 0.00000000E+00 0.00000000E+00 0.12726909E+03 0.12726949E+03 0.32000000E+00 0.0000E+00 0.9000E+01
        2 -1    0    0  502    0 0.00000000E+00 0.00000000E+00 -.66525696E+03 0.66525703E+03 0.32000000E+00 0.0000E+00 0.9000E+01
       25  1    1    2    0    0 -.81908374E+02 0.59160243E+02 -.56949256E+03 0.59173955E+03 0.12500000E+03 0.0000E+00 0.9000E+01
       24  1    1    2    0    0 0.10267645E+03 -.46630321E+02 -.23667319E+02 0.14051405E+03 0.80419002E+02 0.0000E+00 0.9000E+01
       21  1    1    2  502  501 -.20768077E+02 -.12529922E+02 0.55172011E+02 0.60272923E+02 0.75000000E+00 0.0000E+00 0.9000E+01
#aMCatNLO 1  0  0  1  5 0.29304995D+02 0.00000000D+00  -5  6  0 0.00000000D+00 0.00000000D+00 0.00000000D+00 0.00000000D+00 0.00000000D+00
  <mgrwgt>
 0.7422571919D+00    3    2    0
 0.290975661022531D+03 0.000000000000000D+00 0.000000000000000D+00 0.290975661022531D+03
 0.290975661022531D+03 0.000000000000000D+00 0.000000000000000D+00 -.290975661022531D+03
 0.279387038908586D+03 -.819082159195643D+02 0.591603386562402D+02 -.228523994374903D+03
 0.169478441269769D+03 0.102676547436791D+03 -.466302627739038D+02 0.976671454531003D+02
 0.133085841866707D+03 -.207683315172270D+02 -.125300758823364D+02 0.130856848921803D+03
 0.000000000000000D+00 -.000000000000000D+00 -.000000000000000D+00 -.000000000000000D+00
 0.356668862711553D+03 0.000000000000000D+00 0.000000000000000D+00 0.356668862711553D+03
 0.101289972535333D+04 0.000000000000000D+00 0.000000000000000D+00 -.101289972535333D+04
 0.296587566061292D+03 0.289089565559339D+02 0.138853305930927D+03 -.228523994374903D+03
 0.217836773829916D+03 0.177195765165724D+03 0.695942415950122D+01 0.976671454531003D+02
 0.136783102037928D+03 0.311542932728441D+02 0.248095164008529D+02 0.130856848921803D+03
 0.718361146135751D+03 -.237259014994502D+03 -.170622246491281D+03 -.656230862641782D+03
0.367683232209D-02 0.000000000000D+00 0.000000000000D+00 0.177297823370D-04 0.000000000000D+00  6 -1 2 25 24 21 21 2 0.19579896D-01 0.10234726D+00 0.26161654D+05 0.26161654D+05 0.26161654D+05 0.12211885D+01  1  2  2  1  6  1       -1 0.582731139861D+00 0.100000000000D+01
0.597980754623D-03 0.194031772358D-03 -.141200042490D-04 0.177297823370D-04 0.000000000000D+00  6 -1 2 25 24 21 21 4 0.19579896D-01 0.10234726D+00 0.26161654D+05 0.26161654D+05 0.26161654D+05 0.12211885D+01  1  2  3  1  6  1       -1 0.141334118443D+00 0.100000000000D+01
0.769695689276D-04 0.000000000000D+00 0.000000000000D+00 0.177297823370D-04 0.000000000000D+00  6 -1 2 25 24 21 21 4 0.19579896D-01 0.10234726D+00 0.26161654D+05 0.26161654D+05 0.26161654D+05 0.12211885D+01  1  2 15  1  6  1       -1 0.181919335818D-01 0.100000000000D+01
  </mgrwgt>
  </event>
  <event>
  6     66 -.43535451E-03 0.15088793E+02 0.75467711E-02 0.12025794E+00
       -1 -1    0    0    0  501 0.00000000E+00 0.00000000E+00 0.10955018E+02 0.10959690E+02 0.32000000E+00 0.0000E+00 0.9000E+01
        2 -1    0    0  502    0 -.00000000E+00 -.00000000E+00 -.31172595E+04 0.31172595E+04 0.32000000E+00 0.0000E+00 0.9000E+01
       25  1    1    2    0    0 0.70375144E+02 0.29061324E+02 -.19602611E+04 0.19657176E+04 0.12500000E+03 0.0000E+00 0.9000E+01
       24  1    1    2    0    0 -.90255686E+02 -.10586454E+02 -.46008598E+03 0.47581981E+03 0.80419002E+02 0.0000E+00 0.9000E+01
       21  1    1    2  502  503 0.14549886E+02 -.12735001E+02 -.61220621E+03 0.61251195E+03 0.75000000E+00 0.0000E+00 0.9000E+01
       21  1    1    2  503  501 0.53306562E+01 -.57398696E+01 -.73751237E+02 0.74169869E+02 0.75000000E+00 0.0000E+00 0.9000E+01
#aMCatNLO 2  0  0  5  2 0.57921668D+01 0.00000000D+00  -5  6  0 0.00000000D+00 0.00000000D+00 0.00000000D+00 0.00000000D+00 0.00000000D+00
  <mgrwgt>
 -.4970725731D+00    3    2    0
 0.184816036266517D+03 0.000000000000000D+00 0.000000000000000D+00 0.184816036266517D+03
 0.184816036266517D+03 -.000000000000000D+00 -.000000000000000D+00 -.184816036266517D+03
 0.161825437274192D+03 0.698097044921456D+02 0.295867840030576D+02 -.693808296293662D+02
 0.161355894705500D+03 -.908168797096131D+02 -.100649401809575D+02 0.105922141881693D+03
 0.464507405533417D+02 0.210071752174675D+02 -.195218438221001D+02 -.365413122523263D+02
 0.000000000000000D+00 0.000000000000000D+00 -.000000000000000D+00 0.000000000000000D+00
 0.184816036266517D+03 0.000000000000000D+00 0.000000000000000D+00 0.184816036266517D+03
 0.184816036266517D+03 -.000000000000000D+00 -.000000000000000D+00 -.184816036266517D+03
 0.162406648217090D+03 0.703828347960714D+02 0.290541773975941D+02 -.703777715399383D+02
 0.160421437318233D+03 -.902480885616928D+02 -.105935144343803D+02 0.104932747794798D+03
 0.387149585093413D+02 0.143933012761195D+02 -.125693516024979D+02 -.336703473556134D+02
 0.808902848836928D+01 0.547195248950197D+01 -.589131136071595D+01 -.884628899246572D+00
-.250695041957D-03 0.000000000000D+00 0.000000000000D+00 0.169424141301D-04 0.000000000000D+00  6 -1 2 25 24 21 21 4 0.16857480D-02 0.47957875D+00 0.21735353D+05 0.21735353D+05 0.21735353D+05 0.12298674D+01  1  2 13  3  6  5       21 -.104129488630D+00 0.100000000000D+01
-.202337285760D-03 0.000000000000D+00 0.000000000000D+00 0.169424141301D-04 0.000000000000D+00  6 -1 2 25 24 21 21 4 0.16857480D-02 0.47957875D+00 0.21735353D+05 0.21735353D+05 0.21735353D+05 0.12298674D+01  1  2 13  3  6  5       21 -.840434574714D-01 0.100000000000D+01
-.745183934934D-03 0.000000000000D+00 0.000000000000D+00 0.169270896444D-04 0.000000000000D+00  6 -1 2 25 24 21 21 4 0.16857480D-02 0.47957875D+00 0.21992477D+05 0.21992477D+05 0.21992477D+05 0.12293111D+01  1  2  8  3  6  5       21 -.308899626964D+00 0.100000000000D+01
  </mgrwgt>
  </event>
  <event>
  6     66 0.43535451E-03 0.41064536E+02 0.75467711E-02 0.11695837E+00
       21 -1    0    0  503  501 0.00000000E+00 0.00000000E+00 0.11419689E+03 0.11419935E+03 0.75000000E+00 0.0000E+00 0.9000E+01
        2 -1    0    0  502    0 0.00000000E+00 0.00000000E+00 -.37290148E+03 0.37290162E+03 0.32000000E+00 0.0000E+00 0.9000E+01
       25  1    1    2    0    0 -.11012666E+03 0.60425889E+02 -.88146790E+02 0.19792429E+03 0.12500000E+03 0.0000E+00 0.9000E+01
       24  1    1    2    0    0 0.60655763E+02 -.21197980E+02 -.16476309E+03 0.19427446E+03 0.80419002E+02 0.0000E+00 0.9000E+01
        1  1    1    2  503    0 -.87473818E+00 -.23405176E+02 -.28973746E+02 0.37257856E+02 0.32000000E+00 0.0000E+00 0.9000E+01
       21  1    1    2  502  501 0.50345631E+02 -.15822732E+02 0.23179035E+02 0.57644355E+02 0.75000000E+00 0.0000E+00 0.9000E+01
#aMCatNLO 2  0  0  1  1 0.23421517D+02 0.00000000D+00  -5  6  0 0.00000000D+00 0.00000000D+00 0.00000000D+00 0.00000000D+00 0.00000000D+00
  <mgrwgt>
 0.1213142308D-01    1    2    0
 0.193024606554234D+03 0.000000000000000D+00 0.000000000000000D+00 0.193024606554234D+03
 0.193024606554234D+03 0.000000000000000D+00 0.000000000000000D+00 -.193024606554234D+03
 0.174763037369743D+03 -.110526729612135D+03 0.497471267778491D+02 0.150394364685881D+02
 0.129478294209641D+03 0.603635096523740D+02 -.289985144413043D+02 -.762413639680792D+02
 0.000000000000000D+00 -.000000000000000D+00 -.000000000000000D+00 -.000000000000000D+00
 0.818078815290835D+02 0.501632199597612D+02 -.207486123365447D+02 0.612019274994911D+02
 0.200656560782682D+03 0.000000000000000D+00 0.000000000000000D+00 0.200656560782682D+03
 0.212225365590183D+03 0.000000000000000D+00 0.000000000000000D+00 -.212225365590183D+03
 0.177849979284328D+03 -.110127608532894D+03 0.604263214250937D+02 0.150394364685881D+02
 0.128095038777479D+03 0.606550557433865D+02 -.211976800166139D+02 -.762413639680792D+02
 0.261228768450546D+02 -.874738178291895D+00 -.234051764169225D+02 -.115688048075013D+02
 0.808140314660038D+02 0.503472909677993D+02 -.158234649915573D+02 0.612019274994911D+02
0.177979448138D-05 0.000000000000D+00 0.000000000000D+00 0.660650302109D-05 0.186758013721D-08  6 21 2 25 24 1 21 4 0.17568867D-01 0.57369382D-01 0.31745380D+05 0.31745380D+05 0.31745380D+05 0.12123292D+01  1  2  1  4  5  1       -1 0.121314230831D-01 0.100000000000D+01
  </mgrwgt>
  </event>
  <event>
  6     66 -.43535451E-03 0.41989452E+02 0.75467711E-02 0.11943555E+00
       -1 -1    0    0    0  501 0.00000000E+00 0.00000000E+00 0.11566704E+03 0.11566748E+03 0.32000000E+00 0.0000E+00 0.9000E+01
        2 -1    0    0  502    0 -.00000000E+00 -.00000000E+00 -.28341639E+03 0.28341657E+03 0.32000000E+00 0.0000E+00 0.9000E+01
       25  1    1    2    0    0 -.28691168E+02 0.20106264E+02 0.90255718E+01 0.13013034E+03 0.12500000E+03 0.0000E+00 0.9000E+01
       24  1    1    2    0    0 0.53416556E+02 -.40603536E+02 -.15919030E+03 0.19055378E+03 0.80419002E+02 0.0000E+00 0.9000E+01
       21  1    1    2  502  503 -.35558606E+02 0.39912806E+02 -.17170419E+02 0.56150088E+02 0.75000000E+00 0.0000E+00 0.9000E+01
       21  1    1    2  503  501 0.10833218E+02 -.19415534E+02 -.41420544E+00 0.22249846E+02 0.75000000E+00 0.0000E+00 0.9000E+01
#aMCatNLO 2  0  0  5  2 0.20552304D+02 0.00000000D+00  -5  6  0 0.00000000D+00 0.00000000D+00 0.00000000D+00 0.00000000D+00 0.00000000D+00
  <mgrwgt>
 -.5187225809D-01    2    2    0
 0.181058166293143D+03 0.000000000000000D+00 0.000000000000000D+00 0.181058166293143D+03
 0.181058166293143D+03 -.000000000000000D+00 -.000000000000000D+00 -.181058166293143D+03
 0.140859928157971D+03 -.166146523684657D+02 0.100948693171824D+02 0.619561643487785D+02
 0.149634585203854D+03 0.653859400431033D+02 -.505261193615368D+02 -.953681458438938D+02
 0.716218192244604D+02 -.487712876746376D+02 0.404312500443544D+02 0.334119814951153D+02
 0.000000000000000D+00 0.000000000000000D+00 -.000000000000000D+00 0.000000000000000D+00
 0.181058166293143D+03 0.000000000000000D+00 0.000000000000000D+00 0.181058166293143D+03
 0.181058166293143D+03 -.000000000000000D+00 -.000000000000000D+00 -.181058166293143D+03
 0.147708842771065D+03 -.288688109675568D+02 0.202535297509252D+02 0.703511799383291D+02
 0.136086182525176D+03 0.532527227461192D+02 -.404677189016294D+02 -.870559840960329D+02
 0.536151512475619D+02 -.352322810039389D+02 0.398968209030275D+02 0.644317471361489D+01
 0.247061560424816D+02 0.108483692253765D+02 -.196826317523232D+02 0.102616294440888D+02
-.977656475623D-04 0.000000000000D+00 0.000000000000D+00 0.379260181377D-05 0.000000000000D+00  6 -1 2 25 24 21 21 4 0.17794977D-01 0.43602570D-01 0.24052585D+05 0.24052585D+05 0.24052585D+05 0.12251006D+01  1  2 13  3  6  5       21 -.694221644686D-01 0.100000000000D+01
0.247151320404D-04 0.000000000000D+00 0.000000000000D+00 0.380207386403D-05 0.216095584310D-07  6 -1 2 25 24 21 21 4 0.17794977D-01 0.43602570D-01 0.24052585D+05 0.24052585D+05 0.24052585D+05 0.12251006D+01  1  2  1  3  6  5       21 0.175499063746D-01 0.100000000000D+01
  </mgrwgt>
  </event>
  <event>
  5     66 0.43535451E-03 0.71113868E+02 0.75467711E-02 0.10159444E+00
       -1 -1    0    0    0  501 0.00000000E+00 0.00000000E+00 0.14041108E+03 0.14041145E+03 0.32000000E+00 0.0000E+00 0.9000E+01
        2 -1    0    0  502    0 0.00000000E+00 0.00000000E+00 -.90824106E+03 0.90824112E+03 0.32000000E+00 0.0000E+00 0.9000E+01
       25  1    1    2    0    0 -.18189401E+03 0.27177372E+03 -.46287875E+03 0.58036895E+03 0.12500000E+03 0.0000E+00 0.9000E+01
       24  1    1    2    0    0 0.17130037E+03 -.20145669E+03 -.19861138E+03 0.34035615E+03 0.80419002E+02 0.0000E+00 0.9000E+01
       21  1    1    2  502  501 0.10593639E+02 -.70317030E+02 -.10633984E+03 0.12792746E+03 0.75000000E+00 0.0000E+00 0.9000E+01
#aMCatNLO 1  0  0  1  2 0.24651334D+03 0.00000000D+00  -5  6  0 0.00000000D+00 0.00000000D+00 0.00000000D+00 0.00000000D+00 0.00000000D+00
  <mgrwgt>
 0.6745499798D+00    3    2    0
 0.357109691598367D+03 0.000000000000000D+00 0.000000000000000D+00 0.357109691598367D+03
 0.357109691598367D+03 0.000000000000000D+00 0.000000000000000D+00 -.357109691598367D+03
 0.354504873149354D+03 -.181894282869067D+03 0.271775533951563D+03 -.556887249946571D+02
 0.286207324892053D+03 0.171300148787968D+03 -.201455220469205D+03 0.742931358768693D+02
 0.735071851553273D+02 0.105941340810997D+02 -.703203134823578D+02 -.186044108822122D+02
 0.000000000000000D+00 -.000000000000000D+00 -.000000000000000D+00 -.000000000000000D+00
 0.425890001895609D+03 0.000000000000000D+00 0.000000000000000D+00 0.425890001895609D+03
 0.693578738413088D+03 0.000000000000000D+00 0.000000000000000D+00 -.693578738413088D+03
 0.462277650442059D+03 -.168566954736463D+03 0.408117107920723D+03 -.556887249946571D+02
 0.239324944933979D+03 0.179875186575808D+03 -.113730649031741D+03 0.742931358768693D+02
 0.539621949983042D+02 0.126740344304575D+02 -.490424636006024D+02 -.186044108822122D+02
 0.363903949934354D+03 -.239822662698032D+02 -.245343995288380D+03 -.267688736517479D+03
0.691069126210D-02 0.000000000000D+00 0.000000000000D+00 0.271687402679D-05 0.000000000000D+00  6 -1 2 25 24 21 21 2 0.21601738D-01 0.13972943D+00 0.12166637D+06 0.12166637D+06 0.12166637D+06 0.11558279D+01  1  2  2  1  6  1       -1 0.559771856478D+00 0.100000000000D+01
0.101126402272D-02 0.364687197116D-03 -.265388740733D-04 0.271687402679D-05 0.000000000000D+00  6 -1 2 25 24 21 21 4 0.21601738D-01 0.13972943D+00 0.12166637D+06 0.12166637D+06 0.12166637D+06 0.11558279D+01  1  2  3  1  6  1       -1 0.109431019080D+00 0.100000000000D+01
0.494131752554D-04 0.000000000000D+00 0.000000000000D+00 0.271687402679D-05 0.000000000000D+00  6 -1 2 25 24 21 21 4 0.21601738D-01 0.13972943D+00 0.12166637D+06 0.12166637D+06 0.12166637D+06 0.11558279D+01  1  2 15  1  6  1       -1 0.534710422073D-02 0.100000000000D+01
  </mgrwgt>
  </event>
  <event>
  5     66 0.43535451E-03 0.60686296E+02 0.75467711E-02 0.12123972E+00
       -1 -1    0    0    0  501 0.00000000E+00 0.00000000E+00 0.31677889E+03 0.31677905E+03 0.32000000E+00 0.0000E+00 0.9000E+01
        2 -1    0    0  502    0 0.00000000E+00 0.00000000E+00 -.29658425E+03 0.29658442E+03 0.32000000E+00 0.0000E+00 0.9000E+01
       25  1    1    2    0    0 -.45260442E+01 0.63389955E+02 0.22259703E+03 0.26308403E+03 0.12500000E+03 0.0000E+00 0.9000E+01
       24  1    1    2    0    0 -.67425499E+00 -.29292311E+01 -.25659361E+03 0.26891733E+03 0.80419002E+02 0.0000E+00 0.9000E+01
       21  1    1    2  502  501 0.52002992E+01 -.60460723E+02 0.54191219E+02 0.81362110E+02 0.75000000E+00 0.0000E+00 0.9000E+01
#aMCatNLO 1  0  0  1  2 0.24651334D+03 0.00000000D+00  -5  6  0 0.00000000D+00 0.00000000D+00 0.00000000D+00 0.00000000D+00 0.00000000D+00
  <mgrwgt>
 0.1500109700D-01    1    2    0
 0.306515466140161D+03 0.000000000000000D+00 0.000000000000000D+00 0.306515466140161D+03
 0.306515466140161D+03 0.000000000000000D+00 0.000000000000000D+00 -.306515466140161D+03
 0.255893367791574D+03 -.452614051882145D+01 0.633910743214379D+02 0.214050231086284D+03
 0.277516961109235D+03 -.674359442369088D+00 -.292801678219781D+01 -.265592582174276D+03
 0.796206033795125D+02 0.520049996119053D+01 -.604630575392401D+02 0.515423510879920D+02
 0.000000000000000D+00 -.000000000000000D+00 -.000000000000000D+00 -.000000000000000D+00
 0.350544101843326D+03 0.000000000000000D+00 0.000000000000000D+00 0.350544101843326D+03
 0.403231317744185D+03 0.000000000000000D+00 0.000000000000000D+00 -.403231317744185D+03
 0.264244629066858D+03 0.417706688796704D+02 0.814735158437076D+02 0.214050231086284D+03
 0.282305140710838D+03 0.491546807384450D+02 0.165340307516815D+02 -.265592582174276D+03
 0.777796657075324D+02 0.192104940420068D+02 -.549910843733753D+02 0.515423510879920D+02
 0.129445984102283D+03 -.110135843660122D+03 -.430164622220138D+02 -.526872159008590D+02
0.118084835420D-03 0.000000000000D+00 0.000000000000D+00 0.978680753858D-06 0.000000000000D+00  6 -1 2 25 24 21 21 4 0.48735239D-01 0.45628372D-01 0.19795011D+05 0.19795011D+05 0.19795011D+05 0.12343189D+01  1  2 14  1  6  1       -1 0.150010970002D-01 0.100000000000D+01
  </mgrwgt>
  </event>
  <event>
  5     66 0.43535451E-03 0.83669429E+02 0.75467711E-02 0.11859743E+00
       -1 -1    0    0    0  501 0.00000000E+00 0.00000000E+00 0.58249151E+03 0.58249159E+03 0.32000000E+00 0.0000E+00 0.9000E+01
        2 -1    0    0  502    0 0.00000000E+00 0.00000000E+00 -.32701590E+03 0.32701605E+03 0.32000000E+00 0.0000E+00 0.9000E+01
       25  1    1    2    0    0 0.26623657E+02 0.95191890E+02 -.10450318E+03 0.19056818E+03 0.12500000E+03 0.0000E+00 0.9000E+01
       24  1    1    2    0    0 -.33791820E+01 -.14816182E+02 -.16667281E+03 0.18568247E+03 0.80419002E+02 0.0000E+00 0.9000E+01
       21  1    1    2  502  501 -.23244475E+02 -.80375709E+02 0.52665160E+03 0.53325700E+03 0.75000000E+00 0.0000E+00 0.9000E+01
#aMCatNLO 1  0  0  1  2 0.24651334D+03 0.00000000D+00  -5  6  0 0.00000000D+00 0.00000000D+00 0.00000000D+00 0.00000000D+00 0.00000000D+00
  <mgrwgt>
 0.1254812624D-01    1    2    0
 0.436444832923088D+03 0.000000000000000D+00 0.000000000000000D+00 0.436444832923088D+03
 0.436444832923088D+03 0.000000000000000D+00 0.000000000000000D+00 -.436444832923088D+03
 0.229148495115741D+03 0.266236674486364D+02 0.951919269422593D+02 -.164662412803932D+03
 0.242253545540116D+03 -.337917070186056D+01 -.148161426084450D+02 -.228010147791629D+03
 0.401487625190318D+03 -.232444967467759D+02 -.803757843338143D+02 0.392672560595561D+03
 0.000000000000000D+00 -.000000000000000D+00 -.000000000000000D+00 0.000000000000000D+00
 0.483753202785669D+03 0.000000000000000D+00 0.000000000000000D+00 0.483753202785669D+03
 0.478477241984633D+03 0.000000000000000D+00 0.000000000000000D+00 -.478477241984633D+03
 0.239533274610244D+03 0.268506076002819D+02 0.117968319164892D+03 -.164662412803932D+03
 0.241953878778619D+03 -.314471288122250D+01 0.871474535385396D+01 -.228010147791629D+03
 0.395535586327311D+03 -.228585705593918D+02 -.416430781594713D+02 0.392672560595561D+03
 0.852077050541277D+02 -.847324159667547D+00 -.850399863592745D+02 0.527596080103576D+01
0.378181405259D-03 0.000000000000D+00 0.000000000000D+00 0.180787359202D-04 0.000000000000D+00  6 -1 2 25 24 21 21 4 0.89614097D-01 0.50310157D-01 0.26385255D+05 0.26385255D+05 0.26385255D+05 0.12207945D+01  1  2 14  1  6  1       -1 0.125481262423D-01 0.100000000000D+01
  </mgrwgt>
  </event>
  <event>
  5     66 0.43535451E-03 0.29394428E+02 0.75467711E-02 0.10201294E+00
       -1 -1    0    0    0  501 0.00000000E+00 0.00000000E+00 0.15798058E+02 0.15801298E+02 0.32000000E+00 0.0000E+00 0.9000E+01
        2 -1    0    0  502    0 0.00000000E+00 0.00000000E+00 -.17359165E+04 0.17359165E+04 0.32000000E+00 0.0000E+00 0.9000E+01
       25  1    1    2    0    0 -.10682397E+03 0.21701643E+02 -.80042345E+03 0.81742585E+03 0.12500000E+03 0.0000E+00 0.9000E+01
       24  1    1    2    0    0 0.78982319E+02 -.31115626E+02 -.85820860E+03 0.86613833E+03 0.80419002E+02 0.0000E+00 0.9000E+01
       21  1    1    2  502  501 0.27841653E+02 0.94139828E+01 -.61486390E+02 0.68153646E+02 0.75000000E+00 0.0000E+00 0.9000E+01
#aMCatNLO 1  0  0  1  2 0.21149935D+02 0.00000000D+00  -5  6  0 0.00000000D+00 0.00000000D+00 0.00000000D+00 0.00000000D+00 0.00000000D+00
  <mgrwgt>
 0.2841651023D+00    5    4    0
 0.165610909379140D+03 0.000000000000000D+00 0.000000000000000D+00 0.165610909379140D+03
 0.165610909379140D+03 0.000000000000000D+00 0.000000000000000D+00 -.165610909379140D+03
 0.166283434301797D+03 -.106826296726226D+03 0.217008567962937D+02 0.119329654850360D+02
 0.123812467892484D+03 0.789805878553748D+02 -.311162109134488D+02 -.406959385156065D+02
 0.411259165639984D+02 0.278457088708513D+02 0.941535411715514D+01 0.287629730305705D+02
 0.000000000000000D+00 -.000000000000000D+00 -.000000000000000D+00 0.000000000000000D+00
 0.722322269687848D+03 0.000000000000000D+00 0.000000000000000D+00 0.722322269687848D+03
 0.367199246582613D+03 0.000000000000000D+00 0.000000000000000D+00 -.367199246582613D+03
 0.134586042667174D+03 0.395794499114386D+02 0.279190680405213D+02 0.119329654850360D+02
 0.299903497624931D+03 0.285164521562528D+03 -.223590734075698D+02 -.406959385156065D+02
 0.102742927638259D+03 0.978535600012659D+02 0.123887593084195D+02 0.287629730305705D+02
 0.552289048340096D+03 -.422597531475232D+03 -.179487539413710D+02 0.355123023105235D+03
 0.165610909379140D+03 0.000000000000000D+00 0.000000000000000D+00 0.165610909379140D+03
 0.165610909379140D+03 0.000000000000000D+00 0.000000000000000D+00 -.165610909379140D+03
 0.166283434301797D+03 -.106826296726226D+03 0.217008567962937D+02 0.119329654850360D+02
 0.123812467892484D+03 0.789805878553748D+02 -.311162109134488D+02 -.406959385156065D+02
 0.000000000000000D+00 -.000000000000000D+00 -.000000000000000D+00 0.000000000000000D+00
 0.411259165639984D+02 0.278457088708513D+02 0.941535411715514D+01 0.287629730305705D+02
 0.722322269687848D+03 0.000000000000000D+00 0.000000000000000D+00 0.722322269687848D+03
 0.367199246582613D+03 0.000000000000000D+00 0.000000000000000D+00 -.367199246582613D+03
 0.134586042667174D+03 0.395794499114386D+02 0.279190680405213D+02 0.119329654850360D+02
 0.299903497624931D+03 0.285164521562528D+03 -.223590734075698D+02 -.406959385156065D+02
 0.552289048340096D+03 -.422597531475232D+03 -.179487539413710D+02 0.355123023105235D+03
 0.102742927638259D+03 0.978535600012659D+02 0.123887593084195D+02 0.287629730305705D+02
0.204253803309D-03 0.000000000000D+00 0.000000000000D+00 0.227066904831D-04 0.000000000000D+00  6 -1 2 25 24 21 21 2 0.24307220D-02 0.26706433D+00 0.24364449D+05 0.24364449D+05 0.24364449D+05 0.12244985D+01  1  2  2  1  6  1       -1 0.181712400766D+00 0.100000000000D+01
0.271240922939D-04 0.107787693306D-04 -.784388385969D-06 0.227066904831D-04 0.000000000000D+00  6 -1 2 25 24 21 21 4 0.24307220D-02 0.26706433D+00 0.24364449D+05 0.24364449D+05 0.24364449D+05 0.12244985D+01  1  2  3  1  6  1       -1 0.361814623414D-01 0.100000000000D+01
0.589632329834D-05 0.000000000000D+00 0.000000000000D+00 0.227066904831D-04 0.000000000000D+00  6 -1 2 25 24 21 21 4 0.24307220D-02 0.26706433D+00 0.24364449D+05 0.24364449D+05 0.24364449D+05 0.12244985D+01  1  2 15  1  6  1       -1 0.786524382308D-02 0.100000000000D+01
0.683710185229D-03 0.000000000000D+00 -.283115876360D-03 0.227066904831D-04 0.000000000000D+00  6 -1 2 25 24 21 21 4 0.32114851D-01 0.26706433D+00 0.24364449D+05 0.24364449D+05 0.24364449D+05 0.12244985D+01  1  2  5  1  6  1       -1 0.171754460278D-01 0.100000000000D+01
0.145028131436D-03 0.000000000000D+00 -.839213011823D-04 0.227066904831D-04 0.000000000000D+00  6 21 2 25 24 1 21 4 0.32114851D-01 0.26706433D+00 0.24364449D+05 0.24364449D+05 0.24364449D+05 0.12244985D+01  3  4  5  4  5  1       -1 0.412305493155D-01 0.100000000000D+01
  </mgrwgt>
  </event>
  <event>
  5     66 0.43535451E-03 0.22420852E+02 0.75467711E-02 0.11796817E+00
       -1 -1    0    0    0  501 0.00000000E+00 0.00000000E+00 0.12092528E+02 0.12096761E+02 0.32000000E+00 0.0000E+00 0.9000E+01
        2 -1    0    0  502    0 -.00000000E+00 -.00000000E+00 -.26764963E+04 0.26764964E+04 0.32000000E+00 0.0000E+00 0.9000E+01
       25  1    1    2    0    0 0.10585669E+03 0.74514869E+02 -.18483222E+04 0.18570617E+04 0.12500000E+03 0.0000E+00 0.9000E+01
       24  1    1    2    0    0 -.85713570E+02 -.64682520E+02 -.74542112E+03 0.75739719E+03 0.80419002E+02 0.0000E+00 0.9000E+01
       21  1    1    2  502  501 -.20143116E+02 -.98323496E+01 -.70660520E+02 0.74134282E+02 0.75000000E+00 0.0000E+00 0.9000E+01
#aMCatNLO 1  0  0  5  2 0.16166710D+01 0.00000000D+00  -5  6  0 0.00000000D+00 0.00000000D+00 0.00000000D+00 0.00000000D+00 0.00000000D+00
  <mgrwgt>
 0.6851954887D+00   25    2    0
 0.179920323393315D+03 0.000000000000000D+00 0.000000000000000D+00 0.179920323393315D+03
 0.179920323393315D+03 -.000000000000000D+00 -.000000000000000D+00 -.179920323393315D+03
 0.189549876845811D+03 0.105859852718703D+03 0.745164150497964D+02 -.595411730045934D+02
 0.139586952875813D+03 -.857112375169756D+02 -.646813812991817D+02 0.385642857488927D+02
 0.307038170650067D+02 -.201486152017276D+02 -.983503375061466D+01 0.209768872557007D+02
 0.000000000000000D+00 0.000000000000000D+00 -.000000000000000D+00 0.000000000000000D+00
 0.179920323393315D+03 0.000000000000000D+00 0.000000000000000D+00 0.179920323393315D+03
 0.179920323393315D+03 -.000000000000000D+00 -.000000000000000D+00 -.179920323393315D+03
 0.189471567351915D+03 0.105787154237557D+03 0.744809291363214D+02 -.594654860242529D+02
 0.139647369984379D+03 -.857647962574283D+02 -.647075246353226D+02 0.386200461894384D+02
 0.874412517150374D+01 -.532112997969411D+01 -.145690478636356D+01 0.678400539486790D+01
 0.219775842788330D+02 -.147012280004347D+02 -.831649971463516D+01 0.140614344399466D+02
0.218757090259D-03 0.000000000000D+00 0.000000000000D+00 0.337978928749D-04 0.000000000000D+00  6 -1 2 25 24 21 21 2 0.18607160D-02 0.41176900D+00 0.28313191D+05 0.28313191D+05 0.28313191D+05 0.12175450D+01  1  2  2  3  6  5       21 0.908489244801D-01 0.100000000000D+01
0.508413363034D-04 0.115441288100D-04 -.840084826659D-06 0.337978928749D-04 0.000000000000D+00  6 -1 2 25 24 21 21 4 0.18607160D-02 0.41176900D+00 0.28313191D+05 0.28313191D+05 0.28313191D+05 0.12175450D+01  1  2  3  3  6  5       21 0.313000236814D-01 0.100000000000D+01
0.449566220485D-05 0.000000000000D+00 0.000000000000D+00 0.337978928749D-04 0.000000000000D+00  6 -1 2 25 24 21 21 4 0.18607160D-02 0.41176900D+00 0.28313191D+05 0.28313191D+05 0.28313191D+05 0.12175450D+01  1  2 15  3  6  5       21 0.276771508592D-02 0.100000000000D+01
0.146023812710D-06 0.000000000000D+00 0.000000000000D+00 0.337982556881D-04 0.000000000000D+00  6 -1 2 25 24 21 21 4 0.18607160D-02 0.41176900D+00 0.28309159D+05 0.28309159D+05 0.28309159D+05 0.12175516D+01  1  2 12  3  6  5       21 0.899003174637D-04 0.100000000000D+01
0.146762867242D-06 0.000000000000D+00 0.000000000000D+00 0.337982556881D-04 0.000000000000D+00  6 -1 2 25 24 21 21 4 0.18607160D-02 0.41176900D+00 0.28309159D+05 0.28309159D+05 0.28309159D+05 0.12175516D+01  1  2 12  3  6  5       21 0.903553202188D-04 0.100000000000D+01
-.481258445686D-02 0.000000000000D+00 0.000000000000D+00 0.337978928749D-04 0.000000000000D+00  6 -1 2 25 24 21 21 4 0.18607160D-02 0.41176900D+00 0.28313191D+05 0.28313191D+05 0.28313191D+05 0.12175450D+01  1  2  4  3  6  5       21 -.296282549635D+01 0.100000000000D+01
-.920498893385D-03 0.000000000000D+00 0.000000000000D+00 0.337978928749D-04 0.000000000000D+00  6 -1 2 25 24 21 21 4 0.18607160D-02 0.41176900D+00 0.28313191D+05 0.28313191D+05 0.28313191D+05 0.12175450D+01  1  2  5  3  6  5       21 -.566697086593D+00 0.100000000000D+01
0.549492197524D-02 0.000000000000D+00 -.000000000000D+00 0.337978928749D-04 0.000000000000D+00  6 -1 2 25 24 21 21 4 0.18607160D-02 0.41176900D+00 0.28313191D+05 0.28313191D+05 0.28313191D+05 0.12175450D+01  1  2  6  3  6  5       21 0.338290061705D+01 0.100000000000D+01
0.110309928968D-02 0.000000000000D+00 0.000000000000D+00 0.337978928749D-04 0.881227542418D-04  6 -1 2 25 24 21 21 4 0.18607160D-02 0.41176900D+00 0.28309159D+05 0.28309159D+05 0.28309159D+05 0.12175516D+01  1  2 11  3  6  5       21 0.679128797531D+00 0.100000000000D+01
0.153030224675D-07 0.000000000000D+00 0.000000000000D+00 0.337982556881D-04 0.000000000000D+00  6 -1 2 25 24 1 -1 4 0.18607160D-02 0.41176900D+00 0.28309159D+05 0.28309159D+05 0.28309159D+05 0.12175516D+01  1  2 12  6  6  5       21 0.942138513202D-05 0.100000000000D+01
0.153683672181D-07 0.000000000000D+00 0.000000000000D+00 0.337982556881D-04 0.000000000000D+00  6 -1 2 25 24 1 -1 4 0.18607160D-02 0.41176900D+00 0.28309159D+05 0.28309159D+05 0.28309159D+05 0.12175516D+01  1  2 12  6  6  5       21 0.946161496653D-05 0.100000000000D+01
-.955624139221D-04 0.000000000000D+00 0.000000000000D+00 0.337978928749D-04 0.000000000000D+00  6 -1 2 25 24 1 -1 4 0.18607160D-02 0.41176900D+00 0.28313191D+05 0.28313191D+05 0.28313191D+05 0.12175450D+01  1  2  5  6  6  5       21 -.588321636741D-01 0.100000000000D+01
0.106535719705D-03 0.000000000000D+00 0.000000000000D+00 0.337978928749D-04 0.223464530061D-05  6 -1 2 25 24 1 -1 4 0.18607160D-02 0.41176900D+00 0.28309159D+05 0.28309159D+05 0.28309159D+05 0.12175516D+01  1  2 11  6  6  5       21 0.655892682501D-01 0.100000000000D+01
0.153030224675D-07 0.000000000000D+00 0.000000000000D+00 0.337982556881D-04 0.000000000000D+00  6 -1 2 25 24 2 -2 4 0.18607160D-02 0.41176900D+00 0.28309159D+05 0.28309159D+05 0.28309159D+05 0.12175516D+01  1  2 12  7  6  5       21 0.942138513202D-05 0.100000000000D+01
0.153683672181D-07 0.000000000000D+00 0.000000000000D+00 0.337982556881D-04 0.000000000000D+00  6 -1 2 25 24 2 -2 4 0.18607160D-02 0.41176900D+00 0.28309159D+05 0.28309159D+05 0.28309159D+05 0.12175516D+01  1  2 12  7  6  5       21 0.946161496653D-05 0.100000000000D+01
-.955624139221D-04 0.000000000000D+00 0.000000000000D+00 0.337978928749D-04 0.000000000000D+00  6 -1 2 25 24 2 -2 4 0.18607160D-02 0.41176900D+00 0.28313191D+05 0.28313191D+05 0.28313191D+05 0.12175450D+01  1  2  5  7  6  5       21 -.588321636741D-01 0.100000000000D+01
0.106932996690D-03 0.000000000000D+00 0.000000000000D+00 0.337978928749D-04 0.224254496099D-05  6 -1 2 25 24 2 -2 4 0.18607160D-02 0.41176900D+00 0.28309159D+05 0.28309159D+05 0.28309159D+05 0.12175516D+01  1  2 11  7  6  5       21 0.658338538855D-01 0.100000000000D+01
0.153030224675D-07 0.000000000000D+00 0.000000000000D+00 0.337982556881D-04 0.000000000000D+00  6 -1 2 25 24 3 -3 4 0.18607160D-02 0.41176900D+00 0.28309159D+05 0.28309159D+05 0.28309159D+05 0.12175516D+01  1  2 12  8  6  5       21 0.942138513202D-05 0.100000000000D+01
0.153030224675D-07 0.000000000000D+00 0.000000000000D+00 0.337982556881D-04 0.000000000000D+00  6 -1 2 25 24 4 -4 4 0.18607160D-02 0.41176900D+00 0.28309159D+05 0.28309159D+05 0.28309159D+05 0.12175516D+01  1  2 12  8  6  5       21 0.942138513202D-05 0.100000000000D+01
0.153683672181D-07 0.000000000000D+00 0.000000000000D+00 0.337982556881D-04 0.000000000000D+00  6 -1 2 25 24 3 -3 4 0.18607160D-02 0.41176900D+00 0.28309159D+05 0.28309159D+05 0.28309159D+05 0.12175516D+01  1  2 12  8  6  5       21 0.946161496653D-05 0.100000000000D+01
0.153683672181D-07 0.000000000000D+00 0.000000000000D+00 0.337982556881D-04 0.000000000000D+00  6 -1 2 25 24 4 -4 4 0.18607160D-02 0.41176900D+00 0.28309159D+05 0.28309159D+05 0.28309159D+05 0.12175516D+01  1  2 12  8  6  5       21 0.946161496653D-05 0.100000000000D+01
-.955624139221D-04 0.000000000000D+00 0.000000000000D+00 0.337978928749D-04 0.000000000000D+00  6 -1 2 25 24 3 -3 4 0.18607160D-02 0.41176900D+00 0.28313191D+05 0.28313191D+05 0.28313191D+05 0.12175450D+01  1  2  5  8  6  5       21 -.588321636741D-01 0.100000000000D+01
-.955624139221D-04 0.000000000000D+00 0.000000000000D+00 0.337978928749D-04 0.000000000000D+00  6 -1 2 25 24 4 -4 4 0.18607160D-02 0.41176900D+00 0.28313191D+05 0.28313191D+05 0.28313191D+05 0.12175450D+01  1  2  5  8  6  5       21 -.588321636741D-01 0.100000000000D+01
0.106733234663D-03 0.000000000000D+00 0.000000000000D+00 0.337978928749D-04 0.223810805292D-05  6 -1 2 25 24 3 -3 4 0.18607160D-02 0.41176900D+00 0.28309159D+05 0.28309159D+05 0.28309159D+05 0.12175516D+01  1  2 11  8  6  5       21 0.657108693580D-01 0.100000000000D+01
0.106733234663D-03 0.000000000000D+00 0.000000000000D+00 0.337978928749D-04 0.223810805292D-05  6 -1 2 25 24 4 -4 4 0.18607160D-02 0.41176900D+00 0.28309159D+05 0.28309159D+05 0.28309159D+05 0.12175516D+01  1  2 11  8  6  5       21 0.657108693580D-01 0.100000000000D+01
  </mgrwgt>
  </event>
  <event>
  5     66 0.43535451E-03 0.12003946E+03 0.75467711E-02 0.95190000E-01
       -1 -1    0    0    0  501 0.00000000E+00 0.00000000E+00 0.21691000E+03 0.21691023E+03 0.32000000E+00 0.0000E+00 0.9000E+01
        2 -1    0    0  502    0 0.00000000E+00 0.00000000E+00 -.17169861E+04 0.17169861E+04 0.32000000E+00 0.0000E+00 0.9000E+01
       25  1    1    2    0    0 -.45257739E+03 -.14414305E+03 -.40615960E+03 0.63733361E+03 0.12500000E+03 0.0000E+00 0.9000E+01
       24  1    1    2    0    0 0.49756860E+03 0.25543053E+03 -.80328567E+03 0.98211728E+03 0.80419002E+02 0.0000E+00 0.9000E+01
       21  1    1    2  502  501 -.44991210E+02 -.11128748E+03 -.29063085E+03 0.31444549E+03 0.75000000E+00 0.0000E+00 0.9000E+01
#aMCatNLO 1  0  0  2  5 0.42186825D+03 0.00000000D+00  -5  6  0 0.00000000D+00 0.00000000D+00 0.00000000D+00 0.00000000D+00 0.00000000D+00
  <mgrwgt>
 0.1107217628D+01    4    2    0
 0.610271833172587D+03 0.000000000000000D+00 0.000000000000000D+00 0.610271833172587D+03
 0.610271833172587D+03 0.000000000000000D+00 0.000000000000000D+00 -.610271833172587D+03
 0.510646604052918D+03 -.452577122930467D+03 -.144142389860304D+03 0.139756479191910D+03
 0.568864570548056D+03 0.497568895907605D+03 0.255431261845684D+03 -.657247895976999D+02
 0.141032491744201D+03 -.449917729771378D+02 -.111288871985380D+03 -.740316895942100D+02
 0.000000000000000D+00 -.000000000000000D+00 -.000000000000000D+00 0.000000000000000D+00
 0.914085377549818D+03 0.000000000000000D+00 0.000000000000000D+00 0.914085377549818D+03
 0.811476555893027D+03 0.000000000000000D+00 0.000000000000000D+00 -.811476555893027D+03
 0.377149489663191D+03 -.316464206870469D+03 -.832782675548177D+02 0.139756479191910D+03
 0.794924058115367D+03 0.706658852994309D+03 0.348927728524603D+03 -.657247895976999D+02
 0.119320916524555D+03 -.507555589029901D+01 -.934399742534792D+02 -.740316895942100D+02
 0.434167469139731D+03 -.385119090233542D+03 -.172209486716306D+03 0.102608821656791D+03
0.861775674147D-01 0.000000000000D+00 0.000000000000D+00 0.875748052534D-06 0.000000000000D+00  6 -1 2 25 24 21 21 2 0.33370789D-01 0.26415173D+00 0.34588761D+06 0.34588761D+06 0.34588761D+06 0.11170881D+01  1  2  2  2  6  2        2 0.103626625999D+01 0.100000000000D+01
0.111607711147D-01 0.454771517389D-02 -.330944549947D-03 0.875748052534D-06 0.000000000000D+00  6 -1 2 25 24 21 21 4 0.33370789D-01 0.26415173D+00 0.34588761D+06 0.34588761D+06 0.34588761D+06 0.11170881D+01  1  2  3  2  6  2        2 0.167473531142D+00 0.100000000000D+01
0.955936157220D-03 0.000000000000D+00 0.000000000000D+00 0.875748052534D-06 0.000000000000D+00  6 -1 2 25 24 21 21 4 0.33370789D-01 0.26415173D+00 0.34588761D+06 0.34588761D+06 0.34588761D+06 0.11170881D+01  1  2 15  2  6  2        2 0.143443497004D-01 0.100000000000D+01
-.738836615948D-02 0.000000000000D+00 0.000000000000D+00 0.875748052534D-06 0.000000000000D+00  6 -1 2 25 24 21 21 4 0.33370789D-01 0.26415173D+00 0.34588761D+06 0.34588761D+06 0.34588761D+06 0.11170881D+01  1  2  4  2  6  2        2 -.110866512482D+00 0.100000000000D+01
  </mgrwgt>
  </event>
  <event>
  5     66 0.43535451E-03 0.24883075E+02 0.75467711E-02 0.12356906E+00
       -1 -1    0    0    0  501 0.00000000E+00 0.00000000E+00 0.22285612E+02 0.22287910E+02 0.32000000E+00 0.0000E+00 0.9000E+01
        2 -1    0    0  502    0 -.00000000E+00 -.00000000E+00 -.84963293E+03 0.84963299E+03 0.32000000E+00 0.0000E+00 0.9000E+01
       25  1    1    2    0    0 -.24027539E+02 0.43653083E+02 -.44473490E+03 0.46464722E+03 0.12500000E+03 0.0000E+00 0.9000E+01
       24  1    1    2    0    0 0.75398173E+01 -.25019555E+02 -.36967083E+03 0.37921836E+03 0.80419002E+02 0.0000E+00 0.9000E+01
       21  1    1    2  502  501 0.16487722E+02 -.18633527E+02 -.12941588E+02 0.28055311E+02 0.75000000E+00 0.0000E+00 0.9000E+01
#aMCatNLO 1  0  0  5  5 0.27532822D+01 0.00000000D+00  -5  6  0 0.00000000D+00 0.00000000D+00 0.00000000D+00 0.00000000D+00 0.00000000D+00
  <mgrwgt>
 0.9228784263D+00    9    2    0
 0.137606750654703D+03 0.000000000000000D+00 0.000000000000000D+00 0.137606750654703D+03
 0.137606750654703D+03 -.000000000000000D+00 -.000000000000000D+00 -.137606750654703D+03
 0.135115454104871D+03 -.240284508172719D+02 0.436541128525292D+02 -.121711922319122D+02
 0.901203272829452D+02 0.753920926376620D+01 -.250188683310333D+02 -.311716856510227D+02
 0.499777199215891D+02 0.164892415535057D+02 -.186352445214959D+02 0.433428778829349D+02
 0.000000000000000D+00 0.000000000000000D+00 0.000000000000000D+00 -.000000000000000D+00
 0.137606750654703D+03 0.000000000000000D+00 0.000000000000000D+00 0.137606750654703D+03
 0.137606750654703D+03 -.000000000000000D+00 -.000000000000000D+00 -.137606750654703D+03
 0.133231737405407D+03 -.213064860028999D+02 0.405778961733002D+02 -.501635808334648D+01
 0.893542879107417D+02 0.935970004245005D+01 -.270762880552709D+02 -.263864255618025D+02
 0.839799796987453D+01 -.430386807904323D+01 0.465033666262904D+01 -.551157494591317D+01
 0.442294780233826D+02 0.162506540394931D+02 -.181519447806583D+02 0.369143585910621D+02
0.455061992672D-03 0.000000000000D+00 0.000000000000D+00 0.436350594374D-04 0.000000000000D+00  6 -1 2 25 24 21 21 2 0.34287371D-02 0.13071294D+00 0.14884841D+05 0.14884841D+05 0.14884841D+05 0.12482043D+01  1  2  2  3  6  5       21 0.780913545007D+00 0.100000000000D+01
0.447607842054D-04 0.240142811084D-04 -.174755787244D-05 0.436350594374D-04 0.000000000000D+00  6 -1 2 25 24 21 21 4 0.34287371D-02 0.13071294D+00 0.14884841D+05 0.14884841D+05 0.14884841D+05 0.12482043D+01  1  2  3  3  6  5       21 0.119674443053D+00 0.100000000000D+01
0.151076609410D-04 0.000000000000D+00 0.000000000000D+00 0.436350594374D-04 0.000000000000D+00  6 -1 2 25 24 21 21 4 0.34287371D-02 0.13071294D+00 0.14884841D+05 0.14884841D+05 0.14884841D+05 0.12482043D+01  1  2 15  3  6  5       21 0.403925208426D-01 0.100000000000D+01
-.273070498255D-04 0.000000000000D+00 0.000000000000D+00 0.436350594374D-04 0.000000000000D+00  6 -1 2 25 24 21 21 4 0.34287371D-02 0.13071294D+00 0.14884841D+05 0.14884841D+05 0.14884841D+05 0.12482043D+01  1  2  4  3  6  5       21 -.730093548920D-01 0.100000000000D+01
0.115672579417D-04 0.000000000000D+00 0.000000000000D+00 0.436350594374D-04 0.390065713354D-05  6 -1 2 25 24 21 21 4 0.34287371D-02 0.13071294D+00 0.15525968D+05 0.15525968D+05 0.15525968D+05 0.12461198D+01  1  2 11  3  6  5       21 0.307616451987D-01 0.100000000000D+01
0.257217460196D-05 0.000000000000D+00 0.000000000000D+00 0.434894438012D-04 0.202292130418D-07  6 -1 2 25 24 1 -1 4 0.34287371D-02 0.13071294D+00 0.15525968D+05 0.15525968D+05 0.15525968D+05 0.12461198D+01  1  2 11  6  6  5       21 0.684036985200D-02 0.100000000000D+01
0.104323510035D-05 0.000000000000D+00 0.000000000000D+00 0.434894438012D-04 0.177011571337D-07  6 -1 2 25 24 2 -2 4 0.34287371D-02 0.13071294D+00 0.15525968D+05 0.15525968D+05 0.15525968D+05 0.12461198D+01  1  2 11  7  6  5       21 0.277435051398D-02 0.100000000000D+01
0.273201816223D-05 0.000000000000D+00 0.000000000000D+00 0.434894438012D-04 0.132908456337D-07  6 -1 2 25 24 3 -3 4 0.34287371D-02 0.13071294D+00 0.15525968D+05 0.15525968D+05 0.15525968D+05 0.12461198D+01  1  2 11  8  6  5       21 0.726545338632D-02 0.100000000000D+01
0.273201816223D-05 0.000000000000D+00 0.000000000000D+00 0.434894438012D-04 0.132908456337D-07  6 -1 2 25 24 4 -4 4 0.34287371D-02 0.13071294D+00 0.15525968D+05 0.15525968D+05 0.15525968D+05 0.12461198D+01  1  2 11  8  6  5       21 0.726545338632D-02 0.100000000000D+01
  </mgrwgt>
  </event>
  <event>
  6     66 0.43535451E-03 0.24178580E+02 0.75467711E-02 0.11892381E+00
       -1 -1    0    0    0  503 0.00000000E+00 0.00000000E+00 0.10644534E+03 0.10644582E+03 0.32000000E+00 0.0000E+00 0.9000E+01
        2 -1    0    0  502    0 0.00000000E+00 0.00000000E+00 -.27826365E+03 0.27826383E+03 0.32000000E+00 0.0000E+00 0.9000E+01
       25  1    1    2    0    0 -.66454900E+02 0.57733518E+02 -.90008293E+02 0.17741450E+03 0.12500000E+03 0.0000E+00 0.9000E+01
       24  1    1    2    0    0 0.94553958E+02 -.37053837E+02 -.75808465E+02 0.15009190E+03 0.80419002E+02 0.0000E+00 0.9000E+01
       21  1    1    2  502  501 -.19821026E+02 -.20221043E+02 -.24158795E+02 0.37228666E+02 0.75000000E+00 0.0000E+00 0.9000E+01
       21  1    1    2  501  503 -.82780318E+01 -.45863757E+00 0.18157241E+02 0.19974585E+02 0.75000000E+00 0.0000E+00 0.9000E+01
#aMCatNLO 2  0  0  1  5 0.82907273D+01 0.00000000D+00  -5  6  0 0.00000000D+00 0.00000000D+00 0.00000000D+00 0.00000000D+00 0.00000000D+00
  <mgrwgt>
 0.8793941670D-01    2    2    0
 0.155621511929050D+03 0.000000000000000D+00 0.000000000000000D+00 0.155621511929050D+03
 0.155621511929050D+03 0.000000000000000D+00 0.000000000000000D+00 -.155621511929050D+03
 0.154649131592331D+03 -.705409189513320D+02 0.575102203854596D+02 0.281197563639463D+01
 0.127156794816604D+03 0.911432731827314D+02 -.372402665520469D+02 0.277503411362915D+01
 0.294370974491645D+02 -.206023542313994D+02 -.202699538334127D+02 -.558700975002379D+01
 0.000000000000000D+00 -.000000000000000D+00 -.000000000000000D+00 0.000000000000000D+00
 0.189639811143661D+03 0.000000000000000D+00 0.000000000000000D+00 0.189639811143661D+03
 0.156182675227189D+03 0.000000000000000D+00 0.000000000000000D+00 -.156182675227189D+03
 0.152912578661817D+03 -.664515836730359D+02 0.577367866561010D+02 0.281197563639463D+01
 0.129571131821664D+03 0.945567233370376D+02 -.370511471429375D+02 0.277503411362915D+01
 0.288697158020878D+02 -.198271078322416D+02 -.202270019418381D+02 -.558700975002379D+01
 0.344690600852812D+02 -.827803183176011D+01 -.458637571325390D+00 0.334571359164717D+02
-.742054471203D-03 0.000000000000D+00 0.000000000000D+00 0.241139982986D-04 0.000000000000D+00  6 -1 2 25 24 21 21 4 0.16603267D-01 0.42654917D-01 0.25447078D+05 0.25447078D+05 0.25447078D+05 0.12224732D+01  1  2 13  1  6  1       -1 -.597828766035D+00 0.100000000000D+01
0.836002906446D-03 0.000000000000D+00 0.000000000000D+00 0.242121145139D-04 0.162199398829D-05  6 -1 2 25 24 21 21 4 0.16375830D-01 0.42808729D-01 0.25447078D+05 0.25447078D+05 0.25447078D+05 0.12224732D+01  1  2  1  1  6  1       -1 0.685768182739D+00 0.100000000000D+01
  </mgrwgt>
  </event>
  <event>
  5     66 0.43535451E-03 0.59554405E+02 0.75467711E-02 0.11761753E+00
       -1 -1    0    0    0  501 0.00000000E+00 0.00000000E+00 0.57286988E+02 0.57287881E+02 0.32000000E+00 0.0000E+00 0.9000E+01
        2 -1    0    0  502    0 0.00000000E+00 0.00000000E+00 -.80037027E+03 0.80037033E+03 0.32000000E+00 0.0000E+00 0.9000E+01
       25  1    1    2    0    0 -.26340970E+02 0.76954884E+02 -.75214753E+02 0.16702742E+03 0.12500000E+03 0.0000E+00 0.9000E+01
       24  1    1    2    0    0 0.79469816E+01 0.14552257E+02 -.28951556E+03 0.30093421E+03 0.80419002E+02 0.0000E+00 0.9000E+01
       21  1    1    2  502  501 0.18393988E+02 -.91507140E+02 -.37835297E+03 0.38969658E+03 0.75000000E+00 0.0000E+00 0.9000E+01
#aMCatNLO 1  0  0  2  5 0.18239039D+02 0.00000000D+00  -5  6  0 0.00000000D+00 0.00000000D+00 0.00000000D+00 0.00000000D+00 0.00000000D+00
  <mgrwgt>
 0.1125494638D+00    9    4    0
 0.214128961982202D+03 0.000000000000000D+00 0.000000000000000D+00 0.214128961982202D+03
 0.214128961982202D+03 0.000000000000000D+00 0.000000000000000D+00 -.214128961982202D+03
 0.203993799284980D+03 -.263411302892920D+02 0.769556817191751D+02 0.139184905981002D+03
 0.100323793961225D+03 0.794690271561713D+01 0.145526492915612D+02 -.576429945112944D+02
 0.123940330718198D+03 0.183942275736749D+02 -.915083310107363D+02 -.815419114697076D+02
 0.000000000000000D+00 -.000000000000000D+00 0.000000000000000D+00 -.000000000000000D+00
 0.216428880001270D+03 0.000000000000000D+00 0.000000000000000D+00 0.216428880001270D+03
 0.253816471008230D+03 0.000000000000000D+00 0.000000000000000D+00 -.253816471008230D+03
 0.202485733678113D+03 -.178303612020250D+02 0.753996850764551D+02 0.139184905981002D+03
 0.100636203524519D+03 0.121545540133621D+02 0.137833778866040D+02 -.576429945112944D+02
 0.125524201198958D+03 0.236174549552189D+02 -.924632769370693D+02 -.815419114697076D+02
 0.415992126079101D+02 -.179416477665559D+02 0.328021397401023D+01 -.373875910069592D+02
 0.214128961982202D+03 0.000000000000000D+00 0.000000000000000D+00 0.214128961982202D+03
 0.214128961982202D+03 0.000000000000000D+00 0.000000000000000D+00 -.214128961982202D+03
 0.203993799284980D+03 -.263411302892920D+02 0.769556817191751D+02 0.139184905981002D+03
 0.100323793961225D+03 0.794690271561713D+01 0.145526492915612D+02 -.576429945112944D+02
 0.000000000000000D+00 -.000000000000000D+00 0.000000000000000D+00 -.000000000000000D+00
 0.123940330718198D+03 0.183942275736749D+02 -.915083310107363D+02 -.815419114697076D+02
 0.216428880001270D+03 0.000000000000000D+00 0.000000000000000D+00 0.216428880001270D+03
 0.253816471008230D+03 0.000000000000000D+00 0.000000000000000D+00 -.253816471008230D+03
 0.202485733678113D+03 -.178303612020250D+02 0.753996850764551D+02 0.139184905981002D+03
 0.100636203524519D+03 0.121545540133621D+02 0.137833778866040D+02 -.576429945112944D+02
 0.415992126079101D+02 -.179416477665559D+02 0.328021397401023D+01 -.373875910069592D+02
 0.125524201198958D+03 0.236174549552189D+02 -.924632769370693D+02 -.815419114697076D+02
0.428295469748D-04 0.000000000000D+00 0.000000000000D+00 0.188827494496D-05 0.000000000000D+00  6 -1 2 25 24 21 21 2 0.88134564D-02 0.12313396D+00 0.26338631D+05 0.26338631D+05 0.26338631D+05 0.12208764D+01  1  2  2  2  6  2        2 0.188537606397D-01 0.100000000000D+01
-.335228530332D-05 0.226017728873D-05 -.164476737662D-06 0.188827494496D-05 0.000000000000D+00  6 -1 2 25 24 21 21 4 0.88134564D-02 0.12313396D+00 0.26338631D+05 0.26338631D+05 0.26338631D+05 0.12208764D+01  1  2  3  2  6  2        2 -.219957541246D-02 0.100000000000D+01
0.164990728534D-05 0.000000000000D+00 0.000000000000D+00 0.188827494496D-05 0.000000000000D+00  6 -1 2 25 24 21 21 4 0.88134564D-02 0.12313396D+00 0.26338631D+05 0.26338631D+05 0.26338631D+05 0.12208764D+01  1  2 15  2  6  2        2 0.108257357871D-02 0.100000000000D+01
0.524593400371D-03 0.000000000000D+00 0.000000000000D+00 0.187242209539D-05 0.000000000000D+00  6 -1 2 25 24 21 21 4 0.88134564D-02 0.15274468D+00 0.29451303D+05 0.29451303D+05 0.29451303D+05 0.12157407D+01  1  2 12  2  6  2        2 0.255208046702D+00 0.100000000000D+01
-.412883511354D-03 0.000000000000D+00 0.000000000000D+00 0.188827494496D-05 0.000000000000D+00  6 -1 2 25 24 21 21 4 0.88134564D-02 0.12313396D+00 0.26338631D+05 0.26338631D+05 0.26338631D+05 0.12208764D+01  1  2  4  2  6  2        2 -.270910241108D+00 0.100000000000D+01
-.843251720637D-03 0.000000000000D+00 -.786700279892D-04 0.188827494496D-05 0.000000000000D+00  6 -1 2 25 24 21 21 4 0.88134564D-02 0.14665604D+00 0.26338631D+05 0.26338631D+05 0.26338631D+05 0.12208764D+01  1  2  5  2  6  2        2 -.440767693599D+00 0.100000000000D+01
0.845242917055D-03 0.000000000000D+00 0.774830296205D-04 0.188827494496D-05 0.000000000000D+00  6 -1 2 25 24 21 21 4 0.88134564D-02 0.12313396D+00 0.26338631D+05 0.26338631D+05 0.26338631D+05 0.12208764D+01  1  2  6  2  6  2        2 0.554599435814D+00 0.100000000000D+01
0.158901204394D-04 0.000000000000D+00 0.000000000000D+00 0.187242209539D-05 0.000000000000D+00  6 -1 21 25 24 -2 21 4 0.88134564D-02 0.15274468D+00 0.29451303D+05 0.29451303D+05 0.29451303D+05 0.12157407D+01  3  4 12  5  5  2        2 0.659989128660D-02 0.100000000000D+01
-.210189172817D-04 0.000000000000D+00 -.202781048736D-05 0.188827494496D-05 0.000000000000D+00  6 -1 21 25 24 -2 21 4 0.88134564D-02 0.14665604D+00 0.26338631D+05 0.26338631D+05 0.26338631D+05 0.12208764D+01  3  4  5  5  5  2        2 -.991673410279D-02 0.100000000000D+01
  </mgrwgt>
  </event>
  <event>
  5     66 0.43535451E-03 0.49117701E+02 0.75467711E-02 0.11238489E+00
       -1 -1    0    0    0  501 0.00000000E+00 0.00000000E+00 0.13232154E+02 0.13236023E+02 0.32000000E+00 0.0000E+00 0.9000E+01
        2 -1    0    0  502    0 0.00000000E+00 0.00000000E+00 -.32109731E+04 0.32109731E+04 0.32000000E+00 0.0000E+00 0.9000E+01
       25  1    1    2    0    0 0.96849799E+02 0.90906009E+02 -.18822946E+04 0.18911112E+04 0.12500000E+03 0.0000E+00 0.9000E+01
       24  1    1    2    0    0 -.11739417E+03 -.46293604E+02 -.11711224E+04 0.11806436E+04 0.80419002E+02 0.0000E+00 0.9000E+01
       21  1    1    2  502  501 0.20544374E+02 -.44612405E+02 -.14432395E+03 0.15245427E+03 0.75000000E+00 0.0000E+00 0.9000E+01
#aMCatNLO 1  0  0  1  1 0.83381932D+02 0.00000000D+00  -5  6  0 0.00000000D+00 0.00000000D+00 0.00000000D+00 0.00000000D+00 0.00000000D+00
  <mgrwgt>
 0.1375861281D+00    4    2    0
 0.206141582587515D+03 0.000000000000000D+00 0.000000000000000D+00 0.206141582587515D+03
 0.206141582587515D+03 0.000000000000000D+00 0.000000000000000D+00 -.206141582587515D+03
 0.189791661924392D+03 0.968492978388756D+02 0.909070978848815D+02 -.524593938040464D+02
 0.149644606235373D+03 -.117394567922688D+03 -.462927460455955D+02 -.133764971970427D+01
 0.728468970152657D+02 0.205452700838125D+02 -.446143518392860D+02 0.537970435237507D+02
 0.000000000000000D+00 0.000000000000000D+00 -.000000000000000D+00 -.000000000000000D+00
 0.233223069241252D+03 0.000000000000000D+00 0.000000000000000D+00 0.233223069241252D+03
 0.286190345652265D+03 0.000000000000000D+00 0.000000000000000D+00 -.286190345652265D+03
 0.198579111273493D+03 0.759134350536066D+02 0.123668208583468D+03 -.524593938040464D+02
 0.157570120440178D+03 -.133955560168148D+03 -.203775733203669D+02 -.133764971970427D+01
 0.644811938378767D+02 0.131423390058876D+02 -.330300074525548D+02 0.537970435237507D+02
 0.987829893419688D+02 0.448997861086533D+02 -.702606278105466D+02 -.529672764110122D+02
0.798927121275D-03 0.000000000000D+00 0.000000000000D+00 0.781686029304D-05 0.000000000000D+00  6 -1 2 25 24 21 21 2 0.20360148D-02 0.49399615D+00 0.36319581D+05 0.36319581D+05 0.36319581D+05 0.12062806D+01  1  2  2  1  6  1       -1 0.139512727002D+00 0.100000000000D+01
0.454306680377D-04 0.421605424852D-04 -.306809050804D-05 0.781686029304D-05 0.000000000000D+00  6 -1 2 25 24 21 21 4 0.20360148D-02 0.49399615D+00 0.36319581D+05 0.36319581D+05 0.36319581D+05 0.12062806D+01  1  2  3  1  6  1       -1 0.115438969356D-01 0.100000000000D+01
0.162772600815D-04 0.000000000000D+00 0.000000000000D+00 0.781686029304D-05 0.000000000000D+00  6 -1 2 25 24 21 21 4 0.20360148D-02 0.49399615D+00 0.36319581D+05 0.36319581D+05 0.36319581D+05 0.12062806D+01  1  2 15  1  6  1       -1 0.413603895542D-02 0.100000000000D+01
-.692900015505D-04 0.000000000000D+00 0.000000000000D+00 0.781686029304D-05 0.000000000000D+00  6 -1 2 25 24 21 21 4 0.20360148D-02 0.49399615D+00 0.36319581D+05 0.36319581D+05 0.36319581D+05 0.12062806D+01  1  2  4  1  6  1       -1 -.176065347730D-01 0.100000000000D+01
  </mgrwgt>
  </event>
  <event>
  5     66 0.43535451E-03 0.23531074E+02 0.75467711E-02 0.12356901E+00
       -1 -1    0    0    0  501 0.00000000E+00 0.00000000E+00 0.10278238E+02 0.10283218E+02 0.32000000E+00 0.0000E+00 0.9000E+01
        2 -1    0    0  502    0 -.00000000E+00 -.00000000E+00 -.30026050E+04 0.30026050E+04 0.32000000E+00 0.0000E+00 0.9000E+01
       25  1    1    2    0    0 0.47266021E+02 -.17945091E+02 -.49859653E+03 0.51650712E+03 0.12500000E+03 0.0000E+00 0.9000E+01
       24  1    1    2    0    0 -.28117963E+02 0.31616005E+02 -.18693683E+04 0.18715756E+04 0.80419002E+02 0.0000E+00 0.9000E+01
       21  1    1    2  502  501 -.19148058E+02 -.13670914E+02 -.62436194E+03 0.62480552E+03 0.75000000E+00 0.0000E+00 0.9000E+01
#aMCatNLO 1  0  0  5  1 0.60593448D+00 0.00000000D+00  -5  6  0 0.00000000D+00 0.00000000D+00 0.00000000D+00 0.00000000D+00 0.00000000D+00
  <mgrwgt>
 0.1065830818D+00   25    2    0
 0.175695805033035D+03 0.000000000000000D+00 0.000000000000000D+00 0.175695805033035D+03
 0.175695805033035D+03 -.000000000000000D+00 -.000000000000000D+00 -.175695805033035D+03
 0.182745656337321D+03 0.472677423320738D+02 -.179438619190481D+02 0.123348097935952D+03
 0.128309265560440D+03 -.281167538512627D+02 0.316168682321411D+02 -.905862763907863D+02
 0.403366881683078D+02 -.191509884808111D+02 -.136730063130930D+02 -.327618215451653D+02
 0.000000000000000D+00 -.000000000000000D+00 0.000000000000000D+00 0.000000000000000D+00
 0.175695805033035D+03 0.000000000000000D+00 0.000000000000000D+00 0.175695805033035D+03
 0.175695805033035D+03 -.000000000000000D+00 -.000000000000000D+00 -.175695805033035D+03
 0.182724813308937D+03 0.472522239559474D+02 -.179549413917844D+02 0.123321550467144D+03
 0.128322898615799D+03 -.281276508040417D+02 0.316090882627527D+02 -.906049179362443D+02
 0.371445857602037D+02 -.171673865137534D+02 -.124136232881026D+02 -.305107038339925D+02
 0.319931238112931D+01 -.195718663815232D+01 -.124052358286558D+01 -.220592869690742D+01
0.262022304711D-04 0.000000000000D+00 0.000000000000D+00 0.211040421092D-04 0.000000000000D+00  6 -1 2 25 24 21 21 2 0.15816518D-02 0.46193961D+00 0.15530025D+05 0.15530025D+05 0.15530025D+05 0.12461070D+01  1  2  2  3  6  5       21 0.949386541216D-02 0.100000000000D+01
0.240249501058D-05 0.138272969031D-05 -.100623464215D-06 0.211040421092D-04 0.000000000000D+00  6 -1 2 25 24 21 21 4 0.15816518D-02 0.46193961D+00 0.15530025D+05 0.15530025D+05 0.15530025D+05 0.12461070D+01  1  2  3  3  6  5       21 0.135169261871D-02 0.100000000000D+01
0.972657801165D-06 0.000000000000D+00 0.000000000000D+00 0.211040421092D-04 0.000000000000D+00  6 -1 2 25 24 21 21 4 0.15816518D-02 0.46193961D+00 0.15530025D+05 0.15530025D+05 0.15530025D+05 0.12461070D+01  1  2 15  3  6  5       21 0.547237086684D-03 0.100000000000D+01
0.189611191423D-11 0.000000000000D+00 0.000000000000D+00 0.211044689707D-04 0.000000000000D+00  6 -1 2 25 24 21 21 4 0.15816518D-02 0.46193961D+00 0.15526055D+05 0.15526055D+05 0.15526055D+05 0.12461196D+01  1  2 12  3  6  5       21 0.106683775382D-08 0.100000000000D+01
0.187491151590D-11 0.000000000000D+00 0.000000000000D+00 0.211044689707D-04 0.000000000000D+00  6 -1 2 25 24 21 21 4 0.15816518D-02 0.46193961D+00 0.15526055D+05 0.15526055D+05 0.15526055D+05 0.12461196D+01  1  2 12  3  6  5       21 0.105490945720D-08 0.100000000000D+01
-.462291545077D-02 0.000000000000D+00 0.000000000000D+00 0.211040421092D-04 0.000000000000D+00  6 -1 2 25 24 21 21 4 0.15816518D-02 0.46193961D+00 0.15530025D+05 0.15530025D+05 0.15530025D+05 0.12461070D+01  1  2  4  3  6  5       21 -.260094637625D+01 0.100000000000D+01
-.492126051802D-02 0.000000000000D+00 0.000000000000D+00 0.211040421092D-04 0.000000000000D+00  6 -1 2 25 24 21 21 4 0.15816518D-02 0.46193961D+00 0.15530025D+05 0.15530025D+05 0.15530025D+05 0.12461070D+01  1  2  5  3  6  5       21 -.276880138675D+01 0.100000000000D+01
0.560083154029D-02 0.000000000000D+00 -.000000000000D+00 0.211040421092D-04 0.000000000000D+00  6 -1 2 25 24 21 21 4 0.15816518D-02 0.46193961D+00 0.15530025D+05 0.15530025D+05 0.15530025D+05 0.12461070D+01  1  2  6  3  6  5       21 0.315114188304D+01 0.100000000000D+01
0.412097990029D-02 0.000000000000D+00 0.000000000000D+00 0.211040421092D-04 0.385110031886D-03  6 -1 2 25 24 21 21 4 0.15816518D-02 0.46193961D+00 0.15526055D+05 0.15526055D+05 0.15526055D+05 0.12461196D+01  1  2 11  3  6  5       21 0.231864844441D+01 0.100000000000D+01
0.207070145085D-12 0.000000000000D+00 0.000000000000D+00 0.211044689707D-04 0.000000000000D+00  6 -1 2 25 24 1 -1 4 0.15816518D-02 0.46193961D+00 0.15526055D+05 0.15526055D+05 0.15526055D+05 0.12461196D+01  1  2 12  6  6  5       21 0.116506967130D-09 0.100000000000D+01
0.206088951447D-12 0.000000000000D+00 0.000000000000D+00 0.211044689707D-04 0.000000000000D+00  6 -1 2 25 24 1 -1 4 0.15816518D-02 0.46193961D+00 0.15526055D+05 0.15526055D+05 0.15526055D+05 0.12461196D+01  1  2 12  6  6  5       21 0.115954903505D-09 0.100000000000D+01
-.253740267940D-04 0.000000000000D+00 0.000000000000D+00 0.211040421092D-04 0.000000000000D+00  6 -1 2 25 24 1 -1 4 0.15816518D-02 0.46193961D+00 0.15530025D+05 0.15530025D+05 0.15530025D+05 0.12461070D+01  1  2  5  6  6  5       21 -.142759442052D-01 0.100000000000D+01
0.231373834250D-04 0.000000000000D+00 0.000000000000D+00 0.211040421092D-04 0.429157703927D-05  6 -1 2 25 24 1 -1 4 0.15816518D-02 0.46193961D+00 0.15526055D+05 0.15526055D+05 0.15526055D+05 0.12461196D+01  1  2 11  6  6  5       21 0.130181314600D-01 0.100000000000D+01
0.207070145085D-12 0.000000000000D+00 0.000000000000D+00 0.211044689707D-04 0.000000000000D+00  6 -1 2 25 24 2 -2 4 0.15816518D-02 0.46193961D+00 0.15526055D+05 0.15526055D+05 0.15526055D+05 0.12461196D+01  1  2 12  7  6  5       21 0.116506967130D-09 0.100000000000D+01
0.206088951447D-12 0.000000000000D+00 0.000000000000D+00 0.211044689707D-04 0.000000000000D+00  6 -1 2 25 24 2 -2 4 0.15816518D-02 0.46193961D+00 0.15526055D+05 0.15526055D+05 0.15526055D+05 0.12461196D+01  1  2 12  7  6  5       21 0.115954903505D-09 0.100000000000D+01
-.253740267940D-04 0.000000000000D+00 0.000000000000D+00 0.211040421092D-04 0.000000000000D+00  6 -1 2 25 24 2 -2 4 0.15816518D-02 0.46193961D+00 0.15530025D+05 0.15530025D+05 0.15530025D+05 0.12461070D+01  1  2  5  7  6  5       21 -.142759442052D-01 0.100000000000D+01
0.232893057904D-04 0.000000000000D+00 0.000000000000D+00 0.211040421092D-04 0.431959853438D-05  6 -1 2 25 24 2 -2 4 0.15816518D-02 0.46193961D+00 0.15526055D+05 0.15526055D+05 0.15526055D+05 0.12461196D+01  1  2 11  7  6  5       21 0.131036098085D-01 0.100000000000D+01
0.207070145085D-12 0.000000000000D+00 0.000000000000D+00 0.211044689707D-04 0.000000000000D+00  6 -1 2 25 24 3 -3 4 0.15816518D-02 0.46193961D+00 0.15526055D+05 0.15526055D+05 0.15526055D+05 0.12461196D+01  1  2 12  8  6  5       21 0.116506967130D-09 0.100000000000D+01
0.207070145085D-12 0.000000000000D+00 0.000000000000D+00 0.211044689707D-04 0.000000000000D+00  6 -1 2 25 24 4 -4 4 0.15816518D-02 0.46193961D+00 0.15526055D+05 0.15526055D+05 0.15526055D+05 0.12461196D+01  1  2 12  8  6  5       21 0.116506967130D-09 0.100000000000D+01
0.206088951447D-12 0.000000000000D+00 0.000000000000D+00 0.211044689707D-04 0.000000000000D+00  6 -1 2 25 24 3 -3 4 0.15816518D-02 0.46193961D+00 0.15526055D+05 0.15526055D+05 0.15526055D+05 0.12461196D+01  1  2 12  8  6  5       21 0.115954903505D-09 0.100000000000D+01
0.206088951447D-12 0.000000000000D+00 0.000000000000D+00 0.211044689707D-04 0.000000000000D+00  6 -1 2 25 24 4 -4 4 0.15816518D-02 0.46193961D+00 0.15526055D+05 0.15526055D+05 0.15526055D+05 0.12461196D+01  1  2 12  8  6  5       21 0.115954903505D-09 0.100000000000D+01
-.253740267940D-04 0.000000000000D+00 0.000000000000D+00 0.211040421092D-04 0.000000000000D+00  6 -1 2 25 24 3 -3 4 0.15816518D-02 0.46193961D+00 0.15530025D+05 0.15530025D+05 0.15530025D+05 0.12461070D+01  1  2  5  8  6  5       21 -.142759442052D-01 0.100000000000D+01
-.253740267940D-04 0.000000000000D+00 0.000000000000D+00 0.211040421092D-04 0.000000000000D+00  6 -1 2 25 24 4 -4 4 0.15816518D-02 0.46193961D+00 0.15530025D+05 0.15530025D+05 0.15530025D+05 0.12461070D+01  1  2  5  8  6  5       21 -.142759442052D-01 0.100000000000D+01
0.232204658717D-04 0.000000000000D+00 0.000000000000D+00 0.211040421092D-04 0.430639398450D-05  6 -1 2 25 24 3 -3 4 0.15816518D-02 0.46193961D+00 0.15526055D+05 0.15526055D+05 0.15526055D+05 0.12461196D+01  1  2 11  8  6  5       21 0.130648773774D-01 0.100000000000D+01
0.232204658717D-04 0.000000000000D+00 0.000000000000D+00 0.211040421092D-04 0.430639398450D-05  6 -1 2 25 24 4 -4 4 0.15816518D-02 0.46193961D+00 0.15526055D+05 0.15526055D+05 0.15526055D+05 0.12461196D+01  1  2 11  8  6  5       21 0.130648773774D-01 0.100000000000D+01
  </mgrwgt>
  </event>
  <event>
  5     66 -.43535451E-03 0.39854152E+02 0.75467711E-02 0.11628698E+00
       -1 -1    0    0    0  501 0.00000000E+00 0.00000000E+00 0.27285489E+02 0.27287366E+02 0.32000000E+00 0.0000E+00 0.9000E+01
        2 -1    0    0  502    0 0.00000000E+00 0.00000000E+00 -.13375188E+04 0.13375188E+04 0.32000000E+00 0.0000E+00 0.9000E+01
       25  1    1    2    0    0 -.11721193E+03 -.47524455E+02 -.48001379E+03 0.51189398E+03 0.12500000E+03 0.0000E+00 0.9000E+01
       24  1    1    2    0    0 0.91672326E+02 0.78113087E+02 -.74349448E+03 0.75746731E+03 0.80419002E+02 0.0000E+00 0.9000E+01
       21  1    1    2  502  501 0.25539602E+02 -.30588632E+02 -.86725030E+02 0.95444901E+02 0.75000000E+00 0.0000E+00 0.9000E+01
#aMCatNLO 1  0  0  1  5 0.76722240D+01 0.00000000D+00  -5  6  0 0.00000000D+00 0.00000000D+00 0.00000000D+00 0.00000000D+00 0.00000000D+00
  <mgrwgt>
 -.4163747337D+00    9    4    0
 0.191039684438494D+03 0.000000000000000D+00 0.000000000000000D+00 0.191039684438494D+03
 0.191039684438494D+03 0.000000000000000D+00 0.000000000000000D+00 -.191039684438494D+03
 0.182438918001193D+03 -.117213737736092D+03 -.475222866756294D+02 0.407618787165166D+02
 0.156106334438674D+03 0.916707767905636D+02 0.781149418781828D+02 -.582794666713018D+02
 0.435341164371204D+02 0.255429609455286D+02 -.305926552025534D+02 0.175175879547852D+02
 0.000000000000000D+00 -.000000000000000D+00 -.000000000000000D+00 0.000000000000000D+00
 0.202694272596446D+03 0.000000000000000D+00 0.000000000000000D+00 0.202694272596446D+03
 0.192345039287841D+03 0.000000000000000D+00 0.000000000000000D+00 -.192345039287841D+03
 0.179965594554057D+03 -.113673173407341D+03 -.466850523636824D+02 0.407618787165166D+02
 0.158290128113710D+03 0.947423193951239D+02 0.788412670117957D+02 -.582794666713018D+02
 0.439006682812591D+02 0.263971679687336D+02 -.303906615758522D+02 0.175175879547852D+02
 0.128829209352606D+02 -.746631395651613D+01 -.176555307226109D+01 0.103492333086049D+02
 0.191039684438494D+03 0.000000000000000D+00 0.000000000000000D+00 0.191039684438494D+03
 0.191039684438494D+03 0.000000000000000D+00 0.000000000000000D+00 -.191039684438494D+03
 0.182438918001193D+03 -.117213737736092D+03 -.475222866756294D+02 0.407618787165166D+02
 0.156106334438674D+03 0.916707767905636D+02 0.781149418781828D+02 -.582794666713018D+02
 0.000000000000000D+00 -.000000000000000D+00 -.000000000000000D+00 0.000000000000000D+00
 0.435341164371204D+02 0.255429609455286D+02 -.305926552025534D+02 0.175175879547852D+02
 0.202694272596446D+03 0.000000000000000D+00 0.000000000000000D+00 0.202694272596446D+03
 0.192345039287841D+03 0.000000000000000D+00 0.000000000000000D+00 -.192345039287841D+03
 0.179965594554057D+03 -.113673173407341D+03 -.466850523636824D+02 0.407618787165166D+02
 0.158290128113710D+03 0.947423193951239D+02 0.788412670117957D+02 -.582794666713018D+02
 0.128829209352606D+02 -.746631395651613D+01 -.176555307226109D+01 0.103492333086049D+02
 0.439006682812591D+02 0.263971679687336D+02 -.303906615758522D+02 0.175175879547852D+02
0.783577258205D-04 0.000000000000D+00 0.000000000000D+00 0.105604983158D-04 0.000000000000D+00  6 -1 2 25 24 21 21 2 0.41979149D-02 0.20577227D+00 0.32851676D+05 0.32851676D+05 0.32851676D+05 0.12107811D+01  1  2  2  1  6  1       -1 0.496476526439D-01 0.100000000000D+01
0.913095798494D-05 0.413505079565D-05 -.300914299214D-06 0.105604983158D-04 0.000000000000D+00  6 -1 2 25 24 21 21 4 0.41979149D-02 0.20577227D+00 0.32851676D+05 0.32851676D+05 0.32851676D+05 0.12107811D+01  1  2  3  1  6  1       -1 0.848134035585D-02 0.100000000000D+01
0.166762821905D-05 0.000000000000D+00 0.000000000000D+00 0.105604983158D-04 0.000000000000D+00  6 -1 2 25 24 21 21 4 0.41979149D-02 0.20577227D+00 0.32851676D+05 0.32851676D+05 0.32851676D+05 0.12107811D+01  1  2 15  1  6  1       -1 0.154898560875D-02 0.100000000000D+01
-.339091119169D-03 0.000000000000D+00 0.000000000000D+00 0.105604983158D-04 0.000000000000D+00  6 -1 2 25 24 21 21 4 0.41979149D-02 0.20577227D+00 0.32851676D+05 0.32851676D+05 0.32851676D+05 0.12107811D+01  1  2  4  1  6  1       -1 -.314966644033D+00 0.100000000000D+01
-.224159650304D-02 0.000000000000D+00 -.236375085004D-03 0.105604983158D-04 0.000000000000D+00  6 -1 2 25 24 21 21 4 0.44847180D-02 0.20577227D+00 0.32851676D+05 0.32851676D+05 0.32851676D+05 0.12107811D+01  1  2  5  1  6  1       -1 -.188774102334D+01 0.100000000000D+01
0.225281178002D-02 0.000000000000D+00 0.235859828954D-03 0.105604983158D-04 0.000000000000D+00  6 -1 2 25 24 21 21 4 0.41979149D-02 0.20577227D+00 0.32851676D+05 0.32851676D+05 0.32851676D+05 0.12107811D+01  1  2  6  1  6  1       -1 0.209253656577D+01 0.100000000000D+01
0.458349613070D-05 0.000000000000D+00 0.000000000000D+00 0.105604983158D-04 0.465029328747D-06  6 -1 2 25 24 21 21 4 0.44540133D-02 0.20717829D+00 0.34296430D+05 0.34296430D+05 0.34296430D+05 0.12088446D+01  1  2 11  1  6  1       -1 0.383210751598D-02 0.100000000000D+01
-.248661378175D-04 0.000000000000D+00 -.265965291185D-05 0.105604983158D-04 0.000000000000D+00  6 21 2 25 24 1 21 4 0.44847180D-02 0.20577227D+00 0.32851676D+05 0.32851676D+05 0.32851676D+05 0.12107811D+01  3  4  5  4  5  1       -1 -.370913700645D+00 0.100000000000D+01
0.809834622875D-07 0.000000000000D+00 0.000000000000D+00 0.105604983158D-04 0.161185571703D-07  6 21 2 25 24 1 21 4 0.44540133D-02 0.20717829D+00 0.34296430D+05 0.34296430D+05 0.34296430D+05 0.12088446D+01  3  4 11  4  5  1       -1 0.119998238577D-02 0.100000000000D+01
  </mgrwgt>
  </event>
  <event>
  5     66 0.43535451E-03 0.26778768E+02 0.75467711E-02 0.12430827E+00
       -1 -1    0    0    0  501 0.00000000E+00 0.00000000E+00 0.17212718E+02 0.17215692E+02 0.32000000E+00 0.0000E+00 0.9000E+01
        2 -1    0    0  502    0 -.00000000E+00 -.00000000E+00 -.14416205E+04 0.14416206E+04 0.32000000E+00 0.0000E+00 0.9000E+01
       25  1    1    2    0    0 -.65971782E+01 0.64003626E+01 -.12027398E+04 0.12092529E+04 0.12500000E+03 0.0000E+00 0.9000E+01
       24  1    1    2    0    0 0.17644857E+02 -.30788532E+02 -.17136376E+03 0.19259291E+03 0.80419002E+02 0.0000E+00 0.9000E+01
       21  1    1    2  502  501 -.11047679E+02 0.24388170E+02 -.50304267E+02 0.56990489E+02 0.75000000E+00 0.0000E+00 0.9000E+01
#aMCatNLO 1  0  0  5  2 0.13053514D+02 0.00000000D+00  -5  6  0 0.00000000D+00 0.00000000D+00 0.00000000D+00 0.00000000D+00 0.00000000D+00
  <mgrwgt>
 0.8194842766D+00    9    2    0
 0.157532229412697D+03 0.000000000000000D+00 0.000000000000000D+00 0.157532229412697D+03
 0.157532229412697D+03 -.000000000000000D+00 -.000000000000000D+00 -.157532229412697D+03
 0.161587430867670D+03 -.659597875505429D+01 0.639771477605528D+01 -.101985587826521D+03
 0.117021887083715D+03 0.176457256722936D+02 -.307904497958521D+02 0.772494832936152D+02
 0.364551408740099D+02 -.110497469172393D+02 0.243927350197968D+02 0.247361045329059D+02
 0.000000000000000D+00 0.000000000000000D+00 0.000000000000000D+00 -.000000000000000D+00
 0.157532229412697D+03 0.000000000000000D+00 0.000000000000000D+00 0.157532229412697D+03
 0.157532229412697D+03 -.000000000000000D+00 -.000000000000000D+00 -.157532229412697D+03
 0.156864106085191D+03 -.106497395426882D+02 0.153465453209546D+02 -.929107871686106D+02
 0.119662310814166D+03 0.146328304302994D+02 -.241393693837106D+02 0.839941890512095D+02
 0.238245050821372D+02 -.203629966835101D+01 0.543028539278495D+01 0.231078455642745D+02
 0.147135368439010D+02 -.194679121926013D+01 0.336253866997106D+01 -.141912474468735D+02
0.318428297477D-03 0.000000000000D+00 0.000000000000D+00 0.192794104324D-04 0.000000000000D+00  6 -1 2 25 24 21 21 2 0.26483420D-02 0.22178801D+00 0.14402084D+05 0.14402084D+05 0.14402084D+05 0.12498415D+01  1  2  2  3  6  5       21 0.367141427366D+00 0.100000000000D+01
0.244142687360D-04 0.168039229196D-04 -.122284850641D-05 0.192794104324D-04 0.000000000000D+00  6 -1 2 25 24 21 21 4 0.26483420D-02 0.22178801D+00 0.14402084D+05 0.14402084D+05 0.14402084D+05 0.12498415D+01  1  2  3  3  6  5       21 0.439719115131D-01 0.100000000000D+01
0.749059076695D-05 0.000000000000D+00 0.000000000000D+00 0.192794104324D-04 0.000000000000D+00  6 -1 2 25 24 21 21 4 0.26483420D-02 0.22178801D+00 0.14402084D+05 0.14402084D+05 0.14402084D+05 0.12498415D+01  1  2 15  3  6  5       21 0.134911103809D-01 0.100000000000D+01
0.295453787613D-03 0.000000000000D+00 0.000000000000D+00 0.195319959303D-04 0.000000000000D+00  6 -1 2 25 24 21 21 4 0.26483420D-02 0.22178801D+00 0.12243684D+05 0.12243684D+05 0.12243684D+05 0.12580021D+01  1  2 12  3  6  5       21 0.544458156419D+00 0.100000000000D+01
-.102789520144D-03 0.000000000000D+00 0.000000000000D+00 0.192794104324D-04 0.000000000000D+00  6 -1 2 25 24 21 21 4 0.26483420D-02 0.22178801D+00 0.14402084D+05 0.14402084D+05 0.14402084D+05 0.12498415D+01  1  2  4  3  6  5       21 -.185131561101D+00 0.100000000000D+01
0.482329860183D-05 0.000000000000D+00 0.000000000000D+00 0.195319959303D-04 0.000000000000D+00  6 -1 2 25 24 1 -1 4 0.26483420D-02 0.22178801D+00 0.12243684D+05 0.12243684D+05 0.12243684D+05 0.12580021D+01  1  2 12  6  6  5       21 0.888830800184D-02 0.100000000000D+01
0.482329860183D-05 0.000000000000D+00 0.000000000000D+00 0.195319959303D-04 0.000000000000D+00  6 -1 2 25 24 2 -2 4 0.26483420D-02 0.22178801D+00 0.12243684D+05 0.12243684D+05 0.12243684D+05 0.12580021D+01  1  2 12  7  6  5       21 0.888830800184D-02 0.100000000000D+01
0.482329860183D-05 0.000000000000D+00 0.000000000000D+00 0.195319959303D-04 0.000000000000D+00  6 -1 2 25 24 3 -3 4 0.26483420D-02 0.22178801D+00 0.12243684D+05 0.12243684D+05 0.12243684D+05 0.12580021D+01  1  2 12  8  6  5       21 0.888830800184D-02 0.100000000000D+01
0.482329860183D-05 0.000000000000D+00 0.000000000000D+00 0.195319959303D-04 0.000000000000D+00  6 -1 2 25 24 4 -4 4 0.26483420D-02 0.22178801D+00 0.12243684D+05 0.12243684D+05 0.12243684D+05 0.12580021D+01  1  2 12  8  6  5       21 0.888830800184D-02 0.100000000000D+01
  </mgrwgt>
  </event>
  <event>
  5     66 0.43535451E-03 0.21515052E+02 0.75467711E-02 0.12110279E+00
       -1 -1    0    0    0  501 0.00000000E+00 0.00000000E+00 0.27122337E+02 0.27124224E+02 0.32000000E+00 0.0000E+00 0.9000E+01
        2 -1    0    0  502    0 -.00000000E+00 -.00000000E+00 -.78788929E+03 0.78788935E+03 0.32000000E+00 0.0000E+00 0.9000E+01
       25  1    1    2    0    0 -.61327542E+02 -.28568766E+02 -.43749030E+03 0.46000001E+03 0.12500000E+03 0.0000E+00 0.9000E+01
       24  1    1    2    0    0 0.81528591E+02 0.35952705E+02 -.30095302E+03 0.32400532E+03 0.80419002E+02 0.0000E+00 0.9000E+01
       21  1    1    2  502  501 -.20201049E+02 -.73839393E+01 -.22323626E+02 0.31008252E+02 0.75000000E+00 0.0000E+00 0.9000E+01
#aMCatNLO 1  0  0  5  2 0.13220996D+01 0.00000000D+00  -5  6  0 0.00000000D+00 0.00000000D+00 0.00000000D+00 0.00000000D+00 0.00000000D+00
  <mgrwgt>
 0.9008566385D+00   25    2    0
 0.146185478974779D+03 0.000000000000000D+00 0.000000000000000D+00 0.146185478974779D+03
 0.146185478974779D+03 -.000000000000000D+00 -.000000000000000D+00 -.146185478974779D+03
 0.143918967200283D+03 -.613240611053168D+02 -.285674935195037D+02 -.226036935822587D+02
 0.120101745562131D+03 0.815314961562681D+02 0.359537672623945D+02 0.414186997168687D+01
 0.283502451871443D+02 -.202074350509513D+02 -.738627374289078D+01 0.184618236105718D+02
 0.000000000000000D+00 0.000000000000000D+00 0.000000000000000D+00 0.000000000000000D+00
 0.146185478974779D+03 0.000000000000000D+00 0.000000000000000D+00 0.146185478974779D+03
 0.146185478974779D+03 -.000000000000000D+00 -.000000000000000D+00 -.146185478974779D+03
 0.143990240388989D+03 -.615240170177174D+02 -.286405819199749D+02 -.224210107838074D+02
 0.119975726333128D+03 0.813647598773501D+02 0.358928213879748D+02 0.429420280181126D+01
 0.265069741057453D+02 -.195385837187300D+02 -.749577491650826D+01 0.162688899716568D+02
 0.189801712169684D+01 -.302159140902762D+00 0.243535448508392D+00 0.185791801033928D+01
0.725412537664D-04 0.000000000000D+00 0.000000000000D+00 0.459893144079D-04 0.000000000000D+00  6 -1 2 25 24 21 21 2 0.41728174D-02 0.12121389D+00 0.20118329D+05 0.20118329D+05 0.20118329D+05 0.12335441D+01  1  2  2  3  6  5       21 0.101137732226D+00 0.100000000000D+01
0.145976112073D-04 0.382810713256D-05 -.278577515014D-06 0.459893144079D-04 0.000000000000D+00  6 -1 2 25 24 21 21 4 0.41728174D-02 0.12121389D+00 0.20118329D+05 0.20118329D+05 0.20118329D+05 0.12335441D+01  1  2  3  3  6  5       21 0.309684385405D-01 0.100000000000D+01
0.117680146561D-05 0.000000000000D+00 0.000000000000D+00 0.459893144079D-04 0.000000000000D+00  6 -1 2 25 24 21 21 4 0.41728174D-02 0.12121389D+00 0.20118329D+05 0.20118329D+05 0.20118329D+05 0.12335441D+01  1  2 15  3  6  5       21 0.249655257594D-02 0.100000000000D+01
0.102859536120D-08 0.000000000000D+00 0.000000000000D+00 0.459951006660D-04 0.000000000000D+00  6 -1 2 25 24 21 21 4 0.41728174D-02 0.12121389D+00 0.20085684D+05 0.20085684D+05 0.20085684D+05 0.12336217D+01  1  2 12  3  6  5       21 0.218258714163D-05 0.100000000000D+01
0.110954626198D-08 0.000000000000D+00 0.000000000000D+00 0.459951006660D-04 0.000000000000D+00  6 -1 2 25 24 21 21 4 0.41728174D-02 0.12121389D+00 0.20085684D+05 0.20085684D+05 0.20085684D+05 0.12336217D+01  1  2 12  3  6  5       21 0.235435769572D-05 0.100000000000D+01
-.154773665120D-02 0.000000000000D+00 0.000000000000D+00 0.459893144079D-04 0.000000000000D+00  6 -1 2 25 24 21 21 4 0.41728174D-02 0.12121389D+00 0.20118329D+05 0.20118329D+05 0.20118329D+05 0.12335441D+01  1  2  4  3  6  5       21 -.328348156961D+01 0.100000000000D+01
-.109223517663D-02 0.000000000000D+00 0.000000000000D+00 0.459893144079D-04 0.000000000000D+00  6 -1 2 25 24 21 21 4 0.41728174D-02 0.12121389D+00 0.20118329D+05 0.20118329D+05 0.20118329D+05 0.12335441D+01  1  2  5  3  6  5       21 -.231714747426D+01 0.100000000000D+01
0.123294038647D-02 0.000000000000D+00 -.000000000000D+00 0.459893144079D-04 0.000000000000D+00  6 -1 2 25 24 21 21 4 0.41728174D-02 0.12121389D+00 0.20118329D+05 0.20118329D+05 0.20118329D+05 0.12335441D+01  1  2  6  3  6  5       21 0.261564978271D+01 0.100000000000D+01
0.176931642086D-02 0.000000000000D+00 0.000000000000D+00 0.459893144079D-04 0.165313903185D-02  6 -1 2 25 24 21 21 4 0.41728174D-02 0.12121389D+00 0.20085684D+05 0.20085684D+05 0.20085684D+05 0.12336217D+01  1  2 11  3  6  5       21 0.375433082365D+01 0.100000000000D+01
0.231902336079D-09 0.000000000000D+00 0.000000000000D+00 0.459951006660D-04 0.000000000000D+00  6 -1 2 25 24 1 -1 4 0.41728174D-02 0.12121389D+00 0.20085684D+05 0.20085684D+05 0.20085684D+05 0.12336217D+01  1  2 12  6  6  5       21 0.492075966828D-06 0.100000000000D+01
0.235774901771D-09 0.000000000000D+00 0.000000000000D+00 0.459951006660D-04 0.000000000000D+00  6 -1 2 25 24 1 -1 4 0.41728174D-02 0.12121389D+00 0.20085684D+05 0.20085684D+05 0.20085684D+05 0.12336217D+01  1  2 12  6  6  5       21 0.500293204046D-06 0.100000000000D+01
-.496511893524D-05 0.000000000000D+00 0.000000000000D+00 0.459893144079D-04 0.000000000000D+00  6 -1 2 25 24 1 -1 4 0.41728174D-02 0.12121389D+00 0.20118329D+05 0.20118329D+05 0.20118329D+05 0.12335441D+01  1  2  5  6  6  5       21 -.105333659328D-01 0.100000000000D+01
0.120813780187D-05 0.000000000000D+00 0.000000000000D+00 0.459893144079D-04 0.224656527921D-05  6 -1 2 25 24 1 -1 4 0.41728174D-02 0.12121389D+00 0.20085684D+05 0.20085684D+05 0.20085684D+05 0.12336217D+01  1  2 11  6  6  5       21 0.256356010452D-02 0.100000000000D+01
0.231902336079D-09 0.000000000000D+00 0.000000000000D+00 0.459951006660D-04 0.000000000000D+00  6 -1 2 25 24 2 -2 4 0.41728174D-02 0.12121389D+00 0.20085684D+05 0.20085684D+05 0.20085684D+05 0.12336217D+01  1  2 12  7  6  5       21 0.492075966828D-06 0.100000000000D+01
0.235774901771D-09 0.000000000000D+00 0.000000000000D+00 0.459951006660D-04 0.000000000000D+00  6 -1 2 25 24 2 -2 4 0.41728174D-02 0.12121389D+00 0.20085684D+05 0.20085684D+05 0.20085684D+05 0.12336217D+01  1  2 12  7  6  5       21 0.500293204046D-06 0.100000000000D+01
-.496511893524D-05 0.000000000000D+00 0.000000000000D+00 0.459893144079D-04 0.000000000000D+00  6 -1 2 25 24 2 -2 4 0.41728174D-02 0.12121389D+00 0.20118329D+05 0.20118329D+05 0.20118329D+05 0.12335441D+01  1  2  5  7  6  5       21 -.105333659328D-01 0.100000000000D+01
0.573122799273D-05 0.000000000000D+00 0.000000000000D+00 0.459893144079D-04 0.193372606697D-05  6 -1 2 25 24 2 -2 4 0.41728174D-02 0.12121389D+00 0.20085684D+05 0.20085684D+05 0.20085684D+05 0.12336217D+01  1  2 11  7  6  5       21 0.121611519889D-01 0.100000000000D+01
0.231902336079D-09 0.000000000000D+00 0.000000000000D+00 0.459951006660D-04 0.000000000000D+00  6 -1 2 25 24 3 -3 4 0.41728174D-02 0.12121389D+00 0.20085684D+05 0.20085684D+05 0.20085684D+05 0.12336217D+01  1  2 12  8  6  5       21 0.492075966828D-06 0.100000000000D+01
0.231902336079D-09 0.000000000000D+00 0.000000000000D+00 0.459951006660D-04 0.000000000000D+00  6 -1 2 25 24 4 -4 4 0.41728174D-02 0.12121389D+00 0.20085684D+05 0.20085684D+05 0.20085684D+05 0.12336217D+01  1  2 12  8  6  5       21 0.492075966828D-06 0.100000000000D+01
0.235774901771D-09 0.000000000000D+00 0.000000000000D+00 0.459951006660D-04 0.000000000000D+00  6 -1 2 25 24 3 -3 4 0.41728174D-02 0.12121389D+00 0.20085684D+05 0.20085684D+05 0.20085684D+05 0.12336217D+01  1  2 12  8  6  5       21 0.500293204046D-06 0.100000000000D+01
0.235774901771D-09 0.000000000000D+00 0.000000000000D+00 0.459951006660D-04 0.000000000000D+00  6 -1 2 25 24 4 -4 4 0.41728174D-02 0.12121389D+00 0.20085684D+05 0.20085684D+05 0.20085684D+05 0.12336217D+01  1  2 12  8  6  5       21 0.500293204046D-06 0.100000000000D+01
-.496511893524D-05 0.000000000000D+00 0.000000000000D+00 0.459893144079D-04 0.000000000000D+00  6 -1 2 25 24 3 -3 4 0.41728174D-02 0.12121389D+00 0.20118329D+05 0.20118329D+05 0.20118329D+05 0.12335441D+01  1  2  5  8  6  5       21 -.105333659328D-01 0.100000000000D+01
-.496511893524D-05 0.000000000000D+00 0.000000000000D+00 0.459893144079D-04 0.000000000000D+00  6 -1 2 25 24 4 -4 4 0.41728174D-02 0.12121389D+00 0.20118329D+05 0.20118329D+05 0.20118329D+05 0.12335441D+01  1  2  5  8  6  5       21 -.105333659328D-01 0.100000000000D+01
0.572658452244D-05 0.000000000000D+00 0.000000000000D+00 0.459893144079D-04 0.193190916644D-05  6 -1 2 25 24 3 -3 4 0.41728174D-02 0.12121389D+00 0.20085684D+05 0.20085684D+05 0.20085684D+05 0.12336217D+01  1  2 11  8  6  5       21 0.121512989612D-01 0.100000000000D+01
0.572658452244D-05 0.000000000000D+00 0.000000000000D+00 0.459893144079D-04 0.193190916644D-05  6 -1 2 25 24 4 -4 4 0.41728174D-02 0.12121389D+00 0.20085684D+05 0.20085684D+05 0.20085684D+05 0.12336217D+01  1  2 11  8  6  5       21 0.121512989612D-01 0.100000000000D+01
  </mgrwgt>
  </event>
  <event>
  6     66 -.43535451E-03 0.66286095E+02 0.75467711E-02 0.11711878E+00
       -1 -1    0    0    0  501 0.00000000E+00 0.00000000E+00 0.78864970E+03 0.78864976E+03 0.32000000E+00 0.0000E+00 0.9000E+01
        2 -1    0    0  502    0 0.00000000E+00 0.00000000E+00 -.54445528E+02 0.54446469E+02 0.32000000E+00 0.0000E+00 0.9000E+01
       25  1    1    2    0    0 0.97922059E+02 0.54675276E+02 0.21475851E+03 0.27262490E+03 0.12500000E+03 0.0000E+00 0.9000E+01
       24  1    1    2    0    0 -.57326577E+02 0.11051413E+00 0.94325257E+02 0.13656800E+03 0.80419002E+02 0.0000E+00 0.9000E+01
       21  1    1    2  503  501 -.53074530E+02 -.50122973E+02 0.34060141E+03 0.34833763E+03 0.75000000E+00 0.0000E+00 0.9000E+01
       21  1    1    2  502  503 0.12479048E+02 -.46628169E+01 0.84518986E+02 0.85565706E+02 0.75000000E+00 0.0000E+00 0.9000E+01
#aMCatNLO 2  0  0  5  2 0.19693100D+02 0.00000000D+00  -5  6  0 0.00000000D+00 0.00000000D+00 0.00000000D+00 0.00000000D+00 0.00000000D+00
  <mgrwgt>
 -.3196596926D-01    2    2    0
 0.207216971059357D+03 0.000000000000000D+00 0.000000000000000D+00 0.207216971059357D+03
 0.207216971059357D+03 -.000000000000000D+00 -.000000000000000D+00 -.207216971059357D+03
 0.176989273251045D+03 0.996538084118083D+02 0.570123652848404D+02 -.501887588966250D+02
 0.111370392899992D+03 -.562312630909783D+02 0.158869872109518D+01 -.526466480214532D+02
 0.126074275967677D+03 -.434225453208300D+02 -.586010640059356D+02 0.102835406918078D+03
 0.000000000000000D+00 0.000000000000000D+00 0.000000000000000D+00 0.000000000000000D+00
 0.207216971059357D+03 0.000000000000000D+00 0.000000000000000D+00 0.207216971059357D+03
 0.207216971059357D+03 -.000000000000000D+00 -.000000000000000D+00 -.207216971059357D+03
 0.174130542569670D+03 0.979118540049709D+02 0.546615039768201D+02 -.460633768183448D+02
 0.110716027395298D+03 -.573330648153494D+02 0.101757941952355D+00 -.500373070021374D+02
 0.105061774339611D+03 -.531324096480535D+02 -.500467434580484D+02 0.755661759097482D+02
 0.245255978141352D+02 0.125536204584319D+02 -.471651846072409D+01 0.205345079107341D+02
-.459456318660D-03 0.000000000000D+00 0.000000000000D+00 0.534963857577D-05 0.000000000000D+00  6 -1 2 25 24 21 21 4 0.12133080D+00 0.83763125D-02 0.31168665D+05 0.31168665D+05 0.31168665D+05 0.12131603D+01  1  2 13  3  6  5       21 -.584096298018D-01 0.100000000000D+01
0.208008627406D-03 0.000000000000D+00 0.000000000000D+00 0.537815487892D-05 0.705644916221D-07  6 -1 2 25 24 21 21 4 0.12133080D+00 0.83763125D-02 0.31168665D+05 0.31168665D+05 0.31168665D+05 0.12131603D+01  1  2  1  3  6  5       21 0.264436605373D-01 0.100000000000D+01
  </mgrwgt>
  </event>
  <event>
  6     66 -.43535451E-03 0.14638891E+02 0.75467711E-02 0.11648544E+00
       21 -1    0    0  503  501 0.00000000E+00 0.00000000E+00 0.28471316E+03 0.28471415E+03 0.75000000E+00 0.0000E+00 0.9000E+01
        2 -1    0    0  502    0 0.00000000E+00 0.00000000E+00 -.21517301E+03 0.21517325E+03 0.32000000E+00 0.0000E+00 0.9000E+01
       25  1    1    2    0    0 -.33135746E+02 0.11619243E+03 0.10707280E+03 0.20417699E+03 0.12500000E+03 0.0000E+00 0.9000E+01
       24  1    1    2    0    0 0.77947863E+01 -.13261440E+03 0.19055859E+02 0.15645344E+03 0.80419002E+02 0.0000E+00 0.9000E+01
        1  1    1    2  503    0 0.33206748E+01 0.14548642E+02 0.38677817E+02 0.41458001E+02 0.32000000E+00 0.0000E+00 0.9000E+01
       21  1    1    2  502  501 0.22020284E+02 0.18733320E+01 -.95266330E+02 0.97798970E+02 0.75000000E+00 0.0000E+00 0.9000E+01
#aMCatNLO 2  0  0  1  5 0.14922797D+02 0.00000000D+00  -5  6  0 0.00000000D+00 0.00000000D+00 0.00000000D+00 0.00000000D+00 0.00000000D+00
  <mgrwgt>
 -.1690926612D+00    2    2    0
 0.228572931649104D+03 0.000000000000000D+00 0.000000000000000D+00 0.228572931649104D+03
 0.228572931649104D+03 0.000000000000000D+00 0.000000000000000D+00 -.228572931649104D+03
 0.200979339056004D+03 -.316894300568628D+02 0.122530133659914D+03 0.935405852843730D+02
 0.151442489658449D+03 0.890918473747348D+01 -.127731159232081D+03 0.854336632255460D+01
 0.000000000000000D+00 0.000000000000000D+00 0.000000000000000D+00 0.000000000000000D+00
 0.104724034583755D+03 0.227802453193893D+02 0.520102557216716D+01 -.102083951606928D+03
 0.266149363125605D+03 0.000000000000000D+00 0.000000000000000D+00 0.266149363125605D+03
 0.230181077325261D+03 0.000000000000000D+00 0.000000000000000D+00 -.230181077325261D+03
 0.197417066524012D+03 -.331360062775682D+02 0.116192349780767D+03 0.935405852843730D+02
 0.155523477517737D+03 0.779459217975091D+01 -.132614446156780D+03 0.854336632255460D+01
 0.389410765696622D+02 0.332067482062023D+01 0.145486418515523D+02 0.359682858003443D+02
 0.104448819839455D+03 0.220207392771970D+02 0.187345452446036D+01 -.102083951606928D+03
-.139809346762D-03 0.000000000000D+00 0.000000000000D+00 0.372181073536D-04 0.000000000000D+00  6 21 2 25 24 1 21 4 0.44091263D-01 0.32872265D-01 0.33518516D+05 0.33518516D+05 0.33518516D+05 0.12098757D+01  1  2 13  4  5  1       -1 -.289875647036D+00 0.100000000000D+01
0.579148974343D-04 0.000000000000D+00 0.000000000000D+00 0.374306378468D-04 0.344292471476D-07  6 21 2 25 24 1 21 4 0.43801995D-01 0.33103541D-01 0.33518516D+05 0.33518516D+05 0.33518516D+05 0.12098757D+01  1  2  1  4  5  1       -1 0.120782985819D+00 0.100000000000D+01
  </mgrwgt>
  </event>
  <event>
  5     66 0.43535451E-03 0.44237934E+02 0.75467711E-02 0.12179537E+00
       -1 -1    0    0    0  501 0.00000000E+00 0.00000000E+00 0.15108406E+03 0.15108440E+03 0.32000000E+00 0.0000E+00 0.9000E+01
        2 -1    0    0  502    0 0.00000000E+00 0.00000000E+00 -.13246985E+03 0.13247024E+03 0.32000000E+00 0.0000E+00 0.9000E+01
       25  1    1    2    0    0 -.67480712E+01 -.43579735E+02 0.29274244E+02 0.13574502E+03 0.12500000E+03 0.0000E+00 0.9000E+01
       24  1    1    2    0    0 -.37547950E+02 0.35819969E+02 -.27820895E+02 0.99670141E+02 0.80419002E+02 0.0000E+00 0.9000E+01
       21  1    1    2  502  501 0.44296022E+02 0.77597661E+01 0.17160853E+02 0.48139473E+02 0.75000000E+00 0.0000E+00 0.9000E+01
#aMCatNLO 1  0  0  5  2 0.20513697D+02 0.00000000D+00  -5  6  0 0.00000000D+00 0.00000000D+00 0.00000000D+00 0.00000000D+00 0.00000000D+00
  <mgrwgt>
 0.2209725026D+00    9    2    0
 0.141471501716196D+03 0.000000000000000D+00 0.000000000000000D+00 0.141471501716196D+03
 0.141471501716196D+03 -.000000000000000D+00 -.000000000000000D+00 -.141471501716196D+03
 0.134112728557824D+03 -.675073191446466D+01 -.435802009487934D+02 0.204063143440088D+02
 0.101716708451684D+03 -.375499684664897D+02 0.358196152087331D+02 -.344387551798591D+02
 0.471135664228845D+02 0.443007003809543D+02 0.776058574006034D+01 0.140324408358503D+02
 0.000000000000000D+00 0.000000000000000D+00 0.000000000000000D+00 -.000000000000000D+00
 0.141471501716196D+03 0.000000000000000D+00 0.000000000000000D+00 0.141471501716196D+03
 0.141471501716196D+03 -.000000000000000D+00 -.000000000000000D+00 -.141471501716196D+03
 0.134103951012854D+03 0.710641305752852D+01 -.411527097185682D+02 0.247956256935172D+02
 0.979607526679738D+02 -.272338332775686D+02 0.376267932206205D+02 -.311710741850141D+02
 0.303425215615655D+02 0.140495472558507D+02 0.121003189556949D+02 0.240179332539280D+02
 0.205357781899995D+02 0.607787296418936D+01 -.857440245774714D+01 -.176424847624311D+02
0.211261598770D-03 0.000000000000D+00 0.000000000000D+00 0.115068712771D-04 0.000000000000D+00  6 -1 2 25 24 21 21 2 0.23243757D-01 0.20380033D-01 0.18664438D+05 0.18664438D+05 0.18664438D+05 0.12371442D+01  1  2  2  3  6  5       21 0.150871871655D+00 0.100000000000D+01
0.497972949562D-05 0.111485808570D-04 -.811300165732D-06 0.115068712771D-04 0.000000000000D+00  6 -1 2 25 24 21 21 4 0.23243757D-01 0.20380033D-01 0.18664438D+05 0.18664438D+05 0.18664438D+05 0.12371442D+01  1  2  3  3  6  5       21 0.544294703000D-02 0.100000000000D+01
0.976133628090D-05 0.000000000000D+00 0.000000000000D+00 0.115068712771D-04 0.000000000000D+00  6 -1 2 25 24 21 21 4 0.23243757D-01 0.20380033D-01 0.18664438D+05 0.18664438D+05 0.18664438D+05 0.12371442D+01  1  2 15  3  6  5       21 0.106693418519D-01 0.100000000000D+01
0.933803766630D-04 0.000000000000D+00 0.000000000000D+00 0.116414299484D-04 0.000000000000D+00  6 -1 2 25 24 21 21 4 0.23243757D-01 0.20380033D-01 0.16092557D+05 0.16092557D+05 0.16092557D+05 0.12443566D+01  1  2 12  3  6  5       21 0.104014497392D+00 0.100000000000D+01
-.547645631011D-04 0.000000000000D+00 0.000000000000D+00 0.115068712771D-04 0.000000000000D+00  6 -1 2 25 24 21 21 4 0.23243757D-01 0.20380033D-01 0.18664438D+05 0.18664438D+05 0.18664438D+05 0.12371442D+01  1  2  4  3  6  5       21 -.598587968168D-01 0.100000000000D+01
0.220684565425D-05 0.000000000000D+00 0.000000000000D+00 0.116414299484D-04 0.000000000000D+00  6 -1 2 25 24 1 -1 4 0.23243757D-01 0.20380033D-01 0.16092557D+05 0.16092557D+05 0.16092557D+05 0.12443566D+01  1  2 12  6  6  5       21 0.245816037322D-02 0.100000000000D+01
0.220684565425D-05 0.000000000000D+00 0.000000000000D+00 0.116414299484D-04 0.000000000000D+00  6 -1 2 25 24 2 -2 4 0.23243757D-01 0.20380033D-01 0.16092557D+05 0.16092557D+05 0.16092557D+05 0.12443566D+01  1  2 12  7  6  5       21 0.245816037322D-02 0.100000000000D+01
0.220684565425D-05 0.000000000000D+00 0.000000000000D+00 0.116414299484D-04 0.000000000000D+00  6 -1 2 25 24 3 -3 4 0.23243757D-01 0.20380033D-01 0.16092557D+05 0.16092557D+05 0.16092557D+05 0.12443566D+01  1  2 12  8  6  5       21 0.245816037322D-02 0.100000000000D+01
0.220684565425D-05 0.000000000000D+00 0.000000000000D+00 0.116414299484D-04 0.000000000000D+00  6 -1 2 25 24 4 -4 4 0.23243757D-01 0.20380033D-01 0.16092557D+05 0.16092557D+05 0.16092557D+05 0.12443566D+01  1  2 12  8  6  5       21 0.245816037322D-02 0.100000000000D+01
  </mgrwgt>
  </event>
  <event>
  6     66 0.43535451E-03 0.32656303E+02 0.75467711E-02 0.12071070E+00
       -1 -1    0    0    0  503 0.00000000E+00 0.00000000E+00 0.14419809E+02 0.14423359E+02 0.32000000E+00 0.0000E+00 0.9000E+01
        2 -1    0    0  502    0 0.00000000E+00 0.00000000E+00 -.15905908E+04 0.15905909E+04 0.32000000E+00 0.0000E+00 0.9000E+01
       25  1    1    2    0    0 -.61943681E+02 0.11476795E+02 -.76289930E+03 0.77563463E+03 0.12500000E+03 0.0000E+00 0.9000E+01
       24  1    1    2    0    0 0.69728874E+02 0.21406972E+02 -.70836281E+03 0.71663482E+03 0.80419002E+02 0.0000E+00 0.9000E+01
       21  1    1    2  502  501 -.28397362E+01 -.35286925E+02 -.95051886E+02 0.10143301E+03 0.75000000E+00 0.0000E+00 0.9000E+01
       21  1    1    2  501  503 -.49454575E+01 0.24031587E+01 -.98570401E+01 0.11311784E+02 0.75000000E+00 0.0000E+00 0.9000E+01
#aMCatNLO 2  0  0  1  1 0.54984290D+01 0.00000000D+00  -5  6  0 0.00000000D+00 0.00000000D+00 0.00000000D+00 0.00000000D+00 0.00000000D+00
  <mgrwgt>
 0.7797810408D-01    2    2    0
 0.147069490785309D+03 0.000000000000000D+00 0.000000000000000D+00 0.147069490785309D+03
 0.147069490785309D+03 0.000000000000000D+00 0.000000000000000D+00 -.147069490785309D+03
 0.141174503184996D+03 -.643070785187470D+02 0.126279014946556D+02 -.322119632363311D+01
 0.109781171995730D+03 0.678752403089501D+02 0.223097773243682D+02 -.219069705601853D+02
 0.431833063898929D+02 -.356816179020312D+01 -.349376788190238D+02 0.251281668838184D+02
 0.000000000000000D+00 -.000000000000000D+00 0.000000000000000D+00 0.000000000000000D+00
 0.154891513120729D+03 0.000000000000000D+00 0.000000000000000D+00 0.154891513120729D+03
 0.148064638297352D+03 0.000000000000000D+00 0.000000000000000D+00 -.148064638297352D+03
 0.140014778678794D+03 -.619434200460122D+02 0.114793229643427D+02 -.322119632363311D+01
 0.110759286330578D+03 0.697290887894064D+02 0.214089320509638D+02 -.219069705601853D+02
 0.434163039717985D+02 -.284021120328816D+01 -.352914136859278D+02 0.251281668838184D+02
 0.876578243690921D+01 -.494545754010605D+01 0.240315867062128D+01 0.682687482337651D+01
-.303807496041D-04 0.000000000000D+00 0.000000000000D+00 0.184786865401D-04 0.000000000000D+00  6 -1 2 25 24 21 21 4 0.21064363D-02 0.24303573D+00 0.20139917D+05 0.20139917D+05 0.20139917D+05 0.12334929D+01  1  2  8  1  6  1       -1 -.616586168857D-01 0.100000000000D+01
0.755166582648D-04 0.000000000000D+00 0.000000000000D+00 0.184786865401D-04 0.165143950413D-05  6 -1 2 25 24 21 21 4 0.22184690D-02 0.24468023D+00 0.20945740D+05 0.20945740D+05 0.20945740D+05 0.12316231D+01  1  2  1  1  6  1       -1 0.139636720969D+00 0.100000000000D+01
  </mgrwgt>
  </event>
  <event>
  6     66 -.43535451E-03 0.15874413E+02 0.75467711E-02 0.11369453E+00
       -1 -1    0    0    0  501 0.00000000E+00 0.00000000E+00 0.57139155E+02 0.57140051E+02 0.32000000E+00 0.0000E+00 0.9000E+01
        2 -1    0    0  502    0 -.00000000E+00 -.00000000E+00 -.90148584E+03 0.90148590E+03 0.32000000E+00 0.0000E+00 0.9000E+01
       25  1    1    2    0    0 0.15691033E+03 0.38709962E+02 -.28927848E+03 0.35415583E+03 0.12500000E+03 0.0000E+00 0.9000E+01
       24  1    1    2    0    0 -.17084185E+03 -.32667101E+02 -.47945562E+03 0.51633224E+03 0.80419002E+02 0.0000E+00 0.9000E+01
        2  1    1    2  502    0 0.33149539E+01 0.13277722E+02 -.58905474E+02 0.60475152E+02 0.32000000E+00 0.0000E+00 0.9000E+01
       -2  1    1    2    0  501 0.10616564E+02 -.19320583E+02 -.16707109E+02 0.27662723E+02 0.32000000E+00 0.0000E+00 0.9000E+01
#aMCatNLO 2  0  0  5  2 0.16771075D+02 0.00000000D+00  -5  6  0 0.00000000D+00 0.00000000D+00 0.00000000D+00 0.00000000D+00 0.00000000D+00
  <mgrwgt>
 -.8188189961D-02    3    2    0
 0.226959458090208D+03 0.000000000000000D+00 0.000000000000000D+00 0.226959458090208D+03
 0.226959458090208D+03 -.000000000000000D+00 -.000000000000000D+00 -.226959458090208D+03
 0.201061737916715D+03 0.144628196703620D+03 0.440373935862334D+02 0.440932550225076D+02
 0.209374057704196D+03 -.183036015022816D+03 -.273778226410808D+02 -.558439980405266D+02
 0.434831205595052D+02 0.384078183191961D+02 -.166595709451525D+02 0.117507430180190D+02
 0.000000000000000D+00 -.000000000000000D+00 0.000000000000000D+00 0.000000000000000D+00
 0.226959458090208D+03 0.000000000000000D+00 0.000000000000000D+00 0.226959458090208D+03
 0.226959458090208D+03 -.000000000000000D+00 -.000000000000000D+00 -.226959458090208D+03
 0.209708408708618D+03 0.156727948950212D+03 0.387890694222411D+02 0.477951335840487D+02
 0.198737884501196D+03 -.171014563536799D+03 -.325921834837252D+02 -.521660753337019D+02
 0.177701617801500D+02 0.261734171720517D+01 0.131082033126643D+02 -.117091066244157D+02
 0.277024611904523D+02 0.116692728693819D+02 -.193050892511802D+02 0.160800483740688D+02
-.105852662989D-04 0.000000000000D+00 0.000000000000D+00 0.887808335782D-05 0.000000000000D+00  6 -1 2 25 24 2 -2 4 0.87907125D-02 0.13869020D+00 0.46630803D+05 0.46630803D+05 0.46630803D+05 0.11952940D+01  1  2 13  7  6  5       21 -.552430244282D-02 0.100000000000D+01
-.116689474793D-04 0.000000000000D+00 0.000000000000D+00 0.887808335782D-05 0.000000000000D+00  6 -1 2 25 24 2 -2 4 0.87907125D-02 0.13869020D+00 0.46630803D+05 0.46630803D+05 0.46630803D+05 0.11952940D+01  1  2 13  7  6  5       21 -.608986049519D-02 0.100000000000D+01
0.656460008707D-05 0.000000000000D+00 0.000000000000D+00 0.887808335782D-05 0.497797644833D-08  6 -1 2 25 24 2 -2 4 0.87907125D-02 0.13869020D+00 0.46630803D+05 0.46630803D+05 0.46630803D+05 0.11952940D+01  1  2  1  7  6  5       21 0.342597297725D-02 0.100000000000D+01
  </mgrwgt>
  </event>
  <event>
  5     66 0.43535451E-03 0.87691844E+02 0.75467711E-02 0.11726826E+00
       -1 -1    0    0    0  501 0.00000000E+00 0.00000000E+00 0.32592274E+02 0.32593845E+02 0.32000000E+00 0.0000E+00 0.9000E+01
        2 -1    0    0  502    0 -.00000000E+00 -.00000000E+00 -.14318097E+04 0.14318097E+04 0.32000000E+00 0.0000E+00 0.9000E+01
       25  1    1    2    0    0 0.50080795E+02 -.80673838E+02 -.42257970E+03 0.45079370E+03 0.12500000E+03 0.0000E+00 0.9000E+01
       24  1    1    2    0    0 -.53159414E+02 -.23940018E+02 -.81510029E+03 0.82113016E+03 0.80419002E+02 0.0000E+00 0.9000E+01
       21  1    1    2  502  501 0.30786190E+01 0.10461386E+03 -.16153743E+03 0.19247972E+03 0.75000000E+00 0.0000E+00 0.9000E+01
#aMCatNLO 1  0  0  5  2 0.35852102D+02 0.00000000D+00  -5  6  0 0.00000000D+00 0.00000000D+00 0.00000000D+00 0.00000000D+00 0.00000000D+00
  <mgrwgt>
 0.3449518873D-01   15    2    0
 0.216025717321422D+03 0.000000000000000D+00 0.000000000000000D+00 0.216025717321422D+03
 0.216025717321422D+03 -.000000000000000D+00 -.000000000000000D+00 -.216025717321422D+03
 0.159386411552299D+03 0.500807760698793D+02 -.806744876943583D+02 0.276146897684976D+02
 0.143417183806496D+03 -.531594313722429D+02 -.239406024890330D+02 -.103451414032180D+03
 0.129247839284050D+03 0.307865530236360D+01 0.104615090183391D+03 0.758367242636823D+02
 0.000000000000000D+00 0.000000000000000D+00 0.000000000000000D+00 0.000000000000000D+00
 0.216025717321422D+03 0.000000000000000D+00 0.000000000000000D+00 0.216025717321422D+03
 0.216025717321422D+03 -.000000000000000D+00 -.000000000000000D+00 -.216025717321422D+03
 0.156666848044335D+03 0.503194339375508D+02 -.725647086196206D+02 0.334935651625935D+02
 0.138543075124519D+03 -.529465177821395D+02 -.167056338932188D+02 -.982066991684319D+02
 0.427655513371479D+02 0.781512742024322D+01 -.187593896753899D+01 0.420035357745710D+02
 0.940759601368428D+02 -.518804357565461D+01 0.911462814803784D+02 0.227095982312674D+02
0.720966822240D-04 0.000000000000D+00 0.000000000000D+00 0.191657074595D-05 0.000000000000D+00  6 -1 2 25 24 21 21 2 0.50143196D-02 0.22027854D+00 0.32574036D+05 0.32574036D+05 0.32574036D+05 0.12111641D+01  1  2  2  3  6  5       21 0.312394968189D-01 0.100000000000D+01
-.551892129079D-05 0.380464644772D-05 -.276870243232D-06 0.191657074595D-05 0.000000000000D+00  6 -1 2 25 24 21 21 4 0.50143196D-02 0.22027854D+00 0.32574036D+05 0.32574036D+05 0.32574036D+05 0.12111641D+01  1  2  3  3  6  5       21 -.350791383388D-02 0.100000000000D+01
0.356192077366D-05 0.000000000000D+00 0.000000000000D+00 0.191657074595D-05 0.000000000000D+00  6 -1 2 25 24 21 21 4 0.50143196D-02 0.22027854D+00 0.32574036D+05 0.32574036D+05 0.32574036D+05 0.12111641D+01  1  2 15  3  6  5       21 0.226401329150D-02 0.100000000000D+01
0.100739193030D-04 0.000000000000D+00 0.000000000000D+00 0.192534793873D-05 0.000000000000D+00  6 -1 2 25 24 21 21 4 0.50143196D-02 0.22027854D+00 0.30642125D+05 0.30642125D+05 0.30642125D+05 0.12139343D+01  1  2 12  3  6  5       21 0.646037280718D-02 0.100000000000D+01
-.330551429603D-04 0.000000000000D+00 0.000000000000D+00 0.191657074595D-05 0.000000000000D+00  6 -1 2 25 24 21 21 4 0.50143196D-02 0.22027854D+00 0.32574036D+05 0.32574036D+05 0.32574036D+05 0.12111641D+01  1  2  4  3  6  5       21 -.210103727090D-01 0.100000000000D+01
-.119869569950D-04 0.000000000000D+00 0.000000000000D+00 0.191657074595D-05 0.000000000000D+00  6 -1 2 25 24 21 21 4 0.50143196D-02 0.22027854D+00 0.32574036D+05 0.32574036D+05 0.32574036D+05 0.12111641D+01  1  2  5  3  6  5       21 -.761909983011D-02 0.100000000000D+01
0.413497504157D-04 0.000000000000D+00 -.000000000000D+00 0.191657074595D-05 0.000000000000D+00  6 -1 2 25 24 21 21 4 0.50143196D-02 0.22027854D+00 0.32574036D+05 0.32574036D+05 0.32574036D+05 0.12111641D+01  1  2  6  3  6  5       21 0.262825566570D-01 0.100000000000D+01
0.962112382559D-06 0.000000000000D+00 0.000000000000D+00 0.192534793873D-05 0.000000000000D+00  6 -1 2 25 24 1 -1 4 0.50143196D-02 0.22027854D+00 0.30642125D+05 0.30642125D+05 0.30642125D+05 0.12139343D+01  1  2 12  6  6  5       21 0.616999648971D-03 0.100000000000D+01
-.818836989927D-06 0.000000000000D+00 0.000000000000D+00 0.191657074595D-05 0.000000000000D+00  6 -1 2 25 24 1 -1 4 0.50143196D-02 0.22027854D+00 0.32574036D+05 0.32574036D+05 0.32574036D+05 0.12111641D+01  1  2  5  6  6  5       21 -.520465767369D-03 0.100000000000D+01
0.962112382559D-06 0.000000000000D+00 0.000000000000D+00 0.192534793873D-05 0.000000000000D+00  6 -1 2 25 24 2 -2 4 0.50143196D-02 0.22027854D+00 0.30642125D+05 0.30642125D+05 0.30642125D+05 0.12139343D+01  1  2 12  7  6  5       21 0.616999648971D-03 0.100000000000D+01
-.818836989927D-06 0.000000000000D+00 0.000000000000D+00 0.191657074595D-05 0.000000000000D+00  6 -1 2 25 24 2 -2 4 0.50143196D-02 0.22027854D+00 0.32574036D+05 0.32574036D+05 0.32574036D+05 0.12111641D+01  1  2  5  7  6  5       21 -.520465767369D-03 0.100000000000D+01
0.962112382559D-06 0.000000000000D+00 0.000000000000D+00 0.192534793873D-05 0.000000000000D+00  6 -1 2 25 24 3 -3 4 0.50143196D-02 0.22027854D+00 0.30642125D+05 0.30642125D+05 0.30642125D+05 0.12139343D+01  1  2 12  8  6  5       21 0.616999648971D-03 0.100000000000D+01
0.962112382559D-06 0.000000000000D+00 0.000000000000D+00 0.192534793873D-05 0.000000000000D+00  6 -1 2 25 24 4 -4 4 0.50143196D-02 0.22027854D+00 0.30642125D+05 0.30642125D+05 0.30642125D+05 0.12139343D+01  1  2 12  8  6  5       21 0.616999648971D-03 0.100000000000D+01
-.818836989927D-06 0.000000000000D+00 0.000000000000D+00 0.191657074595D-05 0.000000000000D+00  6 -1 2 25 24 3 -3 4 0.50143196D-02 0.22027854D+00 0.32574036D+05 0.32574036D+05 0.32574036D+05 0.12111641D+01  1  2  5  8  6  5       21 -.520465767369D-03 0.100000000000D+01
-.818836989927D-06 0.000000000000D+00 0.000000000000D+00 0.191657074595D-05 0.000000000000D+00  6 -1 2 25 24 4 -4 4 0.50143196D-02 0.22027854D+00 0.32574036D+05 0.32574036D+05 0.32574036D+05 0.12111641D+01  1  2  5  8  6  5       21 -.520465767369D-03 0.100000000000D+01
  </mgrwgt>
  </event>
  <event>
  5     66 0.43535451E-03 0.30665446E+02 0.75467711E-02 0.12316354E+00
       -1 -1    0    0    0  501 0.00000000E+00 0.00000000E+00 0.84587792E+03 0.84587798E+03 0.32000000E+00 0.0000E+00 0.9000E+01
        2 -1    0    0  502    0 0.00000000E+00 0.00000000E+00 -.20452714E+02 0.20455218E+02 0.32000000E+00 0.0000E+00 0.9000E+01
       25  1    1    2    0    0 -.38283813E+02 -.13384950E+02 0.46626557E+03 0.48443100E+03 0.12500000E+03 0.0000E+00 0.9000E+01
       24  1    1    2    0    0 0.38800312E+02 -.17269862E+02 0.19850365E+03 0.21834520E+03 0.80419002E+02 0.0000E+00 0.9000E+01
       21  1    1    2  502  501 -.51649942E+00 0.30654812E+02 0.16065598E+03 0.16355699E+03 0.75000000E+00 0.0000E+00 0.9000E+01
#aMCatNLO 1  0  0  5  1 0.68586119D+01 0.00000000D+00  -5  6  0 0.00000000D+00 0.00000000D+00 0.00000000D+00 0.00000000D+00 0.00000000D+00
  <mgrwgt>
 0.6374389220D+00   19    2    0
 0.131535584115700D+03 0.000000000000000D+00 0.000000000000000D+00 0.131535584115700D+03
 0.131535584115700D+03 -.000000000000000D+00 -.000000000000000D+00 -.131535584115700D+03
 0.132326675756855D+03 -.382837514181412D+02 -.133885878707437D+02 0.155064247665681D+02
 0.962098145061740D+02 0.388003566833126D+02 -.172725063956085D+02 -.313895730618186D+02
 0.345346779683705D+02 -.516605265171348D+00 0.306610942663522D+02 0.158831482952505D+02
 0.000000000000000D+00 0.000000000000000D+00 0.000000000000000D+00 -.000000000000000D+00
 0.131535584115700D+03 0.000000000000000D+00 0.000000000000000D+00 0.131535584115700D+03
 0.131535584115700D+03 -.000000000000000D+00 -.000000000000000D+00 -.131535584115700D+03
 0.132260633911663D+03 -.383483919614424D+02 -.955210008170170D+01 0.174938132125553D+02
 0.952694780566580D+02 0.387535769435069D+02 -.144960770623496D+02 -.299513191479710D+02
 0.689679377160260D+01 -.455598087534516D+01 -.305759424091562D+01 0.417850691628305D+01
 0.286442624914758D+02 0.415079589328065D+01 0.271057713849669D+02 0.827899901913260D+01
0.288528523024D-02 0.000000000000D+00 0.000000000000D+00 0.254482637728D-04 0.000000000000D+00  6 -1 2 25 24 21 21 2 0.13013526D+00 0.31467686D-02 0.16005489D+05 0.16005489D+05 0.16005489D+05 0.12446230D+01  1  2  2  3  6  5       21 0.787917536515D+00 0.100000000000D+01
0.256423154043D-03 0.152260684726D-03 -.110802549972D-04 0.254482637728D-04 0.000000000000D+00  6 -1 2 25 24 21 21 4 0.13013526D+00 0.31467686D-02 0.16005489D+05 0.16005489D+05 0.16005489D+05 0.12446230D+01  1  2  3  3  6  5       21 0.108473808491D+00 0.100000000000D+01
0.123360827641D-03 0.000000000000D+00 0.000000000000D+00 0.254482637728D-04 0.000000000000D+00  6 -1 2 25 24 21 21 4 0.13013526D+00 0.31467686D-02 0.16005489D+05 0.16005489D+05 0.16005489D+05 0.12446230D+01  1  2 15  3  6  5       21 0.521849083512D-01 0.100000000000D+01
0.144174916600D-03 0.000000000000D+00 0.000000000000D+00 0.254257944232D-04 0.000000000000D+00  6 -1 2 25 24 21 21 4 0.13013526D+00 0.31467686D-02 0.16185705D+05 0.16185705D+05 0.16185705D+05 0.12440734D+01  1  2 12  3  6  5       21 0.608977341603D-01 0.100000000000D+01
0.199440712332D-03 0.000000000000D+00 0.000000000000D+00 0.254257944232D-04 0.000000000000D+00  6 -1 2 25 24 21 21 4 0.13013526D+00 0.31467686D-02 0.16185705D+05 0.16185705D+05 0.16185705D+05 0.12440734D+01  1  2 12  3  6  5       21 0.842413352246D-01 0.100000000000D+01
-.134677218959D-02 0.000000000000D+00 0.000000000000D+00 0.254482637728D-04 0.000000000000D+00  6 -1 2 25 24 21 21 4 0.13013526D+00 0.31467686D-02 0.16005489D+05 0.16005489D+05 0.16005489D+05 0.12446230D+01  1  2  4  3  6  5       21 -.569720426068D+00 0.100000000000D+01
0.758667566726D-05 0.000000000000D+00 0.000000000000D+00 0.254482637728D-04 0.242922241649D-05  6 -1 2 25 24 21 21 4 0.13013526D+00 0.31467686D-02 0.16185705D+05 0.16185705D+05 0.16185705D+05 0.12440734D+01  1  2 11  3  6  5       21 0.320451968234D-02 0.100000000000D+01
0.286808022634D-04 0.000000000000D+00 0.000000000000D+00 0.254257944232D-04 0.000000000000D+00  6 -1 2 25 24 1 -1 4 0.13013526D+00 0.31467686D-02 0.16185705D+05 0.16185705D+05 0.16185705D+05 0.12440734D+01  1  2 12  6  6  5       21 0.121144226258D-01 0.100000000000D+01
0.328772307882D-04 0.000000000000D+00 0.000000000000D+00 0.254257944232D-04 0.000000000000D+00  6 -1 2 25 24 1 -1 4 0.13013526D+00 0.31467686D-02 0.16185705D+05 0.16185705D+05 0.16185705D+05 0.12440734D+01  1  2 12  6  6  5       21 0.138869430805D-01 0.100000000000D+01
0.369429183560D-05 0.000000000000D+00 0.000000000000D+00 0.254257944232D-04 0.704089767333D-07  6 -1 2 25 24 1 -1 4 0.13013526D+00 0.31467686D-02 0.16185705D+05 0.16185705D+05 0.16185705D+05 0.12440734D+01  1  2 11  6  6  5       21 0.156042401425D-02 0.100000000000D+01
0.286808022634D-04 0.000000000000D+00 0.000000000000D+00 0.254257944232D-04 0.000000000000D+00  6 -1 2 25 24 2 -2 4 0.13013526D+00 0.31467686D-02 0.16185705D+05 0.16185705D+05 0.16185705D+05 0.12440734D+01  1  2 12  7  6  5       21 0.121144226258D-01 0.100000000000D+01
0.328772307882D-04 0.000000000000D+00 0.000000000000D+00 0.254257944232D-04 0.000000000000D+00  6 -1 2 25 24 2 -2 4 0.13013526D+00 0.31467686D-02 0.16185705D+05 0.16185705D+05 0.16185705D+05 0.12440734D+01  1  2 12  7  6  5       21 0.138869430805D-01 0.100000000000D+01
0.361581845590D-05 0.000000000000D+00 0.000000000000D+00 0.254257944232D-04 0.720147749596D-07  6 -1 2 25 24 2 -2 4 0.13013526D+00 0.31467686D-02 0.16185705D+05 0.16185705D+05 0.16185705D+05 0.12440734D+01  1  2 11  7  6  5       21 0.152727781150D-02 0.100000000000D+01
0.286808022634D-04 0.000000000000D+00 0.000000000000D+00 0.254257944232D-04 0.000000000000D+00  6 -1 2 25 24 3 -3 4 0.13013526D+00 0.31467686D-02 0.16185705D+05 0.16185705D+05 0.16185705D+05 0.12440734D+01  1  2 12  8  6  5       21 0.121144226258D-01 0.100000000000D+01
0.286808022634D-04 0.000000000000D+00 0.000000000000D+00 0.254257944232D-04 0.000000000000D+00  6 -1 2 25 24 4 -4 4 0.13013526D+00 0.31467686D-02 0.16185705D+05 0.16185705D+05 0.16185705D+05 0.12440734D+01  1  2 12  8  6  5       21 0.121144226258D-01 0.100000000000D+01
0.328772307882D-04 0.000000000000D+00 0.000000000000D+00 0.254257944232D-04 0.000000000000D+00  6 -1 2 25 24 3 -3 4 0.13013526D+00 0.31467686D-02 0.16185705D+05 0.16185705D+05 0.16185705D+05 0.12440734D+01  1  2 12  8  6  5       21 0.138869430805D-01 0.100000000000D+01
0.328772307882D-04 0.000000000000D+00 0.000000000000D+00 0.254257944232D-04 0.000000000000D+00  6 -1 2 25 24 4 -4 4 0.13013526D+00 0.31467686D-02 0.16185705D+05 0.16185705D+05 0.16185705D+05 0.12440734D+01  1  2 12  8  6  5       21 0.138869430805D-01 0.100000000000D+01
0.372446906250D-05 0.000000000000D+00 0.000000000000D+00 0.254257944232D-04 0.688450522626D-07  6 -1 2 25 24 3 -3 4 0.13013526D+00 0.31467686D-02 0.16185705D+05 0.16185705D+05 0.16185705D+05 0.12440734D+01  1  2 11  8  6  5       21 0.157317050847D-02 0.100000000000D+01
0.372446906250D-05 0.000000000000D+00 0.000000000000D+00 0.254257944232D-04 0.688450522626D-07  6 -1 2 25 24 4 -4 4 0.13013526D+00 0.31467686D-02 0.16185705D+05 0.16185705D+05 0.16185705D+05 0.12440734D+01  1  2 11  8  6  5       21 0.157317050847D-02 0.100000000000D+01
  </mgrwgt>
  </event>
  <event>
  5     66 0.43535451E-03 0.48104031E+02 0.75467711E-02 0.12047319E+00
       -1 -1    0    0    0  501 0.00000000E+00 0.00000000E+00 0.28066886E+02 0.28068711E+02 0.32000000E+00 0.0000E+00 0.9000E+01
        2 -1    0    0  502    0 -.00000000E+00 -.00000000E+00 -.92932332E+03 0.92932337E+03 0.32000000E+00 0.0000E+00 0.9000E+01
       25  1    1    2    0    0 0.39637286E+02 -.82779241E+02 -.63113539E+03 0.64990799E+03 0.12500000E+03 0.0000E+00 0.9000E+01
       24  1    1    2    0    0 -.99223271E+01 0.44956753E+02 -.13242156E+03 0.16162378E+03 0.80419002E+02 0.0000E+00 0.9000E+01
       21  1    1    2  502  501 -.29714959E+02 0.37822487E+02 -.13769948E+03 0.14586031E+03 0.75000000E+00 0.0000E+00 0.9000E+01
#aMCatNLO 1  0  0  5  1 0.87401882D+01 0.00000000D+00  -5  6  0 0.00000000D+00 0.00000000D+00 0.00000000D+00 0.00000000D+00 0.00000000D+00
  <mgrwgt>
 0.2723932159D+00   19    2    0
 0.161505763304308D+03 0.000000000000000D+00 0.000000000000000D+00 0.161505763304308D+03
 0.161505763304308D+03 -.000000000000000D+00 -.000000000000000D+00 -.161505763304308D+03
 0.165326770054880D+03 0.396391341977529D+02 -.827815923982196D+02 -.573052170124747D+02
 0.109566726604044D+03 -.992110252924043D+01 0.449551946493605D+02 0.584658346643331D+02
 0.481180299496915D+02 -.297180316685125D+02 0.378263977488591D+02 -.116061765185841D+01
 0.000000000000000D+00 0.000000000000000D+00 0.000000000000000D+00 0.000000000000000D+00
 0.161505763304308D+03 0.000000000000000D+00 0.000000000000000D+00 0.161505763304308D+03
 0.161505763304308D+03 -.000000000000000D+00 -.000000000000000D+00 -.161505763304308D+03
 0.162375014240564D+03 0.361390326592456D+02 -.783265115761189D+02 -.574419111136925D+02
 0.111018176825713D+03 -.122771152117039D+02 0.479540296268010D+02 0.583738221805398D+02
 0.407946171843998D+02 -.296704462055010D+02 0.271712787559882D+02 -.675181634470179D+01
 0.882371835793863D+01 0.580852875795934D+01 0.320120319332964D+01 0.581990527785450D+01
0.105446766613D-03 0.000000000000D+00 0.000000000000D+00 0.766815762938D-05 0.000000000000D+00  6 -1 2 25 24 21 21 2 0.43181271D-02 0.14297296D+00 0.21881152D+05 0.21881152D+05 0.21881152D+05 0.12295511D+01  1  2  2  3  6  5       21 0.112613899567D+00 0.100000000000D+01
0.286153265970D-05 0.556457875233D-05 -.404943348565D-06 0.766815762938D-05 0.000000000000D+00  6 -1 2 25 24 21 21 4 0.43181271D-02 0.14297296D+00 0.21881152D+05 0.21881152D+05 0.21881152D+05 0.12295511D+01  1  2  3  3  6  5       21 0.462009158612D-02 0.100000000000D+01
0.285958161005D-05 0.000000000000D+00 0.000000000000D+00 0.766815762938D-05 0.000000000000D+00  6 -1 2 25 24 21 21 4 0.43181271D-02 0.14297296D+00 0.21881152D+05 0.21881152D+05 0.21881152D+05 0.12295511D+01  1  2 15  3  6  5       21 0.461694151617D-02 0.100000000000D+01
0.745415119943D-04 0.000000000000D+00 0.000000000000D+00 0.767888467510D-05 0.000000000000D+00  6 -1 2 25 24 21 21 4 0.43181271D-02 0.14297296D+00 0.21487473D+05 0.21487473D+05 0.21487473D+05 0.12304108D+01  1  2 12  3  6  5       21 0.120638474812D+00 0.100000000000D+01
0.733571109637D-04 0.000000000000D+00 0.000000000000D+00 0.767888467510D-05 0.000000000000D+00  6 -1 2 25 24 21 21 4 0.43181271D-02 0.14297296D+00 0.21487473D+05 0.21487473D+05 0.21487473D+05 0.12304108D+01  1  2 12  3  6  5       21 0.118721632370D+00 0.100000000000D+01
-.637019235121D-04 0.000000000000D+00 0.000000000000D+00 0.766815762938D-05 0.000000000000D+00  6 -1 2 25 24 21 21 4 0.43181271D-02 0.14297296D+00 0.21881152D+05 0.21881152D+05 0.21881152D+05 0.12295511D+01  1  2  4  3  6  5       21 -.102850030329D+00 0.100000000000D+01
0.741058117700D-07 0.000000000000D+00 0.000000000000D+00 0.766815762938D-05 0.784755827792D-06  6 -1 2 25 24 21 21 4 0.43181271D-02 0.14297296D+00 0.21487473D+05 0.21487473D+05 0.21487473D+05 0.12304108D+01  1  2 11  3  6  5       21 0.119933334695D-03 0.100000000000D+01
0.107724403404D-05 0.000000000000D+00 0.000000000000D+00 0.767888467510D-05 0.000000000000D+00  6 -1 2 25 24 1 -1 4 0.43181271D-02 0.14297296D+00 0.21487473D+05 0.21487473D+05 0.21487473D+05 0.12304108D+01  1  2 12  6  6  5       21 0.174341885200D-02 0.100000000000D+01
0.107078208583D-05 0.000000000000D+00 0.000000000000D+00 0.767888467510D-05 0.000000000000D+00  6 -1 2 25 24 1 -1 4 0.43181271D-02 0.14297296D+00 0.21487473D+05 0.21487473D+05 0.21487473D+05 0.12304108D+01  1  2 12  6  6  5       21 0.173296079238D-02 0.100000000000D+01
0.696426180340D-09 0.000000000000D+00 0.000000000000D+00 0.767888467510D-05 0.132520207183D-07  6 -1 2 25 24 1 -1 4 0.43181271D-02 0.14297296D+00 0.21487473D+05 0.21487473D+05 0.21487473D+05 0.12304108D+01  1  2 11  6  6  5       21 0.112710072505D-05 0.100000000000D+01
0.107724403404D-05 0.000000000000D+00 0.000000000000D+00 0.767888467510D-05 0.000000000000D+00  6 -1 2 25 24 2 -2 4 0.43181271D-02 0.14297296D+00 0.21487473D+05 0.21487473D+05 0.21487473D+05 0.12304108D+01  1  2 12  7  6  5       21 0.174341885200D-02 0.100000000000D+01
0.107078208583D-05 0.000000000000D+00 0.000000000000D+00 0.767888467510D-05 0.000000000000D+00  6 -1 2 25 24 2 -2 4 0.43181271D-02 0.14297296D+00 0.21487473D+05 0.21487473D+05 0.21487473D+05 0.12304108D+01  1  2 12  7  6  5       21 0.173296079238D-02 0.100000000000D+01
0.116151686035D-08 0.000000000000D+00 0.000000000000D+00 0.767888467510D-05 0.113492825937D-07  6 -1 2 25 24 2 -2 4 0.43181271D-02 0.14297296D+00 0.21487473D+05 0.21487473D+05 0.21487473D+05 0.12304108D+01  1  2 11  7  6  5       21 0.187980655009D-05 0.100000000000D+01
0.107724403404D-05 0.000000000000D+00 0.000000000000D+00 0.767888467510D-05 0.000000000000D+00  6 -1 2 25 24 3 -3 4 0.43181271D-02 0.14297296D+00 0.21487473D+05 0.21487473D+05 0.21487473D+05 0.12304108D+01  1  2 12  8  6  5       21 0.174341885200D-02 0.100000000000D+01
0.107724403404D-05 0.000000000000D+00 0.000000000000D+00 0.767888467510D-05 0.000000000000D+00  6 -1 2 25 24 4 -4 4 0.43181271D-02 0.14297296D+00 0.21487473D+05 0.21487473D+05 0.21487473D+05 0.12304108D+01  1  2 12  8  6  5       21 0.174341885200D-02 0.100000000000D+01
0.107078208583D-05 0.000000000000D+00 0.000000000000D+00 0.767888467510D-05 0.000000000000D+00  6 -1 2 25 24 3 -3 4 0.43181271D-02 0.14297296D+00 0.21487473D+05 0.21487473D+05 0.21487473D+05 0.12304108D+01  1  2 12  8  6  5       21 0.173296079238D-02 0.100000000000D+01
0.107078208583D-05 0.000000000000D+00 0.000000000000D+00 0.767888467510D-05 0.000000000000D+00  6 -1 2 25 24 4 -4 4 0.43181271D-02 0.14297296D+00 0.21487473D+05 0.21487473D+05 0.21487473D+05 0.12304108D+01  1  2 12  8  6  5       21 0.173296079238D-02 0.100000000000D+01
0.115777849159D-08 0.000000000000D+00 0.000000000000D+00 0.767888467510D-05 0.110242675618D-07  6 -1 2 25 24 3 -3 4 0.43181271D-02 0.14297296D+00 0.21487473D+05 0.21487473D+05 0.21487473D+05 0.12304108D+01  1  2 11  8  6  5       21 0.187375634943D-05 0.100000000000D+01
0.115777849159D-08 0.000000000000D+00 0.000000000000D+00 0.767888467510D-05 0.110242675618D-07  6 -1 2 25 24 4 -4 4 0.43181271D-02 0.14297296D+00 0.21487473D+05 0.21487473D+05 0.21487473D+05 0.12304108D+01  1  2 11  8  6  5       21 0.187375634943D-05 0.100000000000D+01
  </mgrwgt>
  </event>
  <event>
  6     66 0.43535451E-03 0.31809130E+02 0.75467711E-02 0.10477392E+00
       -1 -1    0    0    0  501 0.00000000E+00 0.00000000E+00 0.26794588E+03 0.26794607E+03 0.32000000E+00 0.0000E+00 0.9000E+01
        2 -1    0    0  503    0 0.00000000E+00 0.00000000E+00 -.73342886E+03 0.73342893E+03 0.32000000E+00 0.0000E+00 0.9000E+01
       25  1    1    2    0    0 -.32477175E+03 0.46130063E+02 -.37920252E+03 0.51674387E+03 0.12500000E+03 0.0000E+00 0.9000E+01
       24  1    1    2    0    0 0.33999093E+03 -.66154224E+02 0.15300427E+02 0.35590945E+03 0.80419002E+02 0.0000E+00 0.9000E+01
       21  1    1    2  502  501 -.41189763E+02 0.17720080E+02 -.33986655E+02 0.56269468E+02 0.75000000E+00 0.0000E+00 0.9000E+01
       21  1    1    2  503  502 0.25970584E+02 0.23040813E+01 -.67594240E+02 0.72452218E+02 0.75000000E+00 0.0000E+00 0.9000E+01
#aMCatNLO 2  0  0  2  5 0.26072591D+02 0.00000000D+00  -5  6  0 0.00000000D+00 0.00000000D+00 0.00000000D+00 0.00000000D+00 0.00000000D+00
  <mgrwgt>
 0.2890649147D+01    1    2    0
 0.419494429327293D+03 0.000000000000000D+00 0.000000000000000D+00 0.419494429327293D+03
 0.419494429327293D+03 0.000000000000000D+00 0.000000000000000D+00 -.419494429327293D+03
 0.382370272133993D+03 -.312785211634900D+03 0.471921399078578D+02 -.174700710717648D+03
 0.411662198525177D+03 0.352570301431368D+03 -.650396564322567D+02 0.185640985183714D+03
 0.449563879954176D+02 -.397850897964674D+02 0.178475165243989D+02 -.109402744660660D+02
 0.000000000000000D+00 0.000000000000000D+00 0.000000000000000D+00 -.000000000000000D+00
 0.423533489603201D+03 0.000000000000000D+00 0.000000000000000D+00 0.423533489603201D+03
 0.463993250173086D+03 0.000000000000000D+00 0.000000000000000D+00 -.463993250173086D+03
 0.392107407336993D+03 -.324769151291774D+03 0.461289381246545D+02 -.174700710717648D+03
 0.401125862997218D+03 0.339993563145295D+03 -.661554506498090D+02 0.185640985183714D+03
 0.461606091756302D+02 -.411949956268837D+02 0.177224312489413D+02 -.109402744660660D+02
 0.481328602664453D+02 0.259705837733633D+02 0.230408127621314D+01 -.404597605698857D+02
0.634841672078D-01 0.000000000000D+00 0.000000000000D+00 0.579212811567D-05 0.183728578371D-07  6 -1 2 25 24 21 21 4 0.41222181D-01 0.11283446D+00 0.15114190D+06 0.15114190D+06 0.15114190D+06 0.11474441D+01  1  2  1  2  6  2        2 0.289064914653D+01 0.100000000000D+01
  </mgrwgt>
  </event>
  <event>
  5     66 0.43535451E-03 0.28004052E+02 0.75467711E-02 0.11274127E+00
       -1 -1    0    0    0  501 0.00000000E+00 0.00000000E+00 0.65134000E+02 0.65134786E+02 0.32000000E+00 0.0000E+00 0.9000E+01
        2 -1    0    0  502    0 0.00000000E+00 0.00000000E+00 -.18586515E+04 0.18586515E+04 0.32000000E+00 0.0000E+00 0.9000E+01
       25  1    1    2    0    0 0.83313540E+02 -.22488674E+02 -.17101710E+03 0.22873289E+03 0.12500000E+03 0.0000E+00 0.9000E+01
       24  1    1    2    0    0 -.10884789E+03 0.33987409E+02 -.98509308E+02 0.17080488E+03 0.80419002E+02 0.0000E+00 0.9000E+01
       21  1    1    2  502  501 0.25534346E+02 -.11498735E+02 -.15239911E+04 0.15242485E+04 0.75000000E+00 0.0000E+00 0.9000E+01
#aMCatNLO 1  0  0  2  5 0.26072591D+02 0.00000000D+00  -5  6  0 0.00000000D+00 0.00000000D+00 0.00000000D+00 0.00000000D+00 0.00000000D+00
  <mgrwgt>
 0.1678132544D+01    7    4    0
 0.347939919046081D+03 0.000000000000000D+00 0.000000000000000D+00 0.347939919046081D+03
 0.347939919046081D+03 0.000000000000000D+00 0.000000000000000D+00 -.347939919046081D+03
 0.191572074372251D+03 0.833135159223003D+02 -.224886629599675D+02 0.116738930020045D+03
 0.218305060230317D+03 -.108847913632145D+03 0.339874216279433D+02 0.167889458384990D+03
 0.286002703489593D+03 0.255343977098450D+02 -.114987586679758D+02 -.284628388405035D+03
 0.000000000000000D+00 -.000000000000000D+00 0.000000000000000D+00 -.000000000000000D+00
 0.373052566679033D+03 0.000000000000000D+00 0.000000000000000D+00 0.373052566679033D+03
 0.472739535047741D+03 0.000000000000000D+00 0.000000000000000D+00 -.472739535047741D+03
 0.206071788540196D+03 0.109654457172340D+03 -.344746903128918D+02 0.116738930020045D+03
 0.204072582390916D+03 -.808685438812137D+02 0.212558533833292D+02 0.167889458384990D+03
 0.293146387114024D+03 0.638987070666390D+02 -.289558288979886D+02 -.284628388405035D+03
 0.142501343681638D+03 -.926846203577651D+02 0.421746658275512D+02 -.996869683687077D+02
 0.347939919046081D+03 0.000000000000000D+00 0.000000000000000D+00 0.347939919046081D+03
 0.347939919046081D+03 0.000000000000000D+00 0.000000000000000D+00 -.347939919046081D+03
 0.191572074372251D+03 0.833135159223003D+02 -.224886629599675D+02 0.116738930020045D+03
 0.218305060230317D+03 -.108847913632145D+03 0.339874216279433D+02 0.167889458384990D+03
 0.000000000000000D+00 -.000000000000000D+00 0.000000000000000D+00 -.000000000000000D+00
 0.286002703489593D+03 0.255343977098450D+02 -.114987586679758D+02 -.284628388405035D+03
 0.373052566679033D+03 0.000000000000000D+00 0.000000000000000D+00 0.373052566679033D+03
 0.472739535047741D+03 0.000000000000000D+00 0.000000000000000D+00 -.472739535047741D+03
 0.206071788540196D+03 0.109654457172340D+03 -.344746903128918D+02 0.116738930020045D+03
 0.204072582390916D+03 -.808685438812137D+02 0.212558533833292D+02 0.167889458384990D+03
 0.142501343681638D+03 -.926846203577651D+02 0.421746658275512D+02 -.996869683687077D+02
 0.293146387114024D+03 0.638987070666390D+02 -.289558288979886D+02 -.284628388405035D+03
0.816944747368D-02 0.000000000000D+00 0.000000000000D+00 0.684873215451D-04 0.000000000000D+00  6 -1 2 25 24 21 21 2 0.10020678D-01 0.28594644D+00 0.25509540D+05 0.25509540D+05 0.25509540D+05 0.12223593D+01  1  2  2  2  6  2        2 0.761700588713D+00 0.100000000000D+01
0.234005857186D-02 0.431113587363D-03 -.313728293638D-04 0.684873215451D-04 0.000000000000D+00  6 -1 2 25 24 21 21 4 0.10020678D-01 0.28594644D+00 0.25509540D+05 0.25509540D+05 0.25509540D+05 0.12223593D+01  1  2  3  2  6  2        2 0.325998868753D+00 0.100000000000D+01
0.302214130192D-03 0.000000000000D+00 0.000000000000D+00 0.684873215451D-04 0.000000000000D+00  6 -1 2 25 24 21 21 4 0.10020678D-01 0.28594644D+00 0.25509540D+05 0.25509540D+05 0.25509540D+05 0.12223593D+01  1  2 15  2  6  2        2 0.421021361382D-01 0.100000000000D+01
-.883600574969D-02 0.000000000000D+00 0.000000000000D+00 0.684873215451D-04 0.000000000000D+00  6 -1 2 25 24 21 21 4 0.10020678D-01 0.28594644D+00 0.25509540D+05 0.25509540D+05 0.25509540D+05 0.12223593D+01  1  2  4  2  6  2        2 -.123096400805D+01 0.100000000000D+01
-.192175206451D-01 0.000000000000D+00 -.726446516931D-02 0.684873215451D-04 0.000000000000D+00  6 -1 2 25 24 21 21 4 0.10020678D-01 0.39726601D+00 0.25509540D+05 0.25509540D+05 0.25509540D+05 0.12223593D+01  1  2  5  2  6  2        2 -.111765410362D+01 0.100000000000D+01
0.208448647663D-01 0.000000000000D+00 0.688872652197D-02 0.684873215451D-04 0.000000000000D+00  6 -1 2 25 24 21 21 4 0.10020678D-01 0.28594644D+00 0.25509540D+05 0.25509540D+05 0.25509540D+05 0.12223593D+01  1  2  6  2  6  2        2 0.290394540326D+01 0.100000000000D+01
-.606297955957D-03 0.000000000000D+00 -.299998260261D-03 0.684873215451D-04 0.000000000000D+00  6 -1 21 25 24 -2 21 4 0.10020678D-01 0.39726601D+00 0.25509540D+05 0.25509540D+05 0.25509540D+05 0.12223593D+01  3  4  5  5  5  2        2 -.699634156031D-02 0.100000000000D+01
  </mgrwgt>
  </event>
  <event>
  5     66 0.43535451E-03 0.24762063E+02 0.75467711E-02 0.12070251E+00
       -1 -1    0    0    0  501 0.00000000E+00 0.00000000E+00 0.55189474E+03 0.55189483E+03 0.32000000E+00 0.0000E+00 0.9000E+01
        2 -1    0    0  502    0 0.00000000E+00 0.00000000E+00 -.44997376E+02 0.44998514E+02 0.32000000E+00 0.0000E+00 0.9000E+01
       25  1    1    2    0    0 0.78854322E+02 -.44245951E+02 0.15555898E+03 0.21908744E+03 0.12500000E+03 0.0000E+00 0.9000E+01
       24  1    1    2    0    0 -.72030996E+02 0.20447452E+02 0.24325667E+03 0.26692244E+03 0.80419002E+02 0.0000E+00 0.9000E+01
       21  1    1    2  502  501 -.68233259E+01 0.23798499E+02 0.10808171E+03 0.11088347E+03 0.75000000E+00 0.0000E+00 0.9000E+01
#aMCatNLO 1  0  0  5  1 0.38282124D+01 0.00000000D+00  -5  6  0 0.00000000D+00 0.00000000D+00 0.00000000D+00 0.00000000D+00 0.00000000D+00
  <mgrwgt>
 0.2365347031D+00   25    2    0
 0.157588649768528D+03 0.000000000000000D+00 0.000000000000000D+00 0.157588649768528D+03
 0.157588649768528D+03 -.000000000000000D+00 -.000000000000000D+00 -.157588649768528D+03
 0.164732882645944D+03 0.788550886482882D+02 -.442486260927406D+02 -.577568758505663D+02
 0.114277495368389D+03 -.720304635996501D+02 0.204455957090080D+02 0.313961768854908D+02
 0.361669215227219D+02 -.682462504863818D+01 0.238030303837325D+02 0.263606989650755D+02
 0.000000000000000D+00 0.000000000000000D+00 0.000000000000000D+00 0.000000000000000D+00
 0.157588649768528D+03 0.000000000000000D+00 0.000000000000000D+00 0.157588649768528D+03
 0.157588649768528D+03 -.000000000000000D+00 -.000000000000000D+00 -.157588649768528D+03
 0.164487520830725D+03 0.787663274562242D+02 -.439390434656307D+02 -.574140281414091D+02
 0.114420646099975D+03 -.720921229605074D+02 0.206606521596509D+02 0.316343414496032D+02
 0.234444925998084D+02 -.980594886844704D+00 0.168962874595786D+02 0.162233824159345D+02
 0.128246400065470D+02 -.569360960887206D+01 0.638210384640111D+01 0.955630427587143D+01
0.397311837955D-03 0.000000000000D+00 0.000000000000D+00 0.311115691884D-04 0.000000000000D+00  6 -1 2 25 24 21 21 2 0.84906978D-01 0.69227679D-02 0.20868411D+05 0.20868411D+05 0.20868411D+05 0.12317990D+01  1  2  2  3  6  5       21 0.991420550873D-01 0.100000000000D+01
0.600194427794D-04 0.209667217170D-04 -.152578207236D-05 0.311115691884D-04 0.000000000000D+00  6 -1 2 25 24 21 21 4 0.84906978D-01 0.69227679D-02 0.20868411D+05 0.20868411D+05 0.20868411D+05 0.12317990D+01  1  2  3  3  6  5       21 0.227246947887D-01 0.100000000000D+01
0.610357851986D-05 0.000000000000D+00 0.000000000000D+00 0.311115691884D-04 0.000000000000D+00  6 -1 2 25 24 21 21 4 0.84906978D-01 0.69227679D-02 0.20868411D+05 0.20868411D+05 0.20868411D+05 0.12317990D+01  1  2 15  3  6  5       21 0.231095046138D-02 0.100000000000D+01
0.948999582462D-04 0.000000000000D+00 0.000000000000D+00 0.311005725397D-04 0.000000000000D+00  6 -1 2 25 24 21 21 4 0.84906978D-01 0.69227679D-02 0.20964166D+05 0.20964166D+05 0.20964166D+05 0.12315813D+01  1  2 12  3  6  5       21 0.359087556669D-01 0.100000000000D+01
0.971604629303D-04 0.000000000000D+00 0.000000000000D+00 0.311005725397D-04 0.000000000000D+00  6 -1 2 25 24 21 21 4 0.84906978D-01 0.69227679D-02 0.20964166D+05 0.20964166D+05 0.20964166D+05 0.12315813D+01  1  2 12  3  6  5       21 0.367640975647D-01 0.100000000000D+01
-.427022581567D-02 0.000000000000D+00 0.000000000000D+00 0.311115691884D-04 0.000000000000D+00  6 -1 2 25 24 21 21 4 0.84906978D-01 0.69227679D-02 0.20868411D+05 0.20868411D+05 0.20868411D+05 0.12317990D+01  1  2  4  3  6  5       21 -.161680238680D+01 0.100000000000D+01
-.234428392693D-02 0.000000000000D+00 0.000000000000D+00 0.311115691884D-04 0.000000000000D+00  6 -1 2 25 24 21 21 4 0.84906978D-01 0.69227679D-02 0.20868411D+05 0.20868411D+05 0.20868411D+05 0.12317990D+01  1  2  5  3  6  5       21 -.887597989426D+00 0.100000000000D+01
0.454308468125D-02 0.000000000000D+00 -.000000000000D+00 0.311115691884D-04 0.000000000000D+00  6 -1 2 25 24 21 21 4 0.84906978D-01 0.69227679D-02 0.20868411D+05 0.20868411D+05 0.20868411D+05 0.12317990D+01  1  2  6  3  6  5       21 0.172011281678D+01 0.100000000000D+01
0.219169089070D-02 0.000000000000D+00 0.000000000000D+00 0.311115691884D-04 0.108668402065D-04  6 -1 2 25 24 21 21 4 0.84906978D-01 0.69227679D-02 0.20964166D+05 0.20964166D+05 0.20964166D+05 0.12315813D+01  1  2 11  3  6  5       21 0.829303765206D+00 0.100000000000D+01
0.223980920131D-05 0.000000000000D+00 0.000000000000D+00 0.311005725397D-04 0.000000000000D+00  6 -1 2 25 24 1 -1 4 0.84906978D-01 0.69227679D-02 0.20964166D+05 0.20964166D+05 0.20964166D+05 0.12315813D+01  1  2 12  6  6  5       21 0.847511029898D-03 0.100000000000D+01
0.228717339603D-05 0.000000000000D+00 0.000000000000D+00 0.311005725397D-04 0.000000000000D+00  6 -1 2 25 24 1 -1 4 0.84906978D-01 0.69227679D-02 0.20964166D+05 0.20964166D+05 0.20964166D+05 0.12315813D+01  1  2 12  6  6  5       21 0.865432948168D-03 0.100000000000D+01
-.981125525492D-04 0.000000000000D+00 0.000000000000D+00 0.311115691884D-04 0.000000000000D+00  6 -1 2 25 24 1 -1 4 0.84906978D-01 0.69227679D-02 0.20868411D+05 0.20868411D+05 0.20868411D+05 0.12317990D+01  1  2  5  6  6  5       21 -.371475926528D-01 0.100000000000D+01
0.900579438928D-04 0.000000000000D+00 0.000000000000D+00 0.311115691884D-04 0.687420296312D-06  6 -1 2 25 24 1 -1 4 0.84906978D-01 0.69227679D-02 0.20964166D+05 0.20964166D+05 0.20964166D+05 0.12315813D+01  1  2 11  6  6  5       21 0.340766082818D-01 0.100000000000D+01
0.223980920131D-05 0.000000000000D+00 0.000000000000D+00 0.311005725397D-04 0.000000000000D+00  6 -1 2 25 24 2 -2 4 0.84906978D-01 0.69227679D-02 0.20964166D+05 0.20964166D+05 0.20964166D+05 0.12315813D+01  1  2 12  7  6  5       21 0.847511029898D-03 0.100000000000D+01
0.228717339603D-05 0.000000000000D+00 0.000000000000D+00 0.311005725397D-04 0.000000000000D+00  6 -1 2 25 24 2 -2 4 0.84906978D-01 0.69227679D-02 0.20964166D+05 0.20964166D+05 0.20964166D+05 0.12315813D+01  1  2 12  7  6  5       21 0.865432948168D-03 0.100000000000D+01
-.981125525492D-04 0.000000000000D+00 0.000000000000D+00 0.311115691884D-04 0.000000000000D+00  6 -1 2 25 24 2 -2 4 0.84906978D-01 0.69227679D-02 0.20868411D+05 0.20868411D+05 0.20868411D+05 0.12317990D+01  1  2  5  7  6  5       21 -.371475926528D-01 0.100000000000D+01
0.901878973165D-04 0.000000000000D+00 0.000000000000D+00 0.311115691884D-04 0.678060456171D-06  6 -1 2 25 24 2 -2 4 0.84906978D-01 0.69227679D-02 0.20964166D+05 0.20964166D+05 0.20964166D+05 0.12315813D+01  1  2 11  7  6  5       21 0.341257807559D-01 0.100000000000D+01
0.223980920131D-05 0.000000000000D+00 0.000000000000D+00 0.311005725397D-04 0.000000000000D+00  6 -1 2 25 24 3 -3 4 0.84906978D-01 0.69227679D-02 0.20964166D+05 0.20964166D+05 0.20964166D+05 0.12315813D+01  1  2 12  8  6  5       21 0.847511029898D-03 0.100000000000D+01
0.223980920131D-05 0.000000000000D+00 0.000000000000D+00 0.311005725397D-04 0.000000000000D+00  6 -1 2 25 24 4 -4 4 0.84906978D-01 0.69227679D-02 0.20964166D+05 0.20964166D+05 0.20964166D+05 0.12315813D+01  1  2 12  8  6  5       21 0.847511029898D-03 0.100000000000D+01
0.228717339603D-05 0.000000000000D+00 0.000000000000D+00 0.311005725397D-04 0.000000000000D+00  6 -1 2 25 24 3 -3 4 0.84906978D-01 0.69227679D-02 0.20964166D+05 0.20964166D+05 0.20964166D+05 0.12315813D+01  1  2 12  8  6  5       21 0.865432948168D-03 0.100000000000D+01
0.228717339603D-05 0.000000000000D+00 0.000000000000D+00 0.311005725397D-04 0.000000000000D+00  6 -1 2 25 24 4 -4 4 0.84906978D-01 0.69227679D-02 0.20964166D+05 0.20964166D+05 0.20964166D+05 0.12315813D+01  1  2 12  8  6  5       21 0.865432948168D-03 0.100000000000D+01
-.981125525492D-04 0.000000000000D+00 0.000000000000D+00 0.311115691884D-04 0.000000000000D+00  6 -1 2 25 24 3 -3 4 0.84906978D-01 0.69227679D-02 0.20868411D+05 0.20868411D+05 0.20868411D+05 0.12317990D+01  1  2  5  8  6  5       21 -.371475926528D-01 0.100000000000D+01
-.981125525492D-04 0.000000000000D+00 0.000000000000D+00 0.311115691884D-04 0.000000000000D+00  6 -1 2 25 24 4 -4 4 0.84906978D-01 0.69227679D-02 0.20868411D+05 0.20868411D+05 0.20868411D+05 0.12317990D+01  1  2  5  8  6  5       21 -.371475926528D-01 0.100000000000D+01
0.901252468320D-04 0.000000000000D+00 0.000000000000D+00 0.311115691884D-04 0.677338854432D-06  6 -1 2 25 24 3 -3 4 0.84906978D-01 0.69227679D-02 0.20964166D+05 0.20964166D+05 0.20964166D+05 0.12315813D+01  1  2 11  8  6  5       21 0.341020747292D-01 0.100000000000D+01
0.901252468320D-04 0.000000000000D+00 0.000000000000D+00 0.311115691884D-04 0.677338854432D-06  6 -1 2 25 24 4 -4 4 0.84906978D-01 0.69227679D-02 0.20964166D+05 0.20964166D+05 0.20964166D+05 0.12315813D+01  1  2 11  8  6  5       21 0.341020747292D-01 0.100000000000D+01
  </mgrwgt>
  </event>
  <event>
  6     66 0.43535451E-03 0.10714481E+03 0.75467711E-02 0.11172705E+00
       -1 -1    0    0    0  503 0.00000000E+00 0.00000000E+00 0.30301558E+03 0.30301575E+03 0.32000000E+00 0.0000E+00 0.9000E+01
        2 -1    0    0  502    0 0.00000000E+00 0.00000000E+00 -.66736169E+03 0.66736176E+03 0.32000000E+00 0.0000E+00 0.9000E+01
       25  1    1    2    0    0 0.11941806E+02 0.10660409E+03 -.16602477E+03 0.23387232E+03 0.12500000E+03 0.0000E+00 0.9000E+01
       24  1    1    2    0    0 0.25038483E+02 -.37693880E+02 -.33733279E+03 0.34972616E+03 0.80419002E+02 0.0000E+00 0.9000E+01
       21  1    1    2  502  501 0.78844450E+02 0.23729315E+02 -.84854453E+02 0.11823861E+03 0.75000000E+00 0.0000E+00 0.9000E+01
       21  1    1    2  501  503 -.11582474E+03 -.92639525E+02 0.22386592E+03 0.26854043E+03 0.75000000E+00 0.0000E+00 0.9000E+01
#aMCatNLO 2  0  0  1  2 0.31458803D+02 0.00000000D+00  -5  6  0 0.00000000D+00 0.00000000D+00 0.00000000D+00 0.00000000D+00 0.00000000D+00
  <mgrwgt>
 0.1224483608D-01    1    2    0
 0.176482623771779D+03 0.000000000000000D+00 0.000000000000000D+00 0.176482623771779D+03
 0.176482623771779D+03 0.000000000000000D+00 0.000000000000000D+00 -.176482623771779D+03
 0.156456277980030D+03 -.400208625571075D+02 0.650443397960380D+02 0.549648191122916D+02
 0.134913275119903D+03 -.155341662497226D+02 -.701437859314409D+02 -.810735149314398D+02
 0.615956944436249D+02 0.555550288068301D+02 0.509944613540294D+01 0.261086958191482D+02
 0.000000000000000D+00 -.000000000000000D+00 -.000000000000000D+00 0.000000000000000D+00
 0.102101195300298D+04 0.000000000000000D+00 0.000000000000000D+00 0.102101195300298D+04
 0.198059168201071D+03 0.000000000000000D+00 0.000000000000000D+00 -.198059168201071D+03
 0.173646414141196D+03 0.119399106245627D+02 0.106603866432350D+03 0.549648191122916D+02
 0.122832469781320D+03 0.250370514622335D+02 -.376939107674880D+02 -.810735149314398D+02
 0.863812963727907D+02 0.788477769104844D+02 0.237295689371210D+02 0.261086958191482D+02
 0.836210940908740D+03 -.115824738997281D+03 -.926395246019834D+02 0.822952784801905D+03
0.258966189403D-03 0.000000000000D+00 0.000000000000D+00 0.534060155745D-05 0.191945357657D-08  6 -1 2 25 24 21 21 4 0.46617763D-01 0.10267096D+00 0.59450758D+05 0.59450758D+05 0.59450758D+05 0.11849065D+01  1  2  1  1  6  1       -1 0.122448360837D-01 0.100000000000D+01
  </mgrwgt>
  </event>
  <event>
  5     66 -.43535451E-03 0.23226486E+02 0.75467711E-02 0.12392962E+00
       -1 -1    0    0    0  501 0.00000000E+00 0.00000000E+00 0.13437838E+03 0.13437876E+03 0.32000000E+00 0.0000E+00 0.9000E+01
        2 -1    0    0  502    0 -.00000000E+00 -.00000000E+00 -.25549921E+03 0.25549941E+03 0.32000000E+00 0.0000E+00 0.9000E+01
       25  1    1    2    0    0 -.28347411E+02 -.11488204E+02 0.83215106E+02 0.15324917E+03 0.12500000E+03 0.0000E+00 0.9000E+01
       24  1    1    2    0    0 0.46065441E+02 -.35266978E+01 -.13738038E+03 0.16575599E+03 0.80419002E+02 0.0000E+00 0.9000E+01
       21  1    1    2  502  501 -.17718030E+02 0.15014902E+02 -.66955549E+02 0.70873013E+02 0.75000000E+00 0.0000E+00 0.9000E+01
#aMCatNLO 1  0  0  5  2 0.51697274D+00 0.00000000D+00  -5  6  0 0.00000000D+00 0.00000000D+00 0.00000000D+00 0.00000000D+00 0.00000000D+00
  <mgrwgt>
 -.4323744493D+00   25    2    0
 0.185293507587050D+03 0.000000000000000D+00 0.000000000000000D+00 0.185293507587050D+03
 0.185293507587050D+03 -.000000000000000D+00 -.000000000000000D+00 -.185293507587050D+03
 0.188425964112221D+03 -.283464974164454D+02 -.114889777450599D+02 0.137636562824756D+03
 0.129482875017581D+03 0.460660681291732D+02 -.352722959800912D+01 -.903552709415967D+02
 0.526781760442968D+02 -.177195707127277D+02 0.150162073430690D+02 -.472812918831596D+02
 0.000000000000000D+00 0.000000000000000D+00 0.000000000000000D+00 -.000000000000000D+00
 0.185293507587050D+03 0.000000000000000D+00 0.000000000000000D+00 0.185293507587050D+03
 0.185293507587050D+03 -.000000000000000D+00 -.000000000000000D+00 -.185293507587050D+03
 0.188420484493185D+03 -.283494589434583D+02 -.114864680395823D+02 0.137628660555261D+03
 0.129485893542102D+03 0.460640329686816D+02 -.352550492914368D+01 -.903607013788680D+02
 0.432814970428064D+02 -.146467254091931D+02 0.128115486579804D+02 -.386603885396714D+02
 0.939914009600606D+01 -.306784861603018D+01 0.220042431074559D+01 -.860757063672151D+01
0.165799326629D-04 0.000000000000D+00 0.000000000000D+00 0.208632137348D-04 0.000000000000D+00  6 -1 2 25 24 21 21 2 0.20673642D-01 0.39307616D-01 0.14964597D+05 0.14964597D+05 0.14964597D+05 0.12479395D+01  1  2  2  3  6  5       21 0.707785707915D-02 0.100000000000D+01
0.123413375765D-05 0.874947084436D-06 -.636713070221D-07 0.208632137348D-04 0.000000000000D+00  6 -1 2 25 24 21 21 4 0.20673642D-01 0.39307616D-01 0.14964597D+05 0.14964597D+05 0.14964597D+05 0.12479395D+01  1  2  3  3  6  5       21 0.820480663719D-03 0.100000000000D+01
0.735701763390D-06 0.000000000000D+00 0.000000000000D+00 0.208632137348D-04 0.000000000000D+00  6 -1 2 25 24 21 21 4 0.20673642D-01 0.39307616D-01 0.14964597D+05 0.14964597D+05 0.14964597D+05 0.12479395D+01  1  2 15  3  6  5       21 0.489111546770D-03 0.100000000000D+01
0.318188015309D-13 0.000000000000D+00 0.000000000000D+00 0.208631121747D-04 0.000000000000D+00  6 -1 2 25 24 21 21 4 0.20673642D-01 0.39307616D-01 0.14965515D+05 0.14965515D+05 0.14965515D+05 0.12479365D+01  1  2 12  3  6  5       21 0.211536970037D-10 0.100000000000D+01
0.317397349758D-13 0.000000000000D+00 0.000000000000D+00 0.208631121747D-04 0.000000000000D+00  6 -1 2 25 24 21 21 4 0.20673642D-01 0.39307616D-01 0.14965515D+05 0.14965515D+05 0.14965515D+05 0.12479365D+01  1  2 12  3  6  5       21 0.211011321720D-10 0.100000000000D+01
-.175078796543D-01 0.000000000000D+00 0.000000000000D+00 0.208632137348D-04 0.000000000000D+00  6 -1 2 25 24 21 21 4 0.20673642D-01 0.39307616D-01 0.14964597D+05 0.14964597D+05 0.14964597D+05 0.12479395D+01  1  2  4  3  6  5       21 -.116396432964D+02 0.100000000000D+01
-.120828663571D-01 0.000000000000D+00 0.000000000000D+00 0.208632137348D-04 0.000000000000D+00  6 -1 2 25 24 21 21 4 0.20673642D-01 0.39307616D-01 0.14964597D+05 0.14964597D+05 0.14964597D+05 0.12479395D+01  1  2  5  3  6  5       21 -.803296899291D+01 0.100000000000D+01
0.155313323477D-01 0.000000000000D+00 -.000000000000D+00 0.208632137348D-04 0.000000000000D+00  6 -1 2 25 24 21 21 4 0.20673642D-01 0.39307616D-01 0.14964597D+05 0.14964597D+05 0.14964597D+05 0.12479395D+01  1  2  6  3  6  5       21 0.103255889356D+02 0.100000000000D+01
0.133704521911D-01 0.000000000000D+00 0.000000000000D+00 0.208632137348D-04 0.592307022871D-03  6 -1 2 25 24 21 21 4 0.20673642D-01 0.39307616D-01 0.14965515D+05 0.14965515D+05 0.14965515D+05 0.12479365D+01  1  2 11  3  6  5       21 0.888891098487D+01 0.100000000000D+01
0.715730774436D-15 0.000000000000D+00 0.000000000000D+00 0.208631121747D-04 0.000000000000D+00  6 -1 2 25 24 1 -1 4 0.20673642D-01 0.39307616D-01 0.14965515D+05 0.14965515D+05 0.14965515D+05 0.12479365D+01  1  2 12  6  6  5       21 0.475830364760D-12 0.100000000000D+01
0.714673320873D-15 0.000000000000D+00 0.000000000000D+00 0.208631121747D-04 0.000000000000D+00  6 -1 2 25 24 1 -1 4 0.20673642D-01 0.39307616D-01 0.14965515D+05 0.14965515D+05 0.14965515D+05 0.12479365D+01  1  2 12  6  6  5       21 0.475127351096D-12 0.100000000000D+01
-.132439836084D-03 0.000000000000D+00 0.000000000000D+00 0.208632137348D-04 0.000000000000D+00  6 -1 2 25 24 1 -1 4 0.20673642D-01 0.39307616D-01 0.14964597D+05 0.14964597D+05 0.14964597D+05 0.12479395D+01  1  2  5  6  6  5       21 -.880490659455D-01 0.100000000000D+01
0.139080984954D-03 0.000000000000D+00 0.000000000000D+00 0.208632137348D-04 0.118075459442D-04  6 -1 2 25 24 1 -1 4 0.20673642D-01 0.39307616D-01 0.14965515D+05 0.14965515D+05 0.14965515D+05 0.12479365D+01  1  2 11  6  6  5       21 0.924634767227D-01 0.100000000000D+01
0.715730774436D-15 0.000000000000D+00 0.000000000000D+00 0.208631121747D-04 0.000000000000D+00  6 -1 2 25 24 2 -2 4 0.20673642D-01 0.39307616D-01 0.14965515D+05 0.14965515D+05 0.14965515D+05 0.12479365D+01  1  2 12  7  6  5       21 0.475830364760D-12 0.100000000000D+01
0.714673320873D-15 0.000000000000D+00 0.000000000000D+00 0.208631121747D-04 0.000000000000D+00  6 -1 2 25 24 2 -2 4 0.20673642D-01 0.39307616D-01 0.14965515D+05 0.14965515D+05 0.14965515D+05 0.12479365D+01  1  2 12  7  6  5       21 0.475127351096D-12 0.100000000000D+01
-.132439836084D-03 0.000000000000D+00 0.000000000000D+00 0.208632137348D-04 0.000000000000D+00  6 -1 2 25 24 2 -2 4 0.20673642D-01 0.39307616D-01 0.14964597D+05 0.14964597D+05 0.14964597D+05 0.12479395D+01  1  2  5  7  6  5       21 -.880490659455D-01 0.100000000000D+01
0.138816329350D-03 0.000000000000D+00 0.000000000000D+00 0.208632137348D-04 0.117854339229D-04  6 -1 2 25 24 2 -2 4 0.20673642D-01 0.39307616D-01 0.14965515D+05 0.14965515D+05 0.14965515D+05 0.12479365D+01  1  2 11  7  6  5       21 0.922875290381D-01 0.100000000000D+01
0.715730774436D-15 0.000000000000D+00 0.000000000000D+00 0.208631121747D-04 0.000000000000D+00  6 -1 2 25 24 3 -3 4 0.20673642D-01 0.39307616D-01 0.14965515D+05 0.14965515D+05 0.14965515D+05 0.12479365D+01  1  2 12  8  6  5       21 0.475830364760D-12 0.100000000000D+01
0.715730774436D-15 0.000000000000D+00 0.000000000000D+00 0.208631121747D-04 0.000000000000D+00  6 -1 2 25 24 4 -4 4 0.20673642D-01 0.39307616D-01 0.14965515D+05 0.14965515D+05 0.14965515D+05 0.12479365D+01  1  2 12  8  6  5       21 0.475830364760D-12 0.100000000000D+01
0.714673320873D-15 0.000000000000D+00 0.000000000000D+00 0.208631121747D-04 0.000000000000D+00  6 -1 2 25 24 3 -3 4 0.20673642D-01 0.39307616D-01 0.14965515D+05 0.14965515D+05 0.14965515D+05 0.12479365D+01  1  2 12  8  6  5       21 0.475127351096D-12 0.100000000000D+01
0.714673320873D-15 0.000000000000D+00 0.000000000000D+00 0.208631121747D-04 0.000000000000D+00  6 -1 2 25 24 4 -4 4 0.20673642D-01 0.39307616D-01 0.14965515D+05 0.14965515D+05 0.14965515D+05 0.12479365D+01  1  2 12  8  6  5       21 0.475127351096D-12 0.100000000000D+01
-.132439836084D-03 0.000000000000D+00 0.000000000000D+00 0.208632137348D-04 0.000000000000D+00  6 -1 2 25 24 3 -3 4 0.20673642D-01 0.39307616D-01 0.14964597D+05 0.14964597D+05 0.14964597D+05 0.12479395D+01  1  2  5  8  6  5       21 -.880490659455D-01 0.100000000000D+01
-.132439836084D-03 0.000000000000D+00 0.000000000000D+00 0.208632137348D-04 0.000000000000D+00  6 -1 2 25 24 4 -4 4 0.20673642D-01 0.39307616D-01 0.14964597D+05 0.14964597D+05 0.14964597D+05 0.12479395D+01  1  2  5  8  6  5       21 -.880490659455D-01 0.100000000000D+01
0.138982292257D-03 0.000000000000D+00 0.000000000000D+00 0.208632137348D-04 0.117991139136D-04  6 -1 2 25 24 3 -3 4 0.20673642D-01 0.39307616D-01 0.14965515D+05 0.14965515D+05 0.14965515D+05 0.12479365D+01  1  2 11  8  6  5       21 0.923978640878D-01 0.100000000000D+01
0.138982292257D-03 0.000000000000D+00 0.000000000000D+00 0.208632137348D-04 0.117991139136D-04  6 -1 2 25 24 4 -4 4 0.20673642D-01 0.39307616D-01 0.14965515D+05 0.14965515D+05 0.14965515D+05 0.12479365D+01  1  2 11  8  6  5       21 0.923978640878D-01 0.100000000000D+01
  </mgrwgt>
  </event>
  <event>
  5     66 -.43535451E-03 0.69098966E+02 0.75467711E-02 0.10913574E+00
       -1 -1    0    0    0  501 0.00000000E+00 0.00000000E+00 0.77864922E+03 0.77864929E+03 0.32000000E+00 0.0000E+00 0.9000E+01
        2 -1    0    0  502    0 0.00000000E+00 0.00000000E+00 -.13249205E+03 0.13249244E+03 0.32000000E+00 0.0000E+00 0.9000E+01
       25  1    1    2    0    0 -.12964256E+03 -.18777810E+03 0.48070054E+03 0.54659475E+03 0.12500000E+03 0.0000E+00 0.9000E+01
       24  1    1    2    0    0 0.64992439E+02 0.21216167E+03 0.69004497E+02 0.24589719E+03 0.80419002E+02 0.0000E+00 0.9000E+01
       21  1    1    2  502  501 0.64650125E+02 -.24383567E+02 0.96452132E+02 0.11864979E+03 0.75000000E+00 0.0000E+00 0.9000E+01
#aMCatNLO 1  0  0  1  5 0.10526916D+02 0.00000000D+00  -5  6  0 0.00000000D+00 0.00000000D+00 0.00000000D+00 0.00000000D+00 0.00000000D+00
  <mgrwgt>
 -.2007153136D+00    9    4    0
 0.321193149956727D+03 0.000000000000000D+00 0.000000000000000D+00 0.321193149956727D+03
 0.321193149956727D+03 0.000000000000000D+00 0.000000000000000D+00 -.321193149956727D+03
 0.291751652877257D+03 -.129644190130751D+03 -.187777485469392D+03 0.132007677325017D+03
 0.279364044121732D+03 0.649908825236078D+02 0.212162252657172D+03 -.149467109860048D+03
 0.712706029144651D+02 0.646533076071427D+02 -.243847671877803D+02 0.174594325350311D+02
 0.000000000000000D+00 0.000000000000000D+00 -.000000000000000D+00 0.000000000000000D+00
 0.536288114944627D+03 0.000000000000000D+00 0.000000000000000D+00 0.536288114944627D+03
 0.321365098464798D+03 0.000000000000000D+00 0.000000000000000D+00 -.321365098464798D+03
 0.289809589242377D+03 -.131535249739727D+03 -.183404059987770D+03 0.132007677325017D+03
 0.282170058963409D+03 0.631649450564943D+02 0.216385071128158D+03 -.149467109860048D+03
 0.704928992905949D+02 0.641923359783079D+02 -.233186849456971D+02 0.174594325350311D+02
 0.215180665913043D+03 0.417796870492504D+01 -.966232619469103D+01 0.214923016479829D+03
 0.321193149956727D+03 0.000000000000000D+00 0.000000000000000D+00 0.321193149956727D+03
 0.321193149956727D+03 0.000000000000000D+00 0.000000000000000D+00 -.321193149956727D+03
 0.291751652877257D+03 -.129644190130751D+03 -.187777485469392D+03 0.132007677325017D+03
 0.279364044121732D+03 0.649908825236078D+02 0.212162252657172D+03 -.149467109860048D+03
 0.000000000000000D+00 0.000000000000000D+00 -.000000000000000D+00 0.000000000000000D+00
 0.712706029144651D+02 0.646533076071427D+02 -.243847671877803D+02 0.174594325350311D+02
 0.536288114944627D+03 0.000000000000000D+00 0.000000000000000D+00 0.536288114944627D+03
 0.321365098464798D+03 0.000000000000000D+00 0.000000000000000D+00 -.321365098464798D+03
 0.289809589242377D+03 -.131535249739727D+03 -.183404059987770D+03 0.132007677325017D+03
 0.282170058963409D+03 0.631649450564943D+02 0.216385071128158D+03 -.149467109860048D+03
 0.215180665913043D+03 0.417796870492504D+01 -.966232619469103D+01 0.214923016479829D+03
 0.704928992905949D+02 0.641923359783079D+02 -.233186849456971D+02 0.174594325350311D+02
0.353240020458D-03 0.000000000000D+00 0.000000000000D+00 0.240876397707D-05 0.000000000000D+00  6 -1 2 25 24 21 21 2 0.11979222D+00 0.20383427D-01 0.79889436D+05 0.79889436D+05 0.79889436D+05 0.11726369D+01  1  2  2  1  6  1       -1 0.100100120823D-01 0.100000000000D+01
0.323521095982D-04 0.186409880118D-04 -.135653468879D-05 0.240876397707D-05 0.000000000000D+00  6 -1 2 25 24 21 21 4 0.11979222D+00 0.20383427D-01 0.79889436D+05 0.79889436D+05 0.79889436D+05 0.11726369D+01  1  2  3  1  6  1       -1 0.126064974878D-02 0.100000000000D+01
0.926661618285D-05 0.000000000000D+00 0.000000000000D+00 0.240876397707D-05 0.000000000000D+00  6 -1 2 25 24 21 21 4 0.11979222D+00 0.20383427D-01 0.79889436D+05 0.79889436D+05 0.79889436D+05 0.11726369D+01  1  2 15  1  6  1       -1 0.361087963291D-03 0.100000000000D+01
0.845522519874D-01 0.000000000000D+00 0.000000000000D+00 0.240239261032D-05 0.000000000000D+00  6 -1 2 25 24 21 21 4 0.20046490D+00 0.20383427D-01 0.82988368D+05 0.82988368D+05 0.82988368D+05 0.11710850D+01  1  2 12  1  6  1       -1 0.816980663488D+00 0.100000000000D+01
-.800135254425D-01 0.000000000000D+00 0.000000000000D+00 0.240876397707D-05 0.000000000000D+00  6 -1 2 25 24 21 21 4 0.11979222D+00 0.20383427D-01 0.79889436D+05 0.79889436D+05 0.79889436D+05 0.11726369D+01  1  2  4  1  6  1       -1 -.311785018044D+01 0.100000000000D+01
-.851311833900D-01 0.000000000000D+00 -.169952030090D-03 0.240876397707D-05 0.000000000000D+00  6 -1 2 25 24 21 21 4 0.20004625D+00 0.20383427D-01 0.79889436D+05 0.79889436D+05 0.79889436D+05 0.11726369D+01  1  2  5  1  6  1       -1 -.833175065632D+00 0.100000000000D+01
0.751408117641D-01 0.000000000000D+00 0.149818903051D-03 0.240876397707D-05 0.000000000000D+00  6 -1 2 25 24 21 21 4 0.11979222D+00 0.20383427D-01 0.79889436D+05 0.79889436D+05 0.79889436D+05 0.11726369D+01  1  2  6  1  6  1       -1 0.292797739159D+01 0.100000000000D+01
0.488018762505D-02 0.000000000000D+00 0.000000000000D+00 0.240239261032D-05 0.000000000000D+00  6 21 2 25 24 1 21 4 0.20046490D+00 0.20383427D-01 0.82988368D+05 0.82988368D+05 0.82988368D+05 0.11710850D+01  3  4 12  4  5  1       -1 0.383542010590D+00 0.100000000000D+01
-.488968509042D-02 0.000000000000D+00 -.977728436729D-05 0.240876397707D-05 0.000000000000D+00  6 21 2 25 24 1 21 4 0.20004625D+00 0.20383427D-01 0.79889436D+05 0.79889436D+05 0.79889436D+05 0.11726369D+01  3  4  5  4  5  1       -1 -.389821882945D+00 0.100000000000D+01
  </mgrwgt>
  </event>
  <event>
  5     66 0.43535451E-03 0.21155982E+02 0.75467711E-02 0.11139706E+00
       -1 -1    0    0    0  501 0.00000000E+00 0.00000000E+00 0.23740279E+03 0.23740300E+03 0.32000000E+00 0.0000E+00 0.9000E+01
        2 -1    0    0  502    0 0.00000000E+00 0.00000000E+00 -.35215564E+03 0.35215578E+03 0.32000000E+00 0.0000E+00 0.9000E+01
       25  1    1    2    0    0 -.17183371E+03 -.11142062E+03 -.20331260E+03 0.31448750E+03 0.12500000E+03 0.0000E+00 0.9000E+01
       24  1    1    2    0    0 0.15893427E+03 0.12817862E+03 0.10954456E+03 0.24526942E+03 0.80419002E+02 0.0000E+00 0.9000E+01
       21  1    1    2  502  501 0.12899435E+02 -.16757999E+02 -.20984817E+02 0.29801862E+02 0.75000000E+00 0.0000E+00 0.9000E+01
#aMCatNLO 1  0  0  1  5 0.17186485D+02 0.00000000D+00  -5  6  0 0.00000000D+00 0.00000000D+00 0.00000000D+00 0.00000000D+00 0.00000000D+00
  <mgrwgt>
 0.1070764119D+01    4    2    0
 0.289141551506845D+03 0.000000000000000D+00 0.000000000000000D+00 0.289141551506845D+03
 0.289141551506845D+03 0.000000000000000D+00 0.000000000000000D+00 -.289141551506845D+03
 0.280273443190231D+03 -.171836268729321D+03 -.111417295741372D+03 -.144867822226234D+03
 0.271791358090705D+03 0.158931792418581D+03 0.128181844054040D+03 0.160354066340527D+03
 0.262183017327539D+02 0.129044763107406D+02 -.167645483126680D+02 -.154862441142932D+02
 0.000000000000000D+00 0.000000000000000D+00 -.000000000000000D+00 -.000000000000000D+00
 0.296643219914316D+03 0.000000000000000D+00 0.000000000000000D+00 0.296643219914316D+03
 0.299283294192720D+03 0.000000000000000D+00 0.000000000000000D+00 -.299283294192720D+03
 0.282102151566963D+03 -.178163492759957D+03 -.105960878864376D+03 -.144867822226234D+03
 0.270822230480137D+03 0.152826908478094D+03 0.133446521202135D+03 0.160354066340527D+03
 0.256140544310427D+02 0.123213163504909D+02 -.162616478568460D+02 -.154862441142932D+02
 0.173880776288936D+02 0.130152679313712D+02 -.112239944809128D+02 -.264007427840365D+01
0.660141791223D-02 0.000000000000D+00 0.000000000000D+00 0.239461310097D-04 0.000000000000D+00  6 -1 2 25 24 21 21 2 0.36523534D-01 0.54177818D-01 0.57728114D+05 0.57728114D+05 0.57728114D+05 0.11861492D+01  1  2  2  1  6  1       -1 0.706793794009D+00 0.100000000000D+01
0.255848048664D-02 0.348366394055D-03 -.253511829762D-04 0.239461310097D-04 0.000000000000D+00  6 -1 2 25 24 21 21 4 0.36523534D-01 0.54177818D-01 0.57728114D+05 0.57728114D+05 0.57728114D+05 0.11861492D+01  1  2  3  1  6  1       -1 0.385404045749D+00 0.100000000000D+01
0.968821120877D-04 0.000000000000D+00 0.000000000000D+00 0.239461310097D-04 0.000000000000D+00  6 -1 2 25 24 21 21 4 0.36523534D-01 0.54177818D-01 0.57728114D+05 0.57728114D+05 0.57728114D+05 0.11861492D+01  1  2 15  1  6  1       -1 0.145941148093D-01 0.100000000000D+01
-.239168517218D-03 0.000000000000D+00 0.000000000000D+00 0.239461310097D-04 0.000000000000D+00  6 -1 2 25 24 21 21 4 0.36523534D-01 0.54177818D-01 0.57728114D+05 0.57728114D+05 0.57728114D+05 0.11861492D+01  1  2  4  1  6  1       -1 -.360278355192D-01 0.100000000000D+01
  </mgrwgt>
  </event>
  <event>
  5     66 0.43535451E-03 0.23112047E+02 0.75467711E-02 0.12137154E+00
       -1 -1    0    0    0  501 0.00000000E+00 0.00000000E+00 0.38956856E+02 0.38958170E+02 0.32000000E+00 0.0000E+00 0.9000E+01
        2 -1    0    0  502    0 0.00000000E+00 0.00000000E+00 -.50221053E+03 0.50221063E+03 0.32000000E+00 0.0000E+00 0.9000E+01
       25  1    1    2    0    0 -.64801520E+02 0.23140809E+02 -.21788788E+03 0.26045127E+03 0.12500000E+03 0.0000E+00 0.9000E+01
       24  1    1    2    0    0 0.60659090E+02 -.45868608E+02 -.22079066E+03 0.24698013E+03 0.80419002E+02 0.0000E+00 0.9000E+01
       21  1    1    2  502  501 0.41424304E+01 0.22727800E+02 -.24575132E+02 0.33737401E+02 0.75000000E+00 0.0000E+00 0.9000E+01
#aMCatNLO 1  0  0  2  2 0.29254795D+01 0.00000000D+00  -5  6  0 0.00000000D+00 0.00000000D+00 0.00000000D+00 0.00000000D+00 0.00000000D+00
  <mgrwgt>
 0.5312769754D+00    9    4    0
 0.139874680988080D+03 0.000000000000000D+00 0.000000000000000D+00 0.139874680988080D+03
 0.139874680988080D+03 0.000000000000000D+00 0.000000000000000D+00 -.139874680988080D+03
 0.143022956589422D+03 -.648025074689143D+02 0.231353909038137D+02 0.979565337528975D+01
 0.112158601918823D+03 0.606583152228984D+02 -.458728571053839D+02 -.181269359055231D+02
 0.245678034679142D+02 0.414419224601591D+01 0.227374662015702D+02 0.833128253023337D+01
 0.000000000000000D+00 -.000000000000000D+00 0.000000000000000D+00 -.000000000000000D+00
 0.140738317350634D+03 0.000000000000000D+00 0.000000000000000D+00 0.140738317350634D+03
 0.142381904961943D+03 0.000000000000000D+00 0.000000000000000D+00 -.142381904961943D+03
 0.142341512416498D+03 -.636005356688191D+02 0.222513638819399D+02 0.979565337528975D+01
 0.112959966917416D+03 0.616065277749429D+02 -.465702491061122D+02 -.181269359055231D+02
 0.244631788282630D+02 0.435071360537178D+01 0.225855737343340D+02 0.833128253023337D+01
 0.335556415039991D+01 -.235670571149557D+01 0.173331148983829D+01 -.164358761130881D+01
 0.139874680988080D+03 0.000000000000000D+00 0.000000000000000D+00 0.139874680988080D+03
 0.139874680988080D+03 0.000000000000000D+00 0.000000000000000D+00 -.139874680988080D+03
 0.143022956589422D+03 -.648025074689143D+02 0.231353909038137D+02 0.979565337528975D+01
 0.112158601918823D+03 0.606583152228984D+02 -.458728571053839D+02 -.181269359055231D+02
 0.000000000000000D+00 -.000000000000000D+00 0.000000000000000D+00 -.000000000000000D+00
 0.245678034679142D+02 0.414419224601591D+01 0.227374662015702D+02 0.833128253023337D+01
 0.140738317350634D+03 0.000000000000000D+00 0.000000000000000D+00 0.140738317350634D+03
 0.142381904961943D+03 0.000000000000000D+00 0.000000000000000D+00 -.142381904961943D+03
 0.142341512416498D+03 -.636005356688191D+02 0.222513638819399D+02 0.979565337528975D+01
 0.112959966917416D+03 0.616065277749429D+02 -.465702491061122D+02 -.181269359055231D+02
 0.335556415039991D+01 -.235670571149557D+01 0.173331148983829D+01 -.164358761130881D+01
 0.244631788282630D+02 0.435071360537178D+01 0.225855737343340D+02 0.833128253023337D+01
0.109325738989D-03 0.000000000000D+00 0.000000000000D+00 0.405794568541D-04 0.000000000000D+00  6 -1 2 25 24 21 21 2 0.59934714D-02 0.77263267D-01 0.19110745D+05 0.19110745D+05 0.19110745D+05 0.12360066D+01  1  2  2  2  6  2        2 0.150591692692D+00 0.100000000000D+01
0.221793435669D-04 0.576927774840D-05 -.419839623846D-06 0.405794568541D-04 0.000000000000D+00  6 -1 2 25 24 21 21 4 0.59934714D-02 0.77263267D-01 0.19110745D+05 0.19110745D+05 0.19110745D+05 0.12360066D+01  1  2  3  2  6  2        2 0.466733343345D-01 0.100000000000D+01
0.230616455180D-05 0.000000000000D+00 0.000000000000D+00 0.405794568541D-04 0.000000000000D+00  6 -1 2 25 24 21 21 4 0.59934714D-02 0.77263267D-01 0.19110745D+05 0.19110745D+05 0.19110745D+05 0.12360066D+01  1  2 15  2  6  2        2 0.485300157019D-02 0.100000000000D+01
-.717046044537D-03 0.000000000000D+00 0.000000000000D+00 0.405794568541D-04 0.000000000000D+00  6 -1 2 25 24 21 21 4 0.59934714D-02 0.77263267D-01 0.19110745D+05 0.19110745D+05 0.19110745D+05 0.12360066D+01  1  2  4  2  6  2        2 -.150892336686D+01 0.100000000000D+01
-.132806227964D-01 0.000000000000D+00 -.150553682891D-02 0.405794568541D-04 0.000000000000D+00  6 -1 2 25 24 21 21 4 0.59934714D-02 0.79015682D-01 0.19110745D+05 0.19110745D+05 0.19110745D+05 0.12360066D+01  1  2  5  2  6  2        2 -.272651492563D+02 0.100000000000D+01
0.133114191098D-01 0.000000000000D+00 0.150515826460D-02 0.405794568541D-04 0.000000000000D+00  6 -1 2 25 24 21 21 4 0.59934714D-02 0.77263267D-01 0.19110745D+05 0.19110745D+05 0.19110745D+05 0.12360066D+01  1  2  6  2  6  2        2 0.280120244633D+02 0.100000000000D+01
0.635063126053D-03 0.000000000000D+00 0.000000000000D+00 0.405794568541D-04 0.258355090483D-04  6 -1 2 25 24 21 21 4 0.60304772D-02 0.78648195D-01 0.19519776D+05 0.19519776D+05 0.19519776D+05 0.12349898D+01  1  2 11  2  6  2        2 0.129512934866D+01 0.100000000000D+01
-.537392728134D-04 0.000000000000D+00 -.612336591922D-05 0.405794568541D-04 0.000000000000D+00  6 -1 21 25 24 -2 21 4 0.59934714D-02 0.79015682D-01 0.19110745D+05 0.19110745D+05 0.19110745D+05 0.12360066D+01  3  4  5  5  5  2        2 -.210868164560D+00 0.100000000000D+01
0.177381487161D-05 0.000000000000D+00 0.000000000000D+00 0.405794568541D-04 0.140738318817D-06  6 -1 21 25 24 -2 21 4 0.60304772D-02 0.78648195D-01 0.19519776D+05 0.19519776D+05 0.19519776D+05 0.12349898D+01  3  4 11  5  5  2        2 0.694592262407D-02 0.100000000000D+01
  </mgrwgt>
  </event>
  <event>
  6     66 0.43535451E-03 0.38412108E+02 0.75467711E-02 0.11482872E+00
       -1 -1    0    0    0  501 0.00000000E+00 0.00000000E+00 0.18613970E+03 0.18613997E+03 0.32000000E+00 0.0000E+00 0.9000E+01
        2 -1    0    0  502    0 -.00000000E+00 -.00000000E+00 -.48715497E+03 0.48715508E+03 0.32000000E+00 0.0000E+00 0.9000E+01
       25  1    1    2    0    0 0.26533503E+02 -.64068270E+02 -.50761265E+02 0.15169204E+03 0.12500000E+03 0.0000E+00 0.9000E+01
       24  1    1    2    0    0 -.10865695E+03 0.39169915E+02 -.33949292E+03 0.36750956E+03 0.80419002E+02 0.0000E+00 0.9000E+01
        3  1    1    2  502    0 0.36720096E+02 0.54341402E+02 0.71777057E+02 0.97229365E+02 0.50000000E+00 0.0000E+00 0.9000E+01
       -3  1    1    2    0  501 0.45403353E+02 -.29443048E+02 0.17461852E+02 0.56864082E+02 0.50000000E+00 0.0000E+00 0.9000E+01
#aMCatNLO 2  0  0  5  2 0.42728076D+02 0.00000000D+00  -5  6  0 0.00000000D+00 0.00000000D+00 0.00000000D+00 0.00000000D+00 0.00000000D+00
  <mgrwgt>
 0.6835207025D-03    2    2    0
 0.301129549795661D+03 0.000000000000000D+00 0.000000000000000D+00 0.301129549795661D+03
 0.301129549795661D+03 -.000000000000000D+00 -.000000000000000D+00 -.301129549795661D+03
 0.143605980246878D+03 0.244652623054417D+02 -.646953236462648D+02 0.146165523054376D+02
 0.248769831847871D+03 -.112177650310277D+03 0.381025026602905D+02 -.203429563596679D+03
 0.209883287496573D+03 0.877123880048351D+02 0.265928209859743D+02 0.188813011291241D+03
 0.000000000000000D+00 0.000000000000000D+00 0.000000000000000D+00 0.000000000000000D+00
 0.301129549795661D+03 0.000000000000000D+00 0.000000000000000D+00 0.301129549795661D+03
 0.301129549795661D+03 -.000000000000000D+00 -.000000000000000D+00 -.301129549795661D+03
 0.144214041157660D+03 0.265366519000476D+02 -.640673155172588D+02 0.190755040659725D+02
 0.241163633731403D+03 -.108651686141079D+03 0.391715116804220D+02 -.195839439469007D+03
 0.144357895826895D+03 0.365806167423501D+02 0.543740961758430D+02 0.128625496039386D+03
 0.725235288753641D+02 0.455344174986814D+02 -.294782923390061D+02 0.481384393636483D+02
-.320067865066D-05 0.000000000000D+00 0.000000000000D+00 0.232559865564D-05 0.000000000000D+00  6 -1 2 25 24 3 -3 4 0.28636905D-01 0.74946948D-01 0.40695168D+05 0.40695168D+05 0.40695168D+05 0.12012411D+01  1  2 13  8  6  5       21 -.540411402102D-03 0.100000000000D+01
0.724894652816D-05 0.000000000000D+00 0.000000000000D+00 0.234830998821D-05 0.254250794853D-09  6 -1 2 25 24 3 -3 4 0.28636905D-01 0.74946948D-01 0.40695168D+05 0.40695168D+05 0.40695168D+05 0.12012411D+01  1  2  1  8  6  5       21 0.122393210460D-02 0.100000000000D+01
  </mgrwgt>
  </event>
  <event>
  5     66 0.43535451E-03 0.83899047E+02 0.75467711E-02 0.10975534E+00
       -1 -1    0    0    0  501 0.00000000E+00 0.00000000E+00 0.19844193E+03 0.19844219E+03 0.32000000E+00 0.0000E+00 0.9000E+01
        2 -1    0    0  502    0 0.00000000E+00 0.00000000E+00 -.56350758E+03 0.56350767E+03 0.32000000E+00 0.0000E+00 0.9000E+01
       25  1    1    2    0    0 -.39593028E+02 -.10530943E+03 -.18404259E+03 0.24930776E+03 0.12500000E+03 0.0000E+00 0.9000E+01
       24  1    1    2    0    0 -.79455643E+02 -.95257993E+02 -.23086149E+03 0.27413779E+03 0.80419002E+02 0.0000E+00 0.9000E+01
       21  1    1    2  502  501 0.11904867E+03 0.20056742E+03 0.49838429E+02 0.23850431E+03 0.75000000E+00 0.0000E+00 0.9000E+01
#aMCatNLO 1  0  0  2  5 0.40137150D+01 0.00000000D+00  -5  6  0 0.00000000D+00 0.00000000D+00 0.00000000D+00 0.00000000D+00 0.00000000D+00
  <mgrwgt>
 0.4473257102D-01   11    4    0
 0.334400456595897D+03 0.000000000000000D+00 0.000000000000000D+00 0.334400456595897D+03
 0.334400456595897D+03 0.000000000000000D+00 0.000000000000000D+00 -.334400456595897D+03
 0.183571083440736D+03 -.395931311104288D+02 -.105309599797685D+03 -.735908610829448D+02
 0.186303285672713D+03 -.794557477635841D+02 -.952581688503538D+02 -.113377086365302D+03
 0.298926544078346D+03 0.119048878874013D+03 0.200567768648039D+03 0.186967947448247D+03
 0.000000000000000D+00 -.000000000000000D+00 0.000000000000000D+00 -.000000000000000D+00
 0.335434307811336D+03 0.000000000000000D+00 0.000000000000000D+00 0.335434307811336D+03
 0.338324908298401D+03 0.000000000000000D+00 0.000000000000000D+00 -.338324908298401D+03
 0.183823960282732D+03 -.387777105507489D+02 -.106051509671200D+03 -.735908610829448D+02
 0.186338667067492D+03 -.786286818712844D+02 -.960106742222878D+02 -.113377086365302D+03
 0.298650329607549D+03 0.120375180023463D+03 0.199361034397412D+03 0.186967947448247D+03
 0.494625915196303D+01 -.296878760142977D+01 0.270114949607604D+01 -.289060048706547D+01
 0.334400456595897D+03 0.000000000000000D+00 0.000000000000000D+00 0.334400456595897D+03
 0.334400456595897D+03 0.000000000000000D+00 0.000000000000000D+00 -.334400456595897D+03
 0.183571083440736D+03 -.395931311104288D+02 -.105309599797685D+03 -.735908610829448D+02
 0.186303285672713D+03 -.794557477635841D+02 -.952581688503538D+02 -.113377086365302D+03
 0.000000000000000D+00 -.000000000000000D+00 0.000000000000000D+00 -.000000000000000D+00
 0.298926544078346D+03 0.119048878874013D+03 0.200567768648039D+03 0.186967947448247D+03
 0.335434307811336D+03 0.000000000000000D+00 0.000000000000000D+00 0.335434307811336D+03
 0.338324908298401D+03 0.000000000000000D+00 0.000000000000000D+00 -.338324908298401D+03
 0.183823960282732D+03 -.387777105507489D+02 -.106051509671200D+03 -.735908610829448D+02
 0.186338667067492D+03 -.786286818712844D+02 -.960106742222878D+02 -.113377086365302D+03
 0.494625915196303D+01 -.296878760142977D+01 0.270114949607604D+01 -.289060048706547D+01
 0.298650329607549D+03 0.120375180023463D+03 0.199361034397412D+03 0.186967947448247D+03
0.163447007287D-03 0.000000000000D+00 0.000000000000D+00 0.140887368379D-05 0.000000000000D+00  6 -1 2 25 24 21 21 2 0.30529555D-01 0.86693501D-01 0.75417725D+05 0.75417725D+05 0.75417725D+05 0.11749979D+01  1  2  2  2  6  2        2 0.138948287695D-01 0.100000000000D+01
-.167037299536D-04 0.862533554227D-05 -.627679544569D-06 0.140887368379D-05 0.000000000000D+00  6 -1 2 25 24 21 21 4 0.30529555D-01 0.86693501D-01 0.75417725D+05 0.75417725D+05 0.75417725D+05 0.11749979D+01  1  2  3  2  6  2        2 -.196048659870D-02 0.100000000000D+01
0.750490536074D-05 0.000000000000D+00 0.000000000000D+00 0.140887368379D-05 0.000000000000D+00  6 -1 2 25 24 21 21 4 0.30529555D-01 0.86693501D-01 0.75417725D+05 0.75417725D+05 0.75417725D+05 0.11749979D+01  1  2 15  2  6  2        2 0.880837179788D-03 0.100000000000D+01
0.278451734744D-04 0.000000000000D+00 0.000000000000D+00 0.140745128225D-05 0.000000000000D+00  6 -1 2 25 24 21 21 4 0.30529555D-01 0.87894485D-01 0.76514735D+05 0.76514735D+05 0.76514735D+05 0.11744046D+01  1  2 12  2  6  2        2 0.320991294022D-02 0.100000000000D+01
-.794857259898D-02 0.000000000000D+00 0.000000000000D+00 0.140887368379D-05 0.000000000000D+00  6 -1 2 25 24 21 21 4 0.30529555D-01 0.86693501D-01 0.75417725D+05 0.75417725D+05 0.75417725D+05 0.11749979D+01  1  2  4  2  6  2        2 -.932909601772D+00 0.100000000000D+01
-.354836975435D-01 0.000000000000D+00 -.359703867223D-02 0.140887368379D-05 0.000000000000D+00  6 -1 2 25 24 21 21 4 0.30529555D-01 0.87900725D-01 0.75417725D+05 0.75417725D+05 0.75417725D+05 0.11749979D+01  1  2  5  2  6  2        2 -.409876005251D+01 0.100000000000D+01
0.355303878490D-01 0.000000000000D+00 0.359669474186D-02 0.140887368379D-05 0.000000000000D+00  6 -1 2 25 24 21 21 4 0.30529555D-01 0.86693501D-01 0.75417725D+05 0.75417725D+05 0.75417725D+05 0.11749979D+01  1  2  6  2  6  2        2 0.417013741350D+01 0.100000000000D+01
0.785547873467D-02 0.000000000000D+00 0.000000000000D+00 0.140887368379D-05 0.356401611124D-06  6 -1 2 25 24 21 21 4 0.30623942D-01 0.87710917D-01 0.76514735D+05 0.76514735D+05 0.76514735D+05 0.11744046D+01  1  2 11  2  6  2        2 0.902960195538D+00 0.100000000000D+01
0.246039125454D-05 0.000000000000D+00 0.000000000000D+00 0.140745128225D-05 0.000000000000D+00  6 -1 21 25 24 -2 21 4 0.30529555D-01 0.87894485D-01 0.76514735D+05 0.76514735D+05 0.76514735D+05 0.11744046D+01  3  4 12  5  5  2        2 0.456482547321D-03 0.100000000000D+01
-.898750260225D-04 0.000000000000D+00 -.913647476258D-05 0.140887368379D-05 0.000000000000D+00  6 -1 21 25 24 -2 21 4 0.30529555D-01 0.87900725D-01 0.75417725D+05 0.75417725D+05 0.75417725D+05 0.11749979D+01  3  4  5  5  5  2        2 -.167162722387D-01 0.100000000000D+01
0.190846021952D-04 0.000000000000D+00 0.000000000000D+00 0.140887368379D-05 0.155995818354D-08  6 -1 21 25 24 -2 21 4 0.30623942D-01 0.87710917D-01 0.76514735D+05 0.76514735D+05 0.76514735D+05 0.11744046D+01  3  4 11  5  5  2        2 0.353931365683D-02 0.100000000000D+01
  </mgrwgt>
  </event>
  <event>
  5     66 0.43535451E-03 0.26346193E+02 0.75467711E-02 0.12460394E+00
       -1 -1    0    0    0  501 0.00000000E+00 0.00000000E+00 0.71104217E+01 0.71176188E+01 0.32000000E+00 0.0000E+00 0.9000E+01
        2 -1    0    0  502    0 -.00000000E+00 -.00000000E+00 -.27649145E+04 0.27649146E+04 0.32000000E+00 0.0000E+00 0.9000E+01
       25  1    1    2    0    0 -.61483394E+01 -.82717296E+01 -.16105592E+04 0.16154356E+04 0.12500000E+03 0.0000E+00 0.9000E+01
       24  1    1    2    0    0 0.23453284E+02 -.11592413E+02 -.10932182E+04 0.10964842E+04 0.80419002E+02 0.0000E+00 0.9000E+01
       21  1    1    2  502  501 -.17304944E+02 0.19864142E+02 -.54026747E+02 0.60112371E+02 0.75000000E+00 0.0000E+00 0.9000E+01
#aMCatNLO 1  0  0  5  1 0.10468340D+01 0.00000000D+00  -5  6  0 0.00000000D+00 0.00000000D+00 0.00000000D+00 0.00000000D+00 0.00000000D+00
  <mgrwgt>
 0.2594622825D+00   25    2    0
 0.140248740837744D+03 0.000000000000000D+00 0.000000000000000D+00 0.140248740837744D+03
 0.140248740837744D+03 -.000000000000000D+00 -.000000000000000D+00 -.140248740837744D+03
 0.129886354281432D+03 -.614776936438352D+01 -.827238388819844D+01 -.337525943472554D+02
 0.877301348878187D+02 0.234536688255952D+02 -.115928548635082D+02 -.233429164372677D+02
 0.628809925062374D+02 -.173058994612116D+02 0.198652387517067D+02 0.570955107845232D+02
 0.000000000000000D+00 -.000000000000000D+00 0.000000000000000D+00 0.000000000000000D+00
 0.140248740837744D+03 0.000000000000000D+00 0.000000000000000D+00 0.140248740837744D+03
 0.140248740837744D+03 -.000000000000000D+00 -.000000000000000D+00 -.140248740837744D+03
 0.129873420679425D+03 -.616242646340748D+01 -.825555917636125D+01 -.337042377416212D+02
 0.877173027581583D+02 0.234437691000989D+02 -.115814910848731D+02 -.233102553273901D+02
 0.576598343081023D+02 -.148721609998231D+02 0.184599977609627D+02 0.525614288456697D+02
 0.524692392980235D+01 -.240918163686833D+01 0.137705250027161D+01 0.445306422334157D+01
0.336506662269D-04 0.000000000000D+00 0.000000000000D+00 0.447692517783D-04 0.000000000000D+00  6 -1 2 25 24 21 21 2 0.10944661D-02 0.42537202D+00 0.13963915D+05 0.13963915D+05 0.13963915D+05 0.12513818D+01  1  2  2  3  6  5       21 0.283338517398D-01 0.100000000000D+01
0.284475114960D-05 0.177579444399D-05 -.129227418735D-06 0.447692517783D-04 0.000000000000D+00  6 -1 2 25 24 21 21 4 0.10944661D-02 0.42537202D+00 0.13963915D+05 0.13963915D+05 0.13963915D+05 0.12513818D+01  1  2  3  3  6  5       21 0.375090356425D-02 0.100000000000D+01
0.160006129511D-05 0.000000000000D+00 0.000000000000D+00 0.447692517783D-04 0.000000000000D+00  6 -1 2 25 24 21 21 4 0.10944661D-02 0.42537202D+00 0.13963915D+05 0.13963915D+05 0.13963915D+05 0.12513818D+01  1  2 15  3  6  5       21 0.210973659882D-02 0.100000000000D+01
0.928500582242D-08 0.000000000000D+00 0.000000000000D+00 0.447653329252D-04 0.000000000000D+00  6 -1 2 25 24 21 21 4 0.10944661D-02 0.42537202D+00 0.13979236D+05 0.13979236D+05 0.13979236D+05 0.12513270D+01  1  2 12  3  6  5       21 0.122404818986D-04 0.100000000000D+01
0.979382296134D-08 0.000000000000D+00 0.000000000000D+00 0.447653329252D-04 0.000000000000D+00  6 -1 2 25 24 21 21 4 0.10944661D-02 0.42537202D+00 0.13979236D+05 0.13979236D+05 0.13979236D+05 0.12513270D+01  1  2 12  3  6  5       21 0.129112587508D-04 0.100000000000D+01
-.455364658736D-02 0.000000000000D+00 0.000000000000D+00 0.447692517783D-04 0.000000000000D+00  6 -1 2 25 24 21 21 4 0.10944661D-02 0.42537202D+00 0.13963915D+05 0.13963915D+05 0.13963915D+05 0.12513818D+01  1  2  4  3  6  5       21 -.600414177431D+01 0.100000000000D+01
-.529669699180D-02 0.000000000000D+00 0.000000000000D+00 0.447692517783D-04 0.000000000000D+00  6 -1 2 25 24 21 21 4 0.10944661D-02 0.42537202D+00 0.13963915D+05 0.13963915D+05 0.13963915D+05 0.12513818D+01  1  2  5  3  6  5       21 -.698387963674D+01 0.100000000000D+01
0.579924707149D-02 0.000000000000D+00 -.000000000000D+00 0.447692517783D-04 0.000000000000D+00  6 -1 2 25 24 21 21 4 0.10944661D-02 0.42537202D+00 0.13963915D+05 0.13963915D+05 0.13963915D+05 0.12513818D+01  1  2  6  3  6  5       21 0.764650943667D+01 0.100000000000D+01
0.423041390249D-02 0.000000000000D+00 0.000000000000D+00 0.447692517783D-04 0.262884803659D-03  6 -1 2 25 24 21 21 4 0.10944661D-02 0.42537202D+00 0.13979236D+05 0.13979236D+05 0.13979236D+05 0.12513270D+01  1  2 11  3  6  5       21 0.557698140283D+01 0.100000000000D+01
0.251153659606D-09 0.000000000000D+00 0.000000000000D+00 0.447653329252D-04 0.000000000000D+00  6 -1 2 25 24 1 -1 4 0.10944661D-02 0.42537202D+00 0.13979236D+05 0.13979236D+05 0.13979236D+05 0.12513270D+01  1  2 12  6  6  5       21 0.331097457876D-06 0.100000000000D+01
0.254252957851D-09 0.000000000000D+00 0.000000000000D+00 0.447653329252D-04 0.000000000000D+00  6 -1 2 25 24 1 -1 4 0.10944661D-02 0.42537202D+00 0.13979236D+05 0.13979236D+05 0.13979236D+05 0.12513270D+01  1  2 12  6  6  5       21 0.335183282354D-06 0.100000000000D+01
-.365657174058D-04 0.000000000000D+00 0.000000000000D+00 0.447692517783D-04 0.000000000000D+00  6 -1 2 25 24 1 -1 4 0.10944661D-02 0.42537202D+00 0.13963915D+05 0.13963915D+05 0.13963915D+05 0.12513818D+01  1  2  5  6  6  5       21 -.482131731508D-01 0.100000000000D+01
0.349879176838D-04 0.000000000000D+00 0.000000000000D+00 0.447692517783D-04 0.431408960737D-05  6 -1 2 25 24 1 -1 4 0.10944661D-02 0.42537202D+00 0.13979236D+05 0.13979236D+05 0.13979236D+05 0.12513270D+01  1  2 11  6  6  5       21 0.461247931631D-01 0.100000000000D+01
0.251153659606D-09 0.000000000000D+00 0.000000000000D+00 0.447653329252D-04 0.000000000000D+00  6 -1 2 25 24 2 -2 4 0.10944661D-02 0.42537202D+00 0.13979236D+05 0.13979236D+05 0.13979236D+05 0.12513270D+01  1  2 12  7  6  5       21 0.331097457876D-06 0.100000000000D+01
0.254252957851D-09 0.000000000000D+00 0.000000000000D+00 0.447653329252D-04 0.000000000000D+00  6 -1 2 25 24 2 -2 4 0.10944661D-02 0.42537202D+00 0.13979236D+05 0.13979236D+05 0.13979236D+05 0.12513270D+01  1  2 12  7  6  5       21 0.335183282354D-06 0.100000000000D+01
-.365657174058D-04 0.000000000000D+00 0.000000000000D+00 0.447692517783D-04 0.000000000000D+00  6 -1 2 25 24 2 -2 4 0.10944661D-02 0.42537202D+00 0.13963915D+05 0.13963915D+05 0.13963915D+05 0.12513818D+01  1  2  5  7  6  5       21 -.482131731508D-01 0.100000000000D+01
0.345115075854D-04 0.000000000000D+00 0.000000000000D+00 0.447692517783D-04 0.418615789211D-05  6 -1 2 25 24 2 -2 4 0.10944661D-02 0.42537202D+00 0.13979236D+05 0.13979236D+05 0.13979236D+05 0.12513270D+01  1  2 11  7  6  5       21 0.454967387173D-01 0.100000000000D+01
0.251153659606D-09 0.000000000000D+00 0.000000000000D+00 0.447653329252D-04 0.000000000000D+00  6 -1 2 25 24 3 -3 4 0.10944661D-02 0.42537202D+00 0.13979236D+05 0.13979236D+05 0.13979236D+05 0.12513270D+01  1  2 12  8  6  5       21 0.331097457876D-06 0.100000000000D+01
0.251153659606D-09 0.000000000000D+00 0.000000000000D+00 0.447653329252D-04 0.000000000000D+00  6 -1 2 25 24 4 -4 4 0.10944661D-02 0.42537202D+00 0.13979236D+05 0.13979236D+05 0.13979236D+05 0.12513270D+01  1  2 12  8  6  5       21 0.331097457876D-06 0.100000000000D+01
0.254252957851D-09 0.000000000000D+00 0.000000000000D+00 0.447653329252D-04 0.000000000000D+00  6 -1 2 25 24 3 -3 4 0.10944661D-02 0.42537202D+00 0.13979236D+05 0.13979236D+05 0.13979236D+05 0.12513270D+01  1  2 12  8  6  5       21 0.335183282354D-06 0.100000000000D+01
0.254252957851D-09 0.000000000000D+00 0.000000000000D+00 0.447653329252D-04 0.000000000000D+00  6 -1 2 25 24 4 -4 4 0.10944661D-02 0.42537202D+00 0.13979236D+05 0.13979236D+05 0.13979236D+05 0.12513270D+01  1  2 12  8  6  5       21 0.335183282354D-06 0.100000000000D+01
-.365657174058D-04 0.000000000000D+00 0.000000000000D+00 0.447692517783D-04 0.000000000000D+00  6 -1 2 25 24 3 -3 4 0.10944661D-02 0.42537202D+00 0.13963915D+05 0.13963915D+05 0.13963915D+05 0.12513818D+01  1  2  5  8  6  5       21 -.482131731508D-01 0.100000000000D+01
-.365657174058D-04 0.000000000000D+00 0.000000000000D+00 0.447692517783D-04 0.000000000000D+00  6 -1 2 25 24 4 -4 4 0.10944661D-02 0.42537202D+00 0.13963915D+05 0.13963915D+05 0.13963915D+05 0.12513818D+01  1  2  5  8  6  5       21 -.482131731508D-01 0.100000000000D+01
0.345146284739D-04 0.000000000000D+00 0.000000000000D+00 0.447692517783D-04 0.418649412643D-05  6 -1 2 25 24 3 -3 4 0.10944661D-02 0.42537202D+00 0.13979236D+05 0.13979236D+05 0.13979236D+05 0.12513270D+01  1  2 11  8  6  5       21 0.455008530044D-01 0.100000000000D+01
0.345146284739D-04 0.000000000000D+00 0.000000000000D+00 0.447692517783D-04 0.418649412643D-05  6 -1 2 25 24 4 -4 4 0.10944661D-02 0.42537202D+00 0.13979236D+05 0.13979236D+05 0.13979236D+05 0.12513270D+01  1  2 11  8  6  5       21 0.455008530044D-01 0.100000000000D+01
  </mgrwgt>
  </event>
  <event>
  6     66 0.43535451E-03 0.21538918E+02 0.75467711E-02 0.11650463E+00
       -1 -1    0    0    0  503 0.00000000E+00 0.00000000E+00 0.49293321E+03 0.49293332E+03 0.32000000E+00 0.0000E+00 0.9000E+01
        2 -1    0    0  502    0 0.00000000E+00 0.00000000E+00 -.15459996E+03 0.15460029E+03 0.32000000E+00 0.0000E+00 0.9000E+01
       25  1    1    2    0    0 0.83874436E+02 0.11755976E+03 0.16317902E+03 0.25121228E+03 0.12500000E+03 0.0000E+00 0.9000E+01
       24  1    1    2    0    0 -.61058252E+02 -.11247101E+03 -.58053486E+02 0.16191127E+03 0.80419002E+02 0.0000E+00 0.9000E+01
       21  1    1    2  502  501 -.11025053E+02 -.41615683E+01 0.10863588E+03 0.10927574E+03 0.75000000E+00 0.0000E+00 0.9000E+01
       21  1    1    2  501  503 -.11791131E+02 -.92717983E+00 0.12457184E+03 0.12513432E+03 0.75000000E+00 0.0000E+00 0.9000E+01
#aMCatNLO 2  0  0  1  5 0.76568877D+01 0.00000000D+00  -5  6  0 0.00000000D+00 0.00000000D+00 0.00000000D+00 0.00000000D+00 0.00000000D+00
  <mgrwgt>
 0.1563893272D+00    1    2    0
 0.238257836947713D+03 0.000000000000000D+00 0.000000000000000D+00 0.238257836947713D+03
 0.238257836947713D+03 0.000000000000000D+00 0.000000000000000D+00 -.238257836947713D+03
 0.199896034077628D+03 0.789014289602319D+02 0.117168785874509D+03 0.661775231078587D+02
 0.205274696419719D+03 -.661143842754586D+02 -.112868510952166D+03 -.136235356876088D+03
 0.713449433980780D+02 -.127870446847732D+02 -.430027492234288D+01 0.700578337682292D+02
 0.000000000000000D+00 -.000000000000000D+00 -.000000000000000D+00 0.000000000000000D+00
 0.319171003549446D+03 0.000000000000000D+00 0.000000000000000D+00 0.319171003549446D+03
 0.238763834259606D+03 0.000000000000000D+00 0.000000000000000D+00 -.238763834259606D+03
 0.202137955608778D+03 0.838747232740815D+02 0.117559854239027D+03 0.661775231078587D+02
 0.203482339429083D+03 -.610579236420715D+02 -.112470902915047D+03 -.136235356876088D+03
 0.710421409595982D+02 -.110256690419973D+02 -.416177149816314D+01 0.700578337682292D+02
 0.812724018115933D+02 -.117911305900126D+02 -.927179825816947D+00 0.804071692898397D+02
0.153667962330D-02 0.000000000000D+00 0.000000000000D+00 0.743172033798D-04 0.396574838732D-04  6 -1 2 25 24 21 21 4 0.75835364D-01 0.23784470D-01 0.33444406D+05 0.33444406D+05 0.33444406D+05 0.12099753D+01  1  2  1  1  6  1       -1 0.156389327165D+00 0.100000000000D+01
  </mgrwgt>
  </event>
  <event>
  6     66 0.43535451E-03 0.38367677E+02 0.75467711E-02 0.12053626E+00
       -1 -1    0    0    0  501 0.00000000E+00 0.00000000E+00 0.39755147E+02 0.39756435E+02 0.32000000E+00 0.0000E+00 0.9000E+01
        2 -1    0    0  503    0 0.00000000E+00 0.00000000E+00 -.20667139E+04 0.20667139E+04 0.32000000E+00 0.0000E+00 0.9000E+01
       25  1    1    2    0    0 -.23868569E+02 -.13713259E+02 -.16909806E+03 0.21207761E+03 0.12500000E+03 0.0000E+00 0.9000E+01
       24  1    1    2    0    0 0.53218350E+02 0.54596586E+02 -.15742861E+03 0.19252003E+03 0.80419002E+02 0.0000E+00 0.9000E+01
       21  1    1    2  502  501 -.97457163E+01 -.22002629E+01 -.57374297E+02 0.58242533E+02 0.75000000E+00 0.0000E+00 0.9000E+01
       21  1    1    2  503  502 -.19604064E+02 -.38683065E+02 -.16430578E+04 0.16436302E+04 0.75000000E+00 0.0000E+00 0.9000E+01
#aMCatNLO 2  0  0  2  5 0.59066351D+01 0.00000000D+00  -5  6  0 0.00000000D+00 0.00000000D+00 0.00000000D+00 0.00000000D+00 0.00000000D+00
  <mgrwgt>
 0.5394311429D-01    1    2    0
 0.127436635701236D+03 0.000000000000000D+00 0.000000000000000D+00 0.127436635701236D+03
 0.127436635701236D+03 0.000000000000000D+00 0.000000000000000D+00 -.127436635701236D+03
 0.134338471632656D+03 -.339036793518284D+02 -.335207588632424D+02 0.121952536766802D+02
 0.100105730269022D+03 0.451647507430964D+02 0.387005789377373D+02 0.404373076770153D+01
 0.204290695007933D+02 -.112610713912679D+02 -.517982007449492D+01 -.162389844443817D+02
 0.000000000000000D+00 -.000000000000000D+00 -.000000000000000D+00 -.000000000000000D+00
 0.130205258691729D+03 0.000000000000000D+00 0.000000000000000D+00 0.130205258691729D+03
 0.631030938122393D+03 0.000000000000000D+00 0.000000000000000D+00 -.631030938122393D+03
 0.128573908437452D+03 -.238646183717600D+02 -.137115173709538D+02 0.121952536766802D+02
 0.110892159147840D+03 0.532215059174125D+02 0.545983017635216D+02 0.404373076770153D+01
 0.190703579588237D+02 -.975282305074040D+01 -.220371945440985D+01 -.162389844443817D+02
 0.502699771270006D+03 -.196040644949121D+02 -.386830649381580D+02 -.500825679430663D+03
0.227770925661D-03 0.000000000000D+00 0.000000000000D+00 0.139689442721D-03 0.162823065016D-05  6 -1 2 25 24 21 21 4 0.61162643D-02 0.31795541D+00 0.21342050D+05 0.21342050D+05 0.21342050D+05 0.12307328D+01  1  2  1  2  6  2        2 0.539431142860D-01 0.100000000000D+01
  </mgrwgt>
  </event>
  <event>
  5     66 0.43535451E-03 0.26875743E+02 0.75467711E-02 0.11502334E+00
       -1 -1    0    0    0  501 0.00000000E+00 0.00000000E+00 0.35762982E+02 0.35764413E+02 0.32000000E+00 0.0000E+00 0.9000E+01
        2 -1    0    0  502    0 0.00000000E+00 0.00000000E+00 -.12683902E+04 0.12683903E+04 0.32000000E+00 0.0000E+00 0.9000E+01
       25  1    1    2    0    0 0.12372332E+03 0.34418316E+02 -.42852151E+03 0.46448656E+03 0.12500000E+03 0.0000E+00 0.9000E+01
       24  1    1    2    0    0 -.10188573E+03 -.50082332E+02 -.80054955E+03 0.81254891E+03 0.80419002E+02 0.0000E+00 0.9000E+01
       21  1    1    2  502  501 -.21837594E+02 0.15664016E+02 -.35561762E+01 0.27119196E+02 0.75000000E+00 0.0000E+00 0.9000E+01
#aMCatNLO 1  0  0  2  1 0.49857753D+02 0.00000000D+00  -5  6  0 0.00000000D+00 0.00000000D+00 0.00000000D+00 0.00000000D+00 0.00000000D+00
  <mgrwgt>
 0.4448504073D+00    4    2    0
 0.212984450603797D+03 0.000000000000000D+00 0.000000000000000D+00 0.212984450603797D+03
 0.212984450603797D+03 0.000000000000000D+00 0.000000000000000D+00 -.212984450603797D+03
 0.182067360898297D+03 0.123723818251004D+03 0.344179604471479D+02 0.321145558979393D+02
 0.171164059075452D+03 -.101885261950669D+03 -.500826668124403D+02 -.997047594000012D+02
 0.727374812338444D+02 -.218385563003350D+02 0.156647063652924D+02 0.675902035020619D+02
 0.000000000000000D+00 0.000000000000000D+00 0.000000000000000D+00 0.000000000000000D+00
 0.289243680520601D+03 0.000000000000000D+00 0.000000000000000D+00 0.289243680520601D+03
 0.222745947648816D+03 0.000000000000000D+00 0.000000000000000D+00 -.222745947648816D+03
 0.175792823568505D+03 0.118511247453237D+03 0.142076157304271D+02 0.321145558979393D+02
 0.180986954774099D+03 -.107014673298654D+03 -.699705830746150D+02 -.997047594000012D+02
 0.720970108632275D+02 -.239482071550100D+02 0.748510120325314D+01 0.675902035020619D+02
 0.831128389635839D+02 0.124516330004269D+02 0.482778661409348D+02 0.664977328717851D+02
0.800867246351D-03 0.000000000000D+00 0.000000000000D+00 0.230708305802D-04 0.000000000000D+00  6 -1 2 25 24 21 21 2 0.55021104D-02 0.19513707D+00 0.29793279D+05 0.29793279D+05 0.29793279D+05 0.12152137D+01  1  2  2  2  6  2        2 0.372515741352D+00 0.100000000000D+01
0.117012380081D-03 0.422629256983D-04 -.307554109918D-05 0.230708305802D-04 0.000000000000D+00  6 -1 2 25 24 21 21 4 0.55021104D-02 0.19513707D+00 0.29793279D+05 0.29793279D+05 0.29793279D+05 0.12152137D+01  1  2  3  2  6  2        2 0.803750434545D-01 0.100000000000D+01
0.322566395467D-04 0.000000000000D+00 0.000000000000D+00 0.230708305802D-04 0.000000000000D+00  6 -1 2 25 24 21 21 4 0.55021104D-02 0.19513707D+00 0.29793279D+05 0.29793279D+05 0.29793279D+05 0.12152137D+01  1  2 15  2  6  2        2 0.221568760798D-01 0.100000000000D+01
-.439620603182D-04 0.000000000000D+00 0.000000000000D+00 0.230708305802D-04 0.000000000000D+00  6 -1 2 25 24 21 21 4 0.55021104D-02 0.19513707D+00 0.29793279D+05 0.29793279D+05 0.29793279D+05 0.12152137D+01  1  2  4  2  6  2        2 -.301972535382D-01 0.100000000000D+01
  </mgrwgt>
  </event>
  <event>
  5     66 -.43535451E-03 0.20909757E+02 0.75467711E-02 0.11470076E+00
       -1 -1    0    0    0  501 0.00000000E+00 0.00000000E+00 0.64186696E+02 0.64187494E+02 0.32000000E+00 0.0000E+00 0.9000E+01
        2 -1    0    0  502    0 -.00000000E+00 -.00000000E+00 -.71178023E+03 0.71178030E+03 0.32000000E+00 0.0000E+00 0.9000E+01
       25  1    1    2    0    0 0.10740120E+03 0.10659294E+03 -.25711003E+03 0.32346196E+03 0.12500000E+03 0.0000E+00 0.9000E+01
       24  1    1    2    0    0 -.11735401E+03 -.12497673E+03 -.38760729E+03 0.43139051E+03 0.80419002E+02 0.0000E+00 0.9000E+01
       21  1    1    2  502  501 0.99528060E+01 0.18383781E+02 -.28762126E+01 0.21115323E+02 0.75000000E+00 0.0000E+00 0.9000E+01
#aMCatNLO 1  0  0  5  1 0.19262612D+01 0.00000000D+00  -5  6  0 0.00000000D+00 0.00000000D+00 0.00000000D+00 0.00000000D+00 0.00000000D+00
  <mgrwgt>
 -.1203828488D+01   20    2    0
 0.213745546045580D+03 0.000000000000000D+00 0.000000000000000D+00 0.213745546045580D+03
 0.213745546045580D+03 -.000000000000000D+00 -.000000000000000D+00 -.213745546045580D+03
 0.197647117586684D+03 0.107400077687761D+03 0.106590872240723D+03 0.233021964189930D+02
 0.195873881185689D+03 -.117355117423400D+03 -.124978779012411D+03 -.500743705650106D+02
 0.339700933187873D+02 0.995503973563837D+01 0.183879067716878D+02 0.267721741460177D+02
 0.000000000000000D+00 0.000000000000000D+00 0.000000000000000D+00 0.000000000000000D+00
 0.213745546045580D+03 0.000000000000000D+00 0.000000000000000D+00 0.213745546045580D+03
 0.213745546045580D+03 -.000000000000000D+00 -.000000000000000D+00 -.213745546045580D+03
 0.197801335903676D+03 0.107483066023299D+03 0.106744159602455D+03 0.235253776648859D+02
 0.195671413673084D+03 -.117272948200025D+03 -.124827004628878D+03 -.498533921645167D+02
 0.303740212601580D+02 0.964735844023891D+01 0.148309582637761D+02 0.246891133825460D+02
 0.364432125424266D+01 0.142523736486530D+00 0.325188676264730D+01 0.163890111708485D+01
0.188727354125D-03 0.000000000000D+00 0.000000000000D+00 0.372830216898D-04 0.000000000000D+00  6 -1 2 25 24 21 21 2 0.98749432D-02 0.10950472D+00 0.41319406D+05 0.41319406D+05 0.41319406D+05 0.12005716D+01  1  2  2  3  6  5       21 0.784121961714D-01 0.100000000000D+01
0.554940604763D-04 0.995941609670D-05 -.724762732895D-06 0.372830216898D-04 0.000000000000D+00  6 -1 2 25 24 21 21 4 0.98749432D-02 0.10950472D+00 0.41319406D+05 0.41319406D+05 0.41319406D+05 0.12005716D+01  1  2  3  3  6  5       21 0.332331440021D-01 0.100000000000D+01
0.561027090330D-05 0.000000000000D+00 0.000000000000D+00 0.372830216898D-04 0.000000000000D+00  6 -1 2 25 24 21 21 4 0.98749432D-02 0.10950472D+00 0.41319406D+05 0.41319406D+05 0.41319406D+05 0.12005716D+01  1  2 15  3  6  5       21 0.335976389581D-02 0.100000000000D+01
0.587591025433D-07 0.000000000000D+00 0.000000000000D+00 0.372828136630D-04 0.000000000000D+00  6 -1 2 25 24 21 21 4 0.98749432D-02 0.10950472D+00 0.41322556D+05 0.41322556D+05 0.41322556D+05 0.12005683D+01  1  2 12  3  6  5       21 0.351880827690D-04 0.100000000000D+01
0.624740126333D-07 0.000000000000D+00 0.000000000000D+00 0.372828136630D-04 0.000000000000D+00  6 -1 2 25 24 21 21 4 0.98749432D-02 0.10950472D+00 0.41322556D+05 0.41322556D+05 0.41322556D+05 0.12005683D+01  1  2 12  3  6  5       21 0.374127689549D-04 0.100000000000D+01
-.281130743987D-02 0.000000000000D+00 0.000000000000D+00 0.372830216898D-04 0.000000000000D+00  6 -1 2 25 24 21 21 4 0.98749432D-02 0.10950472D+00 0.41319406D+05 0.41319406D+05 0.41319406D+05 0.12005716D+01  1  2  4  3  6  5       21 -.168357810154D+01 0.100000000000D+01
-.290551384896D-02 0.000000000000D+00 0.000000000000D+00 0.372830216898D-04 0.000000000000D+00  6 -1 2 25 24 21 21 4 0.98749432D-02 0.10950472D+00 0.41319406D+05 0.41319406D+05 0.41319406D+05 0.12005716D+01  1  2  5  3  6  5       21 -.173999450236D+01 0.100000000000D+01
0.360918089802D-02 0.000000000000D+00 -.000000000000D+00 0.372830216898D-04 0.000000000000D+00  6 -1 2 25 24 21 21 4 0.98749432D-02 0.10950472D+00 0.41319406D+05 0.41319406D+05 0.41319406D+05 0.12005716D+01  1  2  6  3  6  5       21 0.216139218295D+01 0.100000000000D+01
0.113968146137D-07 0.000000000000D+00 0.000000000000D+00 0.372828136630D-04 0.000000000000D+00  6 -1 2 25 24 1 -1 4 0.98749432D-02 0.10950472D+00 0.41322556D+05 0.41322556D+05 0.41322556D+05 0.12005683D+01  1  2 12  6  6  5       21 0.682502010024D-05 0.100000000000D+01
0.116419162247D-07 0.000000000000D+00 0.000000000000D+00 0.372828136630D-04 0.000000000000D+00  6 -1 2 25 24 1 -1 4 0.98749432D-02 0.10950472D+00 0.41322556D+05 0.41322556D+05 0.41322556D+05 0.12005683D+01  1  2 12  6  6  5       21 0.697180001009D-05 0.100000000000D+01
-.237037907651D-04 0.000000000000D+00 0.000000000000D+00 0.372830216898D-04 0.000000000000D+00  6 -1 2 25 24 1 -1 4 0.98749432D-02 0.10950472D+00 0.41319406D+05 0.41319406D+05 0.41319406D+05 0.12005716D+01  1  2  5  6  6  5       21 -.141952397271D-01 0.100000000000D+01
0.113968146137D-07 0.000000000000D+00 0.000000000000D+00 0.372828136630D-04 0.000000000000D+00  6 -1 2 25 24 2 -2 4 0.98749432D-02 0.10950472D+00 0.41322556D+05 0.41322556D+05 0.41322556D+05 0.12005683D+01  1  2 12  7  6  5       21 0.682502010024D-05 0.100000000000D+01
0.116419162247D-07 0.000000000000D+00 0.000000000000D+00 0.372828136630D-04 0.000000000000D+00  6 -1 2 25 24 2 -2 4 0.98749432D-02 0.10950472D+00 0.41322556D+05 0.41322556D+05 0.41322556D+05 0.12005683D+01  1  2 12  7  6  5       21 0.697180001009D-05 0.100000000000D+01
-.237037907651D-04 0.000000000000D+00 0.000000000000D+00 0.372830216898D-04 0.000000000000D+00  6 -1 2 25 24 2 -2 4 0.98749432D-02 0.10950472D+00 0.41319406D+05 0.41319406D+05 0.41319406D+05 0.12005716D+01  1  2  5  7  6  5       21 -.141952397271D-01 0.100000000000D+01
0.113968146137D-07 0.000000000000D+00 0.000000000000D+00 0.372828136630D-04 0.000000000000D+00  6 -1 2 25 24 3 -3 4 0.98749432D-02 0.10950472D+00 0.41322556D+05 0.41322556D+05 0.41322556D+05 0.12005683D+01  1  2 12  8  6  5       21 0.682502010024D-05 0.100000000000D+01
0.113968146137D-07 0.000000000000D+00 0.000000000000D+00 0.372828136630D-04 0.000000000000D+00  6 -1 2 25 24 4 -4 4 0.98749432D-02 0.10950472D+00 0.41322556D+05 0.41322556D+05 0.41322556D+05 0.12005683D+01  1  2 12  8  6  5       21 0.682502010024D-05 0.100000000000D+01
0.116419162247D-07 0.000000000000D+00 0.000000000000D+00 0.372828136630D-04 0.000000000000D+00  6 -1 2 25 24 3 -3 4 0.98749432D-02 0.10950472D+00 0.41322556D+05 0.41322556D+05 0.41322556D+05 0.12005683D+01  1  2 12  8  6  5       21 0.697180001009D-05 0.100000000000D+01
0.116419162247D-07 0.000000000000D+00 0.000000000000D+00 0.372828136630D-04 0.000000000000D+00  6 -1 2 25 24 4 -4 4 0.98749432D-02 0.10950472D+00 0.41322556D+05 0.41322556D+05 0.41322556D+05 0.12005683D+01  1  2 12  8  6  5       21 0.697180001009D-05 0.100000000000D+01
-.237037907651D-04 0.000000000000D+00 0.000000000000D+00 0.372830216898D-04 0.000000000000D+00  6 -1 2 25 24 3 -3 4 0.98749432D-02 0.10950472D+00 0.41319406D+05 0.41319406D+05 0.41319406D+05 0.12005716D+01  1  2  5  8  6  5       21 -.141952397271D-01 0.100000000000D+01
-.237037907651D-04 0.000000000000D+00 0.000000000000D+00 0.372830216898D-04 0.000000000000D+00  6 -1 2 25 24 4 -4 4 0.98749432D-02 0.10950472D+00 0.41319406D+05 0.41319406D+05 0.41319406D+05 0.12005716D+01  1  2  5  8  6  5       21 -.141952397271D-01 0.100000000000D+01
  </mgrwgt>
  </event>
  <event>
  5     66 0.43535451E-03 0.38950518E+02 0.75467711E-02 0.12111965E+00
       -1 -1    0    0    0  501 0.00000000E+00 0.00000000E+00 0.14553373E+03 0.14553408E+03 0.32000000E+00 0.0000E+00 0.9000E+01
        2 -1    0    0  502    0 -.00000000E+00 -.00000000E+00 -.17108392E+03 0.17108422E+03 0.32000000E+00 0.0000E+00 0.9000E+01
       25  1    1    2    0    0 0.42679472E+02 -.55541774E+02 0.48031026E+02 0.15112381E+03 0.12500000E+03 0.0000E+00 0.9000E+01
       24  1    1    2    0    0 -.61997946E+02 0.21723249E+02 -.32329623E+02 0.10875691E+03 0.80419002E+02 0.0000E+00 0.9000E+01
       21  1    1    2  502  501 0.19318474E+02 0.33818525E+02 -.41251601E+02 0.56737582E+02 0.75000000E+00 0.0000E+00 0.9000E+01
#aMCatNLO 1  0  0  5  1 0.18493999D+02 0.00000000D+00  -5  6  0 0.00000000D+00 0.00000000D+00 0.00000000D+00 0.00000000D+00 0.00000000D+00
  <mgrwgt>
 0.1209993491D+00    9    2    0
 0.157792851046576D+03 0.000000000000000D+00 0.000000000000000D+00 0.157792851046576D+03
 0.157792851046576D+03 -.000000000000000D+00 -.000000000000000D+00 -.157792851046576D+03
 0.155507953460559D+03 0.426785395650294D+02 -.555434068285568D+02 0.604251256346654D+02
 0.106495191444719D+03 -.619985850845073D+02 0.217221309077424D+02 -.236290990692169D+02
 0.535825571878737D+02 0.193200455194779D+02 0.338212759208145D+02 -.367960265654485D+02
 0.000000000000000D+00 0.000000000000000D+00 0.000000000000000D+00 0.000000000000000D+00
 0.157792851046576D+03 0.000000000000000D+00 0.000000000000000D+00 0.157792851046576D+03
 0.157792851046576D+03 -.000000000000000D+00 -.000000000000000D+00 -.157792851046576D+03
 0.151110582612006D+03 0.470948237386785D+02 -.478123502204797D+02 0.520140838692446D+02
 0.107442383518044D+03 -.589172021434796D+02 0.271163367630610D+02 -.294977523517399D+02
 0.385121187934371D+02 -.425549620928932D+01 0.214882908949442D+02 -.316753437295761D+02
 0.185206171696652D+02 0.160778746140904D+02 -.792277437525488D+00 0.915901221207134D+01
0.167159912813D-03 0.000000000000D+00 0.000000000000D+00 0.138332037308D-04 0.000000000000D+00  6 -1 2 25 24 21 21 2 0.22389854D-01 0.26320654D-01 0.20460368D+05 0.20460368D+05 0.20460368D+05 0.12327394D+01  1  2  2  3  6  5       21 0.949868727558D-01 0.100000000000D+01
0.764366178034D-05 0.882127094988D-05 -.641938079418D-06 0.138332037308D-04 0.000000000000D+00  6 -1 2 25 24 21 21 4 0.22389854D-01 0.26320654D-01 0.20460368D+05 0.20460368D+05 0.20460368D+05 0.12327394D+01  1  2  3  3  6  5       21 0.660047972697D-02 0.100000000000D+01
0.527822210244D-05 0.000000000000D+00 0.000000000000D+00 0.138332037308D-04 0.000000000000D+00  6 -1 2 25 24 21 21 4 0.22389854D-01 0.26320654D-01 0.20460368D+05 0.20460368D+05 0.20460368D+05 0.12327394D+01  1  2 15  3  6  5       21 0.455786754867D-02 0.100000000000D+01
0.100808917671D-03 0.000000000000D+00 0.000000000000D+00 0.138549404976D-04 0.000000000000D+00  6 -1 2 25 24 21 21 4 0.22389854D-01 0.26320654D-01 0.20049617D+05 0.20049617D+05 0.20049617D+05 0.12337076D+01  1  2 12  3  6  5       21 0.872808474903D-01 0.100000000000D+01
-.906332581967D-04 0.000000000000D+00 0.000000000000D+00 0.138332037308D-04 0.000000000000D+00  6 -1 2 25 24 21 21 4 0.22389854D-01 0.26320654D-01 0.20460368D+05 0.20460368D+05 0.20460368D+05 0.12327394D+01  1  2  4  3  6  5       21 -.782639264409D-01 0.100000000000D+01
0.168548610570D-05 0.000000000000D+00 0.000000000000D+00 0.138549404976D-04 0.000000000000D+00  6 -1 2 25 24 1 -1 4 0.22389854D-01 0.26320654D-01 0.20049617D+05 0.20049617D+05 0.20049617D+05 0.12337076D+01  1  2 12  6  6  5       21 0.145930200559D-02 0.100000000000D+01
0.168548610570D-05 0.000000000000D+00 0.000000000000D+00 0.138549404976D-04 0.000000000000D+00  6 -1 2 25 24 2 -2 4 0.22389854D-01 0.26320654D-01 0.20049617D+05 0.20049617D+05 0.20049617D+05 0.12337076D+01  1  2 12  7  6  5       21 0.145930200559D-02 0.100000000000D+01
0.168548610570D-05 0.000000000000D+00 0.000000000000D+00 0.138549404976D-04 0.000000000000D+00  6 -1 2 25 24 3 -3 4 0.22389854D-01 0.26320654D-01 0.20049617D+05 0.20049617D+05 0.20049617D+05 0.12337076D+01  1  2 12  8  6  5       21 0.145930200559D-02 0.100000000000D+01
0.168548610570D-05 0.000000000000D+00 0.000000000000D+00 0.138549404976D-04 0.000000000000D+00  6 -1 2 25 24 4 -4 4 0.22389854D-01 0.26320654D-01 0.20049617D+05 0.20049617D+05 0.20049617D+05 0.12337076D+01  1  2 12  8  6  5       21 0.145930200559D-02 0.100000000000D+01
  </mgrwgt>
  </event>
  <event>
  6     66 0.43535451E-03 0.19326956E+02 0.75467711E-02 0.11796009E+00
       -1 -1    0    0    0  501 0.00000000E+00 0.00000000E+00 0.81510377E+02 0.81511005E+02 0.32000000E+00 0.0000E+00 0.9000E+01
        2 -1    0    0  503    0 0.00000000E+00 0.00000000E+00 -.40137798E+03 0.40137810E+03 0.32000000E+00 0.0000E+00 0.9000E+01
       25  1    1    2    0    0 -.40836198E+02 -.11787794E+03 -.16909062E+03 0.24449835E+03 0.12500000E+03 0.0000E+00 0.9000E+01
       24  1    1    2    0    0 0.27274957E+02 0.10561017E+03 -.68480037E+02 0.15183597E+03 0.80419002E+02 0.0000E+00 0.9000E+01
       21  1    1    2  502  501 -.33873756E+01 -.24430684E+00 -.33028500E+01 0.47963858E+01 0.75000000E+00 0.0000E+00 0.9000E+01
       21  1    1    2  503  502 0.16948617E+02 0.12512078E+02 -.78994094E+02 0.81758407E+02 0.75000000E+00 0.0000E+00 0.9000E+01
#aMCatNLO 2  0  0  2  1 0.49857753D+02 0.00000000D+00  -5  6  0 0.00000000D+00 0.00000000D+00 0.00000000D+00 0.00000000D+00 0.00000000D+00
  <mgrwgt>
 0.1878844234D+00    1    2    0
 0.160032799445111D+03 0.000000000000000D+00 0.000000000000000D+00 0.160032799445111D+03
 0.160032799445111D+03 0.000000000000000D+00 0.000000000000000D+00 -.160032799445111D+03
 0.172389550172706D+03 -.315026713893077D+02 -.111019516093038D+03 -.278461083556176D+02
 0.144340297533755D+03 0.347920876432866D+02 0.111132858823598D+03 0.283884459750523D+02
 0.333575118376143D+01 -.328941625397895D+01 -.113342730559857D+00 -.542337619434731D+00
 0.000000000000000D+00 0.000000000000000D+00 0.000000000000000D+00 -.000000000000000D+00
 0.163142264852410D+03 0.000000000000000D+00 0.000000000000000D+00 0.163142264852410D+03
 0.200532693923931D+03 0.000000000000000D+00 0.000000000000000D+00 -.200532693923931D+03
 0.178770746039061D+03 -.407902191087014D+02 -.117875917446584D+03 -.278461083556176D+02
 0.138465824717709D+03 0.273123828358752D+02 0.105611072048971D+03 0.283884459750523D+02
 0.352158624251029D+01 -.347078028989512D+01 -.247232176828183D+00 -.542337619434731D+00
 0.429168017770604D+02 0.169486165627213D+02 0.125120775744417D+02 -.373904290715217D+02
0.226014277075D-03 0.000000000000D+00 0.000000000000D+00 0.161703614043D-02 0.918668351148D-05  6 -1 2 25 24 21 21 4 0.12539868D-01 0.61749294D-01 0.28334904D+05 0.28334904D+05 0.28334904D+05 0.12175098D+01  1  2  1  2  6  2        2 0.187884423364D+00 0.100000000000D+01
  </mgrwgt>
  </event>
  <event>
  5     66 0.43535451E-03 0.98543428E+02 0.75467711E-02 0.10814594E+00
       -1 -1    0    0    0  501 0.00000000E+00 0.00000000E+00 0.22486183E+03 0.22486206E+03 0.32000000E+00 0.0000E+00 0.9000E+01
        2 -1    0    0  502    0 0.00000000E+00 0.00000000E+00 -.44265617E+03 0.44265629E+03 0.32000000E+00 0.0000E+00 0.9000E+01
       25  1    1    2    0    0 0.43895838E+02 -.25149529E+03 0.29703982E+02 0.28580422E+03 0.12500000E+03 0.0000E+00 0.9000E+01
       24  1    1    2    0    0 -.18299791E+02 0.88877705E+02 -.71659904E+02 0.14084206E+03 0.80419002E+02 0.0000E+00 0.9000E+01
       21  1    1    2  502  501 -.25596047E+02 0.16261759E+03 -.17583842E+03 0.24087206E+03 0.75000000E+00 0.0000E+00 0.9000E+01
#aMCatNLO 1  0  0  1  5 0.43440161D+02 0.00000000D+00  -5  6  0 0.00000000D+00 0.00000000D+00 0.00000000D+00 0.00000000D+00 0.00000000D+00
  <mgrwgt>
 0.6359565867D-01    9    4    0
 0.315494203361121D+03 0.000000000000000D+00 0.000000000000000D+00 0.315494203361121D+03
 0.315494203361121D+03 0.000000000000000D+00 0.000000000000000D+00 -.315494203361121D+03
 0.312603739659852D+03 0.438959323311360D+02 -.251495895496490D+03 0.130073285968040D+03
 0.124261248052657D+03 -.182997530320363D+02 0.888774658632129D+02 -.271947957141319D+02
 0.194123419009733D+03 -.255961792990997D+02 0.162618429633278D+03 -.102878490253908D+03
 0.000000000000000D+00 0.000000000000000D+00 -.000000000000000D+00 0.000000000000000D+00
 0.362662941841695D+03 0.000000000000000D+00 0.000000000000000D+00 0.362662941841695D+03
 0.326403445966329D+03 0.000000000000000D+00 0.000000000000000D+00 -.326403445966329D+03
 0.300519422856227D+03 0.270509149473408D+02 -.238822343577455D+03 0.130073285968040D+03
 0.129240731121102D+03 -.252644960185590D+02 0.941174742188791D+02 -.271947957141319D+02
 0.202721795952275D+03 -.364991510891040D+02 0.170821411910121D+03 -.102878490253908D+03
 0.565844378784184D+02 0.347127321603222D+02 -.261165425515445D+02 0.362594958753660D+02
 0.315494203361121D+03 0.000000000000000D+00 0.000000000000000D+00 0.315494203361121D+03
 0.315494203361121D+03 0.000000000000000D+00 0.000000000000000D+00 -.315494203361121D+03
 0.312603739659852D+03 0.438959323311360D+02 -.251495895496490D+03 0.130073285968040D+03
 0.124261248052657D+03 -.182997530320363D+02 0.888774658632129D+02 -.271947957141319D+02
 0.000000000000000D+00 0.000000000000000D+00 -.000000000000000D+00 0.000000000000000D+00
 0.194123419009733D+03 -.255961792990997D+02 0.162618429633278D+03 -.102878490253908D+03
 0.362662941841695D+03 0.000000000000000D+00 0.000000000000000D+00 0.362662941841695D+03
 0.326403445966329D+03 0.000000000000000D+00 0.000000000000000D+00 -.326403445966329D+03
 0.300519422856227D+03 0.270509149473408D+02 -.238822343577455D+03 0.130073285968040D+03
 0.129240731121102D+03 -.252644960185590D+02 0.941174742188791D+02 -.271947957141319D+02
 0.565844378784184D+02 0.347127321603222D+02 -.261165425515445D+02 0.362594958753660D+02
 0.202721795952275D+03 -.364991510891040D+02 0.170821411910121D+03 -.102878490253908D+03
0.258246595918D-03 0.000000000000D+00 0.000000000000D+00 0.594520506309D-06 0.000000000000D+00  6 -1 2 25 24 21 21 2 0.34594154D-01 0.68100976D-01 0.81261040D+05 0.81261040D+05 0.81261040D+05 0.11719420D+01  1  2  2  1  6  1       -1 0.230946187786D-01 0.100000000000D+01
-.189057988293D-04 0.136280472761D-04 -.991734926216D-06 0.594520506309D-06 0.000000000000D+00  6 -1 2 25 24 21 21 4 0.34594154D-01 0.68100976D-01 0.81261040D+05 0.81261040D+05 0.81261040D+05 0.11719420D+01  1  2  3  1  6  1       -1 -.232211352276D-02 0.100000000000D+01
0.558713926030D-05 0.000000000000D+00 0.000000000000D+00 0.594520506309D-06 0.000000000000D+00  6 -1 2 25 24 21 21 4 0.34594154D-01 0.68100976D-01 0.81261040D+05 0.81261040D+05 0.81261040D+05 0.11719420D+01  1  2 15  1  6  1       -1 0.686242974816D-03 0.100000000000D+01
0.771160060013D-03 0.000000000000D+00 0.000000000000D+00 0.588267300182D-06 0.000000000000D+00  6 -1 2 25 24 21 21 4 0.40989293D-01 0.68100976D-01 0.94671833D+05 0.94671833D+05 0.94671833D+05 0.11657624D+01  1  2 12  1  6  1       -1 0.686449311530D-01 0.100000000000D+01
-.521690956898D-03 0.000000000000D+00 0.000000000000D+00 0.594520506309D-06 0.000000000000D+00  6 -1 2 25 24 21 21 4 0.34594154D-01 0.68100976D-01 0.81261040D+05 0.81261040D+05 0.81261040D+05 0.11719420D+01  1  2  4  1  6  1       -1 -.640769341011D-01 0.100000000000D+01
-.165088659271D-02 0.000000000000D+00 -.316580250288D-03 0.594520506309D-06 0.000000000000D+00  6 -1 2 25 24 21 21 4 0.40909723D-01 0.68100976D-01 0.81261040D+05 0.81261040D+05 0.81261040D+05 0.11719420D+01  1  2  5  1  6  1       -1 -.150796406297D+00 0.100000000000D+01
0.168463147055D-02 0.000000000000D+00 0.312181065855D-03 0.594520506309D-06 0.000000000000D+00  6 -1 2 25 24 21 21 4 0.34594154D-01 0.68100976D-01 0.81261040D+05 0.81261040D+05 0.81261040D+05 0.11719420D+01  1  2  6  1  6  1       -1 0.206915642864D+00 0.100000000000D+01
0.194103305782D-04 0.000000000000D+00 0.000000000000D+00 0.588267300182D-06 0.000000000000D+00  6 21 2 25 24 1 21 4 0.40989293D-01 0.68100976D-01 0.94671833D+05 0.94671833D+05 0.94671833D+05 0.11657624D+01  3  4 12  4  5  1       -1 0.177685517752D-01 0.100000000000D+01
-.384954703101D-04 0.000000000000D+00 -.789602358503D-05 0.594520506309D-06 0.000000000000D+00  6 21 2 25 24 1 21 4 0.40909723D-01 0.68100976D-01 0.81261040D+05 0.81261040D+05 0.81261040D+05 0.11719420D+01  3  4  5  4  5  1       -1 -.363188749600D-01 0.100000000000D+01
  </mgrwgt>
  </event>
  <event>
  6     66 0.43535451E-03 0.14468558E+03 0.75467711E-02 0.10810929E+00
       21 -1    0    0  503  501 0.00000000E+00 0.00000000E+00 0.22770019E+04 0.22770020E+04 0.75000000E+00 0.0000E+00 0.9000E+01
        2 -1    0    0  502    0 0.00000000E+00 0.00000000E+00 -.67286015E+02 0.67286776E+02 0.32000000E+00 0.0000E+00 0.9000E+01
       25  1    1    2    0    0 0.28692430E+02 0.33325279E+02 0.23613325E+03 0.27077249E+03 0.12500000E+03 0.0000E+00 0.9000E+01
       24  1    1    2    0    0 0.15939050E+02 0.47759961E+02 0.72999229E+02 0.11971287E+03 0.80419002E+02 0.0000E+00 0.9000E+01
        1  1    1    2  503    0 0.10354949E+02 -.23027222E+03 0.58705988E+03 0.63069163E+03 0.32000000E+00 0.0000E+00 0.9000E+01
       21  1    1    2  502  501 -.54986428E+02 0.14918698E+03 0.13135235E+04 0.13231118E+04 0.75000000E+00 0.0000E+00 0.9000E+01
#aMCatNLO 2  0  0  1  5 0.26442475D+03 0.00000000D+00  -5  6  0 0.00000000D+00 0.00000000D+00 0.00000000D+00 0.00000000D+00 0.00000000D+00
  <mgrwgt>
 0.4927305338D-02    1    2    0
 0.250135084982175D+03 0.000000000000000D+00 0.000000000000000D+00 0.250135084982175D+03
 0.250135084982175D+03 0.000000000000000D+00 0.000000000000000D+00 -.250135084982175D+03
 0.146831191367750D+03 0.315847665320427D+02 -.309920081236806D+02 -.630578838373999D+02
 0.151626922271185D+03 0.189833535705353D+02 -.199366924920474D+02 -.125561411997298D+03
 0.000000000000000D+00 0.000000000000000D+00 -.000000000000000D+00 -.000000000000000D+00
 0.201812056325415D+03 -.505681201025780D+02 0.509287006157280D+02 0.188619295834698D+03
 0.375936177187546D+03 0.000000000000000D+00 0.000000000000000D+00 0.375936177187546D+03
 0.407546127659922D+03 0.000000000000000D+00 0.000000000000000D+00 -.407546127659922D+03
 0.146748529531503D+03 0.286925287724377D+02 0.333252606628998D+02 -.630578838373999D+02
 0.157378393708076D+03 0.159391486095919D+02 0.477600063924800D+02 -.125561411997298D+03
 0.232662222086039D+03 0.103549485924113D+02 -.230272220766631D+03 -.316099504723758D+02
 0.246693159521850D+03 -.549866259744409D+02 0.149186953711251D+03 0.188619295834698D+03
0.230295798532D-03 0.000000000000D+00 0.000000000000D+00 0.994185634737D-05 0.938289416326D-09  6 21 2 25 24 1 21 4 0.35030795D+00 0.10351760D-01 0.95139182D+05 0.95139182D+05 0.95139182D+05 0.11655649D+01  1  2  1  4  5  1       -1 0.492730533756D-02 0.100000000000D+01
  </mgrwgt>
  </event>
  <event>
  5     66 0.43535451E-03 0.41184156E+02 0.75467711E-02 0.12014834E+00
       -1 -1    0    0    0  501 0.00000000E+00 0.00000000E+00 0.10492774E+02 0.10497653E+02 0.32000000E+00 0.0000E+00 0.9000E+01
        2 -1    0    0  502    0 0.00000000E+00 0.00000000E+00 -.23797366E+04 0.23797366E+04 0.32000000E+00 0.0000E+00 0.9000E+01
       25  1    1    2    0    0 -.75826218E+01 0.32709196E+01 -.54851252E+03 0.56263592E+03 0.12500000E+03 0.0000E+00 0.9000E+01
       24  1    1    2    0    0 0.45233913E+02 0.13414472E+02 -.70901340E+03 0.71511766E+03 0.80419002E+02 0.0000E+00 0.9000E+01
       21  1    1    2  502  501 -.37651291E+02 -.16685392E+02 -.11117179E+04 0.11124807E+04 0.75000000E+00 0.0000E+00 0.9000E+01
#aMCatNLO 1  0  0  2  5 0.40948644D+02 0.00000000D+00  -5  6  0 0.00000000D+00 0.00000000D+00 0.00000000D+00 0.00000000D+00 0.00000000D+00
  <mgrwgt>
 0.2940597133D-01    4    2    0
 0.158037640251630D+03 0.000000000000000D+00 0.000000000000000D+00 0.158037640251630D+03
 0.158037640251630D+03 0.000000000000000D+00 0.000000000000000D+00 -.158037640251630D+03
 0.143231578445849D+03 -.758186439127825D+01 0.327125522733522D+01 0.694413370095897D+02
 0.932474391468365D+02 0.452344063216577D+02 0.134146906664078D+02 -.132797293805665D+01
 0.795962629105734D+02 -.376525419303795D+02 -.166859458937430D+02 -.681133640715331D+02
 0.000000000000000D+00 -.000000000000000D+00 -.000000000000000D+00 0.000000000000000D+00
 0.183786538614104D+03 0.000000000000000D+00 0.000000000000000D+00 0.183786538614104D+03
 0.176518817658662D+03 0.000000000000000D+00 0.000000000000000D+00 -.176518817658662D+03
 0.143501261143019D+03 0.107930171763603D+02 0.538734110560978D+01 0.694413370095897D+02
 0.100047343404515D+03 0.576214378947284D+02 0.148412044912196D+02 -.132797293805665D+01
 0.751681574124279D+02 -.277346758833758D+02 -.155437858092043D+02 -.681133640715331D+02
 0.415885943128040D+02 -.406797791877129D+02 -.468475978762511D+01 0.726772095544182D+01
0.136490711113D-03 0.000000000000D+00 0.000000000000D+00 0.167907811436D-04 0.000000000000D+00  6 -1 2 25 24 21 21 2 0.16146499D-02 0.36611370D+00 0.16860319D+05 0.16860319D+05 0.16860319D+05 0.12420754D+01  1  2  2  2  6  2        2 0.104686228159D+00 0.100000000000D+01
0.226627250767D-05 0.720281271155D-05 -.524160269504D-06 0.167907811436D-04 0.000000000000D+00  6 -1 2 25 24 21 21 4 0.16146499D-02 0.36611370D+00 0.16860319D+05 0.16860319D+05 0.16860319D+05 0.12420754D+01  1  2  3  2  6  2        2 0.268160315621D-02 0.100000000000D+01
0.579275675294D-05 0.000000000000D+00 0.000000000000D+00 0.167907811436D-04 0.000000000000D+00  6 -1 2 25 24 21 21 4 0.16146499D-02 0.36611370D+00 0.16860319D+05 0.16860319D+05 0.16860319D+05 0.12420754D+01  1  2 15  2  6  2        2 0.685437198717D-02 0.100000000000D+01
-.716797689756D-04 0.000000000000D+00 0.000000000000D+00 0.167907811436D-04 0.000000000000D+00  6 -1 2 25 24 21 21 4 0.16146499D-02 0.36611370D+00 0.16860319D+05 0.16860319D+05 0.16860319D+05 0.12420754D+01  1  2  4  2  6  2        2 -.848162319717D-01 0.100000000000D+01
  </mgrwgt>
  </event>
  <event>
  6     66 -.43535451E-03 0.39778606E+02 0.75467711E-02 0.12038403E+00
       -1 -1    0    0    0  501 0.00000000E+00 0.00000000E+00 0.16427078E+02 0.16430195E+02 0.32000000E+00 0.0000E+00 0.9000E+01
        2 -1    0    0  502    0 -.00000000E+00 -.00000000E+00 -.14956197E+04 0.14956198E+04 0.32000000E+00 0.0000E+00 0.9000E+01
       25  1    1    2    0    0 0.66875052E+01 0.69002019E+02 -.47739606E+03 0.49833523E+03 0.12500000E+03 0.0000E+00 0.9000E+01
       24  1    1    2    0    0 -.19410642E+01 -.30914723E+02 -.63058605E+03 0.63644754E+03 0.80419002E+02 0.0000E+00 0.9000E+01
       21  1    1    2  502  503 0.90996510E+01 -.47781924E+02 -.23294274E+03 0.23796806E+03 0.75000000E+00 0.0000E+00 0.9000E+01
       21  1    1    2  503  501 -.13846092E+02 0.96946276E+01 -.13826780E+03 0.13929913E+03 0.75000000E+00 0.0000E+00 0.9000E+01
#aMCatNLO 2  0  0  5  1 0.19169785D+02 0.00000000D+00  -5  6  0 0.00000000D+00 0.00000000D+00 0.00000000D+00 0.00000000D+00 0.00000000D+00
  <mgrwgt>
 -.3871343541D-01    2    2    0
 0.156751537097178D+03 0.000000000000000D+00 0.000000000000000D+00 0.156751537097178D+03
 0.156751537097178D+03 -.000000000000000D+00 -.000000000000000D+00 -.156751537097178D+03
 0.159266217187519D+03 0.844350468126509D+01 0.830928446679946D+02 0.525834035689956D+02
 0.910001953544071D+02 -.892075055050301D+00 -.224972246427387D+02 -.361510537279349D+02
 0.632366616524297D+02 -.755142962621478D+01 -.605956200252559D+02 -.164323498410608D+02
 0.000000000000000D+00 0.000000000000000D+00 0.000000000000000D+00 0.000000000000000D+00
 0.156751537097178D+03 0.000000000000000D+00 0.000000000000000D+00 0.156751537097178D+03
 0.156751537097178D+03 -.000000000000000D+00 -.000000000000000D+00 -.156751537097178D+03
 0.150911113556421D+03 0.666151762843617D+01 0.687934847205361D+02 0.487056961528168D+02
 0.944177681428417D+02 -.195731218737564D+01 -.310451033494539D+02 -.384690716514936D+02
 0.483614819971967D+02 0.947226624880210D+01 -.474235612356730D+02 -.339046904366915D+00
 0.198127104978958D+02 -.141764716898626D+02 0.967517986459077D+01 -.989757759695626D+01
-.505217508670D-04 0.000000000000D+00 0.000000000000D+00 0.568236037893D-05 0.000000000000D+00  6 -1 2 25 24 21 21 4 0.25274852D-02 0.23009559D+00 0.21695008D+05 0.21695008D+05 0.21695008D+05 0.12299554D+01  1  2 13  3  6  5       21 -.861950591452D-01 0.100000000000D+01
0.278305367958D-04 0.000000000000D+00 0.000000000000D+00 0.568139136996D-05 0.720260402469D-07  6 -1 2 25 24 21 21 4 0.25274852D-02 0.23009559D+00 0.21695008D+05 0.21695008D+05 0.21695008D+05 0.12299554D+01  1  2  1  3  6  5       21 0.474816237361D-01 0.100000000000D+01
  </mgrwgt>
  </event>
  <event>
  5     66 0.43535451E-03 0.22800878E+02 0.75467711E-02 0.12475403E+00
       -1 -1    0    0    0  501 0.00000000E+00 0.00000000E+00 0.21656368E+02 0.21658732E+02 0.32000000E+00 0.0000E+00 0.9000E+01
        2 -1    0    0  502    0 -.00000000E+00 -.00000000E+00 -.12477460E+04 0.12477460E+04 0.32000000E+00 0.0000E+00 0.9000E+01
       25  1    1    2    0    0 -.27032756E+02 0.27977700E+01 -.35208785E+03 0.37460573E+03 0.12500000E+03 0.0000E+00 0.9000E+01
       24  1    1    2    0    0 0.42491792E+01 -.19221199E+01 -.14852298E+03 0.16896165E+03 0.80419002E+02 0.0000E+00 0.9000E+01
       21  1    1    2  502  501 0.22783576E+02 -.87565016E+00 -.72547880E+03 0.72583739E+03 0.75000000E+00 0.0000E+00 0.9000E+01
#aMCatNLO 1  0  0  5  2 0.54728421D+01 0.00000000D+00  -5  6  0 0.00000000D+00 0.00000000D+00 0.00000000D+00 0.00000000D+00 0.00000000D+00
  <mgrwgt>
 0.1023381919D-01   25    2    0
 0.164387264998039D+03 0.000000000000000D+00 0.000000000000000D+00 0.164387264998039D+03
 0.164387264998039D+03 -.000000000000000D+00 -.000000000000000D+00 -.164387264998039D+03
 0.133328944599098D+03 -.270330319852263D+02 0.279778066186198D+01 0.375898267216430D+02
 0.984820976412137D+02 0.424897506900924D+01 -.192211203656996D+01 0.566547376450092D+02
 0.969634877557671D+02 0.227840569162171D+02 -.875668625292021D+00 -.942445643666522D+02
 0.000000000000000D+00 0.000000000000000D+00 -.000000000000000D+00 0.000000000000000D+00
 0.164387264998039D+03 0.000000000000000D+00 0.000000000000000D+00 0.164387264998039D+03
 0.164387264998039D+03 -.000000000000000D+00 -.000000000000000D+00 -.164387264998039D+03
 0.133210195166898D+03 -.269460011408287D+02 0.279443577117144D+01 0.372298300780743D+02
 0.983322611423340D+02 0.431323925118357D+01 -.192458192717228D+01 0.563889136139479D+02
 0.213039545352734D+02 0.241633157334920D+01 0.468132399316932D+01 -.206423115527213D+02
 0.759281191515733D+02 0.202164303162959D+02 -.555117783716848D+01 -.729764321393010D+02
0.163705893744D-05 0.000000000000D+00 0.000000000000D+00 0.702421578648D-04 0.000000000000D+00  6 -1 2 25 24 21 21 2 0.33319339D-02 0.19196111D+00 0.13372069D+05 0.13372069D+05 0.13372069D+05 0.12535508D+01  1  2  2  3  6  5       21 0.172240094661D-02 0.100000000000D+01
0.235328421537D-06 0.863899735593D-07 -.628673736730D-08 0.702421578648D-04 0.000000000000D+00  6 -1 2 25 24 21 21 4 0.33319339D-02 0.19196111D+00 0.13372069D+05 0.13372069D+05 0.13372069D+05 0.12535508D+01  1  2  3  3  6  5       21 0.389070397258D-03 0.100000000000D+01
0.845023024779D-07 0.000000000000D+00 0.000000000000D+00 0.702421578648D-04 0.000000000000D+00  6 -1 2 25 24 21 21 4 0.33319339D-02 0.19196111D+00 0.13372069D+05 0.13372069D+05 0.13372069D+05 0.12535508D+01  1  2 15  3  6  5       21 0.139708345382D-03 0.100000000000D+01
0.846550574146D-06 0.000000000000D+00 0.000000000000D+00 0.700774731502D-04 0.000000000000D+00  6 -1 2 25 24 21 21 4 0.33319339D-02 0.19196111D+00 0.13770126D+05 0.13770126D+05 0.13770126D+05 0.12520804D+01  1  2 12  3  6  5       21 0.139388141224D-02 0.100000000000D+01
0.513922031432D-06 0.000000000000D+00 0.000000000000D+00 0.700774731502D-04 0.000000000000D+00  6 -1 2 25 24 21 21 4 0.33319339D-02 0.19196111D+00 0.13770126D+05 0.13770126D+05 0.13770126D+05 0.12520804D+01  1  2 12  3  6  5       21 0.846194413932D-03 0.100000000000D+01
-.701173882155D-05 0.000000000000D+00 0.000000000000D+00 0.702421578648D-04 0.000000000000D+00  6 -1 2 25 24 21 21 4 0.33319339D-02 0.19196111D+00 0.13372069D+05 0.13372069D+05 0.13372069D+05 0.12535508D+01  1  2  4  3  6  5       21 -.115925649395D-01 0.100000000000D+01
-.272656733205D-05 0.000000000000D+00 0.000000000000D+00 0.702421578648D-04 0.000000000000D+00  6 -1 2 25 24 21 21 4 0.33319339D-02 0.19196111D+00 0.13372069D+05 0.13372069D+05 0.13372069D+05 0.12535508D+01  1  2  5  3  6  5       21 -.450785599166D-02 0.100000000000D+01
0.130370366876D-04 0.000000000000D+00 -.000000000000D+00 0.702421578648D-04 0.000000000000D+00  6 -1 2 25 24 21 21 4 0.33319339D-02 0.19196111D+00 0.13372069D+05 0.13372069D+05 0.13372069D+05 0.12535508D+01  1  2  6  3  6  5       21 0.215542390076D-01 0.100000000000D+01
0.536728855236D-06 0.000000000000D+00 0.000000000000D+00 0.702421578648D-04 0.125728405026D-04  6 -1 2 25 24 21 21 4 0.33319339D-02 0.19196111D+00 0.13770126D+05 0.13770126D+05 0.13770126D+05 0.12520804D+01  1  2 11  3  6  5       21 0.883746816286D-03 0.100000000000D+01
0.187380409740D-06 0.000000000000D+00 0.000000000000D+00 0.700774731502D-04 0.000000000000D+00  6 -1 2 25 24 1 -1 4 0.33319339D-02 0.19196111D+00 0.13770126D+05 0.13770126D+05 0.13770126D+05 0.12520804D+01  1  2 12  6  6  5       21 0.308529789160D-03 0.100000000000D+01
0.136233459043D-06 0.000000000000D+00 0.000000000000D+00 0.700774731502D-04 0.000000000000D+00  6 -1 2 25 24 1 -1 4 0.33319339D-02 0.19196111D+00 0.13770126D+05 0.13770126D+05 0.13770126D+05 0.12520804D+01  1  2 12  6  6  5       21 0.224314166318D-03 0.100000000000D+01
-.667617057917D-06 0.000000000000D+00 0.000000000000D+00 0.702421578648D-04 0.000000000000D+00  6 -1 2 25 24 1 -1 4 0.33319339D-02 0.19196111D+00 0.13372069D+05 0.13372069D+05 0.13372069D+05 0.12535508D+01  1  2  5  6  6  5       21 -.110377672295D-02 0.100000000000D+01
0.268541636664D-06 0.000000000000D+00 0.000000000000D+00 0.702421578648D-04 0.476251713597D-06  6 -1 2 25 24 1 -1 4 0.33319339D-02 0.19196111D+00 0.13770126D+05 0.13770126D+05 0.13770126D+05 0.12520804D+01  1  2 11  6  6  5       21 0.442165190351D-03 0.100000000000D+01
0.187380409740D-06 0.000000000000D+00 0.000000000000D+00 0.700774731502D-04 0.000000000000D+00  6 -1 2 25 24 2 -2 4 0.33319339D-02 0.19196111D+00 0.13770126D+05 0.13770126D+05 0.13770126D+05 0.12520804D+01  1  2 12  7  6  5       21 0.308529789160D-03 0.100000000000D+01
0.136233459043D-06 0.000000000000D+00 0.000000000000D+00 0.700774731502D-04 0.000000000000D+00  6 -1 2 25 24 2 -2 4 0.33319339D-02 0.19196111D+00 0.13770126D+05 0.13770126D+05 0.13770126D+05 0.12520804D+01  1  2 12  7  6  5       21 0.224314166318D-03 0.100000000000D+01
-.667617057917D-06 0.000000000000D+00 0.000000000000D+00 0.702421578648D-04 0.000000000000D+00  6 -1 2 25 24 2 -2 4 0.33319339D-02 0.19196111D+00 0.13372069D+05 0.13372069D+05 0.13372069D+05 0.12535508D+01  1  2  5  7  6  5       21 -.110377672295D-02 0.100000000000D+01
0.220122674963D-06 0.000000000000D+00 0.000000000000D+00 0.702421578648D-04 0.675813014657D-06  6 -1 2 25 24 2 -2 4 0.33319339D-02 0.19196111D+00 0.13770126D+05 0.13770126D+05 0.13770126D+05 0.12520804D+01  1  2 11  7  6  5       21 0.362441317051D-03 0.100000000000D+01
0.187380409740D-06 0.000000000000D+00 0.000000000000D+00 0.700774731502D-04 0.000000000000D+00  6 -1 2 25 24 3 -3 4 0.33319339D-02 0.19196111D+00 0.13770126D+05 0.13770126D+05 0.13770126D+05 0.12520804D+01  1  2 12  8  6  5       21 0.308529789160D-03 0.100000000000D+01
0.187380409740D-06 0.000000000000D+00 0.000000000000D+00 0.700774731502D-04 0.000000000000D+00  6 -1 2 25 24 4 -4 4 0.33319339D-02 0.19196111D+00 0.13770126D+05 0.13770126D+05 0.13770126D+05 0.12520804D+01  1  2 12  8  6  5       21 0.308529789160D-03 0.100000000000D+01
0.136233459043D-06 0.000000000000D+00 0.000000000000D+00 0.700774731502D-04 0.000000000000D+00  6 -1 2 25 24 3 -3 4 0.33319339D-02 0.19196111D+00 0.13770126D+05 0.13770126D+05 0.13770126D+05 0.12520804D+01  1  2 12  8  6  5       21 0.224314166318D-03 0.100000000000D+01
0.136233459043D-06 0.000000000000D+00 0.000000000000D+00 0.700774731502D-04 0.000000000000D+00  6 -1 2 25 24 4 -4 4 0.33319339D-02 0.19196111D+00 0.13770126D+05 0.13770126D+05 0.13770126D+05 0.12520804D+01  1  2 12  8  6  5       21 0.224314166318D-03 0.100000000000D+01
-.667617057917D-06 0.000000000000D+00 0.000000000000D+00 0.702421578648D-04 0.000000000000D+00  6 -1 2 25 24 3 -3 4 0.33319339D-02 0.19196111D+00 0.13372069D+05 0.13372069D+05 0.13372069D+05 0.12535508D+01  1  2  5  8  6  5       21 -.110377672295D-02 0.100000000000D+01
-.667617057917D-06 0.000000000000D+00 0.000000000000D+00 0.702421578648D-04 0.000000000000D+00  6 -1 2 25 24 4 -4 4 0.33319339D-02 0.19196111D+00 0.13372069D+05 0.13372069D+05 0.13372069D+05 0.12535508D+01  1  2  5  8  6  5       21 -.110377672295D-02 0.100000000000D+01
0.268478766361D-06 0.000000000000D+00 0.000000000000D+00 0.702421578648D-04 0.476037069601D-06  6 -1 2 25 24 3 -3 4 0.33319339D-02 0.19196111D+00 0.13770126D+05 0.13770126D+05 0.13770126D+05 0.12520804D+01  1  2 11  8  6  5       21 0.442061671730D-03 0.100000000000D+01
0.268478766361D-06 0.000000000000D+00 0.000000000000D+00 0.702421578648D-04 0.476037069601D-06  6 -1 2 25 24 4 -4 4 0.33319339D-02 0.19196111D+00 0.13770126D+05 0.13770126D+05 0.13770126D+05 0.12520804D+01  1  2 11  8  6  5       21 0.442061671730D-03 0.100000000000D+01
  </mgrwgt>
  </event>
  <event>
  5     66 0.43535451E-03 0.20289829E+02 0.75467711E-02 0.11762199E+00
       -1 -1    0    0    0  501 0.00000000E+00 0.00000000E+00 0.12672542E+03 0.12672582E+03 0.32000000E+00 0.0000E+00 0.9000E+01
        2 -1    0    0  502    0 0.00000000E+00 0.00000000E+00 -.16362419E+03 0.16362451E+03 0.32000000E+00 0.0000E+00 0.9000E+01
       25  1    1    2    0    0 0.44781716E+02 -.16450508E+02 -.82242313E+02 0.15705037E+03 0.12500000E+03 0.0000E+00 0.9000E+01
       24  1    1    2    0    0 -.61659363E+02 0.27693981E+02 0.37580610E+02 0.11157218E+03 0.80419002E+02 0.0000E+00 0.9000E+01
       21  1    1    2  502  501 0.16877647E+02 -.11243474E+02 0.77629281E+01 0.21727775E+02 0.75000000E+00 0.0000E+00 0.9000E+01
#aMCatNLO 1  0  0  1  5 0.12249075D+02 0.00000000D+00  -5  6  0 0.00000000D+00 0.00000000D+00 0.00000000D+00 0.00000000D+00 0.00000000D+00
  <mgrwgt>
 0.5336873586D+00    7    4    0
 0.143998085243074D+03 0.000000000000000D+00 0.000000000000000D+00 0.143998085243074D+03
 0.143998085243074D+03 0.000000000000000D+00 0.000000000000000D+00 -.143998085243074D+03
 0.147796546295280D+03 0.447770673597541D+02 -.164474105506863D+02 -.627958280592759D+02
 0.117300611502197D+03 -.616630530309606D+02 0.276964394316041D+02 0.521803855690175D+02
 0.228990126886706D+02 0.168859856712065D+02 -.112490288809178D+02 0.106154424902584D+02
 0.000000000000000D+00 0.000000000000000D+00 0.000000000000000D+00 0.000000000000000D+00
 0.187455563662156D+03 0.000000000000000D+00 0.000000000000000D+00 0.187455563662156D+03
 0.183659591630071D+03 0.000000000000000D+00 0.000000000000000D+00 -.183659591630071D+03
 0.153558661562131D+03 0.346349188067925D+02 -.530317727249403D+02 -.627958280592759D+02
 0.118468271269744D+03 -.695978853182136D+02 -.925777712322496D+00 0.521803855690175D+02
 0.252579397366446D+02 0.152652571998852D+02 -.170952573276140D+02 0.106154424902584D+02
 0.738302827237082D+02 0.196977093115359D+02 0.710528077648768D+02 0.379597203208542D+01
 0.143998085243074D+03 0.000000000000000D+00 0.000000000000000D+00 0.143998085243074D+03
 0.143998085243074D+03 0.000000000000000D+00 0.000000000000000D+00 -.143998085243074D+03
 0.147796546295280D+03 0.447770673597541D+02 -.164474105506863D+02 -.627958280592759D+02
 0.117300611502197D+03 -.616630530309606D+02 0.276964394316041D+02 0.521803855690175D+02
 0.000000000000000D+00 0.000000000000000D+00 0.000000000000000D+00 0.000000000000000D+00
 0.228990126886706D+02 0.168859856712065D+02 -.112490288809178D+02 0.106154424902584D+02
 0.187455563662156D+03 0.000000000000000D+00 0.000000000000000D+00 0.187455563662156D+03
 0.183659591630071D+03 0.000000000000000D+00 0.000000000000000D+00 -.183659591630071D+03
 0.153558661562131D+03 0.346349188067925D+02 -.530317727249403D+02 -.627958280592759D+02
 0.118468271269744D+03 -.695978853182136D+02 -.925777712322496D+00 0.521803855690175D+02
 0.738302827237082D+02 0.196977093115359D+02 0.710528077648768D+02 0.379597203208542D+01
 0.252579397366446D+02 0.152652571998852D+02 -.170952573276140D+02 0.106154424902584D+02
0.331419393723D-03 0.000000000000D+00 0.000000000000D+00 0.437912426811D-04 0.000000000000D+00  6 -1 2 25 24 21 21 2 0.19496273D-01 0.25173008D-01 0.16788127D+05 0.16788127D+05 0.16788127D+05 0.12422849D+01  1  2  2  1  6  1       -1 0.249748451992D+00 0.100000000000D+01
0.690219418060D-04 0.174894819031D-04 -.127273773663D-05 0.437912426811D-04 0.000000000000D+00  6 -1 2 25 24 21 21 4 0.19496273D-01 0.25173008D-01 0.16788127D+05 0.16788127D+05 0.16788127D+05 0.12422849D+01  1  2  3  1  6  1       -1 0.802702222190D-01 0.100000000000D+01
0.148402101202D-04 0.000000000000D+00 0.000000000000D+00 0.437912426811D-04 0.000000000000D+00  6 -1 2 25 24 21 21 4 0.19496273D-01 0.25173008D-01 0.16788127D+05 0.16788127D+05 0.16788127D+05 0.12422849D+01  1  2 15  1  6  1       -1 0.172586706916D-01 0.100000000000D+01
-.196010681327D-04 0.000000000000D+00 0.000000000000D+00 0.437912426811D-04 0.000000000000D+00  6 -1 2 25 24 21 21 4 0.19496273D-01 0.25173008D-01 0.16788127D+05 0.16788127D+05 0.16788127D+05 0.12422849D+01  1  2  4  1  6  1       -1 -.227953901843D-01 0.100000000000D+01
-.256295836517D-03 0.000000000000D+00 -.181086971771D-03 0.437912426811D-04 0.000000000000D+00  6 -1 2 25 24 21 21 4 0.31971036D-01 0.25173008D-01 0.16788127D+05 0.16788127D+05 0.16788127D+05 0.12422849D+01  1  2  5  1  6  1       -1 -.132284826736D+00 0.100000000000D+01
0.325345867030D-03 0.000000000000D+00 0.160990223441D-03 0.437912426811D-04 0.000000000000D+00  6 -1 2 25 24 21 21 4 0.19496273D-01 0.25173008D-01 0.16788127D+05 0.16788127D+05 0.16788127D+05 0.12422849D+01  1  2  6  1  6  1       -1 0.378366420318D+00 0.100000000000D+01
-.625931116390D-05 0.000000000000D+00 -.101230052129D-04 0.437912426811D-04 0.000000000000D+00  6 21 2 25 24 1 21 4 0.31971036D-01 0.25173008D-01 0.16788127D+05 0.16788127D+05 0.16788127D+05 0.12422849D+01  3  4  5  4  5  1       -1 -.368761896892D-01 0.100000000000D+01
  </mgrwgt>
  </event>
  <event>
  6     66 0.43535451E-03 0.18097003E+02 0.75467711E-02 0.11774320E+00
       21 -1    0    0  503  501 0.00000000E+00 0.00000000E+00 0.37926612E+02 0.37934027E+02 0.75000000E+00 0.0000E+00 0.9000E+01
        2 -1    0    0  502    0 0.00000000E+00 0.00000000E+00 -.22884099E+04 0.22884100E+04 0.32000000E+00 0.0000E+00 0.9000E+01
       25  1    1    2    0    0 -.66628302E+02 -.10331252E+03 -.15840780E+04 0.15937506E+04 0.12500000E+03 0.0000E+00 0.9000E+01
       24  1    1    2    0    0 0.43941817E+02 0.70884267E+02 -.65473191E+03 0.66490342E+03 0.80419002E+02 0.0000E+00 0.9000E+01
        1  1    1    2  503    0 -.34180347E+01 0.20735687E+02 0.17111769E+02 0.27102891E+02 0.32000000E+00 0.0000E+00 0.9000E+01
       21  1    1    2  502  501 0.26104519E+02 0.11692569E+02 -.28785141E+02 0.40587054E+02 0.75000000E+00 0.0000E+00 0.9000E+01
#aMCatNLO 2  0  0  1  5 0.21015511D+02 0.00000000D+00  -5  6  0 0.00000000D+00 0.00000000D+00 0.00000000D+00 0.00000000D+00 0.00000000D+00
  <mgrwgt>
 0.2039605976D+00    2    2    0
 0.189789652621530D+03 0.000000000000000D+00 0.000000000000000D+00 0.189789652621530D+03
 0.189789652621530D+03 0.000000000000000D+00 0.000000000000000D+00 -.189789652621530D+03
 0.185614003079001D+03 -.683204435216380D+02 -.930512950720802D+02 -.741709621174392D+02
 0.119674309783215D+03 0.428810274696580D+02 0.773168732252172D+02 0.616790609045080D+01
 0.000000000000000D+00 -.000000000000000D+00 0.000000000000000D+00 0.000000000000000D+00
 0.742909923808432D+02 0.254394160519800D+02 0.157344218468630D+02 0.680030560269884D+02
 0.455653495592428D+03 0.000000000000000D+00 0.000000000000000D+00 0.455653495592428D+03
 0.190496065689256D+03 0.000000000000000D+00 0.000000000000000D+00 -.190496065689256D+03
 0.190366269447150D+03 -.666289257181242D+02 -.103312976820180D+03 -.741709621174392D+02
 0.116020051947889D+03 0.439414054686879D+02 0.708840343061541D+02 0.616790609045080D+01
 0.265988936467539D+03 -.341803469926132D+01 0.207356873305862D+02 0.265157429903172D+03
 0.737743034191055D+02 0.261055549486976D+02 0.116932551834400D+02 0.680030560269884D+02
-.353895353364D-03 0.000000000000D+00 0.000000000000D+00 0.224148023152D-04 0.000000000000D+00  6 21 2 25 24 1 21 4 0.61897037D-02 0.35075791D+00 0.29035951D+05 0.29035951D+05 0.29035951D+05 0.12163900D+01  1  2 13  4  5  1       -1 -.100574782984D+01 0.100000000000D+01
0.388900900209D-03 0.000000000000D+00 0.000000000000D+00 0.226337886593D-04 0.677819523432D-07  6 21 2 25 24 1 21 4 0.58354325D-02 0.35206346D+00 0.29035951D+05 0.29035951D+05 0.29035951D+05 0.12163900D+01  1  2  1  4  5  1       -1 0.120970842748D+01 0.100000000000D+01
  </mgrwgt>
  </event>
  <event>
  5     66 0.43535451E-03 0.31993777E+02 0.75467711E-02 0.11799495E+00
       -1 -1    0    0    0  501 0.00000000E+00 0.00000000E+00 0.60366182E+03 0.60366190E+03 0.32000000E+00 0.0000E+00 0.9000E+01
        2 -1    0    0  502    0 0.00000000E+00 0.00000000E+00 -.57895546E+02 0.57896430E+02 0.32000000E+00 0.0000E+00 0.9000E+01
       25  1    1    2    0    0 -.34017117E+02 -.35145680E+02 0.47615766E+02 0.14242417E+03 0.12500000E+03 0.0000E+00 0.9000E+01
       24  1    1    2    0    0 0.57070149E+02 0.57323369E+02 0.39420386E+03 0.41037406E+03 0.80419002E+02 0.0000E+00 0.9000E+01
       21  1    1    2  502  501 -.23053032E+02 -.22177688E+02 0.10394664E+03 0.10876010E+03 0.75000000E+00 0.0000E+00 0.9000E+01
#aMCatNLO 1  0  0  1  2 0.51306699D+02 0.00000000D+00  -5  6  0 0.00000000D+00 0.00000000D+00 0.00000000D+00 0.00000000D+00 0.00000000D+00
  <mgrwgt>
 0.7268058980D-01    4    2    0
 0.186948257554239D+03 0.000000000000000D+00 0.000000000000000D+00 0.186948257554239D+03
 0.186948257554239D+03 0.000000000000000D+00 0.000000000000000D+00 -.186948257554239D+03
 0.182497234642396D+03 -.340152066750111D+02 -.351438427753238D+02 -.123645123971637D+03
 0.150692036052639D+03 0.570717261413432D+02 0.573248860944314D+02 0.984761356107521D+02
 0.407072444134436D+02 -.230565194663321D+02 -.221810433191076D+02 0.251689883608849D+02
 0.000000000000000D+00 -.000000000000000D+00 0.000000000000000D+00 -.000000000000000D+00
 0.198764204127115D+03 0.000000000000000D+00 0.000000000000000D+00 0.198764204127115D+03
 0.254090706081304D+03 0.000000000000000D+00 0.000000000000000D+00 -.254090706081304D+03
 0.180418834174902D+03 -.958551153702795D+01 -.393186598403719D+02 -.123645123971637D+03
 0.158498679405171D+03 0.778848991230328D+02 0.537681004181887D+02 0.984761356107521D+02
 0.384827797438288D+02 -.177258429977032D+02 -.230920083951670D+02 0.251689883608849D+02
 0.754546168845169D+02 -.505735445883017D+02 0.864256781735027D+01 -.553265019541881D+02
0.481238794118D-03 0.000000000000D+00 0.000000000000D+00 0.111618493247D-04 0.000000000000D+00  6 -1 2 25 24 21 21 2 0.92871123D-01 0.89070816D-02 0.19639978D+05 0.19639978D+05 0.19639978D+05 0.12346955D+01  1  2  2  1  6  1       -1 0.726071576121D-01 0.100000000000D+01
0.370592530594D-04 0.253956688722D-04 -.184808368250D-05 0.111618493247D-04 0.000000000000D+00  6 -1 2 25 24 21 21 4 0.92871123D-01 0.89070816D-02 0.19639978D+05 0.19639978D+05 0.19639978D+05 0.12346955D+01  1  2  3  1  6  1       -1 0.852383822376D-02 0.100000000000D+01
0.104917595133D-04 0.000000000000D+00 0.000000000000D+00 0.111618493247D-04 0.000000000000D+00  6 -1 2 25 24 21 21 4 0.92871123D-01 0.89070816D-02 0.19639978D+05 0.19639978D+05 0.19639978D+05 0.12346955D+01  1  2 15  1  6  1       -1 0.241316414636D-02 0.100000000000D+01
-.472317500395D-04 0.000000000000D+00 0.000000000000D+00 0.111618493247D-04 0.000000000000D+00  6 -1 2 25 24 21 21 4 0.92871123D-01 0.89070816D-02 0.19639978D+05 0.19639978D+05 0.19639978D+05 0.12346955D+01  1  2  4  1  6  1       -1 -.108635701782D-01 0.100000000000D+01
  </mgrwgt>
  </event>
  <event>
  5     66 0.43535451E-03 0.20803847E+02 0.75467711E-02 0.11643905E+00
       -1 -1    0    0    0  501 0.00000000E+00 0.00000000E+00 0.37292849E+02 0.37294222E+02 0.32000000E+00 0.0000E+00 0.9000E+01
        2 -1    0    0  502    0 0.00000000E+00 0.00000000E+00 -.48856800E+03 0.48856810E+03 0.32000000E+00 0.0000E+00 0.9000E+01
       25  1    1    2    0    0 -.88716560E+01 0.10967670E+02 -.36934779E+03 0.39018174E+03 0.12500000E+03 0.0000E+00 0.9000E+01
       24  1    1    2    0    0 -.67226384E+01 -.24730973E+02 -.77095534E+02 0.11431427E+03 0.80419002E+02 0.0000E+00 0.9000E+01
       21  1    1    2  502  501 0.15594294E+02 0.13763303E+02 -.48318228E+01 0.21366318E+02 0.75000000E+00 0.0000E+00 0.9000E+01
#aMCatNLO 1  0  0  2  5 0.77934342D+02 0.00000000D+00  -5  6  0 0.00000000D+00 0.00000000D+00 0.00000000D+00 0.00000000D+00 0.00000000D+00
  <mgrwgt>
 0.4468353159D+00    3    2    0
 0.134983261673659D+03 0.000000000000000D+00 0.000000000000000D+00 0.134983261673659D+03
 0.134983261673659D+03 0.000000000000000D+00 0.000000000000000D+00 -.134983261673659D+03
 0.142628180282084D+03 -.887371632198146D+01 0.109658514007720D+02 -.672220579294605D+02
 0.937972261708865D+02 -.672399331904029D+01 -.247321686132503D+02 0.409122406195646D+02
 0.335411168943477D+02 0.155977096410218D+02 0.137663172124783D+02 0.263098173098959D+02
 0.000000000000000D+00 -.000000000000000D+00 -.000000000000000D+00 0.000000000000000D+00
 0.243097873515173D+03 0.000000000000000D+00 0.000000000000000D+00 0.243097873515173D+03
 0.176492905517645D+03 0.000000000000000D+00 0.000000000000000D+00 -.176492905517645D+03
 0.150740992842737D+03 0.481659071041058D+02 0.160961872435985D+02 -.672220579294605D+02
 0.976118683129811D+02 0.304915823782838D+02 -.213848743913870D+02 0.409122406195646D+02
 0.430049760913795D+02 0.304805286916330D+02 0.151049280838595D+02 0.263098173098959D+02
 0.128232941785720D+03 -.109138018174023D+03 -.981624093607101D+01 0.666049679975272D+02
0.232915982387D-03 0.000000000000D+00 0.000000000000D+00 0.475357935820D-04 0.000000000000D+00  6 -1 2 25 24 21 21 2 0.57374750D-02 0.75164421D-01 0.13340450D+05 0.13340450D+05 0.13340450D+05 0.12536697D+01  1  2  2  2  6  2        2 0.358551795135D+00 0.100000000000D+01
0.290026181941D-04 0.122913140754D-04 -.894458700555D-06 0.475357935820D-04 0.000000000000D+00  6 -1 2 25 24 21 21 4 0.57374750D-02 0.75164421D-01 0.13340450D+05 0.13340450D+05 0.13340450D+05 0.12536697D+01  1  2  3  2  6  2        2 0.701707410246D-01 0.100000000000D+01
0.748628315036D-05 0.000000000000D+00 0.000000000000D+00 0.475357935820D-04 0.000000000000D+00  6 -1 2 25 24 21 21 4 0.57374750D-02 0.75164421D-01 0.13340450D+05 0.13340450D+05 0.13340450D+05 0.12536697D+01  1  2 15  2  6  2        2 0.181127797727D-01 0.100000000000D+01
  </mgrwgt>
  </event>
  <event>
  5     66 0.43535451E-03 0.22665214E+02 0.75467711E-02 0.12118658E+00
       -1 -1    0    0    0  501 0.00000000E+00 0.00000000E+00 0.65719626E+02 0.65720406E+02 0.32000000E+00 0.0000E+00 0.9000E+01
        2 -1    0    0  502    0 -.00000000E+00 -.00000000E+00 -.46357802E+03 0.46357813E+03 0.32000000E+00 0.0000E+00 0.9000E+01
       25  1    1    2    0    0 -.71509704E+02 -.33060316E+02 -.28204687E+03 0.31840550E+03 0.12500000E+03 0.0000E+00 0.9000E+01
       24  1    1    2    0    0 0.58171689E+02 0.51384340E+02 -.13906608E+03 0.17841212E+03 0.80419002E+02 0.0000E+00 0.9000E+01
       21  1    1    2  502  501 0.13338015E+02 -.18324024E+02 0.23254561E+02 0.32480911E+02 0.75000000E+00 0.0000E+00 0.9000E+01
#aMCatNLO 1  0  0  5  2 0.11792242D+02 0.00000000D+00  -5  6  0 0.00000000D+00 0.00000000D+00 0.00000000D+00 0.00000000D+00 0.00000000D+00
  <mgrwgt>
 0.4736605114D+00    9    2    0
 0.174546295915432D+03 0.000000000000000D+00 0.000000000000000D+00 0.174546295915432D+03
 0.174546295915432D+03 -.000000000000000D+00 -.000000000000000D+00 -.174546295915432D+03
 0.161324232030820D+03 -.715100062925939D+02 -.330599013222758D+02 -.647600939230980D+02
 0.112018143302236D+03 0.581714794227771D+02 0.513846283588481D+02 -.751980217148117D+01
 0.757502164978085D+02 0.133385268698168D+02 -.183247270365722D+02 0.722798960945791D+02
 0.000000000000000D+00 0.000000000000000D+00 0.000000000000000D+00 -.000000000000000D+00
 0.174546295915432D+03 0.000000000000000D+00 0.000000000000000D+00 0.174546295915432D+03
 0.174546295915432D+03 -.000000000000000D+00 -.000000000000000D+00 -.174546295915432D+03
 0.157637931920743D+03 -.698299541327304D+02 -.353679895794857D+02 -.556560904050484D+02
 0.111658160102299D+03 0.593496375214980D+02 0.497660519016651D+02 -.113550308135950D+01
 0.665673073072441D+02 0.905276327853302D+01 -.479181503960071D+01 0.657745572982910D+02
 0.132291925005781D+02 0.142755333269933D+01 -.960624728257867D+01 -.898296381188313D+01
0.269006770585D-03 0.000000000000D+00 0.000000000000D+00 0.464048038682D-04 0.000000000000D+00  6 -1 2 25 24 21 21 2 0.10110780D-01 0.71319763D-01 0.19907235D+05 0.19907235D+05 0.19907235D+05 0.12340484D+01  1  2  2  3  6  5       21 0.183408727113D+00 0.100000000000D+01
0.426937995634D-04 0.141958772935D-04 -.103305683016D-05 0.464048038682D-04 0.000000000000D+00  6 -1 2 25 24 21 21 4 0.10110780D-01 0.71319763D-01 0.19907235D+05 0.19907235D+05 0.19907235D+05 0.12340484D+01  1  2  3  3  6  5       21 0.443287995869D-01 0.100000000000D+01
0.117366744470D-04 0.000000000000D+00 0.000000000000D+00 0.464048038682D-04 0.000000000000D+00  6 -1 2 25 24 21 21 4 0.10110780D-01 0.71319763D-01 0.19907235D+05 0.19907235D+05 0.19907235D+05 0.12340484D+01  1  2 15  3  6  5       21 0.121861416576D-01 0.100000000000D+01
0.387694465403D-03 0.000000000000D+00 0.000000000000D+00 0.464842520247D-04 0.000000000000D+00  6 -1 2 25 24 21 21 4 0.10110780D-01 0.71319763D-01 0.19473208D+05 0.19473208D+05 0.19473208D+05 0.12351043D+01  1  2 12  3  6  5       21 0.403715128628D+00 0.100000000000D+01
-.174176235884D-03 0.000000000000D+00 0.000000000000D+00 0.464048038682D-04 0.000000000000D+00  6 -1 2 25 24 21 21 4 0.10110780D-01 0.71319763D-01 0.19907235D+05 0.19907235D+05 0.19907235D+05 0.12340484D+01  1  2  4  3  6  5       21 -.180846481978D+00 0.100000000000D+01
0.260922818740D-05 0.000000000000D+00 0.000000000000D+00 0.464842520247D-04 0.000000000000D+00  6 -1 2 25 24 1 -1 4 0.10110780D-01 0.71319763D-01 0.19473208D+05 0.19473208D+05 0.19473208D+05 0.12351043D+01  1  2 12  6  6  5       21 0.271704908710D-02 0.100000000000D+01
0.260922818740D-05 0.000000000000D+00 0.000000000000D+00 0.464842520247D-04 0.000000000000D+00  6 -1 2 25 24 2 -2 4 0.10110780D-01 0.71319763D-01 0.19473208D+05 0.19473208D+05 0.19473208D+05 0.12351043D+01  1  2 12  7  6  5       21 0.271704908710D-02 0.100000000000D+01
0.260922818740D-05 0.000000000000D+00 0.000000000000D+00 0.464842520247D-04 0.000000000000D+00  6 -1 2 25 24 3 -3 4 0.10110780D-01 0.71319763D-01 0.19473208D+05 0.19473208D+05 0.19473208D+05 0.12351043D+01  1  2 12  8  6  5       21 0.271704908710D-02 0.100000000000D+01
0.260922818740D-05 0.000000000000D+00 0.000000000000D+00 0.464842520247D-04 0.000000000000D+00  6 -1 2 25 24 4 -4 4 0.10110780D-01 0.71319763D-01 0.19473208D+05 0.19473208D+05 0.19473208D+05 0.12351043D+01  1  2 12  8  6  5       21 0.271704908710D-02 0.100000000000D+01
  </mgrwgt>
  </event>
  <event>
  6     66 0.43535451E-03 0.28729203E+02 0.75467711E-02 0.11911750E+00
       -1 -1    0    0    0  501 0.00000000E+00 0.00000000E+00 0.30150629E+02 0.30152328E+02 0.32000000E+00 0.0000E+00 0.9000E+01
        2 -1    0    0  502    0 -.00000000E+00 -.00000000E+00 -.13330496E+04 0.13330497E+04 0.32000000E+00 0.0000E+00 0.9000E+01
       25  1    1    2    0    0 0.44802396E+01 0.10022639E+03 -.97950845E+03 0.99253574E+03 0.12500000E+03 0.0000E+00 0.9000E+01
       24  1    1    2    0    0 0.24823964E+02 -.80630951E+02 -.14185878E+03 0.18359932E+03 0.80419002E+02 0.0000E+00 0.9000E+01
       21  1    1    2  503  501 -.29721503E+02 -.13134710E+02 -.97338991E+02 0.10262227E+03 0.75000000E+00 0.0000E+00 0.9000E+01
       21  1    1    2  502  503 0.41729919E+00 -.64607317E+01 -.84192793E+02 0.84444681E+02 0.75000000E+00 0.0000E+00 0.9000E+01
#aMCatNLO 2  0  0  5  1 0.12283791D+02 0.00000000D+00  -5  6  0 0.00000000D+00 0.00000000D+00 0.00000000D+00 0.00000000D+00 0.00000000D+00
  <mgrwgt>
 0.1695086318D+00    4    2    0
 0.200483090251701D+03 0.000000000000000D+00 0.000000000000000D+00 0.200483090251701D+03
 0.200483090251701D+03 -.000000000000000D+00 -.000000000000000D+00 -.200483090251701D+03
 0.192406636981426D+03 0.824223409955441D+01 0.102742001915311D+03 -.103785647244620D+03
 0.163434316555686D+03 0.280243087269606D+02 -.784909106116860D+02 0.115314244329909D+03
 0.451252269662893D+02 -.362665428265151D+02 -.242510913036249D+02 -.115285970852886D+02
 0.000000000000000D+00 0.000000000000000D+00 0.000000000000000D+00 -.000000000000000D+00
 0.200483090251701D+03 0.000000000000000D+00 0.000000000000000D+00 0.200483090251701D+03
 0.200483090251701D+03 -.000000000000000D+00 -.000000000000000D+00 -.200483090251701D+03
 0.191590012504477D+03 0.441733395840302D+01 0.100184327670097D+03 -.105001526376792D+03
 0.163241555765647D+03 0.247703673401661D+02 -.806667901832592D+02 0.114279864533440D+03
 0.322254240325528D+02 -.294367978654955D+02 -.127899584916178D+02 0.289306883542119D+01
 0.139091882007245D+02 0.249096566926386D+00 -.672757899522033D+01 -.121714069920691D+02
-.113366521729D-03 0.000000000000D+00 0.000000000000D+00 0.616185288832D-05 0.000000000000D+00  6 -1 2 25 24 21 21 4 0.46386920D-02 0.20508469D+00 0.24908561D+05 0.24908561D+05 0.24908561D+05 0.12234683D+01  1  2 13  3  6  5       21 -.949779448315D-01 0.100000000000D+01
-.107739392808D-03 0.000000000000D+00 0.000000000000D+00 0.616185288832D-05 0.000000000000D+00  6 -1 2 25 24 21 21 4 0.46386920D-02 0.20508469D+00 0.24908561D+05 0.24908561D+05 0.24908561D+05 0.12234683D+01  1  2 13  3  6  5       21 -.902635623835D-01 0.100000000000D+01
-.369711763352D-04 0.000000000000D+00 0.000000000000D+00 0.614478542913D-05 0.000000000000D+00  6 -1 2 25 24 21 21 4 0.46386920D-02 0.20508469D+00 0.25833961D+05 0.25833961D+05 0.25833961D+05 0.12217727D+01  1  2  8  3  6  5       21 -.308128948067D-01 0.100000000000D+01
0.460211474614D-03 0.000000000000D+00 0.000000000000D+00 0.614478542913D-05 0.109917234794D-05  6 -1 2 25 24 21 21 4 0.46386920D-02 0.20508469D+00 0.24908561D+05 0.24908561D+05 0.24908561D+05 0.12234683D+01  1  2  1  3  6  5       21 0.385563033777D+00 0.100000000000D+01
  </mgrwgt>
  </event>
  <event>
  6     66 -.43535451E-03 0.17202819E+02 0.75467711E-02 0.11267353E+00
       -1 -1    0    0    0  501 0.00000000E+00 0.00000000E+00 0.99721387E+02 0.99721900E+02 0.32000000E+00 0.0000E+00 0.9000E+01
        2 -1    0    0  502    0 -.00000000E+00 -.00000000E+00 -.65784089E+03 0.65784096E+03 0.32000000E+00 0.0000E+00 0.9000E+01
       25  1    1    2    0    0 -.12418909E+03 -.13341798E+03 -.24007930E+03 0.32632248E+03 0.12500000E+03 0.0000E+00 0.9000E+01
       24  1    1    2    0    0 0.13481236E+03 0.11757847E+03 -.32002238E+03 0.37534065E+03 0.80419002E+02 0.0000E+00 0.9000E+01
       21  1    1    2  503  501 -.24627662E+02 0.68054932E+01 0.19166915E+02 0.31949485E+02 0.75000000E+00 0.0000E+00 0.9000E+01
       21  1    1    2  502  503 0.14004398E+02 0.90340215E+01 -.17184734E+02 0.23950246E+02 0.75000000E+00 0.0000E+00 0.9000E+01
#aMCatNLO 2  0  0  5  2 0.16927016D+02 0.00000000D+00  -5  6  0 0.00000000D+00 0.00000000D+00 0.00000000D+00 0.00000000D+00 0.00000000D+00
  <mgrwgt>
 -.3856636814D+00    3    2    0
 0.256126979012107D+03 0.000000000000000D+00 0.000000000000000D+00 0.256126979012107D+03
 0.256126979012107D+03 -.000000000000000D+00 -.000000000000000D+00 -.256126979012107D+03
 0.221576017104580D+03 -.122912430562090D+03 -.135321514263004D+03 -.718007986142279D+01
 0.208540360534017D+03 0.136009277929023D+03 0.115793834374722D+03 -.715201388093762D+02
 0.821375803856160D+02 -.130968473669332D+02 0.195276798882815D+02 0.787002186707991D+02
 0.000000000000000D+00 0.000000000000000D+00 0.000000000000000D+00 0.000000000000000D+00
 0.256126979012107D+03 0.000000000000000D+00 0.000000000000000D+00 0.256126979012107D+03
 0.256126979012107D+03 -.000000000000000D+00 -.000000000000000D+00 -.256126979012107D+03
 0.221011800466905D+03 -.124205286987617D+03 -.133393837646497D+03 0.588819061216103D+00
 0.206382853265517D+03 0.134797233399636D+03 0.117601018723528D+03 -.642368463628000D+02
 0.679197634386706D+02 -.248004493023602D+02 0.660133134389333D+01 0.628844528039655D+02
 0.169395408531209D+02 0.142085028903417D+02 0.919148757907487D+01 0.763574497618444D+00
-.139590095275D-02 0.000000000000D+00 0.000000000000D+00 0.305215296080D-04 0.000000000000D+00  6 -1 2 25 24 21 21 4 0.15341797D-01 0.10120634D+00 0.52837614D+05 0.52837614D+05 0.52837614D+05 0.11899148D+01  1  2 13  3  6  5       21 -.446090438744D+00 0.100000000000D+01
-.310684996551D-03 0.000000000000D+00 0.000000000000D+00 0.307064254647D-04 0.000000000000D+00  6 -1 2 25 24 21 21 4 0.15341797D-01 0.10120634D+00 0.48590550D+05 0.48590550D+05 0.48590550D+05 0.11935136D+01  1  2  8  3  6  5       21 -.100452474994D+00 0.100000000000D+01
0.503421401194D-03 0.000000000000D+00 0.000000000000D+00 0.307064254647D-04 0.276745861741D-06  6 -1 2 25 24 21 21 4 0.15341797D-01 0.10120634D+00 0.52837614D+05 0.52837614D+05 0.52837614D+05 0.11899148D+01  1  2  1  3  6  5       21 0.160879232362D+00 0.100000000000D+01
  </mgrwgt>
  </event>
  <event>
  5     66 0.43535451E-03 0.22535689E+03 0.75467711E-02 0.10223835E+00
       -1 -1    0    0    0  501 0.00000000E+00 0.00000000E+00 0.45094512E+03 0.45094524E+03 0.32000000E+00 0.0000E+00 0.9000E+01
        2 -1    0    0  502    0 0.00000000E+00 0.00000000E+00 -.22822929E+04 0.22822929E+04 0.32000000E+00 0.0000E+00 0.9000E+01
       25  1    1    2    0    0 -.26695501E+03 -.12237867E+03 0.29295894E+03 0.43323372E+03 0.12500000E+03 0.0000E+00 0.9000E+01
       24  1    1    2    0    0 0.70990057E+02 0.23365962E+03 -.12116560E+03 0.28422654E+03 0.80419002E+02 0.0000E+00 0.9000E+01
       21  1    1    2  502  501 0.19596495E+03 -.11128095E+03 -.20031411E+04 0.20157779E+04 0.75000000E+00 0.0000E+00 0.9000E+01
#aMCatNLO 1  0  0  2  2 0.14757764D+03 0.00000000D+00  -5  6  0 0.00000000D+00 0.00000000D+00 0.00000000D+00 0.00000000D+00 0.00000000D+00
  <mgrwgt>
 0.8573013718D-01    7    4    0
 0.101448954147858D+04 0.000000000000000D+00 0.000000000000000D+00 0.101448954147858D+04
 0.101448954147858D+04 0.000000000000000D+00 0.000000000000000D+00 -.101448954147858D+04
 0.848032818233229D+03 -.266955034387869D+03 -.122378655883487D+03 0.785680046201834D+03
 0.273518092190948D+03 0.709900482571762D+02 0.233659622889940D+03 0.933194753563259D+02
 0.907428172532993D+03 0.195964986130693D+03 -.111280967006454D+03 -.878999521558159D+03
 0.000000000000000D+00 -.000000000000000D+00 -.000000000000000D+00 -.000000000000000D+00
 0.106722950050824D+04 0.000000000000000D+00 0.000000000000000D+00 0.106722950050824D+04
 0.112593483030649D+04 0.000000000000000D+00 0.000000000000000D+00 -.112593483030649D+04
 0.832143137736351D+03 -.233317391618009D+03 -.714637072264924D+02 0.785680046201834D+03
 0.291266924140076D+03 0.822972191243785D+02 0.250774497083066D+03 0.933194753563259D+02
 0.910928965964260D+03 0.232369058951447D+03 -.561786665493324D+02 -.878999521558159D+03
 0.158825302974045D+03 -.813488864578173D+02 -.123132123307241D+03 -.587053297982450D+02
 0.101448954147858D+04 0.000000000000000D+00 0.000000000000000D+00 0.101448954147858D+04
 0.101448954147858D+04 0.000000000000000D+00 0.000000000000000D+00 -.101448954147858D+04
 0.848032818233229D+03 -.266955034387869D+03 -.122378655883487D+03 0.785680046201834D+03
 0.273518092190948D+03 0.709900482571762D+02 0.233659622889940D+03 0.933194753563259D+02
 0.000000000000000D+00 -.000000000000000D+00 -.000000000000000D+00 -.000000000000000D+00
 0.907428172532993D+03 0.195964986130693D+03 -.111280967006454D+03 -.878999521558159D+03
 0.106722950050824D+04 0.000000000000000D+00 0.000000000000000D+00 0.106722950050824D+04
 0.112593483030649D+04 0.000000000000000D+00 0.000000000000000D+00 -.112593483030649D+04
 0.832143137736351D+03 -.233317391618009D+03 -.714637072264924D+02 0.785680046201834D+03
 0.291266924140076D+03 0.822972191243785D+02 0.250774497083066D+03 0.933194753563259D+02
 0.158825302974045D+03 -.813488864578173D+02 -.123132123307241D+03 -.587053297982450D+02
 0.910928965964260D+03 0.232369058951447D+03 -.561786665493324D+02 -.878999521558159D+03
0.332629190238D-01 0.000000000000D+00 0.000000000000D+00 0.811064448151D-06 0.000000000000D+00  6 -1 2 25 24 21 21 2 0.69376184D-01 0.35112199D+00 0.16065206D+06 0.16065206D+06 0.16065206D+06 0.11451194D+01  1  2  2  2  6  2        2 0.550617983447D-01 0.100000000000D+01
0.730857598309D-03 0.175533246192D-02 -.127738367379D-03 0.811064448151D-06 0.000000000000D+00  6 -1 2 25 24 21 21 4 0.69376184D-01 0.35112199D+00 0.16065206D+06 0.16065206D+06 0.16065206D+06 0.11451194D+01  1  2  3  2  6  2        2 0.158644242952D-02 0.100000000000D+01
0.826013758693D-03 0.000000000000D+00 0.000000000000D+00 0.811064448151D-06 0.000000000000D+00  6 -1 2 25 24 21 21 4 0.69376184D-01 0.35112199D+00 0.16065206D+06 0.16065206D+06 0.16065206D+06 0.11451194D+01  1  2 15  2  6  2        2 0.179299398021D-02 0.100000000000D+01
-.555491830265D-01 0.000000000000D+00 0.000000000000D+00 0.811064448151D-06 0.000000000000D+00  6 -1 2 25 24 21 21 4 0.69376184D-01 0.35112199D+00 0.16065206D+06 0.16065206D+06 0.16065206D+06 0.11451194D+01  1  2  4  2  6  2        2 -.120578319337D+00 0.100000000000D+01
-.195642470251D+00 0.000000000000D+00 -.620015910742D-01 0.811064448151D-06 0.000000000000D+00  6 -1 2 25 24 21 21 4 0.69376184D-01 0.39722867D+00 0.16065206D+06 0.16065206D+06 0.16065206D+06 0.11451194D+01  1  2  5  2  6  2        2 -.290212164541D+00 0.100000000000D+01
0.202219980956D+00 0.000000000000D+00 0.615326645249D-01 0.811064448151D-06 0.000000000000D+00  6 -1 2 25 24 21 21 4 0.69376184D-01 0.35112199D+00 0.16065206D+06 0.16065206D+06 0.16065206D+06 0.11451194D+01  1  2  6  2  6  2        2 0.438950567973D+00 0.100000000000D+01
-.349778828437D-02 0.000000000000D+00 -.120412727962D-02 0.811064448151D-06 0.000000000000D+00  6 -1 21 25 24 -2 21 4 0.69376184D-01 0.39722867D+00 0.16065206D+06 0.16065206D+06 0.16065206D+06 0.11451194D+01  3  4  5  5  5  2        2 -.871181669209D-03 0.100000000000D+01
  </mgrwgt>
  </event>
  <event>
  5     66 -.43535451E-03 0.26378456E+02 0.75467711E-02 0.12126499E+00
       -1 -1    0    0    0  501 0.00000000E+00 0.00000000E+00 0.46943696E+03 0.46943707E+03 0.32000000E+00 0.0000E+00 0.9000E+01
        2 -1    0    0  502    0 0.00000000E+00 0.00000000E+00 -.50290360E+02 0.50291378E+02 0.32000000E+00 0.0000E+00 0.9000E+01
       25  1    1    2    0    0 0.85056041E+02 -.88282341E+01 0.13352562E+03 0.20190730E+03 0.12500000E+03 0.0000E+00 0.9000E+01
       24  1    1    2    0    0 -.61348407E+02 0.20386581E+02 0.16702792E+03 0.19632825E+03 0.80419002E+02 0.0000E+00 0.9000E+01
       21  1    1    2  502  501 -.23707634E+02 -.11558347E+02 0.11859306E+03 0.12149289E+03 0.75000000E+00 0.0000E+00 0.9000E+01
#aMCatNLO 1  0  0  2  2 0.14757764D+03 0.00000000D+00  -5  6  0 0.00000000D+00 0.00000000D+00 0.00000000D+00 0.00000000D+00 0.00000000D+00
  <mgrwgt>
 -.1302182342D-01    1    2    0
 0.153650404454483D+03 0.000000000000000D+00 0.000000000000000D+00 0.153650404454483D+03
 0.153650404454483D+03 0.000000000000000D+00 0.000000000000000D+00 -.153650404454483D+03
 0.159357522267867D+03 0.850578498725989D+02 -.882735198623999D+01 -.495687394969370D+02
 0.104223406296847D+03 -.613472233850263D+02 0.203871579378845D+02 0.147032118909653D+02
 0.437198803442510D+02 -.237106264875725D+02 -.115598059516446D+02 0.348655276059717D+02
 0.000000000000000D+00 -.000000000000000D+00 -.000000000000000D+00 -.000000000000000D+00
 0.173625686174604D+03 0.000000000000000D+00 0.000000000000000D+00 0.173625686174604D+03
 0.285407087515817D+03 0.000000000000000D+00 0.000000000000000D+00 -.285407087515817D+03
 0.178416868925533D+03 0.114266681159849D+03 0.263371364918269D+02 -.495687394969370D+02
 0.101628730066140D+03 -.435462873818475D+02 0.418176904650738D+02 0.147032118909653D+02
 0.387222641822845D+02 -.165814930978957D+02 -.297704800167737D+01 0.348655276059717D+02
 0.140264910516464D+03 -.541389006801054D+02 -.651777789552233D+02 -.111781401341213D+03
-.282641974495D-04 0.000000000000D+00 0.000000000000D+00 0.304625655517D-04 0.000000000000D+00  6 -1 2 25 24 21 21 4 0.72221157D-01 0.77370652D-02 0.19741894D+05 0.19741894D+05 0.19741894D+05 0.12344476D+01  1  2 14  2  6  2        2 -.130218234154D-01 0.100000000000D+01
  </mgrwgt>
  </event>
  <event>
  6     66 0.43535451E-03 0.15548964E+02 0.75467711E-02 0.11766274E+00
       -1 -1    0    0    0  501 0.00000000E+00 0.00000000E+00 0.72987844E+02 0.72988546E+02 0.32000000E+00 0.0000E+00 0.9000E+01
        2 -1    0    0  502    0 -.00000000E+00 -.00000000E+00 -.51456803E+03 0.51456813E+03 0.32000000E+00 0.0000E+00 0.9000E+01
       25  1    1    2    0    0 -.12554351E+03 -.74426149E+01 -.94307174E+02 0.20083677E+03 0.12500000E+03 0.0000E+00 0.9000E+01
       24  1    1    2    0    0 0.96902952E+02 -.12486270E+02 -.25220134E+03 0.28216807E+03 0.80419002E+02 0.0000E+00 0.9000E+01
       21  1    1    2  502  503 0.13918894E+02 0.19302362E+02 -.32643731E+02 0.40404115E+02 0.75000000E+00 0.0000E+00 0.9000E+01
       21  1    1    2  503  501 0.14721659E+02 0.62652286E+00 -.62427945E+02 0.64147725E+02 0.75000000E+00 0.0000E+00 0.9000E+01
#aMCatNLO 2  0  0  5  2 0.12896395D+02 0.00000000D+00  -5  6  0 0.00000000D+00 0.00000000D+00 0.00000000D+00 0.00000000D+00 0.00000000D+00
  <mgrwgt>
 0.5703716282D-01    3    2    0
 0.193797437569566D+03 0.000000000000000D+00 0.000000000000000D+00 0.193797437569566D+03
 0.193797437569566D+03 -.000000000000000D+00 -.000000000000000D+00 -.193797437569566D+03
 0.199633220263798D+03 -.128041962658287D+03 -.918111047884564D+01 0.880305949195118D+02
 0.138655399254019D+03 0.951450962772575D+02 -.137094347275467D+02 -.593090704847369D+02
 0.493062556213159D+02 0.328968663810291D+02 0.228905452063924D+02 -.287215244347749D+02
 0.000000000000000D+00 0.000000000000000D+00 0.000000000000000D+00 -.000000000000000D+00
 0.193797437569566D+03 0.000000000000000D+00 0.000000000000000D+00 0.193797437569566D+03
 0.193797437569566D+03 -.000000000000000D+00 -.000000000000000D+00 -.193797437569566D+03
 0.197029888463833D+03 -.125565672163971D+03 -.745803938606252D+01 0.858686006092844D+02
 0.140395192183999D+03 0.968871547440198D+02 -.124972624913304D+02 -.608300230958577D+02
 0.233950359545327D+02 0.134235651626048D+02 0.189149871516833D+02 -.305922648570519D+01
 0.267747585367681D+02 0.152549522573460D+02 0.104031472570970D+01 -.219793510277215D+02
-.609702349160D-04 0.000000000000D+00 0.000000000000D+00 0.952082277341D-05 0.000000000000D+00  6 -1 2 25 24 21 21 4 0.11228961D-01 0.79164375D-01 0.29301095D+05 0.29301095D+05 0.29301095D+05 0.12159743D+01  1  2 13  3  6  5       21 -.456432505683D-01 0.100000000000D+01
-.568210174128D-04 0.000000000000D+00 0.000000000000D+00 0.952082277341D-05 0.000000000000D+00  6 -1 2 25 24 21 21 4 0.11228961D-01 0.79164375D-01 0.29301095D+05 0.29301095D+05 0.29301095D+05 0.12159743D+01  1  2 13  3  6  5       21 -.425370828715D-01 0.100000000000D+01
0.193981470443D-03 0.000000000000D+00 0.000000000000D+00 0.951152766041D-05 0.646630460782D-06  6 -1 2 25 24 21 21 4 0.11228961D-01 0.79164375D-01 0.29301095D+05 0.29301095D+05 0.29301095D+05 0.12159743D+01  1  2  1  3  6  5       21 0.145217496262D+00 0.100000000000D+01
  </mgrwgt>
  </event>
  <event>
  6     66 0.43535451E-03 0.62520007E+02 0.75467711E-02 0.11802017E+00
       -1 -1    0    0    0  501 0.00000000E+00 0.00000000E+00 0.60671779E+03 0.60671787E+03 0.32000000E+00 0.0000E+00 0.9000E+01
        2 -1    0    0  503    0 0.00000000E+00 0.00000000E+00 -.73008814E+02 0.73009516E+02 0.32000000E+00 0.0000E+00 0.9000E+01
       25  1    1    2    0    0 0.37084876E+02 0.44611462E+02 0.20664308E+03 0.24837841E+03 0.12500000E+03 0.0000E+00 0.9000E+01
       24  1    1    2    0    0 -.47145591E+01 -.10214515E+03 0.32603297E+03 0.35102788E+03 0.80419002E+02 0.0000E+00 0.9000E+01
       21  1    1    2  502  501 -.33948683E+02 0.54515170E+02 0.14975562E+02 0.65948820E+02 0.75000000E+00 0.0000E+00 0.9000E+01
       21  1    1    2  503  502 0.15783660E+01 0.30185223E+01 -.13942640E+02 0.14372280E+02 0.75000000E+00 0.0000E+00 0.9000E+01
#aMCatNLO 2  0  0  2  5 0.34062760D+01 0.00000000D+00  -5  6  0 0.00000000D+00 0.00000000D+00 0.00000000D+00 0.00000000D+00 0.00000000D+00
  <mgrwgt>
 0.1041147741D-01    2    2    0
 0.188920306333196D+03 0.000000000000000D+00 0.000000000000000D+00 0.188920306333196D+03
 0.188920306333196D+03 0.000000000000000D+00 0.000000000000000D+00 -.188920306333196D+03
 0.138377366447097D+03 0.376622181567953D+02 0.457142208681893D+02 0.388109246970878D+01
 0.144744248991657D+03 -.410779381915499D+01 -.100986190134694D+03 0.653345015578059D+02
 0.947189972276395D+02 -.335544243376403D+02 0.552719692665046D+02 -.692155940275147D+02
 0.000000000000000D+00 0.000000000000000D+00 0.000000000000000D+00 -.000000000000000D+00
 0.188991811579296D+03 0.000000000000000D+00 0.000000000000000D+00 0.188991811579296D+03
 0.234372935457628D+03 0.000000000000000D+00 0.000000000000000D+00 -.234372935457628D+03
 0.137860456525939D+03 0.370852612056926D+02 0.446108282380808D+02 0.388109246970878D+01
 0.145574056632023D+03 -.471415960447425D+01 -.102145825246798D+03 0.653345015578059D+02
 0.944214531790146D+02 -.339494676246975D+02 0.545164746829317D+02 -.692155940275147D+02
 0.455087806999468D+02 0.157836602347915D+01 0.301852232578540D+01 -.453811238783320D+02
-.552912036149D-03 0.000000000000D+00 0.000000000000D+00 0.540252711780D-05 0.000000000000D+00  6 -1 2 25 24 21 21 4 0.93304418D-01 0.11259587D-01 0.28144168D+05 0.28144168D+05 0.28144168D+05 0.12178199D+01  1  2 13  2  6  2        2 -.895738147183D-01 0.100000000000D+01
0.615839830771D-03 0.000000000000D+00 0.000000000000D+00 0.541079461948D-05 0.207916751084D-05  6 -1 2 25 24 21 21 4 0.93339733D-01 0.11232002D-01 0.28144168D+05 0.28144168D+05 0.28144168D+05 0.12178199D+01  1  2  1  2  6  2        2 0.999852921246D-01 0.100000000000D+01
  </mgrwgt>
  </event>
  <event>
  5     66 0.43535451E-03 0.20701662E+02 0.75467711E-02 0.11185289E+00
       -1 -1    0    0    0  501 0.00000000E+00 0.00000000E+00 0.36054065E+03 0.36054079E+03 0.32000000E+00 0.0000E+00 0.9000E+01
        2 -1    0    0  502    0 0.00000000E+00 0.00000000E+00 -.52552551E+02 0.52553525E+02 0.32000000E+00 0.0000E+00 0.9000E+01
       25  1    1    2    0    0 0.10470276E+02 0.46422949E+02 0.89550390E+02 0.16096270E+03 0.12500000E+03 0.0000E+00 0.9000E+01
       24  1    1    2    0    0 0.79753435E+00 -.63781350E+02 0.15961873E+03 0.18977369E+03 0.80419002E+02 0.0000E+00 0.9000E+01
       21  1    1    2  502  501 -.11267811E+02 0.17358401E+02 0.58818975E+02 0.62357934E+02 0.75000000E+00 0.0000E+00 0.9000E+01
#aMCatNLO 1  0  0  2  5 0.34062760D+01 0.00000000D+00  -5  6  0 0.00000000D+00 0.00000000D+00 0.00000000D+00 0.00000000D+00 0.00000000D+00
  <mgrwgt>
 0.6067592289D+00    3    2    0
 0.137650141854601D+03 0.000000000000000D+00 0.000000000000000D+00 0.137650141854601D+03
 0.137650141854601D+03 0.000000000000000D+00 0.000000000000000D+00 -.137650141854601D+03
 0.141345215156897D+03 0.104723880045159D+02 0.464196956042962D+02 -.457056976452280D+02
 0.106189449656700D+03 0.799120720865701D+00 -.637837933562906D+02 0.272024332584032D+02
 0.277656188956038D+02 -.112715087253816D+02 0.173640977519944D+02 0.185032643868248D+02
 0.000000000000000D+00 -.000000000000000D+00 -.000000000000000D+00 0.000000000000000D+00
 0.537498572900186D+03 0.000000000000000D+00 0.000000000000000D+00 0.537498572900186D+03
 0.182742599758347D+03 0.000000000000000D+00 0.000000000000000D+00 -.182742599758347D+03
 0.188381082258885D+03 0.906233588168432D+02 0.977794875858202D+02 -.457056976452280D+02
 0.104247813823839D+03 0.519529143225507D+02 -.310050487968512D+02 0.272024332584032D+02
 0.327383630487508D+02 0.343600150009614D+01 0.267884959606621D+02 0.185032643868248D+02
 0.394873913527058D+03 -.146012274639490D+03 -.935629347496312D+02 0.354755973141839D+03
0.963548335981D-03 0.000000000000D+00 0.000000000000D+00 0.497287382414D-04 0.000000000000D+00  6 -1 2 25 24 21 21 2 0.55467878D-01 0.80850937D-02 0.16525008D+05 0.16525008D+05 0.16525008D+05 0.12430571D+01  1  2  2  2  6  2        2 0.462593029887D+00 0.100000000000D+01
0.171799868866D-03 0.508478426553D-04 -.370027931827D-05 0.497287382414D-04 0.000000000000D+00  6 -1 2 25 24 21 21 4 0.55467878D-01 0.80850937D-02 0.16525008D+05 0.16525008D+05 0.16525008D+05 0.12430571D+01  1  2  3  2  6  2        2 0.127447267797D+00 0.100000000000D+01
0.225372441602D-04 0.000000000000D+00 0.000000000000D+00 0.497287382414D-04 0.000000000000D+00  6 -1 2 25 24 21 21 4 0.55467878D-01 0.80850937D-02 0.16525008D+05 0.16525008D+05 0.16525008D+05 0.12430571D+01  1  2 15  2  6  2        2 0.167189312242D-01 0.100000000000D+01
  </mgrwgt>
  </event>
  <event>
  6     66 0.43535451E-03 0.17523419E+02 0.75467711E-02 0.12143911E+00
       -1 -1    0    0    0  501 0.00000000E+00 0.00000000E+00 0.12237862E+03 0.12237904E+03 0.32000000E+00 0.0000E+00 0.9000E+01
        2 -1    0    0  503    0 0.00000000E+00 0.00000000E+00 -.24936622E+03 0.24936643E+03 0.32000000E+00 0.0000E+00 0.9000E+01
       25  1    1    2    0    0 0.29126587E+02 0.36520819E+02 -.18431272E+02 0.13471021E+03 0.12500000E+03 0.0000E+00 0.9000E+01
       24  1    1    2    0    0 -.57550750E+02 -.17317718E+02 -.35203872E+02 0.10638854E+03 0.80419002E+02 0.0000E+00 0.9000E+01
       21  1    1    2  502  501 0.19094282E+01 -.17937490E+02 0.23832479E+02 0.29898980E+02 0.75000000E+00 0.0000E+00 0.9000E+01
       21  1    1    2  503  502 0.26514735E+02 -.12656106E+01 -.97184937E+02 0.10074774E+03 0.75000000E+00 0.0000E+00 0.9000E+01
#aMCatNLO 2  0  0  2  1 0.17473679D+02 0.00000000D+00  -5  6  0 0.00000000D+00 0.00000000D+00 0.00000000D+00 0.00000000D+00 0.00000000D+00
  <mgrwgt>
 0.3876571637D+00    1    2    0
 0.134021392985122D+03 0.000000000000000D+00 0.000000000000000D+00 0.134021392985122D+03
 0.134021392985122D+03 0.000000000000000D+00 0.000000000000000D+00 -.134021392985122D+03
 0.136855229410473D+03 0.424646552680507D+02 0.358864941459188D+02 -.364230804211943D+01
 0.980365968558037D+02 -.476252344451244D+02 -.177898151077508D+02 -.236499025616558D+02
 0.331509597039683D+02 0.516057917707372D+01 -.180966790381679D+02 0.272922106037752D+02
 0.000000000000000D+00 0.000000000000000D+00 -.000000000000000D+00 -.000000000000000D+00
 0.136664837176294D+03 0.000000000000000D+00 0.000000000000000D+00 0.136664837176294D+03
 0.223294646826890D+03 0.000000000000000D+00 0.000000000000000D+00 -.223294646826890D+03
 0.133493539963812D+03 0.291258591734334D+02 0.365231862192425D+02 -.364230804211943D+01
 0.103143247090098D+03 -.575512900471240D+02 -.173160211554081D+02 -.236499025616558D+02
 0.327171957303235D+02 0.191069608531756D+01 -.179415544835176D+02 0.272922106037752D+02
 0.906055012189504D+02 0.265147347883730D+02 -.126561058031685D+01 -.866298096505958D+02
0.506514584988D-03 0.000000000000D+00 0.000000000000D+00 0.643577628021D-04 0.481371858967D-06  6 -1 2 25 24 21 21 4 0.18827317D-01 0.38363653D-01 0.19380405D+05 0.19380405D+05 0.19380405D+05 0.12353335D+01  1  2  1  2  6  2        2 0.387657163724D+00 0.100000000000D+01
  </mgrwgt>
  </event>
  <event>
  5     66 0.43535451E-03 0.71921300E+02 0.75467711E-02 0.94132755E-01
       -1 -1    0    0    0  501 0.00000000E+00 0.00000000E+00 0.14108438E+04 0.14108438E+04 0.32000000E+00 0.0000E+00 0.9000E+01
        2 -1    0    0  502    0 0.00000000E+00 0.00000000E+00 -.10742044E+04 0.10742045E+04 0.32000000E+00 0.0000E+00 0.9000E+01
       25  1    1    2    0    0 -.76510842E+03 0.35566558E+03 0.11236461E+03 0.86031372E+03 0.12500000E+03 0.0000E+00 0.9000E+01
       24  1    1    2    0    0 0.72803987E+03 -.41729829E+03 0.72925553E+03 0.11146572E+04 0.80419002E+02 0.0000E+00 0.9000E+01
       21  1    1    2  502  501 0.37068543E+02 0.61632703E+02 -.50498079E+03 0.51007728E+03 0.75000000E+00 0.0000E+00 0.9000E+01
#aMCatNLO 1  0  0  5  1 0.46656478D+02 0.00000000D+00  -5  6  0 0.00000000D+00 0.00000000D+00 0.00000000D+00 0.00000000D+00 0.00000000D+00
  <mgrwgt>
 0.4033512611D+01   15    2    0
 0.123107054231266D+04 0.000000000000000D+00 0.000000000000000D+00 0.123107054231266D+04
 0.123107054231266D+04 -.000000000000000D+00 -.000000000000000D+00 -.123107054231266D+04
 0.852954679099784D+03 -.765108426010701D+03 0.355665566906142D+03 -.421729332324140D+01
 0.102531946936702D+04 0.728039859879483D+03 -.417298308724390D+03 0.583637629245343D+03
 0.583866936158523D+03 0.370685661312182D+02 0.616327418182473D+02 -.579420335922102D+03
 0.000000000000000D+00 0.000000000000000D+00 0.000000000000000D+00 0.000000000000000D+00
 0.123107054231266D+04 0.000000000000000D+00 0.000000000000000D+00 0.123107054231266D+04
 0.123107054231266D+04 -.000000000000000D+00 -.000000000000000D+00 -.123107054231266D+04
 0.852935282383032D+03 -.764909463651965D+03 0.355996375377237D+03 -.732728242631389D+01
 0.102320631650541D+04 0.728278784740694D+03 -.416901055854320D+03 0.579902984564107D+03
 0.173763193704096D+03 0.100795888822974D+02 -.287190647252942D+02 -.171076780117920D+03
 0.412236292032795D+03 0.265510900289740D+02 0.896237452023782D+02 -.401498922019873D+03
0.254153564299D+01 0.000000000000D+00 0.000000000000D+00 0.255507346880D-05 0.000000000000D+00  6 -1 2 25 24 21 21 2 0.21705289D+00 0.16526222D+00 0.78133617D+06 0.78133617D+06 0.78133617D+06 0.10894980D+01  1  2  2  3  6  5       21 0.910893963476D+00 0.100000000000D+01
0.976604150642D+00 0.134120520634D+00 -.976016607077D-02 0.255507346880D-05 0.000000000000D+00  6 -1 2 25 24 21 21 4 0.21705289D+00 0.16526222D+00 0.78133617D+06 0.78133617D+06 0.78133617D+06 0.10894980D+01  1  2  3  3  6  5       21 0.415473238997D+00 0.100000000000D+01
0.249481465895D-01 0.000000000000D+00 0.000000000000D+00 0.255507346880D-05 0.000000000000D+00  6 -1 2 25 24 21 21 4 0.21705289D+00 0.16526222D+00 0.78133617D+06 0.78133617D+06 0.78133617D+06 0.10894980D+01  1  2 15  3  6  5       21 0.106136014922D-01 0.100000000000D+01
0.266340252972D+01 0.000000000000D+00 0.000000000000D+00 0.254625067162D-05 0.000000000000D+00  6 -1 2 25 24 21 21 4 0.21705289D+00 0.16526222D+00 0.82793893D+06 0.82793893D+06 0.82793893D+06 0.10876153D+01  1  2 12  3  6  5       21 0.112109960646D+01 0.100000000000D+01
-.787357936975D+01 0.000000000000D+00 0.000000000000D+00 0.255507346880D-05 0.000000000000D+00  6 -1 2 25 24 21 21 4 0.21705289D+00 0.16526222D+00 0.78133617D+06 0.78133617D+06 0.78133617D+06 0.10894980D+01  1  2  4  3  6  5       21 -.334962893728D+01 0.100000000000D+01
-.523208083501D+01 0.000000000000D+00 0.000000000000D+00 0.255507346880D-05 0.000000000000D+00  6 -1 2 25 24 21 21 4 0.21705289D+00 0.16526222D+00 0.78133617D+06 0.78133617D+06 0.78133617D+06 0.10894980D+01  1  2  5  3  6  5       21 -.222586558719D+01 0.100000000000D+01
0.173414203037D+02 0.000000000000D+00 -.000000000000D+00 0.255507346880D-05 0.000000000000D+00  6 -1 2 25 24 21 21 4 0.21705289D+00 0.16526222D+00 0.78133617D+06 0.78133617D+06 0.78133617D+06 0.10894980D+01  1  2  6  3  6  5       21 0.737749891568D+01 0.100000000000D+01
0.286107001080D+00 0.000000000000D+00 0.000000000000D+00 0.254625067162D-05 0.000000000000D+00  6 -1 2 25 24 1 -1 4 0.21705289D+00 0.16526222D+00 0.82793893D+06 0.82793893D+06 0.82793893D+06 0.10876153D+01  1  2 12  6  6  5       21 0.120430330277D+00 0.100000000000D+01
-.416225594597D+00 0.000000000000D+00 0.000000000000D+00 0.255507346880D-05 0.000000000000D+00  6 -1 2 25 24 1 -1 4 0.21705289D+00 0.16526222D+00 0.78133617D+06 0.78133617D+06 0.78133617D+06 0.10894980D+01  1  2  5  6  6  5       21 -.177073378018D+00 0.100000000000D+01
0.286107001080D+00 0.000000000000D+00 0.000000000000D+00 0.254625067162D-05 0.000000000000D+00  6 -1 2 25 24 2 -2 4 0.21705289D+00 0.16526222D+00 0.82793893D+06 0.82793893D+06 0.82793893D+06 0.10876153D+01  1  2 12  7  6  5       21 0.120430330277D+00 0.100000000000D+01
-.416225594597D+00 0.000000000000D+00 0.000000000000D+00 0.255507346880D-05 0.000000000000D+00  6 -1 2 25 24 2 -2 4 0.21705289D+00 0.16526222D+00 0.78133617D+06 0.78133617D+06 0.78133617D+06 0.10894980D+01  1  2  5  7  6  5       21 -.177073378018D+00 0.100000000000D+01
0.286107001080D+00 0.000000000000D+00 0.000000000000D+00 0.254625067162D-05 0.000000000000D+00  6 -1 2 25 24 3 -3 4 0.21705289D+00 0.16526222D+00 0.82793893D+06 0.82793893D+06 0.82793893D+06 0.10876153D+01  1  2 12  8  6  5       21 0.120430330277D+00 0.100000000000D+01
0.286107001080D+00 0.000000000000D+00 0.000000000000D+00 0.254625067162D-05 0.000000000000D+00  6 -1 2 25 24 4 -4 4 0.21705289D+00 0.16526222D+00 0.82793893D+06 0.82793893D+06 0.82793893D+06 0.10876153D+01  1  2 12  8  6  5       21 0.120430330277D+00 0.100000000000D+01
-.416225594597D+00 0.000000000000D+00 0.000000000000D+00 0.255507346880D-05 0.000000000000D+00  6 -1 2 25 24 3 -3 4 0.21705289D+00 0.16526222D+00 0.78133617D+06 0.78133617D+06 0.78133617D+06 0.10894980D+01  1  2  5  8  6  5       21 -.177073378018D+00 0.100000000000D+01
-.416225594597D+00 0.000000000000D+00 0.000000000000D+00 0.255507346880D-05 0.000000000000D+00  6 -1 2 25 24 4 -4 4 0.21705289D+00 0.16526222D+00 0.78133617D+06 0.78133617D+06 0.78133617D+06 0.10894980D+01  1  2  5  8  6  5       21 -.177073378018D+00 0.100000000000D+01
  </mgrwgt>
  </event>
  <event>
  5     66 0.43535451E-03 0.45406036E+02 0.75467711E-02 0.10605092E+00
       -1 -1    0    0    0  501 0.00000000E+00 0.00000000E+00 0.38866717E+02 0.38868034E+02 0.32000000E+00 0.0000E+00 0.9000E+01
        2 -1    0    0  502    0 0.00000000E+00 0.00000000E+00 -.16107172E+04 0.16107172E+04 0.32000000E+00 0.0000E+00 0.9000E+01
       25  1    1    2    0    0 0.16506860E+03 0.98331254E+01 -.43882311E+03 0.48531954E+03 0.12500000E+03 0.0000E+00 0.9000E+01
       24  1    1    2    0    0 -.13309625E+03 0.22406817E+02 -.39874940E+03 0.42858485E+03 0.80419002E+02 0.0000E+00 0.9000E+01
       21  1    1    2  502  501 -.31972354E+02 -.32239942E+02 -.73427793E+03 0.73568084E+03 0.75000000E+00 0.0000E+00 0.9000E+01
#aMCatNLO 1  0  0  2  2 0.34176675D+03 0.00000000D+00  -5  6  0 0.00000000D+00 0.00000000D+00 0.00000000D+00 0.00000000D+00 0.00000000D+00
  <mgrwgt>
 0.5231599404D+00    6    4    0
 0.250208713750525D+03 0.000000000000000D+00 0.000000000000000D+00 0.250208713750525D+03
 0.250208713750525D+03 0.000000000000000D+00 0.000000000000000D+00 -.250208713750525D+03
 0.221438976027366D+03 0.165068881166396D+03 0.983341022256513D+01 0.778831728803932D+02
 0.160291817084552D+03 -.133096040570147D+03 0.224070228868022D+02 0.317745177744205D+02
 0.118686634389132D+03 -.319728405962483D+02 -.322404331093673D+02 -.109657690654814D+03
 0.000000000000000D+00 -.000000000000000D+00 0.000000000000000D+00 -.000000000000000D+00
 0.354455741474308D+03 0.000000000000000D+00 0.000000000000000D+00 0.354455741474308D+03
 0.438859588486777D+03 0.000000000000000D+00 0.000000000000000D+00 -.438859588486777D+03
 0.258609817041294D+03 0.192170580489782D+03 -.908774826149724D+02 0.778831728803932D+02
 0.150533027274515D+03 -.115548071289339D+03 -.428018643002407D+02 0.317745177744205D+02
 0.140854598157876D+03 -.173201458117328D+02 -.866903757722282D+02 -.109657690654814D+03
 0.243317887487399D+03 -.593023633887101D+02 0.220369722687441D+03 -.844038470124686D+02
 0.250208713750525D+03 0.000000000000000D+00 0.000000000000000D+00 0.250208713750525D+03
 0.250208713750525D+03 0.000000000000000D+00 0.000000000000000D+00 -.250208713750525D+03
 0.221438976027366D+03 0.165068881166396D+03 0.983341022256513D+01 0.778831728803932D+02
 0.160291817084552D+03 -.133096040570147D+03 0.224070228868022D+02 0.317745177744205D+02
 0.000000000000000D+00 -.000000000000000D+00 0.000000000000000D+00 -.000000000000000D+00
 0.118686634389132D+03 -.319728405962483D+02 -.322404331093673D+02 -.109657690654814D+03
 0.354455741474308D+03 0.000000000000000D+00 0.000000000000000D+00 0.354455741474308D+03
 0.438859588486777D+03 0.000000000000000D+00 0.000000000000000D+00 -.438859588486777D+03
 0.258609817041294D+03 0.192170580489782D+03 -.908774826149724D+02 0.778831728803932D+02
 0.150533027274515D+03 -.115548071289339D+03 -.428018643002407D+02 0.317745177744205D+02
 0.243317887487399D+03 -.593023633887101D+02 0.220369722687441D+03 -.844038470124686D+02
 0.140854598157876D+03 -.173201458117328D+02 -.866903757722282D+02 -.109657690654814D+03
0.880256447095D-03 0.000000000000D+00 0.000000000000D+00 0.978607626963D-05 0.000000000000D+00  6 -1 2 25 24 21 21 2 0.59795986D-02 0.24780274D+00 0.41985581D+05 0.41985581D+05 0.41985581D+05 0.11998695D+01  1  2  2  2  6  2        2 0.231362561898D+00 0.100000000000D+01
0.781427383829D-04 0.464524089211D-04 -.338041653369D-05 0.978607626963D-05 0.000000000000D+00  6 -1 2 25 24 21 21 4 0.59795986D-02 0.24780274D+00 0.41985581D+05 0.41985581D+05 0.41985581D+05 0.11998695D+01  1  2  3  2  6  2        2 0.295692640138D-01 0.100000000000D+01
0.239157340039D-04 0.000000000000D+00 0.000000000000D+00 0.978607626963D-05 0.000000000000D+00  6 -1 2 25 24 21 21 4 0.59795986D-02 0.24780274D+00 0.41985581D+05 0.41985581D+05 0.41985581D+05 0.11998695D+01  1  2 15  2  6  2        2 0.904972960353D-02 0.100000000000D+01
-.419068488172D-03 0.000000000000D+00 -.549635451273D-03 0.978607626963D-05 0.000000000000D+00  6 -1 2 25 24 21 21 4 0.59795986D-02 0.49149140D+00 0.41985581D+05 0.41985581D+05 0.41985581D+05 0.11998695D+01  1  2  5  2  6  2        2 -.216116611385D-01 0.100000000000D+01
0.726164593667D-03 0.000000000000D+00 0.441903198102D-03 0.978607626963D-05 0.000000000000D+00  6 -1 2 25 24 21 21 4 0.59795986D-02 0.24780274D+00 0.41985581D+05 0.41985581D+05 0.41985581D+05 0.11998695D+01  1  2  6  2  6  2        2 0.274781163700D+00 0.100000000000D+01
0.168698623967D-05 0.000000000000D+00 -.407434736968D-04 0.978607626963D-05 0.000000000000D+00  6 -1 21 25 24 -2 21 4 0.59795986D-02 0.49149140D+00 0.41985581D+05 0.41985581D+05 0.41985581D+05 0.11998695D+01  3  4  5  5  5  2        2 0.888237206825D-05 0.100000000000D+01
  </mgrwgt>
  </event>
  <event>
  5     66 0.43535451E-03 0.26893486E+02 0.75467711E-02 0.10413793E+00
       -1 -1    0    0    0  501 0.00000000E+00 0.00000000E+00 0.23924659E+03 0.23924681E+03 0.32000000E+00 0.0000E+00 0.9000E+01
        2 -1    0    0  502    0 0.00000000E+00 0.00000000E+00 -.31024131E+03 0.31024147E+03 0.32000000E+00 0.0000E+00 0.9000E+01
       25  1    1    2    0    0 0.58858182E+02 0.45777813E+00 -.22770954E+03 0.26634776E+03 0.12500000E+03 0.0000E+00 0.9000E+01
       24  1    1    2    0    0 -.33347311E+02 0.80539670E+01 -.31560542E+02 0.92952640E+02 0.80419002E+02 0.0000E+00 0.9000E+01
       21  1    1    2  502  501 -.25510871E+02 -.85117451E+01 0.18827536E+03 0.19018788E+03 0.75000000E+00 0.0000E+00 0.9000E+01
#aMCatNLO 1  0  0  2  2 0.34176675D+03 0.00000000D+00  -5  6  0 0.00000000D+00 0.00000000D+00 0.00000000D+00 0.00000000D+00 0.00000000D+00
  <mgrwgt>
 0.1270897363D+01    3    2    0
 0.272441333665654D+03 0.000000000000000D+00 0.000000000000000D+00 0.272441333665654D+03
 0.272441333665654D+03 0.000000000000000D+00 0.000000000000000D+00 -.272441333665654D+03
 0.238930447174404D+03 0.588582487914842D+02 0.457800559852280D+00 -.194931412437318D+03
 0.896262229107644D+02 -.333472857755782D+02 0.805397541199170D+01 -.197163863409209D+02
 0.216325997246140D+03 -.255109630159059D+02 -.851177597184398D+01 0.214647798778239D+03
 0.000000000000000D+00 0.000000000000000D+00 0.000000000000000D+00 0.000000000000000D+00
 0.700237189066882D+03 0.000000000000000D+00 0.000000000000000D+00 0.700237189066882D+03
 0.411177132814818D+03 0.000000000000000D+00 0.000000000000000D+00 -.411177132814818D+03
 0.254808389157998D+03 -.586931288955736D+02 -.886519951886799D+02 -.194931412437318D+03
 0.121436826953253D+03 -.835980468351032D+02 -.300386028489228D+02 -.197163863409209D+02
 0.275439385842070D+03 -.142592492818647D+03 -.972654036360191D+02 0.214647798778239D+03
 0.459729719928378D+03 0.284883668549324D+03 0.215956001673622D+03 0.289060056252063D+03
0.684211504880D-02 0.000000000000D+00 0.000000000000D+00 0.647118767601D-04 0.000000000000D+00  6 -1 2 25 24 21 21 2 0.36807197D-01 0.47729461D-01 0.15937665D+05 0.15937665D+05 0.15937665D+05 0.12448316D+01  1  2  2  2  6  2        2 0.908915419717D+00 0.100000000000D+01
0.143749167369D-02 0.361068330917D-03 -.262755233577D-04 0.647118767601D-04 0.000000000000D+00  6 -1 2 25 24 21 21 4 0.36807197D-01 0.47729461D-01 0.15937665D+05 0.15937665D+05 0.15937665D+05 0.12448316D+01  1  2  3  2  6  2        2 0.295910013662D+00 0.100000000000D+01
0.320968685473D-03 0.000000000000D+00 0.000000000000D+00 0.647118767601D-04 0.000000000000D+00  6 -1 2 25 24 21 21 4 0.36807197D-01 0.47729461D-01 0.15937665D+05 0.15937665D+05 0.15937665D+05 0.12448316D+01  1  2 15  2  6  2        2 0.660719292098D-01 0.100000000000D+01
  </mgrwgt>
  </event>
  <event>
  5     66 -.43535451E-03 0.22233265E+02 0.75467711E-02 0.11565715E+00
       -1 -1    0    0    0  501 0.00000000E+00 0.00000000E+00 0.23236999E+02 0.23239203E+02 0.32000000E+00 0.0000E+00 0.9000E+01
        2 -1    0    0  502    0 -.00000000E+00 -.00000000E+00 -.17732575E+04 0.17732575E+04 0.32000000E+00 0.0000E+00 0.9000E+01
       25  1    1    2    0    0 0.56397350E+02 0.14867839E+03 -.11187735E+04 0.11369103E+04 0.12500000E+03 0.0000E+00 0.9000E+01
       24  1    1    2    0    0 -.55182798E+02 -.12648706E+03 -.46083513E+03 0.48772979E+03 0.80419002E+02 0.0000E+00 0.9000E+01
       21  1    1    2  502  501 -.12145517E+01 -.22191325E+02 -.17041186E+03 0.17185661E+03 0.75000000E+00 0.0000E+00 0.9000E+01
#aMCatNLO 1  0  0  5  2 0.24220211D+01 0.00000000D+00  -5  6  0 0.00000000D+00 0.00000000D+00 0.00000000D+00 0.00000000D+00 0.00000000D+00
  <mgrwgt>
 -.3451044243D+00   14    2    0
 0.202995537039489D+03 0.000000000000000D+00 0.000000000000000D+00 0.202995537039489D+03
 0.202995537039489D+03 -.000000000000000D+00 -.000000000000000D+00 -.202995537039489D+03
 0.208330299937280D+03 0.563976114396347D+02 0.148683165510873D+03 -.498912776898666D+02
 0.171760428604246D+03 -.551825827695687D+02 -.126483125234499D+03 0.631769773710138D+02
 0.259003455374511D+02 -.121502867006595D+01 -.222000402763744D+02 -.132856996811473D+02
 0.000000000000000D+00 0.000000000000000D+00 0.000000000000000D+00 0.000000000000000D+00
 0.202995537039489D+03 0.000000000000000D+00 0.000000000000000D+00 0.202995537039489D+03
 0.202995537039489D+03 -.000000000000000D+00 -.000000000000000D+00 -.202995537039489D+03
 0.207084067530735D+03 0.562799923642073D+02 0.146534123042915D+03 -.511773804390453D+02
 0.172721697686722D+03 -.552801183204997D+02 -.128265217470172D+03 0.621104774028829D+02
 0.231948353876381D+02 0.491002052287615D+00 -.188908516281869D+02 -.134497223170631D+02
 0.299047347388161D+01 -.149087609599523D+01 0.621946055443903D+00 0.251662535322550D+01
0.217335291922D-03 0.000000000000D+00 0.000000000000D+00 0.316803396543D-04 0.000000000000D+00  6 -1 2 25 24 21 21 2 0.35750947D-02 0.27280901D+00 0.36906411D+05 0.36906411D+05 0.36906411D+05 0.12055665D+01  1  2  2  3  6  5       21 0.102115311657D+00 0.100000000000D+01
0.668271663530D-04 0.114690984504D-04 -.834624746679D-06 0.316803396543D-04 0.000000000000D+00  6 -1 2 25 24 21 21 4 0.35750947D-02 0.27280901D+00 0.36906411D+05 0.36906411D+05 0.36906411D+05 0.12055665D+01  1  2  3  3  6  5       21 0.456347857351D-01 0.100000000000D+01
0.657348521619D-05 0.000000000000D+00 0.000000000000D+00 0.316803396543D-04 0.000000000000D+00  6 -1 2 25 24 21 21 4 0.35750947D-02 0.27280901D+00 0.36906411D+05 0.36906411D+05 0.36906411D+05 0.12055665D+01  1  2 15  3  6  5       21 0.448888686659D-02 0.100000000000D+01
0.930827857643D-07 0.000000000000D+00 0.000000000000D+00 0.317033008128D-04 0.000000000000D+00  6 -1 2 25 24 21 21 4 0.35750947D-02 0.27280901D+00 0.36546180D+05 0.36546180D+05 0.36546180D+05 0.12060033D+01  1  2 12  3  6  5       21 0.636559560343D-04 0.100000000000D+01
0.611555446990D-07 0.000000000000D+00 0.000000000000D+00 0.317033008128D-04 0.000000000000D+00  6 -1 2 25 24 21 21 4 0.35750947D-02 0.27280901D+00 0.36546180D+05 0.36546180D+05 0.36546180D+05 0.12060033D+01  1  2 12  3  6  5       21 0.418220687385D-04 0.100000000000D+01
-.728526803765D-03 0.000000000000D+00 0.000000000000D+00 0.316803396543D-04 0.000000000000D+00  6 -1 2 25 24 21 21 4 0.35750947D-02 0.27280901D+00 0.36906411D+05 0.36906411D+05 0.36906411D+05 0.12055665D+01  1  2  4  3  6  5       21 -.497494752605D+00 0.100000000000D+01
0.864526395530D-08 0.000000000000D+00 0.000000000000D+00 0.317033008128D-04 0.000000000000D+00  6 -1 2 25 24 1 -1 4 0.35750947D-02 0.27280901D+00 0.36546180D+05 0.36546180D+05 0.36546180D+05 0.12060033D+01  1  2 12  6  6  5       21 0.591218384500D-05 0.100000000000D+01
0.812197635227D-08 0.000000000000D+00 0.000000000000D+00 0.317033008128D-04 0.000000000000D+00  6 -1 2 25 24 1 -1 4 0.35750947D-02 0.27280901D+00 0.36546180D+05 0.36546180D+05 0.36546180D+05 0.12060033D+01  1  2 12  6  6  5       21 0.555432634881D-05 0.100000000000D+01
0.864526395530D-08 0.000000000000D+00 0.000000000000D+00 0.317033008128D-04 0.000000000000D+00  6 -1 2 25 24 2 -2 4 0.35750947D-02 0.27280901D+00 0.36546180D+05 0.36546180D+05 0.36546180D+05 0.12060033D+01  1  2 12  7  6  5       21 0.591218384500D-05 0.100000000000D+01
0.812197635227D-08 0.000000000000D+00 0.000000000000D+00 0.317033008128D-04 0.000000000000D+00  6 -1 2 25 24 2 -2 4 0.35750947D-02 0.27280901D+00 0.36546180D+05 0.36546180D+05 0.36546180D+05 0.12060033D+01  1  2 12  7  6  5       21 0.555432634881D-05 0.100000000000D+01
0.864526395530D-08 0.000000000000D+00 0.000000000000D+00 0.317033008128D-04 0.000000000000D+00  6 -1 2 25 24 3 -3 4 0.35750947D-02 0.27280901D+00 0.36546180D+05 0.36546180D+05 0.36546180D+05 0.12060033D+01  1  2 12  8  6  5       21 0.591218384500D-05 0.100000000000D+01
0.864526395530D-08 0.000000000000D+00 0.000000000000D+00 0.317033008128D-04 0.000000000000D+00  6 -1 2 25 24 4 -4 4 0.35750947D-02 0.27280901D+00 0.36546180D+05 0.36546180D+05 0.36546180D+05 0.12060033D+01  1  2 12  8  6  5       21 0.591218384500D-05 0.100000000000D+01
0.812197635227D-08 0.000000000000D+00 0.000000000000D+00 0.317033008128D-04 0.000000000000D+00  6 -1 2 25 24 3 -3 4 0.35750947D-02 0.27280901D+00 0.36546180D+05 0.36546180D+05 0.36546180D+05 0.12060033D+01  1  2 12  8  6  5       21 0.555432634881D-05 0.100000000000D+01
0.812197635227D-08 0.000000000000D+00 0.000000000000D+00 0.317033008128D-04 0.000000000000D+00  6 -1 2 25 24 4 -4 4 0.35750947D-02 0.27280901D+00 0.36546180D+05 0.36546180D+05 0.36546180D+05 0.12060033D+01  1  2 12  8  6  5       21 0.555432634881D-05 0.100000000000D+01
  </mgrwgt>
  </event>
  <event>
  6     66 0.43535451E-03 0.20830791E+02 0.75467711E-02 0.12219352E+00
       -3 -1    0    0    0  501 0.00000000E+00 0.00000000E+00 0.26203119E+03 0.26203166E+03 0.50000000E+00 0.0000E+00 0.9000E+01
       21 -1    0    0  502  503 0.00000000E+00 0.00000000E+00 -.73317367E+02 0.73321203E+02 0.75000000E+00 0.0000E+00 0.9000E+01
       25  1    1    2    0    0 0.57053142E+02 -.19722681E+02 0.91044470E+02 0.16600645E+03 0.12500000E+03 0.0000E+00 0.9000E+01
       24  1    1    2    0    0 -.33873053E+02 0.32286167E+02 0.89754470E+02 0.12927823E+03 0.80419002E+02 0.0000E+00 0.9000E+01
       -4  1    1    2    0  503 -.16473234E+02 -.19851273E+02 -.21444548E+01 0.25931480E+02 0.15500000E+01 0.0000E+00 0.9000E+01
       21  1    1    2  502  501 -.67068554E+01 0.72877872E+01 0.10059334E+02 0.14136706E+02 0.75000000E+00 0.0000E+00 0.9000E+01
#aMCatNLO 2  0  0  2  2 0.34176675D+03 0.00000000D+00  -5  6  0 0.00000000D+00 0.00000000D+00 0.00000000D+00 0.00000000D+00 0.00000000D+00
  <mgrwgt>
 0.2114063892D-01    1    2    0
 0.121088059307324D+03 0.000000000000000D+00 0.000000000000000D+00 0.121088059307324D+03
 0.121088059307324D+03 0.000000000000000D+00 0.000000000000000D+00 -.121088059307324D+03
 0.138092305863295D+03 0.476487203398478D+02 -.310803844341203D+02 -.144254667877320D+02
 0.940918181851435D+02 -.402411429840684D+02 0.245953311312836D+02 0.127190562894356D+02
 0.000000000000000D+00 -.000000000000000D+00 -.000000000000000D+00 -.000000000000000D+00
 0.999199456621074D+01 -.740757735577938D+01 0.648505330283669D+01 0.170641049829648D+01
 0.127546212906759D+03 0.000000000000000D+00 0.000000000000000D+00 0.127546212906759D+03
 0.150589226199357D+03 0.000000000000000D+00 0.000000000000000D+00 -.150589226199357D+03
 0.139566976623032D+03 0.570655142736747D+02 -.197325607139833D+02 -.144254667877320D+02
 0.939029179802411D+02 -.338653154761199D+02 0.322786007386071D+02 0.127190562894356D+02
 0.345893183963464D+02 -.164732336547050D+02 -.198512734724621D+02 -.230430132925979D+02
 0.100762261064959D+02 -.672696514284985D+01 0.730523344783832D+01 0.170641049829648D+01
0.463804657865D-05 0.000000000000D+00 0.000000000000D+00 0.239691480208D-03 0.110164247694D-06  6 -3 21 25 24 -4 21 4 0.40307498D-01 0.11278437D-01 0.17900277D+05 0.17900277D+05 0.17900277D+05 0.12391647D+01  1  2  1  5  5  2        4 0.211406389185D-01 0.100000000000D+01
  </mgrwgt>
  </event>
  <event>
  6     66 -.43535451E-03 0.86872530E+01 0.75467711E-02 0.12488640E+00
       -1 -1    0    0    0  501 0.00000000E+00 0.00000000E+00 0.26382908E+02 0.26384848E+02 0.32000000E+00 0.0000E+00 0.9000E+01
        2 -1    0    0  502    0 -.00000000E+00 -.00000000E+00 -.93068591E+03 0.93068596E+03 0.32000000E+00 0.0000E+00 0.9000E+01
       25  1    1    2    0    0 0.15457178E+02 -.25426921E+02 -.72236456E+03 0.73370362E+03 0.12500000E+03 0.0000E+00 0.9000E+01
       24  1    1    2    0    0 -.18584012E+02 0.64845286E+01 -.15535742E+03 0.17604136E+03 0.80419002E+02 0.0000E+00 0.9000E+01
       21  1    1    2  503  501 0.36853846E+00 0.12440924E+02 0.61006462E+01 0.13881383E+02 0.75000000E+00 0.0000E+00 0.9000E+01
       21  1    1    2  502  503 0.27582957E+01 0.65014679E+01 -.32681666E+02 0.33444447E+02 0.75000000E+00 0.0000E+00 0.9000E+01
#aMCatNLO 2  0  0  5  2 0.78928823D+01 0.00000000D+00  -5  6  0 0.00000000D+00 0.00000000D+00 0.00000000D+00 0.00000000D+00 0.00000000D+00
  <mgrwgt>
 -.8476009471D+00    2    2    0
 0.156700846419057D+03 0.000000000000000D+00 0.000000000000000D+00 0.156700846419057D+03
 0.156700846419057D+03 -.000000000000000D+00 -.000000000000000D+00 -.156700846419057D+03
 0.159048956763253D+03 0.152063384971822D+02 -.269465099997810D+02 -.933500054409213D+02
 0.883844290602250D+02 -.187253879775732D+02 0.562807354424181D+01 0.310205734827930D+02
 0.659683070146357D+02 0.351904948039101D+01 0.213184364555392D+02 0.623294319581282D+02
 0.000000000000000D+00 0.000000000000000D+00 0.000000000000000D+00 -.000000000000000D+00
 0.156700846419057D+03 0.000000000000000D+00 0.000000000000000D+00 0.156700846419057D+03
 0.156700846419057D+03 -.000000000000000D+00 -.000000000000000D+00 -.156700846419057D+03
 0.156211201111137D+03 0.154609709421346D+02 -.254039441371853D+02 -.888399535816253D+02
 0.893375483016757D+02 -.185818437316953D+02 0.649766600134100D+01 0.335630302900315D+02
 0.599106663510084D+02 0.310528041217865D+00 0.122814608379092D+02 0.586375070636906D+02
 0.794227707429293D+01 0.281034474834283D+01 0.662481729793514D+01 -.336058377209678D+01
-.245432742447D-03 0.000000000000D+00 0.000000000000D+00 0.468303678584D-04 0.000000000000D+00  6 -1 2 25 24 21 21 4 0.40590624D-02 0.14318260D+00 0.13312984D+05 0.13312984D+05 0.13312984D+05 0.12537732D+01  1  2 13  3  6  5       21 -.462636646477D+00 0.100000000000D+01
-.204789205677D-03 0.000000000000D+00 0.000000000000D+00 0.467535525239D-04 0.000000000000D+00  6 -1 2 25 24 21 21 4 0.40590624D-02 0.14318260D+00 0.13588715D+05 0.13588715D+05 0.13588715D+05 0.12527445D+01  1  2  8  3  6  5       21 -.384964300627D+00 0.100000000000D+01
  </mgrwgt>
  </event>
  <event>
  5     66 0.43535451E-03 0.45148373E+02 0.75467711E-02 0.11796052E+00
       -1 -1    0    0    0  501 0.00000000E+00 0.00000000E+00 0.38075239E+02 0.38076584E+02 0.32000000E+00 0.0000E+00 0.9000E+01
        2 -1    0    0  502    0 -.00000000E+00 -.00000000E+00 -.84743793E+03 0.84743799E+03 0.32000000E+00 0.0000E+00 0.9000E+01
       25  1    1    2    0    0 0.40545803E+02 -.70072031E+02 -.21955616E+03 0.26529976E+03 0.12500000E+03 0.0000E+00 0.9000E+01
       24  1    1    2    0    0 -.31364868E+02 0.11427153E+03 -.49334027E+03 0.51370572E+03 0.80419002E+02 0.0000E+00 0.9000E+01
       21  1    1    2  502  501 -.91809353E+01 -.44199496E+02 -.96466258E+02 0.10650909E+03 0.75000000E+00 0.0000E+00 0.9000E+01
#aMCatNLO 1  0  0  5  2 0.92409636D+01 0.00000000D+00  -5  6  0 0.00000000D+00 0.00000000D+00 0.00000000D+00 0.00000000D+00 0.00000000D+00
  <mgrwgt>
 0.1015269128D+00   25    2    0
 0.179630241936963D+03 0.000000000000000D+00 0.000000000000000D+00 0.179630241936963D+03
 0.179630241936963D+03 -.000000000000000D+00 -.000000000000000D+00 -.179630241936963D+03
 0.159287880451085D+03 0.405463636324486D+02 -.700693326052576D+02 0.565146873214214D+02
 0.154771749022498D+03 -.313643233593525D+02 0.114274148292078D+03 -.586922191899632D+02
 0.452008544003434D+02 -.918204027309614D+01 -.442048156868205D+02 0.217753186854178D+01
 0.000000000000000D+00 0.000000000000000D+00 0.000000000000000D+00 0.000000000000000D+00
 0.179630241936963D+03 0.000000000000000D+00 0.000000000000000D+00 0.179630241936963D+03
 0.179630241936963D+03 -.000000000000000D+00 -.000000000000000D+00 -.179630241936963D+03
 0.160140797982754D+03 0.401144873622329D+02 -.721485013255623D+02 0.566171072971230D+02
 0.153344945126374D+03 -.317809055188275D+02 0.112268609541397D+03 -.585934262309755D+02
 0.313849291482210D+02 -.145132530428401D+02 -.277543065074178D+02 -.201934000248956D+01
 0.143898116165769D+02 0.617967119943479D+01 -.123658017084166D+02 0.399565893634208D+01
0.750812896315D-04 0.000000000000D+00 0.000000000000D+00 0.815806674869D-05 0.000000000000D+00  6 -1 2 25 24 21 21 2 0.58578372D-02 0.13037517D+00 0.28440298D+05 0.28440298D+05 0.28440298D+05 0.12173395D+01  1  2  2  3  6  5       21 0.566718730933D-01 0.100000000000D+01
0.558968623931D-05 0.396214850774D-05 -.288331921543D-06 0.815806674869D-05 0.000000000000D+00  6 -1 2 25 24 21 21 4 0.58578372D-02 0.13037517D+00 0.28440298D+05 0.28440298D+05 0.28440298D+05 0.12173395D+01  1  2  3  3  6  5       21 0.625239952786D-02 0.100000000000D+01
0.116620739985D-05 0.000000000000D+00 0.000000000000D+00 0.815806674869D-05 0.000000000000D+00  6 -1 2 25 24 21 21 4 0.58578372D-02 0.13037517D+00 0.28440298D+05 0.28440298D+05 0.28440298D+05 0.12173395D+01  1  2 15  3  6  5       21 0.130447296754D-02 0.100000000000D+01
0.714532512522D-04 0.000000000000D+00 0.000000000000D+00 0.816037908324D-05 0.000000000000D+00  6 -1 2 25 24 21 21 4 0.58578372D-02 0.13037517D+00 0.28333549D+05 0.28333549D+05 0.28333549D+05 0.12175120D+01  1  2 12  3  6  5       21 0.799646553418D-01 0.100000000000D+01
0.717483558277D-04 0.000000000000D+00 0.000000000000D+00 0.816037908324D-05 0.000000000000D+00  6 -1 2 25 24 21 21 4 0.58578372D-02 0.13037517D+00 0.28333549D+05 0.28333549D+05 0.28333549D+05 0.12175120D+01  1  2 12  3  6  5       21 0.802949123315D-01 0.100000000000D+01
-.196228168459D-03 0.000000000000D+00 0.000000000000D+00 0.815806674869D-05 0.000000000000D+00  6 -1 2 25 24 21 21 4 0.58578372D-02 0.13037517D+00 0.28440298D+05 0.28440298D+05 0.28440298D+05 0.12173395D+01  1  2  4  3  6  5       21 -.219492983201D+00 0.100000000000D+01
-.123831573368D-03 0.000000000000D+00 0.000000000000D+00 0.815806674869D-05 0.000000000000D+00  6 -1 2 25 24 21 21 4 0.58578372D-02 0.13037517D+00 0.28440298D+05 0.28440298D+05 0.28440298D+05 0.12173395D+01  1  2  5  3  6  5       21 -.138513046656D+00 0.100000000000D+01
0.214313891072D-03 0.000000000000D+00 -.000000000000D+00 0.815806674869D-05 0.000000000000D+00  6 -1 2 25 24 21 21 4 0.58578372D-02 0.13037517D+00 0.28440298D+05 0.28440298D+05 0.28440298D+05 0.12173395D+01  1  2  6  3  6  5       21 0.239722949372D+00 0.100000000000D+01
0.811321789597D-08 0.000000000000D+00 0.000000000000D+00 0.815806674869D-05 0.564923022422D-06  6 -1 2 25 24 21 21 4 0.58578372D-02 0.13037517D+00 0.28333549D+05 0.28333549D+05 0.28333549D+05 0.12175120D+01  1  2 11  3  6  5       21 0.907965223967D-05 0.100000000000D+01
0.148057130398D-05 0.000000000000D+00 0.000000000000D+00 0.816037908324D-05 0.000000000000D+00  6 -1 2 25 24 1 -1 4 0.58578372D-02 0.13037517D+00 0.28333549D+05 0.28333549D+05 0.28333549D+05 0.12175120D+01  1  2 12  6  6  5       21 0.165693473645D-02 0.100000000000D+01
0.148547655853D-05 0.000000000000D+00 0.000000000000D+00 0.816037908324D-05 0.000000000000D+00  6 -1 2 25 24 1 -1 4 0.58578372D-02 0.13037517D+00 0.28333549D+05 0.28333549D+05 0.28333549D+05 0.12175120D+01  1  2 12  6  6  5       21 0.166242429756D-02 0.100000000000D+01
-.401541263109D-05 0.000000000000D+00 0.000000000000D+00 0.815806674869D-05 0.000000000000D+00  6 -1 2 25 24 1 -1 4 0.58578372D-02 0.13037517D+00 0.28440298D+05 0.28440298D+05 0.28440298D+05 0.12173395D+01  1  2  5  6  6  5       21 -.449148001586D-02 0.100000000000D+01
0.239359982828D-09 0.000000000000D+00 0.000000000000D+00 0.815806674869D-05 0.269383989640D-07  6 -1 2 25 24 1 -1 4 0.58578372D-02 0.13037517D+00 0.28333549D+05 0.28333549D+05 0.28333549D+05 0.12175120D+01  1  2 11  6  6  5       21 0.267872184876D-06 0.100000000000D+01
0.148057130398D-05 0.000000000000D+00 0.000000000000D+00 0.816037908324D-05 0.000000000000D+00  6 -1 2 25 24 2 -2 4 0.58578372D-02 0.13037517D+00 0.28333549D+05 0.28333549D+05 0.28333549D+05 0.12175120D+01  1  2 12  7  6  5       21 0.165693473645D-02 0.100000000000D+01
0.148547655853D-05 0.000000000000D+00 0.000000000000D+00 0.816037908324D-05 0.000000000000D+00  6 -1 2 25 24 2 -2 4 0.58578372D-02 0.13037517D+00 0.28333549D+05 0.28333549D+05 0.28333549D+05 0.12175120D+01  1  2 12  7  6  5       21 0.166242429756D-02 0.100000000000D+01
-.401541263109D-05 0.000000000000D+00 0.000000000000D+00 0.815806674869D-05 0.000000000000D+00  6 -1 2 25 24 2 -2 4 0.58578372D-02 0.13037517D+00 0.28440298D+05 0.28440298D+05 0.28440298D+05 0.12173395D+01  1  2  5  7  6  5       21 -.449148001586D-02 0.100000000000D+01
0.243767866569D-09 0.000000000000D+00 0.000000000000D+00 0.815806674869D-05 0.266679070778D-07  6 -1 2 25 24 2 -2 4 0.58578372D-02 0.13037517D+00 0.28333549D+05 0.28333549D+05 0.28333549D+05 0.12175120D+01  1  2 11  7  6  5       21 0.272805129115D-06 0.100000000000D+01
0.148057130398D-05 0.000000000000D+00 0.000000000000D+00 0.816037908324D-05 0.000000000000D+00  6 -1 2 25 24 3 -3 4 0.58578372D-02 0.13037517D+00 0.28333549D+05 0.28333549D+05 0.28333549D+05 0.12175120D+01  1  2 12  8  6  5       21 0.165693473645D-02 0.100000000000D+01
0.148057130398D-05 0.000000000000D+00 0.000000000000D+00 0.816037908324D-05 0.000000000000D+00  6 -1 2 25 24 4 -4 4 0.58578372D-02 0.13037517D+00 0.28333549D+05 0.28333549D+05 0.28333549D+05 0.12175120D+01  1  2 12  8  6  5       21 0.165693473645D-02 0.100000000000D+01
0.148547655853D-05 0.000000000000D+00 0.000000000000D+00 0.816037908324D-05 0.000000000000D+00  6 -1 2 25 24 3 -3 4 0.58578372D-02 0.13037517D+00 0.28333549D+05 0.28333549D+05 0.28333549D+05 0.12175120D+01  1  2 12  8  6  5       21 0.166242429756D-02 0.100000000000D+01
0.148547655853D-05 0.000000000000D+00 0.000000000000D+00 0.816037908324D-05 0.000000000000D+00  6 -1 2 25 24 4 -4 4 0.58578372D-02 0.13037517D+00 0.28333549D+05 0.28333549D+05 0.28333549D+05 0.12175120D+01  1  2 12  8  6  5       21 0.166242429756D-02 0.100000000000D+01
-.401541263109D-05 0.000000000000D+00 0.000000000000D+00 0.815806674869D-05 0.000000000000D+00  6 -1 2 25 24 3 -3 4 0.58578372D-02 0.13037517D+00 0.28440298D+05 0.28440298D+05 0.28440298D+05 0.12173395D+01  1  2  5  8  6  5       21 -.449148001586D-02 0.100000000000D+01
-.401541263109D-05 0.000000000000D+00 0.000000000000D+00 0.815806674869D-05 0.000000000000D+00  6 -1 2 25 24 4 -4 4 0.58578372D-02 0.13037517D+00 0.28440298D+05 0.28440298D+05 0.28440298D+05 0.12173395D+01  1  2  5  8  6  5       21 -.449148001586D-02 0.100000000000D+01
0.242883960457D-09 0.000000000000D+00 0.000000000000D+00 0.815806674869D-05 0.263674604881D-07  6 -1 2 25 24 3 -3 4 0.58578372D-02 0.13037517D+00 0.28333549D+05 0.28333549D+05 0.28333549D+05 0.12175120D+01  1  2 11  8  6  5       21 0.271815933434D-06 0.100000000000D+01
0.242883960457D-09 0.000000000000D+00 0.000000000000D+00 0.815806674869D-05 0.263674604881D-07  6 -1 2 25 24 4 -4 4 0.58578372D-02 0.13037517D+00 0.28333549D+05 0.28333549D+05 0.28333549D+05 0.12175120D+01  1  2 11  8  6  5       21 0.271815933434D-06 0.100000000000D+01
  </mgrwgt>
  </event>
  <event>
  5     66 -.43535451E-03 0.24743321E+02 0.75467711E-02 0.12060518E+00
       -1 -1    0    0    0  501 0.00000000E+00 0.00000000E+00 0.45435137E+02 0.45436264E+02 0.32000000E+00 0.0000E+00 0.9000E+01
        2 -1    0    0  502    0 0.00000000E+00 0.00000000E+00 -.58092924E+03 0.58092933E+03 0.32000000E+00 0.0000E+00 0.9000E+01
       25  1    1    2    0    0 0.73703903E+02 0.31512354E+02 -.29056101E+03 0.32630659E+03 0.12500000E+03 0.0000E+00 0.9000E+01
       24  1    1    2    0    0 -.64337546E+02 -.54412343E+02 -.24907253E+03 0.27496248E+03 0.80419002E+02 0.0000E+00 0.9000E+01
       21  1    1    2  502  501 -.93663571E+01 0.22899988E+02 0.41394325E+01 0.25096524E+02 0.75000000E+00 0.0000E+00 0.9000E+01
#aMCatNLO 1  0  0  1  5 0.14074688D+01 0.00000000D+00  -5  6  0 0.00000000D+00 0.00000000D+00 0.00000000D+00 0.00000000D+00 0.00000000D+00
  <mgrwgt>
 -.3248094610D+00   11    4    0
 0.162465320895782D+03 0.000000000000000D+00 0.000000000000000D+00 0.162465320895782D+03
 0.162465320895782D+03 0.000000000000000D+00 0.000000000000000D+00 -.162465320895782D+03
 0.150166248946895D+03 0.737043025004014D+02 0.315113772473205D+02 -.223519846923558D+02
 0.119565044469753D+03 -.643372276393503D+02 -.544131205688856D+02 -.269910606372135D+02
 0.551993483749158D+02 -.936707486105110D+01 0.229017433215650D+02 0.493430453295693D+02
 0.000000000000000D+00 -.000000000000000D+00 -.000000000000000D+00 0.000000000000000D+00
 0.169157677230269D+03 0.000000000000000D+00 0.000000000000000D+00 0.169157677230269D+03
 0.162540863053878D+03 0.000000000000000D+00 0.000000000000000D+00 -.162540863053878D+03
 0.150507810609746D+03 0.743422544612334D+02 0.316420453901609D+02 -.223519846923558D+02
 0.119245856854755D+03 -.638305331709527D+02 -.543093371663130D+02 -.269910606372135D+02
 0.551800226072267D+02 -.913287861459976D+01 0.229497124328192D+02 0.493430453295693D+02
 0.676485021242014D+01 -.137884267568093D+01 -.282420656667121D+00 0.661681417639105D+01
 0.162465320895782D+03 0.000000000000000D+00 0.000000000000000D+00 0.162465320895782D+03
 0.162465320895782D+03 0.000000000000000D+00 0.000000000000000D+00 -.162465320895782D+03
 0.150166248946895D+03 0.737043025004014D+02 0.315113772473205D+02 -.223519846923558D+02
 0.119565044469753D+03 -.643372276393503D+02 -.544131205688856D+02 -.269910606372135D+02
 0.000000000000000D+00 -.000000000000000D+00 -.000000000000000D+00 0.000000000000000D+00
 0.551993483749158D+02 -.936707486105110D+01 0.229017433215650D+02 0.493430453295693D+02
 0.169157677230269D+03 0.000000000000000D+00 0.000000000000000D+00 0.169157677230269D+03
 0.162540863053878D+03 0.000000000000000D+00 0.000000000000000D+00 -.162540863053878D+03
 0.150507810609746D+03 0.743422544612334D+02 0.316420453901609D+02 -.223519846923558D+02
 0.119245856854755D+03 -.638305331709527D+02 -.543093371663130D+02 -.269910606372135D+02
 0.676485021242014D+01 -.137884267568093D+01 -.282420656667121D+00 0.661681417639105D+01
 0.551800226072267D+02 -.913287861459976D+01 0.229497124328192D+02 0.493430453295693D+02
0.187755432053D-04 0.000000000000D+00 0.000000000000D+00 0.369025929007D-04 0.000000000000D+00  6 -1 2 25 24 21 21 2 0.69901146D-02 0.89373823D-01 0.20983754D+05 0.20983754D+05 0.20983754D+05 0.12315369D+01  1  2  2  1  6  1       -1 0.173877069627D-01 0.100000000000D+01
0.256082835890D-05 0.990812635982D-06 -.721030296223D-07 0.369025929007D-04 0.000000000000D+00  6 -1 2 25 24 21 21 4 0.69901146D-02 0.89373823D-01 0.20983754D+05 0.20983754D+05 0.20983754D+05 0.12315369D+01  1  2  3  1  6  1       -1 0.359687308508D-02 0.100000000000D+01
0.494391798918D-06 0.000000000000D+00 0.000000000000D+00 0.369025929007D-04 0.000000000000D+00  6 -1 2 25 24 21 21 4 0.69901146D-02 0.89373823D-01 0.20983754D+05 0.20983754D+05 0.20983754D+05 0.12315369D+01  1  2 15  1  6  1       -1 0.694409896247D-03 0.100000000000D+01
0.115681750768D-06 0.000000000000D+00 0.000000000000D+00 0.368754968220D-04 0.000000000000D+00  6 -1 2 25 24 21 21 4 0.73688402D-02 0.89373823D-01 0.21184433D+05 0.21184433D+05 0.21184433D+05 0.12310847D+01  1  2 12  1  6  1       -1 0.149906527009D-03 0.100000000000D+01
-.319924498854D-02 0.000000000000D+00 0.000000000000D+00 0.369025929007D-04 0.000000000000D+00  6 -1 2 25 24 21 21 4 0.69901146D-02 0.89373823D-01 0.20983754D+05 0.20983754D+05 0.20983754D+05 0.12315369D+01  1  2  4  1  6  1       -1 -.449357652256D+01 0.100000000000D+01
-.447083878610D-02 0.000000000000D+00 -.904908537229D-04 0.369025929007D-04 0.000000000000D+00  6 -1 2 25 24 21 21 4 0.72803155D-02 0.89373823D-01 0.20983754D+05 0.20983754D+05 0.20983754D+05 0.12315369D+01  1  2  5  1  6  1       -1 -.590718432309D+01 0.100000000000D+01
0.447089515081D-02 0.000000000000D+00 0.904160404873D-04 0.369025929007D-04 0.000000000000D+00  6 -1 2 25 24 21 21 4 0.69901146D-02 0.89373823D-01 0.20983754D+05 0.20983754D+05 0.20983754D+05 0.12315369D+01  1  2  6  1  6  1       -1 0.627970335390D+01 0.100000000000D+01
0.303803867065D-02 0.000000000000D+00 0.000000000000D+00 0.369025929007D-04 0.846784140885D-04  6 -1 2 25 24 21 21 4 0.72780550D-02 0.89415380D-01 0.21184433D+05 0.21184433D+05 0.21184433D+05 0.12310847D+01  1  2 11  1  6  1       -1 0.400887980977D+01 0.100000000000D+01
0.344031688333D-08 0.000000000000D+00 0.000000000000D+00 0.368754968220D-04 0.000000000000D+00  6 21 2 25 24 1 21 4 0.73688402D-02 0.89373823D-01 0.21184433D+05 0.21184433D+05 0.21184433D+05 0.12310847D+01  3  4 12  4  5  1       -1 0.717696537198D-04 0.100000000000D+01
-.320604997144D-04 0.000000000000D+00 -.649945990351D-06 0.369025929007D-04 0.000000000000D+00  6 21 2 25 24 1 21 4 0.72803155D-02 0.89373823D-01 0.20983754D+05 0.20983754D+05 0.20983754D+05 0.12315369D+01  3  4  5  4  5  1       -1 -.683820034584D+00 0.100000000000D+01
0.210935331384D-04 0.000000000000D+00 0.000000000000D+00 0.369025929007D-04 0.117489247327D-05  6 21 2 25 24 1 21 4 0.72780550D-02 0.89415380D-01 0.21184433D+05 0.21184433D+05 0.21184433D+05 0.12310847D+01  3  4 11  4  5  1       -1 0.449287589401D+00 0.100000000000D+01
  </mgrwgt>
  </event>
  <event>
  5     66 0.43535451E-03 0.30848911E+02 0.75467711E-02 0.12047247E+00
       -1 -1    0    0    0  501 0.00000000E+00 0.00000000E+00 0.22083926E+02 0.22086244E+02 0.32000000E+00 0.0000E+00 0.9000E+01
        2 -1    0    0  502    0 -.00000000E+00 -.00000000E+00 -.11066917E+04 0.11066917E+04 0.32000000E+00 0.0000E+00 0.9000E+01
       25  1    1    2    0    0 -.14621805E+02 0.57844110E+02 -.38755050E+03 0.41155817E+03 0.12500000E+03 0.0000E+00 0.9000E+01
       24  1    1    2    0    0 0.30291038E+02 -.84413882E+02 -.37931276E+03 0.39798070E+03 0.80419002E+02 0.0000E+00 0.9000E+01
       21  1    1    2  502  501 -.15669233E+02 0.26569772E+02 -.31774449E+03 0.31923910E+03 0.75000000E+00 0.0000E+00 0.9000E+01
#aMCatNLO 1  0  0  5  1 0.44359435D+01 0.00000000D+00  -5  6  0 0.00000000D+00 0.00000000D+00 0.00000000D+00 0.00000000D+00 0.00000000D+00
  <mgrwgt>
 0.1985732984D+00   20    2    0
 0.156337556697609D+03 0.000000000000000D+00 0.000000000000000D+00 0.156337556697609D+03
 0.156337556697609D+03 -.000000000000000D+00 -.000000000000000D+00 -.156337556697609D+03
 0.141416593635050D+03 -.146210162097637D+02 0.578427731748572D+02 0.285323050554396D+02
 0.120977443786158D+03 0.302917125270654D+02 -.844150255380595D+02 0.111732522682062D+02
 0.502810759740096D+02 -.156706963173016D+02 0.265722523632023D+02 -.397055573236458D+02
 0.000000000000000D+00 0.000000000000000D+00 0.000000000000000D+00 -.000000000000000D+00
 0.156337556697609D+03 0.000000000000000D+00 0.000000000000000D+00 0.156337556697609D+03
 0.156337556697609D+03 -.000000000000000D+00 -.000000000000000D+00 -.156337556697609D+03
 0.141567139074464D+03 -.151168297858949D+02 0.586835069369882D+02 0.272760396049260D+02
 0.120278129103970D+03 0.298690105321100D+02 -.836982645303191D+02 0.101022329623832D+02
 0.461912167195363D+02 -.149521592479055D+02 0.278305632210250D+02 -.336974952579116D+02
 0.463862849724666D+01 0.199978501690412D+00 -.281580562769422D+01 -.368077730939758D+01
0.859158974229D-04 0.000000000000D+00 0.000000000000D+00 0.236955194820D-04 0.000000000000D+00  6 -1 2 25 24 21 21 2 0.33977090D-02 0.17026044D+00 0.20998563D+05 0.20998563D+05 0.20998563D+05 0.12315033D+01  1  2  2  3  6  5       21 0.102560352314D+00 0.100000000000D+01
0.815643475888D-05 0.453390646905D-05 -.329939668279D-06 0.236955194820D-04 0.000000000000D+00  6 -1 2 25 24 21 21 4 0.33977090D-02 0.17026044D+00 0.20998563D+05 0.20998563D+05 0.20998563D+05 0.12315033D+01  1  2  3  3  6  5       21 0.147664985798D-01 0.100000000000D+01
0.336959944497D-05 0.000000000000D+00 0.000000000000D+00 0.236955194820D-04 0.000000000000D+00  6 -1 2 25 24 21 21 4 0.33977090D-02 0.17026044D+00 0.20998563D+05 0.20998563D+05 0.20998563D+05 0.12315033D+01  1  2 15  3  6  5       21 0.610035964113D-02 0.100000000000D+01
0.825240822686D-05 0.000000000000D+00 0.000000000000D+00 0.236533529313D-04 0.000000000000D+00  6 -1 2 25 24 21 21 4 0.33977090D-02 0.17026044D+00 0.21489140D+05 0.21489140D+05 0.21489140D+05 0.12304071D+01  1  2 12  3  6  5       21 0.148946306519D-01 0.100000000000D+01
-.123256484276D-03 0.000000000000D+00 0.000000000000D+00 0.236955194820D-04 0.000000000000D+00  6 -1 2 25 24 21 21 4 0.33977090D-02 0.17026044D+00 0.20998563D+05 0.20998563D+05 0.20998563D+05 0.12315033D+01  1  2  4  3  6  5       21 -.223144885458D+00 0.100000000000D+01
-.365500765181D-03 0.000000000000D+00 0.000000000000D+00 0.236955194820D-04 0.000000000000D+00  6 -1 2 25 24 21 21 4 0.33977090D-02 0.17026044D+00 0.20998563D+05 0.20998563D+05 0.20998563D+05 0.12315033D+01  1  2  5  3  6  5       21 -.661706577629D+00 0.100000000000D+01
0.412012256284D-03 0.000000000000D+00 -.000000000000D+00 0.236955194820D-04 0.000000000000D+00  6 -1 2 25 24 21 21 4 0.33977090D-02 0.17026044D+00 0.20998563D+05 0.20998563D+05 0.20998563D+05 0.12315033D+01  1  2  6  3  6  5       21 0.745911489164D+00 0.100000000000D+01
0.109308805603D-03 0.000000000000D+00 0.000000000000D+00 0.236955194820D-04 0.537322965005D-05  6 -1 2 25 24 21 21 4 0.33977090D-02 0.17026044D+00 0.21489140D+05 0.21489140D+05 0.21489140D+05 0.12304071D+01  1  2 11  3  6  5       21 0.197289596165D+00 0.100000000000D+01
0.283440345112D-06 0.000000000000D+00 0.000000000000D+00 0.236533529313D-04 0.000000000000D+00  6 -1 2 25 24 1 -1 4 0.33977090D-02 0.17026044D+00 0.21489140D+05 0.21489140D+05 0.21489140D+05 0.12304071D+01  1  2 12  6  6  5       21 0.511576637539D-03 0.100000000000D+01
-.212967168327D-05 0.000000000000D+00 0.000000000000D+00 0.236955194820D-04 0.000000000000D+00  6 -1 2 25 24 1 -1 4 0.33977090D-02 0.17026044D+00 0.20998563D+05 0.20998563D+05 0.20998563D+05 0.12315033D+01  1  2  5  6  6  5       21 -.385558087767D-02 0.100000000000D+01
0.209141497123D-05 0.000000000000D+00 0.000000000000D+00 0.236955194820D-04 0.928359556962D-07  6 -1 2 25 24 1 -1 4 0.33977090D-02 0.17026044D+00 0.21489140D+05 0.21489140D+05 0.21489140D+05 0.12304071D+01  1  2 11  6  6  5       21 0.377475915879D-02 0.100000000000D+01
0.283440345112D-06 0.000000000000D+00 0.000000000000D+00 0.236533529313D-04 0.000000000000D+00  6 -1 2 25 24 2 -2 4 0.33977090D-02 0.17026044D+00 0.21489140D+05 0.21489140D+05 0.21489140D+05 0.12304071D+01  1  2 12  7  6  5       21 0.511576637539D-03 0.100000000000D+01
-.212967168327D-05 0.000000000000D+00 0.000000000000D+00 0.236955194820D-04 0.000000000000D+00  6 -1 2 25 24 2 -2 4 0.33977090D-02 0.17026044D+00 0.20998563D+05 0.20998563D+05 0.20998563D+05 0.12315033D+01  1  2  5  7  6  5       21 -.385558087767D-02 0.100000000000D+01
0.212866087012D-05 0.000000000000D+00 0.000000000000D+00 0.236955194820D-04 0.925163662458D-07  6 -1 2 25 24 2 -2 4 0.33977090D-02 0.17026044D+00 0.21489140D+05 0.21489140D+05 0.21489140D+05 0.12304071D+01  1  2 11  7  6  5       21 0.384198364550D-02 0.100000000000D+01
0.283440345112D-06 0.000000000000D+00 0.000000000000D+00 0.236533529313D-04 0.000000000000D+00  6 -1 2 25 24 3 -3 4 0.33977090D-02 0.17026044D+00 0.21489140D+05 0.21489140D+05 0.21489140D+05 0.12304071D+01  1  2 12  8  6  5       21 0.511576637539D-03 0.100000000000D+01
0.283440345112D-06 0.000000000000D+00 0.000000000000D+00 0.236533529313D-04 0.000000000000D+00  6 -1 2 25 24 4 -4 4 0.33977090D-02 0.17026044D+00 0.21489140D+05 0.21489140D+05 0.21489140D+05 0.12304071D+01  1  2 12  8  6  5       21 0.511576637539D-03 0.100000000000D+01
-.212967168327D-05 0.000000000000D+00 0.000000000000D+00 0.236955194820D-04 0.000000000000D+00  6 -1 2 25 24 3 -3 4 0.33977090D-02 0.17026044D+00 0.20998563D+05 0.20998563D+05 0.20998563D+05 0.12315033D+01  1  2  5  8  6  5       21 -.385558087767D-02 0.100000000000D+01
-.212967168327D-05 0.000000000000D+00 0.000000000000D+00 0.236955194820D-04 0.000000000000D+00  6 -1 2 25 24 4 -4 4 0.33977090D-02 0.17026044D+00 0.20998563D+05 0.20998563D+05 0.20998563D+05 0.12315033D+01  1  2  5  8  6  5       21 -.385558087767D-02 0.100000000000D+01
0.212232856121D-05 0.000000000000D+00 0.000000000000D+00 0.236955194820D-04 0.899004078097D-07  6 -1 2 25 24 3 -3 4 0.33977090D-02 0.17026044D+00 0.21489140D+05 0.21489140D+05 0.21489140D+05 0.12304071D+01  1  2 11  8  6  5       21 0.383055456932D-02 0.100000000000D+01
0.212232856121D-05 0.000000000000D+00 0.000000000000D+00 0.236955194820D-04 0.899004078097D-07  6 -1 2 25 24 4 -4 4 0.33977090D-02 0.17026044D+00 0.21489140D+05 0.21489140D+05 0.21489140D+05 0.12304071D+01  1  2 11  8  6  5       21 0.383055456932D-02 0.100000000000D+01
  </mgrwgt>
  </event>
  <event>
  6     66 0.43535451E-03 0.49944628E+02 0.75467711E-02 0.10884712E+00
       -1 -1    0    0    0  503 0.00000000E+00 0.00000000E+00 0.45833144E+02 0.45834261E+02 0.32000000E+00 0.0000E+00 0.9000E+01
        2 -1    0    0  502    0 0.00000000E+00 0.00000000E+00 -.27063177E+04 0.27063177E+04 0.32000000E+00 0.0000E+00 0.9000E+01
       25  1    1    2    0    0 0.40093748E+02 -.20853740E+03 -.12281854E+04 0.12526611E+04 0.12500000E+03 0.0000E+00 0.9000E+01
       24  1    1    2    0    0 -.10790104E+02 0.26503433E+03 -.13886596E+04 0.14160517E+04 0.80419002E+02 0.0000E+00 0.9000E+01
       21  1    1    2  502  501 -.16815203E+02 -.30953746E+02 -.51920434E+01 0.35614677E+02 0.75000000E+00 0.0000E+00 0.9000E+01
       21  1    1    2  501  503 -.12488440E+02 -.25543184E+02 -.38447466E+02 0.47824529E+02 0.75000000E+00 0.0000E+00 0.9000E+01
#aMCatNLO 2  0  0  1  1 0.28432647D+02 0.00000000D+00  -5  6  0 0.00000000D+00 0.00000000D+00 0.00000000D+00 0.00000000D+00 0.00000000D+00
  <mgrwgt>
 0.7319652324D-01    1    2    0
 0.330718930889470D+03 0.000000000000000D+00 0.000000000000000D+00 0.330718930889470D+03
 0.330718930889470D+03 0.000000000000000D+00 0.000000000000000D+00 -.330718930889470D+03
 0.260166562809812D+03 0.352550576957832D+02 -.218434223307739D+03 -.557244237214130D+02
 0.274728209479211D+03 -.160668121545955D+02 0.254241612607313D+03 -.641204576972475D+02
 0.126543089489916D+03 -.191882455411877D+02 -.358073892995745D+02 0.119844881418660D+03
 0.000000000000000D+00 -.000000000000000D+00 -.000000000000000D+00 0.000000000000000D+00
 0.368741335847149D+03 0.000000000000000D+00 0.000000000000000D+00 0.368741335847149D+03
 0.336382771615102D+03 0.000000000000000D+00 0.000000000000000D+00 -.336382771615102D+03
 0.252637043274590D+03 0.400938808126625D+02 -.208537154859328D+03 -.557244237214130D+02
 0.284496778007256D+03 -.107899561323687D+02 0.265034609991783D+03 -.641204576972475D+02
 0.124914863027218D+03 -.168154842362237D+02 -.309542709937922D+02 0.119844881418660D+03
 0.430754231531877D+02 -.124884404440701D+02 -.255431841386624D+02 0.323585642320464D+02
0.107358458110D-02 0.000000000000D+00 0.000000000000D+00 0.100969527216D-04 0.141251437865D-06  6 -1 2 25 24 21 21 4 0.70512727D-02 0.41635266D+00 0.86215957D+05 0.86215957D+05 0.86215957D+05 0.11695355D+01  1  2  1  1  6  1       -1 0.731965232387D-01 0.100000000000D+01
  </mgrwgt>
  </event>
  <event>
  5     66 0.43535451E-03 0.42764475E+02 0.75467711E-02 0.95127035E-01
       -1 -1    0    0    0  501 0.00000000E+00 0.00000000E+00 0.74623280E+02 0.74623967E+02 0.32000000E+00 0.0000E+00 0.9000E+01
        2 -1    0    0  502    0 0.00000000E+00 0.00000000E+00 -.80388658E+03 0.80388665E+03 0.32000000E+00 0.0000E+00 0.9000E+01
       25  1    1    2    0    0 -.46359367E+01 0.15846216E+03 -.19049097E+03 0.27756721E+03 0.12500000E+03 0.0000E+00 0.9000E+01
       24  1    1    2    0    0 0.47075354E+02 -.15320803E+03 -.24249813E+03 0.30159799E+03 0.80419002E+02 0.0000E+00 0.9000E+01
       21  1    1    2  502  501 -.42439418E+02 -.52541356E+01 -.29627420E+03 0.29934541E+03 0.75000000E+00 0.0000E+00 0.9000E+01
#aMCatNLO 1  0  0  1  5 0.26087447D+02 0.00000000D+00  -5  6  0 0.00000000D+00 0.00000000D+00 0.00000000D+00 0.00000000D+00 0.00000000D+00
  <mgrwgt>
 0.4098937533D+00    3    2    0
 0.244926485442809D+03 0.000000000000000D+00 0.000000000000000D+00 0.244926485442809D+03
 0.244926485442809D+03 0.000000000000000D+00 0.000000000000000D+00 -.244926485442809D+03
 0.214202796685914D+03 -.463536769771742D+01 0.158462231145076D+03 0.715965975092284D+02
 0.179874627402952D+03 0.470758320921739D+02 -.153207965914629D+03 0.141014482274606D+02
 0.957755467967510D+02 -.424404643944565D+02 -.525426523044654D+01 -.856980457366890D+02
 0.000000000000000D+00 -.000000000000000D+00 -.000000000000000D+00 -.000000000000000D+00
 0.830344173535812D+03 0.000000000000000D+00 0.000000000000000D+00 0.830344173535812D+03
 0.883652096099650D+03 0.000000000000000D+00 0.000000000000000D+00 -.883652096099650D+03
 0.463963891361499D+03 0.358847011316755D+03 0.256398600193994D+03 0.715965975092284D+02
 0.349069562219494D+03 0.330578244992183D+03 -.768213278296821D+02 0.141014482274606D+02
 0.113134667974172D+03 0.695308004932263D+02 0.249151728332282D+02 -.856980457366890D+02
 0.787828148080297D+03 -.758956056802164D+03 -.204492445197540D+03 -.533079225638374D+02
0.121994150335D-02 0.000000000000D+00 0.000000000000D+00 0.100257738159D-04 0.000000000000D+00  6 -1 2 25 24 21 21 2 0.11480562D-01 0.12367492D+00 0.44937333D+05 0.44937333D+05 0.44937333D+05 0.11969008D+01  1  2  2  1  6  1       -1 0.343341531053D+00 0.100000000000D+01
0.122996040053D-03 0.643780818198D-04 -.468489659084D-05 0.100257738159D-04 0.000000000000D+00  6 -1 2 25 24 21 21 4 0.11480562D-01 0.12367492D+00 0.44937333D+05 0.44937333D+05 0.44937333D+05 0.11969008D+01  1  2  3  1  6  1       -1 0.495900765869D-01 0.100000000000D+01
0.420704480719D-04 0.000000000000D+00 0.000000000000D+00 0.100257738159D-04 0.000000000000D+00  6 -1 2 25 24 21 21 4 0.11480562D-01 0.12367492D+00 0.44937333D+05 0.44937333D+05 0.44937333D+05 0.11969008D+01  1  2 15  1  6  1       -1 0.169621456189D-01 0.100000000000D+01
  </mgrwgt>
  </event>
  <event>
  5     66 0.43535451E-03 0.34741138E+02 0.75467711E-02 0.12318603E+00
       -1 -1    0    0    0  501 0.00000000E+00 0.00000000E+00 0.30650822E+02 0.30652493E+02 0.32000000E+00 0.0000E+00 0.9000E+01
        2 -1    0    0  502    0 0.00000000E+00 0.00000000E+00 -.20457270E+04 0.20457270E+04 0.32000000E+00 0.0000E+00 0.9000E+01
       25  1    1    2    0    0 -.49581065E+02 -.20255149E+02 -.15928889E+04 0.15986834E+04 0.12500000E+03 0.0000E+00 0.9000E+01
       24  1    1    2    0    0 0.21261028E+02 0.13273799E+00 -.43330092E+03 0.44121304E+03 0.80419002E+02 0.0000E+00 0.9000E+01
       21  1    1    2  502  501 0.28320037E+02 0.20122411E+02 0.11113677E+02 0.36483041E+02 0.75000000E+00 0.0000E+00 0.9000E+01
#aMCatNLO 1  0  0  1  5 0.18866592D+00 0.00000000D+00  -5  6  0 0.00000000D+00 0.00000000D+00 0.00000000D+00 0.00000000D+00 0.00000000D+00
  <mgrwgt>
 0.2500219844D+01    9    4    0
 0.250409613452872D+03 0.000000000000000D+00 0.000000000000000D+00 0.250409613452872D+03
 0.250409613452872D+03 0.000000000000000D+00 0.000000000000000D+00 -.250409613452872D+03
 0.219003652191000D+03 -.495811558410820D+02 -.202552138151533D+02 -.171665474023641D+03
 0.858421432726381D+02 0.212609927800808D+02 0.132712736713937D+00 -.212040133136266D+02
 0.195973431442106D+03 0.283201630610012D+02 0.201225010784394D+02 0.192869487337268D+03
 0.000000000000000D+00 -.000000000000000D+00 -.000000000000000D+00 0.000000000000000D+00
 0.322479793642868D+03 0.000000000000000D+00 0.000000000000000D+00 0.322479793642868D+03
 0.250409754694003D+03 0.000000000000000D+00 0.000000000000000D+00 -.250409754694003D+03
 0.218985077985898D+03 -.495229183140716D+02 -.201967811887542D+02 -.171665474023641D+03
 0.858478387450055D+02 0.212838216778954D+02 0.155618112776146D+00 -.212040133136266D+02
 0.195986345711442D+03 0.283722803109125D+02 0.201747929244252D+02 0.192869487337268D+03
 0.720702858945249D+02 -.133183674736291D+00 -.133629848447095D+00 0.720700389488652D+02
 0.250409613452872D+03 0.000000000000000D+00 0.000000000000000D+00 0.250409613452872D+03
 0.250409613452872D+03 0.000000000000000D+00 0.000000000000000D+00 -.250409613452872D+03
 0.219003652191000D+03 -.495811558410820D+02 -.202552138151533D+02 -.171665474023641D+03
 0.858421432726381D+02 0.212609927800808D+02 0.132712736713937D+00 -.212040133136266D+02
 0.000000000000000D+00 -.000000000000000D+00 -.000000000000000D+00 0.000000000000000D+00
 0.195973431442106D+03 0.283201630610012D+02 0.201225010784394D+02 0.192869487337268D+03
 0.322479793642868D+03 0.000000000000000D+00 0.000000000000000D+00 0.322479793642868D+03
 0.250409754694003D+03 0.000000000000000D+00 0.000000000000000D+00 -.250409754694003D+03
 0.218985077985898D+03 -.495229183140716D+02 -.201967811887542D+02 -.171665474023641D+03
 0.858478387450055D+02 0.212838216778954D+02 0.155618112776146D+00 -.212040133136266D+02
 0.720702858945249D+02 -.133183674736291D+00 -.133629848447095D+00 0.720700389488652D+02
 0.195986345711442D+03 0.283722803109125D+02 0.201747929244252D+02 0.192869487337268D+03
0.178803024458D-05 0.000000000000D+00 0.000000000000D+00 0.401826334733D-04 0.000000000000D+00  6 -1 2 25 24 21 21 2 0.47156415D-02 0.31472736D+00 0.16118117D+05 0.16118117D+05 0.16118117D+05 0.12442787D+01  1  2  2  1  6  1       -1 0.432271564778D-03 0.100000000000D+01
0.227854325660D-06 0.943569483173D-07 -.686650693837D-08 0.401826334733D-04 0.000000000000D+00  6 -1 2 25 24 21 21 4 0.47156415D-02 0.31472736D+00 0.16118117D+05 0.16118117D+05 0.16118117D+05 0.12442787D+01  1  2  3  1  6  1       -1 0.852853478391D-04 0.100000000000D+01
0.944406194175D-07 0.000000000000D+00 0.000000000000D+00 0.401826334733D-04 0.000000000000D+00  6 -1 2 25 24 21 21 4 0.47156415D-02 0.31472736D+00 0.16118117D+05 0.16118117D+05 0.16118117D+05 0.12442787D+01  1  2 15  1  6  1       -1 0.353489057266D-04 0.100000000000D+01
-.336383183249D+00 0.000000000000D+00 0.000000000000D+00 0.401826334733D-04 0.000000000000D+00  6 -1 2 25 24 21 21 4 0.47156415D-02 0.31472736D+00 0.16118117D+05 0.16118117D+05 0.16118117D+05 0.12442787D+01  1  2  4  1  6  1       -1 -.125907448575D+03 0.100000000000D+01
-.360055104651D+00 0.000000000000D+00 -.158878052837D-05 0.401826334733D-04 0.000000000000D+00  6 -1 2 25 24 21 21 4 0.60728479D-02 0.31472736D+00 0.16118117D+05 0.16118117D+05 0.16118117D+05 0.12442787D+01  1  2  5  1  6  1       -1 -.926733573226D+02 0.100000000000D+01
0.348836646044D+00 0.000000000000D+00 0.153927598544D-05 0.401826334733D-04 0.000000000000D+00  6 -1 2 25 24 21 21 4 0.47156415D-02 0.31472736D+00 0.16118117D+05 0.16118117D+05 0.16118117D+05 0.12442787D+01  1  2  6  1  6  1       -1 0.130568750936D+03 0.100000000000D+01
0.348699126034D+00 0.000000000000D+00 0.000000000000D+00 0.401826334733D-04 0.465757884108D-02  6 -1 2 25 24 21 21 4 0.60728464D-02 0.31472754D+00 0.16148271D+05 0.16148271D+05 0.16148271D+05 0.12441870D+01  1  2 11  1  6  1       -1 0.897215804885D+02 0.100000000000D+01
-.122909577828D-01 0.000000000000D+00 -.542352469628D-07 0.401826334733D-04 0.000000000000D+00  6 21 2 25 24 1 21 4 0.60728479D-02 0.31472736D+00 0.16118117D+05 0.16118117D+05 0.16118117D+05 0.12442787D+01  3  4  5  4  5  1       -1 -.532816314733D+02 0.100000000000D+01
0.124775898031D-01 0.000000000000D+00 0.000000000000D+00 0.401826334733D-04 0.333326663163D-03  6 21 2 25 24 1 21 4 0.60728464D-02 0.31472754D+00 0.16148271D+05 0.16148271D+05 0.16148271D+05 0.12441870D+01  3  4 11  4  5  1       -1 0.540717728835D+02 0.100000000000D+01
  </mgrwgt>
  </event>
  <event>
  5     66 0.43535451E-03 0.31138811E+02 0.75467711E-02 0.11489472E+00
       -1 -1    0    0    0  501 0.00000000E+00 0.00000000E+00 0.41869515E+03 0.41869528E+03 0.32000000E+00 0.0000E+00 0.9000E+01
        2 -1    0    0  502    0 0.00000000E+00 0.00000000E+00 -.11042009E+03 0.11042055E+03 0.32000000E+00 0.0000E+00 0.9000E+01
       25  1    1    2    0    0 -.10137207E+03 -.12553211E+03 0.17123757E+03 0.26642431E+03 0.12500000E+03 0.0000E+00 0.9000E+01
       24  1    1    2    0    0 0.10134999E+03 0.94396037E+02 0.46233735E+02 0.16669495E+03 0.80419002E+02 0.0000E+00 0.9000E+01
       21  1    1    2  502  501 0.22077170E-01 0.31136072E+02 0.90803762E+02 0.95996569E+02 0.75000000E+00 0.0000E+00 0.9000E+01
#aMCatNLO 1  0  0  2  5 0.63219191D+01 0.00000000D+00  -5  6  0 0.00000000D+00 0.00000000D+00 0.00000000D+00 0.00000000D+00 0.00000000D+00
  <mgrwgt>
 0.5753852521D-01   11    4    0
 0.215017464571198D+03 0.000000000000000D+00 0.000000000000000D+00 0.215017464571198D+03
 0.215017464571198D+03 0.000000000000000D+00 0.000000000000000D+00 -.215017464571198D+03
 0.205056252183706D+03 -.101372066781671D+03 -.125533595141124D+03 0.196999270806890D+02
 0.171958596454717D+03 0.101349987675304D+03 0.943947916697025D+02 -.626126683998932D+02
 0.530200805039719D+02 0.220791063672798D-01 0.311388034714211D+02 0.429127413192042D+02
 0.000000000000000D+00 0.000000000000000D+00 -.000000000000000D+00 -.000000000000000D+00
 0.215393309137692D+03 0.000000000000000D+00 0.000000000000000D+00 0.215393309137692D+03
 0.243376902460970D+03 0.000000000000000D+00 0.000000000000000D+00 -.243376902460970D+03
 0.205495925599158D+03 -.104016802053493D+03 -.124080591558208D+03 0.196999270806890D+02
 0.171339523740488D+03 0.991384961856390D+02 0.956097734080670D+02 -.626126683998932D+02
 0.532459463795676D+02 -.662475804565063D+00 0.315148943221331D+02 0.429127413192042D+02
 0.286888158794488D+02 0.554078167241894D+01 -.304407617199265D+01 -.279835933232780D+02
 0.215017464571198D+03 0.000000000000000D+00 0.000000000000000D+00 0.215017464571198D+03
 0.215017464571198D+03 0.000000000000000D+00 0.000000000000000D+00 -.215017464571198D+03
 0.205056252183706D+03 -.101372066781671D+03 -.125533595141124D+03 0.196999270806890D+02
 0.171958596454717D+03 0.101349987675304D+03 0.943947916697025D+02 -.626126683998932D+02
 0.000000000000000D+00 0.000000000000000D+00 -.000000000000000D+00 -.000000000000000D+00
 0.530200805039719D+02 0.220791063672798D-01 0.311388034714211D+02 0.429127413192042D+02
 0.215393309137692D+03 0.000000000000000D+00 0.000000000000000D+00 0.215393309137692D+03
 0.243376902460970D+03 0.000000000000000D+00 0.000000000000000D+00 -.243376902460970D+03
 0.205495925599158D+03 -.104016802053493D+03 -.124080591558208D+03 0.196999270806890D+02
 0.171339523740488D+03 0.991384961856390D+02 0.956097734080670D+02 -.626126683998932D+02
 0.286888158794488D+02 0.554078167241894D+01 -.304407617199265D+01 -.279835933232780D+02
 0.532459463795676D+02 -.662475804565063D+00 0.315148943221331D+02 0.429127413192042D+02
0.113454046304D-03 0.000000000000D+00 0.000000000000D+00 0.172913041539D-04 0.000000000000D+00  6 -1 2 25 24 21 21 2 0.64414684D-01 0.16987751D-01 0.39085471D+05 0.39085471D+05 0.39085471D+05 0.12030216D+01  1  2  2  2  6  2        2 0.158428994115D-01 0.100000000000D+01
0.184546413002D-04 0.598713451068D-05 -.435693410942D-06 0.172913041539D-04 0.000000000000D+00  6 -1 2 25 24 21 21 4 0.64414684D-01 0.16987751D-01 0.39085471D+05 0.39085471D+05 0.39085471D+05 0.12030216D+01  1  2  3  2  6  2        2 0.372964205919D-02 0.100000000000D+01
0.301251954551D-05 0.000000000000D+00 0.000000000000D+00 0.172913041539D-04 0.000000000000D+00  6 -1 2 25 24 21 21 4 0.64414684D-01 0.16987751D-01 0.39085471D+05 0.39085471D+05 0.39085471D+05 0.12030216D+01  1  2 15  2  6  2        2 0.608823515901D-03 0.100000000000D+01
0.965656676292D-02 0.000000000000D+00 0.000000000000D+00 0.172500680511D-04 0.000000000000D+00  6 -1 2 25 24 21 21 4 0.64414684D-01 0.19296667D-01 0.40377427D+05 0.40377427D+05 0.40377427D+05 0.12015863D+01  1  2 12  2  6  2        2 0.167631397590D+01 0.100000000000D+01
-.108543175988D-01 0.000000000000D+00 0.000000000000D+00 0.172913041539D-04 0.000000000000D+00  6 -1 2 25 24 21 21 4 0.64414684D-01 0.16987751D-01 0.39085471D+05 0.39085471D+05 0.39085471D+05 0.12030216D+01  1  2  4  2  6  2        2 -.219363350290D+01 0.100000000000D+01
-.124673914986D-01 0.000000000000D+00 -.316823033590D-03 0.172913041539D-04 0.000000000000D+00  6 -1 2 25 24 21 21 4 0.64414684D-01 0.19247260D-01 0.39085471D+05 0.39085471D+05 0.39085471D+05 0.12030216D+01  1  2  5  2  6  2        2 -.218071232363D+01 0.100000000000D+01
0.124125030018D-01 0.000000000000D+00 0.314368704928D-03 0.172913041539D-04 0.000000000000D+00  6 -1 2 25 24 21 21 4 0.64414684D-01 0.16987751D-01 0.39085471D+05 0.39085471D+05 0.39085471D+05 0.12030216D+01  1  2  6  2  6  2        2 0.250853931552D+01 0.100000000000D+01
0.146773763006D-02 0.000000000000D+00 0.000000000000D+00 0.172913041539D-04 0.160374246384D-05  6 -1 2 25 24 21 21 4 0.64527279D-01 0.19228327D-01 0.40377427D+05 0.40377427D+05 0.40377427D+05 0.12015863D+01  1  2 11  2  6  2        2 0.254959123585D+00 0.100000000000D+01
0.192679736818D-03 0.000000000000D+00 0.000000000000D+00 0.172500680511D-04 0.000000000000D+00  6 -1 21 25 24 -2 21 4 0.64414684D-01 0.19296667D-01 0.40377427D+05 0.40377427D+05 0.40377427D+05 0.12015863D+01  3  4 12  5  5  2        2 0.232787483463D+00 0.100000000000D+01
-.243007239853D-03 0.000000000000D+00 -.621539511218D-05 0.172913041539D-04 0.000000000000D+00  6 -1 21 25 24 -2 21 4 0.64414684D-01 0.19247260D-01 0.39085471D+05 0.39085471D+05 0.39085471D+05 0.12030216D+01  3  4  5  5  5  2        2 -.296601402626D+00 0.100000000000D+01
0.294583107367D-04 0.000000000000D+00 0.000000000000D+00 0.172913041539D-04 0.642726705954D-07  6 -1 21 25 24 -2 21 4 0.64527279D-01 0.19228327D-01 0.40377427D+05 0.40377427D+05 0.40377427D+05 0.12015863D+01  3  4 11  5  5  2        2 0.357044909208D-01 0.100000000000D+01
  </mgrwgt>
  </event>
  <event>
  6     66 0.43535451E-03 0.21884081E+02 0.75467711E-02 0.11760303E+00
       -1 -1    0    0    0  501 0.00000000E+00 0.00000000E+00 0.69221692E+02 0.69222431E+02 0.32000000E+00 0.0000E+00 0.9000E+01
        2 -1    0    0  503    0 0.00000000E+00 0.00000000E+00 -.46184958E+03 0.46184969E+03 0.32000000E+00 0.0000E+00 0.9000E+01
       25  1    1    2    0    0 0.82303881E+02 -.15030796E+02 -.13318846E+03 0.20090799E+03 0.12500000E+03 0.0000E+00 0.9000E+01
       24  1    1    2    0    0 -.11452253E+03 -.24294710E+01 -.19586983E+03 0.24073537E+03 0.80419002E+02 0.0000E+00 0.9000E+01
       21  1    1    2  502  501 0.14709704E+02 0.28750114E+02 -.13164505E+02 0.34882820E+02 0.75000000E+00 0.0000E+00 0.9000E+01
       21  1    1    2  503  502 0.17508949E+02 -.11289847E+02 -.50405093E+02 0.54545942E+02 0.75000000E+00 0.0000E+00 0.9000E+01
#aMCatNLO 2  0  0  2  2 0.20833241D+02 0.00000000D+00  -5  6  0 0.00000000D+00 0.00000000D+00 0.00000000D+00 0.00000000D+00 0.00000000D+00
  <mgrwgt>
 0.1887363614D+00    1    2    0
 0.165474118147807D+03 0.000000000000000D+00 0.000000000000000D+00 0.165474118147807D+03
 0.165474118147807D+03 0.000000000000000D+00 0.000000000000000D+00 -.165474118147807D+03
 0.156424100222665D+03 0.904332190313873D+02 -.202764639130042D+02 0.159435578612809D+02
 0.138113398926446D+03 -.107073971362448D+03 -.723572297621547D+01 -.330288355581941D+02
 0.364107371465027D+02 0.166407523310611D+02 0.275121868892197D+02 0.170852776969132D+02
 0.000000000000000D+00 0.000000000000000D+00 -.000000000000000D+00 -.000000000000000D+00
 0.170908424797919D+03 0.000000000000000D+00 0.000000000000000D+00 0.170908424797919D+03
 0.187049148479686D+03 0.000000000000000D+00 0.000000000000000D+00 -.187049148479686D+03
 0.151257616887249D+03 0.823022541490786D+02 -.150335821118664D+02 0.159435578612809D+02
 0.143804735259655D+03 -.114524093749585D+03 -.243185140068398D+01 -.330288355581941D+02
 0.365409636305341D+02 0.147128908945921D+02 0.287552803949328D+02 0.170852776969132D+02
 0.263542575001672D+02 0.175089487059144D+02 -.112898468823824D+02 -.161407236817666D+02
0.206370350780D-03 0.000000000000D+00 0.000000000000D+00 0.186053093132D-04 0.148227315406D-06  6 -1 2 25 24 21 21 4 0.10649230D-01 0.71051669D-01 0.29499656D+05 0.29499656D+05 0.29499656D+05 0.12156658D+01  1  2  1  2  6  2        2 0.188736361350D+00 0.100000000000D+01
  </mgrwgt>
  </event>
  <event>
  6     66 0.43535451E-03 0.45614502E+02 0.75467711E-02 0.11091550E+00
       -1 -1    0    0    0  503 0.00000000E+00 0.00000000E+00 0.71840222E+02 0.71840935E+02 0.32000000E+00 0.0000E+00 0.9000E+01
        2 -1    0    0  502    0 0.00000000E+00 0.00000000E+00 -.15436335E+04 0.15436336E+04 0.32000000E+00 0.0000E+00 0.9000E+01
       25  1    1    2    0    0 -.18041659E+03 0.43085752E+02 -.52548071E+03 0.57110551E+03 0.12500000E+03 0.0000E+00 0.9000E+01
       24  1    1    2    0    0 0.18075606E+03 -.79060828E+01 -.80767420E+03 0.83158890E+03 0.80419002E+02 0.0000E+00 0.9000E+01
       21  1    1    2  502  501 -.21369252E+02 0.22050281E+02 -.14794331E+03 0.15109813E+03 0.75000000E+00 0.0000E+00 0.9000E+01
       21  1    1    2  501  503 0.21029780E+02 -.57229950E+02 0.93049259E+01 0.61681950E+02 0.75000000E+00 0.0000E+00 0.9000E+01
#aMCatNLO 2  0  0  1  5 0.19497788D+02 0.00000000D+00  -5  6  0 0.00000000D+00 0.00000000D+00 0.00000000D+00 0.00000000D+00 0.00000000D+00
  <mgrwgt>
 0.2489001316D+00    1    2    0
 0.232863577955743D+03 0.000000000000000D+00 0.000000000000000D+00 0.232863577955743D+03
 0.232863577955743D+03 0.000000000000000D+00 0.000000000000000D+00 -.232863577955743D+03
 0.220794763336292D+03 -.170228340401119D+03 0.153650729029591D+02 0.625424190105966D+02
 0.214990039745166D+03 0.190180914210426D+03 -.335494365358346D+02 -.495898821683659D+02
 0.299423528300273D+02 -.199525738093072D+02 0.181843636328755D+02 -.129525368422308D+02
 0.000000000000000D+00 0.000000000000000D+00 -.000000000000000D+00 0.000000000000000D+00
 0.464183985722769D+03 0.000000000000000D+00 0.000000000000000D+00 0.464183985722769D+03
 0.238903173083291D+03 0.000000000000000D+00 0.000000000000000D+00 -.238903173083291D+03
 0.232253564999411D+03 -.180413520026917D+03 0.430827816039718D+02 0.625424190105966D+02
 0.204114367340647D+03 0.180758842874650D+03 -.790843281866061D+01 -.495898821683659D+02
 0.333333584710743D+02 -.213751030302391D+02 0.220556012558819D+02 -.129525368422308D+02
 0.233385867994927D+03 0.210297801825067D+02 -.572299500411931D+02 0.225280812639478D+03
0.166306859170D-02 0.000000000000D+00 0.000000000000D+00 0.207510550915D-04 0.193550835447D-07  6 -1 2 25 24 21 21 4 0.11052372D-01 0.23748155D+00 0.65884211D+05 0.65884211D+05 0.65884211D+05 0.11805953D+01  1  2  1  1  6  1       -1 0.248900131646D+00 0.100000000000D+01
  </mgrwgt>
  </event>
  <event>
  5     66 0.43535451E-03 0.31802625E+02 0.75467711E-02 0.11198632E+00
       -3 -1    0    0    0  501 0.00000000E+00 0.00000000E+00 0.36807326E+03 0.36807359E+03 0.50000000E+00 0.0000E+00 0.9000E+01
        4 -1    0    0  502    0 0.00000000E+00 0.00000000E+00 -.62007712E+02 0.62027082E+02 0.15500000E+01 0.0000E+00 0.9000E+01
       25  1    1    2    0    0 0.43102410E+02 -.67370393E+02 0.13778437E+03 0.20249968E+03 0.12500000E+03 0.0000E+00 0.9000E+01
       24  1    1    2    0    0 -.13005505E+02 0.77630707E+02 0.93387128E+02 0.14623283E+03 0.80419002E+02 0.0000E+00 0.9000E+01
       21  1    1    2  502  501 -.30096905E+02 -.10260314E+02 0.74894042E+02 0.81368162E+02 0.75000000E+00 0.0000E+00 0.9000E+01
#aMCatNLO 1  0  0  1  5 0.51119066D+01 0.00000000D+00  -5  6  0 0.00000000D+00 0.00000000D+00 0.00000000D+00 0.00000000D+00 0.00000000D+00
  <mgrwgt>
 0.2263239482D-01    5    4    0
 0.151088116303836D+03 0.000000000000000D+00 0.000000000000000D+00 0.151088116303836D+03
 0.151088116303836D+03 0.000000000000000D+00 0.000000000000000D+00 -.151088116303836D+03
 0.148669357219526D+03 0.431050190445124D+02 -.673695035229762D+02 -.899361464079152D+01
 0.113550937967258D+03 -.130035119850383D+02 0.776313868247260D+02 -.151946047858543D+02
 0.399559374208873D+02 -.301015070594741D+02 -.102618833017497D+02 0.241882194266458D+02
 0.000000000000000D+00 0.000000000000000D+00 0.000000000000000D+00 0.000000000000000D+00
 0.322483874613455D+03 0.000000000000000D+00 0.000000000000000D+00 0.322483874613455D+03
 0.204569857753820D+03 0.000000000000000D+00 0.000000000000000D+00 -.204569857753820D+03
 0.148589594987959D+03 -.257565107112602D+02 -.755617945152135D+02 -.899361464079152D+01
 0.128468185722096D+03 -.690684579307799D+02 0.709614747086207D+02 -.151946047858543D+02
 0.599025472131639D+02 -.532342267300810D+02 -.130139274642246D+02 0.241882194266458D+02
 0.190093404444057D+03 0.148059195372121D+03 0.176142472708174D+02 0.117914016859635D+03
 0.151088116303836D+03 0.000000000000000D+00 0.000000000000000D+00 0.151088116303836D+03
 0.151088116303836D+03 0.000000000000000D+00 0.000000000000000D+00 -.151088116303836D+03
 0.148669357219526D+03 0.431050190445124D+02 -.673695035229762D+02 -.899361464079152D+01
 0.113550937967258D+03 -.130035119850383D+02 0.776313868247260D+02 -.151946047858543D+02
 0.000000000000000D+00 0.000000000000000D+00 0.000000000000000D+00 0.000000000000000D+00
 0.399559374208873D+02 -.301015070594741D+02 -.102618833017497D+02 0.241882194266458D+02
 0.322483874613455D+03 0.000000000000000D+00 0.000000000000000D+00 0.322483874613455D+03
 0.204569857753820D+03 0.000000000000000D+00 0.000000000000000D+00 -.204569857753820D+03
 0.148589594987959D+03 -.257565107112602D+02 -.755617945152135D+02 -.899361464079152D+01
 0.128468185722096D+03 -.690684579307799D+02 0.709614747086207D+02 -.151946047858543D+02
 0.190093404444057D+03 0.148059195372121D+03 0.176142472708174D+02 0.117914016859635D+03
 0.599025472131639D+02 -.532342267300810D+02 -.130139274642246D+02 0.241882194266458D+02
0.264031989025D-03 0.000000000000D+00 0.000000000000D+00 0.216310960301D-04 0.000000000000D+00  6 -3 4 25 24 21 21 2 0.56628171D-01 0.95411641D-02 0.21422630D+05 0.21422630D+05 0.21422630D+05 0.12305541D+01  1  2  2  1  6  1       -3 0.202849684520D-01 0.100000000000D+01
0.283628309859D-04 0.139333508580D-04 -.101395235907D-05 0.216310960301D-04 0.000000000000D+00  6 -3 4 25 24 21 21 4 0.56628171D-01 0.95411641D-02 0.21422630D+05 0.21422630D+05 0.21422630D+05 0.12305541D+01  1  2  3  1  6  1       -3 0.329965684973D-02 0.100000000000D+01
0.625559635588D-05 0.000000000000D+00 0.000000000000D+00 0.216310960301D-04 0.000000000000D+00  6 -3 4 25 24 21 21 4 0.56628171D-01 0.95411641D-02 0.21422630D+05 0.21422630D+05 0.21422630D+05 0.12305541D+01  1  2 15  1  6  1       -3 0.727759558807D-03 0.100000000000D+01
-.858305594113D-04 0.000000000000D+00 -.117035045009D-03 0.216310960301D-04 0.000000000000D+00  6 -3 4 25 24 21 21 4 0.14990327D+00 0.95411641D-02 0.21422630D+05 0.21422630D+05 0.21422630D+05 0.12305541D+01  1  2  5  1  6  1       -3 -.112191092231D-02 0.100000000000D+01
-.234258367371D-05 0.000000000000D+00 -.126633073117D-04 0.216310960301D-04 0.000000000000D+00  6 21 4 25 24 3 21 4 0.14990327D+00 0.95411641D-02 0.21422630D+05 0.21422630D+05 0.21422630D+05 0.12305541D+01  3  4  5  4  5  1       -3 -.558079118911D-03 0.100000000000D+01
  </mgrwgt>
  </event>
  <event>
  5     66 0.43535451E-03 0.53476961E+02 0.75467711E-02 0.11670561E+00
       -1 -1    0    0    0  501 0.00000000E+00 0.00000000E+00 0.13665090E+02 0.13668836E+02 0.32000000E+00 0.0000E+00 0.9000E+01
        2 -1    0    0  502    0 0.00000000E+00 0.00000000E+00 -.28512623E+04 0.28512623E+04 0.32000000E+00 0.0000E+00 0.9000E+01
       25  1    1    2    0    0 0.91691483E+01 -.59413391E+02 -.11881022E+04 0.11961714E+04 0.12500000E+03 0.0000E+00 0.9000E+01
       24  1    1    2    0    0 -.57390959E+02 0.36297066E+02 -.15664590E+04 0.15699912E+04 0.80419002E+02 0.0000E+00 0.9000E+01
       21  1    1    2  502  501 0.48221810E+02 0.23116325E+02 -.83035976E+02 0.98768635E+02 0.75000000E+00 0.0000E+00 0.9000E+01
#aMCatNLO 1  0  0  1  5 0.53457428D+02 0.00000000D+00  -5  6  0 0.00000000D+00 0.00000000D+00 0.00000000D+00 0.00000000D+00 0.00000000D+00
  <mgrwgt>
 0.1279946782D+00    4    2    0
 0.197403517379901D+03 0.000000000000000D+00 0.000000000000000D+00 0.197403517379901D+03
 0.197403517379901D+03 0.000000000000000D+00 0.000000000000000D+00 -.197403517379901D+03
 0.140810825478136D+03 0.916881192371461D+01 -.594135523276515D+02 -.242621363352649D+02
 0.134083439368480D+03 -.573912789912483D+02 0.362969126266049D+02 -.830658051669619D+02
 0.119912769913186D+03 0.482224670675337D+02 0.231166397010467D+02 0.107327941502227D+03
 0.000000000000000D+00 -.000000000000000D+00 -.000000000000000D+00 -.000000000000000D+00
 0.208230836114911D+03 0.000000000000000D+00 0.000000000000000D+00 0.208230836114911D+03
 0.278356786001016D+03 0.000000000000000D+00 0.000000000000000D+00 -.278356786001016D+03
 0.134565446873656D+03 0.135145958422977D+02 -.413710518596637D+02 -.242621363352649D+02
 0.138265299323985D+03 -.530932733615399D+02 0.541410507702039D+02 -.830658051669619D+02
 0.125578956620959D+03 0.520966352673066D+02 0.392011213197865D+02 0.107327941502227D+03
 0.881779192973272D+02 -.125179577480644D+02 -.519711202303266D+02 -.701259498861053D+02
0.457555125201D-03 0.000000000000D+00 0.000000000000D+00 0.101539066418D-04 0.000000000000D+00  6 -1 2 25 24 21 21 2 0.21026111D-02 0.43865603D+00 0.22117042D+05 0.22117042D+05 0.22117042D+05 0.12290442D+01  1  2  2  1  6  1       -1 0.129970684032D+00 0.100000000000D+01
0.260538495984D-05 0.241458473266D-04 -.175713215780D-05 0.101539066418D-04 0.000000000000D+00  6 -1 2 25 24 21 21 4 0.21026111D-02 0.43865603D+00 0.22117042D+05 0.22117042D+05 0.22117042D+05 0.12290442D+01  1  2  3  1  6  1       -1 0.111791524982D-02 0.100000000000D+01
0.253867447160D-04 0.000000000000D+00 0.000000000000D+00 0.101539066418D-04 0.000000000000D+00  6 -1 2 25 24 21 21 4 0.21026111D-02 0.43865603D+00 0.22117042D+05 0.22117042D+05 0.22117042D+05 0.12290442D+01  1  2 15  1  6  1       -1 0.108929119875D-01 0.100000000000D+01
-.325973588788D-04 0.000000000000D+00 0.000000000000D+00 0.101539066418D-04 0.000000000000D+00  6 -1 2 25 24 21 21 4 0.21026111D-02 0.43865603D+00 0.22117042D+05 0.22117042D+05 0.22117042D+05 0.12290442D+01  1  2  4  1  6  1       -1 -.139868330999D-01 0.100000000000D+01
  </mgrwgt>
  </event>
  <event>
  5     66 0.43535451E-03 0.25575617E+02 0.75467711E-02 0.11921723E+00
       -1 -1    0    0    0  501 0.00000000E+00 0.00000000E+00 0.10938993E+04 0.10938993E+04 0.32000000E+00 0.0000E+00 0.9000E+01
        2 -1    0    0  502    0 0.00000000E+00 0.00000000E+00 -.34095783E+02 0.34097285E+02 0.32000000E+00 0.0000E+00 0.9000E+01
       25  1    1    2    0    0 -.40340175E+02 -.63109765E+02 0.80394572E+03 0.81704583E+03 0.12500000E+03 0.0000E+00 0.9000E+01
       24  1    1    2    0    0 0.46893400E+02 0.38392567E+02 0.68346034E+02 0.12170200E+03 0.80419002E+02 0.0000E+00 0.9000E+01
       21  1    1    2  502  501 -.65532250E+01 0.24717199E+02 0.18751177E+03 0.18924880E+03 0.75000000E+00 0.0000E+00 0.9000E+01
#aMCatNLO 1  0  0  1  5 0.21090507D+01 0.00000000D+00  -5  6  0 0.00000000D+00 0.00000000D+00 0.00000000D+00 0.00000000D+00 0.00000000D+00
  <mgrwgt>
 0.2659764919D+00    7    4    0
 0.193127487496603D+03 0.000000000000000D+00 0.000000000000000D+00 0.193127487496603D+03
 0.193127487496603D+03 0.000000000000000D+00 0.000000000000000D+00 -.193127487496603D+03
 0.180192153325451D+03 -.403395844278332D+02 -.631119911378964D+02 0.105989653376463D+03
 0.167885702300404D+03 0.468939493426385D+02 0.383904929679201D+02 -.134333616966341D+03
 0.381771193673500D+02 -.655436491480528D+01 0.247214981699763D+02 0.283439635898778D+02
 0.000000000000000D+00 0.000000000000000D+00 -.000000000000000D+00 0.000000000000000D+00
 0.222579526243856D+03 0.000000000000000D+00 0.000000000000000D+00 0.222579526243856D+03
 0.207759591432751D+03 0.000000000000000D+00 0.000000000000000D+00 -.207759591432751D+03
 0.180926094738981D+03 -.555476276095251D+02 -.528195626788931D+02 0.105989653376463D+03
 0.166990276916022D+03 0.327910664788346D+02 0.479349761869148D+02 -.134333616966341D+03
 0.403414205322705D+02 -.986107497932623D+01 0.269593979685987D+02 0.283439635898778D+02
 0.420813254893332D+02 0.326176361100168D+02 -.220748114766204D+02 0.148199348111049D+02
 0.193127487496603D+03 0.000000000000000D+00 0.000000000000000D+00 0.193127487496603D+03
 0.193127487496603D+03 0.000000000000000D+00 0.000000000000000D+00 -.193127487496603D+03
 0.180192153325451D+03 -.403395844278332D+02 -.631119911378964D+02 0.105989653376463D+03
 0.167885702300404D+03 0.468939493426385D+02 0.383904929679201D+02 -.134333616966341D+03
 0.000000000000000D+00 0.000000000000000D+00 -.000000000000000D+00 0.000000000000000D+00
 0.381771193673500D+02 -.655436491480528D+01 0.247214981699763D+02 0.283439635898778D+02
 0.222579526243856D+03 0.000000000000000D+00 0.000000000000000D+00 0.222579526243856D+03
 0.207759591432751D+03 0.000000000000000D+00 0.000000000000000D+00 -.207759591432751D+03
 0.180926094738981D+03 -.555476276095251D+02 -.528195626788931D+02 0.105989653376463D+03
 0.166990276916022D+03 0.327910664788346D+02 0.479349761869148D+02 -.134333616966341D+03
 0.420813254893332D+02 0.326176361100168D+02 -.220748114766204D+02 0.148199348111049D+02
 0.403414205322705D+02 -.986107497932623D+01 0.269593979685987D+02 0.283439635898778D+02
0.144373883345D-02 0.000000000000D+00 0.000000000000D+00 0.157805054337D-04 0.000000000000D+00  6 -1 2 25 24 21 21 2 0.16829232D+00 0.52456242D-02 0.18495640D+05 0.18495640D+05 0.18495640D+05 0.12375824D+01  1  2  2  1  6  1       -1 0.102563154008D+00 0.100000000000D+01
0.149738339928D-03 0.761881913934D-04 -.554433726560D-05 0.157805054337D-04 0.000000000000D+00  6 -1 2 25 24 21 21 4 0.16829232D+00 0.52456242D-02 0.18495640D+05 0.18495640D+05 0.18495640D+05 0.12375824D+01  1  2  3  1  6  1       -1 0.162923604669D-01 0.100000000000D+01
0.466181231544D-04 0.000000000000D+00 0.000000000000D+00 0.157805054337D-04 0.000000000000D+00  6 -1 2 25 24 21 21 4 0.16829232D+00 0.52456242D-02 0.18495640D+05 0.18495640D+05 0.18495640D+05 0.12375824D+01  1  2 15  1  6  1       -1 0.507230991800D-02 0.100000000000D+01
-.289171382446D-03 0.000000000000D+00 0.000000000000D+00 0.157805054337D-04 0.000000000000D+00  6 -1 2 25 24 21 21 4 0.16829232D+00 0.52456242D-02 0.18495640D+05 0.18495640D+05 0.18495640D+05 0.12375824D+01  1  2  4  1  6  1       -1 -.314634475164D-01 0.100000000000D+01
-.476878593787D-02 0.000000000000D+00 -.139225512880D-02 0.157805054337D-04 0.000000000000D+00  6 -1 2 25 24 21 21 4 0.20266614D+00 0.52456242D-02 0.18495640D+05 0.18495640D+05 0.18495640D+05 0.12375824D+01  1  2  5  1  6  1       -1 -.303133223426D+00 0.100000000000D+01
0.496524760280D-02 0.000000000000D+00 0.136855008550D-02 0.157805054337D-04 0.000000000000D+00  6 -1 2 25 24 21 21 4 0.16829232D+00 0.52456242D-02 0.18495640D+05 0.18495640D+05 0.18495640D+05 0.12375824D+01  1  2  6  1  6  1       -1 0.540246431149D+00 0.100000000000D+01
-.114830506924D-03 0.000000000000D+00 -.376480044423D-04 0.157805054337D-04 0.000000000000D+00  6 21 2 25 24 1 21 4 0.20266614D+00 0.52456242D-02 0.18495640D+05 0.18495640D+05 0.18495640D+05 0.12375824D+01  3  4  5  4  5  1       -1 -.636010926927D-01 0.100000000000D+01
  </mgrwgt>
  </event>
  <event>
  5     66 0.43535451E-03 0.60339681E+02 0.75467711E-02 0.11744201E+00
       -1 -1    0    0    0  501 0.00000000E+00 0.00000000E+00 0.71968216E+03 0.71968223E+03 0.32000000E+00 0.0000E+00 0.9000E+01
        2 -1    0    0  502    0 0.00000000E+00 0.00000000E+00 -.68566113E+02 0.68566859E+02 0.32000000E+00 0.0000E+00 0.9000E+01
       25  1    1    2    0    0 -.66101949E+02 -.22307809E+02 0.18309398E+03 0.23241237E+03 0.12500000E+03 0.0000E+00 0.9000E+01
       24  1    1    2    0    0 0.11779356E+03 -.88168390E+01 0.47411914E+03 0.49518606E+03 0.80419002E+02 0.0000E+00 0.9000E+01
       21  1    1    2  502  501 -.51691606E+02 0.31124648E+02 -.60970691E+01 0.60650660E+02 0.75000000E+00 0.0000E+00 0.9000E+01
#aMCatNLO 1  0  0  5  2 0.43693891D+01 0.00000000D+00  -5  6  0 0.00000000D+00 0.00000000D+00 0.00000000D+00 0.00000000D+00 0.00000000D+00
  <mgrwgt>
 0.1154261038D+00   25    2    0
 0.222139888721020D+03 0.000000000000000D+00 0.000000000000000D+00 0.222139888721020D+03
 0.222139888721020D+03 -.000000000000000D+00 -.000000000000000D+00 -.222139888721020D+03
 0.144015838621243D+03 -.661016020560342D+02 -.223080176067774D+02 -.157636394865269D+02
 0.183721506510200D+03 0.117793997889760D+03 -.881710548241870D+01 0.115469514210747D+03
 0.116542432310597D+03 -.516923958337255D+02 0.311251230891961D+02 -.997058747242205D+02
 0.000000000000000D+00 -.000000000000000D+00 0.000000000000000D+00 0.000000000000000D+00
 0.222139888721020D+03 0.000000000000000D+00 0.000000000000000D+00 0.222139888721020D+03
 0.222139888721020D+03 -.000000000000000D+00 -.000000000000000D+00 -.222139888721020D+03
 0.144043092948688D+03 -.661487856301410D+02 -.222796073439491D+02 -.158546486079471D+02
 0.183608265778653D+03 0.117733829883727D+03 -.878087700889586D+01 0.115353460319742D+03
 0.570208718059093D+02 -.215335354725617D+02 0.171424210610826D+02 -.499382025279487D+02
 0.596075469087887D+02 -.300515087810245D+02 0.139180632917623D+02 -.495606091838463D+02
0.109209860800D-03 0.000000000000D+00 0.000000000000D+00 0.518813843876D-05 0.000000000000D+00  6 -1 2 25 24 21 21 2 0.11072039D+00 0.10548696D-01 0.29996525D+05 0.29996525D+05 0.29996525D+05 0.12149037D+01  1  2  2  3  6  5       21 0.878960538091D-02 0.100000000000D+01
-.126068888624D-06 0.576316268836D-05 -.419394621088D-06 0.518813843876D-05 0.000000000000D+00  6 -1 2 25 24 21 21 4 0.11072039D+00 0.10548696D-01 0.29996525D+05 0.29996525D+05 0.29996525D+05 0.12149037D+01  1  2  3  3  6  5       21 -.149761141584D-04 0.100000000000D+01
0.527823494121D-05 0.000000000000D+00 0.000000000000D+00 0.518813843876D-05 0.000000000000D+00  6 -1 2 25 24 21 21 4 0.11072039D+00 0.10548696D-01 0.29996525D+05 0.29996525D+05 0.29996525D+05 0.12149037D+01  1  2 15  3  6  5       21 0.627017893924D-03 0.100000000000D+01
0.312018740535D-03 0.000000000000D+00 0.000000000000D+00 0.518753712356D-05 0.000000000000D+00  6 -1 2 25 24 21 21 4 0.11072039D+00 0.10548696D-01 0.30042899D+05 0.30042899D+05 0.30042899D+05 0.12148333D+01  1  2 12  3  6  5       21 0.370572043450D-01 0.100000000000D+01
0.309056015074D-03 0.000000000000D+00 0.000000000000D+00 0.518753712356D-05 0.000000000000D+00  6 -1 2 25 24 21 21 4 0.11072039D+00 0.10548696D-01 0.30042899D+05 0.30042899D+05 0.30042899D+05 0.12148333D+01  1  2 12  3  6  5       21 0.367053334202D-01 0.100000000000D+01
-.563146179945D-02 0.000000000000D+00 0.000000000000D+00 0.518813843876D-05 0.000000000000D+00  6 -1 2 25 24 21 21 4 0.11072039D+00 0.10548696D-01 0.29996525D+05 0.29996525D+05 0.29996525D+05 0.12149037D+01  1  2  4  3  6  5       21 -.668978807599D+00 0.100000000000D+01
-.341815724036D-02 0.000000000000D+00 0.000000000000D+00 0.518813843876D-05 0.000000000000D+00  6 -1 2 25 24 21 21 4 0.11072039D+00 0.10548696D-01 0.29996525D+05 0.29996525D+05 0.29996525D+05 0.12149037D+01  1  2  5  3  6  5       21 -.406053496637D+00 0.100000000000D+01
0.646727002550D-02 0.000000000000D+00 -.000000000000D+00 0.518813843876D-05 0.000000000000D+00  6 -1 2 25 24 21 21 4 0.11072039D+00 0.10548696D-01 0.29996525D+05 0.29996525D+05 0.29996525D+05 0.12149037D+01  1  2  6  3  6  5       21 0.768267058210D+00 0.100000000000D+01
0.285092812636D-02 0.000000000000D+00 0.000000000000D+00 0.518813843876D-05 0.133368957524D-05  6 -1 2 25 24 21 21 4 0.11072039D+00 0.10548696D-01 0.30042899D+05 0.30042899D+05 0.30042899D+05 0.12148333D+01  1  2 11  3  6  5       21 0.338593207480D+00 0.100000000000D+01
0.171804107484D-04 0.000000000000D+00 0.000000000000D+00 0.518753712356D-05 0.000000000000D+00  6 -1 2 25 24 1 -1 4 0.11072039D+00 0.10548696D-01 0.30042899D+05 0.30042899D+05 0.30042899D+05 0.12148333D+01  1  2 12  6  6  5       21 0.204044792548D-02 0.100000000000D+01
0.170174848577D-04 0.000000000000D+00 0.000000000000D+00 0.518753712356D-05 0.000000000000D+00  6 -1 2 25 24 1 -1 4 0.11072039D+00 0.10548696D-01 0.30042899D+05 0.30042899D+05 0.30042899D+05 0.12148333D+01  1  2 12  6  6  5       21 0.202109787614D-02 0.100000000000D+01
-.184109590330D-03 0.000000000000D+00 0.000000000000D+00 0.518813843876D-05 0.000000000000D+00  6 -1 2 25 24 1 -1 4 0.11072039D+00 0.10548696D-01 0.29996525D+05 0.29996525D+05 0.29996525D+05 0.12149037D+01  1  2  5  6  6  5       21 -.218709490702D-01 0.100000000000D+01
0.150560458614D-03 0.000000000000D+00 0.000000000000D+00 0.518813843876D-05 0.668402783573D-07  6 -1 2 25 24 1 -1 4 0.11072039D+00 0.10548696D-01 0.30042899D+05 0.30042899D+05 0.30042899D+05 0.12148333D+01  1  2 11  6  6  5       21 0.178814569650D-01 0.100000000000D+01
0.171804107484D-04 0.000000000000D+00 0.000000000000D+00 0.518753712356D-05 0.000000000000D+00  6 -1 2 25 24 2 -2 4 0.11072039D+00 0.10548696D-01 0.30042899D+05 0.30042899D+05 0.30042899D+05 0.12148333D+01  1  2 12  7  6  5       21 0.204044792548D-02 0.100000000000D+01
0.170174848577D-04 0.000000000000D+00 0.000000000000D+00 0.518753712356D-05 0.000000000000D+00  6 -1 2 25 24 2 -2 4 0.11072039D+00 0.10548696D-01 0.30042899D+05 0.30042899D+05 0.30042899D+05 0.12148333D+01  1  2 12  7  6  5       21 0.202109787614D-02 0.100000000000D+01
-.184109590330D-03 0.000000000000D+00 0.000000000000D+00 0.518813843876D-05 0.000000000000D+00  6 -1 2 25 24 2 -2 4 0.11072039D+00 0.10548696D-01 0.29996525D+05 0.29996525D+05 0.29996525D+05 0.12149037D+01  1  2  5  7  6  5       21 -.218709490702D-01 0.100000000000D+01
0.151726134177D-03 0.000000000000D+00 0.000000000000D+00 0.518813843876D-05 0.676083932745D-07  6 -1 2 25 24 2 -2 4 0.11072039D+00 0.10548696D-01 0.30042899D+05 0.30042899D+05 0.30042899D+05 0.12148333D+01  1  2 11  7  6  5       21 0.180198995388D-01 0.100000000000D+01
0.171804107484D-04 0.000000000000D+00 0.000000000000D+00 0.518753712356D-05 0.000000000000D+00  6 -1 2 25 24 3 -3 4 0.11072039D+00 0.10548696D-01 0.30042899D+05 0.30042899D+05 0.30042899D+05 0.12148333D+01  1  2 12  8  6  5       21 0.204044792548D-02 0.100000000000D+01
0.171804107484D-04 0.000000000000D+00 0.000000000000D+00 0.518753712356D-05 0.000000000000D+00  6 -1 2 25 24 4 -4 4 0.11072039D+00 0.10548696D-01 0.30042899D+05 0.30042899D+05 0.30042899D+05 0.12148333D+01  1  2 12  8  6  5       21 0.204044792548D-02 0.100000000000D+01
0.170174848577D-04 0.000000000000D+00 0.000000000000D+00 0.518753712356D-05 0.000000000000D+00  6 -1 2 25 24 3 -3 4 0.11072039D+00 0.10548696D-01 0.30042899D+05 0.30042899D+05 0.30042899D+05 0.12148333D+01  1  2 12  8  6  5       21 0.202109787614D-02 0.100000000000D+01
0.170174848577D-04 0.000000000000D+00 0.000000000000D+00 0.518753712356D-05 0.000000000000D+00  6 -1 2 25 24 4 -4 4 0.11072039D+00 0.10548696D-01 0.30042899D+05 0.30042899D+05 0.30042899D+05 0.12148333D+01  1  2 12  8  6  5       21 0.202109787614D-02 0.100000000000D+01
-.184109590330D-03 0.000000000000D+00 0.000000000000D+00 0.518813843876D-05 0.000000000000D+00  6 -1 2 25 24 3 -3 4 0.11072039D+00 0.10548696D-01 0.29996525D+05 0.29996525D+05 0.29996525D+05 0.12149037D+01  1  2  5  8  6  5       21 -.218709490702D-01 0.100000000000D+01
-.184109590330D-03 0.000000000000D+00 0.000000000000D+00 0.518813843876D-05 0.000000000000D+00  6 -1 2 25 24 4 -4 4 0.11072039D+00 0.10548696D-01 0.29996525D+05 0.29996525D+05 0.29996525D+05 0.12149037D+01  1  2  5  8  6  5       21 -.218709490702D-01 0.100000000000D+01
0.150591191470D-03 0.000000000000D+00 0.000000000000D+00 0.518813843876D-05 0.668497422938D-07  6 -1 2 25 24 3 -3 4 0.11072039D+00 0.10548696D-01 0.30042899D+05 0.30042899D+05 0.30042899D+05 0.12148333D+01  1  2 11  8  6  5       21 0.178851069821D-01 0.100000000000D+01
0.150591191470D-03 0.000000000000D+00 0.000000000000D+00 0.518813843876D-05 0.668497422938D-07  6 -1 2 25 24 4 -4 4 0.11072039D+00 0.10548696D-01 0.30042899D+05 0.30042899D+05 0.30042899D+05 0.12148333D+01  1  2 11  8  6  5       21 0.178851069821D-01 0.100000000000D+01
  </mgrwgt>
  </event>
  <event>
  5     66 0.43535451E-03 0.26440998E+02 0.75467711E-02 0.11566847E+00
       -1 -1    0    0    0  501 0.00000000E+00 0.00000000E+00 0.44758558E+03 0.44758570E+03 0.32000000E+00 0.0000E+00 0.9000E+01
        2 -1    0    0  502    0 0.00000000E+00 0.00000000E+00 -.53283930E+02 0.53284891E+02 0.32000000E+00 0.0000E+00 0.9000E+01
       25  1    1    2    0    0 0.68170153E+02 -.58850804E+02 0.24347240E+03 0.28812219E+03 0.12500000E+03 0.0000E+00 0.9000E+01
       24  1    1    2    0    0 -.50568686E+02 0.78570132E+02 0.12928424E+03 0.17863955E+03 0.80419002E+02 0.0000E+00 0.9000E+01
       21  1    1    2  502  501 -.17601468E+02 -.19719328E+02 0.21545010E+02 0.34108848E+02 0.75000000E+00 0.0000E+00 0.9000E+01
#aMCatNLO 1  0  0  1  2 0.23606870D+02 0.00000000D+00  -5  6  0 0.00000000D+00 0.00000000D+00 0.00000000D+00 0.00000000D+00 0.00000000D+00
  <mgrwgt>
 0.2163271664D+00    7    4    0
 0.154432471815039D+03 0.000000000000000D+00 0.000000000000000D+00 0.154432471815039D+03
 0.154432471815039D+03 0.000000000000000D+00 0.000000000000000D+00 -.154432471815039D+03
 0.156412895840938D+03 0.681733972219089D+02 -.588471698813064D+02 0.270072674206882D+02
 0.124645057030727D+03 -.505661006096812D+02 0.785730281198391D+02 -.183989947832267D+02
 0.278069907584140D+02 -.176072966122277D+02 -.197258582385326D+02 -.860827263746150D+01
 0.000000000000000D+00 0.000000000000000D+00 0.000000000000000D+00 0.000000000000000D+00
 0.223232789931753D+03 0.000000000000000D+00 0.000000000000000D+00 0.223232789931753D+03
 0.178459205240972D+03 0.000000000000000D+00 0.000000000000000D+00 -.178459205240972D+03
 0.145214963823693D+03 0.336069254523095D+02 -.600297241908277D+02 0.270072674206882D+02
 0.139086341647887D+03 -.807896481205687D+02 0.775390496855850D+02 -.183989947832267D+02
 0.327940580965356D+02 -.245521605474817D+02 -.199634491280632D+02 -.860827263746150D+01
 0.845966316046100D+02 0.717348832157409D+02 0.245412363330591D+01 0.447735846907813D+02
 0.154432471815039D+03 0.000000000000000D+00 0.000000000000000D+00 0.154432471815039D+03
 0.154432471815039D+03 0.000000000000000D+00 0.000000000000000D+00 -.154432471815039D+03
 0.156412895840938D+03 0.681733972219089D+02 -.588471698813064D+02 0.270072674206882D+02
 0.124645057030727D+03 -.505661006096812D+02 0.785730281198391D+02 -.183989947832267D+02
 0.000000000000000D+00 0.000000000000000D+00 0.000000000000000D+00 0.000000000000000D+00
 0.278069907584140D+02 -.176072966122277D+02 -.197258582385326D+02 -.860827263746150D+01
 0.223232789931753D+03 0.000000000000000D+00 0.000000000000000D+00 0.223232789931753D+03
 0.178459205240972D+03 0.000000000000000D+00 0.000000000000000D+00 -.178459205240972D+03
 0.145214963823693D+03 0.336069254523095D+02 -.600297241908277D+02 0.270072674206882D+02
 0.139086341647887D+03 -.807896481205687D+02 0.775390496855850D+02 -.183989947832267D+02
 0.845966316046100D+02 0.717348832157409D+02 0.245412363330591D+01 0.447735846907813D+02
 0.327940580965356D+02 -.245521605474817D+02 -.199634491280632D+02 -.860827263746150D+01
0.312014895360D-03 0.000000000000D+00 0.000000000000D+00 0.284030845840D-04 0.000000000000D+00  6 -1 2 25 24 21 21 2 0.68859403D-01 0.81976105D-02 0.23071219D+05 0.23071219D+05 0.23071219D+05 0.12270538D+01  1  2  2  1  6  1       -1 0.955382923968D-01 0.100000000000D+01
0.597899154171D-04 0.164654783916D-04 -.119821935359D-05 0.284030845840D-04 0.000000000000D+00  6 -1 2 25 24 21 21 4 0.68859403D-01 0.81976105D-02 0.23071219D+05 0.23071219D+05 0.23071219D+05 0.12270538D+01  1  2  3  1  6  1       -1 0.275649570886D-01 0.100000000000D+01
0.119773728984D-04 0.000000000000D+00 0.000000000000D+00 0.284030845840D-04 0.000000000000D+00  6 -1 2 25 24 21 21 4 0.68859403D-01 0.81976105D-02 0.23071219D+05 0.23071219D+05 0.23071219D+05 0.12270538D+01  1  2 15  1  6  1       -1 0.552193070812D-02 0.100000000000D+01
-.627703727822D-04 0.000000000000D+00 0.000000000000D+00 0.284030845840D-04 0.000000000000D+00  6 -1 2 25 24 21 21 4 0.68859403D-01 0.81976105D-02 0.23071219D+05 0.23071219D+05 0.23071219D+05 0.12270538D+01  1  2  4  1  6  1       -1 -.289390379650D-01 0.100000000000D+01
-.403686880901D-03 0.000000000000D+00 -.165563062994D-03 0.284030845840D-04 0.000000000000D+00  6 -1 2 25 24 21 21 4 0.11074948D+00 0.81976105D-02 0.23071219D+05 0.23071219D+05 0.23071219D+05 0.12270538D+01  1  2  5  1  6  1       -1 -.681368756743D-01 0.100000000000D+01
0.447913282363D-03 0.000000000000D+00 0.148480364963D-03 0.284030845840D-04 0.000000000000D+00  6 -1 2 25 24 21 21 4 0.68859403D-01 0.81976105D-02 0.23071219D+05 0.23071219D+05 0.23071219D+05 0.12270538D+01  1  2  6  1  6  1       -1 0.206501553341D+00 0.100000000000D+01
-.148315707011D-04 0.000000000000D+00 -.897030747388D-05 0.284030845840D-04 0.000000000000D+00  6 21 2 25 24 1 21 4 0.11074948D+00 0.81976105D-02 0.23071219D+05 0.23071219D+05 0.23071219D+05 0.12270538D+01  3  4  5  4  5  1       -1 -.217236534748D-01 0.100000000000D+01
  </mgrwgt>
  </event>
  <event>
  5     66 0.43535451E-03 0.26807180E+02 0.75467711E-02 0.12469584E+00
       -1 -1    0    0    0  501 0.00000000E+00 0.00000000E+00 0.49376230E+01 0.49479815E+01 0.32000000E+00 0.0000E+00 0.9000E+01
        2 -1    0    0  502    0 -.00000000E+00 -.00000000E+00 -.28111284E+04 0.28111284E+04 0.32000000E+00 0.0000E+00 0.9000E+01
       25  1    1    2    0    0 0.17577562E+02 0.58299962E+01 -.14741301E+04 0.14795363E+04 0.12500000E+03 0.0000E+00 0.9000E+01
       24  1    1    2    0    0 0.70834592E+01 -.16316551E+02 -.97255142E+03 0.97603273E+03 0.80419002E+02 0.0000E+00 0.9000E+01
       21  1    1    2  502  501 -.24661021E+02 0.10486555E+02 -.35950923E+03 0.36050740E+03 0.75000000E+00 0.0000E+00 0.9000E+01
#aMCatNLO 1  0  0  5  1 0.12597896D+01 0.00000000D+00  -5  6  0 0.00000000D+00 0.00000000D+00 0.00000000D+00 0.00000000D+00 0.00000000D+00
  <mgrwgt>
 0.1207912845D+01    9    2    0
 0.117876643110046D+03 0.000000000000000D+00 0.000000000000000D+00 0.117876643110046D+03
 0.117876643110046D+03 -.000000000000000D+00 -.000000000000000D+00 -.117876643110046D+03
 0.126390470135029D+03 0.175826664662992D+02 0.582782565581177D+01 0.253716948863026D+01
 0.823659333703513D+02 0.708678573159229D+01 -.163179659517107D+02 0.657632718109609D+00
 0.269968827147114D+02 -.246694521978914D+02 0.104901402958989D+02 -.319480220673987D+01
 0.000000000000000D+00 0.000000000000000D+00 0.000000000000000D+00 0.000000000000000D+00
 0.117876643110046D+03 0.000000000000000D+00 0.000000000000000D+00 0.117876643110046D+03
 0.117876643110046D+03 -.000000000000000D+00 -.000000000000000D+00 -.117876643110046D+03
 0.126137628770734D+03 0.153144596266087D+02 0.679233057378091D+01 0.224342675941777D+01
 0.821283398571724D+02 0.560929852426245D+01 -.156896971127451D+02 0.466291647682001D+00
 0.245300347542167D+01 0.141610873205102D+01 -.186096111063144D+01 0.740733321889235D+00
 0.250343141167641D+02 -.223398668829221D+02 0.107583276495956D+02 -.345045172898900D+01
0.803013990247D-03 0.000000000000D+00 0.000000000000D+00 0.380256145056D-04 0.000000000000D+00  6 -1 2 25 24 21 21 2 0.76043251D-03 0.43248209D+00 0.13869242D+05 0.13869242D+05 0.13869242D+05 0.12517217D+01  1  2  2  3  6  5       21 0.106916120388D+01 0.100000000000D+01
0.961753276046D-04 0.423762124860D-04 -.308378516099D-05 0.380256145056D-04 0.000000000000D+00  6 -1 2 25 24 21 21 4 0.76043251D-03 0.43248209D+00 0.13869242D+05 0.13869242D+05 0.13869242D+05 0.12517217D+01  1  2  3  3  6  5       21 0.200631601731D+00 0.100000000000D+01
0.355083496085D-04 0.000000000000D+00 0.000000000000D+00 0.380256145056D-04 0.000000000000D+00  6 -1 2 25 24 21 21 4 0.76043251D-03 0.43248209D+00 0.13869242D+05 0.13869242D+05 0.13869242D+05 0.12517217D+01  1  2 15  3  6  5       21 0.740740607204D-01 0.100000000000D+01
-.134945814542D-03 0.000000000000D+00 0.000000000000D+00 0.380256145056D-04 0.000000000000D+00  6 -1 2 25 24 21 21 4 0.76043251D-03 0.43248209D+00 0.13869242D+05 0.13869242D+05 0.13869242D+05 0.12517217D+01  1  2  4  3  6  5       21 -.281510815641D+00 0.100000000000D+01
0.952547666977D-05 0.000000000000D+00 0.000000000000D+00 0.380256145056D-04 0.171197025679D-04  6 -1 2 25 24 21 21 4 0.76043251D-03 0.43248209D+00 0.13850768D+05 0.13850768D+05 0.13850768D+05 0.12517884D+01  1  2 11  3  6  5       21 0.198751596460D-01 0.100000000000D+01
0.153522928441D-04 0.000000000000D+00 0.000000000000D+00 0.380296632816D-04 0.263294667760D-06  6 -1 2 25 24 1 -1 4 0.76043251D-03 0.43248209D+00 0.13850768D+05 0.13850768D+05 0.13850768D+05 0.12517884D+01  1  2 11  6  6  5       21 0.320329660956D-01 0.100000000000D+01
0.141669359830D-04 0.000000000000D+00 0.000000000000D+00 0.380296632816D-04 0.282513902791D-06  6 -1 2 25 24 2 -2 4 0.76043251D-03 0.43248209D+00 0.13850768D+05 0.13850768D+05 0.13850768D+05 0.12517884D+01  1  2 11  7  6  5       21 0.295596875744D-01 0.100000000000D+01
0.153578160352D-04 0.000000000000D+00 0.000000000000D+00 0.380296632816D-04 0.261717030561D-06  6 -1 2 25 24 3 -3 4 0.76043251D-03 0.43248209D+00 0.13850768D+05 0.13850768D+05 0.13850768D+05 0.12517884D+01  1  2 11  8  6  5       21 0.320444903805D-01 0.100000000000D+01
0.153578160352D-04 0.000000000000D+00 0.000000000000D+00 0.380296632816D-04 0.261717030561D-06  6 -1 2 25 24 4 -4 4 0.76043251D-03 0.43248209D+00 0.13850768D+05 0.13850768D+05 0.13850768D+05 0.12517884D+01  1  2 11  8  6  5       21 0.320444903805D-01 0.100000000000D+01
  </mgrwgt>
  </event>
  <event>
  5     66 0.43535451E-03 0.41117375E+03 0.75467711E-02 0.95823901E-01
       -1 -1    0    0    0  501 0.00000000E+00 0.00000000E+00 0.31587359E+03 0.31587375E+03 0.32000000E+00 0.0000E+00 0.9000E+01
        2 -1    0    0  502    0 0.00000000E+00 0.00000000E+00 -.12445772E+04 0.12445773E+04 0.32000000E+00 0.0000E+00 0.9000E+01
       25  1    1    2    0    0 -.88209177E+02 -.12925312E+03 -.18844592E+03 0.27499835E+03 0.12500000E+03 0.0000E+00 0.9000E+01
       24  1    1    2    0    0 0.39646421E+03 0.44561380E+03 -.50113476E+03 0.78317227E+03 0.80419002E+02 0.0000E+00 0.9000E+01
       21  1    1    2  502  501 -.30825504E+03 -.31636068E+03 -.23912295E+03 0.50228040E+03 0.75000000E+00 0.0000E+00 0.9000E+01
#aMCatNLO 1  0  0  1  5 0.29323742D+03 0.00000000D+00  -5  6  0 0.00000000D+00 0.00000000D+00 0.00000000D+00 0.00000000D+00 0.00000000D+00
  <mgrwgt>
 0.5520988203D-01    8    4    0
 0.627000185581147D+03 0.000000000000000D+00 0.000000000000000D+00 0.627000185581147D+03
 0.627000185581147D+03 0.000000000000000D+00 0.000000000000000D+00 -.627000185581147D+03
 0.202640253775049D+03 -.882091070749707D+02 -.129253051074142D+03 -.308362557240343D+02
 0.603426183965016D+03 0.396464421468940D+03 0.445614017061218D+03 -.435896071108012D+02
 0.447933933422230D+03 -.308255314393969D+03 -.316360965987076D+03 0.744258628348355D+02
 0.000000000000000D+00 -.000000000000000D+00 -.000000000000000D+00 0.000000000000000D+00
 0.115630794278358D+04 0.000000000000000D+00 0.000000000000000D+00 0.115630794278358D+04
 0.685869010290861D+03 0.000000000000000D+00 0.000000000000000D+00 -.685869010290861D+03
 0.178027609840574D+03 -.472033763334601D+02 -.113533239455198D+03 -.308362557240343D+02
 0.743571651372289D+03 0.541563695204881D+03 0.501238760430698D+03 -.435896071108012D+02
 0.366230352600893D+03 -.220553134401888D+03 -.282739769068603D+03 0.744258628348355D+02
 0.554347339260683D+03 -.273807184469533D+03 -.104965751906897D+03 0.470438932492715D+03
 0.627000185581147D+03 0.000000000000000D+00 0.000000000000000D+00 0.627000185581147D+03
 0.627000185581147D+03 0.000000000000000D+00 0.000000000000000D+00 -.627000185581147D+03
 0.202640253775049D+03 -.882091070749707D+02 -.129253051074142D+03 -.308362557240343D+02
 0.603426183965016D+03 0.396464421468940D+03 0.445614017061218D+03 -.435896071108012D+02
 0.000000000000000D+00 -.000000000000000D+00 -.000000000000000D+00 0.000000000000000D+00
 0.447933933422230D+03 -.308255314393969D+03 -.316360965987076D+03 0.744258628348355D+02
 0.115630794278358D+04 0.000000000000000D+00 0.000000000000000D+00 0.115630794278358D+04
 0.685869010290861D+03 0.000000000000000D+00 0.000000000000000D+00 -.685869010290861D+03
 0.178027609840574D+03 -.472033763334601D+02 -.113533239455198D+03 -.308362557240343D+02
 0.743571651372289D+03 0.541563695204881D+03 0.501238760430698D+03 -.435896071108012D+02
 0.554347339260683D+03 -.273807184469533D+03 -.104965751906897D+03 0.470438932492715D+03
 0.366230352600893D+03 -.220553134401888D+03 -.282739769068603D+03 0.744258628348355D+02
0.180893488551D-02 0.000000000000D+00 0.000000000000D+00 0.725009178908D-07 0.000000000000D+00  6 -1 2 25 24 21 21 2 0.48595952D-01 0.19147343D+00 0.38678301D+06 0.38678301D+06 0.38678301D+06 0.11131770D+01  1  2  2  1  6  1       -1 0.199191586131D-01 0.100000000000D+01
-.175073175622D-03 0.954601165268D-04 -.694678626384D-05 0.725009178908D-07 0.000000000000D+00  6 -1 2 25 24 21 21 4 0.48595952D-01 0.19147343D+00 0.38678301D+06 0.38678301D+06 0.38678301D+06 0.11131770D+01  1  2  3  1  6  1       -1 -.238888990575D-02 0.100000000000D+01
0.102831678747D-05 0.000000000000D+00 0.000000000000D+00 0.725009178908D-07 0.000000000000D+00  6 -1 2 25 24 21 21 4 0.48595952D-01 0.19147343D+00 0.38678301D+06 0.38678301D+06 0.38678301D+06 0.11131770D+01  1  2 15  1  6  1       -1 0.140314790360D-04 0.100000000000D+01
0.197107819328D-02 0.000000000000D+00 0.000000000000D+00 0.704528787996D-07 0.000000000000D+00  6 -1 2 25 24 21 21 4 0.96380611D-01 0.19147343D+00 0.61579737D+06 0.61579737D+06 0.61579737D+06 0.10973416D+01  1  2 12  1  6  1       -1 0.615174153223D-02 0.100000000000D+01
-.335848362829D-02 0.000000000000D+00 -.840812855157D-03 0.725009178908D-07 0.000000000000D+00  6 -1 2 25 24 21 21 4 0.94785517D-01 0.19147343D+00 0.38678301D+06 0.38678301D+06 0.38678301D+06 0.11131770D+01  1  2  5  1  6  1       -1 -.117840994175D-01 0.100000000000D+01
0.331143043832D-02 0.000000000000D+00 0.682706389240D-03 0.725009178908D-07 0.000000000000D+00  6 -1 2 25 24 21 21 4 0.48595952D-01 0.19147343D+00 0.38678301D+06 0.38678301D+06 0.38678301D+06 0.11131770D+01  1  2  6  1  6  1       -1 0.451847789908D-01 0.100000000000D+01
0.146102864818D-03 0.000000000000D+00 0.000000000000D+00 0.704528787996D-07 0.000000000000D+00  6 21 2 25 24 1 21 4 0.96380611D-01 0.19147343D+00 0.61579737D+06 0.61579737D+06 0.61579737D+06 0.10973416D+01  3  4 12  4  5  1       -1 0.366263626345D-02 0.100000000000D+01
-.193800648752D-03 0.000000000000D+00 -.608735802022D-04 0.725009178908D-07 0.000000000000D+00  6 21 2 25 24 1 21 4 0.94785517D-01 0.19147343D+00 0.38678301D+06 0.38678301D+06 0.38678301D+06 0.11131770D+01  3  4  5  4  5  1       -1 -.554947552373D-02 0.100000000000D+01
  </mgrwgt>
  </event>
  <event>
  5     66 0.43535451E-03 0.13304022E+03 0.75467711E-02 0.11231402E+00
       -1 -1    0    0    0  501 0.00000000E+00 0.00000000E+00 0.54603026E+02 0.54603963E+02 0.32000000E+00 0.0000E+00 0.9000E+01
        2 -1    0    0  502    0 -.00000000E+00 -.00000000E+00 -.16818749E+04 0.16818750E+04 0.32000000E+00 0.0000E+00 0.9000E+01
       25  1    1    2    0    0 0.10772727E+03 0.76859248E+02 -.61530784E+03 0.64167067E+03 0.12500000E+03 0.0000E+00 0.9000E+01
       24  1    1    2    0    0 0.27956607E+02 -.88525685E+02 -.92523165E+03 0.93334837E+03 0.80419002E+02 0.0000E+00 0.9000E+01
       21  1    1    2  502  501 -.13568388E+03 0.11666437E+02 -.86732428E+02 0.16145989E+03 0.75000000E+00 0.0000E+00 0.9000E+01
#aMCatNLO 1  0  0  5  2 0.73430190D+02 0.00000000D+00  -5  6  0 0.00000000D+00 0.00000000D+00 0.00000000D+00 0.00000000D+00 0.00000000D+00
  <mgrwgt>
 0.2372509151D-01   15    2    0
 0.303045048049504D+03 0.000000000000000D+00 0.000000000000000D+00 0.303045048049504D+03
 0.303045048049504D+03 -.000000000000000D+00 -.000000000000000D+00 -.303045048049504D+03
 0.186398927993287D+03 0.107727492996524D+03 0.768592288133055D+02 -.400874862763222D+02
 0.189965953355331D+03 0.279568340407471D+02 -.885257044163136D+02 -.144918813712516D+03
 0.229725214750390D+03 -.135684327037271D+03 0.116664756030081D+02 0.185006299988838D+03
 0.000000000000000D+00 -.000000000000000D+00 0.000000000000000D+00 0.000000000000000D+00
 0.303045048049504D+03 0.000000000000000D+00 0.000000000000000D+00 0.303045048049504D+03
 0.303045048049504D+03 -.000000000000000D+00 -.000000000000000D+00 -.303045048049504D+03
 0.179353978333936D+03 0.987086842005588D+02 0.776346884045774D+02 -.277902926204185D+02
 0.179110317077654D+03 0.188560770636173D+02 -.877431987167907D+02 -.132509883276697D+03
 0.116086917032855D+03 -.760235064548202D+01 0.536027552096733D+02 0.102689440571015D+03
 0.131538883654562D+03 -.109962410618694D+03 -.434942448974600D+02 0.576107353261006D+02
0.136421972727D-03 0.000000000000D+00 0.000000000000D+00 0.178484486547D-05 0.000000000000D+00  6 -1 2 25 24 21 21 2 0.84005400D-02 0.25875006D+00 0.48630315D+05 0.48630315D+05 0.48630315D+05 0.11934783D+01  1  2  2  3  6  5       21 0.194139682242D-01 0.100000000000D+01
-.913833724792D-05 0.719918528727D-05 -.523896296004D-06 0.178484486547D-05 0.000000000000D+00  6 -1 2 25 24 21 21 4 0.84005400D-02 0.25875006D+00 0.48630315D+05 0.48630315D+05 0.48630315D+05 0.11934783D+01  1  2  3  3  6  5       21 -.185236344900D-02 0.100000000000D+01
0.723754328005D-05 0.000000000000D+00 0.000000000000D+00 0.178484486547D-05 0.000000000000D+00  6 -1 2 25 24 21 21 4 0.84005400D-02 0.25875006D+00 0.48630315D+05 0.48630315D+05 0.48630315D+05 0.11934783D+01  1  2 15  3  6  5       21 0.146706783399D-02 0.100000000000D+01
0.358107583630D-04 0.000000000000D+00 0.000000000000D+00 0.176854165666D-05 0.000000000000D+00  6 -1 2 25 24 21 21 4 0.84005400D-02 0.25875006D+00 0.55244882D+05 0.55244882D+05 0.55244882D+05 0.11880150D+01  1  2 12  3  6  5       21 0.711493403174D-02 0.100000000000D+01
-.673071740048D-04 0.000000000000D+00 0.000000000000D+00 0.178484486547D-05 0.000000000000D+00  6 -1 2 25 24 21 21 4 0.84005400D-02 0.25875006D+00 0.48630315D+05 0.48630315D+05 0.48630315D+05 0.11934783D+01  1  2  4  3  6  5       21 -.136433298093D-01 0.100000000000D+01
-.546610713600D-04 0.000000000000D+00 0.000000000000D+00 0.178484486547D-05 0.000000000000D+00  6 -1 2 25 24 21 21 4 0.84005400D-02 0.25875006D+00 0.48630315D+05 0.48630315D+05 0.48630315D+05 0.11934783D+01  1  2  5  3  6  5       21 -.110799336820D-01 0.100000000000D+01
0.114156166882D-03 0.000000000000D+00 -.000000000000D+00 0.178484486547D-05 0.000000000000D+00  6 -1 2 25 24 21 21 4 0.84005400D-02 0.25875006D+00 0.48630315D+05 0.48630315D+05 0.48630315D+05 0.11934783D+01  1  2  6  3  6  5       21 0.231397359578D-01 0.100000000000D+01
0.151390840950D-05 0.000000000000D+00 0.000000000000D+00 0.176854165666D-05 0.000000000000D+00  6 -1 2 25 24 1 -1 4 0.84005400D-02 0.25875006D+00 0.55244882D+05 0.55244882D+05 0.55244882D+05 0.11880150D+01  1  2 12  6  6  5       21 0.300785544793D-03 0.100000000000D+01
-.251369638379D-05 0.000000000000D+00 0.000000000000D+00 0.178484486547D-05 0.000000000000D+00  6 -1 2 25 24 1 -1 4 0.84005400D-02 0.25875006D+00 0.48630315D+05 0.48630315D+05 0.48630315D+05 0.11934783D+01  1  2  5  6  6  5       21 -.509532443037D-03 0.100000000000D+01
0.151390840950D-05 0.000000000000D+00 0.000000000000D+00 0.176854165666D-05 0.000000000000D+00  6 -1 2 25 24 2 -2 4 0.84005400D-02 0.25875006D+00 0.55244882D+05 0.55244882D+05 0.55244882D+05 0.11880150D+01  1  2 12  7  6  5       21 0.300785544793D-03 0.100000000000D+01
-.251369638379D-05 0.000000000000D+00 0.000000000000D+00 0.178484486547D-05 0.000000000000D+00  6 -1 2 25 24 2 -2 4 0.84005400D-02 0.25875006D+00 0.48630315D+05 0.48630315D+05 0.48630315D+05 0.11934783D+01  1  2  5  7  6  5       21 -.509532443037D-03 0.100000000000D+01
0.151390840950D-05 0.000000000000D+00 0.000000000000D+00 0.176854165666D-05 0.000000000000D+00  6 -1 2 25 24 3 -3 4 0.84005400D-02 0.25875006D+00 0.55244882D+05 0.55244882D+05 0.55244882D+05 0.11880150D+01  1  2 12  8  6  5       21 0.300785544793D-03 0.100000000000D+01
0.151390840950D-05 0.000000000000D+00 0.000000000000D+00 0.176854165666D-05 0.000000000000D+00  6 -1 2 25 24 4 -4 4 0.84005400D-02 0.25875006D+00 0.55244882D+05 0.55244882D+05 0.55244882D+05 0.11880150D+01  1  2 12  8  6  5       21 0.300785544793D-03 0.100000000000D+01
-.251369638379D-05 0.000000000000D+00 0.000000000000D+00 0.178484486547D-05 0.000000000000D+00  6 -1 2 25 24 3 -3 4 0.84005400D-02 0.25875006D+00 0.48630315D+05 0.48630315D+05 0.48630315D+05 0.11934783D+01  1  2  5  8  6  5       21 -.509532443037D-03 0.100000000000D+01
-.251369638379D-05 0.000000000000D+00 0.000000000000D+00 0.178484486547D-05 0.000000000000D+00  6 -1 2 25 24 4 -4 4 0.84005400D-02 0.25875006D+00 0.48630315D+05 0.48630315D+05 0.48630315D+05 0.11934783D+01  1  2  5  8  6  5       21 -.509532443037D-03 0.100000000000D+01
  </mgrwgt>
  </event>
  <event>
  5     66 0.43535451E-03 0.20662954E+02 0.75467711E-02 0.11960582E+00
       -1 -1    0    0    0  501 0.00000000E+00 0.00000000E+00 0.72963580E+02 0.72964282E+02 0.32000000E+00 0.0000E+00 0.9000E+01
        2 -1    0    0  502    0 0.00000000E+00 0.00000000E+00 -.20296114E+03 0.20296139E+03 0.32000000E+00 0.0000E+00 0.9000E+01
       25  1    1    2    0    0 0.17131958E+02 -.23143514E+02 -.94447465E+02 0.15929360E+03 0.12500000E+03 0.0000E+00 0.9000E+01
       24  1    1    2    0    0 -.36682872E+02 0.16494850E+02 -.24477657E+02 0.93188437E+02 0.80419002E+02 0.0000E+00 0.9000E+01
       21  1    1    2  502  501 0.19550913E+02 0.66486641E+01 -.11072441E+02 0.23443643E+02 0.75000000E+00 0.0000E+00 0.9000E+01
#aMCatNLO 1  0  0  1  5 0.20026090D+03 0.00000000D+00  -5  6  0 0.00000000D+00 0.00000000D+00 0.00000000D+00 0.00000000D+00 0.00000000D+00
  <mgrwgt>
 0.2500125681D+00    7    4    0
 0.121691836694371D+03 0.000000000000000D+00 0.000000000000000D+00 0.121691836694371D+03
 0.121691836694371D+03 0.000000000000000D+00 0.000000000000000D+00 -.121691836694371D+03
 0.130144856713749D+03 0.171250655323007D+02 -.231458581150837D+02 -.219928422827290D+02
 0.925758390852128D+02 -.366877746117712D+02 0.164931825784837D+02 0.220238995282252D+02
 0.206629775897805D+02 0.195627090794705D+02 0.665267553659996D+01 -.310572454961797D-01
 0.000000000000000D+00 -.000000000000000D+00 -.000000000000000D+00 0.000000000000000D+00
 0.211942681400171D+03 0.000000000000000D+00 0.000000000000000D+00 0.211942681400171D+03
 0.136207089141413D+03 0.000000000000000D+00 0.000000000000000D+00 -.136207089141413D+03
 0.137241695779891D+03 0.494790954483171D+02 -.166858341860234D+02 -.219928422827290D+02
 0.872318328896748D+02 -.149308734364843D+02 0.208373122766817D+02 0.220238995282252D+02
 0.264357208091767D+02 0.252616968662311D+02 0.779057389329497D+01 -.310572454961797D-01
 0.972405210628418D+02 -.598099188780639D+02 -.119420519839533D+02 0.757355922587586D+02
 0.121691836694371D+03 0.000000000000000D+00 0.000000000000000D+00 0.121691836694371D+03
 0.121691836694371D+03 0.000000000000000D+00 0.000000000000000D+00 -.121691836694371D+03
 0.130144856713749D+03 0.171250655323007D+02 -.231458581150837D+02 -.219928422827290D+02
 0.925758390852128D+02 -.366877746117712D+02 0.164931825784837D+02 0.220238995282252D+02
 0.000000000000000D+00 -.000000000000000D+00 -.000000000000000D+00 0.000000000000000D+00
 0.206629775897805D+02 0.195627090794705D+02 0.665267553659996D+01 -.310572454961797D-01
 0.211942681400171D+03 0.000000000000000D+00 0.000000000000000D+00 0.211942681400171D+03
 0.136207089141413D+03 0.000000000000000D+00 0.000000000000000D+00 -.136207089141413D+03
 0.137241695779891D+03 0.494790954483171D+02 -.166858341860234D+02 -.219928422827290D+02
 0.872318328896748D+02 -.149308734364843D+02 0.208373122766817D+02 0.220238995282252D+02
 0.972405210628418D+02 -.598099188780639D+02 -.119420519839533D+02 0.757355922587586D+02
 0.264357208091767D+02 0.252616968662311D+02 0.779057389329497D+01 -.310572454961797D-01
0.938642490488D-04 0.000000000000D+00 0.000000000000D+00 0.569057905057D-04 0.000000000000D+00  6 -1 2 25 24 21 21 2 0.11225240D-01 0.31224864D-01 0.14262811D+05 0.14262811D+05 0.14262811D+05 0.12503253D+01  1  2  2  1  6  1       -1 0.133606740003D+00 0.100000000000D+01
0.189286018060D-04 0.495335250798D-05 -.360463431372D-06 0.569057905057D-04 0.000000000000D+00  6 -1 2 25 24 21 21 4 0.11225240D-01 0.31224864D-01 0.14262811D+05 0.14262811D+05 0.14262811D+05 0.12503253D+01  1  2  3  1  6  1       -1 0.421204250014D-01 0.100000000000D+01
0.338045185248D-05 0.000000000000D+00 0.000000000000D+00 0.569057905057D-04 0.000000000000D+00  6 -1 2 25 24 21 21 4 0.11225240D-01 0.31224864D-01 0.14262811D+05 0.14262811D+05 0.14262811D+05 0.12503253D+01  1  2 15  1  6  1       -1 0.752227080386D-02 0.100000000000D+01
-.321035675939D-04 0.000000000000D+00 0.000000000000D+00 0.569057905057D-04 0.000000000000D+00  6 -1 2 25 24 21 21 4 0.11225240D-01 0.31224864D-01 0.14262811D+05 0.14262811D+05 0.14262811D+05 0.12503253D+01  1  2  4  1  6  1       -1 -.714377070729D-01 0.100000000000D+01
-.135519947835D-03 0.000000000000D+00 -.455750360421D-04 0.569057905057D-04 0.000000000000D+00  6 -1 2 25 24 21 21 4 0.21664528D-01 0.31224864D-01 0.14262811D+05 0.14262811D+05 0.14262811D+05 0.12503253D+01  1  2  5  1  6  1       -1 -.107534437934D+00 0.100000000000D+01
0.142009591744D-03 0.000000000000D+00 0.372326397924D-04 0.569057905057D-04 0.000000000000D+00  6 -1 2 25 24 21 21 4 0.11225240D-01 0.31224864D-01 0.14262811D+05 0.14262811D+05 0.14262811D+05 0.12503253D+01  1  2  6  1  6  1       -1 0.316003496710D+00 0.100000000000D+01
-.701844797841D-05 0.000000000000D+00 -.325043594057D-05 0.569057905057D-04 0.000000000000D+00  6 21 2 25 24 1 21 4 0.21664528D-01 0.31224864D-01 0.14262811D+05 0.14262811D+05 0.14262811D+05 0.12503253D+01  3  4  5  4  5  1       -1 -.702682194482D-01 0.100000000000D+01
  </mgrwgt>
  </event>
  <event>
  5     66 0.43535451E-03 0.42073149E+02 0.75467711E-02 0.12251216E+00
       -1 -1    0    0    0  501 0.00000000E+00 0.00000000E+00 0.14353007E+03 0.14353043E+03 0.32000000E+00 0.0000E+00 0.9000E+01
        2 -1    0    0  502    0 0.00000000E+00 0.00000000E+00 -.12899367E+03 0.12899406E+03 0.32000000E+00 0.0000E+00 0.9000E+01
       25  1    1    2    0    0 -.40306667E+01 0.59917157E+00 0.27985736E+02 0.12815930E+03 0.12500000E+03 0.0000E+00 0.9000E+01
       24  1    1    2    0    0 -.40961457E+02 -.14094370E+02 -.27389845E+02 0.95362004E+02 0.80419002E+02 0.0000E+00 0.9000E+01
       21  1    1    2  502  501 0.44992124E+02 0.13495198E+02 0.13940513E+02 0.49003183E+02 0.75000000E+00 0.0000E+00 0.9000E+01
#aMCatNLO 1  0  0  5  2 0.29343249D+01 0.00000000D+00  -5  6  0 0.00000000D+00 0.00000000D+00 0.00000000D+00 0.00000000D+00 0.00000000D+00
  <mgrwgt>
 0.4720533942D+00   19    2    0
 0.136068264115606D+03 0.000000000000000D+00 0.000000000000000D+00 0.136068264115606D+03
 0.136068264115606D+03 -.000000000000000D+00 -.000000000000000D+00 -.136068264115606D+03
 0.126847095809613D+03 -.403319255472547D+01 0.598413962406356D+00 0.211792581050251D+02
 0.969620677797806D+02 -.409633874861062D+02 -.140949487633420D+02 -.325232215314244D+02
 0.483273646418189D+02 0.449965800408318D+02 0.134965348009356D+02 0.113439634263993D+02
 0.000000000000000D+00 0.000000000000000D+00 -.000000000000000D+00 0.000000000000000D+00
 0.136068264115606D+03 0.000000000000000D+00 0.000000000000000D+00 0.136068264115606D+03
 0.136068264115606D+03 -.000000000000000D+00 -.000000000000000D+00 -.136068264115606D+03
 0.126875758944562D+03 -.249922233995098D+01 0.105852187213006D+01 0.215659830960755D+02
 0.963246362923957D+02 -.397948051475309D+02 -.137444374092340D+02 -.322286134679337D+02
 0.296849709626522D+01 -.107218107016943D+01 0.264701293134066D+01 -.809768673523756D+00
 0.459676358979901D+02 0.433662085576513D+02 0.100389026057632D+02 0.114723990453820D+02
0.618111878795D-03 0.000000000000D+00 0.000000000000D+00 0.112109088203D-04 0.000000000000D+00  6 -1 2 25 24 21 21 2 0.22081607D-01 0.19845237D-01 0.17343368D+05 0.17343368D+05 0.17343368D+05 0.12406991D+01  1  2  2  3  6  5       21 0.496195170577D+00 0.100000000000D+01
0.489324570444D-05 0.326186599911D-04 -.237371236717D-05 0.112109088203D-04 0.000000000000D+00  6 -1 2 25 24 21 21 4 0.22081607D-01 0.19845237D-01 0.17343368D+05 0.17343368D+05 0.17343368D+05 0.12406991D+01  1  2  3  3  6  5       21 0.604665769937D-02 0.100000000000D+01
0.284918331486D-04 0.000000000000D+00 0.000000000000D+00 0.112109088203D-04 0.000000000000D+00  6 -1 2 25 24 21 21 4 0.22081607D-01 0.19845237D-01 0.17343368D+05 0.17343368D+05 0.17343368D+05 0.12406991D+01  1  2 15  3  6  5       21 0.352077889980D-01 0.100000000000D+01
0.104237534591D-06 0.000000000000D+00 0.000000000000D+00 0.112123579182D-04 0.000000000000D+00  6 -1 2 25 24 21 21 4 0.22081607D-01 0.19845237D-01 0.17314805D+05 0.17314805D+05 0.17314805D+05 0.12407793D+01  1  2 12  3  6  5       21 0.128834483917D-03 0.100000000000D+01
0.123923839803D-06 0.000000000000D+00 0.000000000000D+00 0.112123579182D-04 0.000000000000D+00  6 -1 2 25 24 21 21 4 0.22081607D-01 0.19845237D-01 0.17314805D+05 0.17314805D+05 0.17314805D+05 0.12407793D+01  1  2 12  3  6  5       21 0.153166170023D-03 0.100000000000D+01
-.128080897769D-03 0.000000000000D+00 0.000000000000D+00 0.112109088203D-04 0.000000000000D+00  6 -1 2 25 24 21 21 4 0.22081607D-01 0.19845237D-01 0.17343368D+05 0.17343368D+05 0.17343368D+05 0.12406991D+01  1  2  4  3  6  5       21 -.158271501865D+00 0.100000000000D+01
0.659006730457D-05 0.000000000000D+00 0.000000000000D+00 0.112109088203D-04 0.522650438978D-05  6 -1 2 25 24 21 21 4 0.22081607D-01 0.19845237D-01 0.17314805D+05 0.17314805D+05 0.17314805D+05 0.12407793D+01  1  2 11  3  6  5       21 0.814512664263D-02 0.100000000000D+01
0.119215835078D-06 0.000000000000D+00 0.000000000000D+00 0.112123579182D-04 0.000000000000D+00  6 -1 2 25 24 1 -1 4 0.22081607D-01 0.19845237D-01 0.17314805D+05 0.17314805D+05 0.17314805D+05 0.12407793D+01  1  2 12  6  6  5       21 0.147347216597D-03 0.100000000000D+01
0.122277794680D-06 0.000000000000D+00 0.000000000000D+00 0.112123579182D-04 0.000000000000D+00  6 -1 2 25 24 1 -1 4 0.22081607D-01 0.19845237D-01 0.17314805D+05 0.17314805D+05 0.17314805D+05 0.12407793D+01  1  2 12  6  6  5       21 0.151131707344D-03 0.100000000000D+01
0.178787673005D-04 0.000000000000D+00 0.000000000000D+00 0.112123579182D-04 0.523315413427D-07  6 -1 2 25 24 1 -1 4 0.22081607D-01 0.19845237D-01 0.17314805D+05 0.17314805D+05 0.17314805D+05 0.12407793D+01  1  2 11  6  6  5       21 0.220976231572D-01 0.100000000000D+01
0.119215835078D-06 0.000000000000D+00 0.000000000000D+00 0.112123579182D-04 0.000000000000D+00  6 -1 2 25 24 2 -2 4 0.22081607D-01 0.19845237D-01 0.17314805D+05 0.17314805D+05 0.17314805D+05 0.12407793D+01  1  2 12  7  6  5       21 0.147347216597D-03 0.100000000000D+01
0.122277794680D-06 0.000000000000D+00 0.000000000000D+00 0.112123579182D-04 0.000000000000D+00  6 -1 2 25 24 2 -2 4 0.22081607D-01 0.19845237D-01 0.17314805D+05 0.17314805D+05 0.17314805D+05 0.12407793D+01  1  2 12  7  6  5       21 0.151131707344D-03 0.100000000000D+01
0.139043545307D-04 0.000000000000D+00 0.000000000000D+00 0.112123579182D-04 0.575553291880D-07  6 -1 2 25 24 2 -2 4 0.22081607D-01 0.19845237D-01 0.17314805D+05 0.17314805D+05 0.17314805D+05 0.12407793D+01  1  2 11  7  6  5       21 0.171853675088D-01 0.100000000000D+01
0.119215835078D-06 0.000000000000D+00 0.000000000000D+00 0.112123579182D-04 0.000000000000D+00  6 -1 2 25 24 3 -3 4 0.22081607D-01 0.19845237D-01 0.17314805D+05 0.17314805D+05 0.17314805D+05 0.12407793D+01  1  2 12  8  6  5       21 0.147347216597D-03 0.100000000000D+01
0.119215835078D-06 0.000000000000D+00 0.000000000000D+00 0.112123579182D-04 0.000000000000D+00  6 -1 2 25 24 4 -4 4 0.22081607D-01 0.19845237D-01 0.17314805D+05 0.17314805D+05 0.17314805D+05 0.12407793D+01  1  2 12  8  6  5       21 0.147347216597D-03 0.100000000000D+01
0.122277794680D-06 0.000000000000D+00 0.000000000000D+00 0.112123579182D-04 0.000000000000D+00  6 -1 2 25 24 3 -3 4 0.22081607D-01 0.19845237D-01 0.17314805D+05 0.17314805D+05 0.17314805D+05 0.12407793D+01  1  2 12  8  6  5       21 0.151131707344D-03 0.100000000000D+01
0.122277794680D-06 0.000000000000D+00 0.000000000000D+00 0.112123579182D-04 0.000000000000D+00  6 -1 2 25 24 4 -4 4 0.22081607D-01 0.19845237D-01 0.17314805D+05 0.17314805D+05 0.17314805D+05 0.12407793D+01  1  2 12  8  6  5       21 0.151131707344D-03 0.100000000000D+01
0.177881497586D-04 0.000000000000D+00 0.000000000000D+00 0.112123579182D-04 0.517233202467D-07  6 -1 2 25 24 3 -3 4 0.22081607D-01 0.19845237D-01 0.17314805D+05 0.17314805D+05 0.17314805D+05 0.12407793D+01  1  2 11  8  6  5       21 0.219856225780D-01 0.100000000000D+01
0.177881497586D-04 0.000000000000D+00 0.000000000000D+00 0.112123579182D-04 0.517233202467D-07  6 -1 2 25 24 4 -4 4 0.22081607D-01 0.19845237D-01 0.17314805D+05 0.17314805D+05 0.17314805D+05 0.12407793D+01  1  2 11  8  6  5       21 0.219856225780D-01 0.100000000000D+01
  </mgrwgt>
  </event>
  <event>
  5     66 0.43535451E-03 0.47242344E+02 0.75467711E-02 0.11929282E+00
       -1 -1    0    0    0  501 0.00000000E+00 0.00000000E+00 0.31973961E+02 0.31975562E+02 0.32000000E+00 0.0000E+00 0.9000E+01
        2 -1    0    0  502    0 0.00000000E+00 0.00000000E+00 -.16118419E+04 0.16118419E+04 0.32000000E+00 0.0000E+00 0.9000E+01
       25  1    1    2    0    0 -.26318626E+02 0.23518678E+02 -.10248557E+04 0.10330537E+04 0.12500000E+03 0.0000E+00 0.9000E+01
       24  1    1    2    0    0 -.32274511E+01 0.13343838E+02 -.55751210E+03 0.56344958E+03 0.80419002E+02 0.0000E+00 0.9000E+01
       21  1    1    2  502  501 0.29546077E+02 -.36862515E+02 0.24999058E+01 0.47314139E+02 0.75000000E+00 0.0000E+00 0.9000E+01
#aMCatNLO 1  0  0  2  5 0.44821229D+02 0.00000000D+00  -5  6  0 0.00000000D+00 0.00000000D+00 0.00000000D+00 0.00000000D+00 0.00000000D+00
  <mgrwgt>
 0.2107629149D+00    9    4    0
 0.227020507106109D+03 0.000000000000000D+00 0.000000000000000D+00 0.227020507106109D+03
 0.227020507106109D+03 0.000000000000000D+00 0.000000000000000D+00 -.227020507106109D+03
 0.174026823751382D+03 -.263187238925873D+02 0.235188002033496D+02 -.115821095637433D+03
 0.100019334888594D+03 -.322750761911207D+01 0.133439083326882D+02 -.578634141938029D+02
 0.179994855572242D+03 0.295462315116994D+02 -.368627085360378D+02 0.173684509831236D+03
 0.000000000000000D+00 -.000000000000000D+00 -.000000000000000D+00 -.000000000000000D+00
 0.250096046325600D+03 0.000000000000000D+00 0.000000000000000D+00 0.250096046325600D+03
 0.250981878209737D+03 0.000000000000000D+00 0.000000000000000D+00 -.250981878209737D+03
 0.172860388675111D+03 -.967213883958364D+01 0.273429608587439D+02 -.115821095637433D+03
 0.100489900803710D+03 0.639462293599449D+01 0.155543660916066D+02 -.578634141938029D+02
 0.182897653163412D+03 0.469608861757022D+02 -.328621019863273D+02 0.173684509831236D+03
 0.448299818931041D+02 -.436833702721131D+02 -.100352249640232D+02 -.885831884137247D+00
 0.227020507106109D+03 0.000000000000000D+00 0.000000000000000D+00 0.227020507106109D+03
 0.227020507106109D+03 0.000000000000000D+00 0.000000000000000D+00 -.227020507106109D+03
 0.174026823751382D+03 -.263187238925873D+02 0.235188002033496D+02 -.115821095637433D+03
 0.100019334888594D+03 -.322750761911207D+01 0.133439083326882D+02 -.578634141938029D+02
 0.000000000000000D+00 -.000000000000000D+00 -.000000000000000D+00 -.000000000000000D+00
 0.179994855572242D+03 0.295462315116994D+02 -.368627085360378D+02 0.173684509831236D+03
 0.250096046325600D+03 0.000000000000000D+00 0.000000000000000D+00 0.250096046325600D+03
 0.250981878209737D+03 0.000000000000000D+00 0.000000000000000D+00 -.250981878209737D+03
 0.172860388675111D+03 -.967213883958364D+01 0.273429608587439D+02 -.115821095637433D+03
 0.100489900803710D+03 0.639462293599449D+01 0.155543660916066D+02 -.578634141938029D+02
 0.448299818931041D+02 -.436833702721131D+02 -.100352249640232D+02 -.885831884137247D+00
 0.182897653163412D+03 0.469608861757022D+02 -.328621019863273D+02 0.173684509831236D+03
0.140278893990D-03 0.000000000000D+00 0.000000000000D+00 0.291408385543D-04 0.000000000000D+00  6 -1 2 25 24 21 21 2 0.49191965D-02 0.24797580D+00 0.16733033D+05 0.16733033D+05 0.16733033D+05 0.12424454D+01  1  2  2  2  6  2        2 0.528939616810D-01 0.100000000000D+01
0.731820006432D-05 0.740272061414D-05 -.538707889204D-06 0.291408385543D-04 0.000000000000D+00  6 -1 2 25 24 21 21 4 0.49191965D-02 0.24797580D+00 0.16733033D+05 0.16733033D+05 0.16733033D+05 0.12424454D+01  1  2  3  2  6  2        2 0.425963802557D-02 0.100000000000D+01
0.829925785829D-05 0.000000000000D+00 0.000000000000D+00 0.291408385543D-04 0.000000000000D+00  6 -1 2 25 24 21 21 4 0.49191965D-02 0.24797580D+00 0.16733033D+05 0.16733033D+05 0.16733033D+05 0.12424454D+01  1  2 15  2  6  2        2 0.483067339598D-02 0.100000000000D+01
0.247566423723D-03 0.000000000000D+00 0.000000000000D+00 0.282990316911D-04 0.000000000000D+00  6 -1 2 25 24 21 21 4 0.49191965D-02 0.28890603D+00 0.24432436D+05 0.24432436D+05 0.24432436D+05 0.12243683D+01  1  2 12  2  6  2        2 0.991589347351D-01 0.100000000000D+01
-.139337036988D-03 0.000000000000D+00 0.000000000000D+00 0.291408385543D-04 0.000000000000D+00  6 -1 2 25 24 21 21 4 0.49191965D-02 0.24797580D+00 0.16733033D+05 0.16733033D+05 0.16733033D+05 0.12424454D+01  1  2  4  2  6  2        2 -.811026394343D-01 0.100000000000D+01
-.716422053428D-03 0.000000000000D+00 -.245891018972D-03 0.291408385543D-04 0.000000000000D+00  6 -1 2 25 24 21 21 4 0.49191965D-02 0.28958245D+00 0.16733033D+05 0.16733033D+05 0.16733033D+05 0.12424454D+01  1  2  5  2  6  2        2 -.303396746472D+00 0.100000000000D+01
0.748468808339D-03 0.000000000000D+00 0.242962465101D-03 0.291408385543D-04 0.000000000000D+00  6 -1 2 25 24 21 21 4 0.49191965D-02 0.24797580D+00 0.16733033D+05 0.16733033D+05 0.16733033D+05 0.12424454D+01  1  2  6  2  6  2        2 0.435654418973D+00 0.100000000000D+01
0.573137140529D-05 0.000000000000D+00 0.000000000000D+00 0.282990316911D-04 0.000000000000D+00  6 -1 21 25 24 -2 21 4 0.49191965D-02 0.28890603D+00 0.24432436D+05 0.24432436D+05 0.24432436D+05 0.12243683D+01  3  4 12  5  5  2        2 0.839363824869D-03 0.100000000000D+01
-.149778296850D-04 0.000000000000D+00 -.576269080749D-05 0.291408385543D-04 0.000000000000D+00  6 -1 21 25 24 -2 21 4 0.49191965D-02 0.28958245D+00 0.16733033D+05 0.16733033D+05 0.16733033D+05 0.12424454D+01  3  4  5  5  5  2        2 -.237468983825D-02 0.100000000000D+01
  </mgrwgt>
  </event>
  <event>
  5     66 0.43535451E-03 0.42999543E+02 0.75467711E-02 0.11737913E+00
       -1 -1    0    0    0  501 0.00000000E+00 0.00000000E+00 0.16510262E+02 0.16513363E+02 0.32000000E+00 0.0000E+00 0.9000E+01
        2 -1    0    0  502    0 -.00000000E+00 -.00000000E+00 -.23198374E+04 0.23198374E+04 0.32000000E+00 0.0000E+00 0.9000E+01
       25  1    1    2    0    0 0.62221770E+02 0.79172553E+02 -.11153318E+04 0.11268229E+04 0.12500000E+03 0.0000E+00 0.9000E+01
       24  1    1    2    0    0 -.97998047E+02 -.55320911E+02 -.11236721E+04 0.11321529E+04 0.80419002E+02 0.0000E+00 0.9000E+01
       21  1    1    2  502  501 0.35776277E+02 -.23851643E+02 -.64323228E+02 0.77374950E+02 0.75000000E+00 0.0000E+00 0.9000E+01
#aMCatNLO 1  0  0  5  1 0.11550469D+02 0.00000000D+00  -5  6  0 0.00000000D+00 0.00000000D+00 0.00000000D+00 0.00000000D+00 0.00000000D+00
  <mgrwgt>
 0.2225206245D+00   20    2    0
 0.195716046115012D+03 0.000000000000000D+00 0.000000000000000D+00 0.195716046115012D+03
 0.195716046115012D+03 -.000000000000000D+00 -.000000000000000D+00 -.195716046115012D+03
 0.162683760377656D+03 0.622211678452274D+02 0.791729547434599D+02 -.264797167617147D+02
 0.145420190591652D+03 -.979985851862171D+02 -.553205517463950D+02 -.448968788816769D+02
 0.833281412607168D+02 0.357774173409898D+02 -.238524029970648D+02 0.713765956433916D+02
 0.000000000000000D+00 0.000000000000000D+00 0.000000000000000D+00 0.000000000000000D+00
 0.195716046115012D+03 0.000000000000000D+00 0.000000000000000D+00 0.195716046115012D+03
 0.195716046115012D+03 -.000000000000000D+00 -.000000000000000D+00 -.195716046115012D+03
 0.162478100419233D+03 0.630329621668491D+02 0.786317405712489D+02 -.248601723857820D+02
 0.144677592794187D+03 -.972743313248001D+02 -.558034036753102D+02 -.434519793095019D+02
 0.209954013305081D+02 -.161635649328328D+01 -.116687548147168D+02 0.173791377746350D+02
 0.632809976860963D+02 0.358577256512343D+02 -.111595820812219D+02 0.509330139206488D+02
0.274991060070D-03 0.000000000000D+00 0.000000000000D+00 0.116567538710D-04 0.000000000000D+00  6 -1 2 25 24 21 21 2 0.25402805D-02 0.35689830D+00 0.29211897D+05 0.29211897D+05 0.29211897D+05 0.12161137D+01  1  2  2  3  6  5       21 0.112800053671D+00 0.100000000000D+01
0.160130842972D-04 0.145116769257D-04 -.105603807748D-05 0.116567538710D-04 0.000000000000D+00  6 -1 2 25 24 21 21 4 0.25402805D-02 0.35689830D+00 0.29211897D+05 0.29211897D+05 0.29211897D+05 0.12161137D+01  1  2  3  3  6  5       21 0.971435744402D-02 0.100000000000D+01
0.105888533142D-04 0.000000000000D+00 0.000000000000D+00 0.116567538710D-04 0.000000000000D+00  6 -1 2 25 24 21 21 4 0.25402805D-02 0.35689830D+00 0.29211897D+05 0.29211897D+05 0.29211897D+05 0.12161137D+01  1  2 15  3  6  5       21 0.642374099251D-02 0.100000000000D+01
0.450466525851D-04 0.000000000000D+00 0.000000000000D+00 0.116259923238D-04 0.000000000000D+00  6 -1 2 25 24 21 21 4 0.25402805D-02 0.35689830D+00 0.30258178D+05 0.30258178D+05 0.30258178D+05 0.12145080D+01  1  2 12  3  6  5       21 0.271781343346D-01 0.100000000000D+01
0.630907780248D-04 0.000000000000D+00 0.000000000000D+00 0.116259923238D-04 0.000000000000D+00  6 -1 2 25 24 21 21 4 0.25402805D-02 0.35689830D+00 0.30258178D+05 0.30258178D+05 0.30258178D+05 0.12145080D+01  1  2 12  3  6  5       21 0.380647515860D-01 0.100000000000D+01
-.317728474498D-03 0.000000000000D+00 0.000000000000D+00 0.116567538710D-04 0.000000000000D+00  6 -1 2 25 24 21 21 4 0.25402805D-02 0.35689830D+00 0.29211897D+05 0.29211897D+05 0.29211897D+05 0.12161137D+01  1  2  4  3  6  5       21 -.192750373016D+00 0.100000000000D+01
-.102668595957D-03 0.000000000000D+00 0.000000000000D+00 0.116567538710D-04 0.000000000000D+00  6 -1 2 25 24 21 21 4 0.25402805D-02 0.35689830D+00 0.29211897D+05 0.29211897D+05 0.29211897D+05 0.12161137D+01  1  2  5  3  6  5       21 -.622840310394D-01 0.100000000000D+01
0.495103740231D-03 0.000000000000D+00 -.000000000000D+00 0.116567538710D-04 0.000000000000D+00  6 -1 2 25 24 21 21 4 0.25402805D-02 0.35689830D+00 0.29211897D+05 0.29211897D+05 0.29211897D+05 0.12161137D+01  1  2  6  3  6  5       21 0.300355297906D+00 0.100000000000D+01
0.752293207488D-05 0.000000000000D+00 0.000000000000D+00 0.116259923238D-04 0.000000000000D+00  6 -1 2 25 24 1 -1 4 0.25402805D-02 0.35689830D+00 0.30258178D+05 0.30258178D+05 0.30258178D+05 0.12145080D+01  1  2 12  6  6  5       21 0.453883356005D-02 0.100000000000D+01
0.961415738342D-05 0.000000000000D+00 0.000000000000D+00 0.116259923238D-04 0.000000000000D+00  6 -1 2 25 24 1 -1 4 0.25402805D-02 0.35689830D+00 0.30258178D+05 0.30258178D+05 0.30258178D+05 0.12145080D+01  1  2 12  6  6  5       21 0.580053890546D-02 0.100000000000D+01
-.240413244763D-04 0.000000000000D+00 0.000000000000D+00 0.116567538710D-04 0.000000000000D+00  6 -1 2 25 24 1 -1 4 0.25402805D-02 0.35689830D+00 0.29211897D+05 0.29211897D+05 0.29211897D+05 0.12161137D+01  1  2  5  6  6  5       21 -.145846993032D-01 0.100000000000D+01
0.752293207488D-05 0.000000000000D+00 0.000000000000D+00 0.116259923238D-04 0.000000000000D+00  6 -1 2 25 24 2 -2 4 0.25402805D-02 0.35689830D+00 0.30258178D+05 0.30258178D+05 0.30258178D+05 0.12145080D+01  1  2 12  7  6  5       21 0.453883356005D-02 0.100000000000D+01
0.961415738342D-05 0.000000000000D+00 0.000000000000D+00 0.116259923238D-04 0.000000000000D+00  6 -1 2 25 24 2 -2 4 0.25402805D-02 0.35689830D+00 0.30258178D+05 0.30258178D+05 0.30258178D+05 0.12145080D+01  1  2 12  7  6  5       21 0.580053890546D-02 0.100000000000D+01
-.240413244763D-04 0.000000000000D+00 0.000000000000D+00 0.116567538710D-04 0.000000000000D+00  6 -1 2 25 24 2 -2 4 0.25402805D-02 0.35689830D+00 0.29211897D+05 0.29211897D+05 0.29211897D+05 0.12161137D+01  1  2  5  7  6  5       21 -.145846993032D-01 0.100000000000D+01
0.752293207488D-05 0.000000000000D+00 0.000000000000D+00 0.116259923238D-04 0.000000000000D+00  6 -1 2 25 24 3 -3 4 0.25402805D-02 0.35689830D+00 0.30258178D+05 0.30258178D+05 0.30258178D+05 0.12145080D+01  1  2 12  8  6  5       21 0.453883356005D-02 0.100000000000D+01
0.752293207488D-05 0.000000000000D+00 0.000000000000D+00 0.116259923238D-04 0.000000000000D+00  6 -1 2 25 24 4 -4 4 0.25402805D-02 0.35689830D+00 0.30258178D+05 0.30258178D+05 0.30258178D+05 0.12145080D+01  1  2 12  8  6  5       21 0.453883356005D-02 0.100000000000D+01
0.961415738342D-05 0.000000000000D+00 0.000000000000D+00 0.116259923238D-04 0.000000000000D+00  6 -1 2 25 24 3 -3 4 0.25402805D-02 0.35689830D+00 0.30258178D+05 0.30258178D+05 0.30258178D+05 0.12145080D+01  1  2 12  8  6  5       21 0.580053890546D-02 0.100000000000D+01
0.961415738342D-05 0.000000000000D+00 0.000000000000D+00 0.116259923238D-04 0.000000000000D+00  6 -1 2 25 24 4 -4 4 0.25402805D-02 0.35689830D+00 0.30258178D+05 0.30258178D+05 0.30258178D+05 0.12145080D+01  1  2 12  8  6  5       21 0.580053890546D-02 0.100000000000D+01
-.240413244763D-04 0.000000000000D+00 0.000000000000D+00 0.116567538710D-04 0.000000000000D+00  6 -1 2 25 24 3 -3 4 0.25402805D-02 0.35689830D+00 0.29211897D+05 0.29211897D+05 0.29211897D+05 0.12161137D+01  1  2  5  8  6  5       21 -.145846993032D-01 0.100000000000D+01
-.240413244763D-04 0.000000000000D+00 0.000000000000D+00 0.116567538710D-04 0.000000000000D+00  6 -1 2 25 24 4 -4 4 0.25402805D-02 0.35689830D+00 0.29211897D+05 0.29211897D+05 0.29211897D+05 0.12161137D+01  1  2  5  8  6  5       21 -.145846993032D-01 0.100000000000D+01
  </mgrwgt>
  </event>
  <event>
  5     66 0.43535451E-03 0.20891255E+02 0.75467711E-02 0.12333919E+00
       -1 -1    0    0    0  501 0.00000000E+00 0.00000000E+00 0.23750113E+02 0.23752269E+02 0.32000000E+00 0.0000E+00 0.9000E+01
        2 -1    0    0  502    0 -.00000000E+00 -.00000000E+00 -.14117659E+04 0.14117659E+04 0.32000000E+00 0.0000E+00 0.9000E+01
       25  1    1    2    0    0 0.12614385E+02 -.61240048E+02 -.85586732E+03 0.86720432E+03 0.12500000E+03 0.0000E+00 0.9000E+01
       24  1    1    2    0    0 -.13795351E+01 0.43628647E+02 -.99561979E+02 0.13522265E+03 0.80419002E+02 0.0000E+00 0.9000E+01
       21  1    1    2  502  501 -.11234850E+02 0.17611401E+02 -.43258650E+03 0.43309124E+03 0.75000000E+00 0.0000E+00 0.9000E+01
#aMCatNLO 1  0  0  5  2 0.14537870D+01 0.00000000D+00  -5  6  0 0.00000000D+00 0.00000000D+00 0.00000000D+00 0.00000000D+00 0.00000000D+00
  <mgrwgt>
 0.2795969611D+00   20    2    0
 0.183115191877150D+03 0.000000000000000D+00 0.000000000000000D+00 0.183115191877150D+03
 0.183115191877150D+03 -.000000000000000D+00 -.000000000000000D+00 -.183115191877150D+03
 0.155448692390076D+03 0.126147823992452D+02 -.612406710249506D+02 -.680422180944886D+02
 0.152694776736942D+03 -.137914460857278D+01 0.436280345098528D+02 0.122242265413113D+03
 0.580869146272825D+02 -.112356377906724D+02 0.176126365150978D+02 -.542000473186239D+02
 0.000000000000000D+00 0.000000000000000D+00 0.000000000000000D+00 -.000000000000000D+00
 0.183115191877150D+03 0.000000000000000D+00 0.000000000000000D+00 0.183115191877150D+03
 0.183115191877150D+03 -.000000000000000D+00 -.000000000000000D+00 -.183115191877150D+03
 0.155495629411037D+03 0.125816215946119D+02 -.611886891784871D+02 -.682021838404244D+02
 0.152583975239762D+03 -.141170120582582D+01 0.436790692196102D+02 0.122085214327582D+03
 0.294080782036726D+01 -.115146760508306D+01 0.196228767245150D+01 -.186330353977079D+01
 0.552099712831346D+02 -.100184527837030D+02 0.155473322864254D+02 -.520197269473873D+02
0.102900758126D-03 0.000000000000D+00 0.000000000000D+00 0.308165125943D-04 0.000000000000D+00  6 -1 2 25 24 21 21 2 0.36540322D-02 0.21719492D+00 0.15896017D+05 0.15896017D+05 0.15896017D+05 0.12449602D+01  1  2  2  3  6  5       21 0.765444997348D-01 0.100000000000D+01
0.112434710467D-04 0.543022219325D-05 -.395166005597D-06 0.308165125943D-04 0.000000000000D+00  6 -1 2 25 24 21 21 4 0.36540322D-02 0.21719492D+00 0.15896017D+05 0.15896017D+05 0.15896017D+05 0.12449602D+01  1  2  3  3  6  5       21 0.129630376189D-01 0.100000000000D+01
0.222807274185D-05 0.000000000000D+00 0.000000000000D+00 0.308165125943D-04 0.000000000000D+00  6 -1 2 25 24 21 21 4 0.36540322D-02 0.21719492D+00 0.15896017D+05 0.15896017D+05 0.15896017D+05 0.12449602D+01  1  2 15  3  6  5       21 0.256883222718D-02 0.100000000000D+01
0.719517636802D-09 0.000000000000D+00 0.000000000000D+00 0.308188556276D-04 0.000000000000D+00  6 -1 2 25 24 21 21 4 0.36540322D-02 0.21719492D+00 0.15880721D+05 0.15880721D+05 0.15880721D+05 0.12450076D+01  1  2 12  3  6  5       21 0.829675692403D-06 0.100000000000D+01
0.527309769361D-09 0.000000000000D+00 0.000000000000D+00 0.308188556276D-04 0.000000000000D+00  6 -1 2 25 24 21 21 4 0.36540322D-02 0.21719492D+00 0.15880721D+05 0.15880721D+05 0.15880721D+05 0.12450076D+01  1  2 12  3  6  5       21 0.608040825726D-06 0.100000000000D+01
-.129124094017D-03 0.000000000000D+00 0.000000000000D+00 0.308165125943D-04 0.000000000000D+00  6 -1 2 25 24 21 21 4 0.36540322D-02 0.21719492D+00 0.15896017D+05 0.15896017D+05 0.15896017D+05 0.12449602D+01  1  2  4  3  6  5       21 -.148872219378D+00 0.100000000000D+01
-.829023322526D-05 0.000000000000D+00 0.000000000000D+00 0.308165125943D-04 0.000000000000D+00  6 -1 2 25 24 21 21 4 0.36540322D-02 0.21719492D+00 0.15896017D+05 0.15896017D+05 0.15896017D+05 0.12449602D+01  1  2  5  3  6  5       21 -.955813420265D-02 0.100000000000D+01
0.366496028664D-03 0.000000000000D+00 -.000000000000D+00 0.308165125943D-04 0.000000000000D+00  6 -1 2 25 24 21 21 4 0.36540322D-02 0.21719492D+00 0.15896017D+05 0.15896017D+05 0.15896017D+05 0.12449602D+01  1  2  6  3  6  5       21 0.422547608919D+00 0.100000000000D+01
0.146676452960D-08 0.000000000000D+00 0.000000000000D+00 0.308188556276D-04 0.000000000000D+00  6 -1 2 25 24 1 -1 4 0.36540322D-02 0.21719492D+00 0.15880721D+05 0.15880721D+05 0.15880721D+05 0.12450076D+01  1  2 12  6  6  5       21 0.169132598625D-05 0.100000000000D+01
0.137876399052D-08 0.000000000000D+00 0.000000000000D+00 0.308188556276D-04 0.000000000000D+00  6 -1 2 25 24 1 -1 4 0.36540322D-02 0.21719492D+00 0.15880721D+05 0.15880721D+05 0.15880721D+05 0.12450076D+01  1  2 12  6  6  5       21 0.158985257621D-05 0.100000000000D+01
-.166121577578D-04 0.000000000000D+00 0.000000000000D+00 0.308165125943D-04 0.000000000000D+00  6 -1 2 25 24 1 -1 4 0.36540322D-02 0.21719492D+00 0.15896017D+05 0.15896017D+05 0.15896017D+05 0.12449602D+01  1  2  5  6  6  5       21 -.191528065532D-01 0.100000000000D+01
0.146676452960D-08 0.000000000000D+00 0.000000000000D+00 0.308188556276D-04 0.000000000000D+00  6 -1 2 25 24 2 -2 4 0.36540322D-02 0.21719492D+00 0.15880721D+05 0.15880721D+05 0.15880721D+05 0.12450076D+01  1  2 12  7  6  5       21 0.169132598625D-05 0.100000000000D+01
0.137876399052D-08 0.000000000000D+00 0.000000000000D+00 0.308188556276D-04 0.000000000000D+00  6 -1 2 25 24 2 -2 4 0.36540322D-02 0.21719492D+00 0.15880721D+05 0.15880721D+05 0.15880721D+05 0.12450076D+01  1  2 12  7  6  5       21 0.158985257621D-05 0.100000000000D+01
-.166121577578D-04 0.000000000000D+00 0.000000000000D+00 0.308165125943D-04 0.000000000000D+00  6 -1 2 25 24 2 -2 4 0.36540322D-02 0.21719492D+00 0.15896017D+05 0.15896017D+05 0.15896017D+05 0.12449602D+01  1  2  5  7  6  5       21 -.191528065532D-01 0.100000000000D+01
0.146676452960D-08 0.000000000000D+00 0.000000000000D+00 0.308188556276D-04 0.000000000000D+00  6 -1 2 25 24 3 -3 4 0.36540322D-02 0.21719492D+00 0.15880721D+05 0.15880721D+05 0.15880721D+05 0.12450076D+01  1  2 12  8  6  5       21 0.169132598625D-05 0.100000000000D+01
0.146676452960D-08 0.000000000000D+00 0.000000000000D+00 0.308188556276D-04 0.000000000000D+00  6 -1 2 25 24 4 -4 4 0.36540322D-02 0.21719492D+00 0.15880721D+05 0.15880721D+05 0.15880721D+05 0.12450076D+01  1  2 12  8  6  5       21 0.169132598625D-05 0.100000000000D+01
0.137876399052D-08 0.000000000000D+00 0.000000000000D+00 0.308188556276D-04 0.000000000000D+00  6 -1 2 25 24 3 -3 4 0.36540322D-02 0.21719492D+00 0.15880721D+05 0.15880721D+05 0.15880721D+05 0.12450076D+01  1  2 12  8  6  5       21 0.158985257621D-05 0.100000000000D+01
0.137876399052D-08 0.000000000000D+00 0.000000000000D+00 0.308188556276D-04 0.000000000000D+00  6 -1 2 25 24 4 -4 4 0.36540322D-02 0.21719492D+00 0.15880721D+05 0.15880721D+05 0.15880721D+05 0.12450076D+01  1  2 12  8  6  5       21 0.158985257621D-05 0.100000000000D+01
-.166121577578D-04 0.000000000000D+00 0.000000000000D+00 0.308165125943D-04 0.000000000000D+00  6 -1 2 25 24 3 -3 4 0.36540322D-02 0.21719492D+00 0.15896017D+05 0.15896017D+05 0.15896017D+05 0.12449602D+01  1  2  5  8  6  5       21 -.191528065532D-01 0.100000000000D+01
-.166121577578D-04 0.000000000000D+00 0.000000000000D+00 0.308165125943D-04 0.000000000000D+00  6 -1 2 25 24 4 -4 4 0.36540322D-02 0.21719492D+00 0.15896017D+05 0.15896017D+05 0.15896017D+05 0.12449602D+01  1  2  5  8  6  5       21 -.191528065532D-01 0.100000000000D+01
  </mgrwgt>
  </event>
  <event>
  5     66 0.43535451E-03 0.43839152E+02 0.75467711E-02 0.10553633E+00
       -1 -1    0    0    0  501 0.00000000E+00 0.00000000E+00 0.28471831E+03 0.28471849E+03 0.32000000E+00 0.0000E+00 0.9000E+01
        2 -1    0    0  502    0 -.00000000E+00 -.00000000E+00 -.57143601E+03 0.57143610E+03 0.32000000E+00 0.0000E+00 0.9000E+01
       25  1    1    2    0    0 -.30867823E+03 -.27093500E+02 -.16124458E+02 0.33451653E+03 0.12500000E+03 0.0000E+00 0.9000E+01
       24  1    1    2    0    0 0.34925879E+03 0.10514224E+02 -.30111287E+03 0.46821836E+03 0.80419002E+02 0.0000E+00 0.9000E+01
       21  1    1    2  502  501 -.40580559E+02 0.16579276E+02 0.30519633E+02 0.53419703E+02 0.75000000E+00 0.0000E+00 0.9000E+01
#aMCatNLO 1  0  0  5  2 0.10935598D+01 0.00000000D+00  -5  6  0 0.00000000D+00 0.00000000D+00 0.00000000D+00 0.00000000D+00 0.00000000D+00
  <mgrwgt>
 0.3190340319D+00   13    2    0
 0.403358909937749D+03 0.000000000000000D+00 0.000000000000000D+00 0.403358909937749D+03
 0.403358909937749D+03 -.000000000000000D+00 -.000000000000000D+00 -.403358909937749D+03
 0.349283997893839D+03 -.308677149424259D+03 -.270939424318910D+02 0.101777438027858D+03
 0.389893772345710D+03 0.349260001052509D+03 0.105137299801281D+02 -.153156295679623D+03
 0.675400496359494D+02 -.405828516282502D+02 0.165802124517630D+02 0.513788576517651D+02
 0.000000000000000D+00 0.000000000000000D+00 0.000000000000000D+00 -.000000000000000D+00
 0.403358909937749D+03 0.000000000000000D+00 0.000000000000000D+00 0.403358909937749D+03
 0.403358909937749D+03 -.000000000000000D+00 -.000000000000000D+00 -.403358909937749D+03
 0.350074340097141D+03 -.309323837760180D+03 -.268297365032917D+02 0.102596160878108D+03
 0.388899054249724D+03 0.348539860589888D+03 0.108079449351227D+02 -.152244580685882D+03
 0.662673064233191D+02 -.400103380904265D+02 0.152061672160101D+02 0.505895367155163D+02
 0.147711910531375D+01 0.794315260717983D+00 0.815624352158911D+00 -.941116907742489D+00
0.459103306280D-02 0.000000000000D+00 0.000000000000D+00 0.644754591412D-05 0.000000000000D+00  6 -1 2 25 24 21 21 2 0.43802838D-01 0.87913253D-01 0.13561504D+06 0.13561504D+06 0.13561504D+06 0.11516098D+01  1  2  2  3  6  5       21 0.193967273758D+00 0.100000000000D+01
0.114645772683D-02 0.242275470867D-03 -.176307758079D-04 0.644754591412D-05 0.000000000000D+00  6 -1 2 25 24 21 21 4 0.43802838D-01 0.87913253D-01 0.13561504D+06 0.13561504D+06 0.13561504D+06 0.11516098D+01  1  2  3  3  6  5       21 0.642372254233D-01 0.100000000000D+01
0.737328200870D-04 0.000000000000D+00 0.000000000000D+00 0.644754591412D-05 0.000000000000D+00  6 -1 2 25 24 21 21 4 0.43802838D-01 0.87913253D-01 0.13561504D+06 0.13561504D+06 0.13561504D+06 0.11516098D+01  1  2 15  3  6  5       21 0.413132702078D-02 0.100000000000D+01
-.544687669905D-01 0.000000000000D+00 0.000000000000D+00 0.644754591412D-05 0.000000000000D+00  6 -1 2 25 24 21 21 4 0.43802838D-01 0.87913253D-01 0.13561504D+06 0.13561504D+06 0.13561504D+06 0.11516098D+01  1  2  4  3  6  5       21 -.305194197904D+01 0.100000000000D+01
0.552214362155D-01 0.000000000000D+00 0.000000000000D+00 0.644754591412D-05 0.160630759295D-04  6 -1 2 25 24 21 21 4 0.43802838D-01 0.87913253D-01 0.13560967D+06 0.13560967D+06 0.13560967D+06 0.11516113D+01  1  2 11  3  6  5       21 0.309413301679D+01 0.100000000000D+01
0.780548258202D-09 0.000000000000D+00 0.000000000000D+00 0.644756304467D-05 0.000000000000D+00  6 -1 2 25 24 1 -1 4 0.43802838D-01 0.87913253D-01 0.13560967D+06 0.13560967D+06 0.13560967D+06 0.11516113D+01  1  2 12  6  6  5       21 0.437351923894D-07 0.100000000000D+01
0.641793204395D-04 0.000000000000D+00 0.000000000000D+00 0.644756304467D-05 0.229480645553D-07  6 -1 2 25 24 1 -1 4 0.43802838D-01 0.87913253D-01 0.13560967D+06 0.13560967D+06 0.13560967D+06 0.11516113D+01  1  2 11  6  6  5       21 0.359605558958D-02 0.100000000000D+01
0.780548258202D-09 0.000000000000D+00 0.000000000000D+00 0.644756304467D-05 0.000000000000D+00  6 -1 2 25 24 2 -2 4 0.43802838D-01 0.87913253D-01 0.13560967D+06 0.13560967D+06 0.13560967D+06 0.11516113D+01  1  2 12  7  6  5       21 0.437351923894D-07 0.100000000000D+01
0.649067292291D-04 0.000000000000D+00 0.000000000000D+00 0.644756304467D-05 0.217046374592D-07  6 -1 2 25 24 2 -2 4 0.43802838D-01 0.87913253D-01 0.13560967D+06 0.13560967D+06 0.13560967D+06 0.11516113D+01  1  2 11  7  6  5       21 0.363681330446D-02 0.100000000000D+01
0.780548258202D-09 0.000000000000D+00 0.000000000000D+00 0.644756304467D-05 0.000000000000D+00  6 -1 2 25 24 3 -3 4 0.43802838D-01 0.87913253D-01 0.13560967D+06 0.13560967D+06 0.13560967D+06 0.11516113D+01  1  2 12  8  6  5       21 0.437351923894D-07 0.100000000000D+01
0.780548258202D-09 0.000000000000D+00 0.000000000000D+00 0.644756304467D-05 0.000000000000D+00  6 -1 2 25 24 4 -4 4 0.43802838D-01 0.87913253D-01 0.13560967D+06 0.13560967D+06 0.13560967D+06 0.11516113D+01  1  2 12  8  6  5       21 0.437351923894D-07 0.100000000000D+01
0.649111689464D-04 0.000000000000D+00 0.000000000000D+00 0.644756304467D-05 0.217016325610D-07  6 -1 2 25 24 3 -3 4 0.43802838D-01 0.87913253D-01 0.13560967D+06 0.13560967D+06 0.13560967D+06 0.11516113D+01  1  2 11  8  6  5       21 0.363706206792D-02 0.100000000000D+01
0.649111689464D-04 0.000000000000D+00 0.000000000000D+00 0.644756304467D-05 0.217016325610D-07  6 -1 2 25 24 4 -4 4 0.43802838D-01 0.87913253D-01 0.13560967D+06 0.13560967D+06 0.13560967D+06 0.11516113D+01  1  2 11  8  6  5       21 0.363706206792D-02 0.100000000000D+01
  </mgrwgt>
  </event>
  <event>
  5     66 0.43535451E-03 0.77590972E+02 0.75467711E-02 0.11316057E+00
       -1 -1    0    0    0  501 0.00000000E+00 0.00000000E+00 0.66200550E+02 0.66201323E+02 0.32000000E+00 0.0000E+00 0.9000E+01
        2 -1    0    0  502    0 -.00000000E+00 -.00000000E+00 -.11684906E+04 0.11684906E+04 0.32000000E+00 0.0000E+00 0.9000E+01
       25  1    1    2    0    0 -.10340489E+03 0.64283242E+02 -.11730193E+03 0.21026090E+03 0.12500000E+03 0.0000E+00 0.9000E+01
       24  1    1    2    0    0 0.15239673E+03 0.29261551E+02 -.65778269E+03 0.68060730E+03 0.80419002E+02 0.0000E+00 0.9000E+01
       21  1    1    2  502  501 -.48991840E+02 -.93544793E+02 -.32720543E+03 0.34382377E+03 0.75000000E+00 0.0000E+00 0.9000E+01
#aMCatNLO 1  0  0  5  2 0.19256439D+02 0.00000000D+00  -5  6  0 0.00000000D+00 0.00000000D+00 0.00000000D+00 0.00000000D+00 0.00000000D+00
  <mgrwgt>
 0.1637777531D+00   20    2    0
 0.278128073523128D+03 0.000000000000000D+00 0.000000000000000D+00 0.278128073523128D+03
 0.278128073523128D+03 -.000000000000000D+00 -.000000000000000D+00 -.278128073523128D+03
 0.234256959064698D+03 -.103404446136464D+03 0.642840827110182D+02 0.156289475331686D+03
 0.207230342270217D+03 0.152397116315427D+03 0.292622954974381D+02 -.111337486068366D+03
 0.114768845711342D+03 -.489926701789624D+02 -.935463782084562D+02 -.449519892633201D+02
 0.000000000000000D+00 0.000000000000000D+00 0.000000000000000D+00 -.000000000000000D+00
 0.278128073523128D+03 0.000000000000000D+00 0.000000000000000D+00 0.278128073523128D+03
 0.278128073523128D+03 -.000000000000000D+00 -.000000000000000D+00 -.278128073523128D+03
 0.232651336486162D+03 -.105804918539699D+03 0.597006317888360D+02 0.154086982401561D+03
 0.206199186344480D+03 0.150271589346687D+03 0.252038241182763D+02 -.113287709747310D+03
 0.220823974202577D+02 -.167799667187195D+02 -.960063185414207D+01 0.106720598173970D+02
 0.953232267953568D+02 -.276867040882683D+02 -.753038240529702D+02 -.514713324716487D+02
0.532409585155D-03 0.000000000000D+00 0.000000000000D+00 0.102872008938D-05 0.000000000000D+00  6 -1 2 25 24 21 21 2 0.10184763D-01 0.17976785D+00 0.51728790D+05 0.51728790D+05 0.51728790D+05 0.11908225D+01  1  2  2  3  6  5       21 0.106265507674D+00 0.100000000000D+01
-.264610825474D-04 0.280960257034D-04 -.204459299366D-05 0.102872008938D-05 0.000000000000D+00  6 -1 2 25 24 21 21 4 0.10184763D-01 0.17976785D+00 0.51728790D+05 0.51728790D+05 0.51728790D+05 0.11908225D+01  1  2  3  3  6  5       21 -.748941924777D-02 0.100000000000D+01
0.190845224305D-04 0.000000000000D+00 0.000000000000D+00 0.102872008938D-05 0.000000000000D+00  6 -1 2 25 24 21 21 4 0.10184763D-01 0.17976785D+00 0.51728790D+05 0.51728790D+05 0.51728790D+05 0.11908225D+01  1  2 15  3  6  5       21 0.540159267366D-02 0.100000000000D+01
0.411381572720D-04 0.000000000000D+00 0.000000000000D+00 0.103159236491D-05 0.000000000000D+00  6 -1 2 25 24 21 21 4 0.10184763D-01 0.17976785D+00 0.49765736D+05 0.49765736D+05 0.49765736D+05 0.11924838D+01  1  2 12  3  6  5       21 0.117100996962D-01 0.100000000000D+01
0.355013924313D-04 0.000000000000D+00 0.000000000000D+00 0.103159236491D-05 0.000000000000D+00  6 -1 2 25 24 21 21 4 0.10184763D-01 0.17976785D+00 0.49765736D+05 0.49765736D+05 0.49765736D+05 0.11924838D+01  1  2 12  3  6  5       21 0.101055776995D-01 0.100000000000D+01
-.205390800605D-03 0.000000000000D+00 0.000000000000D+00 0.102872008938D-05 0.000000000000D+00  6 -1 2 25 24 21 21 4 0.10184763D-01 0.17976785D+00 0.51728790D+05 0.51728790D+05 0.51728790D+05 0.11908225D+01  1  2  4  3  6  5       21 -.581328376346D-01 0.100000000000D+01
-.504265009539D-04 0.000000000000D+00 0.000000000000D+00 0.102872008938D-05 0.000000000000D+00  6 -1 2 25 24 21 21 4 0.10184763D-01 0.17976785D+00 0.51728790D+05 0.51728790D+05 0.51728790D+05 0.11908225D+01  1  2  5  3  6  5       21 -.142724775589D-01 0.100000000000D+01
0.363127187150D-03 0.000000000000D+00 -.000000000000D+00 0.102872008938D-05 0.000000000000D+00  6 -1 2 25 24 21 21 4 0.10184763D-01 0.17976785D+00 0.51728790D+05 0.51728790D+05 0.51728790D+05 0.11908225D+01  1  2  6  3  6  5       21 0.102777796031D+00 0.100000000000D+01
0.957812017125D-05 0.000000000000D+00 0.000000000000D+00 0.103159236491D-05 0.000000000000D+00  6 -1 2 25 24 1 -1 4 0.10184763D-01 0.17976785D+00 0.49765736D+05 0.49765736D+05 0.49765736D+05 0.11924838D+01  1  2 12  6  6  5       21 0.272644059787D-02 0.100000000000D+01
0.886907234197D-05 0.000000000000D+00 0.000000000000D+00 0.103159236491D-05 0.000000000000D+00  6 -1 2 25 24 1 -1 4 0.10184763D-01 0.17976785D+00 0.49765736D+05 0.49765736D+05 0.49765736D+05 0.11924838D+01  1  2 12  6  6  5       21 0.252460800932D-02 0.100000000000D+01
-.120058194401D-04 0.000000000000D+00 0.000000000000D+00 0.102872008938D-05 0.000000000000D+00  6 -1 2 25 24 1 -1 4 0.10184763D-01 0.17976785D+00 0.51728790D+05 0.51728790D+05 0.51728790D+05 0.11908225D+01  1  2  5  6  6  5       21 -.339807016734D-02 0.100000000000D+01
0.957812017125D-05 0.000000000000D+00 0.000000000000D+00 0.103159236491D-05 0.000000000000D+00  6 -1 2 25 24 2 -2 4 0.10184763D-01 0.17976785D+00 0.49765736D+05 0.49765736D+05 0.49765736D+05 0.11924838D+01  1  2 12  7  6  5       21 0.272644059787D-02 0.100000000000D+01
0.886907234197D-05 0.000000000000D+00 0.000000000000D+00 0.103159236491D-05 0.000000000000D+00  6 -1 2 25 24 2 -2 4 0.10184763D-01 0.17976785D+00 0.49765736D+05 0.49765736D+05 0.49765736D+05 0.11924838D+01  1  2 12  7  6  5       21 0.252460800932D-02 0.100000000000D+01
-.120058194401D-04 0.000000000000D+00 0.000000000000D+00 0.102872008938D-05 0.000000000000D+00  6 -1 2 25 24 2 -2 4 0.10184763D-01 0.17976785D+00 0.51728790D+05 0.51728790D+05 0.51728790D+05 0.11908225D+01  1  2  5  7  6  5       21 -.339807016734D-02 0.100000000000D+01
0.957812017125D-05 0.000000000000D+00 0.000000000000D+00 0.103159236491D-05 0.000000000000D+00  6 -1 2 25 24 3 -3 4 0.10184763D-01 0.17976785D+00 0.49765736D+05 0.49765736D+05 0.49765736D+05 0.11924838D+01  1  2 12  8  6  5       21 0.272644059787D-02 0.100000000000D+01
0.957812017125D-05 0.000000000000D+00 0.000000000000D+00 0.103159236491D-05 0.000000000000D+00  6 -1 2 25 24 4 -4 4 0.10184763D-01 0.17976785D+00 0.49765736D+05 0.49765736D+05 0.49765736D+05 0.11924838D+01  1  2 12  8  6  5       21 0.272644059787D-02 0.100000000000D+01
0.886907234197D-05 0.000000000000D+00 0.000000000000D+00 0.103159236491D-05 0.000000000000D+00  6 -1 2 25 24 3 -3 4 0.10184763D-01 0.17976785D+00 0.49765736D+05 0.49765736D+05 0.49765736D+05 0.11924838D+01  1  2 12  8  6  5       21 0.252460800932D-02 0.100000000000D+01
0.886907234197D-05 0.000000000000D+00 0.000000000000D+00 0.103159236491D-05 0.000000000000D+00  6 -1 2 25 24 4 -4 4 0.10184763D-01 0.17976785D+00 0.49765736D+05 0.49765736D+05 0.49765736D+05 0.11924838D+01  1  2 12  8  6  5       21 0.252460800932D-02 0.100000000000D+01
-.120058194401D-04 0.000000000000D+00 0.000000000000D+00 0.102872008938D-05 0.000000000000D+00  6 -1 2 25 24 3 -3 4 0.10184763D-01 0.17976785D+00 0.51728790D+05 0.51728790D+05 0.51728790D+05 0.11908225D+01  1  2  5  8  6  5       21 -.339807016734D-02 0.100000000000D+01
-.120058194401D-04 0.000000000000D+00 0.000000000000D+00 0.102872008938D-05 0.000000000000D+00  6 -1 2 25 24 4 -4 4 0.10184763D-01 0.17976785D+00 0.51728790D+05 0.51728790D+05 0.51728790D+05 0.11908225D+01  1  2  5  8  6  5       21 -.339807016734D-02 0.100000000000D+01
  </mgrwgt>
  </event>
  <event>
  6     66 -.43535451E-03 0.18992520E+02 0.75467711E-02 0.12157695E+00
       -1 -1    0    0    0  503 0.00000000E+00 0.00000000E+00 0.19152149E+02 0.19154822E+02 0.32000000E+00 0.0000E+00 0.9000E+01
        2 -1    0    0  502    0 0.00000000E+00 0.00000000E+00 -.12768324E+04 0.12768325E+04 0.32000000E+00 0.0000E+00 0.9000E+01
       25  1    1    2    0    0 -.80043400E+01 -.42780530E+02 -.50353813E+03 0.52064373E+03 0.12500000E+03 0.0000E+00 0.9000E+01
       24  1    1    2    0    0 0.28198375E+02 0.50024280E+02 -.57594812E+03 0.58436379E+03 0.80419002E+02 0.0000E+00 0.9000E+01
       21  1    1    2  502  501 -.26158557E+02 0.91962040E+01 -.16889680E+03 0.17115937E+03 0.75000000E+00 0.0000E+00 0.9000E+01
       21  1    1    2  501  503 0.59645213E+01 -.16439954E+02 -.92972336E+01 0.19820410E+02 0.75000000E+00 0.0000E+00 0.9000E+01
#aMCatNLO 2  0  0  1  5 0.17488499D+02 0.00000000D+00  -5  6  0 0.00000000D+00 0.00000000D+00 0.00000000D+00 0.00000000D+00 0.00000000D+00
  <mgrwgt>
 -.7104628363D-01    2    2    0
 0.132132351257859D+03 0.000000000000000D+00 0.000000000000000D+00 0.132132351257859D+03
 0.132132351257859D+03 0.000000000000000D+00 0.000000000000000D+00 -.132132351257859D+03
 0.138026585439486D+03 -.491880884848769D+01 -.512729434555189D+02 0.278069933110893D+02
 0.987182287065948D+02 0.304529868322742D+02 0.438186470491927D+02 -.207512526939614D+02
 0.275198883696363D+02 -.255341779837865D+02 0.745429640632620D+01 -.705574061712790D+01
 0.000000000000000D+00 0.000000000000000D+00 -.000000000000000D+00 0.000000000000000D+00
 0.182572530244772D+03 0.000000000000000D+00 0.000000000000000D+00 0.182572530244772D+03
 0.133946002261292D+03 0.000000000000000D+00 0.000000000000000D+00 -.133946002261292D+03
 0.135249820411701D+03 -.799939854469326D+01 -.427819432391467D+02 0.278069933110893D+02
 0.100972796012125D+03 0.282019102665637D+02 0.500232680768037D+02 -.207512526939614D+02
 0.286201304832174D+02 -.261670330708703D+02 0.919862889175233D+01 -.705574061712790D+01
 0.516757855990204D+02 0.596452134899990D+01 -.164399537294094D+02 0.486265279834796D+02
-.241483473179D-03 0.000000000000D+00 0.000000000000D+00 0.319450038610D-04 0.000000000000D+00  6 -1 2 25 24 21 21 4 0.30648515D-02 0.19377230D+00 0.19099678D+05 0.19099678D+05 0.19099678D+05 0.12360344D+01  1  2 13  1  6  1       -1 -.423009427704D+00 0.100000000000D+01
0.193884541088D-03 0.000000000000D+00 0.000000000000D+00 0.322851689461D-04 0.379031037621D-06  6 -1 2 25 24 21 21 4 0.29466340D-02 0.19643202D+00 0.19099678D+05 0.19099678D+05 0.19099678D+05 0.12360344D+01  1  2  1  1  6  1       -1 0.351963144070D+00 0.100000000000D+01
  </mgrwgt>
  </event>
  <event>
  5     66 -.43535451E-03 0.24263869E+02 0.75467711E-02 0.11937022E+00
       -1 -1    0    0    0  501 0.00000000E+00 0.00000000E+00 0.78648485E+01 0.78713558E+01 0.32000000E+00 0.0000E+00 0.9000E+01
        2 -1    0    0  502    0 -.00000000E+00 -.00000000E+00 -.41507270E+04 0.41507270E+04 0.32000000E+00 0.0000E+00 0.9000E+01
       25  1    1    2    0    0 0.10624127E+02 -.99365653E+02 -.29981934E+04 0.30024615E+04 0.12500000E+03 0.0000E+00 0.9000E+01
       24  1    1    2    0    0 0.13553329E+02 0.97349184E+02 -.10725641E+04 0.10800563E+04 0.80419002E+02 0.0000E+00 0.9000E+01
       21  1    1    2  502  501 -.24177455E+02 0.20164683E+01 -.72104622E+02 0.76080579E+02 0.75000000E+00 0.0000E+00 0.9000E+01
#aMCatNLO 1  0  0  5  2 0.42888818D+00 0.00000000D+00  -5  6  0 0.00000000D+00 0.00000000D+00 0.00000000D+00 0.00000000D+00 0.00000000D+00
  <mgrwgt>
 -.4851149908D+00   15    2    0
 0.180716340169504D+03 0.000000000000000D+00 0.000000000000000D+00 0.180716340169504D+03
 0.180716340169504D+03 -.000000000000000D+00 -.000000000000000D+00 -.180716340169504D+03
 0.179646188376228D+03 0.106255411320820D+02 -.993657707892935D+02 -.816167536061523D+02
 0.132901091631198D+03 0.135543751481102D+02 0.973490972008942D+02 0.391780090217558D+02
 0.488854003315806D+02 -.241799162801923D+02 0.201667358839935D+01 0.424387445843965D+02
 0.000000000000000D+00 0.000000000000000D+00 0.000000000000000D+00 0.000000000000000D+00
 0.180716340169504D+03 0.000000000000000D+00 0.000000000000000D+00 0.180716340169504D+03
 0.180716340169504D+03 -.000000000000000D+00 -.000000000000000D+00 -.180716340169504D+03
 0.179643435510182D+03 0.106224913306136D+02 -.993655164272023D+02 -.816114008272572D+02
 0.132902166803075D+03 0.135521188982383D+02 0.973492853785319D+02 0.391819690194218D+02
 0.911810419204102D+01 -.486789932905787D+01 0.267872223576594D+00 0.770529847902793D+01
 0.397689738337099D+02 -.193067108997941D+02 0.174835882509380D+01 0.347241333288074D+02
0.801958947611D-04 0.000000000000D+00 0.000000000000D+00 0.293813919294D-04 0.000000000000D+00  6 -1 2 25 24 21 21 2 0.12104782D-02 0.63857389D+00 0.24226126D+05 0.24226126D+05 0.24226126D+05 0.12247645D+01  1  2  2  3  6  5       21 0.694676605867D-02 0.100000000000D+01
0.120597216242D-04 0.423205363565D-05 -.307973351947D-06 0.293813919294D-04 0.000000000000D+00  6 -1 2 25 24 21 21 4 0.12104782D-02 0.63857389D+00 0.24226126D+05 0.24226126D+05 0.24226126D+05 0.12247645D+01  1  2  3  3  6  5       21 0.156701432098D-02 0.100000000000D+01
0.217740537536D-05 0.000000000000D+00 0.000000000000D+00 0.293813919294D-04 0.000000000000D+00  6 -1 2 25 24 21 21 4 0.12104782D-02 0.63857389D+00 0.24226126D+05 0.24226126D+05 0.24226126D+05 0.12247645D+01  1  2 15  3  6  5       21 0.282927376941D-03 0.100000000000D+01
-.335032358093D-01 0.000000000000D+00 0.000000000000D+00 0.293813919294D-04 0.000000000000D+00  6 -1 2 25 24 21 21 4 0.12104782D-02 0.63857389D+00 0.24226126D+05 0.24226126D+05 0.24226126D+05 0.12247645D+01  1  2  4  3  6  5       21 -.435333848893D+01 0.100000000000D+01
-.365344103289D-02 0.000000000000D+00 0.000000000000D+00 0.293813919294D-04 0.000000000000D+00  6 -1 2 25 24 21 21 4 0.12104782D-02 0.63857389D+00 0.24226126D+05 0.24226126D+05 0.24226126D+05 0.12247645D+01  1  2  5  3  6  5       21 -.474720279440D+00 0.100000000000D+01
0.300981865030D-01 0.000000000000D+00 -.000000000000D+00 0.293813919294D-04 0.000000000000D+00  6 -1 2 25 24 21 21 4 0.12104782D-02 0.63857389D+00 0.24226126D+05 0.24226126D+05 0.24226126D+05 0.12247645D+01  1  2  6  3  6  5       21 0.391089369685D+01 0.100000000000D+01
0.342231019541D-02 0.000000000000D+00 0.000000000000D+00 0.293813919294D-04 0.992751300417D-03  6 -1 2 25 24 21 21 4 0.12104782D-02 0.63857389D+00 0.24225605D+05 0.24225605D+05 0.24225605D+05 0.12247655D+01  1  2 11  3  6  5       21 0.444689485682D+00 0.100000000000D+01
-.623809068360D-03 0.000000000000D+00 0.000000000000D+00 0.293813919294D-04 0.000000000000D+00  6 -1 2 25 24 1 -1 4 0.12104782D-02 0.63857389D+00 0.24226126D+05 0.24226126D+05 0.24226126D+05 0.12247645D+01  1  2  5  6  6  5       21 -.810564102672D-01 0.100000000000D+01
0.583906188331D-03 0.000000000000D+00 0.000000000000D+00 0.293813919294D-04 0.155945262325D-04  6 -1 2 25 24 1 -1 4 0.12104782D-02 0.63857389D+00 0.24225605D+05 0.24225605D+05 0.24225605D+05 0.12247655D+01  1  2 11  6  6  5       21 0.758718315258D-01 0.100000000000D+01
-.623809068360D-03 0.000000000000D+00 0.000000000000D+00 0.293813919294D-04 0.000000000000D+00  6 -1 2 25 24 2 -2 4 0.12104782D-02 0.63857389D+00 0.24226126D+05 0.24226126D+05 0.24226126D+05 0.12247645D+01  1  2  5  7  6  5       21 -.810564102672D-01 0.100000000000D+01
0.581719102535D-03 0.000000000000D+00 0.000000000000D+00 0.293813919294D-04 0.155358924660D-04  6 -1 2 25 24 2 -2 4 0.12104782D-02 0.63857389D+00 0.24225605D+05 0.24225605D+05 0.24225605D+05 0.12247655D+01  1  2 11  7  6  5       21 0.755876451131D-01 0.100000000000D+01
-.623809068360D-03 0.000000000000D+00 0.000000000000D+00 0.293813919294D-04 0.000000000000D+00  6 -1 2 25 24 3 -3 4 0.12104782D-02 0.63857389D+00 0.24226126D+05 0.24226126D+05 0.24226126D+05 0.12247645D+01  1  2  5  8  6  5       21 -.810564102672D-01 0.100000000000D+01
-.623809068360D-03 0.000000000000D+00 0.000000000000D+00 0.293813919294D-04 0.000000000000D+00  6 -1 2 25 24 4 -4 4 0.12104782D-02 0.63857389D+00 0.24226126D+05 0.24226126D+05 0.24226126D+05 0.12247645D+01  1  2  5  8  6  5       21 -.810564102672D-01 0.100000000000D+01
0.582314621263D-03 0.000000000000D+00 0.000000000000D+00 0.293813919294D-04 0.155517530982D-04  6 -1 2 25 24 3 -3 4 0.12104782D-02 0.63857389D+00 0.24225605D+05 0.24225605D+05 0.24225605D+05 0.12247655D+01  1  2 11  8  6  5       21 0.756650258593D-01 0.100000000000D+01
0.582314621263D-03 0.000000000000D+00 0.000000000000D+00 0.293813919294D-04 0.155517530982D-04  6 -1 2 25 24 4 -4 4 0.12104782D-02 0.63857389D+00 0.24225605D+05 0.24225605D+05 0.24225605D+05 0.12247655D+01  1  2 11  8  6  5       21 0.756650258593D-01 0.100000000000D+01
  </mgrwgt>
  </event>
  <event>
  5     66 0.43535451E-03 0.67754639E+02 0.75467711E-02 0.11755701E+00
       -1 -1    0    0    0  501 0.00000000E+00 0.00000000E+00 0.17981777E+02 0.17984624E+02 0.32000000E+00 0.0000E+00 0.9000E+01
        2 -1    0    0  502    0 0.00000000E+00 0.00000000E+00 -.37662971E+04 0.37662971E+04 0.32000000E+00 0.0000E+00 0.9000E+01
       25  1    1    2    0    0 -.57567231E+02 -.93563958E+02 -.25574937E+04 0.25629021E+04 0.12500000E+03 0.0000E+00 0.9000E+01
       24  1    1    2    0    0 -.28663428E+01 0.55491188E+02 -.11067591E+04 0.11110672E+04 0.80419002E+02 0.0000E+00 0.9000E+01
       21  1    1    2  502  501 0.60433574E+02 0.38072770E+02 -.84062524E+02 0.11031239E+03 0.75000000E+00 0.0000E+00 0.9000E+01
#aMCatNLO 1  0  0  2  5 0.75135312D+01 0.00000000D+00  -5  6  0 0.00000000D+00 0.00000000D+00 0.00000000D+00 0.00000000D+00 0.00000000D+00
  <mgrwgt>
 0.4200716944D+00   11    4    0
 0.260250121608430D+03 0.000000000000000D+00 0.000000000000000D+00 0.260250121608430D+03
 0.260250121608430D+03 0.000000000000000D+00 0.000000000000000D+00 -.260250121608430D+03
 0.216044200850136D+03 -.575674137352223D+02 -.935640731522416D+02 -.137774648654873D+03
 0.107799014902149D+03 -.286643385045113D+01 0.554911305577336D+02 -.454524987861914D+02
 0.196657027464575D+03 0.604338475856734D+02 0.380729425945080D+02 0.183227147441065D+03
 0.000000000000000D+00 -.000000000000000D+00 0.000000000000000D+00 -.000000000000000D+00
 0.262164475287348D+03 0.000000000000000D+00 0.000000000000000D+00 0.262164475287348D+03
 0.267755502804327D+03 0.000000000000000D+00 0.000000000000000D+00 -.267755502804327D+03
 0.215311452357378D+03 -.544589576233160D+02 -.937357436565781D+02 -.137774648654873D+03
 0.107724760109402D+03 -.131331592858290D+01 0.554053566148685D+02 -.454524987861914D+02
 0.197518257632243D+03 0.632743727184973D+02 0.379160690969975D+02 0.183227147441065D+03
 0.936550799265076D+01 -.750209916659838D+01 0.414317944712059D+00 -.559102751697922D+01
 0.260250121608430D+03 0.000000000000000D+00 0.000000000000000D+00 0.260250121608430D+03
 0.260250121608430D+03 0.000000000000000D+00 0.000000000000000D+00 -.260250121608430D+03
 0.216044200850136D+03 -.575674137352223D+02 -.935640731522416D+02 -.137774648654873D+03
 0.107799014902149D+03 -.286643385045113D+01 0.554911305577336D+02 -.454524987861914D+02
 0.000000000000000D+00 -.000000000000000D+00 0.000000000000000D+00 -.000000000000000D+00
 0.196657027464575D+03 0.604338475856734D+02 0.380729425945080D+02 0.183227147441065D+03
 0.262164475287348D+03 0.000000000000000D+00 0.000000000000000D+00 0.262164475287348D+03
 0.267755502804327D+03 0.000000000000000D+00 0.000000000000000D+00 -.267755502804327D+03
 0.215311452357378D+03 -.544589576233160D+02 -.937357436565781D+02 -.137774648654873D+03
 0.107724760109402D+03 -.131331592858290D+01 0.554053566148685D+02 -.454524987861914D+02
 0.936550799265076D+01 -.750209916659838D+01 0.414317944712059D+00 -.559102751697922D+01
 0.197518257632243D+03 0.632743727184973D+02 0.379160690969975D+02 0.183227147441065D+03
0.767955436776D-03 0.000000000000D+00 0.000000000000D+00 0.809533134488D-05 0.000000000000D+00  6 -1 2 25 24 21 21 2 0.27666472D-02 0.57943054D+00 0.28154807D+05 0.28154807D+05 0.28154807D+05 0.12178025D+01  1  2  2  2  6  2        2 0.382383029777D-01 0.100000000000D+01
0.313286322219D-05 0.405261217910D-04 -.294915108453D-05 0.809533134488D-05 0.000000000000D+00  6 -1 2 25 24 21 21 4 0.27666472D-02 0.57943054D+00 0.28154807D+05 0.28154807D+05 0.28154807D+05 0.12178025D+01  1  2  3  2  6  2        2 0.231343746598D-03 0.100000000000D+01
0.369903207896D-04 0.000000000000D+00 0.000000000000D+00 0.809533134488D-05 0.000000000000D+00  6 -1 2 25 24 21 21 4 0.27666472D-02 0.57943054D+00 0.28154807D+05 0.28154807D+05 0.28154807D+05 0.12178025D+01  1  2 15  2  6  2        2 0.273152027153D-02 0.100000000000D+01
0.209538752521D-02 0.000000000000D+00 0.000000000000D+00 0.806379160569D-05 0.000000000000D+00  6 -1 2 25 24 21 21 4 0.27666472D-02 0.59902572D+00 0.29653742D+05 0.29653742D+05 0.29653742D+05 0.12154279D+01  1  2 12  2  6  2        2 0.124177937977D+00 0.100000000000D+01
-.173479689237D-02 0.000000000000D+00 0.000000000000D+00 0.809533134488D-05 0.000000000000D+00  6 -1 2 25 24 21 21 4 0.27666472D-02 0.57943054D+00 0.28154807D+05 0.28154807D+05 0.28154807D+05 0.12178025D+01  1  2  4  2  6  2        2 -.128104671096D+00 0.100000000000D+01
-.285142751181D-01 0.000000000000D+00 -.361785987900D-02 0.809533134488D-05 0.000000000000D+00  6 -1 2 25 24 21 21 4 0.27666472D-02 0.59707682D+00 0.28154807D+05 0.28154807D+05 0.28154807D+05 0.12178025D+01  1  2  5  2  6  2        2 -.174374811745D+01 0.100000000000D+01
0.287183136601D-01 0.000000000000D+00 0.366019509846D-02 0.809533134488D-05 0.000000000000D+00  6 -1 2 25 24 21 21 4 0.27666472D-02 0.57943054D+00 0.28154807D+05 0.28154807D+05 0.28154807D+05 0.12178025D+01  1  2  6  2  6  2        2 0.212068060650D+01 0.100000000000D+01
0.101974554629D-03 0.000000000000D+00 0.000000000000D+00 0.809533134488D-05 0.478408193167D-06  6 -1 2 25 24 21 21 4 0.27869982D-02 0.59614080D+00 0.29653742D+05 0.29653742D+05 0.29653742D+05 0.12154279D+01  1  2 11  2  6  2        2 0.616978430050D-02 0.100000000000D+01
0.548601367270D-04 0.000000000000D+00 0.000000000000D+00 0.806379160569D-05 0.000000000000D+00  6 -1 21 25 24 -2 21 4 0.27666472D-02 0.59902572D+00 0.29653742D+05 0.29653742D+05 0.29653742D+05 0.12154279D+01  3  4 12  5  5  2        2 0.160117107889D-03 0.100000000000D+01
-.152238252881D-03 0.000000000000D+00 -.194649987558D-04 0.809533134488D-05 0.000000000000D+00  6 -1 21 25 24 -2 21 4 0.27666472D-02 0.59707682D+00 0.28154807D+05 0.28154807D+05 0.28154807D+05 0.12178025D+01  3  4  5  5  5  2        2 -.467128866337D-03 0.100000000000D+01
0.657266979045D-06 0.000000000000D+00 0.000000000000D+00 0.809533134488D-05 0.560622845074D-08  6 -1 21 25 24 -2 21 4 0.27869982D-02 0.59614080D+00 0.29653742D+05 0.29653742D+05 0.29653742D+05 0.12154279D+01  3  4 11  5  5  2        2 0.199889797945D-05 0.100000000000D+01
  </mgrwgt>
  </event>
  <event>
  5     66 0.43535451E-03 0.24949794E+02 0.75467711E-02 0.11199157E+00
       -1 -1    0    0    0  501 0.00000000E+00 0.00000000E+00 0.83270377E+03 0.83270383E+03 0.32000000E+00 0.0000E+00 0.9000E+01
        2 -1    0    0  502    0 0.00000000E+00 0.00000000E+00 -.11036342E+03 0.11036388E+03 0.32000000E+00 0.0000E+00 0.9000E+01
       25  1    1    2    0    0 -.14343193E+03 -.13242241E+03 0.52791238E+03 0.57656300E+03 0.12500000E+03 0.0000E+00 0.9000E+01
       24  1    1    2    0    0 0.16668024E+03 0.12336778E+03 0.23200301E+03 0.32139465E+03 0.80419002E+02 0.0000E+00 0.9000E+01
       21  1    1    2  502  501 -.23248318E+02 0.90546367E+01 -.37575038E+02 0.45110051E+02 0.75000000E+00 0.0000E+00 0.9000E+01
#aMCatNLO 1  0  0  5  2 0.19743010D+01 0.00000000D+00  -5  6  0 0.00000000D+00 0.00000000D+00 0.00000000D+00 0.00000000D+00 0.00000000D+00
  <mgrwgt>
 0.1582411430D+01   25    2    0
 0.303150588567628D+03 0.000000000000000D+00 0.000000000000000D+00 0.303150588567628D+03
 0.303150588567628D+03 -.000000000000000D+00 -.000000000000000D+00 -.303150588567628D+03
 0.267863258250563D+03 -.143431707931983D+03 -.132422496848586D+03 0.134228732426066D+03
 0.223505736830634D+03 0.166680427268768D+03 0.123367703938260D+03 -.220373145445808D+02
 0.114932182054060D+03 -.232487193367852D+02 0.905479291032577D+01 -.112191417881485D+03
 0.000000000000000D+00 0.000000000000000D+00 0.000000000000000D+00 0.000000000000000D+00
 0.303150588567628D+03 0.000000000000000D+00 0.000000000000000D+00 0.303150588567628D+03
 0.303150588567628D+03 -.000000000000000D+00 -.000000000000000D+00 -.303150588567628D+03
 0.267833964437532D+03 -.143445827130525D+03 -.132416997774981D+03 0.134160597365342D+03
 0.223505096769473D+03 0.166668645548717D+03 0.123372292622636D+03 -.220941696280156D+02
 0.141260291010632D+02 -.192152661267850D+01 -.620407294729267D+00 -.139809702248985D+02
 0.100836086827189D+03 -.213012918055134D+02 0.966511244707351D+01 -.980854575124275D+02
0.246966240860D-02 0.000000000000D+00 0.000000000000D+00 0.253910665452D-04 0.000000000000D+00  6 -1 2 25 24 21 21 2 0.12810831D+00 0.16979027D-01 0.57401225D+05 0.57401225D+05 0.57401225D+05 0.11863897D+01  1  2  2  3  6  5       21 0.755913076865D-01 0.100000000000D+01
0.650093726375D-03 0.130327665852D-03 -.948415392606D-05 0.253910665452D-04 0.000000000000D+00  6 -1 2 25 24 21 21 4 0.12810831D+00 0.16979027D-01 0.57401225D+05 0.57401225D+05 0.57401225D+05 0.11863897D+01  1  2  3  3  6  5       21 0.280068953524D-01 0.100000000000D+01
0.655057749041D-04 0.000000000000D+00 0.000000000000D+00 0.253910665452D-04 0.000000000000D+00  6 -1 2 25 24 21 21 4 0.12810831D+00 0.16979027D-01 0.57401225D+05 0.57401225D+05 0.57401225D+05 0.11863897D+01  1  2 15  3  6  5       21 0.282207519976D-02 0.100000000000D+01
0.459630264597D-05 0.000000000000D+00 0.000000000000D+00 0.253875864127D-04 0.000000000000D+00  6 -1 2 25 24 21 21 4 0.12810831D+00 0.16979027D-01 0.57511525D+05 0.57511525D+05 0.57511525D+05 0.11863084D+01  1  2 12  3  6  5       21 0.197956280183D-03 0.100000000000D+01
0.418751223375D-05 0.000000000000D+00 0.000000000000D+00 0.253875864127D-04 0.000000000000D+00  6 -1 2 25 24 21 21 4 0.12810831D+00 0.16979027D-01 0.57511525D+05 0.57511525D+05 0.57511525D+05 0.11863084D+01  1  2 12  3  6  5       21 0.180350252989D-03 0.100000000000D+01
-.630132201988D-01 0.000000000000D+00 0.000000000000D+00 0.253910665452D-04 0.000000000000D+00  6 -1 2 25 24 21 21 4 0.12810831D+00 0.16979027D-01 0.57401225D+05 0.57401225D+05 0.57401225D+05 0.11863897D+01  1  2  4  3  6  5       21 -.271469265481D+01 0.100000000000D+01
-.811532057382D-02 0.000000000000D+00 0.000000000000D+00 0.253910665452D-04 0.000000000000D+00  6 -1 2 25 24 21 21 4 0.12810831D+00 0.16979027D-01 0.57401225D+05 0.57401225D+05 0.57401225D+05 0.11863897D+01  1  2  5  3  6  5       21 -.349618716258D+00 0.100000000000D+01
0.934708936945D-01 0.000000000000D+00 -.000000000000D+00 0.253910665452D-04 0.000000000000D+00  6 -1 2 25 24 21 21 4 0.12810831D+00 0.16979027D-01 0.57401225D+05 0.57401225D+05 0.57401225D+05 0.11863897D+01  1  2  6  3  6  5       21 0.402684940954D+01 0.100000000000D+01
0.107884694101D-01 0.000000000000D+00 0.000000000000D+00 0.253910665452D-04 0.734352684134D-04  6 -1 2 25 24 21 21 4 0.12810831D+00 0.16979027D-01 0.57511525D+05 0.57511525D+05 0.57511525D+05 0.11863084D+01  1  2 11  3  6  5       21 0.464644179855D+00 0.100000000000D+01
0.299110204328D-05 0.000000000000D+00 0.000000000000D+00 0.253875864127D-04 0.000000000000D+00  6 -1 2 25 24 1 -1 4 0.12810831D+00 0.16979027D-01 0.57511525D+05 0.57511525D+05 0.57511525D+05 0.11863084D+01  1  2 12  6  6  5       21 0.128822551460D-03 0.100000000000D+01
0.291766009212D-05 0.000000000000D+00 0.000000000000D+00 0.253875864127D-04 0.000000000000D+00  6 -1 2 25 24 1 -1 4 0.12810831D+00 0.16979027D-01 0.57511525D+05 0.57511525D+05 0.57511525D+05 0.11863084D+01  1  2 12  6  6  5       21 0.125659510080D-03 0.100000000000D+01
-.416739909030D-02 0.000000000000D+00 0.000000000000D+00 0.253910665452D-04 0.000000000000D+00  6 -1 2 25 24 1 -1 4 0.12810831D+00 0.16979027D-01 0.57401225D+05 0.57401225D+05 0.57401225D+05 0.11863897D+01  1  2  5  6  6  5       21 -.179537050549D+00 0.100000000000D+01
0.462253574494D-02 0.000000000000D+00 0.000000000000D+00 0.253910665452D-04 0.826650963693D-06  6 -1 2 25 24 1 -1 4 0.12810831D+00 0.16979027D-01 0.57511525D+05 0.57511525D+05 0.57511525D+05 0.11863084D+01  1  2 11  6  6  5       21 0.199086102801D+00 0.100000000000D+01
0.299110204328D-05 0.000000000000D+00 0.000000000000D+00 0.253875864127D-04 0.000000000000D+00  6 -1 2 25 24 2 -2 4 0.12810831D+00 0.16979027D-01 0.57511525D+05 0.57511525D+05 0.57511525D+05 0.11863084D+01  1  2 12  7  6  5       21 0.128822551460D-03 0.100000000000D+01
0.291766009212D-05 0.000000000000D+00 0.000000000000D+00 0.253875864127D-04 0.000000000000D+00  6 -1 2 25 24 2 -2 4 0.12810831D+00 0.16979027D-01 0.57511525D+05 0.57511525D+05 0.57511525D+05 0.11863084D+01  1  2 12  7  6  5       21 0.125659510080D-03 0.100000000000D+01
-.416739909030D-02 0.000000000000D+00 0.000000000000D+00 0.253910665452D-04 0.000000000000D+00  6 -1 2 25 24 2 -2 4 0.12810831D+00 0.16979027D-01 0.57401225D+05 0.57401225D+05 0.57401225D+05 0.11863897D+01  1  2  5  7  6  5       21 -.179537050549D+00 0.100000000000D+01
0.390859753475D-02 0.000000000000D+00 0.000000000000D+00 0.253910665452D-04 0.884298083441D-06  6 -1 2 25 24 2 -2 4 0.12810831D+00 0.16979027D-01 0.57511525D+05 0.57511525D+05 0.57511525D+05 0.11863084D+01  1  2 11  7  6  5       21 0.168337789808D+00 0.100000000000D+01
0.299110204328D-05 0.000000000000D+00 0.000000000000D+00 0.253875864127D-04 0.000000000000D+00  6 -1 2 25 24 3 -3 4 0.12810831D+00 0.16979027D-01 0.57511525D+05 0.57511525D+05 0.57511525D+05 0.11863084D+01  1  2 12  8  6  5       21 0.128822551460D-03 0.100000000000D+01
0.299110204328D-05 0.000000000000D+00 0.000000000000D+00 0.253875864127D-04 0.000000000000D+00  6 -1 2 25 24 4 -4 4 0.12810831D+00 0.16979027D-01 0.57511525D+05 0.57511525D+05 0.57511525D+05 0.11863084D+01  1  2 12  8  6  5       21 0.128822551460D-03 0.100000000000D+01
0.291766009212D-05 0.000000000000D+00 0.000000000000D+00 0.253875864127D-04 0.000000000000D+00  6 -1 2 25 24 3 -3 4 0.12810831D+00 0.16979027D-01 0.57511525D+05 0.57511525D+05 0.57511525D+05 0.11863084D+01  1  2 12  8  6  5       21 0.125659510080D-03 0.100000000000D+01
0.291766009212D-05 0.000000000000D+00 0.000000000000D+00 0.253875864127D-04 0.000000000000D+00  6 -1 2 25 24 4 -4 4 0.12810831D+00 0.16979027D-01 0.57511525D+05 0.57511525D+05 0.57511525D+05 0.11863084D+01  1  2 12  8  6  5       21 0.125659510080D-03 0.100000000000D+01
-.416739909030D-02 0.000000000000D+00 0.000000000000D+00 0.253910665452D-04 0.000000000000D+00  6 -1 2 25 24 3 -3 4 0.12810831D+00 0.16979027D-01 0.57401225D+05 0.57401225D+05 0.57401225D+05 0.11863897D+01  1  2  5  8  6  5       21 -.179537050549D+00 0.100000000000D+01
-.416739909030D-02 0.000000000000D+00 0.000000000000D+00 0.253910665452D-04 0.000000000000D+00  6 -1 2 25 24 4 -4 4 0.12810831D+00 0.16979027D-01 0.57401225D+05 0.57401225D+05 0.57401225D+05 0.11863897D+01  1  2  5  8  6  5       21 -.179537050549D+00 0.100000000000D+01
0.462212712589D-02 0.000000000000D+00 0.000000000000D+00 0.253910665452D-04 0.826573574423D-06  6 -1 2 25 24 3 -3 4 0.12810831D+00 0.16979027D-01 0.57511525D+05 0.57511525D+05 0.57511525D+05 0.11863084D+01  1  2 11  8  6  5       21 0.199068504154D+00 0.100000000000D+01
0.462212712589D-02 0.000000000000D+00 0.000000000000D+00 0.253910665452D-04 0.826573574423D-06  6 -1 2 25 24 4 -4 4 0.12810831D+00 0.16979027D-01 0.57511525D+05 0.57511525D+05 0.57511525D+05 0.11863084D+01  1  2 11  8  6  5       21 0.199068504154D+00 0.100000000000D+01
  </mgrwgt>
  </event>
  <event>
  6     66 0.43535451E-03 0.19157157E+02 0.75467711E-02 0.12204551E+00
       -1 -1    0    0    0  501 0.00000000E+00 0.00000000E+00 0.20295179E+03 0.20295205E+03 0.32000000E+00 0.0000E+00 0.9000E+01
        2 -1    0    0  503    0 0.00000000E+00 0.00000000E+00 -.10824670E+03 0.10824718E+03 0.32000000E+00 0.0000E+00 0.9000E+01
       25  1    1    2    0    0 -.49637408E+02 -.59153677E+02 0.58977332E+02 0.15832358E+03 0.12500000E+03 0.0000E+00 0.9000E+01
       24  1    1    2    0    0 0.35554586E+02 0.44047481E+02 0.44473505E+02 0.10793247E+03 0.80419002E+02 0.0000E+00 0.9000E+01
       21  1    1    2  502  501 -.25173975E+01 0.24035684E+01 0.13763229E+02 0.14216307E+02 0.75000000E+00 0.0000E+00 0.9000E+01
       21  1    1    2  503  502 0.16600219E+02 0.12702628E+02 -.22508977E+02 0.30726870E+02 0.75000000E+00 0.0000E+00 0.9000E+01
#aMCatNLO 2  0  0  2  5 0.26036966D+03 0.00000000D+00  -5  6  0 0.00000000D+00 0.00000000D+00 0.00000000D+00 0.00000000D+00 0.00000000D+00
  <mgrwgt>
 0.1349966728D+00    1    2    0
 0.126973107654143D+03 0.000000000000000D+00 0.000000000000000D+00 0.126973107654143D+03
 0.126973107654143D+03 0.000000000000000D+00 0.000000000000000D+00 -.126973107654143D+03
 0.141437324679126D+03 -.402178539546502D+02 -.519536283639768D+02 -.792852669092796D+01
 0.103205746465694D+03 0.421336568003963D+02 0.490760956142835D+02 -.708486453491907D+00
 0.930314416346474D+01 -.191580284574610D+01 0.287753274969331D+01 0.863701314441987D+01
 0.000000000000000D+00 0.000000000000000D+00 0.000000000000000D+00 -.000000000000000D+00
 0.130032066225139D+03 0.000000000000000D+00 0.000000000000000D+00 0.130032066225139D+03
 0.168942320406238D+03 0.000000000000000D+00 0.000000000000000D+00 -.168942320406238D+03
 0.147143420735897D+03 -.496340540314780D+02 -.591589841932124D+02 -.792852669092796D+01
 0.983457075587380D+02 0.355571653087681D+02 0.440437087789896D+02 -.708486453491907D+00
 0.931590361337649D+01 -.252333013885991D+01 0.241264773374832D+01 0.863701314441987D+01
 0.441693547233654D+02 0.166002188615698D+02 0.127026276804746D+02 -.389102541810987D+02
0.159412933763D-03 0.000000000000D+00 0.000000000000D+00 0.182012583695D-02 0.177669626968D-04  6 -1 2 25 24 21 21 4 0.31222658D-01 0.16652994D-01 0.18180030D+05 0.18180030D+05 0.18180030D+05 0.12384140D+01  1  2  1  2  6  2        2 0.134996672818D+00 0.100000000000D+01
  </mgrwgt>
  </event>
  <event>
  5     66 0.43535451E-03 0.89154238E+02 0.75467711E-02 0.11730795E+00
       -1 -1    0    0    0  501 0.00000000E+00 0.00000000E+00 0.68848186E+02 0.68848930E+02 0.32000000E+00 0.0000E+00 0.9000E+01
        2 -1    0    0  502    0 0.00000000E+00 0.00000000E+00 -.86037562E+03 0.86037568E+03 0.32000000E+00 0.0000E+00 0.9000E+01
       25  1    1    2    0    0 -.86735700E+02 -.48185710E+02 -.29297138E+03 0.33361981E+03 0.12500000E+03 0.0000E+00 0.9000E+01
       24  1    1    2    0    0 0.50407560E+02 -.33230742E+02 -.49633573E+03 0.50642036E+03 0.80419002E+02 0.0000E+00 0.9000E+01
       21  1    1    2  502  501 0.36328140E+02 0.81416451E+02 -.22203157E+01 0.89184441E+02 0.75000000E+00 0.0000E+00 0.9000E+01
#aMCatNLO 1  0  0  1  1 0.81667587D+02 0.00000000D+00  -5  6  0 0.00000000D+00 0.00000000D+00 0.00000000D+00 0.00000000D+00 0.00000000D+00
  <mgrwgt>
 0.9726004228D-02    1    2    0
 0.243383800004561D+03 0.000000000000000D+00 0.000000000000000D+00 0.243383800004561D+03
 0.243383800004561D+03 0.000000000000000D+00 0.000000000000000D+00 -.243383800004561D+03
 0.160472766512320D+03 -.867358214918293D+02 -.481859814453123D+02 -.167784759262336D+02
 0.159655443696952D+03 0.504074393335696D+02 -.332310121100018D+02 -.124005784710543D+03
 0.166639389799850D+03 0.363283821582596D+02 0.814169935553141D+02 0.140784260636777D+03
 0.000000000000000D+00 0.000000000000000D+00 -.000000000000000D+00 -.000000000000000D+00
 0.289232774893723D+03 0.000000000000000D+00 0.000000000000000D+00 0.289232774893723D+03
 0.296252599112272D+03 0.000000000000000D+00 0.000000000000000D+00 -.296252599112272D+03
 0.166245188564180D+03 -.105448000917660D+03 -.247318533232268D+02 -.167784759262336D+02
 0.151736495392977D+03 0.325730297289800D+02 -.108770939303603D+02 -.124005784710543D+03
 0.177066157883198D+03 0.166432691181978D+02 0.106090611354318D+03 0.140784260636777D+03
 0.904375321656400D+02 0.562317020704827D+02 -.704816641007312D+02 -.701982421854957D+01
0.219904057152D-04 0.000000000000D+00 0.000000000000D+00 0.359729269903D-05 0.000000000000D+00  6 -1 2 25 24 21 21 4 0.10592090D-01 0.13236554D+00 0.30504020D+05 0.30504020D+05 0.30504020D+05 0.12141397D+01  1  2 14  1  6  1       -1 0.972600422766D-02 0.100000000000D+01
  </mgrwgt>
  </event>
  <event>
  5     66 0.43535451E-03 0.42820326E+02 0.75467711E-02 0.11841196E+00
       -1 -1    0    0    0  501 0.00000000E+00 0.00000000E+00 0.27123370E+02 0.27125258E+02 0.32000000E+00 0.0000E+00 0.9000E+01
        2 -1    0    0  502    0 -.00000000E+00 -.00000000E+00 -.19302910E+04 0.19302910E+04 0.32000000E+00 0.0000E+00 0.9000E+01
       25  1    1    2    0    0 -.84256705E+02 -.77890479E+02 -.15128574E+04 0.15223432E+04 0.12500000E+03 0.0000E+00 0.9000E+01
       24  1    1    2    0    0 0.84100699E+02 0.35076019E+02 -.16058071E+03 0.20138678E+03 0.80419002E+02 0.0000E+00 0.9000E+01
       21  1    1    2  502  501 0.15600575E+00 0.42814460E+02 -.22972945E+03 0.23368630E+03 0.75000000E+00 0.0000E+00 0.9000E+01
#aMCatNLO 1  0  0  5  1 0.80554899D+01 0.00000000D+00  -5  6  0 0.00000000D+00 0.00000000D+00 0.00000000D+00 0.00000000D+00 0.00000000D+00
  <mgrwgt>
 0.1698945868D+00   19    2    0
 0.228818422335471D+03 0.000000000000000D+00 0.000000000000000D+00 0.228818422335471D+03
 0.228818422335471D+03 -.000000000000000D+00 -.000000000000000D+00 -.228818422335471D+03
 0.219908616687568D+03 -.842567159542682D+02 -.778934476513862D+02 -.139886440811904D+03
 0.193572195162212D+03 0.841006898637679D+02 0.350734063722924D+02 0.150664889458126D+03
 0.441560328211611D+02 0.156026090500356D+00 0.428200412790938D+02 -.107784486462220D+02
 0.000000000000000D+00 0.000000000000000D+00 0.000000000000000D+00 0.000000000000000D+00
 0.228818422335471D+03 0.000000000000000D+00 0.000000000000000D+00 0.228818422335471D+03
 0.228818422335471D+03 -.000000000000000D+00 -.000000000000000D+00 -.228818422335471D+03
 0.219226259990540D+03 -.842434164898193D+02 -.742435220853028D+02 -.140805181992468D+03
 0.193558331875860D+03 0.841124143451399D+02 0.382910911499999D+02 0.149854949787349D+03
 0.815534720790089D+01 -.723496466244483D+00 -.721995545101345D+00 -.809104216881867D+01
 0.366969055966400D+02 0.854498610923828D+00 0.366744264804042D+02 -.958725626061986D+00
0.844151761459D-03 0.000000000000D+00 0.000000000000D+00 0.494699695800D-05 0.000000000000D+00  6 -1 2 25 24 21 21 2 0.41729734D-02 0.29696799D+00 0.27894715D+05 0.27894715D+05 0.27894715D+05 0.12182289D+01  1  2  2  3  6  5       21 0.267536145813D+00 0.100000000000D+01
0.626172768016D-04 0.445471123150D-04 -.324176503427D-05 0.494699695800D-05 0.000000000000D+00  6 -1 2 25 24 21 21 4 0.41729734D-02 0.29696799D+00 0.27894715D+05 0.27894715D+05 0.27894715D+05 0.12182289D+01  1  2  3  3  6  5       21 0.294519408043D-01 0.100000000000D+01
0.268104840797D-04 0.000000000000D+00 0.000000000000D+00 0.494699695800D-05 0.000000000000D+00  6 -1 2 25 24 21 21 4 0.41729734D-02 0.29696799D+00 0.27894715D+05 0.27894715D+05 0.27894715D+05 0.12182289D+01  1  2 15  3  6  5       21 0.126102703660D-01 0.100000000000D+01
0.534929274196D-04 0.000000000000D+00 0.000000000000D+00 0.496008671122D-05 0.000000000000D+00  6 -1 2 25 24 21 21 4 0.41729734D-02 0.29696799D+00 0.26936174D+05 0.26936174D+05 0.26936174D+05 0.12198396D+01  1  2 12  3  6  5       21 0.252979506252D-01 0.100000000000D+01
0.497826704732D-04 0.000000000000D+00 0.000000000000D+00 0.496008671122D-05 0.000000000000D+00  6 -1 2 25 24 21 21 4 0.41729734D-02 0.29696799D+00 0.26936174D+05 0.26936174D+05 0.26936174D+05 0.12198396D+01  1  2 12  3  6  5       21 0.235432906811D-01 0.100000000000D+01
-.489248881721D-03 0.000000000000D+00 0.000000000000D+00 0.494699695800D-05 0.000000000000D+00  6 -1 2 25 24 21 21 4 0.41729734D-02 0.29696799D+00 0.27894715D+05 0.27894715D+05 0.27894715D+05 0.12182289D+01  1  2  4  3  6  5       21 -.230117466601D+00 0.100000000000D+01
0.184314365719D-06 0.000000000000D+00 0.000000000000D+00 0.494699695800D-05 0.233881117115D-04  6 -1 2 25 24 21 21 4 0.41729734D-02 0.29696799D+00 0.26936174D+05 0.26936174D+05 0.26936174D+05 0.12198396D+01  1  2 11  3  6  5       21 0.871662095983D-04 0.100000000000D+01
0.111004617939D-04 0.000000000000D+00 0.000000000000D+00 0.496008671122D-05 0.000000000000D+00  6 -1 2 25 24 1 -1 4 0.41729734D-02 0.29696799D+00 0.26936174D+05 0.26936174D+05 0.26936174D+05 0.12198396D+01  1  2 12  6  6  5       21 0.524964603593D-02 0.100000000000D+01
0.107719101470D-04 0.000000000000D+00 0.000000000000D+00 0.496008671122D-05 0.000000000000D+00  6 -1 2 25 24 1 -1 4 0.41729734D-02 0.29696799D+00 0.26936174D+05 0.26936174D+05 0.26936174D+05 0.12198396D+01  1  2 12  6  6  5       21 0.509426692805D-02 0.100000000000D+01
0.767470468676D-07 0.000000000000D+00 0.000000000000D+00 0.496008671122D-05 0.833338371904D-08  6 -1 2 25 24 1 -1 4 0.41729734D-02 0.29696799D+00 0.26936174D+05 0.26936174D+05 0.26936174D+05 0.12198396D+01  1  2 11  6  6  5       21 0.362953215676D-04 0.100000000000D+01
0.111004617939D-04 0.000000000000D+00 0.000000000000D+00 0.496008671122D-05 0.000000000000D+00  6 -1 2 25 24 2 -2 4 0.41729734D-02 0.29696799D+00 0.26936174D+05 0.26936174D+05 0.26936174D+05 0.12198396D+01  1  2 12  7  6  5       21 0.524964603593D-02 0.100000000000D+01
0.107719101470D-04 0.000000000000D+00 0.000000000000D+00 0.496008671122D-05 0.000000000000D+00  6 -1 2 25 24 2 -2 4 0.41729734D-02 0.29696799D+00 0.26936174D+05 0.26936174D+05 0.26936174D+05 0.12198396D+01  1  2 12  7  6  5       21 0.509426692805D-02 0.100000000000D+01
0.246332426528D-08 0.000000000000D+00 0.000000000000D+00 0.496008671122D-05 0.270265175812D-07  6 -1 2 25 24 2 -2 4 0.41729734D-02 0.29696799D+00 0.26936174D+05 0.26936174D+05 0.26936174D+05 0.12198396D+01  1  2 11  7  6  5       21 0.116495878321D-05 0.100000000000D+01
0.111004617939D-04 0.000000000000D+00 0.000000000000D+00 0.496008671122D-05 0.000000000000D+00  6 -1 2 25 24 3 -3 4 0.41729734D-02 0.29696799D+00 0.26936174D+05 0.26936174D+05 0.26936174D+05 0.12198396D+01  1  2 12  8  6  5       21 0.524964603593D-02 0.100000000000D+01
0.111004617939D-04 0.000000000000D+00 0.000000000000D+00 0.496008671122D-05 0.000000000000D+00  6 -1 2 25 24 4 -4 4 0.41729734D-02 0.29696799D+00 0.26936174D+05 0.26936174D+05 0.26936174D+05 0.12198396D+01  1  2 12  8  6  5       21 0.524964603593D-02 0.100000000000D+01
0.107719101470D-04 0.000000000000D+00 0.000000000000D+00 0.496008671122D-05 0.000000000000D+00  6 -1 2 25 24 3 -3 4 0.41729734D-02 0.29696799D+00 0.26936174D+05 0.26936174D+05 0.26936174D+05 0.12198396D+01  1  2 12  8  6  5       21 0.509426692805D-02 0.100000000000D+01
0.107719101470D-04 0.000000000000D+00 0.000000000000D+00 0.496008671122D-05 0.000000000000D+00  6 -1 2 25 24 4 -4 4 0.41729734D-02 0.29696799D+00 0.26936174D+05 0.26936174D+05 0.26936174D+05 0.12198396D+01  1  2 12  8  6  5       21 0.509426692805D-02 0.100000000000D+01
0.763094389062D-07 0.000000000000D+00 0.000000000000D+00 0.496008671122D-05 0.822736384499D-08  6 -1 2 25 24 3 -3 4 0.41729734D-02 0.29696799D+00 0.26936174D+05 0.26936174D+05 0.26936174D+05 0.12198396D+01  1  2 11  8  6  5       21 0.360883673937D-04 0.100000000000D+01
0.763094389062D-07 0.000000000000D+00 0.000000000000D+00 0.496008671122D-05 0.822736384499D-08  6 -1 2 25 24 4 -4 4 0.41729734D-02 0.29696799D+00 0.26936174D+05 0.26936174D+05 0.26936174D+05 0.12198396D+01  1  2 11  8  6  5       21 0.360883673937D-04 0.100000000000D+01
  </mgrwgt>
  </event>
  <event>
  5     66 -.43535451E-03 0.24803457E+02 0.75467711E-02 0.12452668E+00
       -1 -1    0    0    0  501 0.00000000E+00 0.00000000E+00 0.45231391E+02 0.45232523E+02 0.32000000E+00 0.0000E+00 0.9000E+01
        2 -1    0    0  502    0 0.00000000E+00 0.00000000E+00 -.61780700E+03 0.61780708E+03 0.32000000E+00 0.0000E+00 0.9000E+01
       25  1    1    2    0    0 0.12623676E+02 -.24029393E+02 -.31160604E+03 0.33683838E+03 0.12500000E+03 0.0000E+00 0.9000E+01
       24  1    1    2    0    0 -.19899612E+02 0.31762326E+00 -.28184836E+03 0.29377170E+03 0.80419002E+02 0.0000E+00 0.9000E+01
       21  1    1    2  502  501 0.72759362E+01 0.23711770E+02 0.20878799E+02 0.32429524E+02 0.75000000E+00 0.0000E+00 0.9000E+01
#aMCatNLO 1  0  0  1  2 0.23070128D+01 0.00000000D+00  -5  6  0 0.00000000D+00 0.00000000D+00 0.00000000D+00 0.00000000D+00 0.00000000D+00
  <mgrwgt>
 -.4343291628D+00    9    4    0
 0.167166601250086D+03 0.000000000000000D+00 0.000000000000000D+00 0.167166601250086D+03
 0.167166601250086D+03 0.000000000000000D+00 0.000000000000000D+00 -.167166601250086D+03
 0.134354866403172D+03 0.126235939966096D+02 -.240296608607453D+02 -.411029244670079D+02
 0.999090999161161D+02 -.198996734362407D+02 0.317424240514544D+00 -.558436615083615D+02
 0.100069236180883D+03 0.727607943963111D+01 0.237122366202308D+02 0.969465859753694D+02
 0.000000000000000D+00 -.000000000000000D+00 0.000000000000000D+00 0.000000000000000D+00
 0.171107107187949D+03 0.000000000000000D+00 0.000000000000000D+00 0.171107107187949D+03
 0.167508588900194D+03 0.000000000000000D+00 0.000000000000000D+00 -.167508588900194D+03
 0.134524343037362D+03 0.126285738080639D+02 -.249573154298987D+02 -.411029244670079D+02
 0.999085510370639D+02 -.198959726881277D+02 -.371962481835231D+00 -.558436615083615D+02
 0.999082679171780D+02 0.727978314832461D+01 0.230222983918700D+02 0.969465859753694D+02
 0.427453409653933D+01 -.123842682608480D-01 0.230697951986392D+01 0.359851828775476D+01
 0.167166601250086D+03 0.000000000000000D+00 0.000000000000000D+00 0.167166601250086D+03
 0.167166601250086D+03 0.000000000000000D+00 0.000000000000000D+00 -.167166601250086D+03
 0.134354866403172D+03 0.126235939966096D+02 -.240296608607453D+02 -.411029244670079D+02
 0.999090999161161D+02 -.198996734362407D+02 0.317424240514544D+00 -.558436615083615D+02
 0.000000000000000D+00 -.000000000000000D+00 0.000000000000000D+00 0.000000000000000D+00
 0.100069236180883D+03 0.727607943963111D+01 0.237122366202308D+02 0.969465859753694D+02
 0.171107107187949D+03 0.000000000000000D+00 0.000000000000000D+00 0.171107107187949D+03
 0.167508588900194D+03 0.000000000000000D+00 0.000000000000000D+00 -.167508588900194D+03
 0.134524343037362D+03 0.126285738080639D+02 -.249573154298987D+02 -.411029244670079D+02
 0.999085510370639D+02 -.198959726881277D+02 -.371962481835231D+00 -.558436615083615D+02
 0.427453409653933D+01 -.123842682608480D-01 0.230697951986392D+01 0.359851828775476D+01
 0.999082679171780D+02 0.727978314832461D+01 0.230222983918700D+02 0.969465859753694D+02
0.894617158282D-04 0.000000000000D+00 0.000000000000D+00 0.598952189344D-04 0.000000000000D+00  6 -1 2 25 24 21 21 2 0.69587690D-02 0.95047324D-01 0.13872334D+05 0.13872334D+05 0.13872334D+05 0.12517106D+01  1  2  2  1  6  1       -1 0.794896424778D-01 0.100000000000D+01
0.115015744752D-04 0.472102444708D-05 -.343556544591D-06 0.598952189344D-04 0.000000000000D+00  6 -1 2 25 24 21 21 4 0.69587690D-02 0.95047324D-01 0.13872334D+05 0.13872334D+05 0.13872334D+05 0.12517106D+01  1  2  3  1  6  1       -1 0.160117377506D-01 0.100000000000D+01
0.351632432308D-05 0.000000000000D+00 0.000000000000D+00 0.598952189344D-04 0.000000000000D+00  6 -1 2 25 24 21 21 4 0.69587690D-02 0.95047324D-01 0.13872334D+05 0.13872334D+05 0.13872334D+05 0.12517106D+01  1  2 15  1  6  1       -1 0.489519613413D-02 0.100000000000D+01
-.148253674479D-02 0.000000000000D+00 0.000000000000D+00 0.598952189344D-04 0.000000000000D+00  6 -1 2 25 24 21 21 4 0.69587690D-02 0.95047324D-01 0.13872334D+05 0.13872334D+05 0.13872334D+05 0.12517106D+01  1  2  4  1  6  1       -1 -.206389043644D+01 0.100000000000D+01
-.840628484361D-02 0.000000000000D+00 -.690744806265D-03 0.598952189344D-04 0.000000000000D+00  6 -1 2 25 24 21 21 4 0.71362461D-02 0.95047324D-01 0.13872334D+05 0.13872334D+05 0.13872334D+05 0.12517106D+01  1  2  5  1  6  1       -1 -.112704922693D+02 0.100000000000D+01
0.842122903887D-02 0.000000000000D+00 0.690525812200D-03 0.598952189344D-04 0.000000000000D+00  6 -1 2 25 24 21 21 4 0.69587690D-02 0.95047324D-01 0.13872334D+05 0.13872334D+05 0.13872334D+05 0.12517106D+01  1  2  6  1  6  1       -1 0.117234828327D+02 0.100000000000D+01
0.135160007479D-02 0.000000000000D+00 0.000000000000D+00 0.598952189344D-04 0.149964010014D-03  6 -1 2 25 24 21 21 4 0.71228034D-02 0.95241771D-01 0.14088323D+05 0.14088323D+05 0.14088323D+05 0.12509390D+01  1  2 11  1  6  1       -1 0.180925693429D+01 0.100000000000D+01
-.380779554126D-04 0.000000000000D+00 -.314194588855D-05 0.598952189344D-04 0.000000000000D+00  6 21 2 25 24 1 21 4 0.71362461D-02 0.95047324D-01 0.13872334D+05 0.13872334D+05 0.13872334D+05 0.12517106D+01  3  4  5  4  5  1       -1 -.832917142417D+00 0.100000000000D+01
0.457052344677D-05 0.000000000000D+00 0.000000000000D+00 0.598952189344D-04 0.101182752594D-05  6 21 2 25 24 1 21 4 0.71228034D-02 0.95241771D-01 0.14088323D+05 0.14088323D+05 0.14088323D+05 0.12509390D+01  3  4 11  4  5  1       -1 0.998343420861D-01 0.100000000000D+01
  </mgrwgt>
  </event>
  <event>
  5     66 0.43535451E-03 0.35616927E+02 0.75467711E-02 0.12223014E+00
       -1 -1    0    0    0  501 0.00000000E+00 0.00000000E+00 0.64555618E+02 0.64556411E+02 0.32000000E+00 0.0000E+00 0.9000E+01
        2 -1    0    0  502    0 0.00000000E+00 0.00000000E+00 -.76270276E+03 0.76270283E+03 0.32000000E+00 0.0000E+00 0.9000E+01
       25  1    1    2    0    0 -.21147690E+02 -.42321949E+02 -.57089707E+03 0.58633339E+03 0.12500000E+03 0.0000E+00 0.9000E+01
       24  1    1    2    0    0 -.13396564E+02 0.50996043E+02 -.16376530E+03 0.18991144E+03 0.80419002E+02 0.0000E+00 0.9000E+01
       21  1    1    2  502  501 0.34544254E+02 -.86740938E+01 0.36515234E+02 0.51014412E+02 0.75000000E+00 0.0000E+00 0.9000E+01
#aMCatNLO 1  0  0  1  2 0.16741224D+01 0.00000000D+00  -5  6  0 0.00000000D+00 0.00000000D+00 0.00000000D+00 0.00000000D+00 0.00000000D+00
  <mgrwgt>
 0.2022048223D+00    6    4    0
 0.221894352380660D+03 0.000000000000000D+00 0.000000000000000D+00 0.221894352380660D+03
 0.221894352380660D+03 0.000000000000000D+00 0.000000000000000D+00 -.221894352380660D+03
 0.194867080272754D+03 -.211478729841287D+02 -.423219028082591D+02 -.141809037035597D+03
 0.963831126620215D+02 -.133966545875791D+02 0.509960654379123D+02 -.651301832967369D+01
 0.152538511826544D+03 0.345445275717078D+02 -.867416262965317D+01 0.148322055365271D+03
 0.000000000000000D+00 -.000000000000000D+00 -.000000000000000D+00 -.000000000000000D+00
 0.222201627007156D+03 0.000000000000000D+00 0.000000000000000D+00 0.222201627007156D+03
 0.224187985801363D+03 0.000000000000000D+00 0.000000000000000D+00 -.224187985801363D+03
 0.194691554174518D+03 -.209090914060972D+02 -.416270126059680D+02 -.141809037035597D+03
 0.965493083588727D+02 -.132783958612382D+02 0.513402160668977D+02 -.651301832967369D+01
 0.152550999897070D+03 0.347315334512041D+02 -.812994747493242D+01 0.148322055365271D+03
 0.259775037805836D+01 -.544046183868719D+00 -.158325598599730D+01 -.198635879420712D+01
 0.221894352380660D+03 0.000000000000000D+00 0.000000000000000D+00 0.221894352380660D+03
 0.221894352380660D+03 0.000000000000000D+00 0.000000000000000D+00 -.221894352380660D+03
 0.194867080272754D+03 -.211478729841287D+02 -.423219028082591D+02 -.141809037035597D+03
 0.963831126620215D+02 -.133966545875791D+02 0.509960654379123D+02 -.651301832967369D+01
 0.000000000000000D+00 -.000000000000000D+00 -.000000000000000D+00 -.000000000000000D+00
 0.152538511826544D+03 0.345445275717078D+02 -.867416262965317D+01 0.148322055365271D+03
 0.222201627007156D+03 0.000000000000000D+00 0.000000000000000D+00 0.222201627007156D+03
 0.224187985801363D+03 0.000000000000000D+00 0.000000000000000D+00 -.224187985801363D+03
 0.194691554174518D+03 -.209090914060972D+02 -.416270126059680D+02 -.141809037035597D+03
 0.965493083588727D+02 -.132783958612382D+02 0.513402160668977D+02 -.651301832967369D+01
 0.259775037805836D+01 -.544046183868719D+00 -.158325598599730D+01 -.198635879420712D+01
 0.152550999897070D+03 0.347315334512041D+02 -.812994747493242D+01 0.148322055365271D+03
0.392643975265D-03 0.000000000000D+00 0.000000000000D+00 0.264662603992D-04 0.000000000000D+00  6 -1 2 25 24 21 21 2 0.99316997D-02 0.11733895D+00 0.17613759D+05 0.17613759D+05 0.17613759D+05 0.12399473D+01  1  2  2  1  6  1       -1 0.156949559658D+00 0.100000000000D+01
0.366132390463D-04 0.207203918353D-04 -.150785625055D-05 0.264662603992D-04 0.000000000000D+00  6 -1 2 25 24 21 21 4 0.99316997D-02 0.11733895D+00 0.17613759D+05 0.17613759D+05 0.17613759D+05 0.12399473D+01  1  2  3  1  6  1       -1 0.225012047353D-01 0.100000000000D+01
0.180930868275D-04 0.000000000000D+00 0.000000000000D+00 0.264662603992D-04 0.000000000000D+00  6 -1 2 25 24 21 21 4 0.99316997D-02 0.11733895D+00 0.17613759D+05 0.17613759D+05 0.17613759D+05 0.12399473D+01  1  2 15  1  6  1       -1 0.111193727079D-01 0.100000000000D+01
-.125531884329D-02 0.000000000000D+00 0.000000000000D+00 0.264662603992D-04 0.000000000000D+00  6 -1 2 25 24 21 21 4 0.99316997D-02 0.11733895D+00 0.17613759D+05 0.17613759D+05 0.17613759D+05 0.12399473D+01  1  2  4  1  6  1       -1 -.771474664263D+00 0.100000000000D+01
0.119437089633D-02 0.000000000000D+00 0.000000000000D+00 0.264662603992D-04 0.382540160775D-04  6 -1 2 25 24 21 21 4 0.99454529D-02 0.11855184D+00 0.17831833D+05 0.17831833D+05 0.17831833D+05 0.12393504D+01  1  2 11  1  6  1       -1 0.722033323860D+00 0.100000000000D+01
0.668596926249D-05 0.000000000000D+00 0.000000000000D+00 0.264407831045D-04 0.691005218463D-07  6 21 2 25 24 1 21 4 0.99454529D-02 0.11855184D+00 0.17831833D+05 0.17831833D+05 0.17831833D+05 0.12393504D+01  3  4 11  4  5  1       -1 0.610760255699D-01 0.100000000000D+01
  </mgrwgt>
  </event>
  <event>
  6     66 0.43535451E-03 0.76416876E+02 0.75467711E-02 0.11460843E+00
       21 -1    0    0  503  501 0.00000000E+00 0.00000000E+00 0.60818744E+02 0.60823368E+02 0.75000000E+00 0.0000E+00 0.9000E+01
        2 -1    0    0  502    0 0.00000000E+00 0.00000000E+00 -.19821334E+04 0.19821334E+04 0.32000000E+00 0.0000E+00 0.9000E+01
       25  1    1    2    0    0 -.19363305E+02 -.93694017E+02 -.50000561E+03 0.52419855E+03 0.12500000E+03 0.0000E+00 0.9000E+01
       24  1    1    2    0    0 0.95217222E+01 -.10473032E+02 -.10723880E+04 0.10754923E+04 0.80419002E+02 0.0000E+00 0.9000E+01
        1  1    1    2  503    0 0.68330748E+02 0.83011582E+02 -.21065734E+02 0.10956223E+03 0.32000000E+00 0.0000E+00 0.9000E+01
       21  1    1    2  502  501 -.58489166E+02 0.21155467E+02 -.32785526E+03 0.33370372E+03 0.75000000E+00 0.0000E+00 0.9000E+01
#aMCatNLO 2  0  0  1  5 0.14583731D+00 0.00000000D+00  -5  6  0 0.00000000D+00 0.00000000D+00 0.00000000D+00 0.00000000D+00 0.00000000D+00
  <mgrwgt>
 0.9026254776D-01    1    2    0
 0.169932762245175D+03 0.000000000000000D+00 0.000000000000000D+00 0.169932762245175D+03
 0.169932762245175D+03 0.000000000000000D+00 0.000000000000000D+00 -.169932762245175D+03
 0.159612854644583D+03 0.137396928658087D+02 -.534823948074102D+02 0.824749516726756D+02
 0.121601216072134D+03 0.328928716767857D+02 0.179167018376911D+02 -.831666434573687D+02
 0.000000000000000D+00 0.000000000000000D+00 0.000000000000000D+00 0.000000000000000D+00
 0.586514537736326D+02 -.466325645425943D+02 0.355656929697191D+02 0.691691784693040D+00
 0.654103612558184D+03 0.000000000000000D+00 0.000000000000000D+00 0.654103612558184D+03
 0.184306498276450D+03 0.000000000000000D+00 0.000000000000000D+00 -.184306498276450D+03
 0.177709993923299D+03 -.193616316075531D+02 -.936955255511292D+02 0.824749516726756D+02
 0.116551714653663D+03 0.952304224570794D+01 -.104741260618578D+02 -.831666434573687D+02
 0.481943298009369D+03 0.683307482331430D+02 0.830115820509480D+02 0.469797114281734D+03
 0.622051042483029D+02 -.584921588712978D+02 0.211580695620389D+02 0.691691784693040D+00
0.487060620054D-04 0.000000000000D+00 0.000000000000D+00 0.429026360478D-05 0.149609922415D-08  6 21 2 25 24 1 21 4 0.93570850D-02 0.30494387D+00 0.41776662D+05 0.41776662D+05 0.41776662D+05 0.12000883D+01  1  2  1  4  5  1       -1 0.902625477613D-01 0.100000000000D+01
  </mgrwgt>
  </event>
  <event>
  5     66 0.43535451E-03 0.30096838E+02 0.75467711E-02 0.10833332E+00
       -1 -1    0    0    0  501 0.00000000E+00 0.00000000E+00 0.10541369E+03 0.10541418E+03 0.32000000E+00 0.0000E+00 0.9000E+01
        2 -1    0    0  502    0 0.00000000E+00 0.00000000E+00 -.31094262E+03 0.31094278E+03 0.32000000E+00 0.0000E+00 0.9000E+01
       25  1    1    2    0    0 0.13230920E+03 0.14616182E+02 -.94510672E+02 0.20561280E+03 0.12500000E+03 0.0000E+00 0.9000E+01
       24  1    1    2    0    0 -.10969363E+03 0.52347604E+01 -.11765875E+03 0.17991912E+03 0.80419002E+02 0.0000E+00 0.9000E+01
       21  1    1    2  502  501 -.22615575E+02 -.19850943E+02 0.66404967E+01 0.30825036E+02 0.75000000E+00 0.0000E+00 0.9000E+01
#aMCatNLO 1  0  0  2  5 0.36916783D+01 0.00000000D+00  -5  6  0 0.00000000D+00 0.00000000D+00 0.00000000D+00 0.00000000D+00 0.00000000D+00
  <mgrwgt>
 0.3856957678D+00    5    4    0
 0.181046252061221D+03 0.000000000000000D+00 0.000000000000000D+00 0.181046252061221D+03
 0.181046252061221D+03 0.000000000000000D+00 0.000000000000000D+00 -.181046252061221D+03
 0.182782598061261D+03 0.132311289209455D+03 0.146180155107890D+02 0.803209339354392D+01
 0.140096856291887D+03 -.109692024270063D+03 0.523616558480793D+01 -.331685931266812D+02
 0.392130497692943D+02 -.226192649393915D+02 -.198541810955969D+02 0.251364997331373D+02
 0.000000000000000D+00 0.000000000000000D+00 -.000000000000000D+00 -.000000000000000D+00
 0.296966948818513D+03 0.000000000000000D+00 0.000000000000000D+00 0.296966948818513D+03
 0.322705098421192D+03 0.000000000000000D+00 0.000000000000000D+00 -.322705098421192D+03
 0.162935800343608D+03 0.685226608668951D+02 0.785060854778148D+02 0.803209339354392D+01
 0.206120854656869D+03 -.173572780953018D+03 0.692165075133102D+02 -.331685931266812D+02
 0.460354712447609D+02 -.383485007822297D+02 -.410042456930051D+01 0.251364997331373D+02
 0.204579920994467D+03 0.143398620868352D+03 -.143622168421824D+03 -.257381496026791D+02
 0.181046252061221D+03 0.000000000000000D+00 0.000000000000000D+00 0.181046252061221D+03
 0.181046252061221D+03 0.000000000000000D+00 0.000000000000000D+00 -.181046252061221D+03
 0.182782598061261D+03 0.132311289209455D+03 0.146180155107890D+02 0.803209339354392D+01
 0.140096856291887D+03 -.109692024270063D+03 0.523616558480793D+01 -.331685931266812D+02
 0.000000000000000D+00 0.000000000000000D+00 -.000000000000000D+00 -.000000000000000D+00
 0.392130497692943D+02 -.226192649393915D+02 -.198541810955969D+02 0.251364997331373D+02
 0.296966948818513D+03 0.000000000000000D+00 0.000000000000000D+00 0.296966948818513D+03
 0.322705098421192D+03 0.000000000000000D+00 0.000000000000000D+00 -.322705098421192D+03
 0.162935800343608D+03 0.685226608668951D+02 0.785060854778148D+02 0.803209339354392D+01
 0.206120854656869D+03 -.173572780953018D+03 0.692165075133102D+02 -.331685931266812D+02
 0.204579920994467D+03 0.143398620868352D+03 -.143622168421824D+03 -.257381496026791D+02
 0.460354712447609D+02 -.383485007822297D+02 -.410042456930051D+01 0.251364997331373D+02
0.582320727584D-03 0.000000000000D+00 0.000000000000D+00 0.203297732639D-04 0.000000000000D+00  6 -1 2 25 24 21 21 2 0.16217541D-01 0.47837376D-01 0.30418272D+05 0.30418272D+05 0.30418272D+05 0.12142678D+01  1  2  2  2  6  2        2 0.285516071519D+00 0.100000000000D+01
0.958769658935D-04 0.307299090512D-04 -.223626492249D-05 0.203297732639D-04 0.000000000000D+00  6 -1 2 25 24 21 21 4 0.16217541D-01 0.47837376D-01 0.30418272D+05 0.30418272D+05 0.30418272D+05 0.12142678D+01  1  2  3  2  6  2        2 0.693124964902D-01 0.100000000000D+01
0.204194823103D-04 0.000000000000D+00 0.000000000000D+00 0.203297732639D-04 0.000000000000D+00  6 -1 2 25 24 21 21 4 0.16217541D-01 0.47837376D-01 0.30418272D+05 0.30418272D+05 0.30418272D+05 0.12142678D+01  1  2 15  2  6  2        2 0.147618907500D-01 0.100000000000D+01
0.364712264594D-04 0.000000000000D+00 -.447067264734D-03 0.203297732639D-04 0.000000000000D+00  6 -1 2 25 24 21 21 4 0.16217541D-01 0.12866284D+00 0.30418272D+05 0.30418272D+05 0.30418272D+05 0.12142678D+01  1  2  5  2  6  2        2 0.860295954433D-02 0.100000000000D+01
0.301502733552D-04 0.000000000000D+00 -.493044301222D-04 0.203297732639D-04 0.000000000000D+00  6 -1 21 25 24 -2 21 4 0.16217541D-01 0.12866284D+00 0.30418272D+05 0.30418272D+05 0.30418272D+05 0.12142678D+01  3  4  5  5  5  2        2 0.750234952462D-02 0.100000000000D+01
  </mgrwgt>
  </event>
  <event>
  5     66 0.43535451E-03 0.38721237E+02 0.75467711E-02 0.11460457E+00
       -1 -1    0    0    0  501 0.00000000E+00 0.00000000E+00 0.22377274E+02 0.22379562E+02 0.32000000E+00 0.0000E+00 0.9000E+01
        2 -1    0    0  502    0 0.00000000E+00 0.00000000E+00 -.77595987E+03 0.77595993E+03 0.32000000E+00 0.0000E+00 0.9000E+01
       25  1    1    2    0    0 0.15874048E+02 0.45534249E+02 -.35345503E+03 0.37799578E+03 0.12500000E+03 0.0000E+00 0.9000E+01
       24  1    1    2    0    0 0.21109535E+02 -.34085104E+02 -.26840653E+03 0.28304892E+03 0.80419002E+02 0.0000E+00 0.9000E+01
       21  1    1    2  502  501 -.36983583E+02 -.11449146E+02 -.13172103E+03 0.13729480E+03 0.75000000E+00 0.0000E+00 0.9000E+01
#aMCatNLO 1  0  0  1  5 0.12016440D+03 0.00000000D+00  -5  6  0 0.00000000D+00 0.00000000D+00 0.00000000D+00 0.00000000D+00 0.00000000D+00
  <mgrwgt>
 0.6207946877D-01    5    4    0
 0.131775589156995D+03 0.000000000000000D+00 0.000000000000000D+00 0.131775589156995D+03
 0.131775589156995D+03 0.000000000000000D+00 0.000000000000000D+00 -.131775589156995D+03
 0.134363345460433D+03 0.158774904674036D+02 0.455353150434001D+02 0.101463778598764D+02
 0.899358734393051D+02 0.211118392579742D+02 -.340843902364295D+02 -.371348384625829D+01
 0.392519594142516D+02 -.369893297253778D+02 -.114509248069706D+02 -.643289401361814D+01
 0.000000000000000D+00 0.000000000000000D+00 -.000000000000000D+00 0.000000000000000D+00
 0.304515405564314D+03 0.000000000000000D+00 0.000000000000000D+00 0.304515405564314D+03
 0.167431995274259D+03 0.000000000000000D+00 0.000000000000000D+00 -.167431995274259D+03
 0.168355754569585D+03 0.151956832727492D+02 0.111287026750170D+03 0.101463778598764D+02
 0.832034104933523D+02 0.207218816720443D+02 0.352210463332871D+01 -.371348384625829D+01
 0.380935704817825D+02 -.371635332650693D+02 0.534881126196962D+01 -.643289401361814D+01
 0.182294665293854D+03 0.124596832027581D+01 -.120157942645468D+03 0.137083410290054D+03
 0.131775589156995D+03 0.000000000000000D+00 0.000000000000000D+00 0.131775589156995D+03
 0.131775589156995D+03 0.000000000000000D+00 0.000000000000000D+00 -.131775589156995D+03
 0.134363345460433D+03 0.158774904674036D+02 0.455353150434001D+02 0.101463778598764D+02
 0.899358734393051D+02 0.211118392579742D+02 -.340843902364295D+02 -.371348384625829D+01
 0.000000000000000D+00 0.000000000000000D+00 -.000000000000000D+00 0.000000000000000D+00
 0.392519594142516D+02 -.369893297253778D+02 -.114509248069706D+02 -.643289401361814D+01
 0.304515405564314D+03 0.000000000000000D+00 0.000000000000000D+00 0.304515405564314D+03
 0.167431995274259D+03 0.000000000000000D+00 0.000000000000000D+00 -.167431995274259D+03
 0.168355754569585D+03 0.151956832727492D+02 0.111287026750170D+03 0.101463778598764D+02
 0.832034104933523D+02 0.207218816720443D+02 0.352210463332871D+01 -.371348384625829D+01
 0.182294665293854D+03 0.124596832027581D+01 -.120157942645468D+03 0.137083410290054D+03
 0.380935704817825D+02 -.371635332650693D+02 0.534881126196962D+01 -.643289401361814D+01
0.423341219842D-04 0.000000000000D+00 0.000000000000D+00 0.169228432134D-04 0.000000000000D+00  6 -1 2 25 24 21 21 2 0.34428386D-02 0.11937862D+00 0.17234453D+05 0.17234453D+05 0.17234453D+05 0.12410056D+01  1  2  2  1  6  1       -1 0.803185296748D-01 0.100000000000D+01
0.222088409635D-05 0.223403299370D-05 -.162574175250D-06 0.169228432134D-04 0.000000000000D+00  6 -1 2 25 24 21 21 4 0.34428386D-02 0.11937862D+00 0.17234453D+05 0.17234453D+05 0.17234453D+05 0.12410056D+01  1  2  3  1  6  1       -1 0.648931088795D-02 0.100000000000D+01
0.114065362288D-05 0.000000000000D+00 0.000000000000D+00 0.169228432134D-04 0.000000000000D+00  6 -1 2 25 24 21 21 4 0.34428386D-02 0.11937862D+00 0.17234453D+05 0.17234453D+05 0.17234453D+05 0.12410056D+01  1  2 15  1  6  1       -1 0.333293213565D-02 0.100000000000D+01
-.224149457325D-04 0.000000000000D+00 -.202653906750D-04 0.169228432134D-04 0.000000000000D+00  6 -1 2 25 24 21 21 4 0.10114100D-01 0.11937862D+00 0.17234453D+05 0.17234453D+05 0.17234453D+05 0.12410056D+01  1  2  5  1  6  1       -1 -.131597417447D-01 0.100000000000D+01
-.168516828696D-05 0.000000000000D+00 -.247491511542D-05 0.169228432134D-04 0.000000000000D+00  6 21 2 25 24 1 21 4 0.10114100D-01 0.11937862D+00 0.17234453D+05 0.17234453D+05 0.17234453D+05 0.12410056D+01  3  4  5  4  5  1       -1 -.149015621862D-01 0.100000000000D+01
  </mgrwgt>
  </event>
  <event>
  5     66 -.43535451E-03 0.20149985E+02 0.75467711E-02 0.11474295E+00
       -1 -1    0    0    0  501 0.00000000E+00 0.00000000E+00 0.15817381E+03 0.15817413E+03 0.32000000E+00 0.0000E+00 0.9000E+01
        2 -1    0    0  502    0 -.00000000E+00 -.00000000E+00 -.47771611E+03 0.47771622E+03 0.32000000E+00 0.0000E+00 0.9000E+01
       25  1    1    2    0    0 -.42149591E+02 -.15948884E+03 -.37546402E+03 0.42873244E+03 0.12500000E+03 0.0000E+00 0.9000E+01
       24  1    1    2    0    0 0.22085043E+02 0.15768573E+03 0.43963527E+02 0.18371866E+03 0.80419002E+02 0.0000E+00 0.9000E+01
       21  1    1    2  502  501 0.20064548E+02 0.18031002E+01 0.11958192E+02 0.23439243E+02 0.75000000E+00 0.0000E+00 0.9000E+01
#aMCatNLO 1  0  0  5  2 0.18267839D+01 0.00000000D+00  -5  6  0 0.00000000D+00 0.00000000D+00 0.00000000D+00 0.00000000D+00 0.00000000D+00
  <mgrwgt>
 -.9550718281D+00   25    2    0
 0.274886002184962D+03 0.000000000000000D+00 0.000000000000000D+00 0.274886002184962D+03
 0.274886002184962D+03 -.000000000000000D+00 -.000000000000000D+00 -.274886002184962D+03
 0.277663636244862D+03 -.421520482262137D+02 -.159489055984611D+03 -.185090628461280D+03
 0.238047602193375D+03 0.220829362232127D+02 0.157685545616711D+03 0.157629494660633D+03
 0.340607659316865D+02 0.200691120030010D+02 0.180351036790075D+01 0.274611338006466D+02
 0.000000000000000D+00 0.000000000000000D+00 0.000000000000000D+00 0.000000000000000D+00
 0.274886002184962D+03 0.000000000000000D+00 0.000000000000000D+00 0.274886002184962D+03
 0.274886002184962D+03 -.000000000000000D+00 -.000000000000000D+00 -.274886002184962D+03
 0.277597024513802D+03 -.420923271061529D+02 -.159483689147295D+03 -.185008910362917D+03
 0.238101813408952D+03 0.221341485247959D+02 0.157690147809217D+03 0.157699569901920D+03
 0.194909739610463D+02 0.124866562991325D+02 0.225474217331094D+01 0.147951890204016D+02
 0.145821924861238D+02 0.747152228222446D+01 -.461200835233319D+00 0.125141514405959D+02
0.322865026954D-03 0.000000000000D+00 0.000000000000D+00 0.224305203761D-04 0.000000000000D+00  6 -1 2 25 24 21 21 2 0.24334465D-01 0.73494820D-01 0.41108628D+05 0.41108628D+05 0.41108628D+05 0.12007964D+01  1  2  2  3  6  5       21 0.506271046807D-01 0.100000000000D+01
0.880541150817D-04 0.170380555665D-04 -.123988671582D-05 0.224305203761D-04 0.000000000000D+00  6 -1 2 25 24 21 21 4 0.24334465D-01 0.73494820D-01 0.41108628D+05 0.41108628D+05 0.41108628D+05 0.12007964D+01  1  2  3  3  6  5       21 0.199090491474D-01 0.100000000000D+01
0.956489427958D-05 0.000000000000D+00 0.000000000000D+00 0.224305203761D-04 0.000000000000D+00  6 -1 2 25 24 21 21 4 0.24334465D-01 0.73494820D-01 0.41108628D+05 0.41108628D+05 0.41108628D+05 0.12007964D+01  1  2 15  3  6  5       21 0.216262408776D-02 0.100000000000D+01
0.136510739314D-05 0.000000000000D+00 0.000000000000D+00 0.224303706837D-04 0.000000000000D+00  6 -1 2 25 24 21 21 4 0.24334465D-01 0.73494820D-01 0.41112374D+05 0.41112374D+05 0.41112374D+05 0.12007924D+01  1  2 12  3  6  5       21 0.308646951556D-03 0.100000000000D+01
0.137002962289D-05 0.000000000000D+00 0.000000000000D+00 0.224303706837D-04 0.000000000000D+00  6 -1 2 25 24 21 21 4 0.24334465D-01 0.73494820D-01 0.41112374D+05 0.41112374D+05 0.41112374D+05 0.12007924D+01  1  2 12  3  6  5       21 0.309759853892D-03 0.100000000000D+01
-.226719046051D-01 0.000000000000D+00 0.000000000000D+00 0.224305203761D-04 0.000000000000D+00  6 -1 2 25 24 21 21 4 0.24334465D-01 0.73494820D-01 0.41108628D+05 0.41108628D+05 0.41108628D+05 0.12007964D+01  1  2  4  3  6  5       21 -.512612116572D+01 0.100000000000D+01
-.700058518445D-02 0.000000000000D+00 0.000000000000D+00 0.224305203761D-04 0.000000000000D+00  6 -1 2 25 24 21 21 4 0.24334465D-01 0.73494820D-01 0.41108628D+05 0.41108628D+05 0.41108628D+05 0.12007964D+01  1  2  5  3  6  5       21 -.158283340158D+01 0.100000000000D+01
0.170928287137D-01 0.000000000000D+00 -.000000000000D+00 0.224305203761D-04 0.000000000000D+00  6 -1 2 25 24 21 21 4 0.24334465D-01 0.73494820D-01 0.41108628D+05 0.41108628D+05 0.41108628D+05 0.12007964D+01  1  2  6  3  6  5       21 0.386469123690D+01 0.100000000000D+01
0.798088471921D-02 0.000000000000D+00 0.000000000000D+00 0.224305203761D-04 0.385661004770D-04  6 -1 2 25 24 21 21 4 0.24334465D-01 0.73494820D-01 0.41112374D+05 0.41112374D+05 0.41112374D+05 0.12007924D+01  1  2 11  3  6  5       21 0.180445564332D+01 0.100000000000D+01
0.565438219026D-07 0.000000000000D+00 0.000000000000D+00 0.224303706837D-04 0.000000000000D+00  6 -1 2 25 24 1 -1 4 0.24334465D-01 0.73494820D-01 0.41112374D+05 0.41112374D+05 0.41112374D+05 0.12007924D+01  1  2 12  6  6  5       21 0.127843994891D-04 0.100000000000D+01
0.567456439148D-07 0.000000000000D+00 0.000000000000D+00 0.224303706837D-04 0.000000000000D+00  6 -1 2 25 24 1 -1 4 0.24334465D-01 0.73494820D-01 0.41112374D+05 0.41112374D+05 0.41112374D+05 0.12007924D+01  1  2 12  6  6  5       21 0.128300308799D-04 0.100000000000D+01
-.160369655647D-03 0.000000000000D+00 0.000000000000D+00 0.224305203761D-04 0.000000000000D+00  6 -1 2 25 24 1 -1 4 0.24334465D-01 0.73494820D-01 0.41108628D+05 0.41108628D+05 0.41108628D+05 0.12007964D+01  1  2  5  6  6  5       21 -.362596041432D-01 0.100000000000D+01
0.172593594242D-03 0.000000000000D+00 0.000000000000D+00 0.224305203761D-04 0.107358988608D-05  6 -1 2 25 24 1 -1 4 0.24334465D-01 0.73494820D-01 0.41112374D+05 0.41112374D+05 0.41112374D+05 0.12007924D+01  1  2 11  6  6  5       21 0.390229274182D-01 0.100000000000D+01
0.565438219026D-07 0.000000000000D+00 0.000000000000D+00 0.224303706837D-04 0.000000000000D+00  6 -1 2 25 24 2 -2 4 0.24334465D-01 0.73494820D-01 0.41112374D+05 0.41112374D+05 0.41112374D+05 0.12007924D+01  1  2 12  7  6  5       21 0.127843994891D-04 0.100000000000D+01
0.567456439148D-07 0.000000000000D+00 0.000000000000D+00 0.224303706837D-04 0.000000000000D+00  6 -1 2 25 24 2 -2 4 0.24334465D-01 0.73494820D-01 0.41112374D+05 0.41112374D+05 0.41112374D+05 0.12007924D+01  1  2 12  7  6  5       21 0.128300308799D-04 0.100000000000D+01
-.160369655647D-03 0.000000000000D+00 0.000000000000D+00 0.224305203761D-04 0.000000000000D+00  6 -1 2 25 24 2 -2 4 0.24334465D-01 0.73494820D-01 0.41108628D+05 0.41108628D+05 0.41108628D+05 0.12007964D+01  1  2  5  7  6  5       21 -.362596041432D-01 0.100000000000D+01
0.173015871048D-03 0.000000000000D+00 0.000000000000D+00 0.224305203761D-04 0.107482595143D-05  6 -1 2 25 24 2 -2 4 0.24334465D-01 0.73494820D-01 0.41112374D+05 0.41112374D+05 0.41112374D+05 0.12007924D+01  1  2 11  7  6  5       21 0.391184030193D-01 0.100000000000D+01
0.565438219026D-07 0.000000000000D+00 0.000000000000D+00 0.224303706837D-04 0.000000000000D+00  6 -1 2 25 24 3 -3 4 0.24334465D-01 0.73494820D-01 0.41112374D+05 0.41112374D+05 0.41112374D+05 0.12007924D+01  1  2 12  8  6  5       21 0.127843994891D-04 0.100000000000D+01
0.565438219026D-07 0.000000000000D+00 0.000000000000D+00 0.224303706837D-04 0.000000000000D+00  6 -1 2 25 24 4 -4 4 0.24334465D-01 0.73494820D-01 0.41112374D+05 0.41112374D+05 0.41112374D+05 0.12007924D+01  1  2 12  8  6  5       21 0.127843994891D-04 0.100000000000D+01
0.567456439148D-07 0.000000000000D+00 0.000000000000D+00 0.224303706837D-04 0.000000000000D+00  6 -1 2 25 24 3 -3 4 0.24334465D-01 0.73494820D-01 0.41112374D+05 0.41112374D+05 0.41112374D+05 0.12007924D+01  1  2 12  8  6  5       21 0.128300308799D-04 0.100000000000D+01
0.567456439148D-07 0.000000000000D+00 0.000000000000D+00 0.224303706837D-04 0.000000000000D+00  6 -1 2 25 24 4 -4 4 0.24334465D-01 0.73494820D-01 0.41112374D+05 0.41112374D+05 0.41112374D+05 0.12007924D+01  1  2 12  8  6  5       21 0.128300308799D-04 0.100000000000D+01
-.160369655647D-03 0.000000000000D+00 0.000000000000D+00 0.224305203761D-04 0.000000000000D+00  6 -1 2 25 24 3 -3 4 0.24334465D-01 0.73494820D-01 0.41108628D+05 0.41108628D+05 0.41108628D+05 0.12007964D+01  1  2  5  8  6  5       21 -.362596041432D-01 0.100000000000D+01
-.160369655647D-03 0.000000000000D+00 0.000000000000D+00 0.224305203761D-04 0.000000000000D+00  6 -1 2 25 24 4 -4 4 0.24334465D-01 0.73494820D-01 0.41108628D+05 0.41108628D+05 0.41108628D+05 0.12007964D+01  1  2  5  8  6  5       21 -.362596041432D-01 0.100000000000D+01
0.172963894799D-03 0.000000000000D+00 0.000000000000D+00 0.224305203761D-04 0.107448215573D-05  6 -1 2 25 24 3 -3 4 0.24334465D-01 0.73494820D-01 0.41112374D+05 0.41112374D+05 0.41112374D+05 0.12007924D+01  1  2 11  8  6  5       21 0.391066513352D-01 0.100000000000D+01
0.172963894799D-03 0.000000000000D+00 0.000000000000D+00 0.224305203761D-04 0.107448215573D-05  6 -1 2 25 24 4 -4 4 0.24334465D-01 0.73494820D-01 0.41112374D+05 0.41112374D+05 0.41112374D+05 0.12007924D+01  1  2 11  8  6  5       21 0.391066513352D-01 0.100000000000D+01
  </mgrwgt>
  </event>
  <event>
  6     66 0.43535451E-03 0.15902462E+02 0.75467711E-02 0.11803812E+00
       21 -1    0    0  503  501 0.00000000E+00 0.00000000E+00 0.62431944E+02 0.62436449E+02 0.75000000E+00 0.0000E+00 0.9000E+01
        2 -1    0    0  502    0 0.00000000E+00 0.00000000E+00 -.71213351E+03 0.71213358E+03 0.32000000E+00 0.0000E+00 0.9000E+01
       25  1    1    2    0    0 -.53518080E+01 -.10991118E+03 -.50661639E+03 0.53328630E+03 0.12500000E+03 0.0000E+00 0.9000E+01
       24  1    1    2    0    0 0.16723689E+02 0.11349855E+03 -.14431437E+03 0.20113542E+03 0.80419002E+02 0.0000E+00 0.9000E+01
        1  1    1    2  503    0 -.19768399E+02 -.37344014E+01 0.14236255E+02 0.24647692E+02 0.32000000E+00 0.0000E+00 0.9000E+01
       21  1    1    2  502  501 0.83965179E+01 0.14702857E+00 -.13007057E+02 0.15500618E+02 0.75000000E+00 0.0000E+00 0.9000E+01
#aMCatNLO 2  0  0  1  5 0.17408840D+02 0.00000000D+00  -5  6  0 0.00000000D+00 0.00000000D+00 0.00000000D+00 0.00000000D+00 0.00000000D+00
  <mgrwgt>
 0.5785030181D+00    1    2    0
 0.174044066634718D+03 0.000000000000000D+00 0.000000000000000D+00 0.174044066634718D+03
 0.174044066634718D+03 0.000000000000000D+00 0.000000000000000D+00 -.174044066634718D+03
 0.184087955709714D+03 -.157648651720115D+02 -.111875007688845D+03 -.741540768812534D+02
 0.155894280154072D+03 0.780818749329234D+01 0.111817123003195D+03 0.726069820454191D+02
 0.000000000000000D+00 -.000000000000000D+00 -.000000000000000D+00 0.000000000000000D+00
 0.810589740565018D+01 0.795667767871920D+01 0.578846856504426D-01 0.154709483583432D+01
 0.253171660608157D+03 0.000000000000000D+00 0.000000000000000D+00 0.253171660608157D+03
 0.175617962607003D+03 0.000000000000000D+00 0.000000000000000D+00 -.175617962607003D+03
 0.182299619791864D+03 -.536971410378555D+01 -.109911284355115D+03 -.741540768812534D+02
 0.157797481900857D+03 0.167082525431372D+02 0.113498413183144D+03 0.726069820454191D+02
 0.801206055459678D+02 -.197683991657151D+02 -.373440140094449D+01 0.775536980011536D+02
 0.857191597647127D+01 0.842986072636347D+01 0.147272572915012D+00 0.154709483583432D+01
0.581492191193D-04 0.000000000000D+00 0.000000000000D+00 0.235663244521D-03 0.221917941612D-06  6 21 2 25 24 1 21 4 0.96052492D-02 0.10955916D+00 0.28087476D+05 0.28087476D+05 0.28087476D+05 0.12179125D+01  1  2  1  4  5  1       -1 0.578503018079D+00 0.100000000000D+01
  </mgrwgt>
  </event>
  <event>
  5     66 -.43535451E-03 0.38773086E+02 0.75467711E-02 0.11298908E+00
       -1 -1    0    0    0  501 0.00000000E+00 0.00000000E+00 0.97720611E+03 0.97720617E+03 0.32000000E+00 0.0000E+00 0.9000E+01
        2 -1    0    0  502    0 0.00000000E+00 0.00000000E+00 -.70918937E+02 0.70919659E+02 0.32000000E+00 0.0000E+00 0.9000E+01
       25  1    1    2    0    0 0.23610005E+02 -.16309578E+03 0.31077878E+03 0.37331772E+03 0.12500000E+03 0.0000E+00 0.9000E+01
       24  1    1    2    0    0 -.58982846E+02 0.17897181E+03 0.23314965E+03 0.31038019E+03 0.80419002E+02 0.0000E+00 0.9000E+01
       21  1    1    2  502  501 0.35372841E+02 -.15876033E+02 0.36235875E+03 0.36442792E+03 0.75000000E+00 0.0000E+00 0.9000E+01
#aMCatNLO 1  0  0  5  1 0.44864487D+01 0.00000000D+00  -5  6  0 0.00000000D+00 0.00000000D+00 0.00000000D+00 0.00000000D+00 0.00000000D+00
  <mgrwgt>
 -.1229146020D+00   25    2    0
 0.263254296819196D+03 0.000000000000000D+00 0.000000000000000D+00 0.263254296819196D+03
 0.263254296819196D+03 -.000000000000000D+00 -.000000000000000D+00 -.263254296819196D+03
 0.208218980840210D+03 0.236096246255660D+02 -.163095610051851D+03 -.239280502546768D+02
 0.216553476996425D+03 -.589832414649286D+02 0.178971990653997D+03 -.701298526485412D+02
 0.101736135801756D+03 0.353736168393626D+02 -.158763806021464D+02 0.940579029032180D+02
 0.000000000000000D+00 0.000000000000000D+00 0.000000000000000D+00 0.000000000000000D+00
 0.263254296819196D+03 0.000000000000000D+00 0.000000000000000D+00 0.263254296819196D+03
 0.263254296819196D+03 -.000000000000000D+00 -.000000000000000D+00 -.263254296819196D+03
 0.208229711502793D+03 0.236763984047672D+02 -.163125579447903D+03 -.237504998031888D+02
 0.216449096167446D+03 -.589138134207406D+02 0.178940829971192D+03 -.699452445472931D+02
 0.292046224838854D+02 0.114434832619859D+02 -.858451406697297D+01 0.254610051548020D+02
 0.726251634842674D+02 0.237939317539874D+02 -.723073645631676D+01 0.682347391956798D+02
0.352765405684D-03 0.000000000000D+00 0.000000000000D+00 0.118158640841D-04 0.000000000000D+00  6 -1 2 25 24 21 21 2 0.15033946D+00 0.10910665D-01 0.50736668D+05 0.50736668D+05 0.50736668D+05 0.11916532D+01  1  2  2  3  6  5       21 0.123789976300D-01 0.100000000000D+01
0.479245968300D-04 0.186159419021D-04 -.135471204309D-05 0.118158640841D-04 0.000000000000D+00  6 -1 2 25 24 21 21 4 0.15033946D+00 0.10910665D-01 0.50736668D+05 0.50736668D+05 0.50736668D+05 0.11916532D+01  1  2  3  3  6  5       21 0.238812869095D-02 0.100000000000D+01
0.668733194089D-05 0.000000000000D+00 0.000000000000D+00 0.118158640841D-04 0.000000000000D+00  6 -1 2 25 24 21 21 4 0.15033946D+00 0.10910665D-01 0.50736668D+05 0.50736668D+05 0.50736668D+05 0.11916532D+01  1  2 15  3  6  5       21 0.333236173704D-03 0.100000000000D+01
0.222859325610D-03 0.000000000000D+00 0.000000000000D+00 0.118144100515D-04 0.000000000000D+00  6 -1 2 25 24 21 21 4 0.15033946D+00 0.10910665D-01 0.50823386D+05 0.50823386D+05 0.50823386D+05 0.11915799D+01  1  2 12  3  6  5       21 0.111024058633D-01 0.100000000000D+01
0.231944895339D-03 0.000000000000D+00 0.000000000000D+00 0.118144100515D-04 0.000000000000D+00  6 -1 2 25 24 21 21 4 0.15033946D+00 0.10910665D-01 0.50823386D+05 0.50823386D+05 0.50823386D+05 0.11915799D+01  1  2 12  3  6  5       21 0.115550307753D-01 0.100000000000D+01
-.110256178259D-01 0.000000000000D+00 0.000000000000D+00 0.118158640841D-04 0.000000000000D+00  6 -1 2 25 24 21 21 4 0.15033946D+00 0.10910665D-01 0.50736668D+05 0.50736668D+05 0.50736668D+05 0.11916532D+01  1  2  4  3  6  5       21 -.549417126216D+00 0.100000000000D+01
-.213637970017D-02 0.000000000000D+00 0.000000000000D+00 0.118158640841D-04 0.000000000000D+00  6 -1 2 25 24 21 21 4 0.15033946D+00 0.10910665D-01 0.50736668D+05 0.50736668D+05 0.50736668D+05 0.11916532D+01  1  2  5  3  6  5       21 -.106457852423D+00 0.100000000000D+01
0.856712725078D-02 0.000000000000D+00 -.000000000000D+00 0.118158640841D-04 0.000000000000D+00  6 -1 2 25 24 21 21 4 0.15033946D+00 0.10910665D-01 0.50736668D+05 0.50736668D+05 0.50736668D+05 0.11916532D+01  1  2  6  3  6  5       21 0.426908179514D+00 0.100000000000D+01
0.150463007623D-02 0.000000000000D+00 0.000000000000D+00 0.118158640841D-04 0.286938087956D-05  6 -1 2 25 24 21 21 4 0.15033946D+00 0.10910665D-01 0.50823386D+05 0.50823386D+05 0.50823386D+05 0.11915799D+01  1  2 11  3  6  5       21 0.749576610030D-01 0.100000000000D+01
0.268080175451D-04 0.000000000000D+00 0.000000000000D+00 0.118144100515D-04 0.000000000000D+00  6 -1 2 25 24 1 -1 4 0.15033946D+00 0.10910665D-01 0.50823386D+05 0.50823386D+05 0.50823386D+05 0.11915799D+01  1  2 12  6  6  5       21 0.133552181567D-02 0.100000000000D+01
0.276588820681D-04 0.000000000000D+00 0.000000000000D+00 0.118144100515D-04 0.000000000000D+00  6 -1 2 25 24 1 -1 4 0.15033946D+00 0.10910665D-01 0.50823386D+05 0.50823386D+05 0.50823386D+05 0.11915799D+01  1  2 12  6  6  5       21 0.137791018440D-02 0.100000000000D+01
-.254142192481D-03 0.000000000000D+00 0.000000000000D+00 0.118158640841D-04 0.000000000000D+00  6 -1 2 25 24 1 -1 4 0.15033946D+00 0.10910665D-01 0.50736668D+05 0.50736668D+05 0.50736668D+05 0.11916532D+01  1  2  5  6  6  5       21 -.126641495514D-01 0.100000000000D+01
0.169101922609D-03 0.000000000000D+00 0.000000000000D+00 0.118158640841D-04 0.855553860277D-07  6 -1 2 25 24 1 -1 4 0.15033946D+00 0.10910665D-01 0.50823386D+05 0.50823386D+05 0.50823386D+05 0.11915799D+01  1  2 11  6  6  5       21 0.842431956542D-02 0.100000000000D+01
0.268080175451D-04 0.000000000000D+00 0.000000000000D+00 0.118144100515D-04 0.000000000000D+00  6 -1 2 25 24 2 -2 4 0.15033946D+00 0.10910665D-01 0.50823386D+05 0.50823386D+05 0.50823386D+05 0.11915799D+01  1  2 12  7  6  5       21 0.133552181567D-02 0.100000000000D+01
0.276588820681D-04 0.000000000000D+00 0.000000000000D+00 0.118144100515D-04 0.000000000000D+00  6 -1 2 25 24 2 -2 4 0.15033946D+00 0.10910665D-01 0.50823386D+05 0.50823386D+05 0.50823386D+05 0.11915799D+01  1  2 12  7  6  5       21 0.137791018440D-02 0.100000000000D+01
-.254142192481D-03 0.000000000000D+00 0.000000000000D+00 0.118158640841D-04 0.000000000000D+00  6 -1 2 25 24 2 -2 4 0.15033946D+00 0.10910665D-01 0.50736668D+05 0.50736668D+05 0.50736668D+05 0.11916532D+01  1  2  5  7  6  5       21 -.126641495514D-01 0.100000000000D+01
0.165211108105D-03 0.000000000000D+00 0.000000000000D+00 0.118158640841D-04 0.828733961769D-07  6 -1 2 25 24 2 -2 4 0.15033946D+00 0.10910665D-01 0.50823386D+05 0.50823386D+05 0.50823386D+05 0.11915799D+01  1  2 11  7  6  5       21 0.823048696881D-02 0.100000000000D+01
0.268080175451D-04 0.000000000000D+00 0.000000000000D+00 0.118144100515D-04 0.000000000000D+00  6 -1 2 25 24 3 -3 4 0.15033946D+00 0.10910665D-01 0.50823386D+05 0.50823386D+05 0.50823386D+05 0.11915799D+01  1  2 12  8  6  5       21 0.133552181567D-02 0.100000000000D+01
0.268080175451D-04 0.000000000000D+00 0.000000000000D+00 0.118144100515D-04 0.000000000000D+00  6 -1 2 25 24 4 -4 4 0.15033946D+00 0.10910665D-01 0.50823386D+05 0.50823386D+05 0.50823386D+05 0.11915799D+01  1  2 12  8  6  5       21 0.133552181567D-02 0.100000000000D+01
0.276588820681D-04 0.000000000000D+00 0.000000000000D+00 0.118144100515D-04 0.000000000000D+00  6 -1 2 25 24 3 -3 4 0.15033946D+00 0.10910665D-01 0.50823386D+05 0.50823386D+05 0.50823386D+05 0.11915799D+01  1  2 12  8  6  5       21 0.137791018440D-02 0.100000000000D+01
0.276588820681D-04 0.000000000000D+00 0.000000000000D+00 0.118144100515D-04 0.000000000000D+00  6 -1 2 25 24 4 -4 4 0.15033946D+00 0.10910665D-01 0.50823386D+05 0.50823386D+05 0.50823386D+05 0.11915799D+01  1  2 12  8  6  5       21 0.137791018440D-02 0.100000000000D+01
-.254142192481D-03 0.000000000000D+00 0.000000000000D+00 0.118158640841D-04 0.000000000000D+00  6 -1 2 25 24 3 -3 4 0.15033946D+00 0.10910665D-01 0.50736668D+05 0.50736668D+05 0.50736668D+05 0.11916532D+01  1  2  5  8  6  5       21 -.126641495514D-01 0.100000000000D+01
-.254142192481D-03 0.000000000000D+00 0.000000000000D+00 0.118158640841D-04 0.000000000000D+00  6 -1 2 25 24 4 -4 4 0.15033946D+00 0.10910665D-01 0.50736668D+05 0.50736668D+05 0.50736668D+05 0.11916532D+01  1  2  5  8  6  5       21 -.126641495514D-01 0.100000000000D+01
0.165450245429D-03 0.000000000000D+00 0.000000000000D+00 0.118158640841D-04 0.829767110288D-07  6 -1 2 25 24 3 -3 4 0.15033946D+00 0.10910665D-01 0.50823386D+05 0.50823386D+05 0.50823386D+05 0.11915799D+01  1  2 11  8  6  5       21 0.824240031201D-02 0.100000000000D+01
0.165450245429D-03 0.000000000000D+00 0.000000000000D+00 0.118158640841D-04 0.829767110288D-07  6 -1 2 25 24 4 -4 4 0.15033946D+00 0.10910665D-01 0.50823386D+05 0.50823386D+05 0.50823386D+05 0.11915799D+01  1  2 11  8  6  5       21 0.824240031201D-02 0.100000000000D+01
  </mgrwgt>
  </event>
  <event>
  6     66 0.43535451E-03 0.32880394E+02 0.75467711E-02 0.11513975E+00
       21 -1    0    0  503  501 0.00000000E+00 0.00000000E+00 0.53714380E+03 0.53714432E+03 0.75000000E+00 0.0000E+00 0.9000E+01
        2 -1    0    0  502    0 0.00000000E+00 0.00000000E+00 -.25710657E+04 0.25710657E+04 0.32000000E+00 0.0000E+00 0.9000E+01
       25  1    1    2    0    0 0.10991071E+03 -.77858675E+01 -.84541800E+03 0.86168299E+03 0.12500000E+03 0.0000E+00 0.9000E+01
       24  1    1    2    0    0 -.29149516E+01 0.68823003E+02 -.16786120E+04 0.16819484E+04 0.80419002E+02 0.0000E+00 0.9000E+01
        1  1    1    2  503    0 -.54780832E+02 -.25588127E+02 0.49738340E+03 0.50104495E+03 0.32000000E+00 0.0000E+00 0.9000E+01
       21  1    1    2  502  501 -.52214927E+02 -.35449009E+02 -.72752926E+01 0.63533639E+02 0.75000000E+00 0.0000E+00 0.9000E+01
#aMCatNLO 2  0  0  1  5 0.60462317D+02 0.00000000D+00  -5  6  0 0.00000000D+00 0.00000000D+00 0.00000000D+00 0.00000000D+00 0.00000000D+00
  <mgrwgt>
 0.1762866812D+00    2    2    0
 0.310703856963131D+03 0.000000000000000D+00 0.000000000000000D+00 0.310703856963131D+03
 0.310703856963131D+03 0.000000000000000D+00 0.000000000000000D+00 -.310703856963131D+03
 0.162078836755392D+03 0.952797001022178D+02 -.146199989768562D+02 -.367774890704796D+02
 0.216342085009918D+03 -.220098052630795D+02 0.599038154013871D+02 -.190430520570380D+03
 0.000000000000000D+00 -.000000000000000D+00 -.000000000000000D+00 0.000000000000000D+00
 0.242986792160952D+03 -.732698948391382D+02 -.452838164245309D+02 0.227208009640859D+03
 0.442081061185470D+04 0.000000000000000D+00 0.000000000000000D+00 0.442081061185470D+04
 0.312393561751196D+03 0.000000000000000D+00 0.000000000000000D+00 -.312393561751196D+03
 0.170641698350057D+03 0.109910812628952D+03 -.778580636197013D+01 -.367774890704796D+02
 0.217890140308831D+03 -.291479945179351D+01 0.688230925553458D+02 -.190430520570380D+03
 0.410886192873253D+04 -.547808322729315D+02 -.255881265811406D+02 0.410841705010350D+04
 0.235810406214475D+03 -.522151809042268D+02 -.354491596122351D+02 0.227208009640859D+03
-.769150293434D-02 0.000000000000D+00 0.000000000000D+00 0.477754416016D-05 0.000000000000D+00  6 21 2 25 24 1 21 4 0.83398058D-01 0.39340912D+00 0.39222516D+05 0.39222516D+05 0.39222516D+05 0.12028669D+01  1  2 13  4  5  1       -1 -.978004021396D-01 0.100000000000D+01
0.214828467621D-01 0.000000000000D+00 0.000000000000D+00 0.487308870467D-05 0.535773651118D-07  6 21 2 25 24 1 21 4 0.82637547D-01 0.39554860D+00 0.39222516D+05 0.39222516D+05 0.39222516D+05 0.12028669D+01  1  2  1  4  5  1       -1 0.274087083361D+00 0.100000000000D+01
  </mgrwgt>
  </event>
  <event>
  5     66 0.43535451E-03 0.44619468E+02 0.75467711E-02 0.12187624E+00
       -1 -1    0    0    0  501 0.00000000E+00 0.00000000E+00 0.48333144E+02 0.48334203E+02 0.32000000E+00 0.0000E+00 0.9000E+01
        2 -1    0    0  502    0 -.00000000E+00 -.00000000E+00 -.60202068E+03 0.60202077E+03 0.32000000E+00 0.0000E+00 0.9000E+01
       25  1    1    2    0    0 0.25313840E+02 0.11226017E+02 -.20985765E+03 0.24582931E+03 0.12500000E+03 0.0000E+00 0.9000E+01
       24  1    1    2    0    0 -.98971064E+01 0.36578687E+02 -.34294813E+03 0.35428320E+03 0.80419002E+02 0.0000E+00 0.9000E+01
       21  1    1    2  502  501 -.15416734E+02 -.47804704E+02 -.88176336E+00 0.50242466E+02 0.75000000E+00 0.0000E+00 0.9000E+01
#aMCatNLO 1  0  0  5  1 0.92446491D+01 0.00000000D+00  -5  6  0 0.00000000D+00 0.00000000D+00 0.00000000D+00 0.00000000D+00 0.00000000D+00
  <mgrwgt>
 0.1713533498D+00   25    2    0
 0.170581137961100D+03 0.000000000000000D+00 0.000000000000000D+00 0.170581137961100D+03
 0.170581137961100D+03 -.000000000000000D+00 -.000000000000000D+00 -.170581137961100D+03
 0.128035190624074D+03 0.253140232428392D+02 0.112265839250650D+02 -.108354915786648D+01
 0.118782142944166D+03 -.989693677875525D+01 0.365792130237198D+02 -.787781273260561D+02
 0.943449423539609D+02 -.154170864640839D+02 -.478057969487848D+02 0.798616764839226D+02
 0.000000000000000D+00 0.000000000000000D+00 0.000000000000000D+00 0.000000000000000D+00
 0.170581137961100D+03 0.000000000000000D+00 0.000000000000000D+00 0.170581137961100D+03
 0.170581137961100D+03 -.000000000000000D+00 -.000000000000000D+00 -.170581137961100D+03
 0.127924381528040D+03 0.250831136503146D+02 0.105105720430877D+02 0.112580034130405D+00
 0.117866282412611D+03 -.101104251472943D+02 0.359172214326963D+02 -.776722413948157D+02
 0.804667467858089D+02 -.647131031149677D+01 -.465470387965562D+02 0.653176290171015D+02
 0.149048651957403D+02 -.850137819152353D+01 0.119245320772143D+00 0.122420323435838D+02
0.349426677152D-04 0.000000000000D+00 0.000000000000D+00 0.107396136960D-04 0.000000000000D+00  6 -1 2 25 24 21 21 2 0.74359564D-02 0.92618655D-01 0.17843730D+05 0.17843730D+05 0.17843730D+05 0.12393180D+01  1  2  2  3  6  5       21 0.285645599927D-01 0.100000000000D+01
-.390454555265D-06 0.184397523569D-05 -.134189044642D-06 0.107396136960D-04 0.000000000000D+00  6 -1 2 25 24 21 21 4 0.74359564D-02 0.92618655D-01 0.17843730D+05 0.17843730D+05 0.17843730D+05 0.12393180D+01  1  2  3  3  6  5       21 -.490238599966D-03 0.100000000000D+01
0.156551997937D-05 0.000000000000D+00 0.000000000000D+00 0.107396136960D-04 0.000000000000D+00  6 -1 2 25 24 21 21 4 0.74359564D-02 0.92618655D-01 0.17843730D+05 0.17843730D+05 0.17843730D+05 0.12393180D+01  1  2 15  3  6  5       21 0.196560217458D-02 0.100000000000D+01
0.764669547390D-04 0.000000000000D+00 0.000000000000D+00 0.107090774593D-04 0.000000000000D+00  6 -1 2 25 24 21 21 4 0.74359564D-02 0.92618655D-01 0.18506202D+05 0.18506202D+05 0.18506202D+05 0.12375549D+01  1  2 12  3  6  5       21 0.955459272388D-01 0.100000000000D+01
0.122143824974D-03 0.000000000000D+00 0.000000000000D+00 0.107090774593D-04 0.000000000000D+00  6 -1 2 25 24 21 21 4 0.74359564D-02 0.92618655D-01 0.18506202D+05 0.18506202D+05 0.18506202D+05 0.12375549D+01  1  2 12  3  6  5       21 0.152619455730D+00 0.100000000000D+01
-.119892692387D-03 0.000000000000D+00 0.000000000000D+00 0.107396136960D-04 0.000000000000D+00  6 -1 2 25 24 21 21 4 0.74359564D-02 0.92618655D-01 0.17843730D+05 0.17843730D+05 0.17843730D+05 0.12393180D+01  1  2  4  3  6  5       21 -.150532308739D+00 0.100000000000D+01
-.220785979365D-03 0.000000000000D+00 0.000000000000D+00 0.107396136960D-04 0.000000000000D+00  6 -1 2 25 24 21 21 4 0.74359564D-02 0.92618655D-01 0.17843730D+05 0.17843730D+05 0.17843730D+05 0.12393180D+01  1  2  5  3  6  5       21 -.277209749397D+00 0.100000000000D+01
0.257826142471D-03 0.000000000000D+00 -.000000000000D+00 0.107396136960D-04 0.000000000000D+00  6 -1 2 25 24 21 21 4 0.74359564D-02 0.92618655D-01 0.17843730D+05 0.17843730D+05 0.17843730D+05 0.12393180D+01  1  2  6  3  6  5       21 0.323715847119D+00 0.100000000000D+01
0.607928521363D-08 0.000000000000D+00 0.000000000000D+00 0.107396136960D-04 0.670553219463D-06  6 -1 2 25 24 21 21 4 0.74359564D-02 0.92618655D-01 0.18506202D+05 0.18506202D+05 0.18506202D+05 0.12375549D+01  1  2 11  3  6  5       21 0.759610402516D-05 0.100000000000D+01
0.102389903213D-05 0.000000000000D+00 0.000000000000D+00 0.107090774593D-04 0.000000000000D+00  6 -1 2 25 24 1 -1 4 0.74359564D-02 0.92618655D-01 0.18506202D+05 0.18506202D+05 0.18506202D+05 0.12375549D+01  1  2 12  6  6  5       21 0.127936809772D-02 0.100000000000D+01
0.131172055241D-05 0.000000000000D+00 0.000000000000D+00 0.107090774593D-04 0.000000000000D+00  6 -1 2 25 24 1 -1 4 0.74359564D-02 0.92618655D-01 0.18506202D+05 0.18506202D+05 0.18506202D+05 0.12375549D+01  1  2 12  6  6  5       21 0.163900284621D-02 0.100000000000D+01
-.288867602884D-05 0.000000000000D+00 0.000000000000D+00 0.107396136960D-04 0.000000000000D+00  6 -1 2 25 24 1 -1 4 0.74359564D-02 0.92618655D-01 0.17843730D+05 0.17843730D+05 0.17843730D+05 0.12393180D+01  1  2  5  6  6  5       21 -.362690221701D-02 0.100000000000D+01
0.130841931706D-09 0.000000000000D+00 0.000000000000D+00 0.107396136960D-04 0.268436191979D-07  6 -1 2 25 24 1 -1 4 0.74359564D-02 0.92618655D-01 0.18506202D+05 0.18506202D+05 0.18506202D+05 0.12375549D+01  1  2 11  6  6  5       21 0.163487793247D-06 0.100000000000D+01
0.102389903213D-05 0.000000000000D+00 0.000000000000D+00 0.107090774593D-04 0.000000000000D+00  6 -1 2 25 24 2 -2 4 0.74359564D-02 0.92618655D-01 0.18506202D+05 0.18506202D+05 0.18506202D+05 0.12375549D+01  1  2 12  7  6  5       21 0.127936809772D-02 0.100000000000D+01
0.131172055241D-05 0.000000000000D+00 0.000000000000D+00 0.107090774593D-04 0.000000000000D+00  6 -1 2 25 24 2 -2 4 0.74359564D-02 0.92618655D-01 0.18506202D+05 0.18506202D+05 0.18506202D+05 0.12375549D+01  1  2 12  7  6  5       21 0.163900284621D-02 0.100000000000D+01
-.288867602884D-05 0.000000000000D+00 0.000000000000D+00 0.107396136960D-04 0.000000000000D+00  6 -1 2 25 24 2 -2 4 0.74359564D-02 0.92618655D-01 0.17843730D+05 0.17843730D+05 0.17843730D+05 0.12393180D+01  1  2  5  7  6  5       21 -.362690221701D-02 0.100000000000D+01
0.165382312744D-09 0.000000000000D+00 0.000000000000D+00 0.107396136960D-04 0.202647164448D-07  6 -1 2 25 24 2 -2 4 0.74359564D-02 0.92618655D-01 0.18506202D+05 0.18506202D+05 0.18506202D+05 0.12375549D+01  1  2 11  7  6  5       21 0.206646210431D-06 0.100000000000D+01
0.102389903213D-05 0.000000000000D+00 0.000000000000D+00 0.107090774593D-04 0.000000000000D+00  6 -1 2 25 24 3 -3 4 0.74359564D-02 0.92618655D-01 0.18506202D+05 0.18506202D+05 0.18506202D+05 0.12375549D+01  1  2 12  8  6  5       21 0.127936809772D-02 0.100000000000D+01
0.102389903213D-05 0.000000000000D+00 0.000000000000D+00 0.107090774593D-04 0.000000000000D+00  6 -1 2 25 24 4 -4 4 0.74359564D-02 0.92618655D-01 0.18506202D+05 0.18506202D+05 0.18506202D+05 0.12375549D+01  1  2 12  8  6  5       21 0.127936809772D-02 0.100000000000D+01
0.131172055241D-05 0.000000000000D+00 0.000000000000D+00 0.107090774593D-04 0.000000000000D+00  6 -1 2 25 24 3 -3 4 0.74359564D-02 0.92618655D-01 0.18506202D+05 0.18506202D+05 0.18506202D+05 0.12375549D+01  1  2 12  8  6  5       21 0.163900284621D-02 0.100000000000D+01
0.131172055241D-05 0.000000000000D+00 0.000000000000D+00 0.107090774593D-04 0.000000000000D+00  6 -1 2 25 24 4 -4 4 0.74359564D-02 0.92618655D-01 0.18506202D+05 0.18506202D+05 0.18506202D+05 0.12375549D+01  1  2 12  8  6  5       21 0.163900284621D-02 0.100000000000D+01
-.288867602884D-05 0.000000000000D+00 0.000000000000D+00 0.107396136960D-04 0.000000000000D+00  6 -1 2 25 24 3 -3 4 0.74359564D-02 0.92618655D-01 0.17843730D+05 0.17843730D+05 0.17843730D+05 0.12393180D+01  1  2  5  8  6  5       21 -.362690221701D-02 0.100000000000D+01
-.288867602884D-05 0.000000000000D+00 0.000000000000D+00 0.107396136960D-04 0.000000000000D+00  6 -1 2 25 24 4 -4 4 0.74359564D-02 0.92618655D-01 0.17843730D+05 0.17843730D+05 0.17843730D+05 0.12393180D+01  1  2  5  8  6  5       21 -.362690221701D-02 0.100000000000D+01
0.165306396511D-09 0.000000000000D+00 0.000000000000D+00 0.107396136960D-04 0.202216123927D-07  6 -1 2 25 24 3 -3 4 0.74359564D-02 0.92618655D-01 0.18506202D+05 0.18506202D+05 0.18506202D+05 0.12375549D+01  1  2 11  8  6  5       21 0.206551352634D-06 0.100000000000D+01
0.165306396511D-09 0.000000000000D+00 0.000000000000D+00 0.107396136960D-04 0.202216123927D-07  6 -1 2 25 24 4 -4 4 0.74359564D-02 0.92618655D-01 0.18506202D+05 0.18506202D+05 0.18506202D+05 0.12375549D+01  1  2 11  8  6  5       21 0.206551352634D-06 0.100000000000D+01
  </mgrwgt>
  </event>
  <event>
  5     66 0.43535451E-03 0.25289906E+02 0.75467711E-02 0.12204050E+00
       -1 -1    0    0    0  501 0.00000000E+00 0.00000000E+00 0.22849318E+02 0.22851559E+02 0.32000000E+00 0.0000E+00 0.9000E+01
        2 -1    0    0  502    0 0.00000000E+00 0.00000000E+00 -.86808715E+03 0.86808721E+03 0.32000000E+00 0.0000E+00 0.9000E+01
       25  1    1    2    0    0 -.65713780E+02 -.11296560E+02 -.34274927E+03 0.37087461E+03 0.12500000E+03 0.0000E+00 0.9000E+01
       24  1    1    2    0    0 0.47589768E+02 0.28924231E+02 -.46262173E+03 0.47285038E+03 0.80419002E+02 0.0000E+00 0.9000E+01
       21  1    1    2  502  501 0.18124012E+02 -.17627671E+02 -.39866833E+02 0.47213785E+02 0.75000000E+00 0.0000E+00 0.9000E+01
#aMCatNLO 1  0  0  2  2 0.50256001D+01 0.00000000D+00  -5  6  0 0.00000000D+00 0.00000000D+00 0.00000000D+00 0.00000000D+00 0.00000000D+00
  <mgrwgt>
 0.3382659971D+00    6    4    0
 0.140841130831885D+03 0.000000000000000D+00 0.000000000000000D+00 0.140841130831885D+03
 0.140841130831885D+03 0.000000000000000D+00 0.000000000000000D+00 -.140841130831885D+03
 0.144567464651013D+03 -.657167459373343D+02 -.112936749303478D+02 0.287839199136859D+02
 0.107409857536087D+03 0.475875639705422D+02 0.289263742926326D+02 -.443660925390565D+02
 0.297049394766699D+02 0.181291819667921D+02 -.176326993622848D+02 0.155821726253705D+02
 0.000000000000000D+00 0.000000000000000D+00 -.000000000000000D+00 0.000000000000000D+00
 0.176934316911181D+03 0.000000000000000D+00 0.000000000000000D+00 0.176934316911181D+03
 0.141038594277148D+03 0.000000000000000D+00 0.000000000000000D+00 -.141038594277148D+03
 0.145719051903030D+03 -.682763769548093D+02 -.109024947532770D+02 0.287839199136859D+02
 0.106665634645655D+03 0.456999314467366D+02 0.292148551009466D+02 -.443660925390565D+02
 0.293424033669456D+02 0.176085259885670D+02 -.175531291834720D+02 0.155821726253705D+02
 0.362458212726984D+02 0.496791951950569D+01 -.759231164197558D+00 0.358957226340329D+02
 0.140841130831885D+03 0.000000000000000D+00 0.000000000000000D+00 0.140841130831885D+03
 0.140841130831885D+03 0.000000000000000D+00 0.000000000000000D+00 -.140841130831885D+03
 0.144567464651013D+03 -.657167459373343D+02 -.112936749303478D+02 0.287839199136859D+02
 0.107409857536087D+03 0.475875639705422D+02 0.289263742926326D+02 -.443660925390565D+02
 0.000000000000000D+00 0.000000000000000D+00 -.000000000000000D+00 0.000000000000000D+00
 0.297049394766699D+02 0.181291819667921D+02 -.176326993622848D+02 0.155821726253705D+02
 0.176934316911181D+03 0.000000000000000D+00 0.000000000000000D+00 0.176934316911181D+03
 0.141038594277148D+03 0.000000000000000D+00 0.000000000000000D+00 -.141038594277148D+03
 0.145719051903030D+03 -.682763769548093D+02 -.109024947532770D+02 0.287839199136859D+02
 0.106665634645655D+03 0.456999314467366D+02 0.292148551009466D+02 -.443660925390565D+02
 0.362458212726984D+02 0.496791951950569D+01 -.759231164197558D+00 0.358957226340329D+02
 0.293424033669456D+02 0.176085259885670D+02 -.175531291834720D+02 0.155821726253705D+02
0.173408901501D-03 0.000000000000D+00 0.000000000000D+00 0.324221043051D-04 0.000000000000D+00  6 -1 2 25 24 21 21 2 0.35154567D-02 0.13355205D+00 0.17527344D+05 0.17527344D+05 0.17527344D+05 0.12401861D+01  1  2  2  2  6  2        2 0.276984180314D+00 0.100000000000D+01
0.253169924168D-04 0.915103914283D-05 -.665935841378D-06 0.324221043051D-04 0.000000000000D+00  6 -1 2 25 24 21 21 4 0.35154567D-02 0.13355205D+00 0.17527344D+05 0.17527344D+05 0.17527344D+05 0.12401861D+01  1  2  3  2  6  2        2 0.621970007879D-01 0.100000000000D+01
0.795403664544D-05 0.000000000000D+00 0.000000000000D+00 0.324221043051D-04 0.000000000000D+00  6 -1 2 25 24 21 21 4 0.35154567D-02 0.13355205D+00 0.17527344D+05 0.17527344D+05 0.17527344D+05 0.12401861D+01  1  2 15  2  6  2        2 0.195409160519D-01 0.100000000000D+01
-.137610449047D-04 0.000000000000D+00 0.000000000000D+00 0.324221043051D-04 0.000000000000D+00  6 -1 2 25 24 21 21 4 0.35154567D-02 0.13355205D+00 0.17527344D+05 0.17527344D+05 0.17527344D+05 0.12401861D+01  1  2  4  2  6  2        2 -.338071642434D-01 0.100000000000D+01
0.756574694741D-05 0.000000000000D+00 0.000000000000D+00 0.324221043051D-04 0.644767704411D-05  6 -1 2 25 24 21 21 4 0.44163585D-02 0.13373929D+00 0.18189602D+05 0.18189602D+05 0.18189602D+05 0.12383885D+01  1  2 11  2  6  2        2 0.132125676929D-01 0.100000000000D+01
0.772234045920D-07 0.000000000000D+00 0.000000000000D+00 0.323281814219D-04 0.811128566789D-08  6 -1 21 25 24 -2 21 4 0.44163585D-02 0.13373929D+00 0.18189602D+05 0.18189602D+05 0.18189602D+05 0.12383885D+01  3  4 11  5  5  2        2 0.138496500918D-03 0.100000000000D+01
  </mgrwgt>
  </event>
  <event>
  5     66 0.43535451E-03 0.28772164E+02 0.75467711E-02 0.12112275E+00
       -1 -1    0    0    0  501 0.00000000E+00 0.00000000E+00 0.87246280E+01 0.87304945E+01 0.32000000E+00 0.0000E+00 0.9000E+01
        2 -1    0    0  502    0 -.00000000E+00 -.00000000E+00 -.28959133E+04 0.28959133E+04 0.32000000E+00 0.0000E+00 0.9000E+01
       25  1    1    2    0    0 -.15921731E+02 0.56702256E+02 -.12419144E+04 0.12495780E+04 0.12500000E+03 0.0000E+00 0.9000E+01
       24  1    1    2    0    0 0.12940684E+01 -.81476101E+02 -.15745980E+04 0.15787546E+04 0.80419002E+02 0.0000E+00 0.9000E+01
       21  1    1    2  502  501 0.14627662E+02 0.24773845E+02 -.70676297E+02 0.76311292E+02 0.75000000E+00 0.0000E+00 0.9000E+01
#aMCatNLO 1  0  0  5  1 0.20893672D+01 0.00000000D+00  -5  6  0 0.00000000D+00 0.00000000D+00 0.00000000D+00 0.00000000D+00 0.00000000D+00
  <mgrwgt>
 0.3222648113D+00   25    2    0
 0.158978967649377D+03 0.000000000000000D+00 0.000000000000000D+00 0.158978967649377D+03
 0.158978967649377D+03 -.000000000000000D+00 -.000000000000000D+00 -.158978967649377D+03
 0.138186599611200D+03 -.159223140872466D+02 0.567012672802125D+02 0.140801812168966D+01
 0.124414836190084D+03 0.129354297749648D+01 -.814769904599722D+02 -.486997154199668D+02
 0.553564994974702D+02 0.146287711097502D+02 0.247757231797597D+02 0.472916972982772D+02
 0.000000000000000D+00 0.000000000000000D+00 0.000000000000000D+00 0.000000000000000D+00
 0.158978967649377D+03 0.000000000000000D+00 0.000000000000000D+00 0.158978967649377D+03
 0.158978967649377D+03 -.000000000000000D+00 -.000000000000000D+00 -.158978967649377D+03
 0.138274685940071D+03 -.157801978566353D+02 0.569419595682088D+02 0.186744958786158D+01
 0.124113374534935D+03 0.142130007895973D+01 -.812606172214852D+02 -.482867039561345D+02
 0.242558453523178D+01 -.128185160413943D+01 -.360271555474030D+00 0.202744203587616D+01
 0.531442902885155D+02 0.156407493818150D+02 0.246789292087505D+02 0.443918123323968D+02
0.422519131699D-03 0.000000000000D+00 0.000000000000D+00 0.267469416249D-04 0.000000000000D+00  6 -1 2 25 24 21 21 2 0.13427031D-02 0.44552558D+00 0.19801991D+05 0.19801991D+05 0.19801991D+05 0.12343020D+01  1  2  2  3  6  5       21 0.218112299446D+00 0.100000000000D+01
0.409159407613D-04 0.222969471538D-04 -.162258471757D-05 0.267469416249D-04 0.000000000000D+00  6 -1 2 25 24 21 21 4 0.13427031D-02 0.44552558D+00 0.19801991D+05 0.19801991D+05 0.19801991D+05 0.12343020D+01  1  2  3  3  6  5       21 0.321787535776D-01 0.100000000000D+01
0.134678374229D-04 0.000000000000D+00 0.000000000000D+00 0.267469416249D-04 0.000000000000D+00  6 -1 2 25 24 21 21 4 0.13427031D-02 0.44552558D+00 0.19801991D+05 0.19801991D+05 0.19801991D+05 0.12343020D+01  1  2 15  3  6  5       21 0.105919163434D-01 0.100000000000D+01
0.479238278050D-08 0.000000000000D+00 0.000000000000D+00 0.267218684936D-04 0.000000000000D+00  6 -1 2 25 24 21 21 4 0.13427031D-02 0.44552558D+00 0.20042996D+05 0.20042996D+05 0.20042996D+05 0.12337234D+01  1  2 12  3  6  5       21 0.376165237388D-05 0.100000000000D+01
0.857447864981D-08 0.000000000000D+00 0.000000000000D+00 0.267218684936D-04 0.000000000000D+00  6 -1 2 25 24 21 21 4 0.13427031D-02 0.44552558D+00 0.20042996D+05 0.20042996D+05 0.20042996D+05 0.12337234D+01  1  2 12  3  6  5       21 0.673030712385D-05 0.100000000000D+01
-.313926988668D-03 0.000000000000D+00 0.000000000000D+00 0.267469416249D-04 0.000000000000D+00  6 -1 2 25 24 21 21 4 0.13427031D-02 0.44552558D+00 0.19801991D+05 0.19801991D+05 0.19801991D+05 0.12343020D+01  1  2  4  3  6  5       21 -.246891041041D+00 0.100000000000D+01
-.655187531278D-05 0.000000000000D+00 0.000000000000D+00 0.267469416249D-04 0.000000000000D+00  6 -1 2 25 24 21 21 4 0.13427031D-02 0.44552558D+00 0.19801991D+05 0.19801991D+05 0.19801991D+05 0.12343020D+01  1  2  5  3  6  5       21 -.515278830789D-02 0.100000000000D+01
0.383559047870D-03 0.000000000000D+00 -.000000000000D+00 0.267469416249D-04 0.000000000000D+00  6 -1 2 25 24 21 21 4 0.13427031D-02 0.44552558D+00 0.19801991D+05 0.19801991D+05 0.19801991D+05 0.12343020D+01  1  2  6  3  6  5       21 0.301653875097D+00 0.100000000000D+01
0.299771571353D-05 0.000000000000D+00 0.000000000000D+00 0.267469416249D-04 0.306908208329D-04  6 -1 2 25 24 21 21 4 0.13427031D-02 0.44552558D+00 0.20042996D+05 0.20042996D+05 0.20042996D+05 0.12337234D+01  1  2 11  3  6  5       21 0.235297657689D-02 0.100000000000D+01
0.174069943923D-07 0.000000000000D+00 0.000000000000D+00 0.267218684936D-04 0.000000000000D+00  6 -1 2 25 24 1 -1 4 0.13427031D-02 0.44552558D+00 0.20042996D+05 0.20042996D+05 0.20042996D+05 0.12337234D+01  1  2 12  6  6  5       21 0.136631535453D-04 0.100000000000D+01
0.192070982598D-07 0.000000000000D+00 0.000000000000D+00 0.267218684936D-04 0.000000000000D+00  6 -1 2 25 24 1 -1 4 0.13427031D-02 0.44552558D+00 0.20042996D+05 0.20042996D+05 0.20042996D+05 0.12337234D+01  1  2 12  6  6  5       21 0.150760968131D-04 0.100000000000D+01
-.200103177409D-04 0.000000000000D+00 0.000000000000D+00 0.267469416249D-04 0.000000000000D+00  6 -1 2 25 24 1 -1 4 0.13427031D-02 0.44552558D+00 0.19801991D+05 0.19801991D+05 0.19801991D+05 0.12343020D+01  1  2  5  6  6  5       21 -.157373158630D-01 0.100000000000D+01
0.231640702718D-04 0.000000000000D+00 0.000000000000D+00 0.267469416249D-04 0.281507006966D-06  6 -1 2 25 24 1 -1 4 0.13427031D-02 0.44552558D+00 0.20042996D+05 0.20042996D+05 0.20042996D+05 0.12337234D+01  1  2 11  6  6  5       21 0.181820159026D-01 0.100000000000D+01
0.174069943923D-07 0.000000000000D+00 0.000000000000D+00 0.267218684936D-04 0.000000000000D+00  6 -1 2 25 24 2 -2 4 0.13427031D-02 0.44552558D+00 0.20042996D+05 0.20042996D+05 0.20042996D+05 0.12337234D+01  1  2 12  7  6  5       21 0.136631535453D-04 0.100000000000D+01
0.192070982598D-07 0.000000000000D+00 0.000000000000D+00 0.267218684936D-04 0.000000000000D+00  6 -1 2 25 24 2 -2 4 0.13427031D-02 0.44552558D+00 0.20042996D+05 0.20042996D+05 0.20042996D+05 0.12337234D+01  1  2 12  7  6  5       21 0.150760968131D-04 0.100000000000D+01
-.200103177409D-04 0.000000000000D+00 0.000000000000D+00 0.267469416249D-04 0.000000000000D+00  6 -1 2 25 24 2 -2 4 0.13427031D-02 0.44552558D+00 0.19801991D+05 0.19801991D+05 0.19801991D+05 0.12343020D+01  1  2  5  7  6  5       21 -.157373158630D-01 0.100000000000D+01
0.228523293141D-04 0.000000000000D+00 0.000000000000D+00 0.267469416249D-04 0.282911762654D-06  6 -1 2 25 24 2 -2 4 0.13427031D-02 0.44552558D+00 0.20042996D+05 0.20042996D+05 0.20042996D+05 0.12337234D+01  1  2 11  7  6  5       21 0.179373231961D-01 0.100000000000D+01
0.174069943923D-07 0.000000000000D+00 0.000000000000D+00 0.267218684936D-04 0.000000000000D+00  6 -1 2 25 24 3 -3 4 0.13427031D-02 0.44552558D+00 0.20042996D+05 0.20042996D+05 0.20042996D+05 0.12337234D+01  1  2 12  8  6  5       21 0.136631535453D-04 0.100000000000D+01
0.174069943923D-07 0.000000000000D+00 0.000000000000D+00 0.267218684936D-04 0.000000000000D+00  6 -1 2 25 24 4 -4 4 0.13427031D-02 0.44552558D+00 0.20042996D+05 0.20042996D+05 0.20042996D+05 0.12337234D+01  1  2 12  8  6  5       21 0.136631535453D-04 0.100000000000D+01
0.192070982598D-07 0.000000000000D+00 0.000000000000D+00 0.267218684936D-04 0.000000000000D+00  6 -1 2 25 24 3 -3 4 0.13427031D-02 0.44552558D+00 0.20042996D+05 0.20042996D+05 0.20042996D+05 0.12337234D+01  1  2 12  8  6  5       21 0.150760968131D-04 0.100000000000D+01
0.192070982598D-07 0.000000000000D+00 0.000000000000D+00 0.267218684936D-04 0.000000000000D+00  6 -1 2 25 24 4 -4 4 0.13427031D-02 0.44552558D+00 0.20042996D+05 0.20042996D+05 0.20042996D+05 0.12337234D+01  1  2 12  8  6  5       21 0.150760968131D-04 0.100000000000D+01
-.200103177409D-04 0.000000000000D+00 0.000000000000D+00 0.267469416249D-04 0.000000000000D+00  6 -1 2 25 24 3 -3 4 0.13427031D-02 0.44552558D+00 0.19801991D+05 0.19801991D+05 0.19801991D+05 0.12343020D+01  1  2  5  8  6  5       21 -.157373158630D-01 0.100000000000D+01
-.200103177409D-04 0.000000000000D+00 0.000000000000D+00 0.267469416249D-04 0.000000000000D+00  6 -1 2 25 24 4 -4 4 0.13427031D-02 0.44552558D+00 0.19801991D+05 0.19801991D+05 0.19801991D+05 0.12343020D+01  1  2  5  8  6  5       21 -.157373158630D-01 0.100000000000D+01
0.230107197087D-04 0.000000000000D+00 0.000000000000D+00 0.267469416249D-04 0.276664733203D-06  6 -1 2 25 24 3 -3 4 0.13427031D-02 0.44552558D+00 0.20042996D+05 0.20042996D+05 0.20042996D+05 0.12337234D+01  1  2 11  8  6  5       21 0.180616474896D-01 0.100000000000D+01
0.230107197087D-04 0.000000000000D+00 0.000000000000D+00 0.267469416249D-04 0.276664733203D-06  6 -1 2 25 24 4 -4 4 0.13427031D-02 0.44552558D+00 0.20042996D+05 0.20042996D+05 0.20042996D+05 0.12337234D+01  1  2 11  8  6  5       21 0.180616474896D-01 0.100000000000D+01
  </mgrwgt>
  </event>
  <event>
  5     66 -.43535451E-03 0.49699739E+02 0.75467711E-02 0.11612912E+00
       -1 -1    0    0    0  501 0.00000000E+00 0.00000000E+00 0.46332252E+03 0.46332263E+03 0.32000000E+00 0.0000E+00 0.9000E+01
        2 -1    0    0  502    0 0.00000000E+00 0.00000000E+00 -.19290576E+03 0.19290603E+03 0.32000000E+00 0.0000E+00 0.9000E+01
       25  1    1    2    0    0 -.14878032E+03 -.44183312E+01 0.36836405E+03 0.41649991E+03 0.12500000E+03 0.0000E+00 0.9000E+01
       24  1    1    2    0    0 0.99321411E+02 -.46483160E+00 0.23189842E+01 0.12781844E+03 0.80419002E+02 0.0000E+00 0.9000E+01
       21  1    1    2  502  501 0.49458907E+02 0.48831628E+01 -.10026628E+03 0.11191031E+03 0.75000000E+00 0.0000E+00 0.9000E+01
#aMCatNLO 1  0  0  2  5 0.20990393D+01 0.00000000D+00  -5  6  0 0.00000000D+00 0.00000000D+00 0.00000000D+00 0.00000000D+00 0.00000000D+00
  <mgrwgt>
 -.1567960672D+01   11    4    0
 0.298961046939156D+03 0.000000000000000D+00 0.000000000000000D+00 0.298961046939156D+03
 0.298961046939156D+03 0.000000000000000D+00 0.000000000000000D+00 -.298961046939156D+03
 0.290519095950895D+03 -.148780557604823D+03 -.441835476435085D+01 0.215919357474266D+03
 0.139233675967699D+03 0.993212968513260D+02 -.464842910464268D+00 -.552617813859364D+02
 0.168169321959718D+03 0.494592607534965D+02 0.488319767481512D+01 -.160657576088330D+03
 0.000000000000000D+00 0.000000000000000D+00 0.000000000000000D+00 -.000000000000000D+00
 0.299028689104611D+03 0.000000000000000D+00 0.000000000000000D+00 0.299028689104611D+03
 0.315702888449329D+03 0.000000000000000D+00 0.000000000000000D+00 -.315702888449329D+03
 0.290984893043698D+03 -.149672601027682D+03 -.491442256635097D+01 0.215919357474266D+03
 0.138930602772711D+03 0.988945850487918D+02 -.702138517994465D+00 -.552617813859364D+02
 0.168010282448568D+03 0.489435518148007D+02 0.459641051498079D+01 -.160657576088330D+03
 0.168057992889628D+02 0.183446416408922D+01 0.102015056936464D+01 -.166741993447182D+02
 0.298961046939156D+03 0.000000000000000D+00 0.000000000000000D+00 0.298961046939156D+03
 0.298961046939156D+03 0.000000000000000D+00 0.000000000000000D+00 -.298961046939156D+03
 0.290519095950895D+03 -.148780557604823D+03 -.441835476435085D+01 0.215919357474266D+03
 0.139233675967699D+03 0.993212968513260D+02 -.464842910464268D+00 -.552617813859364D+02
 0.000000000000000D+00 0.000000000000000D+00 0.000000000000000D+00 -.000000000000000D+00
 0.168169321959718D+03 0.494592607534965D+02 0.488319767481512D+01 -.160657576088330D+03
 0.299028689104611D+03 0.000000000000000D+00 0.000000000000000D+00 0.299028689104611D+03
 0.315702888449329D+03 0.000000000000000D+00 0.000000000000000D+00 -.315702888449329D+03
 0.290984893043698D+03 -.149672601027682D+03 -.491442256635097D+01 0.215919357474266D+03
 0.138930602772711D+03 0.988945850487918D+02 -.702138517994465D+00 -.552617813859364D+02
 0.168057992889628D+02 0.183446416408922D+01 0.102015056936464D+01 -.166741993447182D+02
 0.168010282448568D+03 0.489435518148007D+02 0.459641051498079D+01 -.160657576088330D+03
0.138190976274D-03 0.000000000000D+00 0.000000000000D+00 0.569860650445D-05 0.000000000000D+00  6 -1 2 25 24 21 21 2 0.71280416D-01 0.29677839D-01 0.34571505D+05 0.34571505D+05 0.34571505D+05 0.12084862D+01  1  2  2  2  6  2        2 0.849730736839D-02 0.100000000000D+01
0.768501743871D-05 0.729253816915D-05 -.530689735412D-06 0.569860650445D-05 0.000000000000D+00  6 -1 2 25 24 21 21 4 0.71280416D-01 0.29677839D-01 0.34571505D+05 0.34571505D+05 0.34571505D+05 0.12084862D+01  1  2  3  2  6  2        2 0.690128423887D-03 0.100000000000D+01
0.335400751616D-05 0.000000000000D+00 0.000000000000D+00 0.569860650445D-05 0.000000000000D+00  6 -1 2 25 24 21 21 4 0.71280416D-01 0.29677839D-01 0.34571505D+05 0.34571505D+05 0.34571505D+05 0.12084862D+01  1  2 15  2  6  2        2 0.301195923014D-03 0.100000000000D+01
0.818969953450D-04 0.000000000000D+00 0.000000000000D+00 0.569424633686D-05 0.000000000000D+00  6 -1 2 25 24 21 21 4 0.71280416D-01 0.31611768D-01 0.34930068D+05 0.34930068D+05 0.34930068D+05 0.12080238D+01  1  2 12  2  6  2        2 0.685401323585D-02 0.100000000000D+01
-.185284774578D+00 0.000000000000D+00 0.000000000000D+00 0.569860650445D-05 0.000000000000D+00  6 -1 2 25 24 21 21 4 0.71280416D-01 0.29677839D-01 0.34571505D+05 0.34571505D+05 0.34571505D+05 0.12084862D+01  1  2  4  2  6  2        2 -.166389068690D+02 0.100000000000D+01
-.104595496998D+00 0.000000000000D+00 -.836310169597D-03 0.569860650445D-05 0.000000000000D+00  6 -1 2 25 24 21 21 4 0.71280416D-01 0.31343264D-01 0.34571505D+05 0.34571505D+05 0.34571505D+05 0.12084862D+01  1  2  5  2  6  2        2 -.884932990548D+01 0.100000000000D+01
0.104486626136D+00 0.000000000000D+00 0.835065184953D-03 0.569860650445D-05 0.000000000000D+00  6 -1 2 25 24 21 21 4 0.71280416D-01 0.29677839D-01 0.34571505D+05 0.34571505D+05 0.34571505D+05 0.12084862D+01  1  2  6  2  6  2        2 0.938308744090D+01 0.100000000000D+01
0.173761394206D+00 0.000000000000D+00 0.000000000000D+00 0.569860650445D-05 0.151413314468D-04  6 -1 2 25 24 21 21 4 0.71296544D-01 0.31339800D-01 0.34930068D+05 0.34930068D+05 0.34930068D+05 0.12080238D+01  1  2 11  2  6  2        2 0.146730860601D+02 0.100000000000D+01
0.156553953514D-05 0.000000000000D+00 0.000000000000D+00 0.569424633686D-05 0.000000000000D+00  6 -1 21 25 24 -2 21 4 0.71280416D-01 0.31611768D-01 0.34930068D+05 0.34930068D+05 0.34930068D+05 0.12080238D+01  3  4 12  5  5  2        2 0.618993210347D-03 0.100000000000D+01
-.988154038687D-03 0.000000000000D+00 -.790234568819D-05 0.569860650445D-05 0.000000000000D+00  6 -1 21 25 24 -2 21 4 0.71280416D-01 0.31343264D-01 0.34571505D+05 0.34571505D+05 0.34571505D+05 0.12084862D+01  3  4  5  5  5  2        2 -.398016070291D+00 0.100000000000D+01
0.609916061945D-03 0.000000000000D+00 0.000000000000D+00 0.569860650445D-05 0.106278317726D-06  6 -1 21 25 24 -2 21 4 0.71296544D-01 0.31339800D-01 0.34930068D+05 0.34930068D+05 0.34930068D+05 0.12080238D+01  3  4 11  5  5  2        2 0.245157033596D+00 0.100000000000D+01
  </mgrwgt>
  </event>
  <event>
  5     66 0.43535451E-03 0.26835852E+02 0.75467711E-02 0.10945525E+00
       -1 -1    0    0    0  501 0.00000000E+00 0.00000000E+00 0.11400759E+03 0.11400804E+03 0.32000000E+00 0.0000E+00 0.9000E+01
        2 -1    0    0  502    0 0.00000000E+00 0.00000000E+00 -.27442341E+03 0.27442359E+03 0.32000000E+00 0.0000E+00 0.9000E+01
       25  1    1    2    0    0 0.65383025E+02 0.84209064E+02 -.20342118E+01 0.16430230E+03 0.12500000E+03 0.0000E+00 0.9000E+01
       24  1    1    2    0    0 -.70935567E+02 -.57956797E+02 -.92588546E+02 0.15307090E+03 0.80419002E+02 0.0000E+00 0.9000E+01
       21  1    1    2  502  501 0.55525421E+01 -.26252267E+02 -.65793062E+02 0.71058439E+02 0.75000000E+00 0.0000E+00 0.9000E+01
#aMCatNLO 1  0  0  1  2 0.40825953D+02 0.00000000D+00  -5  6  0 0.00000000D+00 0.00000000D+00 0.00000000D+00 0.00000000D+00 0.00000000D+00
  <mgrwgt>
 0.1445761601D+00    5    4    0
 0.176879830421430D+03 0.000000000000000D+00 0.000000000000000D+00 0.176879830421430D+03
 0.176879830421430D+03 0.000000000000000D+00 0.000000000000000D+00 -.176879830421430D+03
 0.179484747150401D+03 0.653826832318307D+02 0.842106771503959D+02 0.722733771656017D+02
 0.126087349910561D+03 -.709358063892299D+02 -.579556630854666D+02 -.322499045166225D+02
 0.481875637818978D+02 0.555312315739921D+01 -.262550140649293D+02 -.400234726489792D+02
 0.000000000000000D+00 -.000000000000000D+00 0.000000000000000D+00 0.000000000000000D+00
 0.459619853118565D+03 0.000000000000000D+00 0.000000000000000D+00 0.459619853118565D+03
 0.237190937439509D+03 0.000000000000000D+00 0.000000000000000D+00 -.237190937439509D+03
 0.218950674224213D+03 0.158528092708090D+03 0.442696342728460D+02 0.722733771656017D+02
 0.120494518637151D+03 -.132904067004735D+02 -.826741907467675D+02 -.322499045166225D+02
 0.632584969725616D+02 0.316067529468303D+02 -.374268919962911D+02 -.400234726489792D+02
 0.294107100724148D+03 -.176844438954447D+03 0.758314484702127D+02 0.222428915679057D+03
 0.176879830421430D+03 0.000000000000000D+00 0.000000000000000D+00 0.176879830421430D+03
 0.176879830421430D+03 0.000000000000000D+00 0.000000000000000D+00 -.176879830421430D+03
 0.179484747150401D+03 0.653826832318307D+02 0.842106771503959D+02 0.722733771656017D+02
 0.126087349910561D+03 -.709358063892299D+02 -.579556630854666D+02 -.322499045166225D+02
 0.000000000000000D+00 -.000000000000000D+00 0.000000000000000D+00 0.000000000000000D+00
 0.481875637818978D+02 0.555312315739921D+01 -.262550140649293D+02 -.400234726489792D+02
 0.459619853118565D+03 0.000000000000000D+00 0.000000000000000D+00 0.459619853118565D+03
 0.237190937439509D+03 0.000000000000000D+00 0.000000000000000D+00 -.237190937439509D+03
 0.218950674224213D+03 0.158528092708090D+03 0.442696342728460D+02 0.722733771656017D+02
 0.120494518637151D+03 -.132904067004735D+02 -.826741907467675D+02 -.322499045166225D+02
 0.294107100724148D+03 -.176844438954447D+03 0.758314484702127D+02 0.222428915679057D+03
 0.632584969725616D+02 0.316067529468303D+02 -.374268919962911D+02 -.400234726489792D+02
0.247494306735D-03 0.000000000000D+00 0.000000000000D+00 0.249710357162D-04 0.000000000000D+00  6 -1 2 25 24 21 21 2 0.17539678D-01 0.42219035D-01 0.24495301D+05 0.24495301D+05 0.24495301D+05 0.12242484D+01  1  2  2  1  6  1       -1 0.123882177680D+00 0.100000000000D+01
0.334155283693D-04 0.130606333871D-04 -.950443304612D-06 0.249710357162D-04 0.000000000000D+00  6 -1 2 25 24 21 21 4 0.17539678D-01 0.42219035D-01 0.24495301D+05 0.24495301D+05 0.24495301D+05 0.12242484D+01  1  2  3  1  6  1       -1 0.250686549804D-01 0.100000000000D+01
0.566673153377D-05 0.000000000000D+00 0.000000000000D+00 0.249710357162D-04 0.000000000000D+00  6 -1 2 25 24 21 21 4 0.17539678D-01 0.42219035D-01 0.24495301D+05 0.24495301D+05 0.24495301D+05 0.12242484D+01  1  2 15  1  6  1       -1 0.425123721273D-02 0.100000000000D+01
-.575964356337D-04 0.000000000000D+00 -.122202483343D-03 0.249710357162D-04 0.000000000000D+00  6 -1 2 25 24 21 21 4 0.58721579D-01 0.42219035D-01 0.24495301D+05 0.24495301D+05 0.24495301D+05 0.12242484D+01  1  2  5  1  6  1       -1 -.543861089592D-02 0.100000000000D+01
-.346045478669D-05 0.000000000000D+00 -.171442618151D-04 0.249710357162D-04 0.000000000000D+00  6 21 2 25 24 1 21 4 0.58721579D-01 0.42219035D-01 0.24495301D+05 0.24495301D+05 0.24495301D+05 0.12242484D+01  3  4  5  4  5  1       -1 -.318729884311D-02 0.100000000000D+01
  </mgrwgt>
  </event>
  <event>
  5     66 0.43535451E-03 0.39273935E+02 0.75467711E-02 0.11539520E+00
       -1 -1    0    0    0  501 0.00000000E+00 0.00000000E+00 0.23487978E+03 0.23488000E+03 0.32000000E+00 0.0000E+00 0.9000E+01
        2 -1    0    0  502    0 0.00000000E+00 0.00000000E+00 -.11196778E+03 0.11196824E+03 0.32000000E+00 0.0000E+00 0.9000E+01
       25  1    1    2    0    0 -.29073703E+02 0.11160769E+03 0.84183073E+02 0.18977183E+03 0.12500000E+03 0.0000E+00 0.9000E+01
       24  1    1    2    0    0 0.14610454E+02 -.75100517E+02 0.17309914E+02 0.11234056E+03 0.80419002E+02 0.0000E+00 0.9000E+01
       21  1    1    2  502  501 0.14463249E+02 -.36507176E+02 0.21419015E+02 0.44735849E+02 0.75000000E+00 0.0000E+00 0.9000E+01
#aMCatNLO 1  0  0  1  1 0.25451842D+02 0.00000000D+00  -5  6  0 0.00000000D+00 0.00000000D+00 0.00000000D+00 0.00000000D+00 0.00000000D+00
  <mgrwgt>
 0.1187612121D+00    7    4    0
 0.162169927647466D+03 0.000000000000000D+00 0.000000000000000D+00 0.162169927647466D+03
 0.162169927647466D+03 0.000000000000000D+00 0.000000000000000D+00 -.162169927647466D+03
 0.171041875384088D+03 -.290750631480026D+02 0.111611124903318D+03 0.181085790624657D+02
 0.113575402167999D+03 0.146095513188219D+02 -.750982376514776D+02 -.240618315004701D+02
 0.397225777428451D+02 0.144655118291807D+02 -.365128872518403D+02 0.595325243800444D+01
 0.000000000000000D+00 0.000000000000000D+00 0.000000000000000D+00 0.000000000000000D+00
 0.242494070329117D+03 0.000000000000000D+00 0.000000000000000D+00 0.242494070329117D+03
 0.178289662857837D+03 0.000000000000000D+00 0.000000000000000D+00 -.178289662857837D+03
 0.165834673875877D+03 -.552968608774461D+02 0.921437767890880D+02 0.181085790624657D+02
 0.122196392836375D+03 -.374245428232075D+01 -.887229664102760D+02 -.240618315004701D+02
 0.424630374706849D+02 0.806834769551460D+01 -.412622115513756D+02 0.595325243800444D+01
 0.902896290040166D+02 0.509709674642522D+02 0.378414011725635D+02 0.642044074712804D+02
 0.162169927647466D+03 0.000000000000000D+00 0.000000000000000D+00 0.162169927647466D+03
 0.162169927647466D+03 0.000000000000000D+00 0.000000000000000D+00 -.162169927647466D+03
 0.171041875384088D+03 -.290750631480026D+02 0.111611124903318D+03 0.181085790624657D+02
 0.113575402167999D+03 0.146095513188219D+02 -.750982376514776D+02 -.240618315004701D+02
 0.000000000000000D+00 0.000000000000000D+00 0.000000000000000D+00 0.000000000000000D+00
 0.397225777428451D+02 0.144655118291807D+02 -.365128872518403D+02 0.595325243800444D+01
 0.242494070329117D+03 0.000000000000000D+00 0.000000000000000D+00 0.242494070329117D+03
 0.178289662857837D+03 0.000000000000000D+00 0.000000000000000D+00 -.178289662857837D+03
 0.165834673875877D+03 -.552968608774461D+02 0.921437767890880D+02 0.181085790624657D+02
 0.122196392836375D+03 -.374245428232075D+01 -.887229664102760D+02 -.240618315004701D+02
 0.902896290040166D+02 0.509709674642522D+02 0.378414011725635D+02 0.642044074712804D+02
 0.424630374706849D+02 0.806834769551460D+01 -.412622115513756D+02 0.595325243800444D+01
0.168959030548D-03 0.000000000000D+00 0.000000000000D+00 0.127704684706D-04 0.000000000000D+00  6 -1 2 25 24 21 21 2 0.36135403D-01 0.17225864D-01 0.25656321D+05 0.25656321D+05 0.25656321D+05 0.12220929D+01  1  2  2  1  6  1       -1 0.686062393971D-01 0.100000000000D+01
0.166459617197D-04 0.891621300116D-05 -.648847165240D-06 0.127704684706D-04 0.000000000000D+00  6 -1 2 25 24 21 21 4 0.36135403D-01 0.17225864D-01 0.25656321D+05 0.25656321D+05 0.25656321D+05 0.12220929D+01  1  2  3  1  6  1       -1 0.100948418429D-01 0.100000000000D+01
0.464060167894D-05 0.000000000000D+00 0.000000000000D+00 0.127704684706D-04 0.000000000000D+00  6 -1 2 25 24 21 21 4 0.36135403D-01 0.17225864D-01 0.25656321D+05 0.25656321D+05 0.25656321D+05 0.12220929D+01  1  2 15  1  6  1       -1 0.281426455220D-02 0.100000000000D+01
-.797031973481D-04 0.000000000000D+00 0.000000000000D+00 0.127704684706D-04 0.000000000000D+00  6 -1 2 25 24 21 21 4 0.36135403D-01 0.17225864D-01 0.25656321D+05 0.25656321D+05 0.25656321D+05 0.12220929D+01  1  2  4  1  6  1       -1 -.483355173558D-01 0.100000000000D+01
-.306784178371D-03 0.000000000000D+00 -.925513496544D-04 0.127704684706D-04 0.000000000000D+00  6 -1 2 25 24 21 21 4 0.58251173D-01 0.17225864D-01 0.25656321D+05 0.25656321D+05 0.25656321D+05 0.12220929D+01  1  2  5  1  6  1       -1 -.785413172851D-01 0.100000000000D+01
0.323074854424D-03 0.000000000000D+00 0.829178405387D-04 0.127704684706D-04 0.000000000000D+00  6 -1 2 25 24 21 21 4 0.36135403D-01 0.17225864D-01 0.25656321D+05 0.25656321D+05 0.25656321D+05 0.12220929D+01  1  2  6  1  6  1       -1 0.195926772737D+00 0.100000000000D+01
-.127256121096D-04 0.000000000000D+00 -.503318824691D-05 0.127704684706D-04 0.000000000000D+00  6 21 2 25 24 1 21 4 0.58251173D-01 0.17225864D-01 0.25656321D+05 0.25656321D+05 0.25656321D+05 0.12220929D+01  3  4  5  4  5  1       -1 -.318040718348D-01 0.100000000000D+01
  </mgrwgt>
  </event>
  <event>
  5     66 0.43535451E-03 0.24668356E+02 0.75467711E-02 0.11947966E+00
       -1 -1    0    0    0  501 0.00000000E+00 0.00000000E+00 0.16099721E+03 0.16099753E+03 0.32000000E+00 0.0000E+00 0.9000E+01
        2 -1    0    0  502    0 0.00000000E+00 0.00000000E+00 -.14959764E+03 0.14959798E+03 0.32000000E+00 0.0000E+00 0.9000E+01
       25  1    1    2    0    0 0.16390525E+02 -.86107488E+02 0.17695759E+02 0.15369219E+03 0.12500000E+03 0.0000E+00 0.9000E+01
       24  1    1    2    0    0 -.38223585E+02 0.97567600E+02 -.44433305E+01 0.13216444E+03 0.80419002E+02 0.0000E+00 0.9000E+01
       21  1    1    2  502  501 0.21833060E+02 -.11460113E+02 -.18528532E+01 0.24738882E+02 0.75000000E+00 0.0000E+00 0.9000E+01
#aMCatNLO 1  0  0  5  2 0.63235178D+01 0.00000000D+00  -5  6  0 0.00000000D+00 0.00000000D+00 0.00000000D+00 0.00000000D+00 0.00000000D+00
  <mgrwgt>
 0.1248057351D+00   20    2    0
 0.155193120056340D+03 0.000000000000000D+00 0.000000000000000D+00 0.155193120056340D+03
 0.155193120056340D+03 -.000000000000000D+00 -.000000000000000D+00 -.155193120056340D+03
 0.153143966198134D+03 0.163856048445985D+02 -.861049051719794D+02 0.120636496176015D+02
 0.132419569351764D+03 -.382278395063543D+02 0.975698334709610D+02 -.929979978609232D+01
 0.248227045627814D+02 0.218422346617558D+02 -.114649282989816D+02 -.276384983150914D+01
 0.000000000000000D+00 0.000000000000000D+00 0.000000000000000D+00 -.000000000000000D+00
 0.155193120056340D+03 0.000000000000000D+00 0.000000000000000D+00 0.155193120056340D+03
 0.155193120056340D+03 -.000000000000000D+00 -.000000000000000D+00 -.155193120056340D+03
 0.154002463142525D+03 0.185314367990603D+02 -.872312464040258D+02 0.117921225793827D+02
 0.131202884713272D+03 -.363860812054008D+02 0.966030996549629D+02 -.953285027055964D+01
 0.179652583478653D+02 0.162155270451549D+02 -.651798099655853D+01 0.416210450155864D+01
 0.721563390901717D+01 0.163911736118543D+01 -.285387225437851D+01 -.642137681038167D+01
0.222907693024D-03 0.000000000000D+00 0.000000000000D+00 0.326524134198D-04 0.000000000000D+00  6 -1 2 25 24 21 21 2 0.24768852D-01 0.23015072D-01 0.23936583D+05 0.23936583D+05 0.23936583D+05 0.12253268D+01  1  2  2  3  6  5       21 0.123578907586D+00 0.100000000000D+01
0.508123540000D-04 0.117631621355D-04 -.856024234155D-06 0.326524134198D-04 0.000000000000D+00  6 -1 2 25 24 21 21 4 0.24768852D-01 0.23015072D-01 0.23936583D+05 0.23936583D+05 0.23936583D+05 0.12253268D+01  1  2  3  3  6  5       21 0.422953337014D-01 0.100000000000D+01
0.560513124551D-05 0.000000000000D+00 0.000000000000D+00 0.326524134198D-04 0.000000000000D+00  6 -1 2 25 24 21 21 4 0.24768852D-01 0.23015072D-01 0.23936583D+05 0.23936583D+05 0.23936583D+05 0.12253268D+01  1  2 15  3  6  5       21 0.466561530428D-02 0.100000000000D+01
0.628257701269D-04 0.000000000000D+00 0.000000000000D+00 0.327216383807D-04 0.000000000000D+00  6 -1 2 25 24 21 21 4 0.24768852D-01 0.23015072D-01 0.23282795D+05 0.23282795D+05 0.23282795D+05 0.12266250D+01  1  2 12  3  6  5       21 0.524810202280D-01 0.100000000000D+01
0.619452722799D-04 0.000000000000D+00 0.000000000000D+00 0.327216383807D-04 0.000000000000D+00  6 -1 2 25 24 21 21 4 0.24768852D-01 0.23015072D-01 0.23282795D+05 0.23282795D+05 0.23282795D+05 0.12266250D+01  1  2 12  3  6  5       21 0.517455031746D-01 0.100000000000D+01
-.351752447527D-03 0.000000000000D+00 0.000000000000D+00 0.326524134198D-04 0.000000000000D+00  6 -1 2 25 24 21 21 4 0.24768852D-01 0.23015072D-01 0.23936583D+05 0.23936583D+05 0.23936583D+05 0.12253268D+01  1  2  4  3  6  5       21 -.292792716284D+00 0.100000000000D+01
-.246042836471D-03 0.000000000000D+00 0.000000000000D+00 0.326524134198D-04 0.000000000000D+00  6 -1 2 25 24 21 21 4 0.24768852D-01 0.23015072D-01 0.23936583D+05 0.23936583D+05 0.23936583D+05 0.12253268D+01  1  2  5  3  6  5       21 -.204801845499D+00 0.100000000000D+01
0.405231046633D-03 0.000000000000D+00 -.000000000000D+00 0.326524134198D-04 0.000000000000D+00  6 -1 2 25 24 21 21 4 0.24768852D-01 0.23015072D-01 0.23936583D+05 0.23936583D+05 0.23936583D+05 0.12253268D+01  1  2  6  3  6  5       21 0.337307386773D+00 0.100000000000D+01
0.244766522708D-05 0.000000000000D+00 0.000000000000D+00 0.327216383807D-04 0.000000000000D+00  6 -1 2 25 24 1 -1 4 0.24768852D-01 0.23015072D-01 0.23282795D+05 0.23282795D+05 0.23282795D+05 0.12266250D+01  1  2 12  6  6  5       21 0.204463818007D-02 0.100000000000D+01
0.242379379709D-05 0.000000000000D+00 0.000000000000D+00 0.327216383807D-04 0.000000000000D+00  6 -1 2 25 24 1 -1 4 0.24768852D-01 0.23015072D-01 0.23282795D+05 0.23282795D+05 0.23282795D+05 0.12266250D+01  1  2 12  6  6  5       21 0.202469736601D-02 0.100000000000D+01
-.178728209933D-05 0.000000000000D+00 0.000000000000D+00 0.326524134198D-04 0.000000000000D+00  6 -1 2 25 24 1 -1 4 0.24768852D-01 0.23015072D-01 0.23936583D+05 0.23936583D+05 0.23936583D+05 0.12253268D+01  1  2  5  6  6  5       21 -.148770302612D-02 0.100000000000D+01
0.244766522708D-05 0.000000000000D+00 0.000000000000D+00 0.327216383807D-04 0.000000000000D+00  6 -1 2 25 24 2 -2 4 0.24768852D-01 0.23015072D-01 0.23282795D+05 0.23282795D+05 0.23282795D+05 0.12266250D+01  1  2 12  7  6  5       21 0.204463818007D-02 0.100000000000D+01
0.242379379709D-05 0.000000000000D+00 0.000000000000D+00 0.327216383807D-04 0.000000000000D+00  6 -1 2 25 24 2 -2 4 0.24768852D-01 0.23015072D-01 0.23282795D+05 0.23282795D+05 0.23282795D+05 0.12266250D+01  1  2 12  7  6  5       21 0.202469736601D-02 0.100000000000D+01
-.178728209933D-05 0.000000000000D+00 0.000000000000D+00 0.326524134198D-04 0.000000000000D+00  6 -1 2 25 24 2 -2 4 0.24768852D-01 0.23015072D-01 0.23936583D+05 0.23936583D+05 0.23936583D+05 0.12253268D+01  1  2  5  7  6  5       21 -.148770302612D-02 0.100000000000D+01
0.244766522708D-05 0.000000000000D+00 0.000000000000D+00 0.327216383807D-04 0.000000000000D+00  6 -1 2 25 24 3 -3 4 0.24768852D-01 0.23015072D-01 0.23282795D+05 0.23282795D+05 0.23282795D+05 0.12266250D+01  1  2 12  8  6  5       21 0.204463818007D-02 0.100000000000D+01
0.244766522708D-05 0.000000000000D+00 0.000000000000D+00 0.327216383807D-04 0.000000000000D+00  6 -1 2 25 24 4 -4 4 0.24768852D-01 0.23015072D-01 0.23282795D+05 0.23282795D+05 0.23282795D+05 0.12266250D+01  1  2 12  8  6  5       21 0.204463818007D-02 0.100000000000D+01
0.242379379709D-05 0.000000000000D+00 0.000000000000D+00 0.327216383807D-04 0.000000000000D+00  6 -1 2 25 24 3 -3 4 0.24768852D-01 0.23015072D-01 0.23282795D+05 0.23282795D+05 0.23282795D+05 0.12266250D+01  1  2 12  8  6  5       21 0.202469736601D-02 0.100000000000D+01
0.242379379709D-05 0.000000000000D+00 0.000000000000D+00 0.327216383807D-04 0.000000000000D+00  6 -1 2 25 24 4 -4 4 0.24768852D-01 0.23015072D-01 0.23282795D+05 0.23282795D+05 0.23282795D+05 0.12266250D+01  1  2 12  8  6  5       21 0.202469736601D-02 0.100000000000D+01
-.178728209933D-05 0.000000000000D+00 0.000000000000D+00 0.326524134198D-04 0.000000000000D+00  6 -1 2 25 24 3 -3 4 0.24768852D-01 0.23015072D-01 0.23936583D+05 0.23936583D+05 0.23936583D+05 0.12253268D+01  1  2  5  8  6  5       21 -.148770302612D-02 0.100000000000D+01
-.178728209933D-05 0.000000000000D+00 0.000000000000D+00 0.326524134198D-04 0.000000000000D+00  6 -1 2 25 24 4 -4 4 0.24768852D-01 0.23015072D-01 0.23936583D+05 0.23936583D+05 0.23936583D+05 0.12253268D+01  1  2  5  8  6  5       21 -.148770302612D-02 0.100000000000D+01
  </mgrwgt>
  </event>
  <event>
  5     66 0.43535451E-03 0.24678152E+02 0.75467711E-02 0.12085489E+00
       -1 -1    0    0    0  501 0.00000000E+00 0.00000000E+00 0.46982856E+02 0.46983945E+02 0.32000000E+00 0.0000E+00 0.9000E+01
        2 -1    0    0  502    0 -.00000000E+00 -.00000000E+00 -.44786730E+03 0.44786742E+03 0.32000000E+00 0.0000E+00 0.9000E+01
       25  1    1    2    0    0 0.49423442E+02 0.51920215E+02 -.19324532E+03 0.24105423E+03 0.12500000E+03 0.0000E+00 0.9000E+01
       24  1    1    2    0    0 -.74006383E+02 -.49868853E+02 -.18312934E+03 0.21901465E+03 0.80419002E+02 0.0000E+00 0.9000E+01
       21  1    1    2  502  501 0.24582941E+02 -.20513613E+01 -.24509783E+02 0.34782482E+02 0.75000000E+00 0.0000E+00 0.9000E+01
#aMCatNLO 1  0  0  5  1 0.51229357D+01 0.00000000D+00  -5  6  0 0.00000000D+00 0.00000000D+00 0.00000000D+00 0.00000000D+00 0.00000000D+00
  <mgrwgt>
 0.5563268000D+00   25    2    0
 0.145059928088956D+03 0.000000000000000D+00 0.000000000000000D+00 0.145059928088956D+03
 0.145059928088956D+03 -.000000000000000D+00 -.000000000000000D+00 -.145059928088956D+03
 0.144135178587845D+03 0.494181390617568D+02 0.519206571235381D+02 0.347024524822078D+01
 0.120525246655404D+03 -.740108165636008D+02 -.498684833999107D+02 -.972895276776450D+01
 0.254594309346624D+02 0.245926775018440D+02 -.205217372362744D+01 0.625870751954371D+01
 0.000000000000000D+00 0.000000000000000D+00 0.000000000000000D+00 0.000000000000000D+00
 0.145059928088956D+03 0.000000000000000D+00 0.000000000000000D+00 0.145059928088956D+03
 0.145059928088956D+03 -.000000000000000D+00 -.000000000000000D+00 -.145059928088956D+03
 0.144765111282675D+03 0.513539307493626D+02 0.517591220147472D+02 0.396289408609457D+01
 0.119567558655775D+03 -.724020620103131D+02 -.500027283930301D+02 -.931953316638085D+01
 0.201858923501380D+02 0.201347153921350D+02 0.124506712418566D+01 0.716445326145097D+00
 0.560129388932325D+01 0.913415868815593D+00 -.300146074590274D+01 0.464019375414117D+01
0.180274837128D-03 0.000000000000D+00 0.000000000000D+00 0.347176727736D-04 0.000000000000D+00  6 -1 2 25 24 21 21 2 0.72282243D-02 0.68902754D-01 0.20866306D+05 0.20866306D+05 0.20866306D+05 0.12318038D+01  1  2  2  3  6  5       21 0.211703061255D+00 0.100000000000D+01
0.362867374563D-04 0.951336452020D-05 -.692302842028D-06 0.347176727736D-04 0.000000000000D+00  6 -1 2 25 24 21 21 4 0.72282243D-02 0.68902754D-01 0.20866306D+05 0.20866306D+05 0.20866306D+05 0.12318038D+01  1  2  3  3  6  5       21 0.646581120666D-01 0.100000000000D+01
0.608028058244D-05 0.000000000000D+00 0.000000000000D+00 0.347176727736D-04 0.000000000000D+00  6 -1 2 25 24 21 21 4 0.72282243D-02 0.68902754D-01 0.20866306D+05 0.20866306D+05 0.20866306D+05 0.12318038D+01  1  2 15  3  6  5       21 0.108342466382D-01 0.100000000000D+01
0.247664270214D-04 0.000000000000D+00 0.000000000000D+00 0.347489464025D-04 0.000000000000D+00  6 -1 2 25 24 21 21 4 0.72282243D-02 0.68902754D-01 0.20624580D+05 0.20624580D+05 0.20624580D+05 0.12323585D+01  1  2 12  3  6  5       21 0.441944155355D-01 0.100000000000D+01
0.258351390615D-04 0.000000000000D+00 0.000000000000D+00 0.347489464025D-04 0.000000000000D+00  6 -1 2 25 24 21 21 4 0.72282243D-02 0.68902754D-01 0.20624580D+05 0.20624580D+05 0.20624580D+05 0.12323585D+01  1  2 12  3  6  5       21 0.461014772180D-01 0.100000000000D+01
-.370537269376D-03 0.000000000000D+00 0.000000000000D+00 0.347176727736D-04 0.000000000000D+00  6 -1 2 25 24 21 21 4 0.72282243D-02 0.68902754D-01 0.20866306D+05 0.20866306D+05 0.20866306D+05 0.12318038D+01  1  2  4  3  6  5       21 -.660247847220D+00 0.100000000000D+01
-.275656302471D-03 0.000000000000D+00 0.000000000000D+00 0.347176727736D-04 0.000000000000D+00  6 -1 2 25 24 21 21 4 0.72282243D-02 0.68902754D-01 0.20866306D+05 0.20866306D+05 0.20866306D+05 0.12318038D+01  1  2  5  3  6  5       21 -.491182656432D+00 0.100000000000D+01
0.408087907156D-03 0.000000000000D+00 -.000000000000D+00 0.347176727736D-04 0.000000000000D+00  6 -1 2 25 24 21 21 4 0.72282243D-02 0.68902754D-01 0.20866306D+05 0.20866306D+05 0.20866306D+05 0.12318038D+01  1  2  6  3  6  5       21 0.727158060591D+00 0.100000000000D+01
0.332821540228D-03 0.000000000000D+00 0.000000000000D+00 0.347176727736D-04 0.230275475906D-04  6 -1 2 25 24 21 21 4 0.72282243D-02 0.68902754D-01 0.20624580D+05 0.20624580D+05 0.20624580D+05 0.12323585D+01  1  2 11  3  6  5       21 0.593902924927D+00 0.100000000000D+01
0.110350997892D-05 0.000000000000D+00 0.000000000000D+00 0.347489464025D-04 0.000000000000D+00  6 -1 2 25 24 1 -1 4 0.72282243D-02 0.68902754D-01 0.20624580D+05 0.20624580D+05 0.20624580D+05 0.12323585D+01  1  2 12  6  6  5       21 0.196915681514D-02 0.100000000000D+01
0.112888694798D-05 0.000000000000D+00 0.000000000000D+00 0.347489464025D-04 0.000000000000D+00  6 -1 2 25 24 1 -1 4 0.72282243D-02 0.68902754D-01 0.20624580D+05 0.20624580D+05 0.20624580D+05 0.12323585D+01  1  2 12  6  6  5       21 0.201444071155D-02 0.100000000000D+01
-.327071784069D-05 0.000000000000D+00 0.000000000000D+00 0.347176727736D-04 0.000000000000D+00  6 -1 2 25 24 1 -1 4 0.72282243D-02 0.68902754D-01 0.20866306D+05 0.20866306D+05 0.20866306D+05 0.12318038D+01  1  2  5  6  6  5       21 -.582798166786D-02 0.100000000000D+01
0.173217331805D-05 0.000000000000D+00 0.000000000000D+00 0.347176727736D-04 0.219692535837D-06  6 -1 2 25 24 1 -1 4 0.72282243D-02 0.68902754D-01 0.20624580D+05 0.20624580D+05 0.20624580D+05 0.12323585D+01  1  2 11  6  6  5       21 0.309097421809D-02 0.100000000000D+01
0.110350997892D-05 0.000000000000D+00 0.000000000000D+00 0.347489464025D-04 0.000000000000D+00  6 -1 2 25 24 2 -2 4 0.72282243D-02 0.68902754D-01 0.20624580D+05 0.20624580D+05 0.20624580D+05 0.12323585D+01  1  2 12  7  6  5       21 0.196915681514D-02 0.100000000000D+01
0.112888694798D-05 0.000000000000D+00 0.000000000000D+00 0.347489464025D-04 0.000000000000D+00  6 -1 2 25 24 2 -2 4 0.72282243D-02 0.68902754D-01 0.20624580D+05 0.20624580D+05 0.20624580D+05 0.12323585D+01  1  2 12  7  6  5       21 0.201444071155D-02 0.100000000000D+01
-.327071784069D-05 0.000000000000D+00 0.000000000000D+00 0.347176727736D-04 0.000000000000D+00  6 -1 2 25 24 2 -2 4 0.72282243D-02 0.68902754D-01 0.20866306D+05 0.20866306D+05 0.20866306D+05 0.12318038D+01  1  2  5  7  6  5       21 -.582798166786D-02 0.100000000000D+01
0.252869176285D-05 0.000000000000D+00 0.000000000000D+00 0.347176727736D-04 0.206296136329D-06  6 -1 2 25 24 2 -2 4 0.72282243D-02 0.68902754D-01 0.20624580D+05 0.20624580D+05 0.20624580D+05 0.12323585D+01  1  2 11  7  6  5       21 0.451232042603D-02 0.100000000000D+01
0.110350997892D-05 0.000000000000D+00 0.000000000000D+00 0.347489464025D-04 0.000000000000D+00  6 -1 2 25 24 3 -3 4 0.72282243D-02 0.68902754D-01 0.20624580D+05 0.20624580D+05 0.20624580D+05 0.12323585D+01  1  2 12  8  6  5       21 0.196915681514D-02 0.100000000000D+01
0.110350997892D-05 0.000000000000D+00 0.000000000000D+00 0.347489464025D-04 0.000000000000D+00  6 -1 2 25 24 4 -4 4 0.72282243D-02 0.68902754D-01 0.20624580D+05 0.20624580D+05 0.20624580D+05 0.12323585D+01  1  2 12  8  6  5       21 0.196915681514D-02 0.100000000000D+01
0.112888694798D-05 0.000000000000D+00 0.000000000000D+00 0.347489464025D-04 0.000000000000D+00  6 -1 2 25 24 3 -3 4 0.72282243D-02 0.68902754D-01 0.20624580D+05 0.20624580D+05 0.20624580D+05 0.12323585D+01  1  2 12  8  6  5       21 0.201444071155D-02 0.100000000000D+01
0.112888694798D-05 0.000000000000D+00 0.000000000000D+00 0.347489464025D-04 0.000000000000D+00  6 -1 2 25 24 4 -4 4 0.72282243D-02 0.68902754D-01 0.20624580D+05 0.20624580D+05 0.20624580D+05 0.12323585D+01  1  2 12  8  6  5       21 0.201444071155D-02 0.100000000000D+01
-.327071784069D-05 0.000000000000D+00 0.000000000000D+00 0.347176727736D-04 0.000000000000D+00  6 -1 2 25 24 3 -3 4 0.72282243D-02 0.68902754D-01 0.20866306D+05 0.20866306D+05 0.20866306D+05 0.12318038D+01  1  2  5  8  6  5       21 -.582798166786D-02 0.100000000000D+01
-.327071784069D-05 0.000000000000D+00 0.000000000000D+00 0.347176727736D-04 0.000000000000D+00  6 -1 2 25 24 4 -4 4 0.72282243D-02 0.68902754D-01 0.20866306D+05 0.20866306D+05 0.20866306D+05 0.12318038D+01  1  2  5  8  6  5       21 -.582798166786D-02 0.100000000000D+01
0.251597255362D-05 0.000000000000D+00 0.000000000000D+00 0.347176727736D-04 0.204124840994D-06  6 -1 2 25 24 3 -3 4 0.72282243D-02 0.68902754D-01 0.20624580D+05 0.20624580D+05 0.20624580D+05 0.12323585D+01  1  2 11  8  6  5       21 0.448962365118D-02 0.100000000000D+01
0.251597255362D-05 0.000000000000D+00 0.000000000000D+00 0.347176727736D-04 0.204124840994D-06  6 -1 2 25 24 4 -4 4 0.72282243D-02 0.68902754D-01 0.20624580D+05 0.20624580D+05 0.20624580D+05 0.12323585D+01  1  2 11  8  6  5       21 0.448962365118D-02 0.100000000000D+01
  </mgrwgt>
  </event>
  <event>
  5     66 -.43535451E-03 0.25342823E+02 0.75467711E-02 0.11353170E+00
       -3 -1    0    0    0  501 0.00000000E+00 0.00000000E+00 0.23544440E+03 0.23544493E+03 0.50000000E+00 0.0000E+00 0.9000E+01
        4 -1    0    0  502    0 0.00000000E+00 0.00000000E+00 -.21524709E+03 0.21525267E+03 0.15500000E+01 0.0000E+00 0.9000E+01
       25  1    1    2    0    0 -.12324046E+03 -.11103477E+03 -.57123782E+02 0.21541834E+03 0.12500000E+03 0.0000E+00 0.9000E+01
       24  1    1    2    0    0 0.12181505E+03 0.85736619E+02 0.10383950E+03 0.19859389E+03 0.80419002E+02 0.0000E+00 0.9000E+01
       21  1    1    2  502  501 0.14254120E+01 0.25298156E+02 -.26518409E+02 0.36685379E+02 0.75000000E+00 0.0000E+00 0.9000E+01
#aMCatNLO 1  0  0  2  2 0.17348182D-02 0.00000000D+00  -5  6  0 0.00000000D+00 0.00000000D+00 0.00000000D+00 0.00000000D+00 0.00000000D+00
  <mgrwgt>
 -.1401166097D+00    5    4    0
 0.225122408395317D+03 0.000000000000000D+00 0.000000000000000D+00 0.225122408395317D+03
 0.225122408395317D+03 0.000000000000000D+00 0.000000000000000D+00 -.225122408395317D+03
 0.218197933482816D+03 -.123240597572293D+03 -.111037174653795D+03 -.668418965252952D+02
 0.194135661202924D+03 0.121814930100470D+03 0.857344835913360D+02 0.950376773930778D+02
 0.379112221048926D+02 0.142566747182334D+01 0.253026910624595D+02 -.281957808677826D+02
 0.000000000000000D+00 -.000000000000000D+00 -.000000000000000D+00 -.000000000000000D+00
 0.226421415754197D+03 0.000000000000000D+00 0.000000000000000D+00 0.226421415754197D+03
 0.552771326974110D+03 0.000000000000000D+00 0.000000000000000D+00 -.552771326974110D+03
 0.207599796385253D+03 -.109947114402845D+03 -.104481904474354D+03 -.668418965252952D+02
 0.204865115677831D+03 0.134271807486134D+03 0.918772074970526D+02 0.950376773930778D+02
 0.388723644824295D+02 0.382286511847279D+01 0.264847949585568D+02 -.281957808677826D+02
 0.327855466182792D+03 -.281475582017623D+02 -.138800979812556D+02 -.326349911219913D+03
 0.225122408395317D+03 0.000000000000000D+00 0.000000000000000D+00 0.225122408395317D+03
 0.225122408395317D+03 0.000000000000000D+00 0.000000000000000D+00 -.225122408395317D+03
 0.218197933482816D+03 -.123240597572293D+03 -.111037174653795D+03 -.668418965252952D+02
 0.194135661202924D+03 0.121814930100470D+03 0.857344835913360D+02 0.950376773930778D+02
 0.000000000000000D+00 -.000000000000000D+00 -.000000000000000D+00 -.000000000000000D+00
 0.379112221048926D+02 0.142566747182334D+01 0.253026910624595D+02 -.281957808677826D+02
 0.226421415754197D+03 0.000000000000000D+00 0.000000000000000D+00 0.226421415754197D+03
 0.552771326974110D+03 0.000000000000000D+00 0.000000000000000D+00 -.552771326974110D+03
 0.207599796385253D+03 -.109947114402845D+03 -.104481904474354D+03 -.668418965252952D+02
 0.204865115677831D+03 0.134271807486134D+03 0.918772074970526D+02 0.950376773930778D+02
 0.327855466182792D+03 -.281475582017623D+02 -.138800979812556D+02 -.326349911219913D+03
 0.388723644824295D+02 0.382286511847279D+01 0.264847949585568D+02 -.281957808677826D+02
0.145930880362D-03 0.000000000000D+00 0.000000000000D+00 0.222073024988D-04 0.000000000000D+00  6 -3 4 25 24 21 21 2 0.36222685D-01 0.33115407D-01 0.40467929D+05 0.40467929D+05 0.40467929D+05 0.12014877D+01  1  2  2  2  6  2        4 0.290585400206D-02 0.100000000000D+01
0.341138599511D-04 0.770098412931D-05 -.560413005074D-06 0.222073024988D-04 0.000000000000D+00  6 -3 4 25 24 21 21 4 0.36222685D-01 0.33115407D-01 0.40467929D+05 0.40467929D+05 0.40467929D+05 0.12014877D+01  1  2  3  2  6  2        4 0.980609483124D-03 0.100000000000D+01
0.175266424675D-05 0.000000000000D+00 0.000000000000D+00 0.222073024988D-04 0.000000000000D+00  6 -3 4 25 24 21 21 4 0.36222685D-01 0.33115407D-01 0.40467929D+05 0.40467929D+05 0.40467929D+05 0.12014877D+01  1  2 15  2  6  2        4 0.503806717726D-04 0.100000000000D+01
-.996933132101D-02 0.000000000000D+00 -.112753462822D-03 0.222073024988D-04 0.000000000000D+00  6 -3 4 25 24 21 21 4 0.36222685D-01 0.81449834D-01 0.40467929D+05 0.40467929D+05 0.40467929D+05 0.12014877D+01  1  2  5  2  6  2        4 -.443911898887D-01 0.100000000000D+01
-.978119210741D-03 0.000000000000D+00 -.111419919453D-04 0.222073024988D-04 0.000000000000D+00  6 -3 21 25 24 -4 21 4 0.36222685D-01 0.81449834D-01 0.40467929D+05 0.40467929D+05 0.40467929D+05 0.12014877D+01  3  4  5  5  5  2        4 -.996622640054D-01 0.100000000000D+01
  </mgrwgt>
  </event>
  <event>
  5     66 -.43535451E-03 0.30447237E+02 0.75467711E-02 0.11622335E+00
       -1 -1    0    0    0  501 0.00000000E+00 0.00000000E+00 0.47355531E+03 0.47355541E+03 0.32000000E+00 0.0000E+00 0.9000E+01
        2 -1    0    0  502    0 0.00000000E+00 0.00000000E+00 -.63127894E+03 0.63127902E+03 0.32000000E+00 0.0000E+00 0.9000E+01
       25  1    1    2    0    0 0.11048112E+02 -.72407396E+02 0.66388242E+02 0.15936527E+03 0.12500000E+03 0.0000E+00 0.9000E+01
       24  1    1    2    0    0 0.16668805E+02 0.59805615E+02 -.57972208E+03 0.58855711E+03 0.80419002E+02 0.0000E+00 0.9000E+01
       21  1    1    2  502  501 -.27716917E+02 0.12601781E+02 0.35561021E+03 0.35691205E+03 0.75000000E+00 0.0000E+00 0.9000E+01
#aMCatNLO 1  0  0  2  2 0.17348182D-02 0.00000000D+00  -5  6  0 0.00000000D+00 0.00000000D+00 0.00000000D+00 0.00000000D+00 0.00000000D+00
  <mgrwgt>
 -.2911245419D+01    7    4    0
 0.546759175743293D+03 0.000000000000000D+00 0.000000000000000D+00 0.546759175743293D+03
 0.546759175743293D+03 0.000000000000000D+00 0.000000000000000D+00 -.546759175743293D+03
 0.170589892197207D+03 0.110481189384841D+02 -.724073996429824D+02 0.900611951104200D+02
 0.511031777896828D+03 0.166688263018749D+02 0.598056054353079D+02 -.500831011274518D+03
 0.411896681392551D+03 -.277169452403591D+02 0.126017942076745D+02 0.410769816164098D+03
 0.000000000000000D+00 0.000000000000000D+00 -.000000000000000D+00 -.000000000000000D+00
 0.555647402902202D+03 0.000000000000000D+00 0.000000000000000D+00 0.555647402902202D+03
 0.698554195858613D+03 0.000000000000000D+00 0.000000000000000D+00 -.698554195858613D+03
 0.169708872173417D+03 0.452279011715426D+00 -.711679553826845D+02 0.900611951104200D+02
 0.511434248092875D+03 -.151675700540839D+02 0.635296555346562D+02 -.500831011274518D+03
 0.414526701321605D+03 -.534491864113583D+02 0.156118131249499D+02 0.410769816164098D+03
 0.158531777172917D+03 0.681644774537268D+02 -.797351327692161D+01 -.142906792956411D+03
 0.546759175743293D+03 0.000000000000000D+00 0.000000000000000D+00 0.546759175743293D+03
 0.546759175743293D+03 0.000000000000000D+00 0.000000000000000D+00 -.546759175743293D+03
 0.170589892197207D+03 0.110481189384841D+02 -.724073996429824D+02 0.900611951104200D+02
 0.511031777896828D+03 0.166688263018749D+02 0.598056054353079D+02 -.500831011274518D+03
 0.000000000000000D+00 0.000000000000000D+00 -.000000000000000D+00 -.000000000000000D+00
 0.411896681392551D+03 -.277169452403591D+02 0.126017942076745D+02 0.410769816164098D+03
 0.555647402902202D+03 0.000000000000000D+00 0.000000000000000D+00 0.555647402902202D+03
 0.698554195858613D+03 0.000000000000000D+00 0.000000000000000D+00 -.698554195858613D+03
 0.169708872173417D+03 0.452279011715426D+00 -.711679553826845D+02 0.900611951104200D+02
 0.511434248092875D+03 -.151675700540839D+02 0.635296555346562D+02 -.500831011274518D+03
 0.158531777172917D+03 0.681644774537268D+02 -.797351327692161D+01 -.142906792956411D+03
 0.414526701321605D+03 -.534491864113583D+02 0.156118131249499D+02 0.410769816164098D+03
0.147292558099D-01 0.000000000000D+00 0.000000000000D+00 0.915678341937D-05 0.000000000000D+00  6 -1 2 25 24 21 21 2 0.72854677D-01 0.97119852D-01 0.19171486D+05 0.19171486D+05 0.19171486D+05 0.12358540D+01  1  2  2  2  6  2        2 0.252233918967D+00 0.100000000000D+01
0.362109247393D-02 0.777284183766D-03 -.565642206122D-04 0.915678341937D-05 0.000000000000D+00  6 -1 2 25 24 21 21 4 0.72854677D-01 0.97119852D-01 0.19171486D+05 0.19171486D+05 0.19171486D+05 0.12358540D+01  1  2  3  2  6  2        2 0.947101783043D-01 0.100000000000D+01
0.483825921430D-03 0.000000000000D+00 0.000000000000D+00 0.915678341937D-05 0.000000000000D+00  6 -1 2 25 24 21 21 4 0.72854677D-01 0.97119852D-01 0.19171486D+05 0.19171486D+05 0.19171486D+05 0.12358540D+01  1  2 15  2  6  2        2 0.126545344027D-01 0.100000000000D+01
-.161574691729D+00 0.000000000000D+00 0.000000000000D+00 0.915678341937D-05 0.000000000000D+00  6 -1 2 25 24 21 21 4 0.72854677D-01 0.97119852D-01 0.19171486D+05 0.19171486D+05 0.19171486D+05 0.12358540D+01  1  2  4  2  6  2        2 -.422600857980D+01 0.100000000000D+01
-.151620342698D+00 0.000000000000D+00 -.203540331571D-01 0.915678341937D-05 0.000000000000D+00  6 -1 2 25 24 21 21 4 0.72854677D-01 0.12501482D+00 0.19171486D+05 0.19171486D+05 0.19171486D+05 0.12358540D+01  1  2  5  2  6  2        2 -.292991462219D+01 0.100000000000D+01
0.152504525273D+00 0.000000000000D+00 0.197220516369D-01 0.915678341937D-05 0.000000000000D+00  6 -1 2 25 24 21 21 4 0.72854677D-01 0.97119852D-01 0.19171486D+05 0.19171486D+05 0.19171486D+05 0.12358540D+01  1  2  6  2  6  2        2 0.398877711211D+01 0.100000000000D+01
-.482221667747D-02 0.000000000000D+00 -.693890245370D-03 0.915678341937D-05 0.000000000000D+00  6 -1 21 25 24 -2 21 4 0.72854677D-01 0.12501482D+00 0.19171486D+05 0.19171486D+05 0.19171486D+05 0.12358540D+01  3  4  5  5  5  2        2 -.103697961130D+00 0.100000000000D+01
  </mgrwgt>
  </event>
  <event>
  5     66 -.43535451E-03 0.26432521E+02 0.75467711E-02 0.11588242E+00
       -1 -1    0    0    0  501 0.00000000E+00 0.00000000E+00 0.53218082E+02 0.53219044E+02 0.32000000E+00 0.0000E+00 0.9000E+01
        2 -1    0    0  502    0 0.00000000E+00 0.00000000E+00 -.67292203E+03 0.67292211E+03 0.32000000E+00 0.0000E+00 0.9000E+01
       25  1    1    2    0    0 0.85197530E+02 0.93064931E+02 -.38016913E+03 0.41961085E+03 0.12500000E+03 0.0000E+00 0.9000E+01
       24  1    1    2    0    0 -.11097243E+03 -.87236617E+02 -.22081218E+03 0.27413563E+03 0.80419002E+02 0.0000E+00 0.9000E+01
       21  1    1    2  502  501 0.25774905E+02 -.58283144E+01 -.18722642E+02 0.32394672E+02 0.75000000E+00 0.0000E+00 0.9000E+01
#aMCatNLO 1  0  0  1  2 0.12421058D+02 0.00000000D+00  -5  6  0 0.00000000D+00 0.00000000D+00 0.00000000D+00 0.00000000D+00 0.00000000D+00
  <mgrwgt>
 -.1602280938D+00    7    4    0
 0.189240579517736D+03 0.000000000000000D+00 0.000000000000000D+00 0.189240579517736D+03
 0.189240579517736D+03 0.000000000000000D+00 0.000000000000000D+00 -.189240579517736D+03
 0.182582756524471D+03 0.851940031052860D+02 0.930657284583132D+02 -.423345603673202D+02
 0.164403233433744D+03 -.110975610157776D+03 -.872358984488760D+02 0.252095057671989D+02
 0.314951690772577D+02 0.257816070524896D+02 -.582983000943720D+01 0.171250546001213D+02
 0.000000000000000D+00 -.000000000000000D+00 0.000000000000000D+00 0.000000000000000D+00
 0.203173007594022D+03 0.000000000000000D+00 0.000000000000000D+00 0.203173007594022D+03
 0.192131264131178D+03 0.000000000000000D+00 0.000000000000000D+00 -.192131264131178D+03
 0.181073796769114D+03 0.876857669559375D+02 0.876453715163392D+02 -.423345603673202D+02
 0.165571759900233D+03 -.108714631350817D+03 -.921542265515782D+02 0.252095057671989D+02
 0.320393656864268D+02 0.262169437886443D+02 -.677682203650898D+01 0.171250546001213D+02
 0.166193493694259D+02 -.518807939376528D+01 0.112856770717480D+02 0.110417434628434D+02
 0.189240579517736D+03 0.000000000000000D+00 0.000000000000000D+00 0.189240579517736D+03
 0.189240579517736D+03 0.000000000000000D+00 0.000000000000000D+00 -.189240579517736D+03
 0.182582756524471D+03 0.851940031052860D+02 0.930657284583132D+02 -.423345603673202D+02
 0.164403233433744D+03 -.110975610157776D+03 -.872358984488760D+02 0.252095057671989D+02
 0.000000000000000D+00 -.000000000000000D+00 0.000000000000000D+00 0.000000000000000D+00
 0.314951690772577D+02 0.257816070524896D+02 -.582983000943720D+01 0.171250546001213D+02
 0.203173007594022D+03 0.000000000000000D+00 0.000000000000000D+00 0.203173007594022D+03
 0.192131264131178D+03 0.000000000000000D+00 0.000000000000000D+00 -.192131264131178D+03
 0.181073796769114D+03 0.876857669559375D+02 0.876453715163392D+02 -.423345603673202D+02
 0.165571759900233D+03 -.108714631350817D+03 -.921542265515782D+02 0.252095057671989D+02
 0.166193493694259D+02 -.518807939376528D+01 0.112856770717480D+02 0.110417434628434D+02
 0.320393656864268D+02 0.262169437886443D+02 -.677682203650898D+01 0.171250546001213D+02
0.170982246793D-03 0.000000000000D+00 0.000000000000D+00 0.247129523553D-04 0.000000000000D+00  6 -1 2 25 24 21 21 2 0.81874771D-02 0.10352655D+00 0.33580280D+05 0.33580280D+05 0.33580280D+05 0.12097929D+01  1  2  2  1  6  1       -1 0.102496163286D+00 0.100000000000D+01
0.394108058821D-04 0.902298105567D-05 -.656616848344D-06 0.247129523553D-04 0.000000000000D+00  6 -1 2 25 24 21 21 4 0.81874771D-02 0.10352655D+00 0.33580280D+05 0.33580280D+05 0.33580280D+05 0.12097929D+01  1  2  3  1  6  1       -1 0.345775294334D-01 0.100000000000D+01
0.413166267301D-05 0.000000000000D+00 0.000000000000D+00 0.247129523553D-04 0.000000000000D+00  6 -1 2 25 24 21 21 4 0.81874771D-02 0.10352655D+00 0.33580280D+05 0.33580280D+05 0.33580280D+05 0.12097929D+01  1  2 15  1  6  1       -1 0.362496235454D-02 0.100000000000D+01
-.190231560088D-03 0.000000000000D+00 0.000000000000D+00 0.247129523553D-04 0.000000000000D+00  6 -1 2 25 24 21 21 4 0.81874771D-02 0.10352655D+00 0.33580280D+05 0.33580280D+05 0.33580280D+05 0.12097929D+01  1  2  4  1  6  1       -1 -.166901874267D+00 0.100000000000D+01
-.280430232061D-02 0.000000000000D+00 -.400747279969D-03 0.247129523553D-04 0.000000000000D+00  6 -1 2 25 24 21 21 4 0.89198040D-02 0.10352655D+00 0.33580280D+05 0.33580280D+05 0.33580280D+05 0.12097929D+01  1  2  5  1  6  1       -1 -.215910529754D+01 0.100000000000D+01
0.282970964986D-02 0.000000000000D+00 0.399281214374D-03 0.247129523553D-04 0.000000000000D+00  6 -1 2 25 24 21 21 4 0.81874771D-02 0.10352655D+00 0.33580280D+05 0.33580280D+05 0.33580280D+05 0.12097929D+01  1  2  6  1  6  1       -1 0.248267870996D+01 0.100000000000D+01
-.388075400078D-04 0.000000000000D+00 -.568702688798D-05 0.247129523553D-04 0.000000000000D+00  6 21 2 25 24 1 21 4 0.89198040D-02 0.10352655D+00 0.33580280D+05 0.33580280D+05 0.33580280D+05 0.12097929D+01  3  4  5  4  5  1       -1 -.457598287080D+00 0.100000000000D+01
  </mgrwgt>
  </event>
  <event>
  5     66 0.43535451E-03 0.36262443E+02 0.75467711E-02 0.11712464E+00
       -1 -1    0    0    0  501 0.00000000E+00 0.00000000E+00 0.26753144E+02 0.26755058E+02 0.32000000E+00 0.0000E+00 0.9000E+01
        2 -1    0    0  502    0 0.00000000E+00 0.00000000E+00 -.96611847E+03 0.96611852E+03 0.32000000E+00 0.0000E+00 0.9000E+01
       25  1    1    2    0    0 0.94470720E+02 0.24752836E+02 -.52517938E+03 0.54861261E+03 0.12500000E+03 0.0000E+00 0.9000E+01
       24  1    1    2    0    0 -.70199804E+02 0.21837458E+01 -.19705293E+03 0.22412017E+03 0.80419002E+02 0.0000E+00 0.9000E+01
       21  1    1    2  502  501 -.24270917E+02 -.26936582E+02 -.21713302E+03 0.22014079E+03 0.75000000E+00 0.0000E+00 0.9000E+01
#aMCatNLO 1  0  0  1  2 0.99150269D+02 0.00000000D+00  -5  6  0 0.00000000D+00 0.00000000D+00 0.00000000D+00 0.00000000D+00 0.00000000D+00
  <mgrwgt>
 0.1053313710D+00    7    4    0
 0.160772145054875D+03 0.000000000000000D+00 0.000000000000000D+00 0.160772145054875D+03
 0.160772145054875D+03 0.000000000000000D+00 0.000000000000000D+00 -.160772145054875D+03
 0.159754055665508D+03 0.944723646423637D+02 0.247546609879819D+02 -.189350833066222D+02
 0.116370477321889D+03 -.701986057645927D+02 0.218507513296703D+01 0.462844815583392D+02
 0.454197571223531D+02 -.242737588777710D+02 -.269397361209490D+02 -.273493982517170D+02
 0.000000000000000D+00 0.000000000000000D+00 0.000000000000000D+00 0.000000000000000D+00
 0.185747937921243D+03 0.000000000000000D+00 0.000000000000000D+00 0.185747937921243D+03
 0.185230246440085D+03 0.000000000000000D+00 0.000000000000000D+00 -.185230246440085D+03
 0.147842855671499D+03 0.753628029598578D+02 0.139434760124032D+02 -.189350833066222D+02
 0.126174843486611D+03 -.852668154831069D+02 -.633972544719498D+01 0.462844815583392D+02
 0.508198329796230D+02 -.302526758160424D+02 -.303222928769444D+02 -.273493982517170D+02
 0.461406522235956D+02 0.401566883392915D+02 0.227185423117362D+02 0.517691481158806D+00
 0.160772145054875D+03 0.000000000000000D+00 0.000000000000000D+00 0.160772145054875D+03
 0.160772145054875D+03 0.000000000000000D+00 0.000000000000000D+00 -.160772145054875D+03
 0.159754055665508D+03 0.944723646423637D+02 0.247546609879819D+02 -.189350833066222D+02
 0.116370477321889D+03 -.701986057645927D+02 0.218507513296703D+01 0.462844815583392D+02
 0.000000000000000D+00 0.000000000000000D+00 0.000000000000000D+00 0.000000000000000D+00
 0.454197571223531D+02 -.242737588777710D+02 -.269397361209490D+02 -.273493982517170D+02
 0.185747937921243D+03 0.000000000000000D+00 0.000000000000000D+00 0.185747937921243D+03
 0.185230246440085D+03 0.000000000000000D+00 0.000000000000000D+00 -.185230246440085D+03
 0.147842855671499D+03 0.753628029598578D+02 0.139434760124032D+02 -.189350833066222D+02
 0.126174843486611D+03 -.852668154831069D+02 -.633972544719498D+01 0.462844815583392D+02
 0.461406522235956D+02 0.401566883392915D+02 0.227185423117362D+02 0.517691481158806D+00
 0.508198329796230D+02 -.302526758160424D+02 -.303222928769444D+02 -.273493982517170D+02
0.772860424010D-04 0.000000000000D+00 0.000000000000D+00 0.152349261839D-04 0.000000000000D+00  6 -1 2 25 24 21 21 2 0.41160196D-02 0.14863376D+00 0.22749747D+05 0.22749747D+05 0.22749747D+05 0.12277140D+01  1  2  2  1  6  1       -1 0.839001349924D-01 0.100000000000D+01
0.622163530872D-05 0.407849650787D-05 -.296798752702D-06 0.152349261839D-04 0.000000000000D+00  6 -1 2 25 24 21 21 4 0.41160196D-02 0.14863376D+00 0.22749747D+05 0.22749747D+05 0.22749747D+05 0.12277140D+01  1  2  3  1  6  1       -1 0.101802988144D-01 0.100000000000D+01
0.306138112635D-05 0.000000000000D+00 0.000000000000D+00 0.152349261839D-04 0.000000000000D+00  6 -1 2 25 24 21 21 4 0.41160196D-02 0.14863376D+00 0.22749747D+05 0.22749747D+05 0.22749747D+05 0.12277140D+01  1  2 15  1  6  1       -1 0.500925771193D-02 0.100000000000D+01
-.127246663171D-04 0.000000000000D+00 0.000000000000D+00 0.152349261839D-04 0.000000000000D+00  6 -1 2 25 24 21 21 4 0.41160196D-02 0.14863376D+00 0.22749747D+05 0.22749747D+05 0.22749747D+05 0.12277140D+01  1  2  4  1  6  1       -1 -.208210380381D-01 0.100000000000D+01
-.159514918328D-03 0.000000000000D+00 -.612808919267D-04 0.152349261839D-04 0.000000000000D+00  6 -1 2 25 24 21 21 4 0.55116436D-02 0.14863376D+00 0.22749747D+05 0.22749747D+05 0.22749747D+05 0.12277140D+01  1  2  5  1  6  1       -1 -.169384192242D+00 0.100000000000D+01
0.172523686575D-03 0.000000000000D+00 0.587584641335D-04 0.152349261839D-04 0.000000000000D+00  6 -1 2 25 24 21 21 4 0.41160196D-02 0.14863376D+00 0.22749747D+05 0.22749747D+05 0.22749747D+05 0.12277140D+01  1  2  6  1  6  1       -1 0.282295987268D+00 0.100000000000D+01
-.472919260653D-05 0.000000000000D+00 -.232283434825D-05 0.152349261839D-04 0.000000000000D+00  6 21 2 25 24 1 21 4 0.55116436D-02 0.14863376D+00 0.22749747D+05 0.22749747D+05 0.22749747D+05 0.12277140D+01  3  4  5  4  5  1       -1 -.858490775518D-01 0.100000000000D+01
  </mgrwgt>
  </event>
  <event>
  5     66 0.43535451E-03 0.74458100E+02 0.75467711E-02 0.11829491E+00
       -1 -1    0    0    0  501 0.00000000E+00 0.00000000E+00 0.13755224E+03 0.13755261E+03 0.32000000E+00 0.0000E+00 0.9000E+01
        2 -1    0    0  502    0 0.00000000E+00 0.00000000E+00 -.27355370E+03 0.27355388E+03 0.32000000E+00 0.0000E+00 0.9000E+01
       25  1    1    2    0    0 0.53945882E+02 -.64542767E+02 -.84928977E+02 0.17295623E+03 0.12500000E+03 0.0000E+00 0.9000E+01
       24  1    1    2    0    0 -.30483463E+02 -.14381136E+02 -.10743442E+03 0.13836701E+03 0.80419002E+02 0.0000E+00 0.9000E+01
       21  1    1    2  502  501 -.23462418E+02 0.78923903E+02 0.56361935E+02 0.99783254E+02 0.75000000E+00 0.0000E+00 0.9000E+01
#aMCatNLO 1  0  0  2  5 0.10116486D+02 0.00000000D+00  -5  6  0 0.00000000D+00 0.00000000D+00 0.00000000D+00 0.00000000D+00 0.00000000D+00
  <mgrwgt>
 0.1797134076D+00    9    4    0
 0.193979478028958D+03 0.000000000000000D+00 0.000000000000000D+00 0.193979478028958D+03
 0.193979478028958D+03 0.000000000000000D+00 0.000000000000000D+00 -.193979478028958D+03
 0.153503681988700D+03 0.539460472987126D+02 -.645433249251189D+02 -.293660275240529D+02
 0.108961153946369D+03 -.304833454995139D+02 -.143815317492328D+02 -.653395309644689D+02
 0.125494120122848D+03 -.234627017991986D+02 0.789248566743517D+02 0.947055584885218D+02
 0.000000000000000D+00 -.000000000000000D+00 -.000000000000000D+00 -.000000000000000D+00
 0.197740295638444D+03 0.000000000000000D+00 0.000000000000000D+00 0.197740295638444D+03
 0.200970088344800D+03 0.000000000000000D+00 0.000000000000000D+00 -.200970088344800D+03
 0.154199037011278D+03 0.576427539860835D+02 -.629864458083000D+02 -.293660275240529D+02
 0.108120064221246D+03 -.278753555749826D+02 -.132831689647987D+02 -.653395309644689D+02
 0.125771732054745D+03 -.204440214343595D+02 0.801961829703829D+02 0.947055584885218D+02
 0.106195506959751D+02 -.932337697674144D+01 -.392656819728419D+01 -.322979270635595D+01
 0.193979478028958D+03 0.000000000000000D+00 0.000000000000000D+00 0.193979478028958D+03
 0.193979478028958D+03 0.000000000000000D+00 0.000000000000000D+00 -.193979478028958D+03
 0.153503681988700D+03 0.539460472987126D+02 -.645433249251189D+02 -.293660275240529D+02
 0.108961153946369D+03 -.304833454995139D+02 -.143815317492328D+02 -.653395309644689D+02
 0.000000000000000D+00 -.000000000000000D+00 -.000000000000000D+00 -.000000000000000D+00
 0.125494120122848D+03 -.234627017991986D+02 0.789248566743517D+02 0.947055584885218D+02
 0.197740295638444D+03 0.000000000000000D+00 0.000000000000000D+00 0.197740295638444D+03
 0.200970088344800D+03 0.000000000000000D+00 0.000000000000000D+00 -.200970088344800D+03
 0.154199037011278D+03 0.576427539860835D+02 -.629864458083000D+02 -.293660275240529D+02
 0.108120064221246D+03 -.278753555749826D+02 -.132831689647987D+02 -.653395309644689D+02
 0.106195506959751D+02 -.932337697674144D+01 -.392656819728419D+01 -.322979270635595D+01
 0.125771732054745D+03 -.204440214343595D+02 0.801961829703829D+02 0.947055584885218D+02
0.893221889138D-04 0.000000000000D+00 0.000000000000D+00 0.481148182692D-05 0.000000000000D+00  6 -1 2 25 24 21 21 2 0.21161926D-01 0.42085227D-01 0.25632629D+05 0.25632629D+05 0.25632629D+05 0.12221358D+01  1  2  2  2  6  2        2 0.330971889248D-01 0.100000000000D+01
-.473494216475D-05 0.471366140952D-05 -.343020724501D-06 0.481148182692D-05 0.000000000000D+00  6 -1 2 25 24 21 21 4 0.21161926D-01 0.42085227D-01 0.25632629D+05 0.25632629D+05 0.25632629D+05 0.12221358D+01  1  2  3  2  6  2        2 -.262050705941D-02 0.100000000000D+01
0.351327926829D-05 0.000000000000D+00 0.000000000000D+00 0.481148182692D-05 0.000000000000D+00  6 -1 2 25 24 21 21 4 0.21161926D-01 0.42085227D-01 0.25632629D+05 0.25632629D+05 0.25632629D+05 0.12221358D+01  1  2 15  2  6  2        2 0.194438977371D-02 0.100000000000D+01
0.455629476922D-03 0.000000000000D+00 0.000000000000D+00 0.478868054031D-05 0.000000000000D+00  6 -1 2 25 24 21 21 4 0.21161926D-01 0.44306814D-01 0.27290693D+05 0.27290693D+05 0.27290693D+05 0.12192365D+01  1  2 12  2  6  2        2 0.236687670157D+00 0.100000000000D+01
-.296327454774D-03 0.000000000000D+00 0.000000000000D+00 0.481148182692D-05 0.000000000000D+00  6 -1 2 25 24 21 21 4 0.21161926D-01 0.42085227D-01 0.25632629D+05 0.25632629D+05 0.25632629D+05 0.12221358D+01  1  2  4  2  6  2        2 -.163999508360D+00 0.100000000000D+01
-.346427415488D-02 0.000000000000D+00 -.555150615537D-03 0.481148182692D-05 0.000000000000D+00  6 -1 2 25 24 21 21 4 0.21161926D-01 0.44350255D-01 0.25632629D+05 0.25632629D+05 0.25632629D+05 0.12221358D+01  1  2  5  2  6  2        2 -.181309492791D+01 0.100000000000D+01
0.348934248476D-02 0.000000000000D+00 0.554388702002D-03 0.481148182692D-05 0.000000000000D+00  6 -1 2 25 24 21 21 4 0.21161926D-01 0.42085227D-01 0.25632629D+05 0.25632629D+05 0.25632629D+05 0.12221358D+01  1  2  6  2  6  2        2 0.193114219686D+01 0.100000000000D+01
0.724283952338D-05 0.000000000000D+00 0.000000000000D+00 0.478868054031D-05 0.000000000000D+00  6 -1 21 25 24 -2 21 4 0.21161926D-01 0.44306814D-01 0.27290693D+05 0.27290693D+05 0.27290693D+05 0.12192365D+01  3  4 12  5  5  2        2 0.131064855536D-01 0.100000000000D+01
-.309917965929D-04 0.000000000000D+00 -.505222620654D-05 0.481148182692D-05 0.000000000000D+00  6 -1 21 25 24 -2 21 4 0.21161926D-01 0.44350255D-01 0.25632629D+05 0.25632629D+05 0.25632629D+05 0.12221358D+01  3  4  5  5  5  2        2 -.565495803060D-01 0.100000000000D+01
  </mgrwgt>
  </event>
  <event>
  6     66 -.43535451E-03 0.13030981E+02 0.75467711E-02 0.12445833E+00
       -1 -1    0    0    0  501 0.00000000E+00 0.00000000E+00 0.26428465E+02 0.26430402E+02 0.32000000E+00 0.0000E+00 0.9000E+01
        2 -1    0    0  502    0 -.00000000E+00 -.00000000E+00 -.11343705E+04 0.11343705E+04 0.32000000E+00 0.0000E+00 0.9000E+01
       25  1    1    2    0    0 0.11751287E+02 0.14076522E+02 -.97491477E+03 0.98306666E+03 0.12500000E+03 0.0000E+00 0.9000E+01
       24  1    1    2    0    0 -.60045003E+01 -.36112406E+02 -.11736484E+03 0.14690773E+03 0.80419002E+02 0.0000E+00 0.9000E+01
       21  1    1    2  502  503 0.95222192E+00 0.17303249E+02 -.65439543E+01 0.18539012E+02 0.75000000E+00 0.0000E+00 0.9000E+01
       21  1    1    2  503  501 -.66990084E+01 0.47326353E+01 -.91184287E+01 0.12287506E+02 0.75000000E+00 0.0000E+00 0.9000E+01
#aMCatNLO 2  0  0  5  1 0.56726114D+01 0.00000000D+00  -5  6  0 0.00000000D+00 0.00000000D+00 0.00000000D+00 0.00000000D+00 0.00000000D+00
  <mgrwgt>
 -.5094704034D+00    3    2    0
 0.173149705406317D+03 0.000000000000000D+00 0.000000000000000D+00 0.173149705406317D+03
 0.173149705406317D+03 -.000000000000000D+00 -.000000000000000D+00 -.173149705406317D+03
 0.176680909534063D+03 0.118528801948970D+02 0.136869647639076D+02 -.123544809767229D+03
 0.116666465168200D+03 -.593723253702058D+01 -.363703420328579D+02 0.760644176385156D+02
 0.529520361103714D+02 -.591564765787644D+01 0.226833772689503D+02 0.474803921287135D+02
 0.000000000000000D+00 -.000000000000000D+00 0.000000000000000D+00 0.000000000000000D+00
 0.173149705406317D+03 0.000000000000000D+00 0.000000000000000D+00 0.173149705406317D+03
 0.173149705406317D+03 -.000000000000000D+00 -.000000000000000D+00 -.173149705406317D+03
 0.176134417616808D+03 0.117510677561246D+02 0.140773615713091D+02 -.122727638969361D+03
 0.116943313705665D+03 -.600464565509657D+01 -.361118484107508D+02 0.766054913241002D+02
 0.409484943262121D+02 0.108383733370855D+01 0.171851648096398D+02 0.371520469783753D+02
 0.122731851639491D+02 -.683025943473656D+01 0.484932202980191D+01 0.897010066688503D+01
-.141054834869D-03 0.000000000000D+00 0.000000000000D+00 0.238844659076D-04 0.000000000000D+00  6 -1 2 25 24 21 21 4 0.40660702D-02 0.17451868D+00 0.14435179D+05 0.14435179D+05 0.14435179D+05 0.12497273D+01  1  2 13  3  6  5       21 -.199272958715D+00 0.100000000000D+01
-.175771967067D-03 0.000000000000D+00 0.000000000000D+00 0.238844659076D-04 0.000000000000D+00  6 -1 2 25 24 21 21 4 0.40660702D-02 0.17451868D+00 0.14435179D+05 0.14435179D+05 0.14435179D+05 0.12497273D+01  1  2 13  3  6  5       21 -.248319031169D+00 0.100000000000D+01
-.436938110409D-04 0.000000000000D+00 0.000000000000D+00 0.239176676503D-04 0.000000000000D+00  6 -1 2 25 24 21 21 4 0.40660702D-02 0.17451868D+00 0.14185656D+05 0.14185656D+05 0.14185656D+05 0.12505956D+01  1  2  8  3  6  5       21 -.618784135011D-01 0.100000000000D+01
  </mgrwgt>
  </event>
  <event>
  5     66 0.43535451E-03 0.53953229E+02 0.75467711E-02 0.95068733E-01
       -1 -1    0    0    0  501 0.00000000E+00 0.00000000E+00 0.55863271E+03 0.55863280E+03 0.32000000E+00 0.0000E+00 0.9000E+01
        2 -1    0    0  502    0 0.00000000E+00 0.00000000E+00 -.19377627E+03 0.19377654E+03 0.32000000E+00 0.0000E+00 0.9000E+01
       25  1    1    2    0    0 -.13603217E+03 0.17931554E+03 0.44978587E+02 0.26135586E+03 0.12500000E+03 0.0000E+00 0.9000E+01
       24  1    1    2    0    0 0.18046788E+03 -.20991398E+03 0.17687004E+03 0.33820521E+03 0.80419002E+02 0.0000E+00 0.9000E+01
       21  1    1    2  502  501 -.44435712E+02 0.30598447E+02 0.14300781E+03 0.15284827E+03 0.75000000E+00 0.0000E+00 0.9000E+01
#aMCatNLO 1  0  0  1  5 0.23031991D+02 0.00000000D+00  -5  6  0 0.00000000D+00 0.00000000D+00 0.00000000D+00 0.00000000D+00 0.00000000D+00
  <mgrwgt>
 0.3784945137D+00    3    2    0
 0.329013523992633D+03 0.000000000000000D+00 0.000000000000000D+00 0.329013523992633D+03
 0.329013523992633D+03 0.000000000000000D+00 0.000000000000000D+00 -.329013523992633D+03
 0.273903231953498D+03 -.136031596012306D+03 0.179315144693634D+03 -.934851017243803D+02
 0.288646181764459D+03 0.180468479720368D+03 -.209914398507288D+03 0.147131036689425D+02
 0.954776342673098D+02 -.444368837080619D+02 0.305992538136544D+02 0.787719980554379D+02
 0.000000000000000D+00 0.000000000000000D+00 -.000000000000000D+00 -.000000000000000D+00
 0.755249911193943D+03 0.000000000000000D+00 0.000000000000000D+00 0.755249911193943D+03
 0.978843499351054D+03 0.000000000000000D+00 0.000000000000000D+00 -.978843499351054D+03
 0.642048262761263D+03 -.269241202918286D+03 0.561578740802616D+03 -.934851017243803D+02
 0.145800215088261D+03 0.117285621151539D+03 -.286023498499209D+02 0.147131036689425D+02
 0.189632158169203D+03 -.859012664779602D+02 0.149587098881375D+03 0.787719980554379D+02
 0.756612774526271D+03 0.237856848244707D+03 -.682563489834070D+03 -.223593588157111D+03
0.834583163496D-02 0.000000000000D+00 0.000000000000D+00 0.512791116667D-05 0.000000000000D+00  6 -1 2 25 24 21 21 2 0.85943522D-01 0.29811762D-01 0.89904036D+05 0.89904036D+05 0.89904036D+05 0.11678416D+01  1  2  2  1  6  1       -1 0.322084860767D+00 0.100000000000D+01
0.106899729628D-02 0.440421635278D-03 -.320501909862D-04 0.512791116667D-05 0.000000000000D+00  6 -1 2 25 24 21 21 4 0.85943522D-01 0.29811762D-01 0.89904036D+05 0.89904036D+05 0.89904036D+05 0.11678416D+01  1  2  3  1  6  1       -1 0.562658918017D-01 0.100000000000D+01
0.273132197432D-05 0.000000000000D+00 0.000000000000D+00 0.512791116667D-05 0.000000000000D+00  6 -1 2 25 24 21 21 4 0.85943522D-01 0.29811762D-01 0.89904036D+05 0.89904036D+05 0.89904036D+05 0.11678416D+01  1  2 15  1  6  1       -1 0.143761136924D-03 0.100000000000D+01
  </mgrwgt>
  </event>
  <event>
  5     66 0.43535451E-03 0.35114462E+02 0.75467711E-02 0.12100674E+00
       -1 -1    0    0    0  501 0.00000000E+00 0.00000000E+00 0.14364383E+03 0.14364418E+03 0.32000000E+00 0.0000E+00 0.9000E+01
        2 -1    0    0  502    0 -.00000000E+00 -.00000000E+00 -.20245958E+03 0.20245983E+03 0.32000000E+00 0.0000E+00 0.9000E+01
       25  1    1    2    0    0 0.48940260E+02 0.33529129E+02 0.16217648E+02 0.13931031E+03 0.12500000E+03 0.0000E+00 0.9000E+01
       24  1    1    2    0    0 -.52727153E+02 0.13785085E+01 -.11739998E+03 0.15176305E+03 0.80419002E+02 0.0000E+00 0.9000E+01
       21  1    1    2  502  501 0.37868935E+01 -.34907638E+02 0.42366574E+02 0.55030654E+02 0.75000000E+00 0.0000E+00 0.9000E+01
#aMCatNLO 1  0  0  5  2 0.15102184D+02 0.00000000D+00  -5  6  0 0.00000000D+00 0.00000000D+00 0.00000000D+00 0.00000000D+00 0.00000000D+00
  <mgrwgt>
 0.2258998761D+00    9    2    0
 0.170534965860486D+03 0.000000000000000D+00 0.000000000000000D+00 0.170534965860486D+03
 0.170534965860486D+03 -.000000000000000D+00 -.000000000000000D+00 -.170534965860486D+03
 0.144162905394558D+03 0.489401468904594D+02 0.335301697131931D+02 0.404787973282926D+02
 0.133759064267138D+03 -.527272580407851D+02 0.137947416124143D+01 -.929634585726498D+02
 0.631479620592755D+02 0.378711115032569D+01 -.349096438744346D+02 0.524846612443572D+02
 0.000000000000000D+00 0.000000000000000D+00 0.000000000000000D+00 -.000000000000000D+00
 0.170534965860486D+03 0.000000000000000D+00 0.000000000000000D+00 0.170534965860486D+03
 0.170534965860486D+03 -.000000000000000D+00 -.000000000000000D+00 -.170534965860486D+03
 0.146854428115481D+03 0.498551062439318D+02 0.250960615179374D+02 0.531589986250588D+02
 0.125960146187149D+03 -.519107000783590D+02 -.614756862668335D+01 -.816469784528018D+02
 0.194035901892808D+02 -.149926563217444D+02 0.103341119624427D+02 -.670266354513718D+01
 0.488517672290613D+02 0.170482501561716D+02 -.292826048536968D+02 0.351906433728801D+02
0.349984236831D-03 0.000000000000D+00 0.000000000000D+00 0.143203899321D-04 0.000000000000D+00  6 -1 2 25 24 21 21 2 0.22099097D-01 0.31147675D-01 0.18177913D+05 0.18177913D+05 0.18177913D+05 0.12384196D+01  1  2  2  3  6  5       21 0.170205387717D+00 0.100000000000D+01
0.133494621301D-04 0.184691755895D-04 -.134403162240D-05 0.143203899321D-04 0.000000000000D+00  6 -1 2 25 24 21 21 4 0.22099097D-01 0.31147675D-01 0.18177913D+05 0.18177913D+05 0.18177913D+05 0.12384196D+01  1  2  3  3  6  5       21 0.995690173504D-02 0.100000000000D+01
0.173026735953D-04 0.000000000000D+00 0.000000000000D+00 0.143203899321D-04 0.000000000000D+00  6 -1 2 25 24 21 21 4 0.22099097D-01 0.31147675D-01 0.18177913D+05 0.18177913D+05 0.18177913D+05 0.12384196D+01  1  2 15  3  6  5       21 0.129054653336D-01 0.100000000000D+01
0.800482748119D-04 0.000000000000D+00 0.000000000000D+00 0.141983752004D-04 0.000000000000D+00  6 -1 2 25 24 21 21 4 0.22099097D-01 0.31147675D-01 0.20292513D+05 0.20292513D+05 0.20292513D+05 0.12331324D+01  1  2 12  3  6  5       21 0.588360615576D-01 0.100000000000D+01
-.542817591495D-04 0.000000000000D+00 0.000000000000D+00 0.143203899321D-04 0.000000000000D+00  6 -1 2 25 24 21 21 4 0.22099097D-01 0.31147675D-01 0.18177913D+05 0.18177913D+05 0.18177913D+05 0.12384196D+01  1  2  4  3  6  5       21 -.404868852835D-01 0.100000000000D+01
0.492612327150D-05 0.000000000000D+00 0.000000000000D+00 0.141983752004D-04 0.000000000000D+00  6 -1 2 25 24 1 -1 4 0.22099097D-01 0.31147675D-01 0.20292513D+05 0.20292513D+05 0.20292513D+05 0.12331324D+01  1  2 12  6  6  5       21 0.362073627100D-02 0.100000000000D+01
0.492612327150D-05 0.000000000000D+00 0.000000000000D+00 0.141983752004D-04 0.000000000000D+00  6 -1 2 25 24 2 -2 4 0.22099097D-01 0.31147675D-01 0.20292513D+05 0.20292513D+05 0.20292513D+05 0.12331324D+01  1  2 12  7  6  5       21 0.362073627100D-02 0.100000000000D+01
0.492612327150D-05 0.000000000000D+00 0.000000000000D+00 0.141983752004D-04 0.000000000000D+00  6 -1 2 25 24 3 -3 4 0.22099097D-01 0.31147675D-01 0.20292513D+05 0.20292513D+05 0.20292513D+05 0.12331324D+01  1  2 12  8  6  5       21 0.362073627100D-02 0.100000000000D+01
0.492612327150D-05 0.000000000000D+00 0.000000000000D+00 0.141983752004D-04 0.000000000000D+00  6 -1 2 25 24 4 -4 4 0.22099097D-01 0.31147675D-01 0.20292513D+05 0.20292513D+05 0.20292513D+05 0.12331324D+01  1  2 12  8  6  5       21 0.362073627100D-02 0.100000000000D+01
  </mgrwgt>
  </event>
  <event>
  5     66 0.43535451E-03 0.35858311E+02 0.75467711E-02 0.11325017E+00
       -1 -1    0    0    0  501 0.00000000E+00 0.00000000E+00 0.26075531E+02 0.26077494E+02 0.32000000E+00 0.0000E+00 0.9000E+01
        2 -1    0    0  502    0 -.00000000E+00 -.00000000E+00 -.29396176E+04 0.29396176E+04 0.32000000E+00 0.0000E+00 0.9000E+01
       25  1    1    2    0    0 0.18622924E+03 0.23847447E+02 -.58209522E+03 0.62426747E+03 0.12500000E+03 0.0000E+00 0.9000E+01
       24  1    1    2    0    0 -.15529432E+03 -.41971494E+02 -.19841746E+04 0.19923087E+04 0.80419002E+02 0.0000E+00 0.9000E+01
       21  1    1    2  502  501 -.30934923E+02 0.18124047E+02 -.34727233E+03 0.34911901E+03 0.75000000E+00 0.0000E+00 0.9000E+01
#aMCatNLO 1  0  0  5  2 0.11035585D+02 0.00000000D+00  -5  6  0 0.00000000D+00 0.00000000D+00 0.00000000D+00 0.00000000D+00 0.00000000D+00
  <mgrwgt>
 0.6885734383D+00   20    2    0
 0.276866442099151D+03 0.000000000000000D+00 0.000000000000000D+00 0.276866442099151D+03
 0.276866442099151D+03 -.000000000000000D+00 -.000000000000000D+00 -.276866442099151D+03
 0.280694002713102D+03 0.186231671958044D+03 0.238460225152704D+02 0.167072603167053D+03
 0.230441227762050D+03 -.155292321968964D+03 -.419726634675333D+02 -.144078220967082D+03
 0.425976537231495D+02 -.309393499890797D+02 0.181266409522629D+02 -.229943821999708D+02
 0.000000000000000D+00 -.000000000000000D+00 0.000000000000000D+00 0.000000000000000D+00
 0.276866442099151D+03 0.000000000000000D+00 0.000000000000000D+00 0.276866442099151D+03
 0.276866442099151D+03 -.000000000000000D+00 -.000000000000000D+00 -.276866442099151D+03
 0.277043264815828D+03 0.182758654689853D+03 0.258807820387810D+02 0.164491427852120D+03
 0.233436645936720D+03 -.158180878928454D+03 -.402803255582588D+02 -.146225020520284D+03
 0.119250186023139D+02 0.249374360205544D+01 0.113192200870958D+02 -.280402712765545D+01
 0.313279548434400D+02 -.270715193634543D+02 0.308032343238197D+01 -.154623802041811D+02
0.458107221140D-02 0.000000000000D+00 0.000000000000D+00 0.783079187382D-05 0.000000000000D+00  6 -1 2 25 24 21 21 2 0.40117725D-02 0.45224902D+00 0.48677867D+05 0.48677867D+05 0.48677867D+05 0.11934361D+01  1  2  2  3  6  5       21 0.416138989454D+00 0.100000000000D+01
0.832795067424D-03 0.241749822297D-03 -.175925235158D-04 0.783079187382D-05 0.000000000000D+00  6 -1 2 25 24 21 21 4 0.40117725D-02 0.45224902D+00 0.48677867D+05 0.48677867D+05 0.48677867D+05 0.11934361D+01  1  2  3  3  6  5       21 0.107747638430D+00 0.100000000000D+01
0.171229626302D-03 0.000000000000D+00 0.000000000000D+00 0.783079187382D-05 0.000000000000D+00  6 -1 2 25 24 21 21 4 0.40117725D-02 0.45224902D+00 0.48677867D+05 0.48677867D+05 0.48677867D+05 0.11934361D+01  1  2 15  3  6  5       21 0.221538150080D-01 0.100000000000D+01
0.511453348219D-03 0.000000000000D+00 0.000000000000D+00 0.782449054548D-05 0.000000000000D+00  6 -1 2 25 24 21 21 4 0.40117725D-02 0.45224902D+00 0.49223162D+05 0.49223162D+05 0.49223162D+05 0.11929558D+01  1  2 12  3  6  5       21 0.660435716073D-01 0.100000000000D+01
0.456295931077D-03 0.000000000000D+00 0.000000000000D+00 0.782449054548D-05 0.000000000000D+00  6 -1 2 25 24 21 21 4 0.40117725D-02 0.45224902D+00 0.49223162D+05 0.49223162D+05 0.49223162D+05 0.11929558D+01  1  2 12  3  6  5       21 0.589211373885D-01 0.100000000000D+01
-.329448984306D-02 0.000000000000D+00 0.000000000000D+00 0.783079187382D-05 0.000000000000D+00  6 -1 2 25 24 21 21 4 0.40117725D-02 0.45224902D+00 0.48677867D+05 0.48677867D+05 0.48677867D+05 0.11934361D+01  1  2  4  3  6  5       21 -.426243519333D+00 0.100000000000D+01
-.552780750238D-03 0.000000000000D+00 0.000000000000D+00 0.783079187382D-05 0.000000000000D+00  6 -1 2 25 24 21 21 4 0.40117725D-02 0.45224902D+00 0.48677867D+05 0.48677867D+05 0.48677867D+05 0.11934361D+01  1  2  5  3  6  5       21 -.715191800932D-01 0.100000000000D+01
0.407548150499D-02 0.000000000000D+00 -.000000000000D+00 0.783079187382D-05 0.000000000000D+00  6 -1 2 25 24 21 21 4 0.40117725D-02 0.45224902D+00 0.48677867D+05 0.48677867D+05 0.48677867D+05 0.11934361D+01  1  2  6  3  6  5       21 0.527288795054D+00 0.100000000000D+01
0.574363058399D-04 0.000000000000D+00 0.000000000000D+00 0.782449054548D-05 0.000000000000D+00  6 -1 2 25 24 1 -1 4 0.40117725D-02 0.45224902D+00 0.49223162D+05 0.49223162D+05 0.49223162D+05 0.11929558D+01  1  2 12  6  6  5       21 0.741670533745D-02 0.100000000000D+01
0.532815145809D-04 0.000000000000D+00 0.000000000000D+00 0.782449054548D-05 0.000000000000D+00  6 -1 2 25 24 1 -1 4 0.40117725D-02 0.45224902D+00 0.49223162D+05 0.49223162D+05 0.49223162D+05 0.11929558D+01  1  2 12  6  6  5       21 0.688020038548D-02 0.100000000000D+01
-.133608438218D-03 0.000000000000D+00 0.000000000000D+00 0.783079187382D-05 0.000000000000D+00  6 -1 2 25 24 1 -1 4 0.40117725D-02 0.45224902D+00 0.48677867D+05 0.48677867D+05 0.48677867D+05 0.11934361D+01  1  2  5  6  6  5       21 -.172863580195D-01 0.100000000000D+01
0.574363058399D-04 0.000000000000D+00 0.000000000000D+00 0.782449054548D-05 0.000000000000D+00  6 -1 2 25 24 2 -2 4 0.40117725D-02 0.45224902D+00 0.49223162D+05 0.49223162D+05 0.49223162D+05 0.11929558D+01  1  2 12  7  6  5       21 0.741670533745D-02 0.100000000000D+01
0.532815145809D-04 0.000000000000D+00 0.000000000000D+00 0.782449054548D-05 0.000000000000D+00  6 -1 2 25 24 2 -2 4 0.40117725D-02 0.45224902D+00 0.49223162D+05 0.49223162D+05 0.49223162D+05 0.11929558D+01  1  2 12  7  6  5       21 0.688020038548D-02 0.100000000000D+01
-.133608438218D-03 0.000000000000D+00 0.000000000000D+00 0.783079187382D-05 0.000000000000D+00  6 -1 2 25 24 2 -2 4 0.40117725D-02 0.45224902D+00 0.48677867D+05 0.48677867D+05 0.48677867D+05 0.11934361D+01  1  2  5  7  6  5       21 -.172863580195D-01 0.100000000000D+01
0.574363058399D-04 0.000000000000D+00 0.000000000000D+00 0.782449054548D-05 0.000000000000D+00  6 -1 2 25 24 3 -3 4 0.40117725D-02 0.45224902D+00 0.49223162D+05 0.49223162D+05 0.49223162D+05 0.11929558D+01  1  2 12  8  6  5       21 0.741670533745D-02 0.100000000000D+01
0.574363058399D-04 0.000000000000D+00 0.000000000000D+00 0.782449054548D-05 0.000000000000D+00  6 -1 2 25 24 4 -4 4 0.40117725D-02 0.45224902D+00 0.49223162D+05 0.49223162D+05 0.49223162D+05 0.11929558D+01  1  2 12  8  6  5       21 0.741670533745D-02 0.100000000000D+01
0.532815145809D-04 0.000000000000D+00 0.000000000000D+00 0.782449054548D-05 0.000000000000D+00  6 -1 2 25 24 3 -3 4 0.40117725D-02 0.45224902D+00 0.49223162D+05 0.49223162D+05 0.49223162D+05 0.11929558D+01  1  2 12  8  6  5       21 0.688020038548D-02 0.100000000000D+01
0.532815145809D-04 0.000000000000D+00 0.000000000000D+00 0.782449054548D-05 0.000000000000D+00  6 -1 2 25 24 4 -4 4 0.40117725D-02 0.45224902D+00 0.49223162D+05 0.49223162D+05 0.49223162D+05 0.11929558D+01  1  2 12  8  6  5       21 0.688020038548D-02 0.100000000000D+01
-.133608438218D-03 0.000000000000D+00 0.000000000000D+00 0.783079187382D-05 0.000000000000D+00  6 -1 2 25 24 3 -3 4 0.40117725D-02 0.45224902D+00 0.48677867D+05 0.48677867D+05 0.48677867D+05 0.11934361D+01  1  2  5  8  6  5       21 -.172863580195D-01 0.100000000000D+01
-.133608438218D-03 0.000000000000D+00 0.000000000000D+00 0.783079187382D-05 0.000000000000D+00  6 -1 2 25 24 4 -4 4 0.40117725D-02 0.45224902D+00 0.48677867D+05 0.48677867D+05 0.48677867D+05 0.11934361D+01  1  2  5  8  6  5       21 -.172863580195D-01 0.100000000000D+01
  </mgrwgt>
  </event>
  <event>
  5     66 0.43535451E-03 0.30985036E+02 0.75467711E-02 0.10090753E+00
       -1 -1    0    0    0  501 0.00000000E+00 0.00000000E+00 0.44947137E+03 0.44947149E+03 0.32000000E+00 0.0000E+00 0.9000E+01
        2 -1    0    0  502    0 0.00000000E+00 0.00000000E+00 -.64368588E+02 0.64369383E+02 0.32000000E+00 0.0000E+00 0.9000E+01
       25  1    1    2    0    0 -.11406122E+02 0.49671954E+02 0.82235661E+02 0.15806678E+03 0.12500000E+03 0.0000E+00 0.9000E+01
       24  1    1    2    0    0 -.13156094E+02 -.30784633E+02 0.48846720E+02 0.99869888E+02 0.80419002E+02 0.0000E+00 0.9000E+01
       21  1    1    2  502  501 0.24562216E+02 -.18887321E+02 0.25402040E+03 0.25590420E+03 0.75000000E+00 0.0000E+00 0.9000E+01
#aMCatNLO 1  0  0  1  5 0.26750884D+01 0.00000000D+00  -5  6  0 0.00000000D+00 0.00000000D+00 0.00000000D+00 0.00000000D+00 0.00000000D+00
  <mgrwgt>
 0.2603967937D+00    5    4    0
 0.170094300777947D+03 0.000000000000000D+00 0.000000000000000D+00 0.170094300777947D+03
 0.170094300777947D+03 0.000000000000000D+00 0.000000000000000D+00 -.170094300777947D+03
 0.145660882000399D+03 -.114064238615845D+02 0.496721864279392D+02 -.547234861397929D+02
 0.955538204228803D+02 -.131562917989424D+02 -.307844806762949D+02 -.392752387469438D+02
 0.989738991326148D+02 0.245627156605269D+02 -.188877057516443D+02 0.939987248867367D+02
 0.000000000000000D+00 -.000000000000000D+00 -.000000000000000D+00 0.000000000000000D+00
 0.166809137844177D+04 0.000000000000000D+00 0.000000000000000D+00 0.166809137844177D+04
 0.340458611140955D+03 0.000000000000000D+00 0.000000000000000D+00 -.340458611140955D+03
 0.324316199394090D+03 0.561610523018322D+01 0.294159474802663D+03 -.547234861397929D+02
 0.121631424830596D+03 -.528986106861754D+01 0.821976918361804D+02 -.392752387469438D+02
 0.148359859495568D+03 0.335211229282432D+02 0.109778057674755D+03 0.939987248867367D+02
 0.141424250586248D+04 -.338473670898089D+02 -.486135224313598D+03 0.132763276730082D+04
 0.170094300777947D+03 0.000000000000000D+00 0.000000000000000D+00 0.170094300777947D+03
 0.170094300777947D+03 0.000000000000000D+00 0.000000000000000D+00 -.170094300777947D+03
 0.145660882000399D+03 -.114064238615845D+02 0.496721864279392D+02 -.547234861397929D+02
 0.955538204228803D+02 -.131562917989424D+02 -.307844806762949D+02 -.392752387469438D+02
 0.000000000000000D+00 -.000000000000000D+00 -.000000000000000D+00 0.000000000000000D+00
 0.989738991326148D+02 0.245627156605269D+02 -.188877057516443D+02 0.939987248867367D+02
 0.166809137844177D+04 0.000000000000000D+00 0.000000000000000D+00 0.166809137844177D+04
 0.340458611140955D+03 0.000000000000000D+00 0.000000000000000D+00 -.340458611140955D+03
 0.324316199394090D+03 0.561610523018322D+01 0.294159474802663D+03 -.547234861397929D+02
 0.121631424830596D+03 -.528986106861754D+01 0.821976918361804D+02 -.392752387469438D+02
 0.141424250586248D+04 -.338473670898089D+02 -.486135224313598D+03 0.132763276730082D+04
 0.148359859495568D+03 0.335211229282432D+02 0.109778057674755D+03 0.939987248867367D+02
0.880451661209D-03 0.000000000000D+00 0.000000000000D+00 0.358866318179D-04 0.000000000000D+00  6 -1 2 25 24 21 21 2 0.69149512D-01 0.99029296D-02 0.16012952D+05 0.16012952D+05 0.16012952D+05 0.12446001D+01  1  2  2  1  6  1       -1 0.216098909930D+00 0.100000000000D+01
0.756410737600D-04 0.464627106529D-04 -.338116620729D-05 0.358866318179D-04 0.000000000000D+00  6 -1 2 25 24 21 21 4 0.69149512D-01 0.99029296D-02 0.16012952D+05 0.16012952D+05 0.16012952D+05 0.12446001D+01  1  2  3  1  6  1       -1 0.287583789238D-01 0.100000000000D+01
0.408262730722D-04 0.000000000000D+00 0.000000000000D+00 0.358866318179D-04 0.000000000000D+00  6 -1 2 25 24 21 21 4 0.69149512D-01 0.99029296D-02 0.16012952D+05 0.16012952D+05 0.16012952D+05 0.12446001D+01  1  2 15  1  6  1       -1 0.155219561634D-01 0.100000000000D+01
0.529478255107D-03 0.000000000000D+00 -.951432997775D-03 0.358866318179D-04 0.000000000000D+00  6 -1 2 25 24 21 21 4 0.74729483D+00 0.99029296D-02 0.16012952D+05 0.16012952D+05 0.16012952D+05 0.12446001D+01  1  2  5  1  6  1       -1 0.181360065338D-04 0.100000000000D+01
-.155352522629D-04 0.000000000000D+00 -.267110762284D-03 0.358866318179D-04 0.000000000000D+00  6 21 2 25 24 1 21 4 0.74729483D+00 0.99029296D-02 0.16012952D+05 0.16012952D+05 0.16012952D+05 0.12446001D+01  3  4  5  4  5  1       -1 -.587333405407D-06 0.100000000000D+01
  </mgrwgt>
  </event>
  <event>
  5     66 -.43535451E-03 0.21597463E+02 0.75467711E-02 0.11714449E+00
       -1 -1    0    0    0  501 0.00000000E+00 0.00000000E+00 0.65849723E+02 0.65850500E+02 0.32000000E+00 0.0000E+00 0.9000E+01
        2 -1    0    0  502    0 -.00000000E+00 -.00000000E+00 -.64685683E+03 0.64685691E+03 0.32000000E+00 0.0000E+00 0.9000E+01
       25  1    1    2    0    0 -.89139743E+00 -.13884719E+03 -.11875615E+03 0.22137606E+03 0.12500000E+03 0.0000E+00 0.9000E+01
       24  1    1    2    0    0 -.83552116E+01 0.11934127E+03 -.41645289E+03 0.44069533E+03 0.80419002E+02 0.0000E+00 0.9000E+01
       21  1    1    2  502  501 0.92466090E+01 0.19505917E+02 -.45798064E+02 0.50636013E+02 0.75000000E+00 0.0000E+00 0.9000E+01
#aMCatNLO 1  0  0  5  1 0.58116815D+01 0.00000000D+00  -5  6  0 0.00000000D+00 0.00000000D+00 0.00000000D+00 0.00000000D+00 0.00000000D+00
  <mgrwgt>
 -.3315308996D+00   20    2    0
 0.206387131054534D+03 0.000000000000000D+00 0.000000000000000D+00 0.206387131054534D+03
 0.206387131054534D+03 -.000000000000000D+00 -.000000000000000D+00 -.206387131054534D+03
 0.215081446934585D+03 -.893968743952240D+00 -.138852615457307D+03 0.106555998498559D+03
 0.174727770667668D+03 -.835730053079440D+01 0.119336867309767D+03 -.987494076774722D+02
 0.229650445068141D+02 0.925126927474662D+01 0.195157481475400D+02 -.780659082108649D+01
 0.000000000000000D+00 0.000000000000000D+00 0.000000000000000D+00 -.000000000000000D+00
 0.206387131054534D+03 0.000000000000000D+00 0.000000000000000D+00 0.206387131054534D+03
 0.206387131054534D+03 -.000000000000000D+00 -.000000000000000D+00 -.206387131054534D+03
 0.213840460896426D+03 -.196480809997197D+00 -.137381249912671D+03 0.105967430298745D+03
 0.175796052492149D+03 -.778729901594036D+01 0.120539297557687D+03 -.992303977407505D+02
 0.930019393851967D+01 0.302881813244565D+01 0.828577352155440D+01 0.294377736321114D+01
 0.138375547819730D+02 0.495496169349189D+01 0.855617883342939D+01 -.968080992120535D+01
0.473433706351D-03 0.000000000000D+00 0.000000000000D+00 0.271271291805D-04 0.000000000000D+00  6 -1 2 25 24 21 21 2 0.10130792D-01 0.99516501D-01 0.31077371D+05 0.31077371D+05 0.31077371D+05 0.12132935D+01  1  2  2  3  6  5       21 0.215668790114D+00 0.100000000000D+01
0.142428569609D-03 0.249837830748D-04 -.181811009035D-05 0.271271291805D-04 0.000000000000D+00  6 -1 2 25 24 21 21 4 0.10130792D-01 0.99516501D-01 0.31077371D+05 0.31077371D+05 0.31077371D+05 0.12132935D+01  1  2  3  3  6  5       21 0.955117856372D-01 0.100000000000D+01
0.148753175875D-04 0.000000000000D+00 0.000000000000D+00 0.271271291805D-04 0.000000000000D+00  6 -1 2 25 24 21 21 4 0.10130792D-01 0.99516501D-01 0.31077371D+05 0.31077371D+05 0.31077371D+05 0.12132935D+01  1  2 15  3  6  5       21 0.997530304913D-02 0.100000000000D+01
0.744393208352D-04 0.000000000000D+00 0.000000000000D+00 0.271620496326D-04 0.000000000000D+00  6 -1 2 25 24 21 21 4 0.10130792D-01 0.99516501D-01 0.30548010D+05 0.30548010D+05 0.30548010D+05 0.12140742D+01  1  2 12  3  6  5       21 0.500348769536D-01 0.100000000000D+01
0.734014574959D-04 0.000000000000D+00 0.000000000000D+00 0.271620496326D-04 0.000000000000D+00  6 -1 2 25 24 21 21 4 0.10130792D-01 0.99516501D-01 0.30548010D+05 0.30548010D+05 0.30548010D+05 0.12140742D+01  1  2 12  3  6  5       21 0.493372703138D-01 0.100000000000D+01
-.184765748789D-02 0.000000000000D+00 0.000000000000D+00 0.271271291805D-04 0.000000000000D+00  6 -1 2 25 24 21 21 4 0.10130792D-01 0.99516501D-01 0.31077371D+05 0.31077371D+05 0.31077371D+05 0.12132935D+01  1  2  4  3  6  5       21 -.123902856287D+01 0.100000000000D+01
-.230325541491D-03 0.000000000000D+00 0.000000000000D+00 0.271271291805D-04 0.000000000000D+00  6 -1 2 25 24 21 21 4 0.10130792D-01 0.99516501D-01 0.31077371D+05 0.31077371D+05 0.31077371D+05 0.12132935D+01  1  2  5  3  6  5       21 -.154454993167D+00 0.100000000000D+01
0.920065615202D-03 0.000000000000D+00 -.000000000000D+00 0.271271291805D-04 0.000000000000D+00  6 -1 2 25 24 21 21 4 0.10130792D-01 0.99516501D-01 0.31077371D+05 0.31077371D+05 0.31077371D+05 0.12132935D+01  1  2  6  3  6  5       21 0.616990748786D+00 0.100000000000D+01
0.536467007660D-05 0.000000000000D+00 0.000000000000D+00 0.271620496326D-04 0.000000000000D+00  6 -1 2 25 24 1 -1 4 0.10130792D-01 0.99516501D-01 0.30548010D+05 0.30548010D+05 0.30548010D+05 0.12140742D+01  1  2 12  6  6  5       21 0.360589812169D-02 0.100000000000D+01
0.529473012092D-05 0.000000000000D+00 0.000000000000D+00 0.271620496326D-04 0.000000000000D+00  6 -1 2 25 24 1 -1 4 0.10130792D-01 0.99516501D-01 0.30548010D+05 0.30548010D+05 0.30548010D+05 0.12140742D+01  1  2 12  6  6  5       21 0.355888752248D-02 0.100000000000D+01
-.157519271794D-05 0.000000000000D+00 0.000000000000D+00 0.271271291805D-04 0.000000000000D+00  6 -1 2 25 24 1 -1 4 0.10130792D-01 0.99516501D-01 0.31077371D+05 0.31077371D+05 0.31077371D+05 0.12132935D+01  1  2  5  6  6  5       21 -.105631524368D-02 0.100000000000D+01
0.536467007660D-05 0.000000000000D+00 0.000000000000D+00 0.271620496326D-04 0.000000000000D+00  6 -1 2 25 24 2 -2 4 0.10130792D-01 0.99516501D-01 0.30548010D+05 0.30548010D+05 0.30548010D+05 0.12140742D+01  1  2 12  7  6  5       21 0.360589812169D-02 0.100000000000D+01
0.529473012092D-05 0.000000000000D+00 0.000000000000D+00 0.271620496326D-04 0.000000000000D+00  6 -1 2 25 24 2 -2 4 0.10130792D-01 0.99516501D-01 0.30548010D+05 0.30548010D+05 0.30548010D+05 0.12140742D+01  1  2 12  7  6  5       21 0.355888752248D-02 0.100000000000D+01
-.157519271794D-05 0.000000000000D+00 0.000000000000D+00 0.271271291805D-04 0.000000000000D+00  6 -1 2 25 24 2 -2 4 0.10130792D-01 0.99516501D-01 0.31077371D+05 0.31077371D+05 0.31077371D+05 0.12132935D+01  1  2  5  7  6  5       21 -.105631524368D-02 0.100000000000D+01
0.536467007660D-05 0.000000000000D+00 0.000000000000D+00 0.271620496326D-04 0.000000000000D+00  6 -1 2 25 24 3 -3 4 0.10130792D-01 0.99516501D-01 0.30548010D+05 0.30548010D+05 0.30548010D+05 0.12140742D+01  1  2 12  8  6  5       21 0.360589812169D-02 0.100000000000D+01
0.536467007660D-05 0.000000000000D+00 0.000000000000D+00 0.271620496326D-04 0.000000000000D+00  6 -1 2 25 24 4 -4 4 0.10130792D-01 0.99516501D-01 0.30548010D+05 0.30548010D+05 0.30548010D+05 0.12140742D+01  1  2 12  8  6  5       21 0.360589812169D-02 0.100000000000D+01
0.529473012092D-05 0.000000000000D+00 0.000000000000D+00 0.271620496326D-04 0.000000000000D+00  6 -1 2 25 24 3 -3 4 0.10130792D-01 0.99516501D-01 0.30548010D+05 0.30548010D+05 0.30548010D+05 0.12140742D+01  1  2 12  8  6  5       21 0.355888752248D-02 0.100000000000D+01
0.529473012092D-05 0.000000000000D+00 0.000000000000D+00 0.271620496326D-04 0.000000000000D+00  6 -1 2 25 24 4 -4 4 0.10130792D-01 0.99516501D-01 0.30548010D+05 0.30548010D+05 0.30548010D+05 0.12140742D+01  1  2 12  8  6  5       21 0.355888752248D-02 0.100000000000D+01
-.157519271794D-05 0.000000000000D+00 0.000000000000D+00 0.271271291805D-04 0.000000000000D+00  6 -1 2 25 24 3 -3 4 0.10130792D-01 0.99516501D-01 0.31077371D+05 0.31077371D+05 0.31077371D+05 0.12132935D+01  1  2  5  8  6  5       21 -.105631524368D-02 0.100000000000D+01
-.157519271794D-05 0.000000000000D+00 0.000000000000D+00 0.271271291805D-04 0.000000000000D+00  6 -1 2 25 24 4 -4 4 0.10130792D-01 0.99516501D-01 0.31077371D+05 0.31077371D+05 0.31077371D+05 0.12132935D+01  1  2  5  8  6  5       21 -.105631524368D-02 0.100000000000D+01
  </mgrwgt>
  </event>
  <event>
  5     66 -.43535451E-03 0.27339585E+02 0.75467711E-02 0.12231609E+00
       -1 -1    0    0    0  501 0.00000000E+00 0.00000000E+00 0.22778118E+02 0.22780366E+02 0.32000000E+00 0.0000E+00 0.9000E+01
        2 -1    0    0  502    0 0.00000000E+00 0.00000000E+00 -.82927713E+03 0.82927719E+03 0.32000000E+00 0.0000E+00 0.9000E+01
       25  1    1    2    0    0 0.28112150E+02 0.20081581E+02 -.49123459E+03 0.50806494E+03 0.12500000E+03 0.0000E+00 0.9000E+01
       24  1    1    2    0    0 -.54270111E+02 -.12142626E+02 -.29250643E+03 0.30841517E+03 0.80419002E+02 0.0000E+00 0.9000E+01
       21  1    1    2  502  501 0.26157961E+02 -.79389553E+01 -.22757986E+02 0.35577442E+02 0.75000000E+00 0.0000E+00 0.9000E+01
#aMCatNLO 1  0  0  1  2 0.10900009D+02 0.00000000D+00  -5  6  0 0.00000000D+00 0.00000000D+00 0.00000000D+00 0.00000000D+00 0.00000000D+00
  <mgrwgt>
 -.6895275169D+00    7    4    0
 0.137442192676757D+03 0.000000000000000D+00 0.000000000000000D+00 0.137442192676757D+03
 0.137442192676757D+03 0.000000000000000D+00 0.000000000000000D+00 -.137442192676757D+03
 0.133585025623229D+03 0.281102606299118D+02 0.200821543628781D+02 -.320387171126237D+02
 0.977921453354977D+02 -.542714941054396D+02 -.121422059537254D+02 -.180540773487153D+01
 0.435072143947866D+02 0.261612334755278D+02 -.793994840915270D+01 0.338441248474952D+02
 0.000000000000000D+00 -.000000000000000D+00 -.000000000000000D+00 0.000000000000000D+00
 0.166629154292712D+03 0.000000000000000D+00 0.000000000000000D+00 0.166629154292712D+03
 0.138571649969881D+03 0.000000000000000D+00 0.000000000000000D+00 -.138571649969881D+03
 0.134642597486992D+03 0.288974036851742D+02 0.253394894202223D+02 -.320387171126237D+02
 0.970741731384965D+02 -.536996377562957D+02 -.832277260927834D+01 -.180540773487153D+01
 0.433836392351744D+02 0.264162241107486D+02 -.623686382131497D+01 0.338441248474952D+02
 0.301003944019296D+02 -.161399003962708D+01 -.107798529896290D+02 0.280575043228311D+02
 0.137442192676757D+03 0.000000000000000D+00 0.000000000000000D+00 0.137442192676757D+03
 0.137442192676757D+03 0.000000000000000D+00 0.000000000000000D+00 -.137442192676757D+03
 0.133585025623229D+03 0.281102606299118D+02 0.200821543628781D+02 -.320387171126237D+02
 0.977921453354977D+02 -.542714941054396D+02 -.121422059537254D+02 -.180540773487153D+01
 0.000000000000000D+00 -.000000000000000D+00 -.000000000000000D+00 0.000000000000000D+00
 0.435072143947866D+02 0.261612334755278D+02 -.793994840915270D+01 0.338441248474952D+02
 0.166629154292712D+03 0.000000000000000D+00 0.000000000000000D+00 0.166629154292712D+03
 0.138571649969881D+03 0.000000000000000D+00 0.000000000000000D+00 -.138571649969881D+03
 0.134642597486992D+03 0.288974036851742D+02 0.253394894202223D+02 -.320387171126237D+02
 0.970741731384965D+02 -.536996377562957D+02 -.832277260927834D+01 -.180540773487153D+01
 0.301003944019296D+02 -.161399003962708D+01 -.107798529896290D+02 0.280575043228311D+02
 0.433836392351744D+02 0.264162241107486D+02 -.623686382131497D+01 0.338441248474952D+02
0.290704330716D-04 0.000000000000D+00 0.000000000000D+00 0.338002232742D-04 0.000000000000D+00  6 -1 2 25 24 21 21 2 0.35045035D-02 0.12758127D+00 0.16230906D+05 0.16230906D+05 0.16230906D+05 0.12439366D+01  1  2  2  1  6  1       -1 0.496198339290D-01 0.100000000000D+01
0.272516715966D-05 0.153408889990D-05 -.111638117416D-06 0.338002232742D-04 0.000000000000D+00  6 -1 2 25 24 21 21 4 0.35045035D-02 0.12758127D+00 0.16230906D+05 0.16230906D+05 0.16230906D+05 0.12439366D+01  1  2  3  1  6  1       -1 0.719769545546D-02 0.100000000000D+01
0.105440904227D-05 0.000000000000D+00 0.000000000000D+00 0.338002232742D-04 0.000000000000D+00  6 -1 2 25 24 21 21 4 0.35045035D-02 0.12758127D+00 0.16230906D+05 0.16230906D+05 0.16230906D+05 0.12439366D+01  1  2 15  1  6  1       -1 0.278489895375D-02 0.100000000000D+01
-.225102962680D-03 0.000000000000D+00 0.000000000000D+00 0.338002232742D-04 0.000000000000D+00  6 -1 2 25 24 21 21 4 0.35045035D-02 0.12758127D+00 0.16230906D+05 0.16230906D+05 0.16230906D+05 0.12439366D+01  1  2  4  1  6  1       -1 -.594540619552D+00 0.100000000000D+01
-.462569105315D-03 0.000000000000D+00 -.314949055027D-04 0.338002232742D-04 0.000000000000D+00  6 -1 2 25 24 21 21 4 0.42809557D-02 0.12758127D+00 0.16230906D+05 0.16230906D+05 0.16230906D+05 0.12439366D+01  1  2  5  1  6  1       -1 -.911391830654D+00 0.100000000000D+01
0.460245009141D-03 0.000000000000D+00 0.308745609400D-04 0.338002232742D-04 0.000000000000D+00  6 -1 2 25 24 21 21 4 0.35045035D-02 0.12758127D+00 0.16230906D+05 0.16230906D+05 0.16230906D+05 0.12439366D+01  1  2  6  1  6  1       -1 0.121559640808D+01 0.100000000000D+01
-.128806111519D-04 0.000000000000D+00 -.901724306211D-06 0.338002232742D-04 0.000000000000D+00  6 21 2 25 24 1 21 4 0.42809557D-02 0.12758127D+00 0.16230906D+05 0.16230906D+05 0.16230906D+05 0.12439366D+01  3  4  5  4  5  1       -1 -.458793903094D+00 0.100000000000D+01
  </mgrwgt>
  </event>
  <event>
  5     66 -.43535451E-03 0.44543218E+02 0.75467711E-02 0.11651468E+00
       -1 -1    0    0    0  501 0.00000000E+00 0.00000000E+00 0.79482078E+02 0.79482722E+02 0.32000000E+00 0.0000E+00 0.9000E+01
        2 -1    0    0  502    0 0.00000000E+00 0.00000000E+00 -.41520880E+03 0.41520893E+03 0.32000000E+00 0.0000E+00 0.9000E+01
       25  1    1    2    0    0 -.17974427E+02 -.91145706E+02 -.10774167E+03 0.18937763E+03 0.12500000E+03 0.0000E+00 0.9000E+01
       24  1    1    2    0    0 0.14840100E+02 0.13557298E+03 -.18346320E+03 0.24233494E+03 0.80419002E+02 0.0000E+00 0.9000E+01
       21  1    1    2  502  501 0.31343276E+01 -.44427270E+02 -.44521853E+02 0.62979078E+02 0.75000000E+00 0.0000E+00 0.9000E+01
#aMCatNLO 1  0  0  1  5 0.68653996D+01 0.00000000D+00  -5  6  0 0.00000000D+00 0.00000000D+00 0.00000000D+00 0.00000000D+00 0.00000000D+00
  <mgrwgt>
 -.5916019195D-01   11    4    0
 0.181664108340826D+03 0.000000000000000D+00 0.000000000000000D+00 0.181664108340826D+03
 0.181664108340826D+03 0.000000000000000D+00 0.000000000000000D+00 -.181664108340826D+03
 0.158289990121555D+03 -.179746204449448D+02 -.911429694515047D+02 0.282947541446142D+02
 0.160429066388655D+03 0.148399041629501D+02 0.135575748630494D+03 -.258701181999694D+02
 0.446091601714434D+02 0.313471628199466D+01 -.444327791789893D+02 -.242463594464478D+01
 0.000000000000000D+00 -.000000000000000D+00 -.000000000000000D+00 0.000000000000000D+00
 0.225094934181145D+03 0.000000000000000D+00 0.000000000000000D+00 0.225094934181145D+03
 0.181968054945050D+03 0.000000000000000D+00 0.000000000000000D+00 -.181968054945050D+03
 0.157329214094348D+03 -.152327524510105D+02 -.899713940550392D+02 0.282947541446142D+02
 0.161722165663119D+03 0.176385176204665D+02 0.136771570850345D+03 -.258701181999694D+02
 0.443416949554268D+02 0.390745602484823D+01 -.441025944754947D+02 -.242463594464478D+01
 0.436699144133014D+02 -.631322119430422D+01 -.269758231981069D+01 0.431268792360948D+02
 0.181664108340826D+03 0.000000000000000D+00 0.000000000000000D+00 0.181664108340826D+03
 0.181664108340826D+03 0.000000000000000D+00 0.000000000000000D+00 -.181664108340826D+03
 0.158289990121555D+03 -.179746204449448D+02 -.911429694515047D+02 0.282947541446142D+02
 0.160429066388655D+03 0.148399041629501D+02 0.135575748630494D+03 -.258701181999694D+02
 0.000000000000000D+00 -.000000000000000D+00 -.000000000000000D+00 0.000000000000000D+00
 0.446091601714434D+02 0.313471628199466D+01 -.444327791789893D+02 -.242463594464478D+01
 0.225094934181145D+03 0.000000000000000D+00 0.000000000000000D+00 0.225094934181145D+03
 0.181968054945050D+03 0.000000000000000D+00 0.000000000000000D+00 -.181968054945050D+03
 0.157329214094348D+03 -.152327524510105D+02 -.899713940550392D+02 0.282947541446142D+02
 0.161722165663119D+03 0.176385176204665D+02 0.136771570850345D+03 -.258701181999694D+02
 0.436699144133014D+02 -.631322119430422D+01 -.269758231981069D+01 0.431268792360948D+02
 0.443416949554268D+02 0.390745602484823D+01 -.441025944754947D+02 -.242463594464478D+01
0.158853243703D-04 0.000000000000D+00 0.000000000000D+00 0.913481067302D-05 0.000000000000D+00  6 -1 2 25 24 21 21 2 0.12228071D-01 0.63878337D-01 0.32150870D+05 0.32150870D+05 0.32150870D+05 0.12117549D+01  1  2  2  1  6  1       -1 0.886944038734D-02 0.100000000000D+01
0.152738830629D-05 0.838291597779D-06 -.610038282837D-07 0.913481067302D-05 0.000000000000D+00  6 -1 2 25 24 21 21 4 0.12228071D-01 0.63878337D-01 0.32150870D+05 0.32150870D+05 0.32150870D+05 0.12117549D+01  1  2  3  1  6  1       -1 0.125221575344D-02 0.100000000000D+01
0.427534618874D-06 0.000000000000D+00 0.000000000000D+00 0.913481067302D-05 0.000000000000D+00  6 -1 2 25 24 21 21 4 0.12228071D-01 0.63878337D-01 0.32150870D+05 0.32150870D+05 0.32150870D+05 0.12117549D+01  1  2 15  1  6  1       -1 0.350510464620D-03 0.100000000000D+01
0.959926953366D-03 0.000000000000D+00 0.000000000000D+00 0.910878562462D-05 0.000000000000D+00  6 -1 2 25 24 21 21 4 0.15235725D-01 0.63878337D-01 0.33405661D+05 0.33405661D+05 0.33405661D+05 0.12100275D+01  1  2 12  1  6  1       -1 0.554702884362D+00 0.100000000000D+01
-.107619773458D-02 0.000000000000D+00 0.000000000000D+00 0.913481067302D-05 0.000000000000D+00  6 -1 2 25 24 21 21 4 0.12228071D-01 0.63878337D-01 0.32150870D+05 0.32150870D+05 0.32150870D+05 0.12117549D+01  1  2  4  1  6  1       -1 -.882311165733D+00 0.100000000000D+01
-.108076950428D-02 0.000000000000D+00 -.160274272219D-04 0.913481067302D-05 0.000000000000D+00  6 -1 2 25 24 21 21 4 0.15164741D-01 0.63878337D-01 0.32150870D+05 0.32150870D+05 0.32150870D+05 0.12117549D+01  1  2  5  1  6  1       -1 -.632378112839D+00 0.100000000000D+01
0.105993628669D-02 0.000000000000D+00 0.156632038415D-04 0.913481067302D-05 0.000000000000D+00  6 -1 2 25 24 21 21 4 0.12228071D-01 0.63878337D-01 0.32150870D+05 0.32150870D+05 0.32150870D+05 0.12117549D+01  1  2  6  1  6  1       -1 0.868979361940D+00 0.100000000000D+01
0.593092727007D-04 0.000000000000D+00 0.000000000000D+00 0.913481067302D-05 0.799502201160D-06  6 -1 2 25 24 21 21 4 0.15151462D-01 0.63985213D-01 0.33405661D+05 0.33405661D+05 0.33405661D+05 0.12100275D+01  1  2 11  1  6  1       -1 0.345115241226D-01 0.100000000000D+01
0.295250870914D-04 0.000000000000D+00 0.000000000000D+00 0.910878562462D-05 0.000000000000D+00  6 21 2 25 24 1 21 4 0.15235725D-01 0.63878337D-01 0.33405661D+05 0.33405661D+05 0.33405661D+05 0.12100275D+01  3  4 12  4  5  1       -1 0.230831311412D+00 0.100000000000D+01
-.324982129468D-04 0.000000000000D+00 -.485039976093D-06 0.913481067302D-05 0.000000000000D+00  6 21 2 25 24 1 21 4 0.15164741D-01 0.63878337D-01 0.32150870D+05 0.32150870D+05 0.32150870D+05 0.12117549D+01  3  4  5  4  5  1       -1 -.257756787821D+00 0.100000000000D+01
0.174911979135D-05 0.000000000000D+00 0.000000000000D+00 0.913481067302D-05 0.471255623835D-07  6 21 2 25 24 1 21 4 0.15151462D-01 0.63985213D-01 0.33405661D+05 0.33405661D+05 0.33405661D+05 0.12100275D+01  3  4 11  4  5  1       -1 0.137886260034D-01 0.100000000000D+01
  </mgrwgt>
  </event>
  <event>
  5     66 -.43535451E-03 0.28092847E+02 0.75467711E-02 0.12410213E+00
       -1 -1    0    0    0  501 0.00000000E+00 0.00000000E+00 0.84187136E+02 0.84187744E+02 0.32000000E+00 0.0000E+00 0.9000E+01
        2 -1    0    0  502    0 -.00000000E+00 -.00000000E+00 -.28385591E+03 0.28385609E+03 0.32000000E+00 0.0000E+00 0.9000E+01
       25  1    1    2    0    0 0.10043899E+02 -.16106363E+01 -.46490433E+02 0.13375289E+03 0.12500000E+03 0.0000E+00 0.9000E+01
       24  1    1    2    0    0 -.37647331E+02 0.68215726E+01 -.17655086E+03 0.19774043E+03 0.80419002E+02 0.0000E+00 0.9000E+01
       21  1    1    2  502  501 0.27603431E+02 -.52109364E+01 0.23372520E+02 0.36550519E+02 0.75000000E+00 0.0000E+00 0.9000E+01
#aMCatNLO 1  0  0  5  2 0.12552480D+01 0.00000000D+00  -5  6  0 0.00000000D+00 0.00000000D+00 0.00000000D+00 0.00000000D+00 0.00000000D+00
  <mgrwgt>
 -.5879436720D+00   25    2    0
 0.154587066920223D+03 0.000000000000000D+00 0.000000000000000D+00 0.154587066920223D+03
 0.154587066920223D+03 -.000000000000000D+00 -.000000000000000D+00 -.154587066920223D+03
 0.129196070089954D+03 0.100429544103252D+02 -.161045792684049D+01 0.310349805649408D+02
 0.121374602625665D+03 -.376482180434888D+02 0.682174018416759D+01 -.824660763415917D+02
 0.586034611248263D+02 0.276052636331636D+02 -.521128225732709D+01 0.514310957766508D+02
 0.000000000000000D+00 0.000000000000000D+00 0.000000000000000D+00 0.000000000000000D+00
 0.154587066920223D+03 0.000000000000000D+00 0.000000000000000D+00 0.154587066920223D+03
 0.154587066920223D+03 -.000000000000000D+00 -.000000000000000D+00 -.154587066920223D+03
 0.129202838682805D+03 0.100557775636624D+02 -.161287866342020D+01 0.310588712560862D+02
 0.121355491817346D+03 -.376361724615806D+02 0.681946623641214D+01 -.824436343361453D+02
 0.415254322628144D+02 0.206472783146884D+02 -.381281533593391D+01 0.358261616981705D+02
 0.170903710774798D+02 0.693311658322979D+01 -.139377223705802D+01 0.155586013818886D+02
0.143025736265D-04 0.000000000000D+00 0.000000000000D+00 0.252894402656D-04 0.000000000000D+00  6 -1 2 25 24 21 21 2 0.12951928D-01 0.43670201D-01 0.14709194D+05 0.14709194D+05 0.14709194D+05 0.12487930D+01  1  2  2  3  6  5       21 0.114157033296D-01 0.100000000000D+01
0.863409420722D-06 0.754767546338D-06 -.549256486799D-07 0.252894402656D-04 0.000000000000D+00  6 -1 2 25 24 21 21 4 0.12951928D-01 0.43670201D-01 0.14709194D+05 0.14709194D+05 0.14709194D+05 0.12487930D+01  1  2  3  3  6  5       21 0.107469731021D-02 0.100000000000D+01
0.476015145534D-06 0.000000000000D+00 0.000000000000D+00 0.252894402656D-04 0.000000000000D+00  6 -1 2 25 24 21 21 4 0.12951928D-01 0.43670201D-01 0.14709194D+05 0.14709194D+05 0.14709194D+05 0.12487930D+01  1  2 15  3  6  5       21 0.592502449300D-03 0.100000000000D+01
0.698307476780D-07 0.000000000000D+00 0.000000000000D+00 0.252899185641D-04 0.000000000000D+00  6 -1 2 25 24 21 21 4 0.12951928D-01 0.43670201D-01 0.14705695D+05 0.14705695D+05 0.14705695D+05 0.12488048D+01  1  2 12  3  6  5       21 0.869219528642D-04 0.100000000000D+01
0.701873824234D-07 0.000000000000D+00 0.000000000000D+00 0.252899185641D-04 0.000000000000D+00  6 -1 2 25 24 21 21 4 0.12951928D-01 0.43670201D-01 0.14705695D+05 0.14705695D+05 0.14705695D+05 0.12488048D+01  1  2 12  3  6  5       21 0.873658746260D-04 0.100000000000D+01
-.425436220767D-02 0.000000000000D+00 0.000000000000D+00 0.252894402656D-04 0.000000000000D+00  6 -1 2 25 24 21 21 4 0.12951928D-01 0.43670201D-01 0.14709194D+05 0.14709194D+05 0.14709194D+05 0.12487930D+01  1  2  4  3  6  5       21 -.529546181860D+01 0.100000000000D+01
-.251874934230D-02 0.000000000000D+00 0.000000000000D+00 0.252894402656D-04 0.000000000000D+00  6 -1 2 25 24 21 21 4 0.12951928D-01 0.43670201D-01 0.14709194D+05 0.14709194D+05 0.14709194D+05 0.12487930D+01  1  2  5  3  6  5       21 -.313512115840D+01 0.100000000000D+01
0.335582261267D-02 0.000000000000D+00 -.000000000000D+00 0.252894402656D-04 0.000000000000D+00  6 -1 2 25 24 21 21 4 0.12951928D-01 0.43670201D-01 0.14709194D+05 0.14709194D+05 0.14709194D+05 0.12487930D+01  1  2  6  3  6  5       21 0.417703750832D+01 0.100000000000D+01
0.291927050478D-02 0.000000000000D+00 0.000000000000D+00 0.252894402656D-04 0.116450975347D-03  6 -1 2 25 24 21 21 4 0.12951928D-01 0.43670201D-01 0.14705695D+05 0.14705695D+05 0.14705695D+05 0.12488048D+01  1  2 11  3  6  5       21 0.363376738259D+01 0.100000000000D+01
0.446425691136D-09 0.000000000000D+00 0.000000000000D+00 0.252899185641D-04 0.000000000000D+00  6 -1 2 25 24 1 -1 4 0.12951928D-01 0.43670201D-01 0.14705695D+05 0.14705695D+05 0.14705695D+05 0.12488048D+01  1  2 12  6  6  5       21 0.555689208159D-06 0.100000000000D+01
0.450109938816D-09 0.000000000000D+00 0.000000000000D+00 0.252899185641D-04 0.000000000000D+00  6 -1 2 25 24 1 -1 4 0.12951928D-01 0.43670201D-01 0.14705695D+05 0.14705695D+05 0.14705695D+05 0.12488048D+01  1  2 12  6  6  5       21 0.560275182301D-06 0.100000000000D+01
-.161384118371D-04 0.000000000000D+00 0.000000000000D+00 0.252894402656D-04 0.000000000000D+00  6 -1 2 25 24 1 -1 4 0.12951928D-01 0.43670201D-01 0.14709194D+05 0.14709194D+05 0.14709194D+05 0.12487930D+01  1  2  5  6  6  5       21 -.200876981142D-01 0.100000000000D+01
0.196581242006D-04 0.000000000000D+00 0.000000000000D+00 0.252894402656D-04 0.134866806252D-05  6 -1 2 25 24 1 -1 4 0.12951928D-01 0.43670201D-01 0.14705695D+05 0.14705695D+05 0.14705695D+05 0.12488048D+01  1  2 11  6  6  5       21 0.244694866084D-01 0.100000000000D+01
0.446425691136D-09 0.000000000000D+00 0.000000000000D+00 0.252899185641D-04 0.000000000000D+00  6 -1 2 25 24 2 -2 4 0.12951928D-01 0.43670201D-01 0.14705695D+05 0.14705695D+05 0.14705695D+05 0.12488048D+01  1  2 12  7  6  5       21 0.555689208159D-06 0.100000000000D+01
0.450109938816D-09 0.000000000000D+00 0.000000000000D+00 0.252899185641D-04 0.000000000000D+00  6 -1 2 25 24 2 -2 4 0.12951928D-01 0.43670201D-01 0.14705695D+05 0.14705695D+05 0.14705695D+05 0.12488048D+01  1  2 12  7  6  5       21 0.560275182301D-06 0.100000000000D+01
-.161384118371D-04 0.000000000000D+00 0.000000000000D+00 0.252894402656D-04 0.000000000000D+00  6 -1 2 25 24 2 -2 4 0.12951928D-01 0.43670201D-01 0.14709194D+05 0.14709194D+05 0.14709194D+05 0.12487930D+01  1  2  5  7  6  5       21 -.200876981142D-01 0.100000000000D+01
0.199459557063D-04 0.000000000000D+00 0.000000000000D+00 0.252894402656D-04 0.136562918880D-05  6 -1 2 25 24 2 -2 4 0.12951928D-01 0.43670201D-01 0.14705695D+05 0.14705695D+05 0.14705695D+05 0.12488048D+01  1  2 11  7  6  5       21 0.248277654097D-01 0.100000000000D+01
0.446425691136D-09 0.000000000000D+00 0.000000000000D+00 0.252899185641D-04 0.000000000000D+00  6 -1 2 25 24 3 -3 4 0.12951928D-01 0.43670201D-01 0.14705695D+05 0.14705695D+05 0.14705695D+05 0.12488048D+01  1  2 12  8  6  5       21 0.555689208159D-06 0.100000000000D+01
0.446425691136D-09 0.000000000000D+00 0.000000000000D+00 0.252899185641D-04 0.000000000000D+00  6 -1 2 25 24 4 -4 4 0.12951928D-01 0.43670201D-01 0.14705695D+05 0.14705695D+05 0.14705695D+05 0.12488048D+01  1  2 12  8  6  5       21 0.555689208159D-06 0.100000000000D+01
0.450109938816D-09 0.000000000000D+00 0.000000000000D+00 0.252899185641D-04 0.000000000000D+00  6 -1 2 25 24 3 -3 4 0.12951928D-01 0.43670201D-01 0.14705695D+05 0.14705695D+05 0.14705695D+05 0.12488048D+01  1  2 12  8  6  5       21 0.560275182301D-06 0.100000000000D+01
0.450109938816D-09 0.000000000000D+00 0.000000000000D+00 0.252899185641D-04 0.000000000000D+00  6 -1 2 25 24 4 -4 4 0.12951928D-01 0.43670201D-01 0.14705695D+05 0.14705695D+05 0.14705695D+05 0.12488048D+01  1  2 12  8  6  5       21 0.560275182301D-06 0.100000000000D+01
-.161384118371D-04 0.000000000000D+00 0.000000000000D+00 0.252894402656D-04 0.000000000000D+00  6 -1 2 25 24 3 -3 4 0.12951928D-01 0.43670201D-01 0.14709194D+05 0.14709194D+05 0.14709194D+05 0.12487930D+01  1  2  5  8  6  5       21 -.200876981142D-01 0.100000000000D+01
-.161384118371D-04 0.000000000000D+00 0.000000000000D+00 0.252894402656D-04 0.000000000000D+00  6 -1 2 25 24 4 -4 4 0.12951928D-01 0.43670201D-01 0.14709194D+05 0.14709194D+05 0.14709194D+05 0.12487930D+01  1  2  5  8  6  5       21 -.200876981142D-01 0.100000000000D+01
0.199342139657D-04 0.000000000000D+00 0.000000000000D+00 0.252894402656D-04 0.136481749281D-05  6 -1 2 25 24 3 -3 4 0.12951928D-01 0.43670201D-01 0.14705695D+05 0.14705695D+05 0.14705695D+05 0.12488048D+01  1  2 11  8  6  5       21 0.248131498564D-01 0.100000000000D+01
0.199342139657D-04 0.000000000000D+00 0.000000000000D+00 0.252894402656D-04 0.136481749281D-05  6 -1 2 25 24 4 -4 4 0.12951928D-01 0.43670201D-01 0.14705695D+05 0.14705695D+05 0.14705695D+05 0.12488048D+01  1  2 11  8  6  5       21 0.248131498564D-01 0.100000000000D+01
  </mgrwgt>
  </event>
  <event>
  5     66 0.43535451E-03 0.23001891E+02 0.75467711E-02 0.12310125E+00
       -3 -1    0    0    0  501 0.00000000E+00 0.00000000E+00 0.61473876E+03 0.61473896E+03 0.50000000E+00 0.0000E+00 0.9000E+01
        4 -1    0    0  502    0 0.00000000E+00 0.00000000E+00 -.29540085E+02 0.29580722E+02 0.15500000E+01 0.0000E+00 0.9000E+01
       25  1    1    2    0    0 0.45577850E+02 0.34987866E+02 0.40975482E+03 0.43223316E+03 0.12500000E+03 0.0000E+00 0.9000E+01
       24  1    1    2    0    0 -.48477629E+02 -.12180762E+02 0.12655537E+03 0.15805673E+03 0.80419002E+02 0.0000E+00 0.9000E+01
       21  1    1    2  502  501 0.28997790E+01 -.22807103E+02 0.48888485E+02 0.54029799E+02 0.75000000E+00 0.0000E+00 0.9000E+01
#aMCatNLO 1  0  0  5  1 0.69970222D+01 0.00000000D+00  -5  6  0 0.00000000D+00 0.00000000D+00 0.00000000D+00 0.00000000D+00 0.00000000D+00
  <mgrwgt>
 0.1810590032D+00   20    2    0
 0.134805755899250D+03 0.000000000000000D+00 0.000000000000000D+00 0.134805755899250D+03
 0.134805755899250D+03 -.000000000000000D+00 -.000000000000000D+00 -.134805755899250D+03
 0.143572203135074D+03 0.455770287648180D+02 0.349943239962476D+02 0.410622606547111D+02
 0.103033225025988D+03 -.484782181743569D+02 -.121761274063257D+02 -.406230696637970D+02
 0.230060836374391D+02 0.290118940953887D+01 -.228181965899219D+02 -.439190990914100D+00
 0.000000000000000D+00 0.000000000000000D+00 0.000000000000000D+00 0.000000000000000D+00
 0.134805755899250D+03 0.000000000000000D+00 0.000000000000000D+00 0.134805755899250D+03
 0.134805755899250D+03 -.000000000000000D+00 -.000000000000000D+00 -.134805755899250D+03
 0.143075740986585D+03 0.458919108881911D+02 0.325177389893685D+02 0.410145928287737D+02
 0.103166274872129D+03 -.482517084864351D+02 -.139576527943358D+02 -.406573593981945D+02
 0.119229422182691D+02 -.541940633254431D+01 -.103791635757439D+02 -.224934426242739D+01
 0.114465537215172D+02 0.777920393078832D+01 -.818092261928876D+01 0.189211083184823D+01
0.120958794302D-02 0.000000000000D+00 0.000000000000D+00 0.388852410659D-04 0.000000000000D+00  6 -3 4 25 24 21 21 2 0.94578336D-01 0.45477700D-02 0.16289897D+05 0.16289897D+05 0.16289897D+05 0.12437588D+01  1  2  2  3  6  5       21 0.104264819192D+00 0.100000000000D+01
0.226205206245D-03 0.638317094303D-04 -.464513619301D-05 0.388852410659D-04 0.000000000000D+00  6 -3 4 25 24 21 21 4 0.94578336D-01 0.45477700D-02 0.16289897D+05 0.16289897D+05 0.16289897D+05 0.12437588D+01  1  2  3  3  6  5       21 0.301630505091D-01 0.100000000000D+01
0.514310108218D-04 0.000000000000D+00 0.000000000000D+00 0.388852410659D-04 0.000000000000D+00  6 -3 4 25 24 21 21 4 0.94578336D-01 0.45477700D-02 0.16289897D+05 0.16289897D+05 0.16289897D+05 0.12437588D+01  1  2 15  3  6  5       21 0.685800385812D-02 0.100000000000D+01
0.383004525745D-03 0.000000000000D+00 0.000000000000D+00 0.388943218797D-04 0.000000000000D+00  6 -3 4 25 24 21 21 4 0.94578336D-01 0.45477700D-02 0.16241712D+05 0.16241712D+05 0.16241712D+05 0.12439040D+01  1  2 12  3  6  5       21 0.510818461044D-01 0.100000000000D+01
0.382510505016D-03 0.000000000000D+00 0.000000000000D+00 0.388943218797D-04 0.000000000000D+00  6 -3 4 25 24 21 21 4 0.94578336D-01 0.45477700D-02 0.16241712D+05 0.16241712D+05 0.16241712D+05 0.12439040D+01  1  2 12  3  6  5       21 0.510159578728D-01 0.100000000000D+01
-.158303303516D-02 0.000000000000D+00 0.000000000000D+00 0.388852410659D-04 0.000000000000D+00  6 -3 4 25 24 21 21 4 0.94578336D-01 0.45477700D-02 0.16289897D+05 0.16289897D+05 0.16289897D+05 0.12437588D+01  1  2  4  3  6  5       21 -.211087561555D+00 0.100000000000D+01
-.593488650283D-03 0.000000000000D+00 0.000000000000D+00 0.388852410659D-04 0.000000000000D+00  6 -3 4 25 24 21 21 4 0.94578336D-01 0.45477700D-02 0.16289897D+05 0.16289897D+05 0.16289897D+05 0.12437588D+01  1  2  5  3  6  5       21 -.791380023133D-01 0.100000000000D+01
0.176934280834D-02 0.000000000000D+00 -.000000000000D+00 0.388852410659D-04 0.000000000000D+00  6 -3 4 25 24 21 21 4 0.94578336D-01 0.45477700D-02 0.16289897D+05 0.16289897D+05 0.16289897D+05 0.12437588D+01  1  2  6  3  6  5       21 0.235930805404D+00 0.100000000000D+01
0.140433588287D-04 0.000000000000D+00 0.000000000000D+00 0.388943218797D-04 0.000000000000D+00  6 -3 4 25 24 3 -3 4 0.94578336D-01 0.45477700D-02 0.16241712D+05 0.16241712D+05 0.16241712D+05 0.12439040D+01  1  2 12  6  6  5       21 0.187298229200D-02 0.100000000000D+01
0.140252595644D-04 0.000000000000D+00 0.000000000000D+00 0.388943218797D-04 0.000000000000D+00  6 -3 4 25 24 3 -3 4 0.94578336D-01 0.45477700D-02 0.16241712D+05 0.16241712D+05 0.16241712D+05 0.12439040D+01  1  2 12  6  6  5       21 0.187056836796D-02 0.100000000000D+01
-.431293526134D-04 0.000000000000D+00 0.000000000000D+00 0.388852410659D-04 0.000000000000D+00  6 -3 4 25 24 3 -3 4 0.94578336D-01 0.45477700D-02 0.16289897D+05 0.16289897D+05 0.16289897D+05 0.12437588D+01  1  2  5  6  6  5       21 -.575102961997D-02 0.100000000000D+01
0.140433588287D-04 0.000000000000D+00 0.000000000000D+00 0.388943218797D-04 0.000000000000D+00  6 -3 4 25 24 4 -4 4 0.94578336D-01 0.45477700D-02 0.16241712D+05 0.16241712D+05 0.16241712D+05 0.12439040D+01  1  2 12  7  6  5       21 0.187298229200D-02 0.100000000000D+01
0.140252595644D-04 0.000000000000D+00 0.000000000000D+00 0.388943218797D-04 0.000000000000D+00  6 -3 4 25 24 4 -4 4 0.94578336D-01 0.45477700D-02 0.16241712D+05 0.16241712D+05 0.16241712D+05 0.12439040D+01  1  2 12  7  6  5       21 0.187056836796D-02 0.100000000000D+01
-.431293526134D-04 0.000000000000D+00 0.000000000000D+00 0.388852410659D-04 0.000000000000D+00  6 -3 4 25 24 4 -4 4 0.94578336D-01 0.45477700D-02 0.16289897D+05 0.16289897D+05 0.16289897D+05 0.12437588D+01  1  2  5  7  6  5       21 -.575102961997D-02 0.100000000000D+01
0.140433588287D-04 0.000000000000D+00 0.000000000000D+00 0.388943218797D-04 0.000000000000D+00  6 -3 4 25 24 1 -1 4 0.94578336D-01 0.45477700D-02 0.16241712D+05 0.16241712D+05 0.16241712D+05 0.12439040D+01  1  2 12  8  6  5       21 0.187298229200D-02 0.100000000000D+01
0.140433588287D-04 0.000000000000D+00 0.000000000000D+00 0.388943218797D-04 0.000000000000D+00  6 -3 4 25 24 2 -2 4 0.94578336D-01 0.45477700D-02 0.16241712D+05 0.16241712D+05 0.16241712D+05 0.12439040D+01  1  2 12  8  6  5       21 0.187298229200D-02 0.100000000000D+01
0.140252595644D-04 0.000000000000D+00 0.000000000000D+00 0.388943218797D-04 0.000000000000D+00  6 -3 4 25 24 1 -1 4 0.94578336D-01 0.45477700D-02 0.16241712D+05 0.16241712D+05 0.16241712D+05 0.12439040D+01  1  2 12  8  6  5       21 0.187056836796D-02 0.100000000000D+01
0.140252595644D-04 0.000000000000D+00 0.000000000000D+00 0.388943218797D-04 0.000000000000D+00  6 -3 4 25 24 2 -2 4 0.94578336D-01 0.45477700D-02 0.16241712D+05 0.16241712D+05 0.16241712D+05 0.12439040D+01  1  2 12  8  6  5       21 0.187056836796D-02 0.100000000000D+01
-.431293526134D-04 0.000000000000D+00 0.000000000000D+00 0.388852410659D-04 0.000000000000D+00  6 -3 4 25 24 1 -1 4 0.94578336D-01 0.45477700D-02 0.16289897D+05 0.16289897D+05 0.16289897D+05 0.12437588D+01  1  2  5  8  6  5       21 -.575102961997D-02 0.100000000000D+01
-.431293526134D-04 0.000000000000D+00 0.000000000000D+00 0.388852410659D-04 0.000000000000D+00  6 -3 4 25 24 2 -2 4 0.94578336D-01 0.45477700D-02 0.16289897D+05 0.16289897D+05 0.16289897D+05 0.12437588D+01  1  2  5  8  6  5       21 -.575102961997D-02 0.100000000000D+01
  </mgrwgt>
  </event>
  <event>
  5     66 0.43535451E-03 0.24523086E+02 0.75467711E-02 0.11959748E+00
       -1 -1    0    0    0  501 0.00000000E+00 0.00000000E+00 0.28541885E+02 0.28543679E+02 0.32000000E+00 0.0000E+00 0.9000E+01
        2 -1    0    0  502    0 0.00000000E+00 0.00000000E+00 -.85054007E+03 0.85054013E+03 0.32000000E+00 0.0000E+00 0.9000E+01
       25  1    1    2    0    0 0.63109969E+02 0.85169070E+02 -.53871537E+03 0.56309492E+03 0.12500000E+03 0.0000E+00 0.9000E+01
       24  1    1    2    0    0 -.52001416E+02 -.63315895E+02 -.24432656E+03 0.26995505E+03 0.80419002E+02 0.0000E+00 0.9000E+01
       21  1    1    2  502  501 -.11108553E+02 -.21853176E+02 -.38956257E+02 0.46033832E+02 0.75000000E+00 0.0000E+00 0.9000E+01
#aMCatNLO 1  0  0  2  5 0.41757869D+01 0.00000000D+00  -5  6  0 0.00000000D+00 0.00000000D+00 0.00000000D+00 0.00000000D+00 0.00000000D+00
  <mgrwgt>
 0.5925200263D+00   11    4    0
 0.155810242509741D+03 0.000000000000000D+00 0.000000000000000D+00 0.155810242509741D+03
 0.155810242509741D+03 0.000000000000000D+00 0.000000000000000D+00 -.155810242509741D+03
 0.167465575996088D+03 0.631122564408745D+02 0.851735697274906D+02 -.343805940978228D+02
 0.117053537249427D+03 -.519998173929739D+02 -.633127498797084D+02 0.228435838256476D+02
 0.271013717739669D+02 -.111124390479006D+02 -.218608198477822D+02 0.115370102721753D+02
 0.000000000000000D+00 0.000000000000000D+00 0.000000000000000D+00 -.000000000000000D+00
 0.156577045020023D+03 0.000000000000000D+00 0.000000000000000D+00 0.156577045020023D+03
 0.161614902991444D+03 0.000000000000000D+00 0.000000000000000D+00 -.161614902991444D+03
 0.166597872898689D+03 0.608752997989080D+02 0.851000815407460D+02 -.343805940978228D+02
 0.117788336800365D+03 -.535723662357329D+02 -.633644110343565D+02 0.228435838256476D+02
 0.272622523214587D+02 -.114764689063121D+02 -.218727789057781D+02 0.115370102721753D+02
 0.654348599095342D+01 0.417353534313707D+01 0.137108399388594D+00 -.503785797142064D+01
 0.155810242509741D+03 0.000000000000000D+00 0.000000000000000D+00 0.155810242509741D+03
 0.155810242509741D+03 0.000000000000000D+00 0.000000000000000D+00 -.155810242509741D+03
 0.167465575996088D+03 0.631122564408745D+02 0.851735697274906D+02 -.343805940978228D+02
 0.117053537249427D+03 -.519998173929739D+02 -.633127498797084D+02 0.228435838256476D+02
 0.000000000000000D+00 0.000000000000000D+00 0.000000000000000D+00 -.000000000000000D+00
 0.271013717739669D+02 -.111124390479006D+02 -.218608198477822D+02 0.115370102721753D+02
 0.156577045020023D+03 0.000000000000000D+00 0.000000000000000D+00 0.156577045020023D+03
 0.161614902991444D+03 0.000000000000000D+00 0.000000000000000D+00 -.161614902991444D+03
 0.166597872898689D+03 0.608752997989080D+02 0.851000815407460D+02 -.343805940978228D+02
 0.117788336800365D+03 -.535723662357329D+02 -.633644110343565D+02 0.228435838256476D+02
 0.654348599095342D+01 0.417353534313707D+01 0.137108399388594D+00 -.503785797142064D+01
 0.272622523214587D+02 -.114764689063121D+02 -.218727789057781D+02 0.115370102721753D+02
0.898577271297D-04 0.000000000000D+00 0.000000000000D+00 0.322552785475D-04 0.000000000000D+00  6 -1 2 25 24 21 21 2 0.43912018D-02 0.13085246D+00 0.22986258D+05 0.22986258D+05 0.22986258D+05 0.12272273D+01  1  2  2  2  6  2        2 0.104818452832D+00 0.100000000000D+01
0.185274768630D-04 0.474192253760D-05 -.345077332261D-06 0.322552785475D-04 0.000000000000D+00  6 -1 2 25 24 21 21 4 0.43912018D-02 0.13085246D+00 0.22986258D+05 0.22986258D+05 0.22986258D+05 0.12272273D+01  1  2  3  2  6  2        2 0.325498209873D-01 0.100000000000D+01
0.179934034888D-05 0.000000000000D+00 0.000000000000D+00 0.322552785475D-04 0.000000000000D+00  6 -1 2 25 24 21 21 4 0.43912018D-02 0.13085246D+00 0.22986258D+05 0.22986258D+05 0.22986258D+05 0.12272273D+01  1  2 15  2  6  2        2 0.316115392746D-02 0.100000000000D+01
0.903174215114D-04 0.000000000000D+00 0.000000000000D+00 0.321871616062D-04 0.000000000000D+00  6 -1 2 25 24 21 21 4 0.43912018D-02 0.13830998D+00 0.23629881D+05 0.23629881D+05 0.23629881D+05 0.12259308D+01  1  2 12  2  6  2        2 0.147143595246D+00 0.100000000000D+01
-.128376250303D-02 0.000000000000D+00 0.000000000000D+00 0.322552785475D-04 0.000000000000D+00  6 -1 2 25 24 21 21 4 0.43912018D-02 0.13085246D+00 0.22986258D+05 0.22986258D+05 0.22986258D+05 0.12272273D+01  1  2  4  2  6  2        2 -.225536590723D+01 0.100000000000D+01
-.670347982405D-02 0.000000000000D+00 -.673245089261D-03 0.322552785475D-04 0.000000000000D+00  6 -1 2 25 24 21 21 4 0.43912018D-02 0.13608014D+00 0.22986258D+05 0.22986258D+05 0.22986258D+05 0.12272273D+01  1  2  5  2  6  2        2 -.111958862028D+02 0.100000000000D+01
0.672520866989D-02 0.000000000000D+00 0.672728849041D-03 0.322552785475D-04 0.000000000000D+00  6 -1 2 25 24 21 21 4 0.43912018D-02 0.13085246D+00 0.22986258D+05 0.22986258D+05 0.22986258D+05 0.12272273D+01  1  2  6  2  6  2        2 0.118151186978D+02 0.100000000000D+01
0.120419929925D-02 0.000000000000D+00 0.000000000000D+00 0.322552785475D-04 0.597598767194D-05  6 -1 2 25 24 21 21 4 0.44128126D-02 0.13572733D+00 0.23629881D+05 0.23629881D+05 0.23629881D+05 0.12259308D+01  1  2 11  2  6  2        2 0.199627858668D+01 0.100000000000D+01
0.271177722422D-05 0.000000000000D+00 0.000000000000D+00 0.321871616062D-04 0.000000000000D+00  6 -1 21 25 24 -2 21 4 0.43912018D-02 0.13830998D+00 0.23629881D+05 0.23629881D+05 0.23629881D+05 0.12259308D+01  3  4 12  5  5  2        2 0.430866170468D-02 0.100000000000D+01
-.461001996910D-04 0.000000000000D+00 -.466697564531D-05 0.322552785475D-04 0.000000000000D+00  6 -1 21 25 24 -2 21 4 0.43912018D-02 0.13608014D+00 0.22986258D+05 0.22986258D+05 0.22986258D+05 0.12272273D+01  3  4  5  5  5  2        2 -.766981321215D-01 0.100000000000D+01
0.103283329710D-04 0.000000000000D+00 0.000000000000D+00 0.322552785475D-04 0.998121411010D-07  6 -1 21 25 24 -2 21 4 0.44128126D-02 0.13572733D+00 0.23629881D+05 0.23629881D+05 0.23629881D+05 0.12259308D+01  3  4 11  5  5  2        2 0.170912992634D-01 0.100000000000D+01
  </mgrwgt>
  </event>
  <event>
  5     66 0.43535451E-03 0.40120056E+02 0.75467711E-02 0.10975607E+00
       -1 -1    0    0    0  501 0.00000000E+00 0.00000000E+00 0.14059816E+02 0.14063457E+02 0.32000000E+00 0.0000E+00 0.9000E+01
        2 -1    0    0  502    0 0.00000000E+00 0.00000000E+00 -.17479873E+04 0.17479874E+04 0.32000000E+00 0.0000E+00 0.9000E+01
       25  1    1    2    0    0 -.51174919E+01 0.38286506E+02 -.45482064E+03 0.47326405E+03 0.12500000E+03 0.0000E+00 0.9000E+01
       24  1    1    2    0    0 0.44186259E+02 -.29184229E+02 -.11385863E+04 0.11426505E+04 0.80419002E+02 0.0000E+00 0.9000E+01
       21  1    1    2  502  501 -.39068767E+02 -.91022766E+01 -.14052060E+03 0.14613631E+03 0.75000000E+00 0.0000E+00 0.9000E+01
#aMCatNLO 1  0  0  1  1 0.35730311D+02 0.00000000D+00  -5  6  0 0.00000000D+00 0.00000000D+00 0.00000000D+00 0.00000000D+00 0.00000000D+00
  <mgrwgt>
 0.1821822257D+00    5    4    0
 0.156778868570504D+03 0.000000000000000D+00 0.000000000000000D+00 0.156778868570504D+03
 0.156778868570504D+03 0.000000000000000D+00 0.000000000000000D+00 -.156778868570504D+03
 0.144436366555081D+03 -.511489590913179D+01 0.382871105539422D+02 0.611947627571402D+02
 0.124961111136338D+03 0.441885045883094D+02 -.291837058501382D+02 -.796476661124435D+02
 0.441602594495878D+02 -.390736086791776D+02 -.910340470380403D+01 0.184529033553033D+02
 0.000000000000000D+00 0.000000000000000D+00 -.000000000000000D+00 0.000000000000000D+00
 0.345695405672224D+03 0.000000000000000D+00 0.000000000000000D+00 0.345695405672224D+03
 0.265854298189660D+03 0.000000000000000D+00 0.000000000000000D+00 -.265854298189660D+03
 0.195783272860939D+03 -.838473894860977D+02 0.109228687713462D+03 0.611947627571402D+02
 0.115689670849523D+03 -.115020962821042D+02 0.209960722721731D+02 -.796476661124435D+02
 0.694747449468565D+02 -.653706421752994D+02 0.145914250427973D+02 0.184529033553033D+02
 0.230602015204565D+03 0.160720127943501D+03 -.144816185028432D+03 0.798411074825631D+02
 0.156778868570504D+03 0.000000000000000D+00 0.000000000000000D+00 0.156778868570504D+03
 0.156778868570504D+03 0.000000000000000D+00 0.000000000000000D+00 -.156778868570504D+03
 0.144436366555081D+03 -.511489590913179D+01 0.382871105539422D+02 0.611947627571402D+02
 0.124961111136338D+03 0.441885045883094D+02 -.291837058501382D+02 -.796476661124435D+02
 0.000000000000000D+00 0.000000000000000D+00 -.000000000000000D+00 0.000000000000000D+00
 0.441602594495878D+02 -.390736086791776D+02 -.910340470380403D+01 0.184529033553033D+02
 0.345695405672224D+03 0.000000000000000D+00 0.000000000000000D+00 0.345695405672224D+03
 0.265854298189660D+03 0.000000000000000D+00 0.000000000000000D+00 -.265854298189660D+03
 0.195783272860939D+03 -.838473894860977D+02 0.109228687713462D+03 0.611947627571402D+02
 0.115689670849523D+03 -.115020962821042D+02 0.209960722721731D+02 -.796476661124435D+02
 0.230602015204565D+03 0.160720127943501D+03 -.144816185028432D+03 0.798411074825631D+02
 0.694747449468565D+02 -.653706421752994D+02 0.145914250427973D+02 0.184529033553033D+02
0.109636597857D-03 0.000000000000D+00 0.000000000000D+00 0.101326114720D-04 0.000000000000D+00  6 -1 2 25 24 21 21 2 0.21633309D-02 0.26892141D+00 0.17854443D+05 0.17854443D+05 0.17854443D+05 0.12392889D+01  1  2  2  1  6  1       -1 0.116185517092D+00 0.100000000000D+01
0.369567695672D-05 0.578568222154D-05 -.421033403749D-06 0.101326114720D-04 0.000000000000D+00  6 -1 2 25 24 21 21 4 0.21633309D-02 0.26892141D+00 0.17854443D+05 0.17854443D+05 0.17854443D+05 0.12392889D+01  1  2  3  1  6  1       -1 0.601499937437D-02 0.100000000000D+01
0.453108920204D-05 0.000000000000D+00 0.000000000000D+00 0.101326114720D-04 0.000000000000D+00  6 -1 2 25 24 21 21 4 0.21633309D-02 0.26892141D+00 0.17854443D+05 0.17854443D+05 0.17854443D+05 0.12392889D+01  1  2 15  1  6  1       -1 0.737469725699D-02 0.100000000000D+01
0.755920180323D-04 0.000000000000D+00 -.624695697950D-04 0.101326114720D-04 0.000000000000D+00  6 -1 2 25 24 21 21 4 0.93072846D-02 0.26892141D+00 0.17854443D+05 0.17854443D+05 0.17854443D+05 0.12392889D+01  1  2  5  1  6  1       -1 0.142780463194D-01 0.100000000000D+01
0.132311989847D-04 0.000000000000D+00 -.109723276362D-04 0.101326114720D-04 0.000000000000D+00  6 21 2 25 24 1 21 4 0.93072846D-02 0.26892141D+00 0.17854443D+05 0.17854443D+05 0.17854443D+05 0.12392889D+01  3  4  5  4  5  1       -1 0.383289656707D-01 0.100000000000D+01
  </mgrwgt>
  </event>
  <event>
  5     66 0.43535451E-03 0.72248730E+02 0.75467711E-02 0.11056471E+00
       -1 -1    0    0    0  501 0.00000000E+00 0.00000000E+00 0.95360727E+02 0.95361264E+02 0.32000000E+00 0.0000E+00 0.9000E+01
        2 -1    0    0  502    0 0.00000000E+00 0.00000000E+00 -.43977305E+03 0.43977316E+03 0.32000000E+00 0.0000E+00 0.9000E+01
       25  1    1    2    0    0 0.33996978E+02 -.60300274E+02 -.29229607E+03 0.32535198E+03 0.12500000E+03 0.0000E+00 0.9000E+01
       24  1    1    2    0    0 -.32794338E+02 -.11937783E+02 -.92143870E+02 0.12718368E+03 0.80419002E+02 0.0000E+00 0.9000E+01
       21  1    1    2  502  501 -.12026398E+01 0.72238056E+02 0.40027624E+02 0.82598767E+02 0.75000000E+00 0.0000E+00 0.9000E+01
#aMCatNLO 1  0  0  1  1 0.38371499D+02 0.00000000D+00  -5  6  0 0.00000000D+00 0.00000000D+00 0.00000000D+00 0.00000000D+00 0.00000000D+00
  <mgrwgt>
 0.6684563721D-01    5    4    0
 0.204785869293817D+03 0.000000000000000D+00 0.000000000000000D+00 0.204785869293817D+03
 0.204785869293817D+03 0.000000000000000D+00 0.000000000000000D+00 -.204785869293817D+03
 0.179301737653924D+03 0.339969851805896D+02 -.603007173594454D+02 -.108315011010865D+03
 0.886899945191494D+02 -.327943343579415D+02 -.119380021565362D+02 -.134430246583978D+02
 0.141580006414561D+03 -.120265082264807D+01 0.722387195159817D+02 0.121758035669262D+03
 0.000000000000000D+00 0.000000000000000D+00 -.000000000000000D+00 0.000000000000000D+00
 0.357878208434464D+03 0.000000000000000D+00 0.000000000000000D+00 0.357878208434464D+03
 0.275643369310532D+03 0.000000000000000D+00 0.000000000000000D+00 -.275643369310532D+03
 0.165918926805182D+03 -.107218341122443D+02 -.754923407830639D+01 -.108315011010865D+03
 0.101156149365499D+03 -.573864178449502D+02 0.170714596635167D+02 -.134430246583978D+02
 0.176742505981840D+03 -.424371665229149D+02 0.120880027581936D+03 0.121758035669262D+03
 0.189703995592476D+03 0.110545418480109D+03 -.130402253167147D+03 0.822348391239316D+02
 0.204785869293817D+03 0.000000000000000D+00 0.000000000000000D+00 0.204785869293817D+03
 0.204785869293817D+03 0.000000000000000D+00 0.000000000000000D+00 -.204785869293817D+03
 0.179301737653924D+03 0.339969851805896D+02 -.603007173594454D+02 -.108315011010865D+03
 0.886899945191494D+02 -.327943343579415D+02 -.119380021565362D+02 -.134430246583978D+02
 0.000000000000000D+00 0.000000000000000D+00 -.000000000000000D+00 0.000000000000000D+00
 0.141580006414561D+03 -.120265082264807D+01 0.722387195159817D+02 0.121758035669262D+03
 0.357878208434464D+03 0.000000000000000D+00 0.000000000000000D+00 0.357878208434464D+03
 0.275643369310532D+03 0.000000000000000D+00 0.000000000000000D+00 -.275643369310532D+03
 0.165918926805182D+03 -.107218341122443D+02 -.754923407830639D+01 -.108315011010865D+03
 0.101156149365499D+03 -.573864178449502D+02 0.170714596635167D+02 -.134430246583978D+02
 0.189703995592476D+03 0.110545418480109D+03 -.130402253167147D+03 0.822348391239316D+02
 0.176742505981840D+03 -.424371665229149D+02 0.120880027581936D+03 0.121758035669262D+03
0.156988622687D-03 0.000000000000D+00 0.000000000000D+00 0.697647284588D-05 0.000000000000D+00  6 -1 2 25 24 21 21 2 0.14670931D-01 0.67657442D-01 0.22922259D+05 0.22922259D+05 0.22922259D+05 0.12273584D+01  1  2  2  1  6  1       -1 0.631887379303D-01 0.100000000000D+01
-.528172337728D-05 0.828451722347D-05 -.602877647173D-06 0.697647284588D-05 0.000000000000D+00  6 -1 2 25 24 21 21 4 0.14670931D-01 0.67657442D-01 0.22922259D+05 0.22922259D+05 0.22922259D+05 0.12273584D+01  1  2  3  1  6  1       -1 -.320250614031D-02 0.100000000000D+01
0.570672955175D-05 0.000000000000D+00 0.000000000000D+00 0.697647284588D-05 0.000000000000D+00  6 -1 2 25 24 21 21 4 0.14670931D-01 0.67657442D-01 0.22922259D+05 0.22922259D+05 0.22922259D+05 0.12273584D+01  1  2 15  1  6  1       -1 0.346020325661D-02 0.100000000000D+01
-.143785682817D-04 0.000000000000D+00 -.723044902466D-04 0.697647284588D-05 0.000000000000D+00  6 -1 2 25 24 21 21 4 0.33943094D-01 0.67657442D-01 0.22922259D+05 0.22922259D+05 0.22922259D+05 0.12273584D+01  1  2  5  1  6  1       -1 -.221797464868D-02 0.100000000000D+01
0.325903506277D-05 0.000000000000D+00 -.660496418902D-05 0.697647284588D-05 0.000000000000D+00  6 21 2 25 24 1 21 4 0.33943094D-01 0.67657442D-01 0.22922259D+05 0.22922259D+05 0.22922259D+05 0.12273584D+01  3  4  5  4  5  1       -1 0.561717681239D-02 0.100000000000D+01
  </mgrwgt>
  </event>
  <event>
  6     66 0.43535451E-03 0.13917017E+02 0.75467711E-02 0.12331352E+00
       -1 -1    0    0    0  501 0.00000000E+00 0.00000000E+00 0.26384619E+02 0.26386560E+02 0.32000000E+00 0.0000E+00 0.9000E+01
        2 -1    0    0  502    0 -.00000000E+00 -.00000000E+00 -.97716490E+03 0.97716495E+03 0.32000000E+00 0.0000E+00 0.9000E+01
       25  1    1    2    0    0 0.15044819E+02 -.37360496E+02 -.20348164E+03 0.24218161E+03 0.12500000E+03 0.0000E+00 0.9000E+01
       24  1    1    2    0    0 0.18136568E+01 0.36313374E+00 -.61892943E+03 0.62413482E+03 0.80419002E+02 0.0000E+00 0.9000E+01
       21  1    1    2  502  503 -.89040238E+01 0.21849349E+02 -.10834203E+03 0.11088387E+03 0.75000000E+00 0.0000E+00 0.9000E+01
       21  1    1    2  503  501 -.79544524E+01 0.15148013E+02 -.20027179E+02 0.26351205E+02 0.75000000E+00 0.0000E+00 0.9000E+01
#aMCatNLO 2  0  0  5  1 0.13222633D+02 0.00000000D+00  -5  6  0 0.00000000D+00 0.00000000D+00 0.00000000D+00 0.00000000D+00 0.00000000D+00
  <mgrwgt>
 0.1243193526D+00    3    2    0
 0.160571241323809D+03 0.000000000000000D+00 0.000000000000000D+00 0.160571241323809D+03
 0.160571241323809D+03 -.000000000000000D+00 -.000000000000000D+00 -.160571241323809D+03
 0.155151012166799D+03 0.166134644197937D+02 -.408030208909079D+02 0.806594251314158D+02
 0.118284736445108D+03 0.301098844247073D+01 -.226451247003770D+01 -.866594994988464D+02
 0.477067340357114D+02 -.196244528622644D+02 0.430675333609457D+02 0.600007436743054D+01
 0.000000000000000D+00 0.000000000000000D+00 0.000000000000000D+00 0.000000000000000D+00
 0.160571241323809D+03 0.000000000000000D+00 0.000000000000000D+00 0.160571241323809D+03
 0.160571241323809D+03 -.000000000000000D+00 -.000000000000000D+00 -.160571241323809D+03
 0.154373760067982D+03 0.150487116194732D+02 -.373690375894413D+02 0.811378401595678D+02
 0.117971839157579D+03 0.181663124902446D+01 0.356606122906229D+00 -.862943310005321D+02
 0.251061137903570D+02 -.859399050906647D+01 0.211736441044460D+02 -.103988976397831D+02
 0.236907696317006D+02 -.827135235943118D+01 0.158387873620891D+02 0.155553884807473D+02
-.271281695153D-04 0.000000000000D+00 0.000000000000D+00 0.646306201139D-05 0.000000000000D+00  6 -1 2 25 24 21 21 4 0.40593255D-02 0.15033321D+00 0.15937968D+05 0.15937968D+05 0.15937968D+05 0.12448307D+01  1  2 13  3  6  5       21 -.467668252566D-01 0.100000000000D+01
-.274810410648D-04 0.000000000000D+00 0.000000000000D+00 0.646306201139D-05 0.000000000000D+00  6 -1 2 25 24 21 21 4 0.40593255D-02 0.15033321D+00 0.15937968D+05 0.15937968D+05 0.15937968D+05 0.12448307D+01  1  2 13  3  6  5       21 -.473751479849D-01 0.100000000000D+01
0.126723502102D-03 0.000000000000D+00 0.000000000000D+00 0.643185145691D-05 0.608986095113D-06  6 -1 2 25 24 21 21 4 0.40593255D-02 0.15033321D+00 0.15937968D+05 0.15937968D+05 0.15937968D+05 0.12448307D+01  1  2  1  3  6  5       21 0.218461325795D+00 0.100000000000D+01
  </mgrwgt>
  </event>
  <event>
  5     66 -.43535451E-03 0.24269033E+02 0.75467711E-02 0.12113796E+00
       -1 -1    0    0    0  501 0.00000000E+00 0.00000000E+00 0.20103517E+02 0.20106064E+02 0.32000000E+00 0.0000E+00 0.9000E+01
        2 -1    0    0  502    0 0.00000000E+00 0.00000000E+00 -.11067410E+04 0.11067411E+04 0.32000000E+00 0.0000E+00 0.9000E+01
       25  1    1    2    0    0 0.33669988E+02 0.54709784E+02 -.70365506E+03 0.71755298E+03 0.12500000E+03 0.0000E+00 0.9000E+01
       24  1    1    2    0    0 -.55140979E+02 -.66008532E+02 -.34151791E+03 0.36124694E+03 0.80419002E+02 0.0000E+00 0.9000E+01
       21  1    1    2  502  501 0.21470991E+02 0.11298749E+02 -.41464558E+02 0.48047240E+02 0.75000000E+00 0.0000E+00 0.9000E+01
#aMCatNLO 1  0  0  1  5 0.35132129D+00 0.00000000D+00  -5  6  0 0.00000000D+00 0.00000000D+00 0.00000000D+00 0.00000000D+00 0.00000000D+00
  <mgrwgt>
 -.3828605157D+00    9    4    0
 0.149167184433542D+03 0.000000000000000D+00 0.000000000000000D+00 0.149167184433542D+03
 0.149167184433542D+03 0.000000000000000D+00 0.000000000000000D+00 -.149167184433542D+03
 0.147332585816256D+03 0.336667709030900D+02 0.547080904968640D+02 -.442206310951150D+02
 0.120550483672049D+03 -.551436115004650D+02 -.660099174862673D+02 0.258278156903806D+02
 0.304512993787801D+02 0.214768405973750D+02 0.113018269894033D+02 0.183928154047344D+02
 0.000000000000000D+00 -.000000000000000D+00 -.000000000000000D+00 0.000000000000000D+00
 0.149673635684835D+03 0.000000000000000D+00 0.000000000000000D+00 0.149673635684835D+03
 0.149228227519294D+03 0.000000000000000D+00 0.000000000000000D+00 -.149228227519294D+03
 0.147403265662998D+03 0.336984388219825D+02 0.548787184127613D+02 -.442206310951150D+02
 0.120462288738186D+03 -.551177158624202D+02 -.658703908326398D+02 0.258278156903806D+02
 0.304690213254160D+02 0.214833861864687D+02 0.113370948650465D+02 0.183928154047344D+02
 0.567287477529542D+00 -.641091460309669D-01 -.345422445167969D+00 0.445408165541667D+00
 0.149167184433542D+03 0.000000000000000D+00 0.000000000000000D+00 0.149167184433542D+03
 0.149167184433542D+03 0.000000000000000D+00 0.000000000000000D+00 -.149167184433542D+03
 0.147332585816256D+03 0.336667709030900D+02 0.547080904968640D+02 -.442206310951150D+02
 0.120550483672049D+03 -.551436115004650D+02 -.660099174862673D+02 0.258278156903806D+02
 0.000000000000000D+00 -.000000000000000D+00 -.000000000000000D+00 0.000000000000000D+00
 0.304512993787801D+02 0.214768405973750D+02 0.113018269894033D+02 0.183928154047344D+02
 0.149673635684835D+03 0.000000000000000D+00 0.000000000000000D+00 0.149673635684835D+03
 0.149228227519294D+03 0.000000000000000D+00 0.000000000000000D+00 -.149228227519294D+03
 0.147403265662998D+03 0.336984388219825D+02 0.548787184127613D+02 -.442206310951150D+02
 0.120462288738186D+03 -.551177158624202D+02 -.658703908326398D+02 0.258278156903806D+02
 0.567287477529542D+00 -.641091460309669D-01 -.345422445167969D+00 0.445408165541667D+00
 0.304690213254160D+02 0.214833861864687D+02 0.113370948650465D+02 0.183928154047344D+02
0.431971720162D-04 0.000000000000D+00 0.000000000000D+00 0.341354518044D-04 0.000000000000D+00  6 -1 2 25 24 21 21 2 0.30930483D-02 0.17026805D+00 0.19960037D+05 0.19960037D+05 0.19960037D+05 0.12339217D+01  1  2  2  1  6  1       -1 0.593133738529D-01 0.100000000000D+01
0.728842583894D-05 0.227957739515D-05 -.165888514619D-06 0.341354518044D-04 0.000000000000D+00  6 -1 2 25 24 21 21 4 0.30930483D-02 0.17026805D+00 0.19960037D+05 0.19960037D+05 0.19960037D+05 0.12339217D+01  1  2  3  1  6  1       -1 0.152372378236D-01 0.100000000000D+01
0.115730014387D-05 0.000000000000D+00 0.000000000000D+00 0.341354518044D-04 0.000000000000D+00  6 -1 2 25 24 21 21 4 0.30930483D-02 0.17026805D+00 0.19960037D+05 0.19960037D+05 0.19960037D+05 0.12339217D+01  1  2 15  1  6  1       -1 0.241946037665D-02 0.100000000000D+01
-.270989193633D-02 0.000000000000D+00 0.000000000000D+00 0.341354518044D-04 0.000000000000D+00  6 -1 2 25 24 21 21 4 0.30930483D-02 0.17026805D+00 0.19960037D+05 0.19960037D+05 0.19960037D+05 0.12339217D+01  1  2  4  1  6  1       -1 -.566532044402D+01 0.100000000000D+01
-.328863022693D-01 0.000000000000D+00 -.219453204971D-02 0.341354518044D-04 0.000000000000D+00  6 -1 2 25 24 21 21 4 0.31048259D-02 0.17026805D+00 0.19960037D+05 0.19960037D+05 0.19960037D+05 0.12339217D+01  1  2  5  1  6  1       -1 -.683721731811D+02 0.100000000000D+01
0.328944209374D-01 0.000000000000D+00 0.219451620087D-02 0.341354518044D-04 0.000000000000D+00  6 -1 2 25 24 21 21 4 0.30930483D-02 0.17026805D+00 0.19960037D+05 0.19960037D+05 0.19960037D+05 0.12339217D+01  1  2  6  1  6  1       -1 0.687693235778D+02 0.100000000000D+01
0.269539162479D-02 0.000000000000D+00 0.000000000000D+00 0.341354518044D-04 0.654817487271D-03  6 -1 2 25 24 21 21 4 0.31035498D-02 0.17033773D+00 0.20010557D+05 0.20010557D+05 0.20010557D+05 0.12338008D+01  1  2 11  1  6  1       -1 0.560200587025D+01 0.100000000000D+01
-.232898908790D-04 0.000000000000D+00 -.155494447341D-05 0.341354518044D-04 0.000000000000D+00  6 21 2 25 24 1 21 4 0.31048259D-02 0.17026805D+00 0.19960037D+05 0.19960037D+05 0.19960037D+05 0.12339217D+01  3  4  5  4  5  1       -1 -.928244442943D+00 0.100000000000D+01
0.337757158131D-05 0.000000000000D+00 0.000000000000D+00 0.341354518044D-04 0.161323904077D-05  6 21 2 25 24 1 21 4 0.31035498D-02 0.17033773D+00 0.20010557D+05 0.20010557D+05 0.20010557D+05 0.12338008D+01  3  4 11  4  5  1       -1 0.134578032241D+00 0.100000000000D+01
  </mgrwgt>
  </event>
  <event>
  5     66 0.43535451E-03 0.25309524E+02 0.75467711E-02 0.12062099E+00
       -1 -1    0    0    0  501 0.00000000E+00 0.00000000E+00 0.23470951E+02 0.23473132E+02 0.32000000E+00 0.0000E+00 0.9000E+01
        2 -1    0    0  502    0 -.00000000E+00 -.00000000E+00 -.12676565E+04 0.12676565E+04 0.32000000E+00 0.0000E+00 0.9000E+01
       25  1    1    2    0    0 0.88959696E+02 -.21319710E+02 -.68231736E+03 0.69967874E+03 0.12500000E+03 0.0000E+00 0.9000E+01
       24  1    1    2    0    0 -.67547921E+02 0.34812332E+02 -.55399486E+03 0.56493552E+03 0.80419002E+02 0.0000E+00 0.9000E+01
       21  1    1    2  502  501 -.21411775E+02 -.13492622E+02 -.78733171E+01 0.26515402E+02 0.75000000E+00 0.0000E+00 0.9000E+01
#aMCatNLO 1  0  0  5  2 0.85869800D+01 0.00000000D+00  -5  6  0 0.00000000D+00 0.00000000D+00 0.00000000D+00 0.00000000D+00 0.00000000D+00
  <mgrwgt>
 0.2927546483D+00   15    2    0
 0.172495035473889D+03 0.000000000000000D+00 0.000000000000000D+00 0.172495035473889D+03
 0.172495035473889D+03 -.000000000000000D+00 -.000000000000000D+00 -.172495035473889D+03
 0.157821307126919D+03 0.889602451942158D+02 -.213193641512792D+02 -.302344914033524D+02
 0.116329989172996D+03 -.675475167551109D+02 0.348125870407674D+02 -.359286402521130D+02
 0.708387746478629D+02 -.214127284391049D+02 -.134932228894882D+02 0.661631316554654D+02
 0.000000000000000D+00 0.000000000000000D+00 0.000000000000000D+00 0.000000000000000D+00
 0.172495035473889D+03 0.000000000000000D+00 0.000000000000000D+00 0.172495035473889D+03
 0.172495035473889D+03 -.000000000000000D+00 -.000000000000000D+00 -.172495035473889D+03
 0.157393591927814D+03 0.885559440594975D+02 -.215741343614717D+02 -.289852424213326D+02
 0.116166394574203D+03 -.678457214150072D+02 0.346246734848602D+02 -.350072184805202D+02
 0.176824685222766D+02 -.122754417241262D+02 0.654046677510557D+00 0.127104463518210D+02
 0.537476159234845D+02 -.843478092036406D+01 -.137045858008990D+02 0.512820145500317D+02
0.125398214742D-03 0.000000000000D+00 0.000000000000D+00 0.369465375881D-04 0.000000000000D+00  6 -1 2 25 24 21 21 2 0.36110864D-02 0.19502424D+00 0.21148482D+05 0.21148482D+05 0.21148482D+05 0.12311653D+01  1  2  2  3  6  5       21 0.111298494372D+00 0.100000000000D+01
0.170961158443D-04 0.661744559601D-05 -.481562162719D-06 0.369465375881D-04 0.000000000000D+00  6 -1 2 25 24 21 21 4 0.36110864D-02 0.19502424D+00 0.21148482D+05 0.21148482D+05 0.21148482D+05 0.12311653D+01  1  2  3  3  6  5       21 0.230000158606D-01 0.100000000000D+01
0.336599420616D-05 0.000000000000D+00 0.000000000000D+00 0.369465375881D-04 0.000000000000D+00  6 -1 2 25 24 21 21 4 0.36110864D-02 0.19502424D+00 0.21148482D+05 0.21148482D+05 0.21148482D+05 0.12311653D+01  1  2 15  3  6  5       21 0.452839234556D-02 0.100000000000D+01
0.359897567356D-04 0.000000000000D+00 0.000000000000D+00 0.368880810162D-04 0.000000000000D+00  6 -1 2 25 24 21 21 4 0.36110864D-02 0.19502424D+00 0.21587375D+05 0.21587375D+05 0.21587375D+05 0.12301910D+01  1  2 12  3  6  5       21 0.482811069178D-01 0.100000000000D+01
-.133103808648D-03 0.000000000000D+00 0.000000000000D+00 0.369465375881D-04 0.000000000000D+00  6 -1 2 25 24 21 21 4 0.36110864D-02 0.19502424D+00 0.21148482D+05 0.21148482D+05 0.21148482D+05 0.12311653D+01  1  2  4  3  6  5       21 -.179069312462D+00 0.100000000000D+01
-.621410228725D-04 0.000000000000D+00 0.000000000000D+00 0.369465375881D-04 0.000000000000D+00  6 -1 2 25 24 21 21 4 0.36110864D-02 0.19502424D+00 0.21148482D+05 0.21148482D+05 0.21148482D+05 0.12311653D+01  1  2  5  3  6  5       21 -.836005397177D-01 0.100000000000D+01
0.301269898849D-03 0.000000000000D+00 -.000000000000D+00 0.369465375881D-04 0.000000000000D+00  6 -1 2 25 24 21 21 4 0.36110864D-02 0.19502424D+00 0.21148482D+05 0.21148482D+05 0.21148482D+05 0.12311653D+01  1  2  6  3  6  5       21 0.405309165833D+00 0.100000000000D+01
0.558495079176D-05 0.000000000000D+00 0.000000000000D+00 0.368880810162D-04 0.000000000000D+00  6 -1 2 25 24 1 -1 4 0.36110864D-02 0.19502424D+00 0.21587375D+05 0.21587375D+05 0.21587375D+05 0.12301910D+01  1  2 12  6  6  5       21 0.749234312108D-02 0.100000000000D+01
-.124433709677D-04 0.000000000000D+00 0.000000000000D+00 0.369465375881D-04 0.000000000000D+00  6 -1 2 25 24 1 -1 4 0.36110864D-02 0.19502424D+00 0.21148482D+05 0.21148482D+05 0.21148482D+05 0.12311653D+01  1  2  5  6  6  5       21 -.167405118345D-01 0.100000000000D+01
0.558495079176D-05 0.000000000000D+00 0.000000000000D+00 0.368880810162D-04 0.000000000000D+00  6 -1 2 25 24 2 -2 4 0.36110864D-02 0.19502424D+00 0.21587375D+05 0.21587375D+05 0.21587375D+05 0.12301910D+01  1  2 12  7  6  5       21 0.749234312108D-02 0.100000000000D+01
-.124433709677D-04 0.000000000000D+00 0.000000000000D+00 0.369465375881D-04 0.000000000000D+00  6 -1 2 25 24 2 -2 4 0.36110864D-02 0.19502424D+00 0.21148482D+05 0.21148482D+05 0.21148482D+05 0.12311653D+01  1  2  5  7  6  5       21 -.167405118345D-01 0.100000000000D+01
0.558495079176D-05 0.000000000000D+00 0.000000000000D+00 0.368880810162D-04 0.000000000000D+00  6 -1 2 25 24 3 -3 4 0.36110864D-02 0.19502424D+00 0.21587375D+05 0.21587375D+05 0.21587375D+05 0.12301910D+01  1  2 12  8  6  5       21 0.749234312108D-02 0.100000000000D+01
0.558495079176D-05 0.000000000000D+00 0.000000000000D+00 0.368880810162D-04 0.000000000000D+00  6 -1 2 25 24 4 -4 4 0.36110864D-02 0.19502424D+00 0.21587375D+05 0.21587375D+05 0.21587375D+05 0.12301910D+01  1  2 12  8  6  5       21 0.749234312108D-02 0.100000000000D+01
-.124433709677D-04 0.000000000000D+00 0.000000000000D+00 0.369465375881D-04 0.000000000000D+00  6 -1 2 25 24 3 -3 4 0.36110864D-02 0.19502424D+00 0.21148482D+05 0.21148482D+05 0.21148482D+05 0.12311653D+01  1  2  5  8  6  5       21 -.167405118345D-01 0.100000000000D+01
-.124433709677D-04 0.000000000000D+00 0.000000000000D+00 0.369465375881D-04 0.000000000000D+00  6 -1 2 25 24 4 -4 4 0.36110864D-02 0.19502424D+00 0.21148482D+05 0.21148482D+05 0.21148482D+05 0.12311653D+01  1  2  5  8  6  5       21 -.167405118345D-01 0.100000000000D+01
  </mgrwgt>
  </event>
  <event>
  5     66 -.43535451E-03 0.22370171E+02 0.75467711E-02 0.12126627E+00
       -1 -1    0    0    0  501 0.00000000E+00 0.00000000E+00 0.97438490E+01 0.97491022E+01 0.32000000E+00 0.0000E+00 0.9000E+01
        2 -1    0    0  502    0 0.00000000E+00 0.00000000E+00 -.17182653E+04 0.17182653E+04 0.32000000E+00 0.0000E+00 0.9000E+01
       25  1    1    2    0    0 -.12262831E+02 0.44049736E+02 -.11384431E+04 0.11461974E+04 0.12500000E+03 0.0000E+00 0.9000E+01
       24  1    1    2    0    0 -.93443079E+01 -.38279665E+02 -.50790081E+03 0.51573550E+03 0.80419002E+02 0.0000E+00 0.9000E+01
       21  1    1    2  502  501 0.21607139E+02 -.57700717E+01 -.62177478E+02 0.66081491E+02 0.75000000E+00 0.0000E+00 0.9000E+01
#aMCatNLO 1  0  0  1  5 0.34585777D+02 0.00000000D+00  -5  6  0 0.00000000D+00 0.00000000D+00 0.00000000D+00 0.00000000D+00 0.00000000D+00
  <mgrwgt>
 -.7983632035D+00    5    4    0
 0.129410516218668D+03 0.000000000000000D+00 0.000000000000000D+00 0.129410516218668D+03
 0.129410516218668D+03 0.000000000000000D+00 0.000000000000000D+00 -.129410516218668D+03
 0.137514092523930D+03 -.122662477984747D+02 0.440506488926428D+02 -.345572733265164D+02
 0.905600809451998D+02 -.934655796578838D+01 -.382790638663884D+02 0.134635593412637D+02
 0.307468589682051D+02 0.216128057642630D+02 -.577158502625445D+01 0.210937139852527D+02
 0.000000000000000D+00 0.000000000000000D+00 -.000000000000000D+00 0.000000000000000D+00
 0.254771524833779D+03 0.000000000000000D+00 0.000000000000000D+00 0.254771524833779D+03
 0.132968366203252D+03 0.000000000000000D+00 0.000000000000000D+00 -.132968366203252D+03
 0.143497922211911D+03 -.274590839631274D+02 0.549403972253398D+02 -.345572733265164D+02
 0.894002174078119D+02 -.190760612811162D+02 -.313052611242404D+02 0.134635593412637D+02
 0.282234849046208D+02 0.184245905775378D+02 -.348637240119525D+01 0.210937139852527D+02
 0.126618266512687D+03 0.281105546667058D+02 -.201487636999041D+02 0.121803158630528D+03
 0.129410516218668D+03 0.000000000000000D+00 0.000000000000000D+00 0.129410516218668D+03
 0.129410516218668D+03 0.000000000000000D+00 0.000000000000000D+00 -.129410516218668D+03
 0.137514092523930D+03 -.122662477984747D+02 0.440506488926428D+02 -.345572733265164D+02
 0.905600809451998D+02 -.934655796578838D+01 -.382790638663884D+02 0.134635593412637D+02
 0.000000000000000D+00 0.000000000000000D+00 -.000000000000000D+00 0.000000000000000D+00
 0.307468589682051D+02 0.216128057642630D+02 -.577158502625445D+01 0.210937139852527D+02
 0.254771524833779D+03 0.000000000000000D+00 0.000000000000000D+00 0.254771524833779D+03
 0.132968366203252D+03 0.000000000000000D+00 0.000000000000000D+00 -.132968366203252D+03
 0.143497922211911D+03 -.274590839631274D+02 0.549403972253398D+02 -.345572733265164D+02
 0.894002174078119D+02 -.190760612811162D+02 -.313052611242404D+02 0.134635593412637D+02
 0.126618266512687D+03 0.281105546667058D+02 -.201487636999041D+02 0.121803158630528D+03
 0.282234849046208D+02 0.184245905775378D+02 -.348637240119525D+01 0.210937139852527D+02
0.566033634954D-04 0.000000000000D+00 0.000000000000D+00 0.484047486499D-04 0.000000000000D+00  6 -1 2 25 24 21 21 2 0.14994601D-02 0.26434891D+00 0.15009314D+05 0.15009314D+05 0.15009314D+05 0.12477918D+01  1  2  2  1  6  1       -1 0.106322698700D+00 0.100000000000D+01
0.807439147147D-05 0.298704155598D-05 -.217371819830D-06 0.484047486499D-04 0.000000000000D+00  6 -1 2 25 24 21 21 4 0.14994601D-02 0.26434891D+00 0.15009314D+05 0.15009314D+05 0.15009314D+05 0.12477918D+01  1  2  3  1  6  1       -1 0.236144486068D-01 0.100000000000D+01
0.227457192920D-05 0.000000000000D+00 0.000000000000D+00 0.484047486499D-04 0.000000000000D+00  6 -1 2 25 24 21 21 4 0.14994601D-02 0.26434891D+00 0.15009314D+05 0.15009314D+05 0.15009314D+05 0.12477918D+01  1  2 15  1  6  1       -1 0.665223653254D-02 0.100000000000D+01
-.369932461235D-03 0.000000000000D+00 -.271811290635D-04 0.484047486499D-04 0.000000000000D+00  6 -1 2 25 24 21 21 4 0.30371776D-02 0.26434891D+00 0.15009314D+05 0.15009314D+05 0.15009314D+05 0.12477918D+01  1  2  5  1  6  1       -1 -.391279673696D+00 0.100000000000D+01
-.265936088694D-04 0.000000000000D+00 -.207498009832D-05 0.484047486499D-04 0.000000000000D+00  6 21 2 25 24 1 21 4 0.30371776D-02 0.26434891D+00 0.15009314D+05 0.15009314D+05 0.15009314D+05 0.12477918D+01  3  4  5  4  5  1       -1 -.543672913674D+00 0.100000000000D+01
  </mgrwgt>
  </event>
  <event>
  5     66 0.43535451E-03 0.13454313E+03 0.75467711E-02 0.10756117E+00
       -1 -1    0    0    0  501 0.00000000E+00 0.00000000E+00 0.42282995E+03 0.42283007E+03 0.32000000E+00 0.0000E+00 0.9000E+01
        2 -1    0    0  502    0 0.00000000E+00 0.00000000E+00 -.28288833E+03 0.28288852E+03 0.32000000E+00 0.0000E+00 0.9000E+01
       25  1    1    2    0    0 -.15292568E+03 -.12294211E+03 -.15565184E+02 0.23317011E+03 0.12500000E+03 0.0000E+00 0.9000E+01
       24  1    1    2    0    0 0.27391539E+03 0.64095426E+02 0.16806829E+03 0.33741966E+03 0.80419002E+02 0.0000E+00 0.9000E+01
       21  1    1    2  502  501 -.12098971E+03 0.58846684E+02 -.12561494E+02 0.13512881E+03 0.75000000E+00 0.0000E+00 0.9000E+01
#aMCatNLO 1  0  0  5  2 0.34974515D+02 0.00000000D+00  -5  6  0 0.00000000D+00 0.00000000D+00 0.00000000D+00 0.00000000D+00 0.00000000D+00
  <mgrwgt>
 0.2040662012D+00   20    2    0
 0.345852231448233D+03 0.000000000000000D+00 0.000000000000000D+00 0.345852231448233D+03
 0.345852231448233D+03 -.000000000000000D+00 -.000000000000000D+00 -.345852231448233D+03
 0.241042974833791D+03 -.152925079409400D+03 -.122942402639426D+03 -.630539565578382D+02
 0.310253971944663D+03 0.273916160941743D+03 0.640950491339386D+02 0.103208878515973D+03
 0.140407516118012D+03 -.120991081532343D+03 0.588473535054874D+02 -.401549219581343D+02
 0.000000000000000D+00 0.000000000000000D+00 0.000000000000000D+00 -.000000000000000D+00
 0.345852231448233D+03 0.000000000000000D+00 0.000000000000000D+00 0.345852231448233D+03
 0.345852231448233D+03 -.000000000000000D+00 -.000000000000000D+00 -.345852231448233D+03
 0.244094166244411D+03 -.159183041628774D+03 -.119898669909018D+03 -.651308698422999D+02
 0.303245324982477D+03 0.266002408114553D+03 0.679441213488375D+02 0.100582435945601D+03
 0.519754548905341D+02 -.413311867537781D+02 0.220927759444172D+02 0.224742110800813D+02
 0.923895167790443D+02 -.654881797320009D+02 0.298617726157631D+02 -.579257771833828D+02
0.212257644895D-02 0.000000000000D+00 0.000000000000D+00 0.771385673842D-06 0.000000000000D+00  6 -1 2 25 24 21 21 2 0.65050784D-01 0.43521305D-01 0.10882642D+06 0.10882642D+06 0.10882642D+06 0.11602122D+01  1  2  2  3  6  5       21 0.942990423671D-01 0.100000000000D+01
-.413261449033D-04 0.112011436552D-03 -.815125245119D-05 0.771385673842D-06 0.000000000000D+00  6 -1 2 25 24 21 21 4 0.65050784D-01 0.43521305D-01 0.10882642D+06 0.10882642D+06 0.10882642D+06 0.11602122D+01  1  2  3  3  6  5       21 -.247140355742D-02 0.100000000000D+01
0.415397166640D-04 0.000000000000D+00 0.000000000000D+00 0.771385673842D-06 0.000000000000D+00  6 -1 2 25 24 21 21 4 0.65050784D-01 0.43521305D-01 0.10882642D+06 0.10882642D+06 0.10882642D+06 0.11602122D+01  1  2 15  3  6  5       21 0.248417566599D-02 0.100000000000D+01
0.464867602868D-03 0.000000000000D+00 0.000000000000D+00 0.774572573402D-06 0.000000000000D+00  6 -1 2 25 24 21 21 4 0.65050784D-01 0.43521305D-01 0.10245229D+06 0.10245229D+06 0.10245229D+06 0.11626063D+01  1  2 12  3  6  5       21 0.280470743048D-01 0.100000000000D+01
0.440822569157D-03 0.000000000000D+00 0.000000000000D+00 0.774572573402D-06 0.000000000000D+00  6 -1 2 25 24 21 21 4 0.65050784D-01 0.43521305D-01 0.10245229D+06 0.10245229D+06 0.10245229D+06 0.11626063D+01  1  2 12  3  6  5       21 0.265963540503D-01 0.100000000000D+01
-.729494524525D-03 0.000000000000D+00 0.000000000000D+00 0.771385673842D-06 0.000000000000D+00  6 -1 2 25 24 21 21 4 0.65050784D-01 0.43521305D-01 0.10882642D+06 0.10882642D+06 0.10882642D+06 0.11602122D+01  1  2  4  3  6  5       21 -.436255394074D-01 0.100000000000D+01
-.761694178945D-03 0.000000000000D+00 0.000000000000D+00 0.771385673842D-06 0.000000000000D+00  6 -1 2 25 24 21 21 4 0.65050784D-01 0.43521305D-01 0.10882642D+06 0.10882642D+06 0.10882642D+06 0.11602122D+01  1  2  5  3  6  5       21 -.455511567295D-01 0.100000000000D+01
0.219044060104D-02 0.000000000000D+00 -.000000000000D+00 0.771385673842D-06 0.000000000000D+00  6 -1 2 25 24 21 21 4 0.65050784D-01 0.43521305D-01 0.10882642D+06 0.10882642D+06 0.10882642D+06 0.11602122D+01  1  2  6  3  6  5       21 0.130993653205D+00 0.100000000000D+01
0.339221433012D-04 0.000000000000D+00 0.000000000000D+00 0.774572573402D-06 0.000000000000D+00  6 -1 2 25 24 1 -1 4 0.65050784D-01 0.43521305D-01 0.10245229D+06 0.10245229D+06 0.10245229D+06 0.11626063D+01  1  2 12  6  6  5       21 0.204664052276D-02 0.100000000000D+01
0.323685901371D-04 0.000000000000D+00 0.000000000000D+00 0.774572573402D-06 0.000000000000D+00  6 -1 2 25 24 1 -1 4 0.65050784D-01 0.43521305D-01 0.10245229D+06 0.10245229D+06 0.10245229D+06 0.11626063D+01  1  2 12  6  6  5       21 0.195290927377D-02 0.100000000000D+01
-.113047171630D-04 0.000000000000D+00 0.000000000000D+00 0.771385673842D-06 0.000000000000D+00  6 -1 2 25 24 1 -1 4 0.65050784D-01 0.43521305D-01 0.10882642D+06 0.10882642D+06 0.10882642D+06 0.11602122D+01  1  2  5  6  6  5       21 -.676049466449D-03 0.100000000000D+01
0.339221433012D-04 0.000000000000D+00 0.000000000000D+00 0.774572573402D-06 0.000000000000D+00  6 -1 2 25 24 2 -2 4 0.65050784D-01 0.43521305D-01 0.10245229D+06 0.10245229D+06 0.10245229D+06 0.11626063D+01  1  2 12  7  6  5       21 0.204664052276D-02 0.100000000000D+01
0.323685901371D-04 0.000000000000D+00 0.000000000000D+00 0.774572573402D-06 0.000000000000D+00  6 -1 2 25 24 2 -2 4 0.65050784D-01 0.43521305D-01 0.10245229D+06 0.10245229D+06 0.10245229D+06 0.11626063D+01  1  2 12  7  6  5       21 0.195290927377D-02 0.100000000000D+01
-.113047171630D-04 0.000000000000D+00 0.000000000000D+00 0.771385673842D-06 0.000000000000D+00  6 -1 2 25 24 2 -2 4 0.65050784D-01 0.43521305D-01 0.10882642D+06 0.10882642D+06 0.10882642D+06 0.11602122D+01  1  2  5  7  6  5       21 -.676049466449D-03 0.100000000000D+01
0.339221433012D-04 0.000000000000D+00 0.000000000000D+00 0.774572573402D-06 0.000000000000D+00  6 -1 2 25 24 3 -3 4 0.65050784D-01 0.43521305D-01 0.10245229D+06 0.10245229D+06 0.10245229D+06 0.11626063D+01  1  2 12  8  6  5       21 0.204664052276D-02 0.100000000000D+01
0.339221433012D-04 0.000000000000D+00 0.000000000000D+00 0.774572573402D-06 0.000000000000D+00  6 -1 2 25 24 4 -4 4 0.65050784D-01 0.43521305D-01 0.10245229D+06 0.10245229D+06 0.10245229D+06 0.11626063D+01  1  2 12  8  6  5       21 0.204664052276D-02 0.100000000000D+01
0.323685901371D-04 0.000000000000D+00 0.000000000000D+00 0.774572573402D-06 0.000000000000D+00  6 -1 2 25 24 3 -3 4 0.65050784D-01 0.43521305D-01 0.10245229D+06 0.10245229D+06 0.10245229D+06 0.11626063D+01  1  2 12  8  6  5       21 0.195290927377D-02 0.100000000000D+01
0.323685901371D-04 0.000000000000D+00 0.000000000000D+00 0.774572573402D-06 0.000000000000D+00  6 -1 2 25 24 4 -4 4 0.65050784D-01 0.43521305D-01 0.10245229D+06 0.10245229D+06 0.10245229D+06 0.11626063D+01  1  2 12  8  6  5       21 0.195290927377D-02 0.100000000000D+01
-.113047171630D-04 0.000000000000D+00 0.000000000000D+00 0.771385673842D-06 0.000000000000D+00  6 -1 2 25 24 3 -3 4 0.65050784D-01 0.43521305D-01 0.10882642D+06 0.10882642D+06 0.10882642D+06 0.11602122D+01  1  2  5  8  6  5       21 -.676049466449D-03 0.100000000000D+01
-.113047171630D-04 0.000000000000D+00 0.000000000000D+00 0.771385673842D-06 0.000000000000D+00  6 -1 2 25 24 4 -4 4 0.65050784D-01 0.43521305D-01 0.10882642D+06 0.10882642D+06 0.10882642D+06 0.11602122D+01  1  2  5  8  6  5       21 -.676049466449D-03 0.100000000000D+01
  </mgrwgt>
  </event>
  <event>
  5     66 0.43535451E-03 0.39132050E+02 0.75467711E-02 0.90572680E-01
       -1 -1    0    0    0  501 0.00000000E+00 0.00000000E+00 0.13161886E+04 0.13161886E+04 0.32000000E+00 0.0000E+00 0.9000E+01
        2 -1    0    0  502    0 0.00000000E+00 0.00000000E+00 -.63166430E+03 0.63166438E+03 0.32000000E+00 0.0000E+00 0.9000E+01
       25  1    1    2    0    0 -.15856049E+02 0.19529377E+03 -.22334956E+03 0.32233693E+03 0.12500000E+03 0.0000E+00 0.9000E+01
       24  1    1    2    0    0 -.15620053E+02 -.21854397E+03 -.32052391E+03 0.39649496E+03 0.80419002E+02 0.0000E+00 0.9000E+01
       21  1    1    2  502  501 0.31476102E+02 0.23250198E+02 0.12283978E+04 0.12290211E+04 0.75000000E+00 0.0000E+00 0.9000E+01
#aMCatNLO 1  0  0  2  1 0.93898279D+02 0.00000000D+00  -5  6  0 0.00000000D+00 0.00000000D+00 0.00000000D+00 0.00000000D+00 0.00000000D+00
  <mgrwgt>
 0.1832549470D+01    5    4    0
 0.911805605321830D+03 0.000000000000000D+00 0.000000000000000D+00 0.911805605321830D+03
 0.911805605321830D+03 0.000000000000000D+00 0.000000000000000D+00 -.911805605321830D+03
 0.428135814637794D+03 -.158560518134171D+02 0.195293772803045D+03 -.359561126515103D+03
 0.543822308783565D+03 -.156200568717739D+02 -.218543975946218D+03 -.491192459202356D+03
 0.851653087222300D+03 0.314761086851910D+02 0.232502031431735D+02 0.850753585717459D+03
 0.000000000000000D+00 -.000000000000000D+00 0.000000000000000D+00 -.000000000000000D+00
 0.148046147708924D+04 0.000000000000000D+00 0.000000000000000D+00 0.148046147708924D+04
 0.198847559137844D+04 0.000000000000000D+00 0.000000000000000D+00 -.198847559137844D+04
 0.444778482201390D+03 0.215990970811848D+03 0.791618282780109D+02 -.359561126515103D+03
 0.703766285583153D+03 0.315740882125943D+03 -.384522342843963D+03 -.491192459202356D+03
 0.102805913049947D+04 0.530729795615484D+03 -.226825475284751D+03 0.850753585717459D+03
 0.129233317018366D+04 -.106246164855328D+04 0.532185989850703D+03 -.508014114289202D+03
 0.911805605321830D+03 0.000000000000000D+00 0.000000000000000D+00 0.911805605321830D+03
 0.911805605321830D+03 0.000000000000000D+00 0.000000000000000D+00 -.911805605321830D+03
 0.428135814637794D+03 -.158560518134171D+02 0.195293772803045D+03 -.359561126515103D+03
 0.543822308783565D+03 -.156200568717739D+02 -.218543975946218D+03 -.491192459202356D+03
 0.000000000000000D+00 -.000000000000000D+00 0.000000000000000D+00 -.000000000000000D+00
 0.851653087222300D+03 0.314761086851910D+02 0.232502031431735D+02 0.850753585717459D+03
 0.148046147708924D+04 0.000000000000000D+00 0.000000000000000D+00 0.148046147708924D+04
 0.198847559137844D+04 0.000000000000000D+00 0.000000000000000D+00 -.198847559137844D+04
 0.444778482201390D+03 0.215990970811848D+03 0.791618282780109D+02 -.359561126515103D+03
 0.703766285583153D+03 0.315740882125943D+03 -.384522342843963D+03 -.491192459202356D+03
 0.129233317018366D+04 -.106246164855328D+04 0.532185989850703D+03 -.508014114289202D+03
 0.102805913049947D+04 0.530729795615484D+03 -.226825475284751D+03 0.850753585717459D+03
0.685145262901D+00 0.000000000000D+00 0.000000000000D+00 0.748729560416D-04 0.000000000000D+00  6 -1 2 25 24 21 21 2 0.20249056D+00 0.97179133D-01 0.63740960D+05 0.63740960D+05 0.63740960D+05 0.11819776D+01  1  2  2  2  6  2        2 0.851002607825D+00 0.100000000000D+01
0.307169547394D+00 0.361561088563D-01 -.263113821243D-02 0.748729560416D-04 0.000000000000D+00  6 -1 2 25 24 21 21 4 0.20249056D+00 0.97179133D-01 0.63740960D+05 0.63740960D+05 0.63740960D+05 0.11819776D+01  1  2  3  2  6  2        2 0.533021717212D+00 0.100000000000D+01
0.672478549541D-02 0.000000000000D+00 0.000000000000D+00 0.748729560416D-04 0.000000000000D+00  6 -1 2 25 24 21 21 4 0.20249056D+00 0.97179133D-01 0.63740960D+05 0.63740960D+05 0.63740960D+05 0.11819776D+01  1  2 15  2  6  2        2 0.116693101353D-01 0.100000000000D+01
0.131556043691D+01 0.000000000000D+00 -.510611800485D+00 0.748729560416D-04 0.000000000000D+00  6 -1 2 25 24 21 21 4 0.20249056D+00 0.28941513D+00 0.63740960D+05 0.63740960D+05 0.63740960D+05 0.11819776D+01  1  2  5  2  6  2        2 0.416510911938D+00 0.100000000000D+01
0.189005714484D+00 0.000000000000D+00 -.633141009291D-01 0.748729560416D-04 0.000000000000D+00  6 -1 21 25 24 -2 21 4 0.20249056D+00 0.28941513D+00 0.63740960D+05 0.63740960D+05 0.63740960D+05 0.11819776D+01  3  4  5  5  5  2        2 0.203449224684D-01 0.100000000000D+01
  </mgrwgt>
  </event>
  <event>
  6     66 0.43535451E-03 0.28533811E+02 0.75467711E-02 0.12304471E+00
       -1 -1    0    0    0  503 0.00000000E+00 0.00000000E+00 0.59398145E+02 0.59399007E+02 0.32000000E+00 0.0000E+00 0.9000E+01
        2 -1    0    0  502    0 0.00000000E+00 0.00000000E+00 -.36845336E+03 0.36845349E+03 0.32000000E+00 0.0000E+00 0.9000E+01
       25  1    1    2    0    0 -.38797851E+02 -.24535273E+02 -.24933517E+03 0.28266637E+03 0.12500000E+03 0.0000E+00 0.9000E+01
       24  1    1    2    0    0 0.89287784E+01 0.25778690E+02 -.64214274E+02 0.10646574E+03 0.80419002E+02 0.0000E+00 0.9000E+01
       21  1    1    2  502  501 0.30775683E+02 -.74386274E+01 0.60072416E+01 0.32235467E+02 0.75000000E+00 0.0000E+00 0.9000E+01
       21  1    1    2  501  503 -.90661083E+00 0.61952099E+01 -.15130124E+01 0.64849268E+01 0.75000000E+00 0.0000E+00 0.9000E+01
#aMCatNLO 2  0  0  1  1 0.62611955D+01 0.00000000D+00  -5  6  0 0.00000000D+00 0.00000000D+00 0.00000000D+00 0.00000000D+00 0.00000000D+00
  <mgrwgt>
 0.1122412491D+00    2    2    0
 0.143987175067356D+03 0.000000000000000D+00 0.000000000000000D+00 0.143987175067356D+03
 0.143987175067356D+03 0.000000000000000D+00 0.000000000000000D+00 -.143987175067356D+03
 0.146919009791936D+03 -.392624561670006D+02 -.213706900678263D+02 -.629440114705303D+02
 0.877304729391398D+02 0.865255260856707D+01 0.276601307191244D+02 0.197350051865088D+02
 0.533248674036365D+02 0.306099035584336D+02 -.628944065129817D+01 0.432090062840216D+02
 0.000000000000000D+00 -.000000000000000D+00 0.000000000000000D+00 0.000000000000000D+00
 0.150293710674832D+03 0.000000000000000D+00 0.000000000000000D+00 0.150293710674832D+03
 0.145583680298215D+03 0.000000000000000D+00 0.000000000000000D+00 -.145583680298215D+03
 0.147289873248352D+03 -.387993915854625D+02 -.245349830672689D+02 -.629440114705303D+02
 0.871833927737032D+02 0.892785502362177D+01 0.257788866347818D+02 0.197350051865088D+02
 0.535691421488111D+02 0.307781473901317D+02 -.743911350486340D+01 0.432090062840216D+02
 0.783498280218156D+01 -.906610828291006D+00 0.619520993735053D+01 0.471003037661749D+01
-.878997238865D-04 0.000000000000D+00 0.000000000000D+00 0.244538348908D-04 0.000000000000D+00  6 -1 2 25 24 21 21 4 0.87537293D-02 0.56056734D-01 0.15560555D+05 0.15560555D+05 0.15560555D+05 0.12460101D+01  1  2  8  1  6  1       -1 -.151812959128D+00 0.100000000000D+01
0.166138875907D-03 0.000000000000D+00 0.000000000000D+00 0.244538348908D-04 0.168840661552D-05  6 -1 2 25 24 21 21 4 0.91371364D-02 0.56678282D-01 0.16385139D+05 0.16385139D+05 0.16385139D+05 0.12434732D+01  1  2  1  1  6  1       -1 0.264054208247D+00 0.100000000000D+01
  </mgrwgt>
  </event>
  <event>
  6     66 0.43535451E-03 0.20287987E+02 0.75467711E-02 0.11968691E+00
       -1 -1    0    0    0  503 0.00000000E+00 0.00000000E+00 0.28620315E+02 0.28622104E+02 0.32000000E+00 0.0000E+00 0.9000E+01
        2 -1    0    0  502    0 0.00000000E+00 0.00000000E+00 -.16571138E+04 0.16571138E+04 0.32000000E+00 0.0000E+00 0.9000E+01
       25  1    1    2    0    0 0.56130660E+02 -.68700701E+01 -.95780039E+03 0.96757658E+03 0.12500000E+03 0.0000E+00 0.9000E+01
       24  1    1    2    0    0 -.18410759E+02 0.60771359E+02 -.58520040E+03 0.59410339E+03 0.80419002E+02 0.0000E+00 0.9000E+01
       21  1    1    2  502  501 -.14158397E+02 -.27189915E+02 -.82837761E+02 0.88331245E+02 0.75000000E+00 0.0000E+00 0.9000E+01
       21  1    1    2  501  503 -.23561504E+02 -.26711374E+02 -.26548959E+01 0.35724683E+02 0.75000000E+00 0.0000E+00 0.9000E+01
#aMCatNLO 2  0  0  1  5 0.35618001D+02 0.00000000D+00  -5  6  0 0.00000000D+00 0.00000000D+00 0.00000000D+00 0.00000000D+00 0.00000000D+00
  <mgrwgt>
 0.4941696758D-01    2    2    0
 0.139568414844581D+03 0.000000000000000D+00 0.000000000000000D+00 0.139568414844581D+03
 0.139568414844581D+03 0.000000000000000D+00 0.000000000000000D+00 -.139568414844581D+03
 0.136651663272303D+03 0.445200608754635D+02 -.200320441445488D+02 -.257945432625351D+02
 0.990429918216614D+02 -.268802833554465D+02 0.511701572154810D+02 0.116775506379262D+01
 0.434421745951970D+02 -.176397775200169D+02 -.311381130709322D+02 0.246267881987425D+02
 0.000000000000000D+00 -.000000000000000D+00 -.000000000000000D+00 0.000000000000000D+00
 0.333185255360776D+03 0.000000000000000D+00 0.000000000000000D+00 0.333185255360776D+03
 0.142347759560246D+03 0.000000000000000D+00 0.000000000000000D+00 -.142347759560246D+03
 0.139600592383415D+03 0.561319966854722D+02 -.686774197096529D+01 -.257945432625351D+02
 0.102473730670262D+03 -.184097670128187D+02 0.607730725712925D+02 0.116775506379262D+01
 0.393257688093709D+02 -.141607252181308D+02 -.271939562542664D+02 0.246267881987425D+02
 0.194132923057974D+03 -.235615044545227D+02 -.267113743460607D+02 0.190837495800530D+03
-.151374364131D-03 0.000000000000D+00 0.000000000000D+00 0.186512871066D-04 0.000000000000D+00  6 -1 2 25 24 21 21 4 0.47243341D-02 0.24996174D+00 0.23400115D+05 0.23400115D+05 0.23400115D+05 0.12263890D+01  1  2 13  1  6  1       -1 -.874807409430D-01 0.100000000000D+01
0.221839624061D-03 0.000000000000D+00 0.000000000000D+00 0.190259885716D-04 0.158209548850D-06  6 -1 2 25 24 21 21 4 0.44032432D-02 0.25493944D+00 0.23400115D+05 0.23400115D+05 0.23400115D+05 0.12263890D+01  1  2  1  1  6  1       -1 0.136897708521D+00 0.100000000000D+01
  </mgrwgt>
  </event>
  <event>
  5     66 0.43535451E-03 0.74815267E+02 0.75467711E-02 0.10684258E+00
       -1 -1    0    0    0  501 0.00000000E+00 0.00000000E+00 0.98009092E+03 0.98009097E+03 0.32000000E+00 0.0000E+00 0.9000E+01
        2 -1    0    0  502    0 0.00000000E+00 0.00000000E+00 -.38914972E+03 0.38914985E+03 0.32000000E+00 0.0000E+00 0.9000E+01
       25  1    1    2    0    0 0.35829968E+02 -.36381551E+02 -.93659947E+02 0.16433073E+03 0.12500000E+03 0.0000E+00 0.9000E+01
       24  1    1    2    0    0 0.30416409E+02 0.71148445E+02 -.24661628E+03 0.27069183E+03 0.80419002E+02 0.0000E+00 0.9000E+01
       21  1    1    2  502  501 -.66246377E+02 -.34766895E+02 0.93121742E+03 0.93421827E+03 0.75000000E+00 0.0000E+00 0.9000E+01
#aMCatNLO 1  0  0  5  2 0.44789293D+01 0.00000000D+00  -5  6  0 0.00000000D+00 0.00000000D+00 0.00000000D+00 0.00000000D+00 0.00000000D+00
  <mgrwgt>
 0.1548430619D+00   10    2    0
 0.617577715867595D+03 0.000000000000000D+00 0.000000000000000D+00 0.617577715867595D+03
 0.617577715867595D+03 -.000000000000000D+00 -.000000000000000D+00 -.617577715867595D+03
 0.226980304381774D+03 0.358299775043846D+02 -.363815453463407D+02 -.182449046167664D+03
 0.418067393849593D+03 0.304164272472102D+02 0.711484546628352D+02 -.402896845604958D+03
 0.590107733503824D+03 -.662464047515942D+02 -.347669093164942D+02 0.585345891772622D+03
 0.000000000000000D+00 0.000000000000000D+00 0.000000000000000D+00 0.000000000000000D+00
 0.617577715867595D+03 0.000000000000000D+00 0.000000000000000D+00 0.617577715867595D+03
 0.617577715867595D+03 -.000000000000000D+00 -.000000000000000D+00 -.617577715867595D+03
 0.204559293226112D+03 0.326068587201106D+02 -.380730768175100D+02 -.153969925736234D+03
 0.367354121115316D+03 0.245502058100838D+02 0.680697911564939D+02 -.351063563009079D+03
 0.379505724186028D+03 -.106295314882491D+03 -.214078248636546D+03 0.294781960412612D+03
 0.283736293207735D+03 0.491382503522969D+02 0.184081534297562D+03 0.210251528332700D+03
0.208481618398D-01 0.000000000000D+00 0.000000000000D+00 0.335125848785D-04 0.000000000000D+00  6 -1 2 25 24 21 21 2 0.15078323D+00 0.59869202D-01 0.25831291D+05 0.25831291D+05 0.25831291D+05 0.12217775D+01  1  2  2  3  6  5       21 0.114110512214D+00 0.100000000000D+01
0.294489313976D-02 0.110018772624D-02 -.800624309120D-04 0.335125848785D-04 0.000000000000D+00  6 -1 2 25 24 21 21 4 0.15078323D+00 0.59869202D-01 0.25831291D+05 0.25831291D+05 0.25831291D+05 0.12217775D+01  1  2  3  3  6  5       21 0.240608890082D-01 0.100000000000D+01
0.847556621707D-03 0.000000000000D+00 0.000000000000D+00 0.335125848785D-04 0.000000000000D+00  6 -1 2 25 24 21 21 4 0.15078323D+00 0.59869202D-01 0.25831291D+05 0.25831291D+05 0.25831291D+05 0.12217775D+01  1  2 15  3  6  5       21 0.692485765534D-02 0.100000000000D+01
-.470339665575D-02 0.000000000000D+00 0.000000000000D+00 0.335125848785D-04 0.000000000000D+00  6 -1 2 25 24 21 21 4 0.15078323D+00 0.59869202D-01 0.25831291D+05 0.25831291D+05 0.25831291D+05 0.12217775D+01  1  2  4  3  6  5       21 -.384285267834D-01 0.100000000000D+01
-.102865747993D-01 0.000000000000D+00 0.000000000000D+00 0.335125848785D-04 0.000000000000D+00  6 -1 2 25 24 21 21 4 0.15078323D+00 0.59869202D-01 0.25831291D+05 0.25831291D+05 0.25831291D+05 0.12217775D+01  1  2  5  3  6  5       21 -.840452005465D-01 0.100000000000D+01
0.175955288223D-01 0.000000000000D+00 -.000000000000D+00 0.335125848785D-04 0.000000000000D+00  6 -1 2 25 24 21 21 4 0.15078323D+00 0.59869202D-01 0.25831291D+05 0.25831291D+05 0.25831291D+05 0.12217775D+01  1  2  6  3  6  5       21 0.143762114936D+00 0.100000000000D+01
-.353153340231D-03 0.000000000000D+00 0.000000000000D+00 0.335125848785D-04 0.000000000000D+00  6 -1 2 25 24 1 -1 4 0.15078323D+00 0.59869202D-01 0.25831291D+05 0.25831291D+05 0.25831291D+05 0.12217775D+01  1  2  5  6  6  5       21 -.288539614814D-02 0.100000000000D+01
-.353153340231D-03 0.000000000000D+00 0.000000000000D+00 0.335125848785D-04 0.000000000000D+00  6 -1 2 25 24 2 -2 4 0.15078323D+00 0.59869202D-01 0.25831291D+05 0.25831291D+05 0.25831291D+05 0.12217775D+01  1  2  5  7  6  5       21 -.288539614814D-02 0.100000000000D+01
-.353153340231D-03 0.000000000000D+00 0.000000000000D+00 0.335125848785D-04 0.000000000000D+00  6 -1 2 25 24 3 -3 4 0.15078323D+00 0.59869202D-01 0.25831291D+05 0.25831291D+05 0.25831291D+05 0.12217775D+01  1  2  5  8  6  5       21 -.288539614814D-02 0.100000000000D+01
-.353153340231D-03 0.000000000000D+00 0.000000000000D+00 0.335125848785D-04 0.000000000000D+00  6 -1 2 25 24 4 -4 4 0.15078323D+00 0.59869202D-01 0.25831291D+05 0.25831291D+05 0.25831291D+05 0.12217775D+01  1  2  5  8  6  5       21 -.288539614814D-02 0.100000000000D+01
  </mgrwgt>
  </event>
  <event>
  5     66 0.43535451E-03 0.30536385E+02 0.75467711E-02 0.12200597E+00
       -1 -1    0    0    0  501 0.00000000E+00 0.00000000E+00 0.70571038E+01 0.70643551E+01 0.32000000E+00 0.0000E+00 0.9000E+01
        2 -1    0    0  502    0 -.00000000E+00 -.00000000E+00 -.29346104E+04 0.29346104E+04 0.32000000E+00 0.0000E+00 0.9000E+01
       25  1    1    2    0    0 -.34833145E+02 -.67788250E+02 -.10805508E+04 0.10904236E+04 0.12500000E+03 0.0000E+00 0.9000E+01
       24  1    1    2    0    0 0.14503145E+02 0.45010432E+02 -.12559164E+04 0.12593766E+04 0.80419002E+02 0.0000E+00 0.9000E+01
       21  1    1    2  502  501 0.20329999E+02 0.22777818E+02 -.59108604E+03 0.59187448E+03 0.75000000E+00 0.0000E+00 0.9000E+01
#aMCatNLO 1  0  0  5  5 0.11015063D+00 0.00000000D+00  -5  6  0 0.00000000D+00 0.00000000D+00 0.00000000D+00 0.00000000D+00 0.00000000D+00
  <mgrwgt>
 0.8893491916D-01   15    2    0
 0.143946313727986D+03 0.000000000000000D+00 0.000000000000000D+00 0.143946313727986D+03
 0.143946313727986D+03 -.000000000000000D+00 -.000000000000000D+00 -.143946313727986D+03
 0.153884462120437D+03 -.348353717264002D+02 -.677907450428999D+02 0.473955635614589D+02
 0.969593611669791D+02 0.145017418338042D+02 0.450088596181324D+02 -.264159762870712D+02
 0.370488041685552D+02 0.203336298925960D+02 0.227818854247675D+02 -.209795872743877D+02
 0.000000000000000D+00 0.000000000000000D+00 0.000000000000000D+00 0.000000000000000D+00
 0.143946313727986D+03 0.000000000000000D+00 0.000000000000000D+00 0.143946313727986D+03
 0.143946313727986D+03 -.000000000000000D+00 -.000000000000000D+00 -.143946313727986D+03
 0.153882535586076D+03 -.348335152028243D+02 -.677886649859884D+02 0.473936480599674D+02
 0.969604733542069D+02 0.145029116042712D+02 0.450101702339394D+02 -.264171832187274D+02
 0.360617303630835D+02 0.197433372820598D+02 0.221347729874458D+02 -.205109935044796D+02
 0.987888152604877D+00 0.587266316493396D+00 0.643721764603194D+00 -.465471336760391D+00
0.127453341847D-04 0.000000000000D+00 0.000000000000D+00 0.226598050359D-04 0.000000000000D+00  6 -1 2 25 24 21 21 2 0.10862674D-02 0.45147908D+00 0.18256305D+05 0.18256305D+05 0.18256305D+05 0.12382115D+01  1  2  2  3  6  5       21 0.852507530555D-02 0.100000000000D+01
0.124924849744D-05 0.672589763286D-06 -.489454391928D-07 0.226598050359D-04 0.000000000000D+00  6 -1 2 25 24 21 21 4 0.10862674D-02 0.45147908D+00 0.18256305D+05 0.18256305D+05 0.18256305D+05 0.12382115D+01  1  2  3  3  6  5       21 0.128110734205D-02 0.100000000000D+01
0.330671102160D-06 0.000000000000D+00 0.000000000000D+00 0.226598050359D-04 0.000000000000D+00  6 -1 2 25 24 21 21 4 0.10862674D-02 0.45147908D+00 0.18256305D+05 0.18256305D+05 0.18256305D+05 0.12382115D+01  1  2 15  3  6  5       21 0.339104011450D-03 0.100000000000D+01
-.236585064104D-01 0.000000000000D+00 0.000000000000D+00 0.226598050359D-04 0.000000000000D+00  6 -1 2 25 24 21 21 4 0.10862674D-02 0.45147908D+00 0.18256305D+05 0.18256305D+05 0.18256305D+05 0.12382115D+01  1  2  4  3  6  5       21 -.242618552885D+02 0.100000000000D+01
-.241114570845D-01 0.000000000000D+00 0.000000000000D+00 0.226598050359D-04 0.000000000000D+00  6 -1 2 25 24 21 21 4 0.10862674D-02 0.45147908D+00 0.18256305D+05 0.18256305D+05 0.18256305D+05 0.12382115D+01  1  2  5  3  6  5       21 -.247263572954D+02 0.100000000000D+01
0.251641386693D-01 0.000000000000D+00 -.000000000000D+00 0.226598050359D-04 0.000000000000D+00  6 -1 2 25 24 21 21 4 0.10862674D-02 0.45147908D+00 0.18256305D+05 0.18256305D+05 0.18256305D+05 0.12382115D+01  1  2  6  3  6  5       21 0.258058847952D+02 0.100000000000D+01
0.226840932838D-01 0.000000000000D+00 0.000000000000D+00 0.226598050359D-04 0.153027864419D-01  6 -1 2 25 24 21 21 4 0.10862674D-02 0.45147908D+00 0.18255619D+05 0.18255619D+05 0.18255619D+05 0.12382133D+01  1  2 11  3  6  5       21 0.232627313668D+02 0.100000000000D+01
-.493413030574D-04 0.000000000000D+00 0.000000000000D+00 0.226598050359D-04 0.000000000000D+00  6 -1 2 25 24 1 -1 4 0.10862674D-02 0.45147908D+00 0.18256305D+05 0.18256305D+05 0.18256305D+05 0.12382115D+01  1  2  5  6  6  5       21 -.505996250887D-01 0.100000000000D+01
0.488290848399D-04 0.000000000000D+00 0.000000000000D+00 0.226598050359D-04 0.658493691001D-04  6 -1 2 25 24 1 -1 4 0.10862674D-02 0.45147908D+00 0.18255619D+05 0.18255619D+05 0.18255619D+05 0.12382133D+01  1  2 11  6  6  5       21 0.500746434653D-01 0.100000000000D+01
-.493413030574D-04 0.000000000000D+00 0.000000000000D+00 0.226598050359D-04 0.000000000000D+00  6 -1 2 25 24 2 -2 4 0.10862674D-02 0.45147908D+00 0.18256305D+05 0.18256305D+05 0.18256305D+05 0.12382115D+01  1  2  5  7  6  5       21 -.505996250887D-01 0.100000000000D+01
0.489961692696D-04 0.000000000000D+00 0.000000000000D+00 0.226598050359D-04 0.660722860602D-04  6 -1 2 25 24 2 -2 4 0.10862674D-02 0.45147908D+00 0.18255619D+05 0.18255619D+05 0.18255619D+05 0.12382133D+01  1  2 11  7  6  5       21 0.502459899747D-01 0.100000000000D+01
-.493413030574D-04 0.000000000000D+00 0.000000000000D+00 0.226598050359D-04 0.000000000000D+00  6 -1 2 25 24 3 -3 4 0.10862674D-02 0.45147908D+00 0.18256305D+05 0.18256305D+05 0.18256305D+05 0.12382115D+01  1  2  5  8  6  5       21 -.505996250887D-01 0.100000000000D+01
-.493413030574D-04 0.000000000000D+00 0.000000000000D+00 0.226598050359D-04 0.000000000000D+00  6 -1 2 25 24 4 -4 4 0.10862674D-02 0.45147908D+00 0.18256305D+05 0.18256305D+05 0.18256305D+05 0.12382115D+01  1  2  5  8  6  5       21 -.505996250887D-01 0.100000000000D+01
0.489824888848D-04 0.000000000000D+00 0.000000000000D+00 0.226598050359D-04 0.660537669960D-04  6 -1 2 25 24 3 -3 4 0.10862674D-02 0.45147908D+00 0.18255619D+05 0.18255619D+05 0.18255619D+05 0.12382133D+01  1  2 11  8  6  5       21 0.502319606233D-01 0.100000000000D+01
0.489824888848D-04 0.000000000000D+00 0.000000000000D+00 0.226598050359D-04 0.660537669960D-04  6 -1 2 25 24 4 -4 4 0.10862674D-02 0.45147908D+00 0.18255619D+05 0.18255619D+05 0.18255619D+05 0.12382133D+01  1  2 11  8  6  5       21 0.502319606233D-01 0.100000000000D+01
  </mgrwgt>
  </event>
  <event>
  6     66 0.43535451E-03 0.55232649E+02 0.75467711E-02 0.11738623E+00
       21 -1    0    0  503  501 0.00000000E+00 0.00000000E+00 0.14403249E+03 0.14403444E+03 0.75000000E+00 0.0000E+00 0.9000E+01
        2 -1    0    0  502    0 0.00000000E+00 0.00000000E+00 -.27597172E+03 0.27597191E+03 0.32000000E+00 0.0000E+00 0.9000E+01
       25  1    1    2    0    0 -.74841343E+02 0.66669315E+02 -.89550875E+02 0.18354940E+03 0.12500000E+03 0.0000E+00 0.9000E+01
       24  1    1    2    0    0 0.83336066E+02 -.92564992E+01 -.90510455E+02 0.14727505E+03 0.80419002E+02 0.0000E+00 0.9000E+01
        1  1    1    2  503    0 -.10271386E+02 0.31667477E+01 -.14898936E+01 0.10855959E+02 0.32000000E+00 0.0000E+00 0.9000E+01
       21  1    1    2  502  501 0.17766631E+01 -.60579563E+02 0.49611992E+02 0.78325936E+02 0.75000000E+00 0.0000E+00 0.9000E+01
#aMCatNLO 2  0  0  1  2 0.10748473D+02 0.00000000D+00  -5  6  0 0.00000000D+00 0.00000000D+00 0.00000000D+00 0.00000000D+00 0.00000000D+00
  <mgrwgt>
 0.1060135899D-01    1    2    0
 0.193824330145931D+03 0.000000000000000D+00 0.000000000000000D+00 0.193824330145931D+03
 0.193824330145931D+03 0.000000000000000D+00 0.000000000000000D+00 -.193824330145931D+03
 0.166123356291398D+03 -.792078712598173D+02 0.680162898744159D+02 -.327393791591480D+02
 0.122702393898066D+03 0.800558902954403D+02 -.824464832830252D+01 -.459536910040171D+02
 0.000000000000000D+00 -.000000000000000D+00 0.000000000000000D+00 0.000000000000000D+00
 0.988229101023982D+02 -.848019035623070D+00 -.597716415461134D+02 0.786930701631651D+02
 0.200412660215409D+03 0.000000000000000D+00 0.000000000000000D+00 0.200412660215409D+03
 0.198332831635605D+03 0.000000000000000D+00 0.000000000000000D+00 -.198332831635605D+03
 0.163532826993616D+03 -.748413201372969D+02 0.666700484243424D+02 -.327393791591480D+02
 0.124938115445723D+03 0.833360803810051D+02 -.925595627670431D+01 -.459536910040171D+02
 0.109478468230740D+02 -.102713860883991D+02 0.316674769490165D+01 0.207982857980389D+01
 0.993267025886005D+02 0.177662584469088D+01 -.605808398425397D+02 0.786930701631651D+02
0.172287008589D-05 0.000000000000D+00 0.000000000000D+00 0.682039426112D-05 0.499490742610D-08  6 21 2 25 24 1 21 4 0.22158749D-01 0.42456854D-01 0.30233810D+05 0.30233810D+05 0.30233810D+05 0.12145447D+01  1  2  1  4  5  1       -1 0.106013589854D-01 0.100000000000D+01
  </mgrwgt>
  </event>
  <event>
  6     66 0.43535451E-03 0.14687959E+02 0.75467711E-02 0.12290820E+00
       21 -1    0    0  503  501 0.00000000E+00 0.00000000E+00 0.28740247E+02 0.28750032E+02 0.75000000E+00 0.0000E+00 0.9000E+01
        2 -1    0    0  502    0 0.00000000E+00 0.00000000E+00 -.10634559E+04 0.10634559E+04 0.32000000E+00 0.0000E+00 0.9000E+01
       25  1    1    2    0    0 0.18278294E+02 -.29748229E+01 -.61270971E+03 0.62560462E+03 0.12500000E+03 0.0000E+00 0.9000E+01
       24  1    1    2    0    0 -.46517056E+02 0.98872991E+01 -.35313693E+03 0.36528688E+03 0.80419002E+02 0.0000E+00 0.9000E+01
        1  1    1    2  503    0 0.21343541E+02 0.70167251E+01 0.72585409E+01 0.23612920E+02 0.32000000E+00 0.0000E+00 0.9000E+01
       21  1    1    2  502  501 0.68952209E+01 -.13929201E+02 -.76127545E+02 0.77701560E+02 0.75000000E+00 0.0000E+00 0.9000E+01
#aMCatNLO 2  0  0  1  5 0.67366203D+01 0.00000000D+00  -5  6  0 0.00000000D+00 0.00000000D+00 0.00000000D+00 0.00000000D+00 0.00000000D+00
  <mgrwgt>
 0.6780279773D+00    1    2    0
 0.117978945362401D+03 0.000000000000000D+00 0.000000000000000D+00 0.117978945362401D+03
 0.117978945362401D+03 0.000000000000000D+00 0.000000000000000D+00 -.117978945362401D+03
 0.129082390670722D+03 0.298266073342482D+02 0.831546085343278D+00 -.121221123285261D+02
 0.909507959804637D+02 -.381551237710998D+02 0.126432328275405D+02 0.137537823448701D+02
 0.000000000000000D+00 0.000000000000000D+00 0.000000000000000D+00 0.000000000000000D+00
 0.159247040736160D+02 0.832851643685159D+01 -.134747789128838D+02 -.163167001634396D+01
 0.255958134399420D+03 0.000000000000000D+00 0.000000000000000D+00 0.255958134399420D+03
 0.119430707234263D+03 0.000000000000000D+00 0.000000000000000D+00 -.119430707234263D+03
 0.126943535814763D+03 0.182733384947690D+02 -.296661054135661D+01 -.121221123285261D+02
 0.944375057674287D+02 -.465208425058755D+02 0.989298867663685D+01 0.137537823448701D+02
 0.138363721926354D+03 0.213435410664882D+02 0.701672514205749D+01 0.136527427165157D+03
 0.156440781251375D+02 0.690396294461829D+01 -.139431032773377D+02 -.163167001634396D+01
0.280892733218D-04 0.000000000000D+00 0.000000000000D+00 0.984290986575D-04 0.191695427941D-06  6 21 2 25 24 1 21 4 0.44223261D-02 0.16360910D+00 0.16617802D+05 0.16617802D+05 0.16617802D+05 0.12427832D+01  1  2  1  4  5  1       -1 0.678027977333D+00 0.100000000000D+01
  </mgrwgt>
  </event>
  <event>
  5     66 0.43535451E-03 0.54713490E+02 0.75467711E-02 0.11615382E+00
       -1 -1    0    0    0  501 0.00000000E+00 0.00000000E+00 0.72936976E+03 0.72936983E+03 0.32000000E+00 0.0000E+00 0.9000E+01
        2 -1    0    0  502    0 0.00000000E+00 0.00000000E+00 -.67517501E+02 0.67518259E+02 0.32000000E+00 0.0000E+00 0.9000E+01
       25  1    1    2    0    0 0.33063719E+02 -.14122953E+03 0.12429339E+03 0.22828236E+03 0.12500000E+03 0.0000E+00 0.9000E+01
       24  1    1    2    0    0 0.21156468E+01 0.99004056E+02 0.32731095E+03 0.35129183E+03 0.80419002E+02 0.0000E+00 0.9000E+01
       21  1    1    2  502  501 -.35179366E+02 0.42225473E+02 0.21024792E+03 0.21731389E+03 0.75000000E+00 0.0000E+00 0.9000E+01
#aMCatNLO 1  0  0  5  2 0.19650293D+02 0.00000000D+00  -5  6  0 0.00000000D+00 0.00000000D+00 0.00000000D+00 0.00000000D+00 0.00000000D+00
  <mgrwgt>
 0.4603675743D-01   20    2    0
 0.221913391422612D+03 0.000000000000000D+00 0.000000000000000D+00 0.221913391422612D+03
 0.221913391422612D+03 -.000000000000000D+00 -.000000000000000D+00 -.221913391422612D+03
 0.224529654346444D+03 0.330645713305757D+02 -.141230551134675D+03 -.117257115902850D+03
 0.142642196560098D+03 0.211618795907192D+01 0.990034063502794D+02 0.638234092217142D+02
 0.766549319386833D+02 -.351807592896476D+02 0.422271447843960D+02 0.534337066811362D+02
 0.000000000000000D+00 0.000000000000000D+00 0.000000000000000D+00 0.000000000000000D+00
 0.221913391422612D+03 0.000000000000000D+00 0.000000000000000D+00 0.221913391422612D+03
 0.221913391422612D+03 -.000000000000000D+00 -.000000000000000D+00 -.221913391422612D+03
 0.219888976466066D+03 0.303083318815659D+02 -.137922262040754D+03 -.113070847805314D+03
 0.145344903969997D+03 0.330121056710512D+00 0.101147206177329D+03 0.665361470051124D+02
 0.286286456614892D+02 -.871002757817152D+01 -.365931143098108D+01 0.270248813475599D+02
 0.499642567476722D+02 -.219284253601049D+02 0.404343672944062D+02 0.195098194526415D+02
0.494322395958D-03 0.000000000000D+00 0.000000000000D+00 0.469970432768D-05 0.000000000000D+00  6 -1 2 25 24 21 21 2 0.11221080D+00 0.10387372D-01 0.34970573D+05 0.34970573D+05 0.34970573D+05 0.12079719D+01  1  2  2  3  6  5       21 0.388838630644D-01 0.100000000000D+01
0.120098340793D-04 0.260861095101D-04 -.189832815855D-05 0.469970432768D-05 0.000000000000D+00  6 -1 2 25 24 21 21 4 0.11221080D+00 0.10387372D-01 0.34970573D+05 0.34970573D+05 0.34970573D+05 0.12079719D+01  1  2  3  3  6  5       21 0.137850961997D-02 0.100000000000D+01
0.139329720305D-04 0.000000000000D+00 0.000000000000D+00 0.469970432768D-05 0.000000000000D+00  6 -1 2 25 24 21 21 4 0.11221080D+00 0.10387372D-01 0.34970573D+05 0.34970573D+05 0.34970573D+05 0.12079719D+01  1  2 15  3  6  5       21 0.159925073503D-02 0.100000000000D+01
0.862105329796D-04 0.000000000000D+00 0.000000000000D+00 0.470110782469D-05 0.000000000000D+00  6 -1 2 25 24 21 21 4 0.11221080D+00 0.10387372D-01 0.34830048D+05 0.34830048D+05 0.34830048D+05 0.12081523D+01  1  2 12  3  6  5       21 0.990123170736D-02 0.100000000000D+01
0.107540889730D-03 0.000000000000D+00 0.000000000000D+00 0.470110782469D-05 0.000000000000D+00  6 -1 2 25 24 21 21 4 0.11221080D+00 0.10387372D-01 0.34830048D+05 0.34830048D+05 0.34830048D+05 0.12081523D+01  1  2 12  3  6  5       21 0.123510113026D-01 0.100000000000D+01
-.549273013599D-03 0.000000000000D+00 0.000000000000D+00 0.469970432768D-05 0.000000000000D+00  6 -1 2 25 24 21 21 4 0.11221080D+00 0.10387372D-01 0.34970573D+05 0.34970573D+05 0.34970573D+05 0.12079719D+01  1  2  4  3  6  5       21 -.630465107375D-01 0.100000000000D+01
-.167114833330D-03 0.000000000000D+00 0.000000000000D+00 0.469970432768D-05 0.000000000000D+00  6 -1 2 25 24 21 21 4 0.11221080D+00 0.10387372D-01 0.34970573D+05 0.34970573D+05 0.34970573D+05 0.12079719D+01  1  2  5  3  6  5       21 -.191817308935D-01 0.100000000000D+01
0.532855233375D-03 0.000000000000D+00 -.000000000000D+00 0.469970432768D-05 0.000000000000D+00  6 -1 2 25 24 21 21 4 0.11221080D+00 0.10387372D-01 0.34970573D+05 0.34970573D+05 0.34970573D+05 0.12079719D+01  1  2  6  3  6  5       21 0.611620494012D-01 0.100000000000D+01
0.625957063695D-05 0.000000000000D+00 0.000000000000D+00 0.470110782469D-05 0.000000000000D+00  6 -1 2 25 24 1 -1 4 0.11221080D+00 0.10387372D-01 0.34830048D+05 0.34830048D+05 0.34830048D+05 0.12081523D+01  1  2 12  6  6  5       21 0.718908202083D-03 0.100000000000D+01
0.763226285697D-05 0.000000000000D+00 0.000000000000D+00 0.470110782469D-05 0.000000000000D+00  6 -1 2 25 24 1 -1 4 0.11221080D+00 0.10387372D-01 0.34830048D+05 0.34830048D+05 0.34830048D+05 0.12081523D+01  1  2 12  6  6  5       21 0.876561139185D-03 0.100000000000D+01
-.738966453824D-05 0.000000000000D+00 0.000000000000D+00 0.469970432768D-05 0.000000000000D+00  6 -1 2 25 24 1 -1 4 0.11221080D+00 0.10387372D-01 0.34970573D+05 0.34970573D+05 0.34970573D+05 0.12079719D+01  1  2  5  6  6  5       21 -.848198533557D-03 0.100000000000D+01
0.625957063695D-05 0.000000000000D+00 0.000000000000D+00 0.470110782469D-05 0.000000000000D+00  6 -1 2 25 24 2 -2 4 0.11221080D+00 0.10387372D-01 0.34830048D+05 0.34830048D+05 0.34830048D+05 0.12081523D+01  1  2 12  7  6  5       21 0.718908202083D-03 0.100000000000D+01
0.763226285697D-05 0.000000000000D+00 0.000000000000D+00 0.470110782469D-05 0.000000000000D+00  6 -1 2 25 24 2 -2 4 0.11221080D+00 0.10387372D-01 0.34830048D+05 0.34830048D+05 0.34830048D+05 0.12081523D+01  1  2 12  7  6  5       21 0.876561139185D-03 0.100000000000D+01
-.738966453824D-05 0.000000000000D+00 0.000000000000D+00 0.469970432768D-05 0.000000000000D+00  6 -1 2 25 24 2 -2 4 0.11221080D+00 0.10387372D-01 0.34970573D+05 0.34970573D+05 0.34970573D+05 0.12079719D+01  1  2  5  7  6  5       21 -.848198533557D-03 0.100000000000D+01
0.625957063695D-05 0.000000000000D+00 0.000000000000D+00 0.470110782469D-05 0.000000000000D+00  6 -1 2 25 24 3 -3 4 0.11221080D+00 0.10387372D-01 0.34830048D+05 0.34830048D+05 0.34830048D+05 0.12081523D+01  1  2 12  8  6  5       21 0.718908202083D-03 0.100000000000D+01
0.625957063695D-05 0.000000000000D+00 0.000000000000D+00 0.470110782469D-05 0.000000000000D+00  6 -1 2 25 24 4 -4 4 0.11221080D+00 0.10387372D-01 0.34830048D+05 0.34830048D+05 0.34830048D+05 0.12081523D+01  1  2 12  8  6  5       21 0.718908202083D-03 0.100000000000D+01
0.763226285697D-05 0.000000000000D+00 0.000000000000D+00 0.470110782469D-05 0.000000000000D+00  6 -1 2 25 24 3 -3 4 0.11221080D+00 0.10387372D-01 0.34830048D+05 0.34830048D+05 0.34830048D+05 0.12081523D+01  1  2 12  8  6  5       21 0.876561139185D-03 0.100000000000D+01
0.763226285697D-05 0.000000000000D+00 0.000000000000D+00 0.470110782469D-05 0.000000000000D+00  6 -1 2 25 24 4 -4 4 0.11221080D+00 0.10387372D-01 0.34830048D+05 0.34830048D+05 0.34830048D+05 0.12081523D+01  1  2 12  8  6  5       21 0.876561139185D-03 0.100000000000D+01
-.738966453824D-05 0.000000000000D+00 0.000000000000D+00 0.469970432768D-05 0.000000000000D+00  6 -1 2 25 24 3 -3 4 0.11221080D+00 0.10387372D-01 0.34970573D+05 0.34970573D+05 0.34970573D+05 0.12079719D+01  1  2  5  8  6  5       21 -.848198533557D-03 0.100000000000D+01
-.738966453824D-05 0.000000000000D+00 0.000000000000D+00 0.469970432768D-05 0.000000000000D+00  6 -1 2 25 24 4 -4 4 0.11221080D+00 0.10387372D-01 0.34970573D+05 0.34970573D+05 0.34970573D+05 0.12079719D+01  1  2  5  8  6  5       21 -.848198533557D-03 0.100000000000D+01
  </mgrwgt>
  </event>
  <event>
  5     66 0.43535451E-03 0.38826129E+02 0.75467711E-02 0.11801507E+00
       -1 -1    0    0    0  501 0.00000000E+00 0.00000000E+00 0.23911389E+03 0.23911410E+03 0.32000000E+00 0.0000E+00 0.9000E+01
        2 -1    0    0  502    0 0.00000000E+00 0.00000000E+00 -.14659696E+03 0.14659730E+03 0.32000000E+00 0.0000E+00 0.9000E+01
       25  1    1    2    0    0 -.43400586E+02 -.70622160E+02 0.12235552E+02 0.15048525E+03 0.12500000E+03 0.0000E+00 0.9000E+01
       24  1    1    2    0    0 0.78509893E+02 0.87195745E+02 -.41348800E+01 0.14230676E+03 0.80419002E+02 0.0000E+00 0.9000E+01
       21  1    1    2  502  501 -.35109307E+02 -.16573586E+02 0.84416261E+02 0.92919400E+02 0.75000000E+00 0.0000E+00 0.9000E+01
#aMCatNLO 1  0  0  5  1 0.13577810D+02 0.00000000D+00  -5  6  0 0.00000000D+00 0.00000000D+00 0.00000000D+00 0.00000000D+00 0.00000000D+00
  <mgrwgt>
 0.1299549849D+00   20    2    0
 0.187225737107769D+03 0.000000000000000D+00 0.000000000000000D+00 0.187225737107769D+03
 0.187225737107769D+03 -.000000000000000D+00 -.000000000000000D+00 -.187225737107769D+03
 0.151987180086033D+03 -.433998703916074D+02 -.706218222258085D+02 -.245786978093289D+02
 0.147608513135830D+03 0.785105878427576D+02 0.871960733457601D+02 -.394206745942452D+02
 0.748557809936754D+02 -.351107174511502D+02 -.165742511199516D+02 0.639993724035741D+02
 0.000000000000000D+00 0.000000000000000D+00 0.000000000000000D+00 0.000000000000000D+00
 0.187225737107769D+03 0.000000000000000D+00 0.000000000000000D+00 0.187225737107769D+03
 0.187225737107769D+03 -.000000000000000D+00 -.000000000000000D+00 -.187225737107769D+03
 0.152230046444892D+03 -.444744594864577D+02 -.711290892599724D+02 -.226199503767871D+02
 0.146272111142690D+03 0.774725108158954D+02 0.867060420796943D+02 -.375284808981698D+02
 0.490730098670166D+02 -.338994689152451D+02 -.641816891903003D+01 0.348968968878242D+02
 0.268763067609394D+02 0.901417585807367D+00 -.915878390069184D+01 0.252515343871327D+02
0.122882390461D-03 0.000000000000D+00 0.000000000000D+00 0.141994045117D-04 0.000000000000D+00  6 -1 2 25 24 21 21 2 0.36786795D-01 0.22553421D-01 0.27400185D+05 0.27400185D+05 0.27400185D+05 0.12190520D+01  1  2  2  3  6  5       21 0.354549084158D-01 0.100000000000D+01
0.878075617346D-05 0.648468190119D-05 -.471900735046D-06 0.141994045117D-04 0.000000000000D+00  6 -1 2 25 24 21 21 4 0.36786795D-01 0.22553421D-01 0.27400185D+05 0.27400185D+05 0.27400185D+05 0.12190520D+01  1  2  3  3  6  5       21 0.376498382902D-02 0.100000000000D+01
0.306486435060D-05 0.000000000000D+00 0.000000000000D+00 0.141994045117D-04 0.000000000000D+00  6 -1 2 25 24 21 21 4 0.36786795D-01 0.22553421D-01 0.27400185D+05 0.27400185D+05 0.27400185D+05 0.12190520D+01  1  2 15  3  6  5       21 0.131414248274D-02 0.100000000000D+01
0.109076579363D-03 0.000000000000D+00 0.000000000000D+00 0.141701020581D-04 0.000000000000D+00  6 -1 2 25 24 21 21 4 0.36786795D-01 0.22553421D-01 0.28160320D+05 0.28160320D+05 0.28160320D+05 0.12177935D+01  1  2 12  3  6  5       21 0.465961783163D-01 0.100000000000D+01
0.148118981249D-03 0.000000000000D+00 0.000000000000D+00 0.141701020581D-04 0.000000000000D+00  6 -1 2 25 24 21 21 4 0.36786795D-01 0.22553421D-01 0.28160320D+05 0.28160320D+05 0.28160320D+05 0.12177935D+01  1  2 12  3  6  5       21 0.632746140616D-01 0.100000000000D+01
-.185725837866D-03 0.000000000000D+00 0.000000000000D+00 0.141994045117D-04 0.000000000000D+00  6 -1 2 25 24 21 21 4 0.36786795D-01 0.22553421D-01 0.27400185D+05 0.27400185D+05 0.27400185D+05 0.12190520D+01  1  2  4  3  6  5       21 -.796349155341D-01 0.100000000000D+01
-.269785788715D-03 0.000000000000D+00 0.000000000000D+00 0.141994045117D-04 0.000000000000D+00  6 -1 2 25 24 21 21 4 0.36786795D-01 0.22553421D-01 0.27400185D+05 0.27400185D+05 0.27400185D+05 0.12190520D+01  1  2  5  3  6  5       21 -.115677865522D+00 0.100000000000D+01
0.405409932036D-03 0.000000000000D+00 -.000000000000D+00 0.141994045117D-04 0.000000000000D+00  6 -1 2 25 24 21 21 4 0.36786795D-01 0.22553421D-01 0.27400185D+05 0.27400185D+05 0.27400185D+05 0.12190520D+01  1  2  6  3  6  5       21 0.173830340814D+00 0.100000000000D+01
0.250088990397D-05 0.000000000000D+00 0.000000000000D+00 0.141701020581D-04 0.000000000000D+00  6 -1 2 25 24 1 -1 4 0.36786795D-01 0.22553421D-01 0.28160320D+05 0.28160320D+05 0.28160320D+05 0.12177935D+01  1  2 12  6  6  5       21 0.106834952651D-02 0.100000000000D+01
0.329625932955D-05 0.000000000000D+00 0.000000000000D+00 0.141701020581D-04 0.000000000000D+00  6 -1 2 25 24 1 -1 4 0.36786795D-01 0.22553421D-01 0.28160320D+05 0.28160320D+05 0.28160320D+05 0.12177935D+01  1  2 12  6  6  5       21 0.140812160039D-02 0.100000000000D+01
-.517360556805D-05 0.000000000000D+00 0.000000000000D+00 0.141994045117D-04 0.000000000000D+00  6 -1 2 25 24 1 -1 4 0.36786795D-01 0.22553421D-01 0.27400185D+05 0.27400185D+05 0.27400185D+05 0.12190520D+01  1  2  5  6  6  5       21 -.221832162478D-02 0.100000000000D+01
0.250088990397D-05 0.000000000000D+00 0.000000000000D+00 0.141701020581D-04 0.000000000000D+00  6 -1 2 25 24 2 -2 4 0.36786795D-01 0.22553421D-01 0.28160320D+05 0.28160320D+05 0.28160320D+05 0.12177935D+01  1  2 12  7  6  5       21 0.106834952651D-02 0.100000000000D+01
0.329625932955D-05 0.000000000000D+00 0.000000000000D+00 0.141701020581D-04 0.000000000000D+00  6 -1 2 25 24 2 -2 4 0.36786795D-01 0.22553421D-01 0.28160320D+05 0.28160320D+05 0.28160320D+05 0.12177935D+01  1  2 12  7  6  5       21 0.140812160039D-02 0.100000000000D+01
-.517360556805D-05 0.000000000000D+00 0.000000000000D+00 0.141994045117D-04 0.000000000000D+00  6 -1 2 25 24 2 -2 4 0.36786795D-01 0.22553421D-01 0.27400185D+05 0.27400185D+05 0.27400185D+05 0.12190520D+01  1  2  5  7  6  5       21 -.221832162478D-02 0.100000000000D+01
0.250088990397D-05 0.000000000000D+00 0.000000000000D+00 0.141701020581D-04 0.000000000000D+00  6 -1 2 25 24 3 -3 4 0.36786795D-01 0.22553421D-01 0.28160320D+05 0.28160320D+05 0.28160320D+05 0.12177935D+01  1  2 12  8  6  5       21 0.106834952651D-02 0.100000000000D+01
0.250088990397D-05 0.000000000000D+00 0.000000000000D+00 0.141701020581D-04 0.000000000000D+00  6 -1 2 25 24 4 -4 4 0.36786795D-01 0.22553421D-01 0.28160320D+05 0.28160320D+05 0.28160320D+05 0.12177935D+01  1  2 12  8  6  5       21 0.106834952651D-02 0.100000000000D+01
0.329625932955D-05 0.000000000000D+00 0.000000000000D+00 0.141701020581D-04 0.000000000000D+00  6 -1 2 25 24 3 -3 4 0.36786795D-01 0.22553421D-01 0.28160320D+05 0.28160320D+05 0.28160320D+05 0.12177935D+01  1  2 12  8  6  5       21 0.140812160039D-02 0.100000000000D+01
0.329625932955D-05 0.000000000000D+00 0.000000000000D+00 0.141701020581D-04 0.000000000000D+00  6 -1 2 25 24 4 -4 4 0.36786795D-01 0.22553421D-01 0.28160320D+05 0.28160320D+05 0.28160320D+05 0.12177935D+01  1  2 12  8  6  5       21 0.140812160039D-02 0.100000000000D+01
-.517360556805D-05 0.000000000000D+00 0.000000000000D+00 0.141994045117D-04 0.000000000000D+00  6 -1 2 25 24 3 -3 4 0.36786795D-01 0.22553421D-01 0.27400185D+05 0.27400185D+05 0.27400185D+05 0.12190520D+01  1  2  5  8  6  5       21 -.221832162478D-02 0.100000000000D+01
-.517360556805D-05 0.000000000000D+00 0.000000000000D+00 0.141994045117D-04 0.000000000000D+00  6 -1 2 25 24 4 -4 4 0.36786795D-01 0.22553421D-01 0.27400185D+05 0.27400185D+05 0.27400185D+05 0.12190520D+01  1  2  5  8  6  5       21 -.221832162478D-02 0.100000000000D+01
  </mgrwgt>
  </event>
  <event>
  5     66 0.43535451E-03 0.15359705E+03 0.75467711E-02 0.10793958E+00
       -1 -1    0    0    0  501 0.00000000E+00 0.00000000E+00 0.61806728E+02 0.61807557E+02 0.32000000E+00 0.0000E+00 0.9000E+01
        2 -1    0    0  502    0 0.00000000E+00 0.00000000E+00 -.10853450E+04 0.10853450E+04 0.32000000E+00 0.0000E+00 0.9000E+01
       25  1    1    2    0    0 -.18395757E+02 0.28592721E+01 -.92956467E+02 0.15688366E+03 0.12500000E+03 0.0000E+00 0.9000E+01
       24  1    1    2    0    0 -.20403332E+02 -.15147384E+03 -.62260245E+03 0.64611272E+03 0.80419002E+02 0.0000E+00 0.9000E+01
       21  1    1    2  502  501 0.38799089E+02 0.14861456E+03 -.30797934E+03 0.34415621E+03 0.75000000E+00 0.0000E+00 0.9000E+01
#aMCatNLO 1  0  0  2  1 0.14369100D+03 0.00000000D+00  -5  6  0 0.00000000D+00 0.00000000D+00 0.00000000D+00 0.00000000D+00 0.00000000D+00
  <mgrwgt>
 0.6461161397D-01    3    2    0
 0.259002172405635D+03 0.000000000000000D+00 0.000000000000000D+00 0.259002172405635D+03
 0.259002172405635D+03 0.000000000000000D+00 0.000000000000000D+00 -.259002172405635D+03
 0.163753467415374D+03 -.183959032742825D+02 0.285871207090513D+01 0.104132687464488D+03
 0.200640649424339D+03 -.204035112024120D+02 -.151474522594661D+03 -.102120614874680D+03
 0.153610227971558D+03 0.387994144766945D+02 0.148615810523756D+03 -.201207258980841D+01
 0.000000000000000D+00 0.000000000000000D+00 0.000000000000000D+00 0.000000000000000D+00
 0.596533435978753D+03 0.000000000000000D+00 0.000000000000000D+00 0.596533435978753D+03
 0.284531325529808D+03 0.000000000000000D+00 0.000000000000000D+00 -.284531325529808D+03
 0.170631182096651D+03 -.313691854232158D+02 -.407720236315020D+02 0.104132687464488D+03
 0.250105383497363D+03 -.378913219351692D+02 -.210288170469989D+03 -.102120614874680D+03
 0.116827947069616D+03 0.283070944680704D+02 0.113328854150962D+03 -.201207258980841D+01
 0.343500248844930D+03 0.409534128903146D+02 0.137731339950529D+03 0.312002110448945D+03
0.279667977157D-03 0.000000000000D+00 0.000000000000D+00 0.603741797449D-06 0.000000000000D+00  6 -1 2 25 24 21 21 2 0.95087948D-02 0.16697622D+00 0.51230647D+05 0.51230647D+05 0.51230647D+05 0.11912374D+01  1  2  2  2  6  2        2 0.693975722650D-01 0.100000000000D+01
-.273966205196D-04 0.147584846210D-04 -.107399867055D-05 0.603741797449D-06 0.000000000000D+00  6 -1 2 25 24 21 21 4 0.95087948D-02 0.16697622D+00 0.51230647D+05 0.51230647D+05 0.51230647D+05 0.11912374D+01  1  2  3  2  6  2        2 -.964706375698D-02 0.100000000000D+01
0.138050151732D-04 0.000000000000D+00 0.000000000000D+00 0.603741797449D-06 0.000000000000D+00  6 -1 2 25 24 21 21 4 0.95087948D-02 0.16697622D+00 0.51230647D+05 0.51230647D+05 0.51230647D+05 0.11912374D+01  1  2 15  2  6  2        2 0.486110545811D-02 0.100000000000D+01
  </mgrwgt>
  </event>
  <event>
  6     66 0.43535451E-03 0.28758344E+02 0.75467711E-02 0.11803260E+00
       21 -1    0    0  503  501 0.00000000E+00 0.00000000E+00 0.43876085E+03 0.43876149E+03 0.75000000E+00 0.0000E+00 0.9000E+01
        2 -1    0    0  502    0 0.00000000E+00 0.00000000E+00 -.27547994E+03 0.27548013E+03 0.32000000E+00 0.0000E+00 0.9000E+01
       25  1    1    2    0    0 -.26151977E+00 0.12519834E+03 -.12514718E+03 0.21670604E+03 0.12500000E+03 0.0000E+00 0.9000E+01
       24  1    1    2    0    0 0.14908456E+02 -.10035564E+03 -.63536256E+02 0.14421369E+03 0.80419002E+02 0.0000E+00 0.9000E+01
        1  1    1    2  503    0 -.14707349E+02 -.24771307E+02 0.35042181E+03 0.35160414E+03 0.32000000E+00 0.0000E+00 0.9000E+01
       21  1    1    2  502  501 0.60412703E-01 -.71391066E-01 0.15425284E+01 0.17177428E+01 0.75000000E+00 0.0000E+00 0.9000E+01
#aMCatNLO 2  0  0  1  1 0.35850449D+02 0.00000000D+00  -5  6  0 0.00000000D+00 0.00000000D+00 0.00000000D+00 0.00000000D+00 0.00000000D+00
  <mgrwgt>
 0.1594577747D+00    1    2    0
 0.154640144831392D+03 0.000000000000000D+00 0.000000000000000D+00 0.154640144831392D+03
 0.154640144831392D+03 0.000000000000000D+00 0.000000000000000D+00 -.154640144831392D+03
 0.168360982533798D+03 -.846787995071253D+01 0.111379726642917D+03 -.155971773675645D+02
 0.137969921815024D+03 0.854975744975300D+01 -.111062852881862D+03 0.126660068121510D+02
 0.000000000000000D+00 -.000000000000000D+00 -.000000000000000D+00 0.000000000000000D+00
 0.294938531396247D+01 -.818774990404758D-01 -.316873761055315D+00 0.293117055541349D+01
 0.776582637255750D+03 0.000000000000000D+00 0.000000000000000D+00 0.776582637255750D+03
 0.155643507721710D+03 0.000000000000000D+00 0.000000000000000D+00 -.155643507721710D+03
 0.177607881634242D+03 -.259636985698801D+00 0.125204713431258D+03 -.155971773675645D+02
 0.130078332486846D+03 0.149093042920633D+02 -.100351589649338D+03 0.126660068121510D+02
 0.621607051377085D+03 -.147073487781107D+02 -.247713065287608D+02 0.620939129534040D+03
 0.293287947928658D+01 0.576814717462216D-01 -.818172531590131D-01 0.293117055541349D+01
0.240696754450D-03 0.000000000000D+00 0.000000000000D+00 0.174815003735D+00 0.208535443051D-01  6 21 2 25 24 1 21 4 0.67501715D-01 0.42381582D-01 0.28104914D+05 0.28104914D+05 0.28104914D+05 0.12178840D+01  1  2  1  4  5  1       -1 0.159457774682D+00 0.100000000000D+01
  </mgrwgt>
  </event>
  <event>
  5     66 -.43535451E-03 0.21163654E+02 0.75467711E-02 0.11936675E+00
       -1 -1    0    0    0  501 0.00000000E+00 0.00000000E+00 0.28824559E+03 0.28824577E+03 0.32000000E+00 0.0000E+00 0.9000E+01
        2 -1    0    0  502    0 0.00000000E+00 0.00000000E+00 -.85989119E+02 0.85989714E+02 0.32000000E+00 0.0000E+00 0.9000E+01
       25  1    1    2    0    0 0.95914624E+02 -.37666881E+02 0.13131845E+03 0.20853763E+03 0.12500000E+03 0.0000E+00 0.9000E+01
       24  1    1    2    0    0 -.83461289E+02 0.54764940E+02 0.64937597E+02 0.14369792E+03 0.80419002E+02 0.0000E+00 0.9000E+01
       21  1    1    2  502  501 -.12453335E+02 -.17098059E+02 0.60004246E+01 0.21999927E+02 0.75000000E+00 0.0000E+00 0.9000E+01
#aMCatNLO 1  0  0  5  1 0.29236588D+01 0.00000000D+00  -5  6  0 0.00000000D+00 0.00000000D+00 0.00000000D+00 0.00000000D+00 0.00000000D+00
  <mgrwgt>
 -.7266919813D+00   20    2    0
 0.157436110136352D+03 0.000000000000000D+00 0.000000000000000D+00 0.157436110136352D+03
 0.157436110136352D+03 -.000000000000000D+00 -.000000000000000D+00 -.157436110136352D+03
 0.163503069605539D+03 0.959182867516844D+02 -.376618524255269D+02 0.221251194105955D+02
 0.129076783587819D+03 -.834583970927438D+02 0.547689096628679D+02 -.151215937009475D+02
 0.222923670793465D+02 -.124598896589406D+02 -.171070572373409D+02 -.700352570964801D+01
 0.000000000000000D+00 -.000000000000000D+00 0.000000000000000D+00 0.000000000000000D+00
 0.157436110136352D+03 0.000000000000000D+00 0.000000000000000D+00 0.157436110136352D+03
 0.157436110136352D+03 -.000000000000000D+00 -.000000000000000D+00 -.157436110136352D+03
 0.163399752538917D+03 0.956176116058630D+02 -.380746704415935D+02 0.219561142129852D+02
 0.129108316987867D+03 -.836958677950621D+02 0.544428694644431D+02 -.152550725851510D+02
 0.164462962586487D+02 -.760824646915700D+01 -.124247033071196D+02 -.763033380802275D+01
 0.591785448727072D+01 -.431349734164394D+01 -.394349571573005D+01 0.929292180188590D+00
0.252929422719D-03 0.000000000000D+00 0.000000000000D+00 0.433147537031D-04 0.000000000000D+00  6 -1 2 25 24 21 21 2 0.44345535D-01 0.13229155D-01 0.24234829D+05 0.24234829D+05 0.24234829D+05 0.12247477D+01  1  2  2  3  6  5       21 0.979788838299D-01 0.100000000000D+01
0.690864139307D-04 0.133474523374D-04 -.971315581088D-06 0.433147537031D-04 0.000000000000D+00  6 -1 2 25 24 21 21 4 0.44345535D-01 0.13229155D-01 0.24234829D+05 0.24234829D+05 0.24234829D+05 0.12247477D+01  1  2  3  3  6  5       21 0.401438505961D-01 0.100000000000D+01
0.832936617049D-06 0.000000000000D+00 0.000000000000D+00 0.433147537031D-04 0.000000000000D+00  6 -1 2 25 24 21 21 4 0.44345535D-01 0.13229155D-01 0.24234829D+05 0.24234829D+05 0.24234829D+05 0.12247477D+01  1  2 15  3  6  5       21 0.483992165874D-03 0.100000000000D+01
0.215635483593D-05 0.000000000000D+00 0.000000000000D+00 0.433320982653D-04 0.000000000000D+00  6 -1 2 25 24 21 21 4 0.44345535D-01 0.13229155D-01 0.24108050D+05 0.24108050D+05 0.24108050D+05 0.12249929D+01  1  2 12  3  6  5       21 0.125384937737D-02 0.100000000000D+01
0.213749489928D-05 0.000000000000D+00 0.000000000000D+00 0.433320982653D-04 0.000000000000D+00  6 -1 2 25 24 21 21 4 0.44345535D-01 0.13229155D-01 0.24108050D+05 0.24108050D+05 0.24108050D+05 0.12249929D+01  1  2 12  3  6  5       21 0.124288294483D-02 0.100000000000D+01
-.217682324403D-02 0.000000000000D+00 0.000000000000D+00 0.433147537031D-04 0.000000000000D+00  6 -1 2 25 24 21 21 4 0.44345535D-01 0.13229155D-01 0.24234829D+05 0.24234829D+05 0.24234829D+05 0.12247477D+01  1  2  4  3  6  5       21 -.126488063442D+01 0.100000000000D+01
-.113910673495D-02 0.000000000000D+00 0.000000000000D+00 0.433147537031D-04 0.000000000000D+00  6 -1 2 25 24 21 21 4 0.44345535D-01 0.13229155D-01 0.24234829D+05 0.24234829D+05 0.24234829D+05 0.12247477D+01  1  2  5  3  6  5       21 -.661897585631D+00 0.100000000000D+01
0.186442984462D-02 0.000000000000D+00 -.000000000000D+00 0.433147537031D-04 0.000000000000D+00  6 -1 2 25 24 21 21 4 0.44345535D-01 0.13229155D-01 0.24234829D+05 0.24234829D+05 0.24234829D+05 0.12247477D+01  1  2  6  3  6  5       21 0.108335906976D+01 0.100000000000D+01
0.135947663102D-06 0.000000000000D+00 0.000000000000D+00 0.433320982653D-04 0.000000000000D+00  6 -1 2 25 24 1 -1 4 0.44345535D-01 0.13229155D-01 0.24108050D+05 0.24108050D+05 0.24108050D+05 0.12249929D+01  1  2 12  6  6  5       21 0.790490924290D-04 0.100000000000D+01
0.135091316508D-06 0.000000000000D+00 0.000000000000D+00 0.433320982653D-04 0.000000000000D+00  6 -1 2 25 24 1 -1 4 0.44345535D-01 0.13229155D-01 0.24108050D+05 0.24108050D+05 0.24108050D+05 0.12249929D+01  1  2 12  6  6  5       21 0.785511550646D-04 0.100000000000D+01
-.107589492347D-04 0.000000000000D+00 0.000000000000D+00 0.433147537031D-04 0.000000000000D+00  6 -1 2 25 24 1 -1 4 0.44345535D-01 0.13229155D-01 0.24234829D+05 0.24234829D+05 0.24234829D+05 0.12247477D+01  1  2  5  6  6  5       21 -.625167273959D-02 0.100000000000D+01
0.135947663102D-06 0.000000000000D+00 0.000000000000D+00 0.433320982653D-04 0.000000000000D+00  6 -1 2 25 24 2 -2 4 0.44345535D-01 0.13229155D-01 0.24108050D+05 0.24108050D+05 0.24108050D+05 0.12249929D+01  1  2 12  7  6  5       21 0.790490924290D-04 0.100000000000D+01
0.135091316508D-06 0.000000000000D+00 0.000000000000D+00 0.433320982653D-04 0.000000000000D+00  6 -1 2 25 24 2 -2 4 0.44345535D-01 0.13229155D-01 0.24108050D+05 0.24108050D+05 0.24108050D+05 0.12249929D+01  1  2 12  7  6  5       21 0.785511550646D-04 0.100000000000D+01
-.107589492347D-04 0.000000000000D+00 0.000000000000D+00 0.433147537031D-04 0.000000000000D+00  6 -1 2 25 24 2 -2 4 0.44345535D-01 0.13229155D-01 0.24234829D+05 0.24234829D+05 0.24234829D+05 0.12247477D+01  1  2  5  7  6  5       21 -.625167273959D-02 0.100000000000D+01
0.135947663102D-06 0.000000000000D+00 0.000000000000D+00 0.433320982653D-04 0.000000000000D+00  6 -1 2 25 24 3 -3 4 0.44345535D-01 0.13229155D-01 0.24108050D+05 0.24108050D+05 0.24108050D+05 0.12249929D+01  1  2 12  8  6  5       21 0.790490924290D-04 0.100000000000D+01
0.135947663102D-06 0.000000000000D+00 0.000000000000D+00 0.433320982653D-04 0.000000000000D+00  6 -1 2 25 24 4 -4 4 0.44345535D-01 0.13229155D-01 0.24108050D+05 0.24108050D+05 0.24108050D+05 0.12249929D+01  1  2 12  8  6  5       21 0.790490924290D-04 0.100000000000D+01
0.135091316508D-06 0.000000000000D+00 0.000000000000D+00 0.433320982653D-04 0.000000000000D+00  6 -1 2 25 24 3 -3 4 0.44345535D-01 0.13229155D-01 0.24108050D+05 0.24108050D+05 0.24108050D+05 0.12249929D+01  1  2 12  8  6  5       21 0.785511550646D-04 0.100000000000D+01
0.135091316508D-06 0.000000000000D+00 0.000000000000D+00 0.433320982653D-04 0.000000000000D+00  6 -1 2 25 24 4 -4 4 0.44345535D-01 0.13229155D-01 0.24108050D+05 0.24108050D+05 0.24108050D+05 0.12249929D+01  1  2 12  8  6  5       21 0.785511550646D-04 0.100000000000D+01
-.107589492347D-04 0.000000000000D+00 0.000000000000D+00 0.433147537031D-04 0.000000000000D+00  6 -1 2 25 24 3 -3 4 0.44345535D-01 0.13229155D-01 0.24234829D+05 0.24234829D+05 0.24234829D+05 0.12247477D+01  1  2  5  8  6  5       21 -.625167273959D-02 0.100000000000D+01
-.107589492347D-04 0.000000000000D+00 0.000000000000D+00 0.433147537031D-04 0.000000000000D+00  6 -1 2 25 24 4 -4 4 0.44345535D-01 0.13229155D-01 0.24234829D+05 0.24234829D+05 0.24234829D+05 0.12247477D+01  1  2  5  8  6  5       21 -.625167273959D-02 0.100000000000D+01
  </mgrwgt>
  </event>
  <event>
  5     66 0.43535451E-03 0.49493493E+02 0.75467711E-02 0.11539082E+00
       -1 -1    0    0    0  501 0.00000000E+00 0.00000000E+00 0.17477235E+02 0.17480164E+02 0.32000000E+00 0.0000E+00 0.9000E+01
        2 -1    0    0  502    0 0.00000000E+00 0.00000000E+00 -.15024895E+04 0.15024895E+04 0.32000000E+00 0.0000E+00 0.9000E+01
       25  1    1    2    0    0 -.15086856E+02 0.67725807E+02 -.48563022E+03 0.50623721E+03 0.12500000E+03 0.0000E+00 0.9000E+01
       24  1    1    2    0    0 -.34306623E+02 -.70797956E+02 -.81871867E+03 0.82641199E+03 0.80419002E+02 0.0000E+00 0.9000E+01
       21  1    1    2  502  501 0.49393478E+02 0.30721487E+01 -.18066335E+03 0.18732048E+03 0.75000000E+00 0.0000E+00 0.9000E+01
#aMCatNLO 1  0  0  1  2 0.75323235D+02 0.00000000D+00  -5  6  0 0.00000000D+00 0.00000000D+00 0.00000000D+00 0.00000000D+00 0.00000000D+00
  <mgrwgt>
 0.2683104449D+00    3    2    0
 0.162054352789765D+03 0.000000000000000D+00 0.000000000000000D+00 0.162054352789765D+03
 0.162054352789765D+03 0.000000000000000D+00 0.000000000000000D+00 -.162054352789765D+03
 0.149019099507958D+03 -.150893402049213D+02 0.677256522657742D+02 0.420385520150055D+02
 0.124384760544298D+03 -.343086967626956D+02 -.707980845124882D+02 -.530556053315735D+02
 0.507048455272748D+02 0.493980369676169D+02 0.307243224671402D+01 0.110170533165680D+02
 0.000000000000000D+00 0.000000000000000D+00 0.000000000000000D+00 -.000000000000000D+00
 0.173672114114494D+03 0.000000000000000D+00 0.000000000000000D+00 0.173672114114494D+03
 0.360700552874896D+03 0.000000000000000D+00 0.000000000000000D+00 -.360700552874896D+03
 0.138831167734086D+03 -.242037724970139D+02 0.360004260503185D+02 0.420385520150055D+02
 0.145715134059549D+03 -.428610848673002D+02 -.100566965184995D+03 -.530556053315735D+02
 0.481999119640573D+02 0.462663368508942D+02 -.782828997689549D+01 0.110170533165680D+02
 0.201626453231698D+03 0.207985205134199D+02 0.723948291115724D+02 -.187028438760401D+03
0.236148873410D-03 0.000000000000D+00 0.000000000000D+00 0.773839502869D-05 0.000000000000D+00  6 -1 2 25 24 21 21 2 0.26890333D-02 0.23115245D+00 0.23250452D+05 0.23250452D+05 0.23250452D+05 0.12266902D+01  1  2  2  1  6  1       -1 0.240344302441D+00 0.100000000000D+01
0.633876840868D-05 0.124619184217D-04 -.906873853322D-06 0.773839502869D-05 0.000000000000D+00  6 -1 2 25 24 21 21 4 0.26890333D-02 0.23115245D+00 0.23250452D+05 0.23250452D+05 0.23250452D+05 0.12266902D+01  1  2  3  1  6  1       -1 0.970784113356D-02 0.100000000000D+01
0.119218209303D-04 0.000000000000D+00 0.000000000000D+00 0.773839502869D-05 0.000000000000D+00  6 -1 2 25 24 21 21 4 0.26890333D-02 0.23115245D+00 0.23250452D+05 0.23250452D+05 0.23250452D+05 0.12266902D+01  1  2 15  1  6  1       -1 0.182583013217D-01 0.100000000000D+01
  </mgrwgt>
  </event>
  <event>
  5     66 -.43535451E-03 0.29827129E+02 0.75467711E-02 0.12123526E+00
       -1 -1    0    0    0  501 0.00000000E+00 0.00000000E+00 0.25878580E+02 0.25880558E+02 0.32000000E+00 0.0000E+00 0.9000E+01
        2 -1    0    0  502    0 -.00000000E+00 -.00000000E+00 -.85748852E+03 0.85748858E+03 0.32000000E+00 0.0000E+00 0.9000E+01
       25  1    1    2    0    0 0.60229467E+02 -.88935525E+01 -.47174145E+03 0.49180451E+03 0.12500000E+03 0.0000E+00 0.9000E+01
       24  1    1    2    0    0 -.69432918E+02 0.37261333E+02 -.33262636E+03 0.35116499E+03 0.80419002E+02 0.0000E+00 0.9000E+01
       21  1    1    2  502  501 0.92034518E+01 -.28367781E+02 -.27242130E+02 0.40399637E+02 0.75000000E+00 0.0000E+00 0.9000E+01
#aMCatNLO 1  0  0  5  1 0.49597465D+01 0.00000000D+00  -5  6  0 0.00000000D+00 0.00000000D+00 0.00000000D+00 0.00000000D+00 0.00000000D+00
  <mgrwgt>
 -.1091977687D+00   20    2    0
 0.148968067985162D+03 0.000000000000000D+00 0.000000000000000D+00 0.148968067985162D+03
 0.148968067985162D+03 -.000000000000000D+00 -.000000000000000D+00 -.148968067985162D+03
 0.141439887553516D+03 0.602288242868960D+02 -.889157265117962D+01 -.259551623373533D+02
 0.112753031914633D+03 -.694334304267781D+02 0.372629112572840D+02 -.604189004975769D+01
 0.437432165021745D+02 0.920460613988209D+01 -.283713386061044D+02 0.319970523871110D+02
 0.000000000000000D+00 0.000000000000000D+00 0.000000000000000D+00 0.000000000000000D+00
 0.148968067985162D+03 0.000000000000000D+00 0.000000000000000D+00 0.148968067985162D+03
 0.148968067985162D+03 -.000000000000000D+00 -.000000000000000D+00 -.148968067985162D+03
 0.141438871491676D+03 0.603641319516895D+02 -.930863118855946D+01 -.254848058253005D+02
 0.112557804350363D+03 -.693256588740091D+02 0.369307272214601D+02 -.566725457189079D+01
 0.304485541538091D+02 0.192385807784792D+01 -.185498183764581D+02 0.240690144865585D+02
 0.134909059744766D+02 0.703766884447166D+01 -.907227765644257D+01 0.708304591063287D+01
0.421097921748D-04 0.000000000000D+00 0.000000000000D+00 0.256375826235D-04 0.000000000000D+00  6 -1 2 25 24 21 21 2 0.39814767D-02 0.13192147D+00 0.19804396D+05 0.19804396D+05 0.19804396D+05 0.12342962D+01  1  2  2  3  6  5       21 0.565888100438D-01 0.100000000000D+01
0.427096850510D-05 0.222219478442D-05 -.161712689714D-06 0.256375826235D-04 0.000000000000D+00  6 -1 2 25 24 21 21 4 0.39814767D-02 0.13192147D+00 0.19804396D+05 0.19804396D+05 0.19804396D+05 0.12342962D+01  1  2  3  3  6  5       21 0.874405016084D-02 0.100000000000D+01
0.532595572475D-06 0.000000000000D+00 0.000000000000D+00 0.256375826235D-04 0.000000000000D+00  6 -1 2 25 24 21 21 4 0.39814767D-02 0.13192147D+00 0.19804396D+05 0.19804396D+05 0.19804396D+05 0.12342962D+01  1  2 15  3  6  5       21 0.109039492930D-02 0.100000000000D+01
0.462266333306D-04 0.000000000000D+00 0.000000000000D+00 0.256345590635D-04 0.000000000000D+00  6 -1 2 25 24 21 21 4 0.39814767D-02 0.13192147D+00 0.19834535D+05 0.19834535D+05 0.19834535D+05 0.12342234D+01  1  2 12  3  6  5       21 0.946223455574D-01 0.100000000000D+01
0.483841265825D-04 0.000000000000D+00 0.000000000000D+00 0.256345590635D-04 0.000000000000D+00  6 -1 2 25 24 21 21 4 0.39814767D-02 0.13192147D+00 0.19834535D+05 0.19834535D+05 0.19834535D+05 0.12342234D+01  1  2 12  3  6  5       21 0.990385674906D-01 0.100000000000D+01
-.304312972163D-03 0.000000000000D+00 0.000000000000D+00 0.256375826235D-04 0.000000000000D+00  6 -1 2 25 24 21 21 4 0.39814767D-02 0.13192147D+00 0.19804396D+05 0.19804396D+05 0.19804396D+05 0.12342962D+01  1  2  4  3  6  5       21 -.623026812305D+00 0.100000000000D+01
-.241312662447D-03 0.000000000000D+00 0.000000000000D+00 0.256375826235D-04 0.000000000000D+00  6 -1 2 25 24 21 21 4 0.39814767D-02 0.13192147D+00 0.19804396D+05 0.19804396D+05 0.19804396D+05 0.12342962D+01  1  2  5  3  6  5       21 -.494044857124D+00 0.100000000000D+01
0.380170803459D-03 0.000000000000D+00 -.000000000000D+00 0.256375826235D-04 0.000000000000D+00  6 -1 2 25 24 21 21 4 0.39814767D-02 0.13192147D+00 0.19804396D+05 0.19804396D+05 0.19804396D+05 0.12342962D+01  1  2  6  3  6  5       21 0.778332261444D+00 0.100000000000D+01
0.914117138779D-06 0.000000000000D+00 0.000000000000D+00 0.256345590635D-04 0.000000000000D+00  6 -1 2 25 24 1 -1 4 0.39814767D-02 0.13192147D+00 0.19834535D+05 0.19834535D+05 0.19834535D+05 0.12342234D+01  1  2 12  6  6  5       21 0.187112713069D-02 0.100000000000D+01
0.948707728912D-06 0.000000000000D+00 0.000000000000D+00 0.256345590635D-04 0.000000000000D+00  6 -1 2 25 24 1 -1 4 0.39814767D-02 0.13192147D+00 0.19834535D+05 0.19834535D+05 0.19834535D+05 0.12342234D+01  1  2 12  6  6  5       21 0.194193139518D-02 0.100000000000D+01
-.559203077965D-05 0.000000000000D+00 0.000000000000D+00 0.256375826235D-04 0.000000000000D+00  6 -1 2 25 24 1 -1 4 0.39814767D-02 0.13192147D+00 0.19804396D+05 0.19804396D+05 0.19804396D+05 0.12342962D+01  1  2  5  6  6  5       21 -.114486907548D-01 0.100000000000D+01
0.914117138779D-06 0.000000000000D+00 0.000000000000D+00 0.256345590635D-04 0.000000000000D+00  6 -1 2 25 24 2 -2 4 0.39814767D-02 0.13192147D+00 0.19834535D+05 0.19834535D+05 0.19834535D+05 0.12342234D+01  1  2 12  7  6  5       21 0.187112713069D-02 0.100000000000D+01
0.948707728912D-06 0.000000000000D+00 0.000000000000D+00 0.256345590635D-04 0.000000000000D+00  6 -1 2 25 24 2 -2 4 0.39814767D-02 0.13192147D+00 0.19834535D+05 0.19834535D+05 0.19834535D+05 0.12342234D+01  1  2 12  7  6  5       21 0.194193139518D-02 0.100000000000D+01
-.559203077965D-05 0.000000000000D+00 0.000000000000D+00 0.256375826235D-04 0.000000000000D+00  6 -1 2 25 24 2 -2 4 0.39814767D-02 0.13192147D+00 0.19804396D+05 0.19804396D+05 0.19804396D+05 0.12342962D+01  1  2  5  7  6  5       21 -.114486907548D-01 0.100000000000D+01
0.914117138779D-06 0.000000000000D+00 0.000000000000D+00 0.256345590635D-04 0.000000000000D+00  6 -1 2 25 24 3 -3 4 0.39814767D-02 0.13192147D+00 0.19834535D+05 0.19834535D+05 0.19834535D+05 0.12342234D+01  1  2 12  8  6  5       21 0.187112713069D-02 0.100000000000D+01
0.914117138779D-06 0.000000000000D+00 0.000000000000D+00 0.256345590635D-04 0.000000000000D+00  6 -1 2 25 24 4 -4 4 0.39814767D-02 0.13192147D+00 0.19834535D+05 0.19834535D+05 0.19834535D+05 0.12342234D+01  1  2 12  8  6  5       21 0.187112713069D-02 0.100000000000D+01
0.948707728912D-06 0.000000000000D+00 0.000000000000D+00 0.256345590635D-04 0.000000000000D+00  6 -1 2 25 24 3 -3 4 0.39814767D-02 0.13192147D+00 0.19834535D+05 0.19834535D+05 0.19834535D+05 0.12342234D+01  1  2 12  8  6  5       21 0.194193139518D-02 0.100000000000D+01
0.948707728912D-06 0.000000000000D+00 0.000000000000D+00 0.256345590635D-04 0.000000000000D+00  6 -1 2 25 24 4 -4 4 0.39814767D-02 0.13192147D+00 0.19834535D+05 0.19834535D+05 0.19834535D+05 0.12342234D+01  1  2 12  8  6  5       21 0.194193139518D-02 0.100000000000D+01
-.559203077965D-05 0.000000000000D+00 0.000000000000D+00 0.256375826235D-04 0.000000000000D+00  6 -1 2 25 24 3 -3 4 0.39814767D-02 0.13192147D+00 0.19804396D+05 0.19804396D+05 0.19804396D+05 0.12342962D+01  1  2  5  8  6  5       21 -.114486907548D-01 0.100000000000D+01
-.559203077965D-05 0.000000000000D+00 0.000000000000D+00 0.256375826235D-04 0.000000000000D+00  6 -1 2 25 24 4 -4 4 0.39814767D-02 0.13192147D+00 0.19804396D+05 0.19804396D+05 0.19804396D+05 0.12342962D+01  1  2  5  8  6  5       21 -.114486907548D-01 0.100000000000D+01
  </mgrwgt>
  </event>
  <event>
  5     66 0.43535451E-03 0.33702716E+02 0.75467711E-02 0.10518260E+00
       -1 -1    0    0    0  501 0.00000000E+00 0.00000000E+00 0.77489452E+03 0.77489459E+03 0.32000000E+00 0.0000E+00 0.9000E+01
        2 -1    0    0  502    0 0.00000000E+00 0.00000000E+00 -.58939170E+02 0.58940039E+02 0.32000000E+00 0.0000E+00 0.9000E+01
       25  1    1    2    0    0 -.92474307E+02 -.79807517E+02 0.43192677E+03 0.46594686E+03 0.12500000E+03 0.0000E+00 0.9000E+01
       24  1    1    2    0    0 0.88851467E+02 0.11331154E+03 0.12941215E+03 0.20963971E+03 0.80419002E+02 0.0000E+00 0.9000E+01
       21  1    1    2  502  501 0.36228397E+01 -.33504026E+02 0.15461643E+03 0.15824806E+03 0.75000000E+00 0.0000E+00 0.9000E+01
#aMCatNLO 1  0  0  1  5 0.62567021D+02 0.00000000D+00  -5  6  0 0.00000000D+00 0.00000000D+00 0.00000000D+00 0.00000000D+00 0.00000000D+00
  <mgrwgt>
 0.2212424903D+00    5    4    0
 0.213710153908265D+03 0.000000000000000D+00 0.000000000000000D+00 0.213710153908265D+03
 0.213710153908265D+03 0.000000000000000D+00 0.000000000000000D+00 -.213710153908265D+03
 0.185489116051716D+03 -.924744853649223D+02 -.798058628175784D+02 0.621345796644799D+02
 0.192205037507784D+03 0.888512814491796D+02 0.113313256818061D+03 -.986970926781582D+02
 0.497261542570308D+02 0.362320391574270D+01 -.335073940004825D+02 0.365625130136783D+02
 0.000000000000000D+00 0.000000000000000D+00 0.000000000000000D+00 0.000000000000000D+00
 0.705627509085705D+03 0.000000000000000D+00 0.000000000000000D+00 0.705627509085705D+03
 0.308295838736484D+03 0.000000000000000D+00 0.000000000000000D+00 -.308295838736484D+03
 0.309334383936738D+03 -.201545680924345D+03 -.188630309325362D+03 0.621345796644799D+02
 0.134909158392035D+03 0.167473162331281D+02 0.413724106083172D+02 -.986970926781582D+02
 0.749555770089304D+02 -.238596975509708D+02 -.609281215830793D+02 0.365625130136783D+02
 0.494724228484487D+03 0.208658062242187D+03 0.208186020300124D+03 0.397331670349221D+03
 0.213710153908265D+03 0.000000000000000D+00 0.000000000000000D+00 0.213710153908265D+03
 0.213710153908265D+03 0.000000000000000D+00 0.000000000000000D+00 -.213710153908265D+03
 0.185489116051716D+03 -.924744853649223D+02 -.798058628175784D+02 0.621345796644799D+02
 0.192205037507784D+03 0.888512814491796D+02 0.113313256818061D+03 -.986970926781582D+02
 0.000000000000000D+00 0.000000000000000D+00 0.000000000000000D+00 0.000000000000000D+00
 0.497261542570308D+02 0.362320391574270D+01 -.335073940004825D+02 0.365625130136783D+02
 0.705627509085705D+03 0.000000000000000D+00 0.000000000000000D+00 0.705627509085705D+03
 0.308295838736484D+03 0.000000000000000D+00 0.000000000000000D+00 -.308295838736484D+03
 0.309334383936738D+03 -.201545680924345D+03 -.188630309325362D+03 0.621345796644799D+02
 0.134909158392035D+03 0.167473162331281D+02 0.413724106083172D+02 -.986970926781582D+02
 0.494724228484487D+03 0.208658062242187D+03 0.208186020300124D+03 0.397331670349221D+03
 0.749555770089304D+02 -.238596975509708D+02 -.609281215830793D+02 0.365625130136783D+02
0.221050021319D-02 0.000000000000D+00 0.000000000000D+00 0.127121924904D-04 0.000000000000D+00  6 -1 2 25 24 21 21 2 0.11921461D+00 0.90676366D-02 0.34857768D+05 0.34857768D+05 0.34857768D+05 0.12081166D+01  1  2  2  1  6  1       -1 0.178786802259D+00 0.100000000000D+01
0.292300987665D-03 0.116651301064D-03 -.848890285672D-05 0.127121924904D-04 0.000000000000D+00  6 -1 2 25 24 21 21 4 0.11921461D+00 0.90676366D-02 0.34857768D+05 0.34857768D+05 0.34857768D+05 0.12081166D+01  1  2  3  1  6  1       -1 0.345058639727D-01 0.100000000000D+01
0.722065799367D-04 0.000000000000D+00 0.000000000000D+00 0.127121924904D-04 0.000000000000D+00  6 -1 2 25 24 21 21 4 0.11921461D+00 0.90676366D-02 0.34857768D+05 0.34857768D+05 0.34857768D+05 0.12081166D+01  1  2 15  1  6  1       -1 0.852392065155D-02 0.100000000000D+01
-.361069570544D-03 0.000000000000D+00 -.102651278444D-02 0.127121924904D-04 0.000000000000D+00  6 -1 2 25 24 21 21 4 0.44341187D+00 0.90676366D-02 0.34857768D+05 0.34857768D+05 0.34857768D+05 0.12081166D+01  1  2  5  1  6  1       -1 -.294902188547D-03 0.100000000000D+01
-.322443676479D-04 0.000000000000D+00 -.159283826101D-03 0.127121924904D-04 0.000000000000D+00  6 21 2 25 24 1 21 4 0.44341187D+00 0.90676366D-02 0.34857768D+05 0.34857768D+05 0.34857768D+05 0.12081166D+01  3  4  5  4  5  1       -1 -.279194351813D-03 0.100000000000D+01
  </mgrwgt>
  </event>
  <event>
  5     66 0.43535451E-03 0.32068263E+02 0.75467711E-02 0.12125115E+00
       -1 -1    0    0    0  501 0.00000000E+00 0.00000000E+00 0.91096079E+02 0.91096641E+02 0.32000000E+00 0.0000E+00 0.9000E+01
        2 -1    0    0  502    0 -.00000000E+00 -.00000000E+00 -.35417022E+03 0.35417037E+03 0.32000000E+00 0.0000E+00 0.9000E+01
       25  1    1    2    0    0 -.17120538E+02 -.69291373E+02 -.26693696E+03 0.30327339E+03 0.12500000E+03 0.0000E+00 0.9000E+01
       24  1    1    2    0    0 0.44124392E+02 0.51999448E+02 -.12156843E+02 0.10614099E+03 0.80419002E+02 0.0000E+00 0.9000E+01
       21  1    1    2  502  501 -.27003854E+02 0.17291925E+02 0.16019664E+02 0.35852628E+02 0.75000000E+00 0.0000E+00 0.9000E+01
#aMCatNLO 1  0  0  5  1 0.43066297D+01 0.00000000D+00  -5  6  0 0.00000000D+00 0.00000000D+00 0.00000000D+00 0.00000000D+00 0.00000000D+00
  <mgrwgt>
 0.3371524994D+00   25    2    0
 0.179620922198843D+03 0.000000000000000D+00 0.000000000000000D+00 0.179620922198843D+03
 0.179620922198843D+03 -.000000000000000D+00 -.000000000000000D+00 -.179620922198843D+03
 0.180418667912829D+03 -.171193288933807D+02 -.692921476992486D+02 -.108772342885982D+03
 0.122654691257588D+03 0.441252137775440D+02 0.519989217872884D+02 0.626580798873474D+02
 0.561684852272694D+02 -.270058848841632D+02 0.172932259119602D+02 0.461142629986343D+02
 0.000000000000000D+00 0.000000000000000D+00 0.000000000000000D+00 0.000000000000000D+00
 0.179620922198843D+03 0.000000000000000D+00 0.000000000000000D+00 0.179620922198843D+03
 0.179620922198843D+03 -.000000000000000D+00 -.000000000000000D+00 -.179620922198843D+03
 0.180092939354569D+03 -.173957757820218D+02 -.691151248570631D+02 -.108300292272472D+03
 0.122802797707012D+03 0.439369924893801D+02 0.521194493416203D+02 0.629794796867453D+02
 0.460322608451615D+02 -.242134617285337D+02 0.169849028974790D+02 0.352730829840692D+02
 0.103138464909441D+02 -.232775497882455D+01 0.107726179638141D-01 0.100477296016572D+02
0.523344345962D-04 0.000000000000D+00 0.000000000000D+00 0.146458971133D-04 0.000000000000D+00  6 -1 2 25 24 21 21 2 0.14014836D-01 0.54487781D-01 0.19804011D+05 0.19804011D+05 0.19804011D+05 0.12342972D+01  1  2  2  3  6  5       21 0.287784628900D-01 0.100000000000D+01
0.320621286643D-05 0.276176398882D-05 -.200978008822D-06 0.146458971133D-04 0.000000000000D+00  6 -1 2 25 24 21 21 4 0.14014836D-01 0.54487781D-01 0.19804011D+05 0.19804011D+05 0.19804011D+05 0.12342972D+01  1  2  3  3  6  5       21 0.268603627258D-02 0.100000000000D+01
0.130942901070D-05 0.000000000000D+00 0.000000000000D+00 0.146458971133D-04 0.000000000000D+00  6 -1 2 25 24 21 21 4 0.14014836D-01 0.54487781D-01 0.19804011D+05 0.19804011D+05 0.19804011D+05 0.12342972D+01  1  2 15  3  6  5       21 0.109698699544D-02 0.100000000000D+01
0.315169825068D-04 0.000000000000D+00 0.000000000000D+00 0.146477942835D-04 0.000000000000D+00  6 -1 2 25 24 21 21 4 0.14014836D-01 0.54487781D-01 0.19770969D+05 0.19770969D+05 0.19770969D+05 0.12343771D+01  1  2 12  3  6  5       21 0.264095386304D-01 0.100000000000D+01
0.346056364211D-04 0.000000000000D+00 0.000000000000D+00 0.146477942835D-04 0.000000000000D+00  6 -1 2 25 24 21 21 4 0.14014836D-01 0.54487781D-01 0.19770969D+05 0.19770969D+05 0.19770969D+05 0.12343771D+01  1  2 12  3  6  5       21 0.289976647255D-01 0.100000000000D+01
-.782253387979D-03 0.000000000000D+00 0.000000000000D+00 0.146458971133D-04 0.000000000000D+00  6 -1 2 25 24 21 21 4 0.14014836D-01 0.54487781D-01 0.19804011D+05 0.19804011D+05 0.19804011D+05 0.12342972D+01  1  2  4  3  6  5       21 -.655340447435D+00 0.100000000000D+01
-.624906977906D-03 0.000000000000D+00 0.000000000000D+00 0.146458971133D-04 0.000000000000D+00  6 -1 2 25 24 21 21 4 0.14014836D-01 0.54487781D-01 0.19804011D+05 0.19804011D+05 0.19804011D+05 0.12342972D+01  1  2  5  3  6  5       21 -.523521949280D+00 0.100000000000D+01
0.784131839247D-03 0.000000000000D+00 -.000000000000D+00 0.146458971133D-04 0.000000000000D+00  6 -1 2 25 24 21 21 4 0.14014836D-01 0.54487781D-01 0.19804011D+05 0.19804011D+05 0.19804011D+05 0.12342972D+01  1  2  6  3  6  5       21 0.656914138406D+00 0.100000000000D+01
0.914966252806D-03 0.000000000000D+00 0.000000000000D+00 0.146458971133D-04 0.230975809622D-04  6 -1 2 25 24 21 21 4 0.14014836D-01 0.54487781D-01 0.19770969D+05 0.19770969D+05 0.19770969D+05 0.12343771D+01  1  2 11  3  6  5       21 0.766692578954D+00 0.100000000000D+01
0.629166813344D-06 0.000000000000D+00 0.000000000000D+00 0.146477942835D-04 0.000000000000D+00  6 -1 2 25 24 1 -1 4 0.14014836D-01 0.54487781D-01 0.19770969D+05 0.19770969D+05 0.19770969D+05 0.12343771D+01  1  2 12  6  6  5       21 0.527207998367D-03 0.100000000000D+01
0.662869083067D-06 0.000000000000D+00 0.000000000000D+00 0.146477942835D-04 0.000000000000D+00  6 -1 2 25 24 1 -1 4 0.14014836D-01 0.54487781D-01 0.19770969D+05 0.19770969D+05 0.19770969D+05 0.12343771D+01  1  2 12  6  6  5       21 0.555448690317D-03 0.100000000000D+01
-.526226363078D-05 0.000000000000D+00 0.000000000000D+00 0.146458971133D-04 0.000000000000D+00  6 -1 2 25 24 1 -1 4 0.14014836D-01 0.54487781D-01 0.19804011D+05 0.19804011D+05 0.19804011D+05 0.12342972D+01  1  2  5  6  6  5       21 -.440851296435D-02 0.100000000000D+01
0.275675806690D-05 0.000000000000D+00 0.000000000000D+00 0.146458971133D-04 0.132616999967D-06  6 -1 2 25 24 1 -1 4 0.14014836D-01 0.54487781D-01 0.19770969D+05 0.19770969D+05 0.19770969D+05 0.12343771D+01  1  2 11  6  6  5       21 0.231001520043D-02 0.100000000000D+01
0.629166813344D-06 0.000000000000D+00 0.000000000000D+00 0.146477942835D-04 0.000000000000D+00  6 -1 2 25 24 2 -2 4 0.14014836D-01 0.54487781D-01 0.19770969D+05 0.19770969D+05 0.19770969D+05 0.12343771D+01  1  2 12  7  6  5       21 0.527207998367D-03 0.100000000000D+01
0.662869083067D-06 0.000000000000D+00 0.000000000000D+00 0.146477942835D-04 0.000000000000D+00  6 -1 2 25 24 2 -2 4 0.14014836D-01 0.54487781D-01 0.19770969D+05 0.19770969D+05 0.19770969D+05 0.12343771D+01  1  2 12  7  6  5       21 0.555448690317D-03 0.100000000000D+01
-.526226363078D-05 0.000000000000D+00 0.000000000000D+00 0.146458971133D-04 0.000000000000D+00  6 -1 2 25 24 2 -2 4 0.14014836D-01 0.54487781D-01 0.19804011D+05 0.19804011D+05 0.19804011D+05 0.12342972D+01  1  2  5  7  6  5       21 -.440851296435D-02 0.100000000000D+01
0.614522295255D-05 0.000000000000D+00 0.000000000000D+00 0.146458971133D-04 0.116313174522D-06  6 -1 2 25 24 2 -2 4 0.14014836D-01 0.54487781D-01 0.19770969D+05 0.19770969D+05 0.19770969D+05 0.12343771D+01  1  2 11  7  6  5       21 0.514936678734D-02 0.100000000000D+01
0.629166813344D-06 0.000000000000D+00 0.000000000000D+00 0.146477942835D-04 0.000000000000D+00  6 -1 2 25 24 3 -3 4 0.14014836D-01 0.54487781D-01 0.19770969D+05 0.19770969D+05 0.19770969D+05 0.12343771D+01  1  2 12  8  6  5       21 0.527207998367D-03 0.100000000000D+01
0.629166813344D-06 0.000000000000D+00 0.000000000000D+00 0.146477942835D-04 0.000000000000D+00  6 -1 2 25 24 4 -4 4 0.14014836D-01 0.54487781D-01 0.19770969D+05 0.19770969D+05 0.19770969D+05 0.12343771D+01  1  2 12  8  6  5       21 0.527207998367D-03 0.100000000000D+01
0.662869083067D-06 0.000000000000D+00 0.000000000000D+00 0.146477942835D-04 0.000000000000D+00  6 -1 2 25 24 3 -3 4 0.14014836D-01 0.54487781D-01 0.19770969D+05 0.19770969D+05 0.19770969D+05 0.12343771D+01  1  2 12  8  6  5       21 0.555448690317D-03 0.100000000000D+01
0.662869083067D-06 0.000000000000D+00 0.000000000000D+00 0.146477942835D-04 0.000000000000D+00  6 -1 2 25 24 4 -4 4 0.14014836D-01 0.54487781D-01 0.19770969D+05 0.19770969D+05 0.19770969D+05 0.12343771D+01  1  2 12  8  6  5       21 0.555448690317D-03 0.100000000000D+01
-.526226363078D-05 0.000000000000D+00 0.000000000000D+00 0.146458971133D-04 0.000000000000D+00  6 -1 2 25 24 3 -3 4 0.14014836D-01 0.54487781D-01 0.19804011D+05 0.19804011D+05 0.19804011D+05 0.12342972D+01  1  2  5  8  6  5       21 -.440851296435D-02 0.100000000000D+01
-.526226363078D-05 0.000000000000D+00 0.000000000000D+00 0.146458971133D-04 0.000000000000D+00  6 -1 2 25 24 4 -4 4 0.14014836D-01 0.54487781D-01 0.19804011D+05 0.19804011D+05 0.19804011D+05 0.12342972D+01  1  2  5  8  6  5       21 -.440851296435D-02 0.100000000000D+01
0.613615244805D-05 0.000000000000D+00 0.000000000000D+00 0.146458971133D-04 0.116107960221D-06  6 -1 2 25 24 3 -3 4 0.14014836D-01 0.54487781D-01 0.19770969D+05 0.19770969D+05 0.19770969D+05 0.12343771D+01  1  2 11  8  6  5       21 0.514176619173D-02 0.100000000000D+01
0.613615244805D-05 0.000000000000D+00 0.000000000000D+00 0.146458971133D-04 0.116107960221D-06  6 -1 2 25 24 4 -4 4 0.14014836D-01 0.54487781D-01 0.19770969D+05 0.19770969D+05 0.19770969D+05 0.12343771D+01  1  2 11  8  6  5       21 0.514176619173D-02 0.100000000000D+01
  </mgrwgt>
  </event>
  <event>
  5     66 0.43535451E-03 0.42523614E+02 0.75467711E-02 0.12274097E+00
       -1 -1    0    0    0  501 0.00000000E+00 0.00000000E+00 0.86364771E+02 0.86365364E+02 0.32000000E+00 0.0000E+00 0.9000E+01
        2 -1    0    0  502    0 -.00000000E+00 -.00000000E+00 -.38391543E+03 0.38391556E+03 0.32000000E+00 0.0000E+00 0.9000E+01
       25  1    1    2    0    0 -.10783078E+02 -.16819108E+02 -.43578756E+02 0.13387780E+03 0.12500000E+03 0.0000E+00 0.9000E+01
       24  1    1    2    0    0 -.32012410E+02 0.24540124E+02 -.12248243E+02 0.90797839E+02 0.80419002E+02 0.0000E+00 0.9000E+01
       21  1    1    2  502  501 0.42795488E+02 -.77210160E+01 -.24172366E+03 0.24560529E+03 0.75000000E+00 0.0000E+00 0.9000E+01
#aMCatNLO 1  0  0  5  2 0.12437113D+01 0.00000000D+00  -5  6  0 0.00000000D+00 0.00000000D+00 0.00000000D+00 0.00000000D+00 0.00000000D+00
  <mgrwgt>
 0.4019212791D-01   25    2    0
 0.182090469410292D+03 0.000000000000000D+00 0.000000000000000D+00 0.182090469410292D+03
 0.182090469410292D+03 -.000000000000000D+00 -.000000000000000D+00 -.182090469410292D+03
 0.137276297455714D+03 -.107833949226282D+02 -.168190509547921D+02 0.531095072663312D+02
 0.107243881651782D+03 -.320126574487362D+02 0.245401687554042D+02 0.583695475217769D+02
 0.119660759713089D+03 0.427960523713645D+02 -.772111780061206D+01 -.111479054788108D+03
 0.000000000000000D+00 0.000000000000000D+00 -.000000000000000D+00 0.000000000000000D+00
 0.182090469410292D+03 0.000000000000000D+00 0.000000000000000D+00 0.182090469410292D+03
 0.182090469410292D+03 -.000000000000000D+00 -.000000000000000D+00 -.182090469410292D+03
 0.137272167368138D+03 -.107795137525827D+02 -.168197511822539D+02 0.530993972411262D+02
 0.107238552888689D+03 -.320096254055566D+02 0.245396217245153D+02 0.583616493795650D+02
 0.407371131285379D+02 0.137765701295758D+02 -.173473648624288D+01 -.382976394943014D+02
 0.789331054352199D+02 0.290125690285635D+02 -.598513405601859D+01 -.731634071263898D+02
0.909025793965D-06 0.000000000000D+00 0.000000000000D+00 0.212091099769D-04 0.000000000000D+00  6 -1 2 25 24 21 21 2 0.13286944D-01 0.59063968D-01 0.16905407D+05 0.16905407D+05 0.16905407D+05 0.12419451D+01  1  2  2  3  6  5       21 0.502899075354D-03 0.100000000000D+01
0.282561424153D-07 0.479706090656D-07 -.349089840081D-08 0.212091099769D-04 0.000000000000D+00  6 -1 2 25 24 21 21 4 0.13286944D-01 0.59063968D-01 0.16905407D+05 0.16905407D+05 0.16905407D+05 0.12419451D+01  1  2  3  3  6  5       21 0.241113917973D-04 0.100000000000D+01
0.359285627206D-07 0.000000000000D+00 0.000000000000D+00 0.212091099769D-04 0.000000000000D+00  6 -1 2 25 24 21 21 4 0.13286944D-01 0.59063968D-01 0.16905407D+05 0.16905407D+05 0.16905407D+05 0.12419451D+01  1  2 15  3  6  5       21 0.306583835733D-04 0.100000000000D+01
0.419072392352D-08 0.000000000000D+00 0.000000000000D+00 0.212088485648D-04 0.000000000000D+00  6 -1 2 25 24 21 21 4 0.13286944D-01 0.59063968D-01 0.16908059D+05 0.16908059D+05 0.16908059D+05 0.12419374D+01  1  2 12  3  6  5       21 0.357593262276D-05 0.100000000000D+01
0.417809178965D-08 0.000000000000D+00 0.000000000000D+00 0.212088485648D-04 0.000000000000D+00  6 -1 2 25 24 21 21 4 0.13286944D-01 0.59063968D-01 0.16908059D+05 0.16908059D+05 0.16908059D+05 0.12419374D+01  1  2 12  3  6  5       21 0.356515365940D-05 0.100000000000D+01
-.400563471194D-03 0.000000000000D+00 0.000000000000D+00 0.212091099769D-04 0.000000000000D+00  6 -1 2 25 24 21 21 4 0.13286944D-01 0.59063968D-01 0.16905407D+05 0.16905407D+05 0.16905407D+05 0.12419451D+01  1  2  4  3  6  5       21 -.341806841559D+00 0.100000000000D+01
-.161411894339D-03 0.000000000000D+00 0.000000000000D+00 0.212091099769D-04 0.000000000000D+00  6 -1 2 25 24 21 21 4 0.13286944D-01 0.59063968D-01 0.16905407D+05 0.16905407D+05 0.16905407D+05 0.12419451D+01  1  2  5  3  6  5       21 -.137735199941D+00 0.100000000000D+01
0.437915355656D-03 0.000000000000D+00 -.000000000000D+00 0.212091099769D-04 0.000000000000D+00  6 -1 2 25 24 21 21 4 0.13286944D-01 0.59063968D-01 0.16905407D+05 0.16905407D+05 0.16905407D+05 0.12419451D+01  1  2  6  3  6  5       21 0.373679767007D+00 0.100000000000D+01
0.169385429026D-03 0.000000000000D+00 0.000000000000D+00 0.212091099769D-04 0.813315252560D-04  6 -1 2 25 24 21 21 4 0.13286944D-01 0.59063968D-01 0.16908059D+05 0.16908059D+05 0.16908059D+05 0.12419374D+01  1  2 11  3  6  5       21 0.144536097469D+00 0.100000000000D+01
0.303255715607D-09 0.000000000000D+00 0.000000000000D+00 0.212088485648D-04 0.000000000000D+00  6 -1 2 25 24 1 -1 4 0.13286944D-01 0.59063968D-01 0.16908059D+05 0.16908059D+05 0.16908059D+05 0.12419374D+01  1  2 12  6  6  5       21 0.258767226442D-06 0.100000000000D+01
0.302415198306D-09 0.000000000000D+00 0.000000000000D+00 0.212088485648D-04 0.000000000000D+00  6 -1 2 25 24 1 -1 4 0.13286944D-01 0.59063968D-01 0.16908059D+05 0.16908059D+05 0.16908059D+05 0.12419374D+01  1  2 12  6  6  5       21 0.258050015457D-06 0.100000000000D+01
-.112893306990D-04 0.000000000000D+00 0.000000000000D+00 0.212091099769D-04 0.000000000000D+00  6 -1 2 25 24 1 -1 4 0.13286944D-01 0.59063968D-01 0.16905407D+05 0.16905407D+05 0.16905407D+05 0.12419451D+01  1  2  5  6  6  5       21 -.963335587749D-02 0.100000000000D+01
0.115522388029D-04 0.000000000000D+00 0.000000000000D+00 0.212091099769D-04 0.227825896690D-05  6 -1 2 25 24 1 -1 4 0.13286944D-01 0.59063968D-01 0.16908059D+05 0.16908059D+05 0.16908059D+05 0.12419374D+01  1  2 11  6  6  5       21 0.985749201213D-02 0.100000000000D+01
0.303255715607D-09 0.000000000000D+00 0.000000000000D+00 0.212088485648D-04 0.000000000000D+00  6 -1 2 25 24 2 -2 4 0.13286944D-01 0.59063968D-01 0.16908059D+05 0.16908059D+05 0.16908059D+05 0.12419374D+01  1  2 12  7  6  5       21 0.258767226442D-06 0.100000000000D+01
0.302415198306D-09 0.000000000000D+00 0.000000000000D+00 0.212088485648D-04 0.000000000000D+00  6 -1 2 25 24 2 -2 4 0.13286944D-01 0.59063968D-01 0.16908059D+05 0.16908059D+05 0.16908059D+05 0.12419374D+01  1  2 12  7  6  5       21 0.258050015457D-06 0.100000000000D+01
-.112893306990D-04 0.000000000000D+00 0.000000000000D+00 0.212091099769D-04 0.000000000000D+00  6 -1 2 25 24 2 -2 4 0.13286944D-01 0.59063968D-01 0.16905407D+05 0.16905407D+05 0.16905407D+05 0.12419451D+01  1  2  5  7  6  5       21 -.963335587749D-02 0.100000000000D+01
0.116148723011D-04 0.000000000000D+00 0.000000000000D+00 0.212091099769D-04 0.229217222978D-05  6 -1 2 25 24 2 -2 4 0.13286944D-01 0.59063968D-01 0.16908059D+05 0.16908059D+05 0.16908059D+05 0.12419374D+01  1  2 11  7  6  5       21 0.991093699530D-02 0.100000000000D+01
0.303255715607D-09 0.000000000000D+00 0.000000000000D+00 0.212088485648D-04 0.000000000000D+00  6 -1 2 25 24 3 -3 4 0.13286944D-01 0.59063968D-01 0.16908059D+05 0.16908059D+05 0.16908059D+05 0.12419374D+01  1  2 12  8  6  5       21 0.258767226442D-06 0.100000000000D+01
0.303255715607D-09 0.000000000000D+00 0.000000000000D+00 0.212088485648D-04 0.000000000000D+00  6 -1 2 25 24 4 -4 4 0.13286944D-01 0.59063968D-01 0.16908059D+05 0.16908059D+05 0.16908059D+05 0.12419374D+01  1  2 12  8  6  5       21 0.258767226442D-06 0.100000000000D+01
0.302415198306D-09 0.000000000000D+00 0.000000000000D+00 0.212088485648D-04 0.000000000000D+00  6 -1 2 25 24 3 -3 4 0.13286944D-01 0.59063968D-01 0.16908059D+05 0.16908059D+05 0.16908059D+05 0.12419374D+01  1  2 12  8  6  5       21 0.258050015457D-06 0.100000000000D+01
0.302415198306D-09 0.000000000000D+00 0.000000000000D+00 0.212088485648D-04 0.000000000000D+00  6 -1 2 25 24 4 -4 4 0.13286944D-01 0.59063968D-01 0.16908059D+05 0.16908059D+05 0.16908059D+05 0.12419374D+01  1  2 12  8  6  5       21 0.258050015457D-06 0.100000000000D+01
-.112893306990D-04 0.000000000000D+00 0.000000000000D+00 0.212091099769D-04 0.000000000000D+00  6 -1 2 25 24 3 -3 4 0.13286944D-01 0.59063968D-01 0.16905407D+05 0.16905407D+05 0.16905407D+05 0.12419451D+01  1  2  5  8  6  5       21 -.963335587749D-02 0.100000000000D+01
-.112893306990D-04 0.000000000000D+00 0.000000000000D+00 0.212091099769D-04 0.000000000000D+00  6 -1 2 25 24 4 -4 4 0.13286944D-01 0.59063968D-01 0.16905407D+05 0.16905407D+05 0.16905407D+05 0.12419451D+01  1  2  5  8  6  5       21 -.963335587749D-02 0.100000000000D+01
0.115530815406D-04 0.000000000000D+00 0.000000000000D+00 0.212091099769D-04 0.227842200575D-05  6 -1 2 25 24 3 -3 4 0.13286944D-01 0.59063968D-01 0.16908059D+05 0.16908059D+05 0.16908059D+05 0.12419374D+01  1  2 11  8  6  5       21 0.985821111779D-02 0.100000000000D+01
0.115530815406D-04 0.000000000000D+00 0.000000000000D+00 0.212091099769D-04 0.227842200575D-05  6 -1 2 25 24 4 -4 4 0.13286944D-01 0.59063968D-01 0.16908059D+05 0.16908059D+05 0.16908059D+05 0.12419374D+01  1  2 11  8  6  5       21 0.985821111779D-02 0.100000000000D+01
  </mgrwgt>
  </event>
  <event>
  5     66 -.43535451E-03 0.20845498E+02 0.75467711E-02 0.12252570E+00
       -1 -1    0    0    0  501 0.00000000E+00 0.00000000E+00 0.55210292E+02 0.55211219E+02 0.32000000E+00 0.0000E+00 0.9000E+01
        2 -1    0    0  502    0 0.00000000E+00 0.00000000E+00 -.77412518E+03 0.77412524E+03 0.32000000E+00 0.0000E+00 0.9000E+01
       25  1    1    2    0    0 0.54434998E+01 0.57434088E+02 -.20266117E+03 0.24499970E+03 0.12500000E+03 0.0000E+00 0.9000E+01
       24  1    1    2    0    0 0.15268102E+02 -.59789892E+02 -.54188854E+03 0.55128790E+03 0.80419002E+02 0.0000E+00 0.9000E+01
       21  1    1    2  502  501 -.20711601E+02 0.23558045E+01 0.25634822E+02 0.33048855E+02 0.75000000E+00 0.0000E+00 0.9000E+01
#aMCatNLO 1  0  0  1  5 0.31405046D+01 0.00000000D+00  -5  6  0 0.00000000D+00 0.00000000D+00 0.00000000D+00 0.00000000D+00 0.00000000D+00
  <mgrwgt>
 -.2635603687D+01   11    4    0
 0.206736761550399D+03 0.000000000000000D+00 0.000000000000000D+00 0.206736761550399D+03
 0.206736761550399D+03 0.000000000000000D+00 0.000000000000000D+00 -.206736761550399D+03
 0.139043990161512D+03 0.544365915039960D+01 0.574340696328665D+02 0.194916756718343D+02
 0.163569727167161D+03 0.152682891498846D+02 -.597899136022489D+02 -.128374005425709D+03
 0.110859805772125D+03 -.207119483002842D+02 0.235584396938240D+01 0.108882329753875D+03
 0.000000000000000D+00 -.000000000000000D+00 0.000000000000000D+00 0.000000000000000D+00
 0.240533602860041D+03 0.000000000000000D+00 0.000000000000000D+00 0.240533602860041D+03
 0.206815693992931D+03 0.000000000000000D+00 0.000000000000000D+00 -.206815693992931D+03
 0.138664099727640D+03 0.586266955278915D+01 0.564662398119066D+02 0.194916756718343D+02
 0.164037269124476D+03 0.157625878193853D+02 -.609316441895456D+02 -.128374005425709D+03
 0.110784080800274D+03 -.203775284634802D+02 0.158340135475113D+01 0.108882329753875D+03
 0.338638472005811D+02 -.124772890869427D+01 0.288200302288785D+01 0.337179088671106D+02
 0.206736761550399D+03 0.000000000000000D+00 0.000000000000000D+00 0.206736761550399D+03
 0.206736761550399D+03 0.000000000000000D+00 0.000000000000000D+00 -.206736761550399D+03
 0.139043990161512D+03 0.544365915039960D+01 0.574340696328665D+02 0.194916756718343D+02
 0.163569727167161D+03 0.152682891498846D+02 -.597899136022489D+02 -.128374005425709D+03
 0.000000000000000D+00 -.000000000000000D+00 0.000000000000000D+00 0.000000000000000D+00
 0.110859805772125D+03 -.207119483002842D+02 0.235584396938240D+01 0.108882329753875D+03
 0.240533602860041D+03 0.000000000000000D+00 0.000000000000000D+00 0.240533602860041D+03
 0.206815693992931D+03 0.000000000000000D+00 0.000000000000000D+00 -.206815693992931D+03
 0.138664099727640D+03 0.586266955278915D+01 0.564662398119066D+02 0.194916756718343D+02
 0.164037269124476D+03 0.157625878193853D+02 -.609316441895456D+02 -.128374005425709D+03
 0.338638472005811D+02 -.124772890869427D+01 0.288200302288785D+01 0.337179088671106D+02
 0.110784080800274D+03 -.203775284634802D+02 0.158340135475113D+01 0.108882329753875D+03
0.523152955830D-04 0.000000000000D+00 0.000000000000D+00 0.458472526974D-04 0.000000000000D+00  6 -1 2 25 24 21 21 2 0.84939674D-02 0.11909626D+00 0.16884796D+05 0.16884796D+05 0.16884796D+05 0.12420046D+01  1  2  2  1  6  1       -1 0.261063126411D-01 0.100000000000D+01
0.941828236311D-05 0.276075399535D-05 -.200904509972D-06 0.458472526974D-04 0.000000000000D+00  6 -1 2 25 24 21 21 4 0.84939674D-02 0.11909626D+00 0.16884796D+05 0.16884796D+05 0.16884796D+05 0.12420046D+01  1  2  3  1  6  1       -1 0.724994928931D-02 0.100000000000D+01
0.248754391812D-05 0.000000000000D+00 0.000000000000D+00 0.458472526974D-04 0.000000000000D+00  6 -1 2 25 24 21 21 4 0.84939674D-02 0.11909626D+00 0.16884796D+05 0.16884796D+05 0.16884796D+05 0.12420046D+01  1  2 15  1  6  1       -1 0.191484673808D-02 0.100000000000D+01
0.240419457792D-03 0.000000000000D+00 0.000000000000D+00 0.457618919163D-04 0.000000000000D+00  6 -1 2 25 24 21 21 4 0.10234377D-01 0.11909626D+00 0.17290412D+05 0.17290412D+05 0.17290412D+05 0.12408479D+01  1  2 12  1  6  1       -1 0.138963754321D+00 0.100000000000D+01
-.161023300235D-01 0.000000000000D+00 0.000000000000D+00 0.458472526974D-04 0.000000000000D+00  6 -1 2 25 24 21 21 4 0.84939674D-02 0.11909626D+00 0.16884796D+05 0.16884796D+05 0.16884796D+05 0.12420046D+01  1  2  4  1  6  1       -1 -.123951556780D+02 0.100000000000D+01
-.145443482690D-01 0.000000000000D+00 -.721007791199D-04 0.458472526974D-04 0.000000000000D+00  6 -1 2 25 24 21 21 4 0.98844156D-02 0.11909626D+00 0.16884796D+05 0.16884796D+05 0.16884796D+05 0.12420046D+01  1  2  5  1  6  1       -1 -.889526809636D+01 0.100000000000D+01
0.143904115987D-01 0.000000000000D+00 0.712800757863D-04 0.458472526974D-04 0.000000000000D+00  6 -1 2 25 24 21 21 4 0.84939674D-02 0.11909626D+00 0.16884796D+05 0.16884796D+05 0.16884796D+05 0.12420046D+01  1  2  6  1  6  1       -1 0.110773653115D+02 0.100000000000D+01
0.136358937074D-01 0.000000000000D+00 0.000000000000D+00 0.458472526974D-04 0.298639735812D-04  6 -1 2 25 24 21 21 4 0.98825413D-02 0.11914173D+00 0.17290412D+05 0.17290412D+05 0.17290412D+05 0.12408479D+01  1  2 11  1  6  1       -1 0.830974970412D+01 0.100000000000D+01
0.651583228829D-05 0.000000000000D+00 0.000000000000D+00 0.457618919163D-04 0.000000000000D+00  6 21 2 25 24 1 21 4 0.10234377D-01 0.11909626D+00 0.17290412D+05 0.17290412D+05 0.17290412D+05 0.12408479D+01  3  4 12  4  5  1       -1 0.565716628838D-01 0.100000000000D+01
-.334125272573D-03 0.000000000000D+00 -.165888959864D-05 0.458472526974D-04 0.000000000000D+00  6 21 2 25 24 1 21 4 0.98844156D-02 0.11909626D+00 0.16884796D+05 0.16884796D+05 0.16884796D+05 0.12420046D+01  3  4  5  4  5  1       -1 -.309486036616D+01 0.100000000000D+01
0.231052840844D-03 0.000000000000D+00 0.000000000000D+00 0.458472526974D-04 0.101197835144D-05  6 21 2 25 24 1 21 4 0.98825413D-02 0.11914173D+00 0.17290412D+05 0.17290412D+05 0.17290412D+05 0.12408479D+01  3  4 11  4  5  1       -1 0.213175891233D+01 0.100000000000D+01
  </mgrwgt>
  </event>
  <event>
  5     66 0.43535451E-03 0.36176758E+02 0.75467711E-02 0.12061268E+00
       -1 -1    0    0    0  501 0.00000000E+00 0.00000000E+00 0.18847373E+02 0.18850089E+02 0.32000000E+00 0.0000E+00 0.9000E+01
        2 -1    0    0  502    0 -.00000000E+00 -.00000000E+00 -.13478409E+04 0.13478410E+04 0.32000000E+00 0.0000E+00 0.9000E+01
       25  1    1    2    0    0 -.59505603E+01 0.99342073E+02 -.66779901E+03 0.68664749E+03 0.12500000E+03 0.0000E+00 0.9000E+01
       24  1    1    2    0    0 0.16687531E+02 -.64799098E+02 -.31400634E+03 0.33097521E+03 0.80419002E+02 0.0000E+00 0.9000E+01
       21  1    1    2  502  501 -.10736971E+02 -.34542975E+02 -.34718821E+03 0.34906836E+03 0.75000000E+00 0.0000E+00 0.9000E+01
#aMCatNLO 1  0  0  5  1 0.79949924D+01 0.00000000D+00  -5  6  0 0.00000000D+00 0.00000000D+00 0.00000000D+00 0.00000000D+00 0.00000000D+00
  <mgrwgt>
 0.1502317670D+00   14    2    0
 0.159389907426972D+03 0.000000000000000D+00 0.000000000000000D+00 0.159389907426972D+03
 0.159389907426972D+03 -.000000000000000D+00 -.000000000000000D+00 -.159389907426972D+03
 0.159780481129557D+03 -.594993281541199D+01 0.993440918606041D+02 -.389694594028204D+00
 0.109882605803719D+03 0.166879627127854D+02 -.647977097461949D+02 0.336116024013957D+02
 0.491167279206675D+02 -.107380298973734D+02 -.345463821144092D+02 -.332219078073675D+02
 0.000000000000000D+00 0.000000000000000D+00 0.000000000000000D+00 0.000000000000000D+00
 0.159389907426972D+03 0.000000000000000D+00 0.000000000000000D+00 0.159389907426972D+03
 0.159389907426972D+03 -.000000000000000D+00 -.000000000000000D+00 -.159389907426972D+03
 0.156624738688962D+03 -.764382115102342D+01 0.938945155174159D+02 -.563033954095868D+01
 0.110955001412232D+03 0.155056995151618D+02 -.686012860609618D+02 0.299538514609646D+02
 0.417575475083646D+02 -.543138772442952D+01 -.244543637171097D+02 -.334092337010526D+02
 0.944252724438462D+01 -.243049063970882D+01 -.838865739344422D+00 0.908572178104678D+01
0.524887754987D-04 0.000000000000D+00 0.000000000000D+00 0.163525454469D-04 0.000000000000D+00  6 -1 2 25 24 21 21 2 0.28998077D-02 0.20736036D+00 0.22585953D+05 0.22585953D+05 0.22585953D+05 0.12280543D+01  1  2  2  3  6  5       21 0.578823794922D-01 0.100000000000D+01
0.398690189662D-05 0.276990878202D-05 -.201570718527D-06 0.163525454469D-04 0.000000000000D+00  6 -1 2 25 24 21 21 4 0.28998077D-02 0.20736036D+00 0.22585953D+05 0.22585953D+05 0.22585953D+05 0.12280543D+01  1  2  3  3  6  5       21 0.663056652460D-02 0.100000000000D+01
0.111624408366D-05 0.000000000000D+00 0.000000000000D+00 0.163525454469D-04 0.000000000000D+00  6 -1 2 25 24 21 21 4 0.28998077D-02 0.20736036D+00 0.22585953D+05 0.22585953D+05 0.22585953D+05 0.12280543D+01  1  2 15  3  6  5       21 0.185641153113D-02 0.100000000000D+01
0.590127289084D-04 0.000000000000D+00 0.000000000000D+00 0.164343691967D-04 0.000000000000D+00  6 -1 2 25 24 21 21 4 0.28998077D-02 0.20736036D+00 0.21167376D+05 0.21167376D+05 0.21167376D+05 0.12311229D+01  1  2 12  3  6  5       21 0.990135477086D-01 0.100000000000D+01
-.114537182847D-04 0.000000000000D+00 0.000000000000D+00 0.163525454469D-04 0.000000000000D+00  6 -1 2 25 24 21 21 4 0.28998077D-02 0.20736036D+00 0.22585953D+05 0.22585953D+05 0.22585953D+05 0.12280543D+01  1  2  4  3  6  5       21 -.190485351810D-01 0.100000000000D+01
0.250057001711D-06 0.000000000000D+00 0.000000000000D+00 0.163525454469D-04 0.214231458408D-04  6 -1 2 25 24 21 21 4 0.28998077D-02 0.20736036D+00 0.21167376D+05 0.21167376D+05 0.21167376D+05 0.12311229D+01  1  2 11  3  6  5       21 0.419554074634D-03 0.100000000000D+01
0.517184198460D-06 0.000000000000D+00 0.000000000000D+00 0.164343691967D-04 0.000000000000D+00  6 -1 2 25 24 1 -1 4 0.28998077D-02 0.20736036D+00 0.21167376D+05 0.21167376D+05 0.21167376D+05 0.12311229D+01  1  2 12  6  6  5       21 0.867749098467D-03 0.100000000000D+01
0.799118770841D-10 0.000000000000D+00 0.000000000000D+00 0.164343691967D-04 0.129301177496D-07  6 -1 2 25 24 1 -1 4 0.28998077D-02 0.20736036D+00 0.21167376D+05 0.21167376D+05 0.21167376D+05 0.12311229D+01  1  2 11  6  6  5       21 0.134078843675D-06 0.100000000000D+01
0.517184198460D-06 0.000000000000D+00 0.000000000000D+00 0.164343691967D-04 0.000000000000D+00  6 -1 2 25 24 2 -2 4 0.28998077D-02 0.20736036D+00 0.21167376D+05 0.21167376D+05 0.21167376D+05 0.12311229D+01  1  2 12  7  6  5       21 0.867749098467D-03 0.100000000000D+01
0.136613549657D-08 0.000000000000D+00 0.000000000000D+00 0.164343691967D-04 0.730915584594D-08  6 -1 2 25 24 2 -2 4 0.28998077D-02 0.20736036D+00 0.21167376D+05 0.21167376D+05 0.21167376D+05 0.12311229D+01  1  2 11  7  6  5       21 0.229214823087D-05 0.100000000000D+01
0.517184198460D-06 0.000000000000D+00 0.000000000000D+00 0.164343691967D-04 0.000000000000D+00  6 -1 2 25 24 3 -3 4 0.28998077D-02 0.20736036D+00 0.21167376D+05 0.21167376D+05 0.21167376D+05 0.12311229D+01  1  2 12  8  6  5       21 0.867749098467D-03 0.100000000000D+01
0.517184198460D-06 0.000000000000D+00 0.000000000000D+00 0.164343691967D-04 0.000000000000D+00  6 -1 2 25 24 4 -4 4 0.28998077D-02 0.20736036D+00 0.21167376D+05 0.21167376D+05 0.21167376D+05 0.12311229D+01  1  2 12  8  6  5       21 0.867749098467D-03 0.100000000000D+01
0.131723611952D-08 0.000000000000D+00 0.000000000000D+00 0.164343691967D-04 0.521033796786D-08  6 -1 2 25 24 3 -3 4 0.28998077D-02 0.20736036D+00 0.21167376D+05 0.21167376D+05 0.21167376D+05 0.12311229D+01  1  2 11  8  6  5       21 0.221010320614D-05 0.100000000000D+01
0.131723611952D-08 0.000000000000D+00 0.000000000000D+00 0.164343691967D-04 0.521033796786D-08  6 -1 2 25 24 4 -4 4 0.28998077D-02 0.20736036D+00 0.21167376D+05 0.21167376D+05 0.21167376D+05 0.12311229D+01  1  2 11  8  6  5       21 0.221010320614D-05 0.100000000000D+01
  </mgrwgt>
  </event>
  <event>
  5     66 0.43535451E-03 0.28815634E+02 0.75467711E-02 0.10304755E+00
       -1 -1    0    0    0  501 0.00000000E+00 0.00000000E+00 0.29085581E+02 0.29087341E+02 0.32000000E+00 0.0000E+00 0.9000E+01
        2 -1    0    0  502    0 0.00000000E+00 0.00000000E+00 -.63389378E+03 0.63389386E+03 0.32000000E+00 0.0000E+00 0.9000E+01
       25  1    1    2    0    0 0.24399189E+02 -.27871251E+02 -.38008854E+03 0.40182637E+03 0.12500000E+03 0.0000E+00 0.9000E+01
       24  1    1    2    0    0 -.39660111E+02 0.52305206E+02 -.18411768E+03 0.21136531E+03 0.80419002E+02 0.0000E+00 0.9000E+01
       21  1    1    2  502  501 0.15260922E+02 -.24433955E+02 -.40601977E+02 0.49789526E+02 0.75000000E+00 0.0000E+00 0.9000E+01
#aMCatNLO 1  0  0  2  1 0.84503583D+01 0.00000000D+00  -5  6  0 0.00000000D+00 0.00000000D+00 0.00000000D+00 0.00000000D+00 0.00000000D+00
  <mgrwgt>
 0.2664853731D+00    5    4    0
 0.135785784469465D+03 0.000000000000000D+00 0.000000000000000D+00 0.135785784469465D+03
 0.135785784469465D+03 0.000000000000000D+00 0.000000000000000D+00 -.135785784469465D+03
 0.134485603347789D+03 0.243969941333515D+02 -.278677370788363D+02 -.330083840134742D+02
 0.105960357467173D+03 -.396618406943232D+02 0.523079745393043D+02 0.212413651287822D+02
 0.311256081239672D+02 0.152648465609717D+02 -.244402374604680D+02 0.117670188846920D+02
 0.000000000000000D+00 -.000000000000000D+00 0.000000000000000D+00 -.000000000000000D+00
 0.376787177735107D+03 0.000000000000000D+00 0.000000000000000D+00 0.376787177735107D+03
 0.543025891182171D+03 0.000000000000000D+00 0.000000000000000D+00 -.543025891182171D+03
 0.293209473989516D+03 0.126305181442708D+03 -.230877117451583D+03 -.330083840134742D+02
 0.937306572018948D+02 0.791913557873674D+01 -.424771920479676D+02 0.212413651287822D+02
 0.980344354390813D+02 0.460401970612701D+02 -.857472335004816D+02 0.117670188846920D+02
 0.434838502286787D+03 -.180264514082715D+03 0.359101543000032D+03 -.166238713447064D+03
 0.135785784469465D+03 0.000000000000000D+00 0.000000000000000D+00 0.135785784469465D+03
 0.135785784469465D+03 0.000000000000000D+00 0.000000000000000D+00 -.135785784469465D+03
 0.134485603347789D+03 0.243969941333515D+02 -.278677370788363D+02 -.330083840134742D+02
 0.105960357467173D+03 -.396618406943232D+02 0.523079745393043D+02 0.212413651287822D+02
 0.000000000000000D+00 -.000000000000000D+00 0.000000000000000D+00 -.000000000000000D+00
 0.311256081239672D+02 0.152648465609717D+02 -.244402374604680D+02 0.117670188846920D+02
 0.376787177735107D+03 0.000000000000000D+00 0.000000000000000D+00 0.376787177735107D+03
 0.543025891182171D+03 0.000000000000000D+00 0.000000000000000D+00 -.543025891182171D+03
 0.293209473989516D+03 0.126305181442708D+03 -.230877117451583D+03 -.330083840134742D+02
 0.937306572018948D+02 0.791913557873674D+01 -.424771920479676D+02 0.212413651287822D+02
 0.434838502286787D+03 -.180264514082715D+03 0.359101543000032D+03 -.166238713447064D+03
 0.980344354390813D+02 0.460401970612701D+02 -.857472335004816D+02 0.117670188846920D+02
0.126444323319D-03 0.000000000000D+00 0.000000000000D+00 0.270193412574D-04 0.000000000000D+00  6 -1 2 25 24 21 21 2 0.44748464D-02 0.97522262D-01 0.17291849D+05 0.17291849D+05 0.17291849D+05 0.12408438D+01  1  2  2  2  6  2        2 0.207638481769D+00 0.100000000000D+01
0.151714713132D-04 0.667265026224D-05 -.485579495098D-06 0.270193412574D-04 0.000000000000D+00  6 -1 2 25 24 21 21 4 0.44748464D-02 0.97522262D-01 0.17291849D+05 0.17291849D+05 0.17291849D+05 0.12408438D+01  1  2  3  2  6  2        2 0.383592795942D-01 0.100000000000D+01
0.474819853439D-05 0.000000000000D+00 0.000000000000D+00 0.270193412574D-04 0.000000000000D+00  6 -1 2 25 24 21 21 4 0.44748464D-02 0.97522262D-01 0.17291849D+05 0.17291849D+05 0.17291849D+05 0.12408438D+01  1  2 15  2  6  2        2 0.120052611503D-01 0.100000000000D+01
0.221186478204D-03 0.000000000000D+00 -.139693116438D-03 0.270193412574D-04 0.000000000000D+00  6 -1 2 25 24 21 21 4 0.44748464D-02 0.58501052D+00 0.17291849D+05 0.17291849D+05 0.17291849D+05 0.12408438D+01  1  2  5  2  6  2        2 0.839609103615D-02 0.100000000000D+01
0.396428762837D-04 0.000000000000D+00 -.306722290224D-04 0.270193412574D-04 0.000000000000D+00  6 -1 21 25 24 -2 21 4 0.44748464D-02 0.58501052D+00 0.17291849D+05 0.17291849D+05 0.17291849D+05 0.12408438D+01  3  4  5  5  5  2        2 0.862595987603D-04 0.100000000000D+01
  </mgrwgt>
  </event>
  <event>
  6     66 -.43535451E-03 0.13278113E+02 0.75467711E-02 0.11265243E+00
       -3 -1    0    0    0  501 0.00000000E+00 0.00000000E+00 0.66091835E+02 0.66093726E+02 0.50000000E+00 0.0000E+00 0.9000E+01
        4 -1    0    0  502    0 -.00000000E+00 -.00000000E+00 -.11842524E+04 0.11842534E+04 0.15500000E+01 0.0000E+00 0.9000E+01
       25  1    1    2    0    0 -.13333902E+02 -.17768002E+03 -.86822864E+03 0.89509439E+03 0.12500000E+03 0.0000E+00 0.9000E+01
       24  1    1    2    0    0 0.25299906E+02 0.18544316E+03 -.17801563E+03 0.27052917E+03 0.80419002E+02 0.0000E+00 0.9000E+01
       21  1    1    2  502  503 -.19653395E+02 0.87416324E-01 -.10436898E+02 0.22265555E+02 0.75000000E+00 0.0000E+00 0.9000E+01
       21  1    1    2  503  501 0.76873913E+01 -.78505538E+01 -.61479399E+02 0.62458035E+02 0.75000000E+00 0.0000E+00 0.9000E+01
#aMCatNLO 2  0  0  5  2 0.15279969D+02 0.00000000D+00  -5  6  0 0.00000000D+00 0.00000000D+00 0.00000000D+00 0.00000000D+00 0.00000000D+00
  <mgrwgt>
 -.8175041439D-02    3    2    0
 0.279769961018583D+03 0.000000000000000D+00 0.000000000000000D+00 0.279769961018583D+03
 0.279769961018583D+03 -.000000000000000D+00 -.000000000000000D+00 -.279769961018583D+03
 0.264766859745883D+03 -.322450772376557D+01 -.171121391698717D+03 -.158693294983530D+03
 0.250775145997567D+03 0.348302570692635D+02 0.191626129566023D+03 0.135967781315153D+03
 0.439979162937172D+02 -.316057493454978D+02 -.205047378673061D+02 0.227255136683767D+02
 0.000000000000000D+00 0.000000000000000D+00 0.000000000000000D+00 -.000000000000000D+00
 0.279769961018583D+03 0.000000000000000D+00 0.000000000000000D+00 0.279769961018583D+03
 0.279769961018583D+03 -.000000000000000D+00 -.000000000000000D+00 -.279769961018583D+03
 0.265164441511091D+03 -.135810662029403D+02 -.177840375466559D+03 -.151246608347405D+03
 0.248745520988786D+03 0.250680199888539D+02 0.185292721357785D+03 0.142987132439520D+03
 0.284040942958359D+02 -.189819883933827D+02 0.125786849324221D+01 0.210925213346799D+02
 0.172258652414538D+02 0.749503460746913D+01 -.871021438446751D+01 -.128330454267949D+02
-.522361786139D-03 0.000000000000D+00 0.000000000000D+00 0.756956780235D-05 0.000000000000D+00  6 -3 4 25 24 21 21 4 0.10168198D-01 0.18219290D+00 0.51043319D+05 0.51043319D+05 0.51043319D+05 0.11913945D+01  1  2 13  3  6  5       21 -.299140197677D-02 0.100000000000D+01
-.748614979431D-03 0.000000000000D+00 0.000000000000D+00 0.756956780235D-05 0.000000000000D+00  6 -3 4 25 24 21 21 4 0.10168198D-01 0.18219290D+00 0.51043319D+05 0.51043319D+05 0.51043319D+05 0.11913945D+01  1  2 13  3  6  5       21 -.428708299254D-02 0.100000000000D+01
-.157185513093D-03 0.000000000000D+00 0.000000000000D+00 0.754936267064D-05 0.000000000000D+00  6 -3 4 25 24 21 21 4 0.10168198D-01 0.18219290D+00 0.52975535D+05 0.52975535D+05 0.52975535D+05 0.11898034D+01  1  2  8  3  6  5       21 -.896556470091D-03 0.100000000000D+01
  </mgrwgt>
  </event>
  <event>
  5     66 0.43535451E-03 0.23564950E+02 0.75467711E-02 0.12298268E+00
       -1 -1    0    0    0  501 0.00000000E+00 0.00000000E+00 0.69664180E+03 0.69664188E+03 0.32000000E+00 0.0000E+00 0.9000E+01
        2 -1    0    0  502    0 0.00000000E+00 0.00000000E+00 -.22300652E+02 0.22302948E+02 0.32000000E+00 0.0000E+00 0.9000E+01
       25  1    1    2    0    0 -.82293838E+01 0.38616288E+01 0.38165395E+03 0.40170558E+03 0.12500000E+03 0.0000E+00 0.9000E+01
       24  1    1    2    0    0 0.21420881E+02 -.23380762E+02 0.15435207E+03 0.17691040E+03 0.80419002E+02 0.0000E+00 0.9000E+01
       21  1    1    2  502  501 -.13191497E+02 0.19519133E+02 0.13833514E+03 0.14032884E+03 0.75000000E+00 0.0000E+00 0.9000E+01
#aMCatNLO 1  0  0  2  2 0.20968754D+02 0.00000000D+00  -5  6  0 0.00000000D+00 0.00000000D+00 0.00000000D+00 0.00000000D+00 0.00000000D+00
  <mgrwgt>
 0.7644042833D+00    4    2    0
 0.124645169395328D+03 0.000000000000000D+00 0.000000000000000D+00 0.124645169395328D+03
 0.124645169395328D+03 0.000000000000000D+00 0.000000000000000D+00 -.124645169395328D+03
 0.126114175478381D+03 -.822736538227496D+01 0.385864208504221D+01 0.140430266224169D+02
 0.926762240837513D+02 0.214223645442390D+02 -.233829563099698D+02 -.334063797438592D+02
 0.304999392285233D+02 -.131949991619641D+02 0.195243142249276D+02 0.193633531214423D+02
 0.000000000000000D+00 -.000000000000000D+00 0.000000000000000D+00 0.000000000000000D+00
 0.182296400168950D+03 0.000000000000000D+00 0.000000000000000D+00 0.182296400168950D+03
 0.127006676786011D+03 0.000000000000000D+00 0.000000000000000D+00 -.127006676786011D+03
 0.126141029949893D+03 -.674073342023473D+01 -.662686600583803D+01 0.140430266224169D+02
 0.952037937495553D+02 0.225296100382041D+02 -.311925769033733D+02 -.334063797438592D+02
 0.288258413323434D+02 -.128453706918398D+02 0.170583157492465D+02 0.193633531214423D+02
 0.591324119231691D+02 -.294350592612953D+01 0.207611271599648D+02 0.552897233829395D+02
0.170936774255D-02 0.000000000000D+00 0.000000000000D+00 0.451005816422D-04 0.000000000000D+00  6 -1 2 25 24 21 21 2 0.10717584D+00 0.34310518D-02 0.13846316D+05 0.13846316D+05 0.13846316D+05 0.12518044D+01  1  2  2  2  6  2        2 0.659097535636D+00 0.100000000000D+01
0.211144363140D-03 0.902058140390D-04 -.656442221825D-05 0.451005816422D-04 0.000000000000D+00  6 -1 2 25 24 21 21 4 0.10717584D+00 0.34310518D-02 0.13846316D+05 0.13846316D+05 0.13846316D+05 0.12518044D+01  1  2  3  2  6  2        2 0.127575316016D+00 0.100000000000D+01
0.768271488098D-04 0.000000000000D+00 0.000000000000D+00 0.451005816422D-04 0.000000000000D+00  6 -1 2 25 24 21 21 4 0.10717584D+00 0.34310518D-02 0.13846316D+05 0.13846316D+05 0.13846316D+05 0.12518044D+01  1  2 15  2  6  2        2 0.464196516649D-01 0.100000000000D+01
-.113682888783D-03 0.000000000000D+00 0.000000000000D+00 0.451005816422D-04 0.000000000000D+00  6 -1 2 25 24 21 21 4 0.10717584D+00 0.34310518D-02 0.13846316D+05 0.13846316D+05 0.13846316D+05 0.12518044D+01  1  2  4  2  6  2        2 -.686882199760D-01 0.100000000000D+01
  </mgrwgt>
  </event>
  <event>
  5     66 -.43535451E-03 0.37059485E+02 0.75467711E-02 0.12142591E+00
       -1 -1    0    0    0  501 0.00000000E+00 0.00000000E+00 0.20507928E+02 0.20510424E+02 0.32000000E+00 0.0000E+00 0.9000E+01
        2 -1    0    0  502    0 -.00000000E+00 -.00000000E+00 -.13680052E+04 0.13680052E+04 0.32000000E+00 0.0000E+00 0.9000E+01
       25  1    1    2    0    0 0.57416991E+02 0.42425415E+02 -.45402605E+03 0.47629957E+03 0.12500000E+03 0.0000E+00 0.9000E+01
       24  1    1    2    0    0 -.21344297E+02 -.50910149E+02 -.84782006E+03 0.85341285E+03 0.80419002E+02 0.0000E+00 0.9000E+01
       21  1    1    2  502  501 -.36072694E+02 0.84847333E+01 -.45651154E+02 0.58803234E+02 0.75000000E+00 0.0000E+00 0.9000E+01
#aMCatNLO 1  0  0  5  2 0.23783201D+01 0.00000000D+00  -5  6  0 0.00000000D+00 0.00000000D+00 0.00000000D+00 0.00000000D+00 0.00000000D+00
  <mgrwgt>
 -.1322994838D+00   25    2    0
 0.167501376452696D+03 0.000000000000000D+00 0.000000000000000D+00 0.167501376452696D+03
 0.167501376452696D+03 -.000000000000000D+00 -.000000000000000D+00 -.167501376452696D+03
 0.147910895452880D+03 0.574182307826892D+02 0.424251235052989D+02 0.339983626520264D+02
 0.126990488375906D+03 -.213432321015191D+02 -.509103989584740D+02 -.813139957506099D+02
 0.601013690766063D+02 -.360749986811701D+02 0.848527545317510D+01 0.473156330985834D+02
 0.000000000000000D+00 0.000000000000000D+00 0.000000000000000D+00 0.000000000000000D+00
 0.167501376452696D+03 0.000000000000000D+00 0.000000000000000D+00 0.167501376452696D+03
 0.167501376452696D+03 -.000000000000000D+00 -.000000000000000D+00 -.167501376452696D+03
 0.147909954501688D+03 0.573681287510362D+02 0.424369081083448D+02 0.340640760112462D+02
 0.126957555979132D+03 -.213862422982596D+02 -.509002824406644D+02 -.812575839761714D+02
 0.317286997150561D+02 -.197727386911626D+02 0.649763151916892D+01 0.239484858581978D+02
 0.284065427095156D+02 -.162091477616140D+02 0.196574281315069D+01 0.232450221067274D+02
0.118580341658D-04 0.000000000000D+00 0.000000000000D+00 0.136362149705D-04 0.000000000000D+00  6 -1 2 25 24 21 21 2 0.31552607D-02 0.21046253D+00 0.19397927D+05 0.19397927D+05 0.19397927D+05 0.12352902D+01  1  2  2  3  6  5       21 0.113818740111D-01 0.100000000000D+01
0.464549411281D-06 0.625765654869D-06 -.455379734887D-07 0.136362149705D-04 0.000000000000D+00  6 -1 2 25 24 21 21 4 0.31552607D-02 0.21046253D+00 0.19397927D+05 0.19397927D+05 0.19397927D+05 0.12352902D+01  1  2  3  3  6  5       21 0.680410409988D-03 0.100000000000D+01
0.512411625116D-06 0.000000000000D+00 0.000000000000D+00 0.136362149705D-04 0.000000000000D+00  6 -1 2 25 24 21 21 4 0.31552607D-02 0.21046253D+00 0.19397927D+05 0.19397927D+05 0.19397927D+05 0.12352902D+01  1  2 15  3  6  5       21 0.750512637539D-03 0.100000000000D+01
0.725544070157D-06 0.000000000000D+00 0.000000000000D+00 0.136356898121D-04 0.000000000000D+00  6 -1 2 25 24 21 21 4 0.31552607D-02 0.21046253D+00 0.19407545D+05 0.19407545D+05 0.19407545D+05 0.12352664D+01  1  2 12  3  6  5       21 0.106260744214D-02 0.100000000000D+01
0.728995080630D-06 0.000000000000D+00 0.000000000000D+00 0.136356898121D-04 0.000000000000D+00  6 -1 2 25 24 21 21 4 0.31552607D-02 0.21046253D+00 0.19407545D+05 0.19407545D+05 0.19407545D+05 0.12352664D+01  1  2 12  3  6  5       21 0.106766167601D-02 0.100000000000D+01
-.898394194607D-03 0.000000000000D+00 0.000000000000D+00 0.136362149705D-04 0.000000000000D+00  6 -1 2 25 24 21 21 4 0.31552607D-02 0.21046253D+00 0.19397927D+05 0.19397927D+05 0.19397927D+05 0.12352902D+01  1  2  4  3  6  5       21 -.131584875029D+01 0.100000000000D+01
-.394846445882D-03 0.000000000000D+00 0.000000000000D+00 0.136362149705D-04 0.000000000000D+00  6 -1 2 25 24 21 21 4 0.31552607D-02 0.21046253D+00 0.19397927D+05 0.19397927D+05 0.19397927D+05 0.12352902D+01  1  2  5  3  6  5       21 -.578318744143D+00 0.100000000000D+01
0.784764718341D-03 0.000000000000D+00 -.000000000000D+00 0.136362149705D-04 0.000000000000D+00  6 -1 2 25 24 21 21 4 0.31552607D-02 0.21046253D+00 0.19397927D+05 0.19397927D+05 0.19397927D+05 0.12352902D+01  1  2  6  3  6  5       21 0.114941935300D+01 0.100000000000D+01
0.407429644096D-03 0.000000000000D+00 0.000000000000D+00 0.136362149705D-04 0.126303158236D-04  6 -1 2 25 24 21 21 4 0.31552607D-02 0.21046253D+00 0.19407545D+05 0.19407545D+05 0.19407545D+05 0.12352664D+01  1  2 11  3  6  5       21 0.596707753219D+00 0.100000000000D+01
0.288643614348D-07 0.000000000000D+00 0.000000000000D+00 0.136356898121D-04 0.000000000000D+00  6 -1 2 25 24 1 -1 4 0.31552607D-02 0.21046253D+00 0.19407545D+05 0.19407545D+05 0.19407545D+05 0.12352664D+01  1  2 12  6  6  5       21 0.422737729309D-04 0.100000000000D+01
0.290008038545D-07 0.000000000000D+00 0.000000000000D+00 0.136356898121D-04 0.000000000000D+00  6 -1 2 25 24 1 -1 4 0.31552607D-02 0.21046253D+00 0.19407545D+05 0.19407545D+05 0.19407545D+05 0.12352664D+01  1  2 12  6  6  5       21 0.424736019097D-04 0.100000000000D+01
-.158050362028D-04 0.000000000000D+00 0.000000000000D+00 0.136362149705D-04 0.000000000000D+00  6 -1 2 25 24 1 -1 4 0.31552607D-02 0.21046253D+00 0.19397927D+05 0.19397927D+05 0.19397927D+05 0.12352902D+01  1  2  5  6  6  5       21 -.231491223570D-01 0.100000000000D+01
0.159223215921D-04 0.000000000000D+00 0.000000000000D+00 0.136362149705D-04 0.548570947638D-06  6 -1 2 25 24 1 -1 4 0.31552607D-02 0.21046253D+00 0.19407545D+05 0.19407545D+05 0.19407545D+05 0.12352664D+01  1  2 11  6  6  5       21 0.233192966710D-01 0.100000000000D+01
0.288643614348D-07 0.000000000000D+00 0.000000000000D+00 0.136356898121D-04 0.000000000000D+00  6 -1 2 25 24 2 -2 4 0.31552607D-02 0.21046253D+00 0.19407545D+05 0.19407545D+05 0.19407545D+05 0.12352664D+01  1  2 12  7  6  5       21 0.422737729309D-04 0.100000000000D+01
0.290008038545D-07 0.000000000000D+00 0.000000000000D+00 0.136356898121D-04 0.000000000000D+00  6 -1 2 25 24 2 -2 4 0.31552607D-02 0.21046253D+00 0.19407545D+05 0.19407545D+05 0.19407545D+05 0.12352664D+01  1  2 12  7  6  5       21 0.424736019097D-04 0.100000000000D+01
-.158050362028D-04 0.000000000000D+00 0.000000000000D+00 0.136362149705D-04 0.000000000000D+00  6 -1 2 25 24 2 -2 4 0.31552607D-02 0.21046253D+00 0.19397927D+05 0.19397927D+05 0.19397927D+05 0.12352902D+01  1  2  5  7  6  5       21 -.231491223570D-01 0.100000000000D+01
0.158712094370D-04 0.000000000000D+00 0.000000000000D+00 0.136362149705D-04 0.546012144989D-06  6 -1 2 25 24 2 -2 4 0.31552607D-02 0.21046253D+00 0.19407545D+05 0.19407545D+05 0.19407545D+05 0.12352664D+01  1  2 11  7  6  5       21 0.232444395278D-01 0.100000000000D+01
0.288643614348D-07 0.000000000000D+00 0.000000000000D+00 0.136356898121D-04 0.000000000000D+00  6 -1 2 25 24 3 -3 4 0.31552607D-02 0.21046253D+00 0.19407545D+05 0.19407545D+05 0.19407545D+05 0.12352664D+01  1  2 12  8  6  5       21 0.422737729309D-04 0.100000000000D+01
0.288643614348D-07 0.000000000000D+00 0.000000000000D+00 0.136356898121D-04 0.000000000000D+00  6 -1 2 25 24 4 -4 4 0.31552607D-02 0.21046253D+00 0.19407545D+05 0.19407545D+05 0.19407545D+05 0.12352664D+01  1  2 12  8  6  5       21 0.422737729309D-04 0.100000000000D+01
0.290008038545D-07 0.000000000000D+00 0.000000000000D+00 0.136356898121D-04 0.000000000000D+00  6 -1 2 25 24 3 -3 4 0.31552607D-02 0.21046253D+00 0.19407545D+05 0.19407545D+05 0.19407545D+05 0.12352664D+01  1  2 12  8  6  5       21 0.424736019097D-04 0.100000000000D+01
0.290008038545D-07 0.000000000000D+00 0.000000000000D+00 0.136356898121D-04 0.000000000000D+00  6 -1 2 25 24 4 -4 4 0.31552607D-02 0.21046253D+00 0.19407545D+05 0.19407545D+05 0.19407545D+05 0.12352664D+01  1  2 12  8  6  5       21 0.424736019097D-04 0.100000000000D+01
-.158050362028D-04 0.000000000000D+00 0.000000000000D+00 0.136362149705D-04 0.000000000000D+00  6 -1 2 25 24 3 -3 4 0.31552607D-02 0.21046253D+00 0.19397927D+05 0.19397927D+05 0.19397927D+05 0.12352902D+01  1  2  5  8  6  5       21 -.231491223570D-01 0.100000000000D+01
-.158050362028D-04 0.000000000000D+00 0.000000000000D+00 0.136362149705D-04 0.000000000000D+00  6 -1 2 25 24 4 -4 4 0.31552607D-02 0.21046253D+00 0.19397927D+05 0.19397927D+05 0.19397927D+05 0.12352902D+01  1  2  5  8  6  5       21 -.231491223570D-01 0.100000000000D+01
0.158721390196D-04 0.000000000000D+00 0.000000000000D+00 0.136362149705D-04 0.546020949811D-06  6 -1 2 25 24 3 -3 4 0.31552607D-02 0.21046253D+00 0.19407545D+05 0.19407545D+05 0.19407545D+05 0.12352664D+01  1  2 11  8  6  5       21 0.232458009632D-01 0.100000000000D+01
0.158721390196D-04 0.000000000000D+00 0.000000000000D+00 0.136362149705D-04 0.546020949811D-06  6 -1 2 25 24 4 -4 4 0.31552607D-02 0.21046253D+00 0.19407545D+05 0.19407545D+05 0.19407545D+05 0.12352664D+01  1  2 11  8  6  5       21 0.232458009632D-01 0.100000000000D+01
  </mgrwgt>
  </event>
  <event>
  6     66 0.43535451E-03 0.22650742E+02 0.75467711E-02 0.11826492E+00
       -1 -1    0    0    0  503 0.00000000E+00 0.00000000E+00 0.37507428E+03 0.37507442E+03 0.32000000E+00 0.0000E+00 0.9000E+01
        2 -1    0    0  502    0 0.00000000E+00 0.00000000E+00 -.65318800E+03 0.65318808E+03 0.32000000E+00 0.0000E+00 0.9000E+01
       25  1    1    2    0    0 -.99469728E+02 -.13309542E+02 -.81841673E+02 0.17998453E+03 0.12500000E+03 0.0000E+00 0.9000E+01
       24  1    1    2    0    0 0.11039497E+03 -.13723171E+02 -.51215372E+03 0.53023017E+03 0.80419002E+02 0.0000E+00 0.9000E+01
       21  1    1    2  502  501 -.38535779E+01 0.25943571E+02 0.17234514E+03 0.17433109E+03 0.75000000E+00 0.0000E+00 0.9000E+01
       21  1    1    2  501  503 -.70716663E+01 0.10891430E+01 0.14353654E+03 0.14371672E+03 0.75000000E+00 0.0000E+00 0.9000E+01
#aMCatNLO 2  0  0  1  5 0.71550469D+01 0.00000000D+00  -5  6  0 0.00000000D+00 0.00000000D+00 0.00000000D+00 0.00000000D+00 0.00000000D+00
  <mgrwgt>
 0.2395877233D+01    2    2    0
 0.388774066364498D+03 0.000000000000000D+00 0.000000000000000D+00 0.388774066364498D+03
 0.388774066364498D+03 0.000000000000000D+00 0.000000000000000D+00 -.388774066364498D+03
 0.161256778436872D+03 -.100932235647402D+03 -.130843116907321D+02 0.449813146046721D+01
 0.324440065947003D+03 0.107439730452803D+03 -.132680542762113D+02 -.295084400626800D+03
 0.291851288345120D+03 -.650749480540065D+01 0.263523659669434D+02 0.290586269166333D+03
 0.000000000000000D+00 -.000000000000000D+00 0.000000000000000D+00 0.000000000000000D+00
 0.630056435772793D+03 0.000000000000000D+00 0.000000000000000D+00 0.630056435772793D+03
 0.388843574314425D+03 0.000000000000000D+00 0.000000000000000D+00 -.388843574314425D+03
 0.160363972175769D+03 -.994697239600049D+02 -.133095604989657D+02 0.449813146046721D+01
 0.325449533047805D+03 0.110394984839335D+03 -.137232079234125D+02 -.295084400626800D+03
 0.291767547404695D+03 -.385359462438511D+01 0.259436254022725D+02 0.290586269166333D+03
 0.241318957458948D+03 -.707166625494489D+01 0.108914302010571D+01 0.241212861458369D+03
-.215558459013D+00 0.000000000000D+00 0.000000000000D+00 0.295282878713D-04 0.000000000000D+00  6 -1 2 25 24 21 21 4 0.60027235D-01 0.10047236D+00 0.27382392D+05 0.27382392D+05 0.27382392D+05 0.12190819D+01  1  2 13  1  6  1       -1 -.742425003764D+01 0.100000000000D+01
0.264566789807D+00 0.000000000000D+00 0.000000000000D+00 0.296345366154D-04 0.322177319417D-05  6 -1 2 25 24 21 21 4 0.57703666D-01 0.10049033D+00 0.27382392D+05 0.27382392D+05 0.27382392D+05 0.12190819D+01  1  2  1  1  6  1       -1 0.982012727072D+01 0.100000000000D+01
  </mgrwgt>
  </event>
  <event>
  5     66 -.43535451E-03 0.20161644E+02 0.75467711E-02 0.10312166E+00
       -1 -1    0    0    0  501 0.00000000E+00 0.00000000E+00 0.16617985E+03 0.16618015E+03 0.32000000E+00 0.0000E+00 0.9000E+01
        2 -1    0    0  502    0 0.00000000E+00 0.00000000E+00 -.11789906E+04 0.11789906E+04 0.32000000E+00 0.0000E+00 0.9000E+01
       25  1    1    2    0    0 -.15495380E+03 0.39475734E+03 -.49658191E+03 0.66487790E+03 0.12500000E+03 0.0000E+00 0.9000E+01
       24  1    1    2    0    0 0.15803204E+03 -.37483932E+03 -.51337422E+03 0.65992344E+03 0.80419002E+02 0.0000E+00 0.9000E+01
       21  1    1    2  502  501 -.30782430E+01 -.19918015E+02 -.28546175E+01 0.20369444E+02 0.75000000E+00 0.0000E+00 0.9000E+01
#aMCatNLO 1  0  0  1  5 0.71550469D+01 0.00000000D+00  -5  6  0 0.00000000D+00 0.00000000D+00 0.00000000D+00 0.00000000D+00 0.00000000D+00
  <mgrwgt>
 -.1163550862D+01    1    2    0
 0.442633832199911D+03 0.000000000000000D+00 0.000000000000000D+00 0.442633832199911D+03
 0.442633832199911D+03 0.000000000000000D+00 0.000000000000000D+00 -.442633832199911D+03
 0.442164016775019D+03 -.154953230724629D+03 0.394760988324184D+03 0.610541693354145D+01
 0.415418334388738D+03 0.158032568465321D+03 -.374835889105414D+03 -.250786788876684D+02
 0.276853132360645D+02 -.307933774069170D+01 -.199250992187703D+02 0.189732619541270D+02
 0.000000000000000D+00 -.000000000000000D+00 0.000000000000000D+00 0.000000000000000D+00
 0.666523188356587D+03 0.000000000000000D+00 0.000000000000000D+00 0.666523188356587D+03
 0.515015625400518D+03 0.000000000000000D+00 0.000000000000000D+00 -.515015625400518D+03
 0.349835391232480D+03 -.126789831526373D+03 0.301076175517698D+03 0.610541693354145D+01
 0.529755815029139D+03 0.191642842176127D+03 -.486639587899219D+03 -.250786788876684D+02
 0.331076569925487D+02 -.917547376095934D+00 -.271162384775056D+02 0.189732619541270D+02
 0.268839950502938D+03 -.639354632736584D+02 0.212679650859027D+03 0.151507562956069D+03
-.223783553403D-01 0.000000000000D+00 0.000000000000D+00 0.331614830453D-04 0.000000000000D+00  6 -1 2 25 24 21 21 4 0.25566157D-01 0.18138319D+00 0.19225776D+06 0.19225776D+06 0.19225776D+06 0.11383607D+01  1  2 14  1  6  1       -1 -.116355086156D+01 0.100000000000D+01
  </mgrwgt>
  </event>
  <event>
  5     66 -.43535451E-03 0.39612391E+02 0.75467711E-02 0.10226052E+00
       -1 -1    0    0    0  501 0.00000000E+00 0.00000000E+00 0.20591936E+03 0.20591961E+03 0.32000000E+00 0.0000E+00 0.9000E+01
        2 -1    0    0  502    0 0.00000000E+00 0.00000000E+00 -.11026468E+04 0.11026469E+04 0.32000000E+00 0.0000E+00 0.9000E+01
       25  1    1    2    0    0 -.29063684E+03 0.15978382E+02 -.48708165E+03 0.58103237E+03 0.12500000E+03 0.0000E+00 0.9000E+01
       24  1    1    2    0    0 0.26864021E+03 0.16965075E+02 0.33229594E+02 0.28289008E+03 0.80419002E+02 0.0000E+00 0.9000E+01
       21  1    1    2  502  501 0.21996625E+02 -.32943456E+02 -.44287542E+03 0.44464404E+03 0.75000000E+00 0.0000E+00 0.9000E+01
#aMCatNLO 1  0  0  1  5 0.20686953D+03 0.00000000D+00  -5  6  0 0.00000000D+00 0.00000000D+00 0.00000000D+00 0.00000000D+00 0.00000000D+00
  <mgrwgt>
 -.3038701847D+00    5    4    0
 0.476504484393266D+03 0.000000000000000D+00 0.000000000000000D+00 0.476504484393266D+03
 0.476504484393266D+03 0.000000000000000D+00 0.000000000000000D+00 -.476504484393266D+03
 0.339492993338155D+03 -.290636895338398D+03 0.159784696073050D+02 -.122087575546270D+03
 0.419700955446336D+03 0.268640139296710D+03 0.169651833273751D+02 0.311811375933447D+03
 0.193815020002041D+03 0.219967560416884D+02 -.329436529346800D+02 -.189723800387177D+03
 0.000000000000000D+00 -.000000000000000D+00 0.000000000000000D+00 0.000000000000000D+00
 0.221860175044251D+04 0.000000000000000D+00 0.000000000000000D+00 0.221860175044251D+04
 0.496439001846584D+03 0.000000000000000D+00 0.000000000000000D+00 -.496439001846584D+03
 0.281591543904971D+03 -.220823445725819D+03 0.653692431847587D+00 -.122087575546270D+03
 0.491322591805951D+03 0.371044389762011D+03 -.551361307803417D+01 0.311811375933447D+03
 0.205676672557140D+03 0.669019041764691D+02 -.428007992727465D+02 -.189723800387177D+03
 0.173644994402103D+04 -.217122848212661D+03 0.476607199189331D+02 0.172216274859593D+04
 0.476504484393266D+03 0.000000000000000D+00 0.000000000000000D+00 0.476504484393266D+03
 0.476504484393266D+03 0.000000000000000D+00 0.000000000000000D+00 -.476504484393266D+03
 0.339492993338155D+03 -.290636895338398D+03 0.159784696073050D+02 -.122087575546270D+03
 0.419700955446336D+03 0.268640139296710D+03 0.169651833273751D+02 0.311811375933447D+03
 0.000000000000000D+00 -.000000000000000D+00 0.000000000000000D+00 0.000000000000000D+00
 0.193815020002041D+03 0.219967560416884D+02 -.329436529346800D+02 -.189723800387177D+03
 0.221860175044251D+04 0.000000000000000D+00 0.000000000000000D+00 0.221860175044251D+04
 0.496439001846584D+03 0.000000000000000D+00 0.000000000000000D+00 -.496439001846584D+03
 0.281591543904971D+03 -.220823445725819D+03 0.653692431847587D+00 -.122087575546270D+03
 0.491322591805951D+03 0.371044389762011D+03 -.551361307803417D+01 0.311811375933447D+03
 0.173644994402103D+04 -.217122848212661D+03 0.476607199189331D+02 0.172216274859593D+04
 0.205676672557140D+03 0.669019041764691D+02 -.428007992727465D+02 -.189723800387177D+03
0.131260724949D-01 0.000000000000D+00 0.000000000000D+00 0.698551658387D-05 0.000000000000D+00  6 -1 2 25 24 21 21 2 0.31679924D-01 0.16963800D+00 0.10154574D+06 0.10154574D+06 0.10154574D+06 0.11629602D+01  1  2  2  1  6  1       -1 0.428776028191D+00 0.100000000000D+01
0.269599767181D-02 0.692681875918D-03 -.504075745548D-04 0.698551658387D-05 0.000000000000D+00  6 -1 2 25 24 21 21 4 0.31679924D-01 0.16963800D+00 0.10154574D+06 0.10154574D+06 0.10154574D+06 0.11629602D+01  1  2  3  1  6  1       -1 0.119109090717D+00 0.100000000000D+01
0.179287914142D-03 0.000000000000D+00 0.000000000000D+00 0.698551658387D-05 0.000000000000D+00  6 -1 2 25 24 21 21 4 0.31679924D-01 0.16963800D+00 0.10154574D+06 0.10154574D+06 0.10154574D+06 0.11629602D+01  1  2 15  1  6  1       -1 0.792093429944D-02 0.100000000000D+01
-.187337349212D+00 0.000000000000D+00 -.767070977674D-02 0.698551658387D-05 0.000000000000D+00  6 -1 2 25 24 21 21 4 0.14902450D+00 0.16963800D+00 0.10154574D+06 0.10154574D+06 0.10154574D+06 0.11629602D+01  1  2  5  1  6  1       -1 -.341504752379D+00 0.100000000000D+01
-.353367065254D-01 0.000000000000D+00 -.144158612407D-02 0.698551658387D-05 0.000000000000D+00  6 21 2 25 24 1 21 4 0.14902450D+00 0.16963800D+00 0.10154574D+06 0.10154574D+06 0.10154574D+06 0.11629602D+01  3  4  5  4  5  1       -1 -.518171485527D+00 0.100000000000D+01
  </mgrwgt>
  </event>
  <event>
  6     66 -.43535451E-03 0.80796346E+01 0.75467711E-02 0.12254072E+00
       -1 -1    0    0    0  501 0.00000000E+00 0.00000000E+00 0.22064996E+02 0.22067317E+02 0.32000000E+00 0.0000E+00 0.9000E+01
        2 -1    0    0  502    0 -.00000000E+00 -.00000000E+00 -.89449870E+03 0.89449876E+03 0.32000000E+00 0.0000E+00 0.9000E+01
       25  1    1    2    0    0 0.25705437E+02 -.45197970E+02 -.59163246E+03 0.60692470E+03 0.12500000E+03 0.0000E+00 0.9000E+01
       24  1    1    2    0    0 -.26241622E+02 0.61623826E+02 -.23218465E+03 0.25468224E+03 0.80419002E+02 0.0000E+00 0.9000E+01
        1  1    1    2  502    0 0.46689964E+01 -.58023508E+01 -.31645332E+01 0.80983623E+01 0.32000000E+00 0.0000E+00 0.9000E+01
       -1  1    1    2    0  501 -.41328107E+01 -.10623505E+02 -.45452063E+02 0.46860766E+02 0.32000000E+00 0.0000E+00 0.9000E+01
#aMCatNLO 2  0  0  5  1 0.96289577D+01 0.00000000D+00  -5  6  0 0.00000000D+00 0.00000000D+00 0.00000000D+00 0.00000000D+00 0.00000000D+00
  <mgrwgt>
 -.1182659745D-01    2    2    0
 0.140492704837457D+03 0.000000000000000D+00 0.000000000000000D+00 0.140492704837457D+03
 0.140492704837457D+03 -.000000000000000D+00 -.000000000000000D+00 -.140492704837457D+03
 0.142571990241912D+03 0.255978247647535D+02 -.419013227317638D+02 -.478623330206691D+02
 0.110776761818423D+03 -.263248186899724D+02 0.641725195677985D+02 0.315145467659885D+02
 0.276366576145783D+02 0.726993925218837D+00 -.222711968360347D+02 0.163477862546806D+02
 0.000000000000000D+00 0.000000000000000D+00 -.000000000000000D+00 0.000000000000000D+00
 0.140492704837457D+03 0.000000000000000D+00 0.000000000000000D+00 0.140492704837457D+03
 0.140492704837457D+03 -.000000000000000D+00 -.000000000000000D+00 -.140492704837457D+03
 0.142808079157136D+03 0.257060818162904D+02 -.452177384816487D+02 -.454279754865893D+02
 0.109848818932502D+03 -.262411258276222D+02 0.616086188988742D+02 0.333965336399939D+02
 0.163484639757864D+02 0.469740514826306D+01 -.547189662767956D+01 0.146719121636087D+02
 0.119800476094893D+02 -.416236113693130D+01 -.109189837895459D+02 -.264047031701320D+01
-.222696203765D-05 0.000000000000D+00 0.000000000000D+00 0.415092593280D-04 0.000000000000D+00  6 -1 2 25 24 1 -1 4 0.33947977D-02 0.13761537D+00 0.16761979D+05 0.16761979D+05 0.16761979D+05 0.12423610D+01  1  2 13  6  6  5       21 -.557008413991D-02 0.100000000000D+01
-.250140164361D-05 0.000000000000D+00 0.000000000000D+00 0.415092593280D-04 0.000000000000D+00  6 -1 2 25 24 1 -1 4 0.33947977D-02 0.13761537D+00 0.16761979D+05 0.16761979D+05 0.16761979D+05 0.12423610D+01  1  2 13  6  6  5       21 -.625651330695D-02 0.100000000000D+01
  </mgrwgt>
  </event>
  <event>
  5     66 -.43535451E-03 0.20351909E+02 0.75467711E-02 0.12444723E+00
       -1 -1    0    0    0  501 0.00000000E+00 0.00000000E+00 0.40895134E+02 0.40896386E+02 0.32000000E+00 0.0000E+00 0.9000E+01
        2 -1    0    0  502    0 -.00000000E+00 -.00000000E+00 -.49062789E+03 0.49062800E+03 0.32000000E+00 0.0000E+00 0.9000E+01
       25  1    1    2    0    0 0.39935748E+02 -.10370485E+02 -.10327172E+03 0.16730947E+03 0.12500000E+03 0.0000E+00 0.9000E+01
       24  1    1    2    0    0 -.30539873E+02 -.76789462E+01 -.22400197E+03 0.24007446E+03 0.80419002E+02 0.0000E+00 0.9000E+01
       21  1    1    2  502  501 -.93958756E+01 0.18049431E+02 -.12245907E+03 0.12414045E+03 0.75000000E+00 0.0000E+00 0.9000E+01
#aMCatNLO 1  0  0  5  1 0.64483537D+00 0.00000000D+00  -5  6  0 0.00000000D+00 0.00000000D+00 0.00000000D+00 0.00000000D+00 0.00000000D+00
  <mgrwgt>
 -.5839113117D+00   25    2    0
 0.141649757618340D+03 0.000000000000000D+00 0.000000000000000D+00 0.141649757618340D+03
 0.141649757618340D+03 -.000000000000000D+00 -.000000000000000D+00 -.141649757618340D+03
 0.149964747305584D+03 0.399366918098260D+02 -.103722973772009D+02 0.718463745002724D+02
 0.948259183740324D+02 -.305392760362392D+02 -.768009234813076D+01 -.391549184881629D+02
 0.385088495570643D+02 -.939741577358685D+01 0.180523897253316D+02 -.326914560121095D+02
 0.000000000000000D+00 0.000000000000000D+00 0.000000000000000D+00 -.000000000000000D+00
 0.141649757618340D+03 0.000000000000000D+00 0.000000000000000D+00 0.141649757618340D+03
 0.141649757618340D+03 -.000000000000000D+00 -.000000000000000D+00 -.141649757618340D+03
 0.149956689280860D+03 0.399327908438988D+02 -.103648036407397D+02 0.718328039337372D+02
 0.948298728450039D+02 -.305417428181667D+02 -.767535367211643D+01 -.391634998572135D+02
 0.899079486322374D+01 -.225610888733979D+01 0.475683272480719D+01 -.728813469889520D+01
 0.295221582475925D+02 -.713493913839231D+01 0.132833245880489D+02 -.253811693776285D+02
0.940873658597D-05 0.000000000000D+00 0.000000000000D+00 0.486529949810D-04 0.000000000000D+00  6 -1 2 25 24 21 21 2 0.62916634D-02 0.75481319D-01 0.14202750D+05 0.14202750D+05 0.14202750D+05 0.12505356D+01  1  2  2  3  6  5       21 0.125380556172D-01 0.100000000000D+01
0.120476576648D-05 0.496512670557D-06 -.361320258674D-07 0.486529949810D-04 0.000000000000D+00  6 -1 2 25 24 21 21 4 0.62916634D-02 0.75481319D-01 0.14202750D+05 0.14202750D+05 0.14202750D+05 0.12505356D+01  1  2  3  3  6  5       21 0.251069306173D-02 0.100000000000D+01
0.357567839539D-06 0.000000000000D+00 0.000000000000D+00 0.486529949810D-04 0.000000000000D+00  6 -1 2 25 24 21 21 4 0.62916634D-02 0.75481319D-01 0.14202750D+05 0.14202750D+05 0.14202750D+05 0.12505356D+01  1  2 15  3  6  5       21 0.745159863275D-03 0.100000000000D+01
0.660692099400D-11 0.000000000000D+00 0.000000000000D+00 0.486533278201D-04 0.000000000000D+00  6 -1 2 25 24 21 21 4 0.62916634D-02 0.75481319D-01 0.14201531D+05 0.14201531D+05 0.14201531D+05 0.12505399D+01  1  2 12  3  6  5       21 0.137687596959D-07 0.100000000000D+01
0.658921629732D-11 0.000000000000D+00 0.000000000000D+00 0.486533278201D-04 0.000000000000D+00  6 -1 2 25 24 21 21 4 0.62916634D-02 0.75481319D-01 0.14201531D+05 0.14201531D+05 0.14201531D+05 0.12505399D+01  1  2 12  3  6  5       21 0.137318632786D-07 0.100000000000D+01
-.166000013673D-02 0.000000000000D+00 0.000000000000D+00 0.486529949810D-04 0.000000000000D+00  6 -1 2 25 24 21 21 4 0.62916634D-02 0.75481319D-01 0.14202750D+05 0.14202750D+05 0.14202750D+05 0.12505356D+01  1  2  4  3  6  5       21 -.345938682996D+01 0.100000000000D+01
-.229241385868D-03 0.000000000000D+00 0.000000000000D+00 0.486529949810D-04 0.000000000000D+00  6 -1 2 25 24 21 21 4 0.62916634D-02 0.75481319D-01 0.14202750D+05 0.14202750D+05 0.14202750D+05 0.12505356D+01  1  2  5  3  6  5       21 -.477731666167D+00 0.100000000000D+01
0.139952003833D-02 0.000000000000D+00 -.000000000000D+00 0.486529949810D-04 0.000000000000D+00  6 -1 2 25 24 21 21 4 0.62916634D-02 0.75481319D-01 0.14202750D+05 0.14202750D+05 0.14202750D+05 0.12505356D+01  1  2  6  3  6  5       21 0.291655469283D+01 0.100000000000D+01
0.212724328608D-03 0.000000000000D+00 0.000000000000D+00 0.486529949810D-04 0.711829773986D-03  6 -1 2 25 24 21 21 4 0.62916634D-02 0.75481319D-01 0.14201531D+05 0.14201531D+05 0.14201531D+05 0.12505399D+01  1  2 11  3  6  5       21 0.443315451288D+00 0.100000000000D+01
0.613853499063D-12 0.000000000000D+00 0.000000000000D+00 0.486533278201D-04 0.000000000000D+00  6 -1 2 25 24 1 -1 4 0.62916634D-02 0.75481319D-01 0.14201531D+05 0.14201531D+05 0.14201531D+05 0.12505399D+01  1  2 12  6  6  5       21 0.127926477776D-08 0.100000000000D+01
0.611885378460D-12 0.000000000000D+00 0.000000000000D+00 0.486533278201D-04 0.000000000000D+00  6 -1 2 25 24 1 -1 4 0.62916634D-02 0.75481319D-01 0.14201531D+05 0.14201531D+05 0.14201531D+05 0.12505399D+01  1  2 12  6  6  5       21 0.127516323339D-08 0.100000000000D+01
-.218350943921D-04 0.000000000000D+00 0.000000000000D+00 0.486529949810D-04 0.000000000000D+00  6 -1 2 25 24 1 -1 4 0.62916634D-02 0.75481319D-01 0.14202750D+05 0.14202750D+05 0.14202750D+05 0.12505356D+01  1  2  5  6  6  5       21 -.455036335839D-01 0.100000000000D+01
0.190886231362D-04 0.000000000000D+00 0.000000000000D+00 0.486529949810D-04 0.102454492488D-04  6 -1 2 25 24 1 -1 4 0.62916634D-02 0.75481319D-01 0.14201531D+05 0.14201531D+05 0.14201531D+05 0.12505399D+01  1  2 11  6  6  5       21 0.397805067030D-01 0.100000000000D+01
0.613853499063D-12 0.000000000000D+00 0.000000000000D+00 0.486533278201D-04 0.000000000000D+00  6 -1 2 25 24 2 -2 4 0.62916634D-02 0.75481319D-01 0.14201531D+05 0.14201531D+05 0.14201531D+05 0.12505399D+01  1  2 12  7  6  5       21 0.127926477776D-08 0.100000000000D+01
0.611885378460D-12 0.000000000000D+00 0.000000000000D+00 0.486533278201D-04 0.000000000000D+00  6 -1 2 25 24 2 -2 4 0.62916634D-02 0.75481319D-01 0.14201531D+05 0.14201531D+05 0.14201531D+05 0.12505399D+01  1  2 12  7  6  5       21 0.127516323339D-08 0.100000000000D+01
-.218350943921D-04 0.000000000000D+00 0.000000000000D+00 0.486529949810D-04 0.000000000000D+00  6 -1 2 25 24 2 -2 4 0.62916634D-02 0.75481319D-01 0.14202750D+05 0.14202750D+05 0.14202750D+05 0.12505356D+01  1  2  5  7  6  5       21 -.455036335839D-01 0.100000000000D+01
0.192849597915D-04 0.000000000000D+00 0.000000000000D+00 0.486529949810D-04 0.103542741512D-04  6 -1 2 25 24 2 -2 4 0.62916634D-02 0.75481319D-01 0.14201531D+05 0.14201531D+05 0.14201531D+05 0.12505399D+01  1  2 11  7  6  5       21 0.401896704010D-01 0.100000000000D+01
0.613853499063D-12 0.000000000000D+00 0.000000000000D+00 0.486533278201D-04 0.000000000000D+00  6 -1 2 25 24 3 -3 4 0.62916634D-02 0.75481319D-01 0.14201531D+05 0.14201531D+05 0.14201531D+05 0.12505399D+01  1  2 12  8  6  5       21 0.127926477776D-08 0.100000000000D+01
0.613853499063D-12 0.000000000000D+00 0.000000000000D+00 0.486533278201D-04 0.000000000000D+00  6 -1 2 25 24 4 -4 4 0.62916634D-02 0.75481319D-01 0.14201531D+05 0.14201531D+05 0.14201531D+05 0.12505399D+01  1  2 12  8  6  5       21 0.127926477776D-08 0.100000000000D+01
0.611885378460D-12 0.000000000000D+00 0.000000000000D+00 0.486533278201D-04 0.000000000000D+00  6 -1 2 25 24 3 -3 4 0.62916634D-02 0.75481319D-01 0.14201531D+05 0.14201531D+05 0.14201531D+05 0.12505399D+01  1  2 12  8  6  5       21 0.127516323339D-08 0.100000000000D+01
0.611885378460D-12 0.000000000000D+00 0.000000000000D+00 0.486533278201D-04 0.000000000000D+00  6 -1 2 25 24 4 -4 4 0.62916634D-02 0.75481319D-01 0.14201531D+05 0.14201531D+05 0.14201531D+05 0.12505399D+01  1  2 12  8  6  5       21 0.127516323339D-08 0.100000000000D+01
-.218350943921D-04 0.000000000000D+00 0.000000000000D+00 0.486529949810D-04 0.000000000000D+00  6 -1 2 25 24 3 -3 4 0.62916634D-02 0.75481319D-01 0.14202750D+05 0.14202750D+05 0.14202750D+05 0.12505356D+01  1  2  5  8  6  5       21 -.455036335839D-01 0.100000000000D+01
-.218350943921D-04 0.000000000000D+00 0.000000000000D+00 0.486529949810D-04 0.000000000000D+00  6 -1 2 25 24 4 -4 4 0.62916634D-02 0.75481319D-01 0.14202750D+05 0.14202750D+05 0.14202750D+05 0.12505356D+01  1  2  5  8  6  5       21 -.455036335839D-01 0.100000000000D+01
0.190949662190D-04 0.000000000000D+00 0.000000000000D+00 0.486529949810D-04 0.102488350448D-04  6 -1 2 25 24 3 -3 4 0.62916634D-02 0.75481319D-01 0.14201531D+05 0.14201531D+05 0.14201531D+05 0.12505399D+01  1  2 11  8  6  5       21 0.397937256264D-01 0.100000000000D+01
0.190949662190D-04 0.000000000000D+00 0.000000000000D+00 0.486529949810D-04 0.102488350448D-04  6 -1 2 25 24 4 -4 4 0.62916634D-02 0.75481319D-01 0.14201531D+05 0.14201531D+05 0.14201531D+05 0.12505399D+01  1  2 11  8  6  5       21 0.397937256264D-01 0.100000000000D+01
  </mgrwgt>
  </event>
  <event>
  6     66 0.43535451E-03 0.26034010E+02 0.75467711E-02 0.12103638E+00
       21 -1    0    0  503  501 0.00000000E+00 0.00000000E+00 0.19249217E+02 0.19263823E+02 0.75000000E+00 0.0000E+00 0.9000E+01
        2 -1    0    0  502    0 0.00000000E+00 0.00000000E+00 -.23147465E+04 0.23147465E+04 0.32000000E+00 0.0000E+00 0.9000E+01
       25  1    1    2    0    0 0.18520701E+01 -.24618388E+02 -.76212226E+03 0.77269970E+03 0.12500000E+03 0.0000E+00 0.9000E+01
       24  1    1    2    0    0 0.22604180E+01 0.46346302E+02 -.14550290E+04 0.14579882E+04 0.80419002E+02 0.0000E+00 0.9000E+01
        1  1    1    2  503    0 0.17987842E+02 -.34326156E+02 -.61866419E+02 0.73002765E+02 0.32000000E+00 0.0000E+00 0.9000E+01
       21  1    1    2  502  501 -.22100330E+02 0.12598242E+02 -.16479590E+02 0.30319625E+02 0.75000000E+00 0.0000E+00 0.9000E+01
#aMCatNLO 2  0  0  1  5 0.10142579D+02 0.00000000D+00  -5  6  0 0.00000000D+00 0.00000000D+00 0.00000000D+00 0.00000000D+00 0.00000000D+00
  <mgrwgt>
 0.2554616796D+00    1    2    0
 0.174317664895920D+03 0.000000000000000D+00 0.000000000000000D+00 0.174317664895920D+03
 0.174317664895920D+03 0.000000000000000D+00 0.000000000000000D+00 -.174317664895920D+03
 0.130963329936761D+03 0.850359908988690D+01 -.373110873844387D+02 0.787180721525150D+01
 0.129002518453139D+03 0.898940665369088D+01 0.335057805058930D+02 -.947152947183689D+02
 0.000000000000000D+00 0.000000000000000D+00 -.000000000000000D+00 0.000000000000000D+00
 0.886694814019393D+02 -.174930057435778D+02 0.380530687854568D+01 0.868434875031174D+02
 0.246736824972596D+03 0.000000000000000D+00 0.000000000000000D+00 0.246736824972596D+03
 0.180653890984964D+03 0.000000000000000D+00 0.000000000000000D+00 -.180653890984964D+03
 0.127657605203538D+03 0.185230767791031D+01 -.246184437715856D+02 0.787180721525150D+01
 0.132632183313262D+03 0.226060628031864D+01 0.463463342857892D+02 -.947152947183689D+02
 0.766081042791850D+02 0.179878421093772D+02 -.343261563983630D+02 0.660829339876320D+02
 0.904928231615741D+02 -.221007560676061D+02 0.125982658841594D+02 0.868434875031174D+02
0.255461528425D-04 0.000000000000D+00 0.000000000000D+00 0.723079484289D-04 0.409557685306D-07  6 21 2 25 24 1 21 4 0.29625379D-02 0.35611532D+00 0.20228420D+05 0.20228420D+05 0.20228420D+05 0.12332834D+01  1  2  1  4  5  1       -1 0.255461679591D+00 0.100000000000D+01
  </mgrwgt>
  </event>
  <event>
  5     66 0.43535451E-03 0.41325027E+02 0.75467711E-02 0.10886129E+00
       -1 -1    0    0    0  501 0.00000000E+00 0.00000000E+00 0.16596648E+02 0.16599733E+02 0.32000000E+00 0.0000E+00 0.9000E+01
        2 -1    0    0  502    0 0.00000000E+00 0.00000000E+00 -.24867852E+04 0.24867852E+04 0.32000000E+00 0.0000E+00 0.9000E+01
       25  1    1    2    0    0 0.36430900E+02 0.23641464E+02 -.47730179E+03 0.49530609E+03 0.12500000E+03 0.0000E+00 0.9000E+01
       24  1    1    2    0    0 -.65165022E+02 0.60568975E+01 -.19302645E+04 0.19330472E+04 0.80419002E+02 0.0000E+00 0.9000E+01
       21  1    1    2  502  501 0.28734122E+02 -.29698361E+02 -.62622292E+02 0.75031703E+02 0.75000000E+00 0.0000E+00 0.9000E+01
#aMCatNLO 1  0  0  2  5 0.16956559D+02 0.00000000D+00  -5  6  0 0.00000000D+00 0.00000000D+00 0.00000000D+00 0.00000000D+00 0.00000000D+00
  <mgrwgt>
 0.2808029689D+00    6    4    0
 0.203165415188773D+03 0.000000000000000D+00 0.000000000000000D+00 0.203165415188773D+03
 0.203165415188773D+03 0.000000000000000D+00 0.000000000000000D+00 -.203165415188773D+03
 0.149917703949020D+03 0.364304523045056D+02 0.236419271007862D+02 0.704570747703603D+02
 0.174843915970229D+03 -.651655449019161D+02 0.605743772891108D+01 -.140783302288413D+03
 0.815692104582980D+02 0.287350925974104D+02 -.296993648296973D+02 0.703262275180526D+02
 0.000000000000000D+00 0.000000000000000D+00 0.000000000000000D+00 -.000000000000000D+00
 0.336517255768338D+03 0.000000000000000D+00 0.000000000000000D+00 0.336517255768338D+03
 0.355617773907981D+03 0.000000000000000D+00 0.000000000000000D+00 -.355617773907981D+03
 0.148691746439255D+03 -.387188793281199D+02 0.456995158991699D+01 0.704570747703603D+02
 0.234462917964094D+03 -.168173453602846D+03 -.200847017883630D+02 -.140783302288413D+03
 0.819213580660058D+02 -.124096432335015D+02 -.401413924182389D+02 0.703262275180526D+02
 0.227059007206965D+03 0.219301976164468D+03 0.556561426166849D+02 -.191005181396432D+02
 0.203165415188773D+03 0.000000000000000D+00 0.000000000000000D+00 0.203165415188773D+03
 0.203165415188773D+03 0.000000000000000D+00 0.000000000000000D+00 -.203165415188773D+03
 0.149917703949020D+03 0.364304523045056D+02 0.236419271007862D+02 0.704570747703603D+02
 0.174843915970229D+03 -.651655449019161D+02 0.605743772891108D+01 -.140783302288413D+03
 0.000000000000000D+00 0.000000000000000D+00 0.000000000000000D+00 -.000000000000000D+00
 0.815692104582980D+02 0.287350925974104D+02 -.296993648296973D+02 0.703262275180526D+02
 0.336517255768338D+03 0.000000000000000D+00 0.000000000000000D+00 0.336517255768338D+03
 0.355617773907981D+03 0.000000000000000D+00 0.000000000000000D+00 -.355617773907981D+03
 0.148691746439255D+03 -.387188793281199D+02 0.456995158991699D+01 0.704570747703603D+02
 0.234462917964094D+03 -.168173453602846D+03 -.200847017883630D+02 -.140783302288413D+03
 0.227059007206965D+03 0.219301976164468D+03 0.556561426166849D+02 -.191005181396432D+02
 0.819213580660058D+02 -.124096432335015D+02 -.401413924182389D+02 0.703262275180526D+02
0.461497499262D-03 0.000000000000D+00 0.000000000000D+00 0.726882129753D-05 0.000000000000D+00  6 -1 2 25 24 21 21 2 0.25535694D-02 0.38258258D+00 0.19229233D+05 0.19229233D+05 0.19229233D+05 0.12357095D+01  1  2  2  2  6  2        2 0.158662265984D+00 0.100000000000D+01
0.206365856445D-05 0.243538921215D-04 -.177227191225D-05 0.726882129753D-05 0.000000000000D+00  6 -1 2 25 24 21 21 4 0.25535694D-02 0.38258258D+00 0.19229233D+05 0.19229233D+05 0.19229233D+05 0.12357095D+01  1  2  3  2  6  2        2 0.108336532730D-02 0.100000000000D+01
0.226074647452D-04 0.000000000000D+00 0.000000000000D+00 0.726882129753D-05 0.000000000000D+00  6 -1 2 25 24 21 21 4 0.25535694D-02 0.38258258D+00 0.19229233D+05 0.19229233D+05 0.19229233D+05 0.12357095D+01  1  2 15  2  6  2        2 0.118683118734D-01 0.100000000000D+01
-.550240311371D-04 0.000000000000D+00 -.239742231398D-03 0.726882129753D-05 0.000000000000D+00  6 -1 2 25 24 21 21 4 0.25535694D-02 0.73699156D+00 0.19229233D+05 0.19229233D+05 0.19229233D+05 0.12357095D+01  1  2  5  2  6  2        2 -.673017372679D-03 0.100000000000D+01
0.209267229073D-03 0.000000000000D+00 0.196070205170D-03 0.726882129753D-05 0.000000000000D+00  6 -1 2 25 24 21 21 4 0.25535694D-02 0.38258258D+00 0.19229233D+05 0.19229233D+05 0.19229233D+05 0.12357095D+01  1  2  6  2  6  2        2 0.109859675444D+00 0.100000000000D+01
0.998282901445D-05 0.000000000000D+00 -.170528357854D-04 0.726882129753D-05 0.000000000000D+00  6 -1 21 25 24 -2 21 4 0.25535694D-02 0.73699156D+00 0.19229233D+05 0.19229233D+05 0.19229233D+05 0.12357095D+01  3  4  5  5  5  2        2 0.236763751360D-05 0.100000000000D+01
  </mgrwgt>
  </event>
  <event>
  5     66 0.43535451E-03 0.53511174E+02 0.75467711E-02 0.11221654E+00
       -1 -1    0    0    0  501 0.00000000E+00 0.00000000E+00 0.76543957E+02 0.76544626E+02 0.32000000E+00 0.0000E+00 0.9000E+01
        2 -1    0    0  502    0 -.00000000E+00 -.00000000E+00 -.10868658E+04 0.10868659E+04 0.32000000E+00 0.0000E+00 0.9000E+01
       25  1    1    2    0    0 -.17753368E+03 0.61924982E+01 -.65318160E+03 0.68835148E+03 0.12500000E+03 0.0000E+00 0.9000E+01
       24  1    1    2    0    0 0.18581511E+03 0.46671335E+02 -.13788855E+03 0.24937108E+03 0.80419002E+02 0.0000E+00 0.9000E+01
       21  1    1    2  502  501 -.82814263E+01 -.52863834E+02 -.21925173E+03 0.22568795E+03 0.75000000E+00 0.0000E+00 0.9000E+01
#aMCatNLO 1  0  0  5  2 0.20526983D+02 0.00000000D+00  -5  6  0 0.00000000D+00 0.00000000D+00 0.00000000D+00 0.00000000D+00 0.00000000D+00
  <mgrwgt>
 0.5444745502D+00   20    2    0
 0.288432711020496D+03 0.000000000000000D+00 0.000000000000000D+00 0.288432711020496D+03
 0.288432711020496D+03 -.000000000000000D+00 -.000000000000000D+00 -.288432711020496D+03
 0.244270713782953D+03 -.177533487292457D+03 0.619374141268628D+01 -.111743814455768D+03
 0.261429701631438D+03 0.185815316759430D+03 0.466726658581564D+02 0.158658763577742D+03
 0.711650066266000D+02 -.828182946697320D+01 -.528664072708427D+02 -.469149491219737D+02
 0.000000000000000D+00 0.000000000000000D+00 0.000000000000000D+00 -.000000000000000D+00
 0.288432711020496D+03 0.000000000000000D+00 0.000000000000000D+00 0.288432711020496D+03
 0.288432711020496D+03 -.000000000000000D+00 -.000000000000000D+00 -.288432711020496D+03
 0.246497161960954D+03 -.178219551198701D+03 0.181430640669639D+01 -.115630232714463D+03
 0.257639249279429D+03 0.185089689656124D+03 0.420406822942450D+02 0.154548227521803D+03
 0.287839791821521D+02 -.143499043255478D+02 -.249518722487533D+02 0.421270469380612D-01
 0.439450316184568D+02 0.747976586812427D+01 -.189031164521881D+02 -.389601218542784D+02
0.157467067094D-02 0.000000000000D+00 0.000000000000D+00 0.398732758327D-05 0.000000000000D+00  6 -1 2 25 24 21 21 2 0.11776048D-01 0.16721018D+00 0.57241775D+05 0.57241775D+05 0.57241775D+05 0.11865075D+01  1  2  2  3  6  5       21 0.277557206600D+00 0.100000000000D+01
0.132007596868D-03 0.830976542844D-04 -.604714999671D-05 0.398732758327D-05 0.000000000000D+00  6 -1 2 25 24 21 21 4 0.11776048D-01 0.16721018D+00 0.57241775D+05 0.57241775D+05 0.57241775D+05 0.11865075D+01  1  2  3  3  6  5       21 0.327568924067D-01 0.100000000000D+01
0.275226446322D-04 0.000000000000D+00 0.000000000000D+00 0.398732758327D-05 0.000000000000D+00  6 -1 2 25 24 21 21 4 0.11776048D-01 0.16721018D+00 0.57241775D+05 0.57241775D+05 0.57241775D+05 0.11865075D+01  1  2 15  3  6  5       21 0.682957898147D-02 0.100000000000D+01
0.345657906228D-03 0.000000000000D+00 0.000000000000D+00 0.399399631571D-05 0.000000000000D+00  6 -1 2 25 24 21 21 4 0.11776048D-01 0.16721018D+00 0.55919145D+05 0.55919145D+05 0.55919145D+05 0.11874993D+01  1  2 12  3  6  5       21 0.860684946451D-01 0.100000000000D+01
0.298960264651D-03 0.000000000000D+00 0.000000000000D+00 0.399399631571D-05 0.000000000000D+00  6 -1 2 25 24 21 21 4 0.11776048D-01 0.16721018D+00 0.55919145D+05 0.55919145D+05 0.55919145D+05 0.11874993D+01  1  2 12  3  6  5       21 0.744408256647D-01 0.100000000000D+01
-.102170692494D-02 0.000000000000D+00 0.000000000000D+00 0.398732758327D-05 0.000000000000D+00  6 -1 2 25 24 21 21 4 0.11776048D-01 0.16721018D+00 0.57241775D+05 0.57241775D+05 0.57241775D+05 0.11865075D+01  1  2  4  3  6  5       21 -.253530437683D+00 0.100000000000D+01
-.526136875014D-03 0.000000000000D+00 0.000000000000D+00 0.398732758327D-05 0.000000000000D+00  6 -1 2 25 24 21 21 4 0.11776048D-01 0.16721018D+00 0.57241775D+05 0.57241775D+05 0.57241775D+05 0.11865075D+01  1  2  5  3  6  5       21 -.130557705881D+00 0.100000000000D+01
0.174792773573D-02 0.000000000000D+00 -.000000000000D+00 0.398732758327D-05 0.000000000000D+00  6 -1 2 25 24 21 21 4 0.11776048D-01 0.16721018D+00 0.57241775D+05 0.57241775D+05 0.57241775D+05 0.11865075D+01  1  2  6  3  6  5       21 0.433737770647D+00 0.100000000000D+01
0.206367007737D-04 0.000000000000D+00 0.000000000000D+00 0.399399631571D-05 0.000000000000D+00  6 -1 2 25 24 1 -1 4 0.11776048D-01 0.16721018D+00 0.55919145D+05 0.55919145D+05 0.55919145D+05 0.11874993D+01  1  2 12  6  6  5       21 0.513851914863D-02 0.100000000000D+01
0.180346086362D-04 0.000000000000D+00 0.000000000000D+00 0.399399631571D-05 0.000000000000D+00  6 -1 2 25 24 1 -1 4 0.11776048D-01 0.16721018D+00 0.55919145D+05 0.55919145D+05 0.55919145D+05 0.11874993D+01  1  2 12  6  6  5       21 0.449060064549D-02 0.100000000000D+01
-.215042020076D-04 0.000000000000D+00 0.000000000000D+00 0.398732758327D-05 0.000000000000D+00  6 -1 2 25 24 1 -1 4 0.11776048D-01 0.16721018D+00 0.57241775D+05 0.57241775D+05 0.57241775D+05 0.11865075D+01  1  2  5  6  6  5       21 -.533613858722D-02 0.100000000000D+01
0.206367007737D-04 0.000000000000D+00 0.000000000000D+00 0.399399631571D-05 0.000000000000D+00  6 -1 2 25 24 2 -2 4 0.11776048D-01 0.16721018D+00 0.55919145D+05 0.55919145D+05 0.55919145D+05 0.11874993D+01  1  2 12  7  6  5       21 0.513851914863D-02 0.100000000000D+01
0.180346086362D-04 0.000000000000D+00 0.000000000000D+00 0.399399631571D-05 0.000000000000D+00  6 -1 2 25 24 2 -2 4 0.11776048D-01 0.16721018D+00 0.55919145D+05 0.55919145D+05 0.55919145D+05 0.11874993D+01  1  2 12  7  6  5       21 0.449060064549D-02 0.100000000000D+01
-.215042020076D-04 0.000000000000D+00 0.000000000000D+00 0.398732758327D-05 0.000000000000D+00  6 -1 2 25 24 2 -2 4 0.11776048D-01 0.16721018D+00 0.57241775D+05 0.57241775D+05 0.57241775D+05 0.11865075D+01  1  2  5  7  6  5       21 -.533613858722D-02 0.100000000000D+01
0.206367007737D-04 0.000000000000D+00 0.000000000000D+00 0.399399631571D-05 0.000000000000D+00  6 -1 2 25 24 3 -3 4 0.11776048D-01 0.16721018D+00 0.55919145D+05 0.55919145D+05 0.55919145D+05 0.11874993D+01  1  2 12  8  6  5       21 0.513851914863D-02 0.100000000000D+01
0.206367007737D-04 0.000000000000D+00 0.000000000000D+00 0.399399631571D-05 0.000000000000D+00  6 -1 2 25 24 4 -4 4 0.11776048D-01 0.16721018D+00 0.55919145D+05 0.55919145D+05 0.55919145D+05 0.11874993D+01  1  2 12  8  6  5       21 0.513851914863D-02 0.100000000000D+01
0.180346086362D-04 0.000000000000D+00 0.000000000000D+00 0.399399631571D-05 0.000000000000D+00  6 -1 2 25 24 3 -3 4 0.11776048D-01 0.16721018D+00 0.55919145D+05 0.55919145D+05 0.55919145D+05 0.11874993D+01  1  2 12  8  6  5       21 0.449060064549D-02 0.100000000000D+01
0.180346086362D-04 0.000000000000D+00 0.000000000000D+00 0.399399631571D-05 0.000000000000D+00  6 -1 2 25 24 4 -4 4 0.11776048D-01 0.16721018D+00 0.55919145D+05 0.55919145D+05 0.55919145D+05 0.11874993D+01  1  2 12  8  6  5       21 0.449060064549D-02 0.100000000000D+01
-.215042020076D-04 0.000000000000D+00 0.000000000000D+00 0.398732758327D-05 0.000000000000D+00  6 -1 2 25 24 3 -3 4 0.11776048D-01 0.16721018D+00 0.57241775D+05 0.57241775D+05 0.57241775D+05 0.11865075D+01  1  2  5  8  6  5       21 -.533613858722D-02 0.100000000000D+01
-.215042020076D-04 0.000000000000D+00 0.000000000000D+00 0.398732758327D-05 0.000000000000D+00  6 -1 2 25 24 4 -4 4 0.11776048D-01 0.16721018D+00 0.57241775D+05 0.57241775D+05 0.57241775D+05 0.11865075D+01  1  2  5  8  6  5       21 -.533613858722D-02 0.100000000000D+01
  </mgrwgt>
  </event>
  <event>
  6     66 0.43535451E-03 0.30048775E+02 0.75467711E-02 0.11810222E+00
       21 -1    0    0  503  501 0.00000000E+00 0.00000000E+00 0.53933060E+02 0.53938274E+02 0.75000000E+00 0.0000E+00 0.9000E+01
        2 -1    0    0  502    0 0.00000000E+00 0.00000000E+00 -.75541711E+03 0.75541718E+03 0.32000000E+00 0.0000E+00 0.9000E+01
       25  1    1    2    0    0 0.89593108E+01 -.53798914E+01 -.44572001E+03 0.46303406E+03 0.12500000E+03 0.0000E+00 0.9000E+01
       24  1    1    2    0    0 -.52113895E+02 -.14567069E+02 -.19715785E+03 0.21969636E+03 0.80419002E+02 0.0000E+00 0.9000E+01
        1  1    1    2  503    0 0.34794089E+01 0.57132368E+02 -.23376090E+02 0.61828454E+02 0.32000000E+00 0.0000E+00 0.9000E+01
       21  1    1    2  502  501 0.39675176E+02 -.37185408E+02 -.35230103E+02 0.64796580E+02 0.75000000E+00 0.0000E+00 0.9000E+01
#aMCatNLO 2  0  0  1  5 0.93167030D-01 0.00000000D+00  -5  6  0 0.00000000D+00 0.00000000D+00 0.00000000D+00 0.00000000D+00 0.00000000D+00
  <mgrwgt>
 0.6833105296D-01    1    2    0
 0.154668996554316D+03 0.000000000000000D+00 0.000000000000000D+00 0.154668996554316D+03
 0.154668996554316D+03 0.000000000000000D+00 0.000000000000000D+00 -.154668996554316D+03
 0.140972544192836D+03 0.105224049581071D+02 0.203029218061621D+02 -.610354698206833D+02
 0.954333979931039D+02 -.510410823520461D+02 0.305990137365179D+01 0.507566882832168D+01
 0.000000000000000D+00 0.000000000000000D+00 0.000000000000000D+00 0.000000000000000D+00
 0.729320509226916D+02 0.405186773939391D+02 -.233628231798139D+02 0.559598009923616D+02
 0.244422138380459D+03 0.000000000000000D+00 0.000000000000000D+00 0.244422138380459D+03
 0.166695088141186D+03 0.000000000000000D+00 0.000000000000000D+00 -.166695088141186D+03
 0.139497378044341D+03 0.895832831791547D+01 -.537942922274906D+01 -.610354698206833D+02
 0.970623284775128D+02 -.521145595602539D+02 -.145667402974042D+02 0.507566882832168D+01
 0.965282760987564D+02 0.347940894973603D+01 0.571323678929880D+02 0.777270502392732D+02
 0.780292439010355D+02 0.396768222926024D+02 -.371861983728348D+02 0.559598009923616D+02
0.570803475349D-05 0.000000000000D+00 0.000000000000D+00 0.122895014758D-04 0.364691805556D-08  6 21 2 25 24 1 21 4 0.82977875D-02 0.11621825D+00 0.27886100D+05 0.27886100D+05 0.27886100D+05 0.12182431D+01  1  2  1  4  5  1       -1 0.683310529607D-01 0.100000000000D+01
  </mgrwgt>
  </event>
  <event>
  6     66 -.43535451E-03 0.36938238E+02 0.75467711E-02 0.11754796E+00
       -1 -1    0    0    0  501 0.00000000E+00 0.00000000E+00 0.57037365E+02 0.57038263E+02 0.32000000E+00 0.0000E+00 0.9000E+01
        2 -1    0    0  502    0 -.00000000E+00 -.00000000E+00 -.11649020E+04 0.11649021E+04 0.32000000E+00 0.0000E+00 0.9000E+01
       25  1    1    2    0    0 -.41081665E+02 -.95458226E+02 -.45643570E+03 0.48451886E+03 0.12500000E+03 0.0000E+00 0.9000E+01
       24  1    1    2    0    0 0.12363663E+02 0.11792965E+03 -.67393845E+03 0.68899965E+03 0.80419002E+02 0.0000E+00 0.9000E+01
       21  1    1    2  503  501 0.29226596E+02 -.23570724E+02 0.14451808E+02 0.40239163E+02 0.75000000E+00 0.0000E+00 0.9000E+01
       21  1    1    2  502  503 -.50859422E+00 0.10993049E+01 0.80576865E+01 0.81826616E+01 0.75000000E+00 0.0000E+00 0.9000E+01
#aMCatNLO 2  0  0  5  2 0.93890629D+01 0.00000000D+00  -5  6  0 0.00000000D+00 0.00000000D+00 0.00000000D+00 0.00000000D+00 0.00000000D+00
  <mgrwgt>
 -.2303087796D+00    2    2    0
 0.257766401926054D+03 0.000000000000000D+00 0.000000000000000D+00 0.257766401926054D+03
 0.257766401926054D+03 -.000000000000000D+00 -.000000000000000D+00 -.257766401926054D+03
 0.167665897606329D+03 -.411722588036069D+02 -.953873373208132D+02 -.411455247139994D+02
 0.185215957220241D+03 0.122636605344408D+02 0.118007895348498D+03 -.117309309606498D+03
 0.162650949025538D+03 0.289085982691661D+02 -.226205580276853D+02 0.158454834320498D+03
 0.000000000000000D+00 0.000000000000000D+00 0.000000000000000D+00 0.000000000000000D+00
 0.257766401926054D+03 0.000000000000000D+00 0.000000000000000D+00 0.257766401926054D+03
 0.257766401926054D+03 -.000000000000000D+00 -.000000000000000D+00 -.257766401926054D+03
 0.167562985241910D+03 -.410817710590625D+02 -.954581426658943D+02 -.406495400786908D+02
 0.184826453588041D+03 0.123635454335441D+02 0.117929736866540D+03 -.116761816954272D+03
 0.126224320033637D+03 0.292212396566054D+02 -.235698320299492D+02 0.120512078809409D+03
 0.369190449885206D+02 -.503014031087029D+00 0.109823782930323D+01 0.368992782235537D+02
-.706793796735D-03 0.000000000000D+00 0.000000000000D+00 0.196542033941D-04 0.000000000000D+00  6 -1 2 25 24 21 21 4 0.87750517D-02 0.17921577D+00 0.29684180D+05 0.29684180D+05 0.29684180D+05 0.12153811D+01  1  2 13  3  6  5       21 -.274338938060D+00 0.100000000000D+01
0.113437206951D-03 0.000000000000D+00 0.000000000000D+00 0.196714558577D-04 0.386459976143D-04  6 -1 2 25 24 21 21 4 0.87750517D-02 0.17921577D+00 0.29684180D+05 0.29684180D+05 0.29684180D+05 0.12153811D+01  1  2  1  3  6  5       21 0.440301584918D-01 0.100000000000D+01
  </mgrwgt>
  </event>
  <event>
  6     66 0.43535451E-03 0.35407166E+02 0.75467711E-02 0.12129985E+00
       -1 -1    0    0    0  503 0.00000000E+00 0.00000000E+00 0.10011464E+03 0.10011515E+03 0.32000000E+00 0.0000E+00 0.9000E+01
        2 -1    0    0  502    0 0.00000000E+00 0.00000000E+00 -.59302754E+03 0.59302763E+03 0.32000000E+00 0.0000E+00 0.9000E+01
       25  1    1    2    0    0 -.45754912E+02 0.32912653E+02 -.44459548E+03 0.46526003E+03 0.12500000E+03 0.0000E+00 0.9000E+01
       24  1    1    2    0    0 0.23825093E+02 -.13221037E+02 -.11168870E+03 0.14029973E+03 0.80419002E+02 0.0000E+00 0.9000E+01
       21  1    1    2  502  501 0.37149717E+02 -.21836318E+02 0.55586636E+02 0.70337493E+02 0.75000000E+00 0.0000E+00 0.9000E+01
       21  1    1    2  501  503 -.15219898E+02 0.21447020E+01 0.77846504E+01 0.17245530E+02 0.75000000E+00 0.0000E+00 0.9000E+01
#aMCatNLO 2  0  0  1  1 0.15370265D+02 0.00000000D+00  -5  6  0 0.00000000D+00 0.00000000D+00 0.00000000D+00 0.00000000D+00 0.00000000D+00
  <mgrwgt>
 0.1724484973D+00    1    2    0
 0.226882575976191D+03 0.000000000000000D+00 0.000000000000000D+00 0.226882575976191D+03
 0.226882575976191D+03 0.000000000000000D+00 0.000000000000000D+00 -.226882575976191D+03
 0.204130600850106D+03 -.525696098171992D+02 0.338730189062543D+02 -.148772836624396D+03
 0.848786604735933D+02 0.209652813920198D+02 -.128180159296269D+02 -.115467091936298D+02
 0.164755890628682D+03 0.316043284251794D+02 -.210550029766274D+02 0.160319545818026D+03
 0.000000000000000D+00 -.000000000000000D+00 0.000000000000000D+00 0.000000000000000D+00
 0.259440601238634D+03 0.000000000000000D+00 0.000000000000000D+00 0.259440601238634D+03
 0.228834006666988D+03 0.000000000000000D+00 0.000000000000000D+00 -.228834006666988D+03
 0.202324317779350D+03 -.457550396489940D+02 0.329127482038389D+02 -.148772836624396D+03
 0.856911275392904D+02 0.238250322172997D+02 -.132209958485273D+02 -.115467091936298D+02
 0.166009948426782D+03 0.371499053543236D+02 -.218364543259574D+02 0.160319545818026D+03
 0.342492141601997D+02 -.152198979226293D+02 0.214470197064589D+01 0.306065945716455D+02
0.418192828119D-03 0.000000000000D+00 0.000000000000D+00 0.266954664818D-04 0.225836629692D-06  6 -1 2 25 24 21 21 4 0.15402024D-01 0.91233427D-01 0.19668903D+05 0.19668903D+05 0.19668903D+05 0.12346250D+01  1  2  1  1  6  1       -1 0.172448497297D+00 0.100000000000D+01
  </mgrwgt>
  </event>
  <event>
  5     66 0.43535451E-03 0.36272386E+02 0.75467711E-02 0.11800524E+00
       -1 -1    0    0    0  501 0.00000000E+00 0.00000000E+00 0.25219647E+04 0.25219647E+04 0.32000000E+00 0.0000E+00 0.9000E+01
        2 -1    0    0  502    0 0.00000000E+00 0.00000000E+00 -.17396996E+02 0.17399938E+02 0.32000000E+00 0.0000E+00 0.9000E+01
       25  1    1    2    0    0 -.94057091E+02 0.64897176E+02 0.55211995E+03 0.57751175E+03 0.12500000E+03 0.0000E+00 0.9000E+01
       24  1    1    2    0    0 0.67796211E+02 -.39877114E+02 0.70834394E+03 0.71722023E+03 0.80419002E+02 0.0000E+00 0.9000E+01
       21  1    1    2  502  501 0.26260881E+02 -.25020063E+02 0.12441038E+04 0.12446327E+04 0.75000000E+00 0.0000E+00 0.9000E+01
#aMCatNLO 1  0  0  2  5 0.18614426D+02 0.00000000D+00  -5  6  0 0.00000000D+00 0.00000000D+00 0.00000000D+00 0.00000000D+00 0.00000000D+00
  <mgrwgt>
 0.6752527483D-01    9    4    0
 0.209471647383332D+03 0.000000000000000D+00 0.000000000000000D+00 0.209471647383332D+03
 0.209471647383332D+03 0.000000000000000D+00 0.000000000000000D+00 -.209471647383332D+03
 0.199768065176769D+03 -.940574015279364D+02 0.648974720578035D+02 -.105942452316288D+03
 0.112636425401372D+03 0.677960356710370D+02 -.398769470700374D+02 0.576844974782209D+01
 0.106538804188523D+03 0.262613658568994D+02 -.250205249877661D+02 0.100174002568466D+03
 0.000000000000000D+00 -.000000000000000D+00 -.000000000000000D+00 -.000000000000000D+00
 0.217132883694421D+03 0.000000000000000D+00 0.000000000000000D+00 0.217132883694421D+03
 0.221298596590248D+03 0.000000000000000D+00 0.000000000000000D+00 -.221298596590248D+03
 0.202435340342287D+03 -.932024052607602D+02 0.737873666037607D+02 -.105942452316288D+03
 0.111272266137322D+03 0.682720164629123D+02 -.349278973395076D+02 0.576844974782209D+01
 0.105649021073534D+03 0.267124306565750D+02 -.203305413510504D+02 0.100174002568466D+03
 0.190748527315251D+02 -.178204185872720D+01 -.185289279132027D+02 -.416571289582630D+01
 0.209471647383332D+03 0.000000000000000D+00 0.000000000000000D+00 0.209471647383332D+03
 0.209471647383332D+03 0.000000000000000D+00 0.000000000000000D+00 -.209471647383332D+03
 0.199768065176769D+03 -.940574015279364D+02 0.648974720578035D+02 -.105942452316288D+03
 0.112636425401372D+03 0.677960356710370D+02 -.398769470700374D+02 0.576844974782209D+01
 0.000000000000000D+00 -.000000000000000D+00 -.000000000000000D+00 -.000000000000000D+00
 0.106538804188523D+03 0.262613658568994D+02 -.250205249877661D+02 0.100174002568466D+03
 0.217132883694421D+03 0.000000000000000D+00 0.000000000000000D+00 0.217132883694421D+03
 0.221298596590248D+03 0.000000000000000D+00 0.000000000000000D+00 -.221298596590248D+03
 0.202435340342287D+03 -.932024052607602D+02 0.737873666037607D+02 -.105942452316288D+03
 0.111272266137322D+03 0.682720164629123D+02 -.349278973395076D+02 0.576844974782209D+01
 0.190748527315251D+02 -.178204185872720D+01 -.185289279132027D+02 -.416571289582630D+01
 0.105649021073534D+03 0.267124306565750D+02 -.203305413510504D+02 0.100174002568466D+03
0.471721681882D-02 0.000000000000D+00 0.000000000000D+00 0.163780055096D-04 0.000000000000D+00  6 -1 2 25 24 21 21 2 0.38799480D+00 0.26766888D-02 0.25300557D+05 0.25300557D+05 0.25300557D+05 0.12227416D+01  1  2  2  2  6  2        2 0.319197795528D-01 0.100000000000D+01
0.401263748609D-03 0.248934370615D-03 -.181153546560D-04 0.163780055096D-04 0.000000000000D+00  6 -1 2 25 24 21 21 4 0.38799480D+00 0.26766888D-02 0.25300557D+05 0.25300557D+05 0.25300557D+05 0.12227416D+01  1  2  3  2  6  2        2 0.405950745137D-02 0.100000000000D+01
0.289998032078D-03 0.000000000000D+00 0.000000000000D+00 0.163780055096D-04 0.000000000000D+00  6 -1 2 25 24 21 21 4 0.38799480D+00 0.26766888D-02 0.25300557D+05 0.25300557D+05 0.25300557D+05 0.12227416D+01  1  2 15  2  6  2        2 0.293385379613D-02 0.100000000000D+01
0.191436101761D-01 0.000000000000D+00 0.000000000000D+00 0.162443665648D-04 0.000000000000D+00  6 -1 2 25 24 21 21 4 0.38799480D+00 0.29235705D-02 0.28191454D+05 0.28191454D+05 0.28191454D+05 0.12177428D+01  1  2 12  2  6  2        2 0.168594403510D+00 0.100000000000D+01
-.115883628487D-01 0.000000000000D+00 0.000000000000D+00 0.163780055096D-04 0.000000000000D+00  6 -1 2 25 24 21 21 4 0.38799480D+00 0.26766888D-02 0.25300557D+05 0.25300557D+05 0.25300557D+05 0.12227416D+01  1  2  4  2  6  2        2 -.117237217408D+00 0.100000000000D+01
-.738956132049D-01 0.000000000000D+00 -.161342524750D-01 0.163780055096D-04 0.000000000000D+00  6 -1 2 25 24 21 21 4 0.38799480D+00 0.29641909D-02 0.25300557D+05 0.25300557D+05 0.25300557D+05 0.12227416D+01  1  2  5  2  6  2        2 -.651146847635D+00 0.100000000000D+01
0.752334093310D-01 0.000000000000D+00 0.160506458772D-01 0.163780055096D-04 0.000000000000D+00  6 -1 2 25 24 21 21 4 0.38799480D+00 0.26766888D-02 0.25300557D+05 0.25300557D+05 0.25300557D+05 0.12227416D+01  1  2  6  2  6  2        2 0.761121797895D+00 0.100000000000D+01
0.285190026007D-03 0.000000000000D+00 0.000000000000D+00 0.162443665648D-04 0.000000000000D+00  6 -1 21 25 24 -2 21 4 0.38799480D+00 0.29235705D-02 0.28191454D+05 0.28191454D+05 0.28191454D+05 0.12177428D+01  3  4 12  5  5  2        2 0.430798709429D-01 0.100000000000D+01
-.116591659316D-02 0.000000000000D+00 -.266625734559D-03 0.163780055096D-04 0.000000000000D+00  6 -1 21 25 24 -2 21 4 0.38799480D+00 0.29641909D-02 0.25300557D+05 0.25300557D+05 0.25300557D+05 0.12227416D+01  3  4  5  5  5  2        2 -.175799873276D+00 0.100000000000D+01
  </mgrwgt>
  </event>
  <event>
  6     66 0.43535451E-03 0.71713734E+02 0.75467711E-02 0.12005452E+00
       -3 -1    0    0    0  501 0.00000000E+00 0.00000000E+00 0.10339669E+04 0.10339670E+04 0.50000000E+00 0.0000E+00 0.9000E+01
       21 -1    0    0  502  503 0.00000000E+00 0.00000000E+00 -.72508978E+02 0.72512856E+02 0.75000000E+00 0.0000E+00 0.9000E+01
       25  1    1    2    0    0 -.32576203E+02 0.62195341E+02 0.56757037E+03 0.58539781E+03 0.12500000E+03 0.0000E+00 0.9000E+01
       24  1    1    2    0    0 -.16579629E+02 -.10152468E+02 0.42295296E+03 0.43096912E+03 0.80419002E+02 0.0000E+00 0.9000E+01
       -4  1    1    2    0  503 0.49094859E+02 -.53226837E+02 -.37501639E+02 0.81560877E+02 0.15500000E+01 0.0000E+00 0.9000E+01
       21  1    1    2  502  501 0.60974246E-01 0.11839646E+01 0.84361984E+01 0.85520426E+01 0.75000000E+00 0.0000E+00 0.9000E+01
#aMCatNLO 2  0  0  2  5 0.13313769D+02 0.00000000D+00  -5  6  0 0.00000000D+00 0.00000000D+00 0.00000000D+00 0.00000000D+00 0.00000000D+00
  <mgrwgt>
 0.1726367391D-01    1    2    0
 0.108737469419532D+03 0.000000000000000D+00 0.000000000000000D+00 0.108737469419532D+03
 0.684734580263485D+03 0.000000000000000D+00 0.000000000000000D+00 -.684734580263485D+03
 0.129170659941889D+03 -.260167914111296D+01 0.295230461775783D+02 -.134788871894652D+02
 0.870286214469730D+02 0.215329459245002D+01 -.305799103398194D+02 0.129227474863791D+02
 0.575997110843953D+03 0.000000000000000D+00 -.000000000000000D+00 -.575997110843953D+03
 0.127565745020289D+01 0.448384548662941D+00 0.105686416224115D+01 0.556139703086162D+00
 0.117100504193250D+03 0.000000000000000D+00 0.000000000000000D+00 0.117100504193250D+03
 0.640242055260008D+03 0.000000000000000D+00 0.000000000000000D+00 -.640242055260008D+03
 0.143955825942168D+03 -.326206144292489D+02 0.620684697498151D+02 -.134788871894652D+02
 0.837555470612148D+02 -.166173452672878D+02 -.102294742203039D+02 0.129227474863791D+02
 0.528129230163819D+03 0.490948586385404D+02 -.532268368039647D+02 -.523141551066758D+03
 0.150195628605673D+01 0.143101057996237D+00 0.138784127445358D+01 0.556139703086162D+00
0.775964420341D-04 0.000000000000D+00 0.000000000000D+00 0.184851702500D-01 0.143796269503D-04  6 -3 21 25 24 -4 21 4 0.15907062D+00 0.11155429D-01 0.22482386D+05 0.22482386D+05 0.22482386D+05 0.12282710D+01  1  2  1  5  5  2        4 0.172636739129D-01 0.100000000000D+01
  </mgrwgt>
  </event>
  <event>
  6     66 -.43535451E-03 0.92961719E+01 0.75467711E-02 0.12473624E+00
       -1 -1    0    0    0  501 0.00000000E+00 0.00000000E+00 0.80659802E+01 0.80723253E+01 0.32000000E+00 0.0000E+00 0.9000E+01
        2 -1    0    0  502    0 -.00000000E+00 -.00000000E+00 -.22563090E+04 0.22563090E+04 0.32000000E+00 0.0000E+00 0.9000E+01
       25  1    1    2    0    0 0.54825718E+01 0.13092902E+02 -.68804100E+03 0.69944757E+03 0.12500000E+03 0.0000E+00 0.9000E+01
       24  1    1    2    0    0 -.28806348E+01 0.14152166E+01 -.13553755E+04 0.13577630E+04 0.80419002E+02 0.0000E+00 0.9000E+01
       21  1    1    2  502  503 0.99312392E+01 -.12940296E+02 -.76578720E+02 0.78300342E+02 0.75000000E+00 0.0000E+00 0.9000E+01
       21  1    1    2  503  501 -.12533176E+02 -.15678226E+01 -.12824774E+03 0.12887041E+03 0.75000000E+00 0.0000E+00 0.9000E+01
#aMCatNLO 2  0  0  5  2 0.13080358D+02 0.00000000D+00  -5  6  0 0.00000000D+00 0.00000000D+00 0.00000000D+00 0.00000000D+00 0.00000000D+00
  <mgrwgt>
 -.1042357878D+01    3    2    0
 0.134931660862862D+03 0.000000000000000D+00 0.000000000000000D+00 0.134931660862862D+03
 0.134931660862862D+03 -.000000000000000D+00 -.000000000000000D+00 -.134931660862862D+03
 0.136419372602366D+03 0.675965574694036D+01 0.202137837482821D+02 0.503085998809716D+02
 0.102911285584666D+03 -.192730388708396D+01 0.673088635955199D+01 -.638317900020028D+02
 0.305326635386929D+02 -.483235185985640D+01 -.269446701078341D+02 0.135231901210312D+02
 0.000000000000000D+00 0.000000000000000D+00 0.000000000000000D+00 -.000000000000000D+00
 0.134931660862862D+03 0.000000000000000D+00 0.000000000000000D+00 0.134931660862862D+03
 0.134931660862862D+03 -.000000000000000D+00 -.000000000000000D+00 -.134931660862862D+03
 0.136868935688819D+03 0.545988468363825D+01 0.129664012041176D+02 0.539459697813025D+02
 0.101057657154658D+03 -.289738903724130D+01 0.132179672668841D+01 -.611170361306743D+02
 0.184883077163894D+02 0.104995728091433D+02 -.119782142422166D+02 0.938610018106353D+01
 0.134484211658584D+02 -.130620684555403D+02 -.230998368858945D+01 -.221503383169170D+01
-.232212974332D-03 0.000000000000D+00 0.000000000000D+00 0.254454100634D-04 0.000000000000D+00  6 -1 2 25 24 21 21 4 0.12414099D-02 0.34712495D+00 0.13860894D+05 0.13860894D+05 0.13860894D+05 0.12517518D+01  1  2 13  3  6  5       21 -.477966408404D+00 0.100000000000D+01
-.274197883599D-03 0.000000000000D+00 0.000000000000D+00 0.254454100634D-04 0.000000000000D+00  6 -1 2 25 24 21 21 4 0.12414099D-02 0.34712495D+00 0.13860894D+05 0.13860894D+05 0.13860894D+05 0.12517518D+01  1  2 13  3  6  5       21 -.564384388912D+00 0.100000000000D+01
-.343781841840D-08 0.000000000000D+00 0.000000000000D+00 0.254551397981D-04 0.000000000000D+00  6 -1 2 25 24 21 21 4 0.12414099D-02 0.34712495D+00 0.13794727D+05 0.13794727D+05 0.13794727D+05 0.12519911D+01  1  2  8  3  6  5       21 -.708109872359D-05 0.100000000000D+01
  </mgrwgt>
  </event>
  <event>
  6     66 -.43535451E-03 0.24813130E+02 0.75467711E-02 0.12268273E+00
       -1 -1    0    0    0  501 0.00000000E+00 0.00000000E+00 0.44764518E+02 0.44765662E+02 0.32000000E+00 0.0000E+00 0.9000E+01
        2 -1    0    0  503    0 0.00000000E+00 0.00000000E+00 -.41460231E+03 0.41460243E+03 0.32000000E+00 0.0000E+00 0.9000E+01
       25  1    1    2    0    0 0.33307957E+02 0.87075802E+01 -.17060782E+03 0.21428315E+03 0.12500000E+03 0.0000E+00 0.9000E+01
       24  1    1    2    0    0 -.50825321E+02 0.19276916E+02 -.17070105E+03 0.19636923E+03 0.80419002E+02 0.0000E+00 0.9000E+01
       21  1    1    2  502  501 0.17461702E+02 -.21775727E+02 -.10838179E+02 0.29951994E+02 0.75000000E+00 0.0000E+00 0.9000E+01
       21  1    1    2  503  502 0.55661981E-01 -.62087694E+01 -.17690743E+02 0.18763710E+02 0.75000000E+00 0.0000E+00 0.9000E+01
#aMCatNLO 2  0  0  2  5 0.62090189D+01 0.00000000D+00  -5  6  0 0.00000000D+00 0.00000000D+00 0.00000000D+00 0.00000000D+00 0.00000000D+00
  <mgrwgt>
 -.2468493271D+00    3    2    0
 0.132368923811264D+03 0.000000000000000D+00 0.000000000000000D+00 0.132368923811264D+03
 0.132368923811264D+03 0.000000000000000D+00 0.000000000000000D+00 -.132368923811264D+03
 0.129496949108232D+03 0.333333364547381D+02 0.567147296566592D+01 0.108761368829835D+01
 0.992950053695460D+02 -.508058274698741D+02 0.169452948189734D+02 -.228890151725035D+02
 0.359458931447504D+02 0.174724910151361D+02 -.226167677846393D+02 0.218014014842051D+02
 0.000000000000000D+00 0.000000000000000D+00 -.000000000000000D+00 -.000000000000000D+00
 0.133993177017070D+03 0.000000000000000D+00 0.000000000000000D+00 0.133993177017070D+03
 0.138475144733136D+03 0.000000000000000D+00 0.000000000000000D+00 -.138475144733136D+03
 0.129658561958652D+03 0.333060960617935D+02 0.870997995251920D+01 0.108761368829835D+01
 0.997304028981450D+02 -.508267474584356D+02 0.192787975528845D+02 -.228890151725035D+02
 0.354216842484429D+02 0.174649894156382D+02 -.217800081045103D+02 0.218014014842051D+02
 0.765767264496577D+01 0.556619810038193D-01 -.620876940089347D+01 -.448196771606588D+01
-.249785443108D-03 0.000000000000D+00 0.000000000000D+00 0.301260582251D-04 0.000000000000D+00  6 -1 2 25 24 21 21 4 0.68025398D-02 0.65466759D-01 0.17010539D+05 0.17010539D+05 0.17010539D+05 0.12416427D+01  1  2 13  2  6  2        2 -.528372740129D+00 0.100000000000D+01
-.118907990491D-03 0.000000000000D+00 0.000000000000D+00 0.302394996953D-04 0.000000000000D+00  6 -1 2 25 24 21 21 4 0.68025398D-02 0.60964114D-01 0.16217139D+05 0.16217139D+05 0.16217139D+05 0.12439782D+01  1  2  8  2  6  2        2 -.273030198860D+00 0.100000000000D+01
0.259607740662D-03 0.000000000000D+00 0.000000000000D+00 0.302394996953D-04 0.479608338200D-05  6 -1 2 25 24 21 21 4 0.68860114D-02 0.63776408D-01 0.17010539D+05 0.17010539D+05 0.17010539D+05 0.12416427D+01  1  2  1  2  6  2        2 0.554553611925D+00 0.100000000000D+01
  </mgrwgt>
  </event>
  <event>
  6     66 0.43535451E-03 0.31306971E+02 0.75467711E-02 0.12055452E+00
       -3 -1    0    0    0  503 0.00000000E+00 0.00000000E+00 0.37994825E+03 0.37994858E+03 0.50000000E+00 0.0000E+00 0.9000E+01
        4 -1    0    0  502    0 0.00000000E+00 0.00000000E+00 -.60199409E+02 0.60219360E+02 0.15500000E+01 0.0000E+00 0.9000E+01
       25  1    1    2    0    0 0.37049732E+01 -.45352084E+02 0.13025922E+03 0.18618003E+03 0.12500000E+03 0.0000E+00 0.9000E+01
       24  1    1    2    0    0 0.22541622E+02 0.79562061E+02 0.10754306E+03 0.15770533E+03 0.80419002E+02 0.0000E+00 0.9000E+01
       21  1    1    2  502  501 -.19695780E+02 -.29378850E+02 0.39377039E+02 0.52935379E+02 0.75000000E+00 0.0000E+00 0.9000E+01
       21  1    1    2  501  503 -.65508149E+01 -.48311263E+01 0.42569528E+02 0.43347205E+02 0.75000000E+00 0.0000E+00 0.9000E+01
#aMCatNLO 2  0  0  1  5 0.81395919D+01 0.00000000D+00  -5  6  0 0.00000000D+00 0.00000000D+00 0.00000000D+00 0.00000000D+00 0.00000000D+00
  <mgrwgt>
 0.1901661790D-01    2    2    0
 0.141926099797383D+03 0.000000000000000D+00 0.000000000000000D+00 0.141926099797383D+03
 0.141926099797383D+03 0.000000000000000D+00 0.000000000000000D+00 -.141926099797383D+03
 0.133764918885735D+03 0.629113240649717D+00 -.476190066726299D+02 0.296554463353755D+00
 0.113582260565385D+03 0.199015837044769D+02 0.776163280758516D+02 -.365329205619871D+01
 0.365050201436464D+02 -.205306969451266D+02 -.299973214032216D+02 0.335673759284494D+01
 0.000000000000000D+00 -.000000000000000D+00 -.000000000000000D+00 0.000000000000000D+00
 0.160075369083483D+03 0.000000000000000D+00 0.000000000000000D+00 0.160075369083483D+03
 0.142899994328700D+03 0.000000000000000D+00 0.000000000000000D+00 -.142899994328700D+03
 0.133023953568589D+03 0.370699212871564D+01 -.453491178285303D+02 0.296554463353755D+00
 0.115409262679901D+03 0.225434036891668D+02 0.795646301141866D+02 -.365329205619871D+01
 0.355356626294104D+02 -.196995809598563D+02 -.293843860111135D+02 0.335673759284494D+01
 0.190064845342828D+02 -.655081485802620D+01 -.483112627454274D+01 0.171753747547824D+02
-.840623200857D-03 0.000000000000D+00 0.000000000000D+00 0.170547667112D-04 0.000000000000D+00  6 -3 4 25 24 21 21 4 0.60000257D-01 0.91994047D-02 0.21300148D+05 0.21300148D+05 0.21300148D+05 0.12308261D+01  1  2 13  1  6  1       -3 -.923755124250D-01 0.100000000000D+01
0.971674715062D-03 0.000000000000D+00 0.000000000000D+00 0.171305455856D-04 0.173696680043D-05  6 -3 4 25 24 21 21 4 0.58452130D-01 0.92625309D-02 0.21300148D+05 0.21300148D+05 0.21300148D+05 0.12308261D+01  1  2  1  1  6  1       -3 0.111392130326D+00 0.100000000000D+01
  </mgrwgt>
  </event>
  <event>
  5     66 0.43535451E-03 0.45053138E+02 0.75467711E-02 0.11776851E+00
       -1 -1    0    0    0  501 0.00000000E+00 0.00000000E+00 0.38162529E+02 0.38163871E+02 0.32000000E+00 0.0000E+00 0.9000E+01
        2 -1    0    0  502    0 0.00000000E+00 0.00000000E+00 -.59088090E+03 0.59088099E+03 0.32000000E+00 0.0000E+00 0.9000E+01
       25  1    1    2    0    0 0.40400516E+02 0.20381907E+02 -.26823785E+03 0.29937296E+03 0.12500000E+03 0.0000E+00 0.9000E+01
       24  1    1    2    0    0 -.63678650E+02 -.58949613E+02 -.17455206E+03 0.21086883E+03 0.80419002E+02 0.0000E+00 0.9000E+01
       21  1    1    2  502  501 0.23278134E+02 0.38567706E+02 -.10992847E+03 0.11880307E+03 0.75000000E+00 0.0000E+00 0.9000E+01
#aMCatNLO 1  0  0  2  5 0.41203779D+02 0.00000000D+00  -5  6  0 0.00000000D+00 0.00000000D+00 0.00000000D+00 0.00000000D+00 0.00000000D+00
  <mgrwgt>
 0.1209946964D+00    7    4    0
 0.150166437095129D+03 0.000000000000000D+00 0.000000000000000D+00 0.150166437095129D+03
 0.150166437095129D+03 0.000000000000000D+00 0.000000000000000D+00 -.150166437095129D+03
 0.133381307537249D+03 0.403991720106006D+02 0.203796813318857D+02 -.108696223492303D+02
 0.120427533027209D+03 -.636798628801377D+02 -.589516227353255D+02 0.224756756758862D+02
 0.465240336257995D+02 0.232806908695371D+02 0.385719414034398D+02 -.116060533266560D+02
 0.000000000000000D+00 -.000000000000000D+00 -.000000000000000D+00 -.000000000000000D+00
 0.163192209054952D+03 0.000000000000000D+00 0.000000000000000D+00 0.163192209054952D+03
 0.188102285332929D+03 0.000000000000000D+00 0.000000000000000D+00 -.188102285332929D+03
 0.140588336075722D+03 0.540595192525128D+02 0.331587081882353D+02 -.108696223492303D+02
 0.109650368699764D+03 -.522079932640975D+02 -.482198801727259D+02 0.224756756758862D+02
 0.529074427005308D+02 0.282384244179751D+02 0.432098183944237D+02 -.116060533266560D+02
 0.481483469118630D+02 -.300899504063905D+02 -.281486464099331D+02 -.249100762779770D+02
 0.150166437095129D+03 0.000000000000000D+00 0.000000000000000D+00 0.150166437095129D+03
 0.150166437095129D+03 0.000000000000000D+00 0.000000000000000D+00 -.150166437095129D+03
 0.133381307537249D+03 0.403991720106006D+02 0.203796813318857D+02 -.108696223492303D+02
 0.120427533027209D+03 -.636798628801377D+02 -.589516227353255D+02 0.224756756758862D+02
 0.000000000000000D+00 -.000000000000000D+00 -.000000000000000D+00 -.000000000000000D+00
 0.465240336257995D+02 0.232806908695371D+02 0.385719414034398D+02 -.116060533266560D+02
 0.163192209054952D+03 0.000000000000000D+00 0.000000000000000D+00 0.163192209054952D+03
 0.188102285332929D+03 0.000000000000000D+00 0.000000000000000D+00 -.188102285332929D+03
 0.140588336075722D+03 0.540595192525128D+02 0.331587081882353D+02 -.108696223492303D+02
 0.109650368699764D+03 -.522079932640975D+02 -.482198801727259D+02 0.224756756758862D+02
 0.481483469118630D+02 -.300899504063905D+02 -.281486464099331D+02 -.249100762779770D+02
 0.529074427005308D+02 0.282384244179751D+02 0.432098183944237D+02 -.116060533266560D+02
0.453645636566D-04 0.000000000000D+00 0.000000000000D+00 0.108424012871D-04 0.000000000000D+00  6 -1 2 25 24 21 21 2 0.58712682D-02 0.90904864D-01 0.21948779D+05 0.21948779D+05 0.21948779D+05 0.12294051D+01  1  2  2  2  6  2        2 0.533806835124D-01 0.100000000000D+01
0.196623401823D-05 0.239395379432D-05 -.174211869205D-06 0.108424012871D-04 0.000000000000D+00  6 -1 2 25 24 21 21 4 0.58712682D-02 0.90904864D-01 0.21948779D+05 0.21948779D+05 0.21948779D+05 0.12294051D+01  1  2  3  2  6  2        2 0.349697593274D-02 0.100000000000D+01
0.109210766335D-05 0.000000000000D+00 0.000000000000D+00 0.108424012871D-04 0.000000000000D+00  6 -1 2 25 24 21 21 4 0.58712682D-02 0.90904864D-01 0.21948779D+05 0.21948779D+05 0.21948779D+05 0.12294051D+01  1  2 15  2  6  2        2 0.194232943754D-02 0.100000000000D+01
-.287349856075D-04 0.000000000000D+00 0.000000000000D+00 0.108424012871D-04 0.000000000000D+00  6 -1 2 25 24 21 21 4 0.58712682D-02 0.90904864D-01 0.21948779D+05 0.21948779D+05 0.21948779D+05 0.12294051D+01  1  2  4  2  6  2        2 -.511055917890D-01 0.100000000000D+01
-.208558201910D-03 0.000000000000D+00 -.575811521490D-04 0.108424012871D-04 0.000000000000D+00  6 -1 2 25 24 21 21 4 0.58712682D-02 0.12065361D+00 0.21948779D+05 0.21948779D+05 0.21948779D+05 0.12294051D+01  1  2  5  2  6  2        2 -.265309006749D+00 0.100000000000D+01
0.218286418837D-03 0.000000000000D+00 0.553481808900D-04 0.108424012871D-04 0.000000000000D+00  6 -1 2 25 24 21 21 4 0.58712682D-02 0.90904864D-01 0.21948779D+05 0.21948779D+05 0.21948779D+05 0.12294051D+01  1  2  6  2  6  2        2 0.388225585581D+00 0.100000000000D+01
-.655152665862D-05 0.000000000000D+00 -.213434205853D-05 0.108424012871D-04 0.000000000000D+00  6 -1 21 25 24 -2 21 4 0.58712682D-02 0.12065361D+00 0.21948779D+05 0.21948779D+05 0.21948779D+05 0.12294051D+01  3  4  5  5  5  2        2 -.963627952814D-02 0.100000000000D+01
  </mgrwgt>
  </event>
  <event>
  5     66 0.43535451E-03 0.23667804E+02 0.75467711E-02 0.12273081E+00
       -1 -1    0    0    0  501 0.00000000E+00 0.00000000E+00 0.15525615E+02 0.15528912E+02 0.32000000E+00 0.0000E+00 0.9000E+01
        2 -1    0    0  502    0 -.00000000E+00 -.00000000E+00 -.29147943E+04 0.29147943E+04 0.32000000E+00 0.0000E+00 0.9000E+01
       25  1    1    2    0    0 -.67153681E+02 0.16844398E+02 -.10275309E+04 0.10374189E+04 0.12500000E+03 0.0000E+00 0.9000E+01
       24  1    1    2    0    0 0.47469765E+02 -.37030342E+01 -.18662612E+04 0.18685998E+04 0.80419002E+02 0.0000E+00 0.9000E+01
       21  1    1    2  502  501 0.19683916E+02 -.13141364E+02 -.54765806E+01 0.24304474E+02 0.75000000E+00 0.0000E+00 0.9000E+01
#aMCatNLO 1  0  0  5  2 0.28515899D+01 0.00000000D+00  -5  6  0 0.00000000D+00 0.00000000D+00 0.00000000D+00 0.00000000D+00 0.00000000D+00
  <mgrwgt>
 0.1988098162D+01   25    2    0
 0.212741227753336D+03 0.000000000000000D+00 0.000000000000000D+00 0.212741227753336D+03
 0.212741227753336D+03 -.000000000000000D+00 -.000000000000000D+00 -.212741227753336D+03
 0.143095820394596D+03 -.671537910672777D+02 0.168444719447960D+02 -.761878760669561D+01
 0.152318746971881D+03 0.474696475642591D+02 -.370295597697446D+01 -.120277618042057D+03
 0.130067888140195D+03 0.196841435030187D+02 -.131415159678216D+02 0.127896405648753D+03
 0.000000000000000D+00 0.000000000000000D+00 0.000000000000000D+00 0.000000000000000D+00
 0.212741227753336D+03 0.000000000000000D+00 0.000000000000000D+00 0.212741227753336D+03
 0.212741227753336D+03 -.000000000000000D+00 -.000000000000000D+00 -.212741227753336D+03
 0.143089512092259D+03 -.671467250209591D+02 0.168397545152308D+02 -.757287644342013D+01
 0.152282630277837D+03 0.474771683111180D+02 -.370797697343903D+01 -.120228752492438D+03
 0.855076151231389D+02 0.101160394197525D+02 -.858676541240252D+01 0.844718026933085D+02
 0.446026980134374D+02 0.955351729008860D+01 -.454501212938932D+01 0.433298262425500D+02
0.119587610401D-03 0.000000000000D+00 0.000000000000D+00 0.468216277688D-04 0.000000000000D+00  6 -1 2 25 24 21 21 2 0.23888111D-02 0.44843015D+00 0.16902354D+05 0.16902354D+05 0.16902354D+05 0.12419539D+01  1  2  2  3  6  5       21 0.266585763883D-01 0.100000000000D+01
0.206251958819D-04 0.631081158061D-05 -.459247912080D-06 0.468216277688D-04 0.000000000000D+00  6 -1 2 25 24 21 21 4 0.23888111D-02 0.44843015D+00 0.16902354D+05 0.16902354D+05 0.16902354D+05 0.12419539D+01  1  2  3  3  6  5       21 0.709185405217D-02 0.100000000000D+01
0.573115132237D-05 0.000000000000D+00 0.000000000000D+00 0.468216277688D-04 0.000000000000D+00  6 -1 2 25 24 21 21 4 0.23888111D-02 0.44843015D+00 0.16902354D+05 0.16902354D+05 0.16902354D+05 0.12419539D+01  1  2 15  3  6  5       21 0.197062316217D-02 0.100000000000D+01
0.102019972081D-03 0.000000000000D+00 0.000000000000D+00 0.468165109488D-04 0.000000000000D+00  6 -1 2 25 24 21 21 4 0.23888111D-02 0.44843015D+00 0.16925882D+05 0.16925882D+05 0.16925882D+05 0.12418860D+01  1  2 12  3  6  5       21 0.350703865576D-01 0.100000000000D+01
0.107601535585D-03 0.000000000000D+00 0.000000000000D+00 0.468165109488D-04 0.000000000000D+00  6 -1 2 25 24 21 21 4 0.23888111D-02 0.44843015D+00 0.16925882D+05 0.16925882D+05 0.16925882D+05 0.12418860D+01  1  2 12  3  6  5       21 0.369891048797D-01 0.100000000000D+01
-.178481887312D-01 0.000000000000D+00 0.000000000000D+00 0.468216277688D-04 0.000000000000D+00  6 -1 2 25 24 21 21 4 0.23888111D-02 0.44843015D+00 0.16902354D+05 0.16902354D+05 0.16902354D+05 0.12419539D+01  1  2  4  3  6  5       21 -.613699624002D+01 0.100000000000D+01
-.185623028008D-01 0.000000000000D+00 0.000000000000D+00 0.468216277688D-04 0.000000000000D+00  6 -1 2 25 24 21 21 4 0.23888111D-02 0.44843015D+00 0.16902354D+05 0.16902354D+05 0.16902354D+05 0.12419539D+01  1  2  5  3  6  5       21 -.638254022358D+01 0.100000000000D+01
0.250833271501D-01 0.000000000000D+00 -.000000000000D+00 0.468216277688D-04 0.000000000000D+00  6 -1 2 25 24 21 21 4 0.23888111D-02 0.44843015D+00 0.16902354D+05 0.16902354D+05 0.16902354D+05 0.12419539D+01  1  2  6  3  6  5       21 0.862475664765D+01 0.100000000000D+01
0.169614285007D-01 0.000000000000D+00 0.000000000000D+00 0.468216277688D-04 0.314867647773D-04  6 -1 2 25 24 21 21 4 0.23888111D-02 0.44843015D+00 0.16925882D+05 0.16925882D+05 0.16925882D+05 0.12418860D+01  1  2 11  3  6  5       21 0.583066082016D+01 0.100000000000D+01
0.164784859082D-05 0.000000000000D+00 0.000000000000D+00 0.468165109488D-04 0.000000000000D+00  6 -1 2 25 24 1 -1 4 0.23888111D-02 0.44843015D+00 0.16925882D+05 0.16925882D+05 0.16925882D+05 0.12418860D+01  1  2 12  6  6  5       21 0.566464447004D-03 0.100000000000D+01
0.173629422313D-05 0.000000000000D+00 0.000000000000D+00 0.468165109488D-04 0.000000000000D+00  6 -1 2 25 24 1 -1 4 0.23888111D-02 0.44843015D+00 0.16925882D+05 0.16925882D+05 0.16925882D+05 0.12418860D+01  1  2 12  6  6  5       21 0.596868518395D-03 0.100000000000D+01
-.299291315340D-03 0.000000000000D+00 0.000000000000D+00 0.468216277688D-04 0.000000000000D+00  6 -1 2 25 24 1 -1 4 0.23888111D-02 0.44843015D+00 0.16902354D+05 0.16902354D+05 0.16902354D+05 0.12419539D+01  1  2  5  6  6  5       21 -.102909583969D+00 0.100000000000D+01
0.261985319612D-03 0.000000000000D+00 0.000000000000D+00 0.468216277688D-04 0.751905291134D-06  6 -1 2 25 24 1 -1 4 0.23888111D-02 0.44843015D+00 0.16925882D+05 0.16925882D+05 0.16925882D+05 0.12418860D+01  1  2 11  6  6  5       21 0.900600759220D-01 0.100000000000D+01
0.164784859082D-05 0.000000000000D+00 0.000000000000D+00 0.468165109488D-04 0.000000000000D+00  6 -1 2 25 24 2 -2 4 0.23888111D-02 0.44843015D+00 0.16925882D+05 0.16925882D+05 0.16925882D+05 0.12418860D+01  1  2 12  7  6  5       21 0.566464447004D-03 0.100000000000D+01
0.173629422313D-05 0.000000000000D+00 0.000000000000D+00 0.468165109488D-04 0.000000000000D+00  6 -1 2 25 24 2 -2 4 0.23888111D-02 0.44843015D+00 0.16925882D+05 0.16925882D+05 0.16925882D+05 0.12418860D+01  1  2 12  7  6  5       21 0.596868518395D-03 0.100000000000D+01
-.299291315340D-03 0.000000000000D+00 0.000000000000D+00 0.468216277688D-04 0.000000000000D+00  6 -1 2 25 24 2 -2 4 0.23888111D-02 0.44843015D+00 0.16902354D+05 0.16902354D+05 0.16902354D+05 0.12419539D+01  1  2  5  7  6  5       21 -.102909583969D+00 0.100000000000D+01
0.253474629876D-03 0.000000000000D+00 0.000000000000D+00 0.468216277688D-04 0.715178695590D-06  6 -1 2 25 24 2 -2 4 0.23888111D-02 0.44843015D+00 0.16925882D+05 0.16925882D+05 0.16925882D+05 0.12418860D+01  1  2 11  7  6  5       21 0.871344411388D-01 0.100000000000D+01
0.164784859082D-05 0.000000000000D+00 0.000000000000D+00 0.468165109488D-04 0.000000000000D+00  6 -1 2 25 24 3 -3 4 0.23888111D-02 0.44843015D+00 0.16925882D+05 0.16925882D+05 0.16925882D+05 0.12418860D+01  1  2 12  8  6  5       21 0.566464447004D-03 0.100000000000D+01
0.164784859082D-05 0.000000000000D+00 0.000000000000D+00 0.468165109488D-04 0.000000000000D+00  6 -1 2 25 24 4 -4 4 0.23888111D-02 0.44843015D+00 0.16925882D+05 0.16925882D+05 0.16925882D+05 0.12418860D+01  1  2 12  8  6  5       21 0.566464447004D-03 0.100000000000D+01
0.173629422313D-05 0.000000000000D+00 0.000000000000D+00 0.468165109488D-04 0.000000000000D+00  6 -1 2 25 24 3 -3 4 0.23888111D-02 0.44843015D+00 0.16925882D+05 0.16925882D+05 0.16925882D+05 0.12418860D+01  1  2 12  8  6  5       21 0.596868518395D-03 0.100000000000D+01
0.173629422313D-05 0.000000000000D+00 0.000000000000D+00 0.468165109488D-04 0.000000000000D+00  6 -1 2 25 24 4 -4 4 0.23888111D-02 0.44843015D+00 0.16925882D+05 0.16925882D+05 0.16925882D+05 0.12418860D+01  1  2 12  8  6  5       21 0.596868518395D-03 0.100000000000D+01
-.299291315340D-03 0.000000000000D+00 0.000000000000D+00 0.468216277688D-04 0.000000000000D+00  6 -1 2 25 24 3 -3 4 0.23888111D-02 0.44843015D+00 0.16902354D+05 0.16902354D+05 0.16902354D+05 0.12419539D+01  1  2  5  8  6  5       21 -.102909583969D+00 0.100000000000D+01
-.299291315340D-03 0.000000000000D+00 0.000000000000D+00 0.468216277688D-04 0.000000000000D+00  6 -1 2 25 24 4 -4 4 0.23888111D-02 0.44843015D+00 0.16902354D+05 0.16902354D+05 0.16902354D+05 0.12419539D+01  1  2  5  8  6  5       21 -.102909583969D+00 0.100000000000D+01
0.253413856792D-03 0.000000000000D+00 0.000000000000D+00 0.468216277688D-04 0.714999250096D-06  6 -1 2 25 24 3 -3 4 0.23888111D-02 0.44843015D+00 0.16925882D+05 0.16925882D+05 0.16925882D+05 0.12418860D+01  1  2 11  8  6  5       21 0.871135497828D-01 0.100000000000D+01
0.253413856792D-03 0.000000000000D+00 0.000000000000D+00 0.468216277688D-04 0.714999250096D-06  6 -1 2 25 24 4 -4 4 0.23888111D-02 0.44843015D+00 0.16925882D+05 0.16925882D+05 0.16925882D+05 0.12418860D+01  1  2 11  8  6  5       21 0.871135497828D-01 0.100000000000D+01
  </mgrwgt>
  </event>
  <event>
  5     66 -.43535451E-03 0.20242448E+02 0.75467711E-02 0.11729899E+00
       -1 -1    0    0    0  501 0.00000000E+00 0.00000000E+00 0.11018661E+03 0.11018707E+03 0.32000000E+00 0.0000E+00 0.9000E+01
        2 -1    0    0  502    0 0.00000000E+00 0.00000000E+00 -.32982204E+03 0.32982219E+03 0.32000000E+00 0.0000E+00 0.9000E+01
       25  1    1    2    0    0 -.58133323E+01 -.12232429E+03 -.19053229E+03 0.25869785E+03 0.12500000E+03 0.0000E+00 0.9000E+01
       24  1    1    2    0    0 -.12450830E+02 0.13103976E+03 -.38503759E+02 0.15898490E+03 0.80419002E+02 0.0000E+00 0.9000E+01
       21  1    1    2  502  501 0.18264162E+02 -.87154698E+01 0.94006167E+01 0.22326512E+02 0.75000000E+00 0.0000E+00 0.9000E+01
#aMCatNLO 1  0  0  1  5 0.12527052D+02 0.00000000D+00  -5  6  0 0.00000000D+00 0.00000000D+00 0.00000000D+00 0.00000000D+00 0.00000000D+00
  <mgrwgt>
 -.5927628351D+00    9    4    0
 0.190636061940700D+03 0.000000000000000D+00 0.000000000000000D+00 0.190636061940700D+03
 0.190636061940700D+03 0.000000000000000D+00 0.000000000000000D+00 -.190636061940700D+03
 0.188794345351541D+03 -.581594955307613D+01 -.122323044922581D+03 -.708629116561084D+02
 0.161297163428631D+03 -.124530660786446D+02 0.131040830659339D+03 0.471463765426716D+02
 0.311806151012285D+02 0.182690156317207D+02 -.871778573675799D+01 0.237165351134368D+02
 0.000000000000000D+00 0.000000000000000D+00 -.000000000000000D+00 0.000000000000000D+00
 0.277322460653416D+03 0.000000000000000D+00 0.000000000000000D+00 0.277322460653416D+03
 0.191192039975908D+03 0.000000000000000D+00 0.000000000000000D+00 -.191192039975908D+03
 0.186604294902518D+03 -.107107961814349D+02 -.118574404796499D+03 -.708629116561084D+02
 0.164326831601657D+03 -.166988979578118D+02 0.134292433203662D+03 0.471463765426716D+02
 0.305467358701472D+02 0.174641487958279D+02 -.810139132315167D+01 0.237165351134368D+02
 0.870366382550022D+02 0.994554534341876D+01 -.761663708401067D+01 0.861304206775086D+02
 0.190636061940700D+03 0.000000000000000D+00 0.000000000000000D+00 0.190636061940700D+03
 0.190636061940700D+03 0.000000000000000D+00 0.000000000000000D+00 -.190636061940700D+03
 0.188794345351541D+03 -.581594955307613D+01 -.122323044922581D+03 -.708629116561084D+02
 0.161297163428631D+03 -.124530660786446D+02 0.131040830659339D+03 0.471463765426716D+02
 0.000000000000000D+00 0.000000000000000D+00 -.000000000000000D+00 0.000000000000000D+00
 0.311806151012285D+02 0.182690156317207D+02 -.871778573675799D+01 0.237165351134368D+02
 0.277322460653416D+03 0.000000000000000D+00 0.000000000000000D+00 0.277322460653416D+03
 0.191192039975908D+03 0.000000000000000D+00 0.000000000000000D+00 -.191192039975908D+03
 0.186604294902518D+03 -.107107961814349D+02 -.118574404796499D+03 -.708629116561084D+02
 0.164326831601657D+03 -.166988979578118D+02 0.134292433203662D+03 0.471463765426716D+02
 0.870366382550022D+02 0.994554534341876D+01 -.761663708401067D+01 0.861304206775086D+02
 0.305467358701472D+02 0.174641487958279D+02 -.810139132315167D+01 0.237165351134368D+02
0.569105375651D-04 0.000000000000D+00 0.000000000000D+00 0.393818725808D-04 0.000000000000D+00  6 -1 2 25 24 21 21 2 0.16951834D-01 0.50741900D-01 0.30535149D+05 0.30535149D+05 0.30535149D+05 0.12140933D+01  1  2  2  1  6  1       -1 0.244143940094D-01 0.100000000000D+01
0.147223619390D-04 0.300325157699D-05 -.218551449139D-06 0.393818725808D-04 0.000000000000D+00  6 -1 2 25 24 21 21 4 0.16951834D-01 0.50741900D-01 0.30535149D+05 0.30535149D+05 0.30535149D+05 0.12140933D+01  1  2  3  1  6  1       -1 0.930968274962D-02 0.100000000000D+01
0.133054867669D-05 0.000000000000D+00 0.000000000000D+00 0.393818725808D-04 0.000000000000D+00  6 -1 2 25 24 21 21 4 0.16951834D-01 0.50741900D-01 0.30535149D+05 0.30535149D+05 0.30535149D+05 0.12140933D+01  1  2 15  1  6  1       -1 0.841372200619D-03 0.100000000000D+01
0.202164271907D-02 0.000000000000D+00 0.000000000000D+00 0.391782139763D-04 0.000000000000D+00  6 -1 2 25 24 21 21 4 0.26062593D-01 0.50741900D-01 0.32728923D+05 0.32728923D+05 0.32728923D+05 0.12109500D+01  1  2 12  1  6  1       -1 0.629499365629D+00 0.100000000000D+01
-.283152291812D-02 0.000000000000D+00 0.000000000000D+00 0.393818725808D-04 0.000000000000D+00  6 -1 2 25 24 21 21 4 0.16951834D-01 0.50741900D-01 0.30535149D+05 0.30535149D+05 0.30535149D+05 0.12140933D+01  1  2  4  1  6  1       -1 -.179051297443D+01 0.100000000000D+01
-.249072056956D-02 0.000000000000D+00 -.369654715696D-04 0.393818725808D-04 0.000000000000D+00  6 -1 2 25 24 21 21 4 0.24693349D-01 0.50741900D-01 0.30535149D+05 0.30535149D+05 0.30535149D+05 0.12140933D+01  1  2  5  1  6  1       -1 -.856341735692D+00 0.100000000000D+01
0.233961241338D-02 0.000000000000D+00 0.344960528101D-04 0.393818725808D-04 0.000000000000D+00  6 -1 2 25 24 21 21 4 0.16951834D-01 0.50741900D-01 0.30535149D+05 0.30535149D+05 0.30535149D+05 0.12140933D+01  1  2  6  1  6  1       -1 0.147945346107D+01 0.100000000000D+01
0.101543426243D-03 0.000000000000D+00 0.000000000000D+00 0.391782139763D-04 0.000000000000D+00  6 21 2 25 24 1 21 4 0.26062593D-01 0.50741900D-01 0.32728923D+05 0.32728923D+05 0.32728923D+05 0.12109500D+01  3  4 12  4  5  1       -1 0.374797968532D+00 0.100000000000D+01
-.112197919161D-03 0.000000000000D+00 -.168236197198D-05 0.393818725808D-04 0.000000000000D+00  6 21 2 25 24 1 21 4 0.24693349D-01 0.50741900D-01 0.30535149D+05 0.30535149D+05 0.30535149D+05 0.12140933D+01  3  4  5  4  5  1       -1 -.464224369157D+00 0.100000000000D+01
  </mgrwgt>
  </event>
  <event>
  6     66 -.43535451E-03 0.21485861E+02 0.75467711E-02 0.11106900E+00
       -1 -1    0    0    0  503 0.00000000E+00 0.00000000E+00 0.23585232E+03 0.23585254E+03 0.32000000E+00 0.0000E+00 0.9000E+01
        2 -1    0    0  502    0 0.00000000E+00 0.00000000E+00 -.78850692E+03 0.78850699E+03 0.32000000E+00 0.0000E+00 0.9000E+01
       25  1    1    2    0    0 -.13914194E+03 0.11019170E+03 0.10572941E+01 0.21709170E+03 0.12500000E+03 0.0000E+00 0.9000E+01
       24  1    1    2    0    0 0.18625013E+03 -.11815741E+03 -.71180666E+02 0.24532466E+03 0.80419002E+02 0.0000E+00 0.9000E+01
       21  1    1    2  502  501 -.31736848E+02 -.96049895E+01 -.51822551E+03 0.51928578E+03 0.75000000E+00 0.0000E+00 0.9000E+01
       21  1    1    2  501  503 -.15371348E+02 0.17570699E+02 0.35694278E+02 0.42657377E+02 0.75000000E+00 0.0000E+00 0.9000E+01
#aMCatNLO 2  0  0  1  5 0.23345403D+02 0.00000000D+00  -5  6  0 0.00000000D+00 0.00000000D+00 0.00000000D+00 0.00000000D+00 0.00000000D+00
  <mgrwgt>
 -.3193158791D+01    2    2    0
 0.392759372047269D+03 0.000000000000000D+00 0.000000000000000D+00 0.392759372047269D+03
 0.392759372047269D+03 0.000000000000000D+00 0.000000000000000D+00 -.392759372047269D+03
 0.277290073324154D+03 -.144514886769612D+03 0.116333488330445D+03 0.163849784128485D+03
 0.246993196989030D+03 0.181357576558845D+03 -.112564764632881D+03 0.947471719490250D+02
 0.261235473781353D+03 -.368426897892334D+02 -.376872369756371D+01 -.258596956077510D+03
 0.000000000000000D+00 -.000000000000000D+00 0.000000000000000D+00 0.000000000000000D+00
 0.471198599155720D+03 0.000000000000000D+00 0.000000000000000D+00 0.471198599155720D+03
 0.394673675813294D+03 0.000000000000000D+00 0.000000000000000D+00 -.394673675813294D+03
 0.271982401035527D+03 -.139141880113658D+03 0.110191705280096D+03 0.163849784128485D+03
 0.253169010751462D+03 0.186250184502433D+03 -.118157412932810D+03 0.947471719490250D+02
 0.260714165234757D+03 -.317369562682233D+02 -.960499184440966D+01 -.258596956077510D+03
 0.800066979472692D+02 -.153713481205522D+02 0.175706994971234D+02 0.765249233424258D+02
-.801645798308D-01 0.000000000000D+00 0.000000000000D+00 0.186628699337D-04 0.000000000000D+00  6 -1 2 25 24 21 21 4 0.36389931D-01 0.12071985D+00 0.64608558D+05 0.64608558D+05 0.64608558D+05 0.11814119D+01  1  2 13  1  6  1       -1 -.477258087954D+01 0.100000000000D+01
0.265585089814D-01 0.000000000000D+00 0.000000000000D+00 0.187669524548D-04 0.157956530351D-06  6 -1 2 25 24 21 21 4 0.36284833D-01 0.12130824D+00 0.64608558D+05 0.64608558D+05 0.64608558D+05 0.11814119D+01  1  2  1  1  6  1       -1 0.157942208856D+01 0.100000000000D+01
  </mgrwgt>
  </event>
  <event>
  5     66 0.43535451E-03 0.23071465E+02 0.75467711E-02 0.12378194E+00
       -1 -1    0    0    0  501 0.00000000E+00 0.00000000E+00 0.91291662E+01 0.91347729E+01 0.32000000E+00 0.0000E+00 0.9000E+01
        2 -1    0    0  502    0 0.00000000E+00 0.00000000E+00 -.15116940E+04 0.15116941E+04 0.32000000E+00 0.0000E+00 0.9000E+01
       25  1    1    2    0    0 0.17458535E+02 0.15844490E+02 -.71389080E+03 0.72513510E+03 0.12500000E+03 0.0000E+00 0.9000E+01
       24  1    1    2    0    0 0.49178438E+01 -.10268556E+02 -.65857761E+03 0.66356711E+03 0.80419002E+02 0.0000E+00 0.9000E+01
       21  1    1    2  502  501 -.22376379E+02 -.55759342E+01 -.13009647E+03 0.13212663E+03 0.75000000E+00 0.0000E+00 0.9000E+01
#aMCatNLO 1  0  0  2  5 0.14564069D+02 0.00000000D+00  -5  6  0 0.00000000D+00 0.00000000D+00 0.00000000D+00 0.00000000D+00 0.00000000D+00
  <mgrwgt>
 0.6728146302D+00    3    2    0
 0.117493809530438D+03 0.000000000000000D+00 0.000000000000000D+00 0.117493809530438D+03
 0.117493809530438D+03 0.000000000000000D+00 0.000000000000000D+00 -.117493809530438D+03
 0.128259407684777D+03 0.174648944236788D+02 0.158460748168087D+02 0.164120393406661D+02
 0.834787779824676D+02 0.492198279271914D+01 -.102675245890160D+02 -.192832166216561D+02
 0.232494333936326D+02 -.223868772163980D+02 -.557855022779274D+01 0.287117728099000D+01
 0.000000000000000D+00 0.000000000000000D+00 0.000000000000000D+00 0.000000000000000D+00
 0.254280099522702D+03 0.000000000000000D+00 0.000000000000000D+00 0.254280099522702D+03
 0.118107566950377D+03 0.000000000000000D+00 0.000000000000000D+00 -.118107566950377D+03
 0.127334059365710D+03 0.958820922608322D+01 0.150888661955571D+02 0.164120393406661D+02
 0.833961964147059D+02 -.220643330912302D+00 -.107619001720183D+02 -.192832166216561D+02
 0.247082568410549D+02 -.238648008626539D+02 -.572062731966867D+01 0.287117728099000D+01
 0.136949153851609D+03 0.144972349674830D+02 0.139366129612987D+01 0.136172532572325D+03
0.191072887679D-03 0.000000000000D+00 0.000000000000D+00 0.490697058484D-04 0.000000000000D+00  6 -1 2 25 24 21 21 2 0.14049210D-02 0.23256875D+00 0.13397782D+05 0.13397782D+05 0.13397782D+05 0.12534543D+01  1  2  2  2  6  2        2 0.505668186587D+00 0.100000000000D+01
0.300024953046D-04 0.100831933029D-04 -.733770199334D-06 0.490697058484D-04 0.000000000000D+00  6 -1 2 25 24 21 21 4 0.14049210D-02 0.23256875D+00 0.13397782D+05 0.13397782D+05 0.13397782D+05 0.12534543D+01  1  2  3  2  6  2        2 0.124750118628D+00 0.100000000000D+01
0.101963473464D-04 0.000000000000D+00 0.000000000000D+00 0.490697058484D-04 0.000000000000D+00  6 -1 2 25 24 21 21 4 0.14049210D-02 0.23256875D+00 0.13397782D+05 0.13397782D+05 0.13397782D+05 0.12534543D+01  1  2 15  2  6  2        2 0.423963249760D-01 0.100000000000D+01
  </mgrwgt>
  </event>
  <event>
  6     66 -.43535451E-03 0.29243005E+02 0.75467711E-02 0.11431668E+00
       -1 -1    0    0    0  501 0.00000000E+00 0.00000000E+00 0.37090460E+03 0.37090474E+03 0.32000000E+00 0.0000E+00 0.9000E+01
        2 -1    0    0  502    0 -.00000000E+00 -.00000000E+00 -.14985284E+04 0.14985284E+04 0.32000000E+00 0.0000E+00 0.9000E+01
       25  1    1    2    0    0 0.14493223E+03 -.79560978E+02 -.46768855E+03 0.51155926E+03 0.12500000E+03 0.0000E+00 0.9000E+01
       24  1    1    2    0    0 -.10771050E+03 0.83050504E+02 -.10008278E+04 0.10132237E+04 0.80419002E+02 0.0000E+00 0.9000E+01
       21  1    1    2  502  503 -.34826423E+02 0.10606893E+02 0.23993447E+03 0.24268189E+03 0.75000000E+00 0.0000E+00 0.9000E+01
       21  1    1    2  503  501 -.23953087E+01 -.14096419E+02 0.10095802E+03 0.10196829E+03 0.75000000E+00 0.0000E+00 0.9000E+01
#aMCatNLO 2  0  0  5  2 0.15656843D+02 0.00000000D+00  -5  6  0 0.00000000D+00 0.00000000D+00 0.00000000D+00 0.00000000D+00 0.00000000D+00
  <mgrwgt>
 -.6049003995D+01    2    2    0
 0.745527493461606D+03 0.000000000000000D+00 0.000000000000000D+00 0.745527493461606D+03
 0.745527493461606D+03 -.000000000000000D+00 -.000000000000000D+00 -.745527493461606D+03
 0.287800131092466D+03 0.144941142836890D+03 -.795601422518988D+02 -.199665130493120D+03
 0.513736511183699D+03 -.107694595653632D+03 0.830519951095359D+02 -.488837628609086D+03
 0.689518344647048D+03 -.372465471832573D+02 -.349185285763709D+01 0.688502759102206D+03
 0.000000000000000D+00 0.000000000000000D+00 0.000000000000000D+00 0.000000000000000D+00
 0.745527493461606D+03 0.000000000000000D+00 0.000000000000000D+00 0.745527493461606D+03
 0.745527493461606D+03 -.000000000000000D+00 -.000000000000000D+00 -.745527493461606D+03
 0.287681864433204D+03 0.144932250177187D+03 -.795609759361338D+02 -.199500749598671D+03
 0.513460419391461D+03 -.107710468457338D+03 0.830505070388509D+02 -.488544219690065D+03
 0.485419790524704D+03 -.348150492561454D+02 0.106156505479864D+02 0.484053295972440D+03
 0.204492912573844D+03 -.240673246370308D+01 -.141051816507035D+02 0.203991673316296D+03
-.862369336432D+00 0.000000000000D+00 0.000000000000D+00 0.666461247315D-04 0.000000000000D+00  6 -1 2 25 24 21 21 4 0.57062260D-01 0.23054284D+00 0.43260264D+05 0.43260264D+05 0.43260264D+05 0.11985599D+01  1  2 13  3  6  5       21 -.922593135005D+01 0.100000000000D+01
0.296954814728D+00 0.000000000000D+00 0.000000000000D+00 0.669636251974D-04 0.858011838657D-06  6 -1 2 25 24 21 21 4 0.57062260D-01 0.23054284D+00 0.43260264D+05 0.43260264D+05 0.43260264D+05 0.11985599D+01  1  2  1  3  6  5       21 0.317692735468D+01 0.100000000000D+01
  </mgrwgt>
  </event>
  <event>
  5     66 0.43535451E-03 0.31856078E+02 0.75467711E-02 0.11723750E+00
       -3 -1    0    0    0  501 0.00000000E+00 0.00000000E+00 0.88276069E+02 0.88277485E+02 0.50000000E+00 0.0000E+00 0.9000E+01
        4 -1    0    0  502    0 -.00000000E+00 -.00000000E+00 -.60481548E+03 0.60481747E+03 0.15500000E+01 0.0000E+00 0.9000E+01
       25  1    1    2    0    0 0.10694260E+03 -.48801383E+02 -.66507129E+02 0.18402851E+03 0.12500000E+03 0.0000E+00 0.9000E+01
       24  1    1    2    0    0 -.95232842E+02 0.78424101E+02 -.45369290E+03 0.47699486E+03 0.80419002E+02 0.0000E+00 0.9000E+01
       21  1    1    2  502  501 -.11709756E+02 -.29622718E+02 0.36606147E+01 0.32071583E+02 0.75000000E+00 0.0000E+00 0.9000E+01
#aMCatNLO 1  0  0  5  2 0.78812893D+01 0.00000000D+00  -5  6  0 0.00000000D+00 0.00000000D+00 0.00000000D+00 0.00000000D+00 0.00000000D+00
  <mgrwgt>
 0.8665106413D-02   20    2    0
 0.231066899331589D+03 0.000000000000000D+00 0.000000000000000D+00 0.231066899331589D+03
 0.231066899331589D+03 -.000000000000000D+00 -.000000000000000D+00 -.231066899331589D+03
 0.201662821488880D+03 0.106943125986480D+03 -.488000478721061D+02 0.105946291595204D+03
 0.208279982436957D+03 -.952322974752101D+02 0.784254798229294D+02 -.147287435858273D+03
 0.521909947373410D+02 -.117108285112699D+02 -.296254319508233D+02 0.413411442630695D+02
 0.000000000000000D+00 0.000000000000000D+00 0.000000000000000D+00 0.000000000000000D+00
 0.231066899331589D+03 0.000000000000000D+00 0.000000000000000D+00 0.231066899331589D+03
 0.231066899331589D+03 -.000000000000000D+00 -.000000000000000D+00 -.231066899331589D+03
 0.202146442693729D+03 0.106694654359825D+03 -.494286181957251D+02 0.106823437166325D+03
 0.207516282198186D+03 -.954881449343813D+02 0.777782505099756D+02 -.146384252389336D+03
 0.212280990591913D+02 -.120547935899597D+02 -.944741137630881D+01 0.146989985868799D+02
 0.312429747120714D+02 0.848284164515993D+00 -.189022209379417D+02 0.248618166361311D+02
0.266906653107D-03 0.000000000000D+00 0.000000000000D+00 0.107641273426D-04 0.000000000000D+00  6 -3 4 25 24 21 21 2 0.13581195D-01 0.93048797D-01 0.30749630D+05 0.30749630D+05 0.30749630D+05 0.12137750D+01  1  2  2  3  6  5       21 0.358130239560D-02 0.100000000000D+01
0.292894295535D-04 0.140850510494D-04 -.102499182607D-05 0.107641273426D-04 0.000000000000D+00  6 -3 4 25 24 21 21 4 0.13581195D-01 0.93048797D-01 0.30749630D+05 0.30749630D+05 0.30749630D+05 0.12137750D+01  1  2  3  3  6  5       21 0.578987137557D-03 0.100000000000D+01
0.405666061825D-05 0.000000000000D+00 0.000000000000D+00 0.107641273426D-04 0.000000000000D+00  6 -3 4 25 24 21 21 4 0.13581195D-01 0.93048797D-01 0.30749630D+05 0.30749630D+05 0.30749630D+05 0.12137750D+01  1  2 15  3  6  5       21 0.801911937243D-04 0.100000000000D+01
0.173146987587D-03 0.000000000000D+00 0.000000000000D+00 0.107539251226D-04 0.000000000000D+00  6 -3 4 25 24 21 21 4 0.13581195D-01 0.93048797D-01 0.31141642D+05 0.31141642D+05 0.31141642D+05 0.12131997D+01  1  2 12  3  6  5       21 0.341879259662D-02 0.100000000000D+01
0.182881726143D-03 0.000000000000D+00 0.000000000000D+00 0.107539251226D-04 0.000000000000D+00  6 -3 4 25 24 21 21 4 0.13581195D-01 0.93048797D-01 0.31141642D+05 0.31141642D+05 0.31141642D+05 0.12131997D+01  1  2 12  3  6  5       21 0.361100530890D-02 0.100000000000D+01
-.903052132763D-03 0.000000000000D+00 0.000000000000D+00 0.107641273426D-04 0.000000000000D+00  6 -3 4 25 24 21 21 4 0.13581195D-01 0.93048797D-01 0.30749630D+05 0.30749630D+05 0.30749630D+05 0.12137750D+01  1  2  4  3  6  5       21 -.178513401382D-01 0.100000000000D+01
-.312972975905D-03 0.000000000000D+00 0.000000000000D+00 0.107641273426D-04 0.000000000000D+00  6 -3 4 25 24 21 21 4 0.13581195D-01 0.93048797D-01 0.30749630D+05 0.30749630D+05 0.30749630D+05 0.12137750D+01  1  2  5  3  6  5       21 -.618678240628D-02 0.100000000000D+01
0.114773927157D-02 0.000000000000D+00 -.000000000000D+00 0.107641273426D-04 0.000000000000D+00  6 -3 4 25 24 21 21 4 0.13581195D-01 0.93048797D-01 0.30749630D+05 0.30749630D+05 0.30749630D+05 0.12137750D+01  1  2  6  3  6  5       21 0.226882628182D-01 0.100000000000D+01
0.100098222138D-04 0.000000000000D+00 0.000000000000D+00 0.107539251226D-04 0.000000000000D+00  6 -3 4 25 24 3 -3 4 0.13581195D-01 0.93048797D-01 0.31141642D+05 0.31141642D+05 0.31141642D+05 0.12131997D+01  1  2 12  6  6  5       21 0.197644247554D-03 0.100000000000D+01
0.105441445124D-04 0.000000000000D+00 0.000000000000D+00 0.107539251226D-04 0.000000000000D+00  6 -3 4 25 24 3 -3 4 0.13581195D-01 0.93048797D-01 0.31141642D+05 0.31141642D+05 0.31141642D+05 0.12131997D+01  1  2 12  6  6  5       21 0.208194457779D-03 0.100000000000D+01
-.364060434321D-04 0.000000000000D+00 0.000000000000D+00 0.107641273426D-04 0.000000000000D+00  6 -3 4 25 24 3 -3 4 0.13581195D-01 0.93048797D-01 0.30749630D+05 0.30749630D+05 0.30749630D+05 0.12137750D+01  1  2  5  6  6  5       21 -.719666828540D-03 0.100000000000D+01
0.100098222138D-04 0.000000000000D+00 0.000000000000D+00 0.107539251226D-04 0.000000000000D+00  6 -3 4 25 24 4 -4 4 0.13581195D-01 0.93048797D-01 0.31141642D+05 0.31141642D+05 0.31141642D+05 0.12131997D+01  1  2 12  7  6  5       21 0.197644247554D-03 0.100000000000D+01
0.105441445124D-04 0.000000000000D+00 0.000000000000D+00 0.107539251226D-04 0.000000000000D+00  6 -3 4 25 24 4 -4 4 0.13581195D-01 0.93048797D-01 0.31141642D+05 0.31141642D+05 0.31141642D+05 0.12131997D+01  1  2 12  7  6  5       21 0.208194457779D-03 0.100000000000D+01
-.364060434321D-04 0.000000000000D+00 0.000000000000D+00 0.107641273426D-04 0.000000000000D+00  6 -3 4 25 24 4 -4 4 0.13581195D-01 0.93048797D-01 0.30749630D+05 0.30749630D+05 0.30749630D+05 0.12137750D+01  1  2  5  7  6  5       21 -.719666828540D-03 0.100000000000D+01
0.100098222138D-04 0.000000000000D+00 0.000000000000D+00 0.107539251226D-04 0.000000000000D+00  6 -3 4 25 24 1 -1 4 0.13581195D-01 0.93048797D-01 0.31141642D+05 0.31141642D+05 0.31141642D+05 0.12131997D+01  1  2 12  8  6  5       21 0.197644247554D-03 0.100000000000D+01
0.100098222138D-04 0.000000000000D+00 0.000000000000D+00 0.107539251226D-04 0.000000000000D+00  6 -3 4 25 24 2 -2 4 0.13581195D-01 0.93048797D-01 0.31141642D+05 0.31141642D+05 0.31141642D+05 0.12131997D+01  1  2 12  8  6  5       21 0.197644247554D-03 0.100000000000D+01
0.105441445124D-04 0.000000000000D+00 0.000000000000D+00 0.107539251226D-04 0.000000000000D+00  6 -3 4 25 24 1 -1 4 0.13581195D-01 0.93048797D-01 0.31141642D+05 0.31141642D+05 0.31141642D+05 0.12131997D+01  1  2 12  8  6  5       21 0.208194457779D-03 0.100000000000D+01
0.105441445124D-04 0.000000000000D+00 0.000000000000D+00 0.107539251226D-04 0.000000000000D+00  6 -3 4 25 24 2 -2 4 0.13581195D-01 0.93048797D-01 0.31141642D+05 0.31141642D+05 0.31141642D+05 0.12131997D+01  1  2 12  8  6  5       21 0.208194457779D-03 0.100000000000D+01
-.364060434321D-04 0.000000000000D+00 0.000000000000D+00 0.107641273426D-04 0.000000000000D+00  6 -3 4 25 24 1 -1 4 0.13581195D-01 0.93048797D-01 0.30749630D+05 0.30749630D+05 0.30749630D+05 0.12137750D+01  1  2  5  8  6  5       21 -.719666828540D-03 0.100000000000D+01
-.364060434321D-04 0.000000000000D+00 0.000000000000D+00 0.107641273426D-04 0.000000000000D+00  6 -3 4 25 24 2 -2 4 0.13581195D-01 0.93048797D-01 0.30749630D+05 0.30749630D+05 0.30749630D+05 0.12137750D+01  1  2  5  8  6  5       21 -.719666828540D-03 0.100000000000D+01
  </mgrwgt>
  </event>
  <event>
  5     66 0.43535451E-03 0.55541332E+02 0.75467711E-02 0.12175304E+00
       -1 -1    0    0    0  501 0.00000000E+00 0.00000000E+00 0.81890875E+02 0.81891500E+02 0.32000000E+00 0.0000E+00 0.9000E+01
        2 -1    0    0  502    0 -.00000000E+00 -.00000000E+00 -.12479748E+04 0.12479749E+04 0.32000000E+00 0.0000E+00 0.9000E+01
       25  1    1    2    0    0 -.73448397E+01 -.24747358E+02 -.94751422E+03 0.95607248E+03 0.12500000E+03 0.0000E+00 0.9000E+01
       24  1    1    2    0    0 0.31071135E+02 -.25471063E+02 -.27816241E+03 0.29232812E+03 0.80419002E+02 0.0000E+00 0.9000E+01
       21  1    1    2  502  501 -.23726295E+02 0.50218421E+02 0.59592660E+02 0.81465788E+02 0.75000000E+00 0.0000E+00 0.9000E+01
#aMCatNLO 1  0  0  5  1 0.54698232D+01 0.00000000D+00  -5  6  0 0.00000000D+00 0.00000000D+00 0.00000000D+00 0.00000000D+00 0.00000000D+00
  <mgrwgt>
 0.8288200699D+00   25    2    0
 0.319684525127731D+03 0.000000000000000D+00 0.000000000000000D+00 0.319684525127731D+03
 0.319684525127731D+03 -.000000000000000D+00 -.000000000000000D+00 -.319684525127731D+03
 0.260518917122934D+03 -.734480453308306D+01 -.247474323821856D+02 -.227109499175543D+03
 0.100719095668619D+03 0.310711482930252D+02 -.254710922527364D+02 -.454194614800675D+02
 0.278131037463910D+03 -.237263437599421D+02 0.502185246349220D+02 0.272528960655611D+03
 0.000000000000000D+00 0.000000000000000D+00 0.000000000000000D+00 0.000000000000000D+00
 0.319684525127731D+03 0.000000000000000D+00 0.000000000000000D+00 0.319684525127731D+03
 0.319684525127731D+03 -.000000000000000D+00 -.000000000000000D+00 -.319684525127731D+03
 0.260288757973940D+03 -.736740300867654D+01 -.246996010721959D+02 -.226849925297317D+03
 0.100666498079565D+03 0.310624099282836D+02 -.254525968710003D+02 -.453190896113574D+02
 0.252802755475218D+03 -.235140683312430D+02 0.506261601077875D+02 0.246563001440032D+03
 0.256110387267393D+02 -.180938588364109D+00 -.473962164591327D+00 0.256060134686428D+02
0.651696425859D-04 0.000000000000D+00 0.000000000000D+00 0.259960869296D-04 0.000000000000D+00  6 -1 2 25 24 21 21 2 0.12598647D-01 0.19199618D+00 0.18642582D+05 0.18642582D+05 0.18642582D+05 0.12372007D+01  1  2  2  3  6  5       21 0.916856883724D-02 0.100000000000D+01
0.472602567467D-05 0.343909652310D-05 -.250268587091D-06 0.259960869296D-04 0.000000000000D+00  6 -1 2 25 24 21 21 4 0.12598647D-01 0.19199618D+00 0.18642582D+05 0.18642582D+05 0.18642582D+05 0.12372007D+01  1  2  3  3  6  5       21 0.101773002867D-02 0.100000000000D+01
0.224704351465D-05 0.000000000000D+00 0.000000000000D+00 0.259960869296D-04 0.000000000000D+00  6 -1 2 25 24 21 21 4 0.12598647D-01 0.19199618D+00 0.18642582D+05 0.18642582D+05 0.18642582D+05 0.12372007D+01  1  2 15  3  6  5       21 0.483891501655D-03 0.100000000000D+01
0.132207569594D-02 0.000000000000D+00 0.000000000000D+00 0.259846780361D-04 0.000000000000D+00  6 -1 2 25 24 21 21 4 0.12598647D-01 0.19199618D+00 0.18747891D+05 0.18747891D+05 0.18747891D+05 0.12369292D+01  1  2 12  3  6  5       21 0.284442289173D+00 0.100000000000D+01
0.222847199831D-02 0.000000000000D+00 0.000000000000D+00 0.259846780361D-04 0.000000000000D+00  6 -1 2 25 24 21 21 4 0.12598647D-01 0.19199618D+00 0.18747891D+05 0.18747891D+05 0.18747891D+05 0.12369292D+01  1  2 12  3  6  5       21 0.479451878971D+00 0.100000000000D+01
-.531615127909D-03 0.000000000000D+00 0.000000000000D+00 0.259960869296D-04 0.000000000000D+00  6 -1 2 25 24 21 21 4 0.12598647D-01 0.19199618D+00 0.18642582D+05 0.18642582D+05 0.18642582D+05 0.12372007D+01  1  2  4  3  6  5       21 -.114481113014D+00 0.100000000000D+01
-.769440331034D-02 0.000000000000D+00 0.000000000000D+00 0.259960869296D-04 0.000000000000D+00  6 -1 2 25 24 21 21 4 0.12598647D-01 0.19199618D+00 0.18642582D+05 0.18642582D+05 0.18642582D+05 0.12372007D+01  1  2  5  3  6  5       21 -.165695784168D+01 0.100000000000D+01
0.837097438703D-02 0.000000000000D+00 -.000000000000D+00 0.259960869296D-04 0.000000000000D+00  6 -1 2 25 24 21 21 4 0.12598647D-01 0.19199618D+00 0.18642582D+05 0.18642582D+05 0.18642582D+05 0.12372007D+01  1  2  6  3  6  5       21 0.180265461708D+01 0.100000000000D+01
0.135959689771D-03 0.000000000000D+00 0.000000000000D+00 0.259960869296D-04 0.332634747542D-03  6 -1 2 25 24 21 21 4 0.12598647D-01 0.19199618D+00 0.18747891D+05 0.18747891D+05 0.18747891D+05 0.12369292D+01  1  2 11  3  6  5       21 0.292514910550D-01 0.100000000000D+01
0.125734696556D-04 0.000000000000D+00 0.000000000000D+00 0.259846780361D-04 0.000000000000D+00  6 -1 2 25 24 1 -1 4 0.12598647D-01 0.19199618D+00 0.18747891D+05 0.18747891D+05 0.18747891D+05 0.12369292D+01  1  2 12  6  6  5       21 0.270516015285D-02 0.100000000000D+01
0.156526429888D-04 0.000000000000D+00 0.000000000000D+00 0.259846780361D-04 0.000000000000D+00  6 -1 2 25 24 1 -1 4 0.12598647D-01 0.19199618D+00 0.18747891D+05 0.18747891D+05 0.18747891D+05 0.12369292D+01  1  2 12  6  6  5       21 0.336763894611D-02 0.100000000000D+01
-.524044616498D-04 0.000000000000D+00 0.000000000000D+00 0.259960869296D-04 0.000000000000D+00  6 -1 2 25 24 1 -1 4 0.12598647D-01 0.19199618D+00 0.18642582D+05 0.18642582D+05 0.18642582D+05 0.12372007D+01  1  2  5  6  6  5       21 -.112850834778D-01 0.100000000000D+01
0.183964376852D-05 0.000000000000D+00 0.000000000000D+00 0.259960869296D-04 0.892700181631D-05  6 -1 2 25 24 1 -1 4 0.12598647D-01 0.19199618D+00 0.18747891D+05 0.18747891D+05 0.18747891D+05 0.12369292D+01  1  2 11  6  6  5       21 0.395796160832D-03 0.100000000000D+01
0.125734696556D-04 0.000000000000D+00 0.000000000000D+00 0.259846780361D-04 0.000000000000D+00  6 -1 2 25 24 2 -2 4 0.12598647D-01 0.19199618D+00 0.18747891D+05 0.18747891D+05 0.18747891D+05 0.12369292D+01  1  2 12  7  6  5       21 0.270516015285D-02 0.100000000000D+01
0.156526429888D-04 0.000000000000D+00 0.000000000000D+00 0.259846780361D-04 0.000000000000D+00  6 -1 2 25 24 2 -2 4 0.12598647D-01 0.19199618D+00 0.18747891D+05 0.18747891D+05 0.18747891D+05 0.12369292D+01  1  2 12  7  6  5       21 0.336763894611D-02 0.100000000000D+01
-.524044616498D-04 0.000000000000D+00 0.000000000000D+00 0.259960869296D-04 0.000000000000D+00  6 -1 2 25 24 2 -2 4 0.12598647D-01 0.19199618D+00 0.18642582D+05 0.18642582D+05 0.18642582D+05 0.12372007D+01  1  2  5  7  6  5       21 -.112850834778D-01 0.100000000000D+01
0.220655201701D-04 0.000000000000D+00 0.000000000000D+00 0.259960869296D-04 0.896214748794D-07  6 -1 2 25 24 2 -2 4 0.12598647D-01 0.19199618D+00 0.18747891D+05 0.18747891D+05 0.18747891D+05 0.12369292D+01  1  2 11  7  6  5       21 0.474735833076D-02 0.100000000000D+01
0.125734696556D-04 0.000000000000D+00 0.000000000000D+00 0.259846780361D-04 0.000000000000D+00  6 -1 2 25 24 3 -3 4 0.12598647D-01 0.19199618D+00 0.18747891D+05 0.18747891D+05 0.18747891D+05 0.12369292D+01  1  2 12  8  6  5       21 0.270516015285D-02 0.100000000000D+01
0.125734696556D-04 0.000000000000D+00 0.000000000000D+00 0.259846780361D-04 0.000000000000D+00  6 -1 2 25 24 4 -4 4 0.12598647D-01 0.19199618D+00 0.18747891D+05 0.18747891D+05 0.18747891D+05 0.12369292D+01  1  2 12  8  6  5       21 0.270516015285D-02 0.100000000000D+01
0.156526429888D-04 0.000000000000D+00 0.000000000000D+00 0.259846780361D-04 0.000000000000D+00  6 -1 2 25 24 3 -3 4 0.12598647D-01 0.19199618D+00 0.18747891D+05 0.18747891D+05 0.18747891D+05 0.12369292D+01  1  2 12  8  6  5       21 0.336763894611D-02 0.100000000000D+01
0.156526429888D-04 0.000000000000D+00 0.000000000000D+00 0.259846780361D-04 0.000000000000D+00  6 -1 2 25 24 4 -4 4 0.12598647D-01 0.19199618D+00 0.18747891D+05 0.18747891D+05 0.18747891D+05 0.12369292D+01  1  2 12  8  6  5       21 0.336763894611D-02 0.100000000000D+01
-.524044616498D-04 0.000000000000D+00 0.000000000000D+00 0.259960869296D-04 0.000000000000D+00  6 -1 2 25 24 3 -3 4 0.12598647D-01 0.19199618D+00 0.18642582D+05 0.18642582D+05 0.18642582D+05 0.12372007D+01  1  2  5  8  6  5       21 -.112850834778D-01 0.100000000000D+01
-.524044616498D-04 0.000000000000D+00 0.000000000000D+00 0.259960869296D-04 0.000000000000D+00  6 -1 2 25 24 4 -4 4 0.12598647D-01 0.19199618D+00 0.18642582D+05 0.18642582D+05 0.18642582D+05 0.12372007D+01  1  2  5  8  6  5       21 -.112850834778D-01 0.100000000000D+01
0.220651118421D-04 0.000000000000D+00 0.000000000000D+00 0.259960869296D-04 0.896164011512D-07  6 -1 2 25 24 3 -3 4 0.12598647D-01 0.19199618D+00 0.18747891D+05 0.18747891D+05 0.18747891D+05 0.12369292D+01  1  2 11  8  6  5       21 0.474727047970D-02 0.100000000000D+01
0.220651118421D-04 0.000000000000D+00 0.000000000000D+00 0.259960869296D-04 0.896164011512D-07  6 -1 2 25 24 4 -4 4 0.12598647D-01 0.19199618D+00 0.18747891D+05 0.18747891D+05 0.18747891D+05 0.12369292D+01  1  2 11  8  6  5       21 0.474727047970D-02 0.100000000000D+01
  </mgrwgt>
  </event>
  <event>
  5     66 0.43535451E-03 0.46458564E+02 0.75467711E-02 0.12227836E+00
       -1 -1    0    0    0  501 0.00000000E+00 0.00000000E+00 0.38812225E+02 0.38813544E+02 0.32000000E+00 0.0000E+00 0.9000E+01
        2 -1    0    0  502    0 0.00000000E+00 0.00000000E+00 -.47806002E+03 0.47806013E+03 0.32000000E+00 0.0000E+00 0.9000E+01
       25  1    1    2    0    0 0.11313268E+02 0.47764232E+02 -.18169030E+03 0.22593312E+03 0.12500000E+03 0.0000E+00 0.9000E+01
       24  1    1    2    0    0 0.23810297E+02 -.17361026E+02 -.13504986E+03 0.15991878E+03 0.80419002E+02 0.0000E+00 0.9000E+01
       21  1    1    2  502  501 -.35123565E+02 -.30403206E+02 -.12250764E+03 0.13102177E+03 0.75000000E+00 0.0000E+00 0.9000E+01
#aMCatNLO 1  0  0  1  5 0.13317734D+02 0.00000000D+00  -5  6  0 0.00000000D+00 0.00000000D+00 0.00000000D+00 0.00000000D+00 0.00000000D+00
  <mgrwgt>
 0.3822624665D-02    1    2    0
 0.136216524392989D+03 0.000000000000000D+00 0.000000000000000D+00 0.136216524392989D+03
 0.136216524392989D+03 0.000000000000000D+00 0.000000000000000D+00 -.136216524392989D+03
 0.135710643800348D+03 0.113151555547978D+02 0.477658663608338D+02 0.195644602857966D+02
 0.856632137207999D+02 0.238114887380755D+02 -.173599947325390D+02 0.161673051793721D+01
 0.510591912648307D+02 -.351266442928733D+02 -.304058716282947D+02 -.211811908037338D+02
 0.000000000000000D+00 0.000000000000000D+00 -.000000000000000D+00 -.000000000000000D+00
 0.145813963711901D+03 0.000000000000000D+00 0.000000000000000D+00 0.145813963711901D+03
 0.167258915612930D+03 0.000000000000000D+00 0.000000000000000D+00 -.167258915612930D+03
 0.139689788056251D+03 -.222605168417749D+00 0.592065809506419D+02 0.195644602857966D+02
 0.828121769466742D+02 0.167532981166326D+02 -.103611717930143D+02 0.161673051793721D+01
 0.518343305075202D+02 -.394373159435137D+02 -.261314577945843D+02 -.211811908037338D+02
 0.387365838143856D+02 0.229066229952989D+02 -.227139513630433D+02 -.214449519010295D+02
0.169594797554D-05 0.000000000000D+00 0.000000000000D+00 0.124058347452D-04 0.000000000000D+00  6 -1 2 25 24 21 21 4 0.59712212D-02 0.73547805D-01 0.17742177D+05 0.17742177D+05 0.17742177D+05 0.12395948D+01  1  2 14  1  6  1       -1 0.382262466520D-02 0.100000000000D+01
  </mgrwgt>
  </event>
  <event>
  5     66 -.43535451E-03 0.24298927E+02 0.75467711E-02 0.11573593E+00
       -1 -1    0    0    0  501 0.00000000E+00 0.00000000E+00 0.54238830E+02 0.54239774E+02 0.32000000E+00 0.0000E+00 0.9000E+01
        2 -1    0    0  502    0 0.00000000E+00 0.00000000E+00 -.84681784E+03 0.84681790E+03 0.32000000E+00 0.0000E+00 0.9000E+01
       25  1    1    2    0    0 -.61208134E+02 -.40152449E+02 -.70089039E+03 0.71570314E+03 0.12500000E+03 0.0000E+00 0.9000E+01
       24  1    1    2    0    0 0.43728400E+02 0.57030577E+02 -.11065592E+03 0.15452057E+03 0.80419002E+02 0.0000E+00 0.9000E+01
       21  1    1    2  502  501 0.17479734E+02 -.16878128E+02 0.18967293E+02 0.30833959E+02 0.75000000E+00 0.0000E+00 0.9000E+01
#aMCatNLO 1  0  0  1  5 0.13317734D+02 0.00000000D+00  -5  6  0 0.00000000D+00 0.00000000D+00 0.00000000D+00 0.00000000D+00 0.00000000D+00
  <mgrwgt>
 -.3994953006D+00    5    4    0
 0.214314865372221D+03 0.000000000000000D+00 0.000000000000000D+00 0.214314865372221D+03
 0.214314865372221D+03 0.000000000000000D+00 0.000000000000000D+00 -.214314865372221D+03
 0.208523150287738D+03 -.612083732435803D+02 -.401522170592735D+02 -.149994128938509D+03
 0.120216234321844D+03 0.437282618464398D+02 0.570307103796610D+02 0.531042769429591D+02
 0.998903461348608D+02 0.174801113971404D+02 -.168784933203875D+02 0.968898519955495D+02
 0.000000000000000D+00 -.000000000000000D+00 -.000000000000000D+00 0.000000000000000D+00
 0.228535943367982D+04 0.000000000000000D+00 0.000000000000000D+00 0.228535943367982D+04
 0.219718203035288D+03 0.000000000000000D+00 0.000000000000000D+00 -.219718203035288D+03
 0.199680649672683D+03 -.198876524693467D+02 -.367913633471400D+02 -.149994128938509D+03
 0.132616003101133D+03 0.693213853947570D+02 0.591123474535256D+02 0.531042769429591D+02
 0.105267374420217D+03 0.382473479749395D+02 -.151893736042868D+02 0.968898519955495D+02
 0.206751360952108D+04 -.876810809003498D+02 -.713161050209878D+01 0.206564123064453D+04
 0.214314865372221D+03 0.000000000000000D+00 0.000000000000000D+00 0.214314865372221D+03
 0.214314865372221D+03 0.000000000000000D+00 0.000000000000000D+00 -.214314865372221D+03
 0.208523150287738D+03 -.612083732435803D+02 -.401522170592735D+02 -.149994128938509D+03
 0.120216234321844D+03 0.437282618464398D+02 0.570307103796610D+02 0.531042769429591D+02
 0.000000000000000D+00 -.000000000000000D+00 -.000000000000000D+00 0.000000000000000D+00
 0.998903461348608D+02 0.174801113971404D+02 -.168784933203875D+02 0.968898519955495D+02
 0.228535943367982D+04 0.000000000000000D+00 0.000000000000000D+00 0.228535943367982D+04
 0.219718203035288D+03 0.000000000000000D+00 0.000000000000000D+00 -.219718203035288D+03
 0.199680649672683D+03 -.198876524693467D+02 -.367913633471400D+02 -.149994128938509D+03
 0.132616003101133D+03 0.693213853947570D+02 0.591123474535256D+02 0.531042769429591D+02
 0.206751360952108D+04 -.876810809003498D+02 -.713161050209878D+01 0.206564123064453D+04
 0.105267374420217D+03 0.382473479749395D+02 -.151893736042868D+02 0.968898519955495D+02
0.908978688281D-04 0.000000000000D+00 0.000000000000D+00 0.264613513062D-04 0.000000000000D+00  6 -1 2 25 24 21 21 2 0.83445127D-02 0.13027974D+00 0.19183290D+05 0.19183290D+05 0.19183290D+05 0.12358244D+01  1  2  2  1  6  1       -1 0.413139017663D-01 0.100000000000D+01
0.118106343628D-04 0.479681232304D-05 -.349071750259D-06 0.264613513062D-04 0.000000000000D+00  6 -1 2 25 24 21 21 4 0.83445127D-02 0.13027974D+00 0.19183290D+05 0.19183290D+05 0.19183290D+05 0.12358244D+01  1  2  3  1  6  1       -1 0.819840375322D-02 0.100000000000D+01
0.339145485659D-05 0.000000000000D+00 0.000000000000D+00 0.264613513062D-04 0.000000000000D+00  6 -1 2 25 24 21 21 4 0.83445127D-02 0.13027974D+00 0.19183290D+05 0.19183290D+05 0.19183290D+05 0.12358244D+01  1  2 15  1  6  1       -1 0.235419329487D-02 0.100000000000D+01
-.105994004207D-01 0.000000000000D+00 -.103858353845D-03 0.264613513062D-04 0.000000000000D+00  6 -1 2 25 24 21 21 4 0.89411719D-01 0.13027974D+00 0.19183290D+05 0.19183290D+05 0.19183290D+05 0.12358244D+01  1  2  5  1  6  1       -1 -.127649364958D+00 0.100000000000D+01
-.298585838424D-02 0.000000000000D+00 -.290827830247D-04 0.264613513062D-04 0.000000000000D+00  6 21 2 25 24 1 21 4 0.89411719D-01 0.13027974D+00 0.19183290D+05 0.19183290D+05 0.19183290D+05 0.12358244D+01  3  4  5  4  5  1       -1 -.323712434474D+00 0.100000000000D+01
  </mgrwgt>
  </event>
  <event>
  5     66 0.43535451E-03 0.21884640E+02 0.75467711E-02 0.10806377E+00
       -1 -1    0    0    0  501 0.00000000E+00 0.00000000E+00 0.39313182E+02 0.39314484E+02 0.32000000E+00 0.0000E+00 0.9000E+01
        2 -1    0    0  502    0 0.00000000E+00 0.00000000E+00 -.20981582E+04 0.20981582E+04 0.32000000E+00 0.0000E+00 0.9000E+01
       25  1    1    2    0    0 0.13471007E+03 0.16673169E+03 -.95887131E+03 0.99045719E+03 0.12500000E+03 0.0000E+00 0.9000E+01
       24  1    1    2    0    0 -.13766503E+03 -.14504801E+03 -.11039204E+04 0.11247657E+04 0.80419002E+02 0.0000E+00 0.9000E+01
       21  1    1    2  502  501 0.29549574E+01 -.21683677E+02 0.39466622E+01 0.22249770E+02 0.75000000E+00 0.0000E+00 0.9000E+01
#aMCatNLO 1  0  0  1  2 0.13192577D+03 0.00000000D+00  -5  6  0 0.00000000D+00 0.00000000D+00 0.00000000D+00 0.00000000D+00 0.00000000D+00
  <mgrwgt>
 0.1899634985D+01    3    2    0
 0.287204964635254D+03 0.000000000000000D+00 0.000000000000000D+00 0.287204964635254D+03
 0.287204964635254D+03 0.000000000000000D+00 0.000000000000000D+00 -.287204964635254D+03
 0.248790862225640D+03 0.134710030179475D+03 0.166731968544246D+03 -.180430474527790D+02
 0.228678610586763D+03 -.137665061129401D+03 -.145047751830883D+03 -.763948402614146D+02
 0.969404564581048D+02 0.295503094992551D+01 -.216842167133626D+02 0.944378877141935D+02
 0.000000000000000D+00 0.000000000000000D+00 -.000000000000000D+00 -.000000000000000D+00
 0.306425080179955D+03 0.000000000000000D+00 0.000000000000000D+00 0.306425080179955D+03
 0.665224032774335D+03 0.000000000000000D+00 0.000000000000000D+00 -.665224032774335D+03
 0.276811238720132D+03 0.109422763401048D+03 0.220682054481258D+03 -.180430474527790D+02
 0.217886973145900D+03 -.159149798404218D+03 -.992103178184667D+02 -.763948402614146D+02
 0.946668489861700D+02 -.626339690785207D+01 -.201680941746879D+01 0.944378877141935D+02
 0.382284052102088D+03 0.559904319110217D+02 -.119454927245322D+03 -.358798952594380D+03
0.938568269158D-02 0.000000000000D+00 0.000000000000D+00 0.348302473280D-04 0.000000000000D+00  6 -1 2 25 24 21 21 2 0.60482838D-02 0.32279367D+00 0.58942356D+05 0.58942356D+05 0.58942356D+05 0.11852691D+01  1  2  2  1  6  1       -1 0.131095167378D+01 0.100000000000D+01
0.282460737232D-02 0.495296083126D-03 -.360434928427D-04 0.348302473280D-04 0.000000000000D+00  6 -1 2 25 24 21 21 4 0.60482838D-02 0.32279367D+00 0.58942356D+05 0.58942356D+05 0.58942356D+05 0.11852691D+01  1  2  3  1  6  1       -1 0.554259072545D+00 0.100000000000D+01
0.175432325996D-03 0.000000000000D+00 0.000000000000D+00 0.348302473280D-04 0.000000000000D+00  6 -1 2 25 24 21 21 4 0.60482838D-02 0.32279367D+00 0.58942356D+05 0.58942356D+05 0.58942356D+05 0.11852691D+01  1  2 15  1  6  1       -1 0.344242386584D-01 0.100000000000D+01
  </mgrwgt>
  </event>
  <event>
  5     66 0.43535451E-03 0.10095936E+03 0.75467711E-02 0.10983087E+00
       -1 -1    0    0    0  501 0.00000000E+00 0.00000000E+00 0.26389068E+03 0.26389088E+03 0.32000000E+00 0.0000E+00 0.9000E+01
        2 -1    0    0  502    0 -.00000000E+00 -.00000000E+00 -.62924234E+03 0.62924242E+03 0.32000000E+00 0.0000E+00 0.9000E+01
       25  1    1    2    0    0 0.72128414E+02 0.15599187E+03 0.15670129E+03 0.26403838E+03 0.12500000E+03 0.0000E+00 0.9000E+01
       24  1    1    2    0    0 0.36057346E+01 -.22275032E+03 -.43710883E+03 0.49715395E+03 0.80419002E+02 0.0000E+00 0.9000E+01
       21  1    1    2  502  501 -.75734148E+02 0.66758455E+02 -.84944116E+02 0.13194096E+03 0.75000000E+00 0.0000E+00 0.9000E+01
#aMCatNLO 1  0  0  5  2 0.18245479D+02 0.00000000D+00  -5  6  0 0.00000000D+00 0.00000000D+00 0.00000000D+00 0.00000000D+00 0.00000000D+00
  <mgrwgt>
 0.1429966594D+00    4    2    0
 0.407493941218173D+03 0.000000000000000D+00 0.000000000000000D+00 0.407493941218173D+03
 0.407493941218173D+03 -.000000000000000D+00 -.000000000000000D+00 -.407493941218173D+03
 0.359603707259543D+03 0.721292421709628D+02 0.155991134988540D+03 0.290093027326815D+03
 0.348872023701280D+03 0.360653833112485D+01 -.222751028422602D+03 -.256151215466558D+03
 0.106512151475523D+03 -.757357805020877D+02 0.667598934340618D+02 -.339418118602574D+02
 0.000000000000000D+00 0.000000000000000D+00 -.000000000000000D+00 0.000000000000000D+00
 0.407493941218173D+03 0.000000000000000D+00 0.000000000000000D+00 0.407493941218173D+03
 0.407493941218173D+03 -.000000000000000D+00 -.000000000000000D+00 -.407493941218173D+03
 0.357350717983297D+03 0.553001628339747D+02 0.170825702423938D+03 0.282550892805317D+03
 0.345630895144304D+03 -.126955365421328D+02 -.208381007092159D+03 -.263457167218976D+03
 0.836450315235743D+02 -.465334204059950D+02 0.651922513855464D+02 -.241060665224004D+02
 0.283612377851706D+02 0.392879411415303D+01 -.276369467173256D+02 0.501234093605862D+01
0.571981227079D-02 0.000000000000D+00 0.000000000000D+00 0.611625463942D-06 0.000000000000D+00  6 -1 2 25 24 21 21 2 0.40598588D-01 0.96806534D-01 0.75713269D+05 0.75713269D+05 0.75713269D+05 0.11748371D+01  1  2  2  3  6  5       21 0.259717603545D+00 0.100000000000D+01
-.604110483528D-04 0.301842786192D-03 -.219655851810D-04 0.611625463942D-06 0.000000000000D+00  6 -1 2 25 24 21 21 4 0.40598588D-01 0.96806534D-01 0.75713269D+05 0.75713269D+05 0.75713269D+05 0.11748371D+01  1  2  3  3  6  5       21 -.378609336460D-02 0.100000000000D+01
0.226709287781D-03 0.000000000000D+00 0.000000000000D+00 0.611625463942D-06 0.000000000000D+00  6 -1 2 25 24 21 21 4 0.40598588D-01 0.96806534D-01 0.75713269D+05 0.75713269D+05 0.75713269D+05 0.11748371D+01  1  2 15  3  6  5       21 0.142083700510D-01 0.100000000000D+01
-.202870202170D-02 0.000000000000D+00 0.000000000000D+00 0.611625463942D-06 0.000000000000D+00  6 -1 2 25 24 21 21 4 0.40598588D-01 0.96806534D-01 0.75713269D+05 0.75713269D+05 0.75713269D+05 0.11748371D+01  1  2  4  3  6  5       21 -.127143220860D+00 0.100000000000D+01
  </mgrwgt>
  </event>
  <event>
  5     66 -.43535451E-03 0.40158043E+02 0.75467711E-02 0.11485184E+00
       -1 -1    0    0    0  501 0.00000000E+00 0.00000000E+00 0.54782824E+02 0.54783758E+02 0.32000000E+00 0.0000E+00 0.9000E+01
        2 -1    0    0  502    0 0.00000000E+00 0.00000000E+00 -.59145782E+03 0.59145790E+03 0.32000000E+00 0.0000E+00 0.9000E+01
       25  1    1    2    0    0 -.45583943E+01 -.10748080E+03 -.29714744E+03 0.33984482E+03 0.12500000E+03 0.0000E+00 0.9000E+01
       24  1    1    2    0    0 0.42958507E+02 0.11921326E+03 -.19998932E+03 0.25004036E+03 0.80419002E+02 0.0000E+00 0.9000E+01
       21  1    1    2  502  501 -.38400112E+02 -.11732459E+02 -.39538232E+02 0.56356486E+02 0.75000000E+00 0.0000E+00 0.9000E+01
#aMCatNLO 1  0  0  1  1 0.45207070D+02 0.00000000D+00  -5  6  0 0.00000000D+00 0.00000000D+00 0.00000000D+00 0.00000000D+00 0.00000000D+00
  <mgrwgt>
 -.2410604797D+00    5    4    0
 0.180005720515314D+03 0.000000000000000D+00 0.000000000000000D+00 0.180005720515314D+03
 0.180005720515314D+03 0.000000000000000D+00 0.000000000000000D+00 -.180005720515314D+03
 0.167078329939827D+03 -.455558216538652D+01 -.107479941550504D+03 -.267857643332480D+02
 0.150710987535210D+03 0.429610432613653D+02 0.119214034987376D+03 0.137458514975074D+02
 0.422221235555922D+02 -.384054610959788D+02 -.117340934368717D+02 0.130399128357406D+02
 0.000000000000000D+00 -.000000000000000D+00 -.000000000000000D+00 0.000000000000000D+00
 0.646308914124723D+03 0.000000000000000D+00 0.000000000000000D+00 0.646308914124723D+03
 0.182518359604229D+03 0.000000000000000D+00 0.000000000000000D+00 -.182518359604229D+03
 0.157056597866170D+03 0.718461245690861D+01 -.909542693127906D+02 -.267857643332480D+02
 0.167222612239915D+03 0.544766252555431D+02 0.135423539155297D+03 0.137458514975074D+02
 0.385594825575099D+02 -.354795444596914D+02 -.761552974335890D+01 0.130399128357406D+02
 0.465988581065356D+03 -.261816932527603D+02 -.368537400991470D+02 0.463790554520494D+03
 0.180005720515314D+03 0.000000000000000D+00 0.000000000000000D+00 0.180005720515314D+03
 0.180005720515314D+03 0.000000000000000D+00 0.000000000000000D+00 -.180005720515314D+03
 0.167078329939827D+03 -.455558216538652D+01 -.107479941550504D+03 -.267857643332480D+02
 0.150710987535210D+03 0.429610432613653D+02 0.119214034987376D+03 0.137458514975074D+02
 0.000000000000000D+00 -.000000000000000D+00 -.000000000000000D+00 0.000000000000000D+00
 0.422221235555922D+02 -.384054610959788D+02 -.117340934368717D+02 0.130399128357406D+02
 0.646308914124723D+03 0.000000000000000D+00 0.000000000000000D+00 0.646308914124723D+03
 0.182518359604229D+03 0.000000000000000D+00 0.000000000000000D+00 -.182518359604229D+03
 0.157056597866170D+03 0.718461245690861D+01 -.909542693127906D+02 -.267857643332480D+02
 0.167222612239915D+03 0.544766252555431D+02 0.135423539155297D+03 0.137458514975074D+02
 0.465988581065356D+03 -.261816932527603D+02 -.368537400991470D+02 0.463790554520494D+03
 0.385594825575099D+02 -.354795444596914D+02 -.761552974335890D+01 0.130399128357406D+02
0.250948398504D-04 0.000000000000D+00 0.000000000000D+00 0.114915919317D-04 0.000000000000D+00  6 -1 2 25 24 21 21 2 0.84282053D-02 0.90993589D-01 0.31534317D+05 0.31534317D+05 0.31534317D+05 0.12126314D+01  1  2  2  1  6  1       -1 0.167899368751D-01 0.100000000000D+01
0.290291059307D-05 0.132429108175D-05 -.963707926485D-07 0.114915919317D-04 0.000000000000D+00  6 -1 2 25 24 21 21 4 0.84282053D-02 0.90993589D-01 0.31534317D+05 0.31534317D+05 0.31534317D+05 0.12126314D+01  1  2  3  1  6  1       -1 0.285598508147D-02 0.100000000000D+01
0.371664445117D-06 0.000000000000D+00 0.000000000000D+00 0.114915919317D-04 0.000000000000D+00  6 -1 2 25 24 21 21 4 0.84282053D-02 0.90993589D-01 0.31534317D+05 0.31534317D+05 0.31534317D+05 0.12126314D+01  1  2 15  1  6  1       -1 0.365656494245D-03 0.100000000000D+01
-.754966354920D-03 0.000000000000D+00 -.129301559676D-04 0.114915919317D-04 0.000000000000D+00  6 -1 2 25 24 21 21 4 0.30425094D-01 0.90993589D-01 0.31534317D+05 0.31534317D+05 0.31534317D+05 0.12126314D+01  1  2  5  1  6  1       -1 -.961087961760D-01 0.100000000000D+01
-.113596794896D-03 0.000000000000D+00 -.195165804510D-05 0.114915919317D-04 0.000000000000D+00  6 21 2 25 24 1 21 4 0.30425094D-01 0.90993589D-01 0.31534317D+05 0.31534317D+05 0.31534317D+05 0.12126314D+01  3  4  5  4  5  1       -1 -.164963261946D+00 0.100000000000D+01
  </mgrwgt>
  </event>
  <event>
  5     66 -.43535451E-03 0.80267218E+02 0.75467711E-02 0.11906084E+00
       -1 -1    0    0    0  501 0.00000000E+00 0.00000000E+00 0.48646112E+03 0.48646123E+03 0.32000000E+00 0.0000E+00 0.9000E+01
        2 -1    0    0  502    0 0.00000000E+00 0.00000000E+00 -.41040633E+03 0.41040646E+03 0.32000000E+00 0.0000E+00 0.9000E+01
       25  1    1    2    0    0 -.87518774E+00 -.81903218E+02 0.19078960E+03 0.24235217E+03 0.12500000E+03 0.0000E+00 0.9000E+01
       24  1    1    2    0    0 -.12639645E+02 -.27599330E+01 0.25877499E+03 0.27129152E+03 0.80419002E+02 0.0000E+00 0.9000E+01
       21  1    1    2  502  501 0.13514832E+02 0.84663151E+02 -.37350980E+03 0.38322399E+03 0.75000000E+00 0.0000E+00 0.9000E+01
#aMCatNLO 1  0  0  5  2 0.43921346D+01 0.00000000D+00  -5  6  0 0.00000000D+00 0.00000000D+00 0.00000000D+00 0.00000000D+00 0.00000000D+00
  <mgrwgt>
 -.6578524384D+00   25    2    0
 0.446818563084049D+03 0.000000000000000D+00 0.000000000000000D+00 0.446818563084049D+03
 0.446818563084049D+03 -.000000000000000D+00 -.000000000000000D+00 -.446818563084049D+03
 0.226990892387295D+03 -.875193312515710D+00 -.819032528824245D+02 0.170853611114088D+03
 0.250248867427659D+03 -.126396508129623D+02 -.275997148371517D+01 0.236621853342397D+03
 0.416397366353145D+03 0.135148441254780D+02 0.846632243661396D+02 -.407475464456485D+03
 0.000000000000000D+00 0.000000000000000D+00 0.000000000000000D+00 -.000000000000000D+00
 0.446818563084049D+03 0.000000000000000D+00 0.000000000000000D+00 0.446818563084049D+03
 0.446818563084049D+03 -.000000000000000D+00 -.000000000000000D+00 -.446818563084049D+03
 0.226970954411870D+03 -.874394431547573D+00 -.818982483231400D+02 0.170829524680644D+03
 0.250223654063919D+03 -.126387700826205D+02 -.275445418215835D+01 0.236595299132688D+03
 0.251787828421798D+03 0.964205483852696D+01 0.552284153801694D+02 -.245466827604976D+03
 0.164654689270512D+03 0.387110967564110D+01 0.294242871251288D+02 -.161957996208356D+03
0.893843205411D-04 0.000000000000D+00 0.000000000000D+00 0.210197551762D-04 0.000000000000D+00  6 -1 2 25 24 21 21 2 0.74840191D-01 0.63139453D-01 0.25064191D+05 0.25064191D+05 0.25064191D+05 0.12231783D+01  1  2  2  3  6  5       21 0.227661400397D-02 0.100000000000D+01
0.481412901997D-05 0.471694018557D-05 -.343259326310D-06 0.210197551762D-04 0.000000000000D+00  6 -1 2 25 24 21 21 4 0.74840191D-01 0.63139453D-01 0.25064191D+05 0.25064191D+05 0.25064191D+05 0.12231783D+01  1  2  3  3  6  5       21 0.183453200350D-03 0.100000000000D+01
0.340953393825D-05 0.000000000000D+00 0.000000000000D+00 0.210197551762D-04 0.000000000000D+00  6 -1 2 25 24 21 21 4 0.74840191D-01 0.63139453D-01 0.25064191D+05 0.25064191D+05 0.25064191D+05 0.12231783D+01  1  2 15  3  6  5       21 0.129927949600D-03 0.100000000000D+01
0.508027266187D-02 0.000000000000D+00 0.000000000000D+00 0.210197206632D-04 0.000000000000D+00  6 -1 2 25 24 21 21 4 0.74840191D-01 0.63139453D-01 0.25064732D+05 0.25064732D+05 0.25064732D+05 0.12231773D+01  1  2 12  3  6  5       21 0.193594494526D+00 0.100000000000D+01
0.502177444009D-02 0.000000000000D+00 0.000000000000D+00 0.210197206632D-04 0.000000000000D+00  6 -1 2 25 24 21 21 4 0.74840191D-01 0.63139453D-01 0.25064732D+05 0.25064732D+05 0.25064732D+05 0.12231773D+01  1  2 12  3  6  5       21 0.191365296522D+00 0.100000000000D+01
-.100255719482D+00 0.000000000000D+00 0.000000000000D+00 0.210197551762D-04 0.000000000000D+00  6 -1 2 25 24 21 21 4 0.74840191D-01 0.63139453D-01 0.25064191D+05 0.25064191D+05 0.25064191D+05 0.12231783D+01  1  2  4  3  6  5       21 -.382046939667D+01 0.100000000000D+01
-.539350597240D-01 0.000000000000D+00 0.000000000000D+00 0.210197551762D-04 0.000000000000D+00  6 -1 2 25 24 21 21 4 0.74840191D-01 0.63139453D-01 0.25064191D+05 0.25064191D+05 0.25064191D+05 0.12231783D+01  1  2  5  3  6  5       21 -.205531660585D+01 0.100000000000D+01
0.790678178721D-01 0.000000000000D+00 -.000000000000D+00 0.210197551762D-04 0.000000000000D+00  6 -1 2 25 24 21 21 4 0.74840191D-01 0.63139453D-01 0.25064191D+05 0.25064191D+05 0.25064191D+05 0.12231783D+01  1  2  6  3  6  5       21 0.301305681115D+01 0.100000000000D+01
0.475417296234D-01 0.000000000000D+00 0.000000000000D+00 0.210197551762D-04 0.626831681527D-05  6 -1 2 25 24 21 21 4 0.74840191D-01 0.63139453D-01 0.25064732D+05 0.25064732D+05 0.25064732D+05 0.12231773D+01  1  2 11  3  6  5       21 0.181167778344D+01 0.100000000000D+01
0.114521736609D-03 0.000000000000D+00 0.000000000000D+00 0.210197206632D-04 0.000000000000D+00  6 -1 2 25 24 1 -1 4 0.74840191D-01 0.63139453D-01 0.25064732D+05 0.25064732D+05 0.25064732D+05 0.12231773D+01  1  2 12  6  6  5       21 0.436409208457D-02 0.100000000000D+01
0.113250280150D-03 0.000000000000D+00 0.000000000000D+00 0.210197206632D-04 0.000000000000D+00  6 -1 2 25 24 1 -1 4 0.74840191D-01 0.63139453D-01 0.25064732D+05 0.25064732D+05 0.25064732D+05 0.12231773D+01  1  2 12  6  6  5       21 0.431564055707D-02 0.100000000000D+01
-.121418346167D-02 0.000000000000D+00 0.000000000000D+00 0.210197551762D-04 0.000000000000D+00  6 -1 2 25 24 1 -1 4 0.74840191D-01 0.63139453D-01 0.25064191D+05 0.25064191D+05 0.25064191D+05 0.12231783D+01  1  2  5  6  6  5       21 -.462691882439D-01 0.100000000000D+01
0.990920542423D-03 0.000000000000D+00 0.000000000000D+00 0.210197551762D-04 0.182577258892D-06  6 -1 2 25 24 1 -1 4 0.74840191D-01 0.63139453D-01 0.25064732D+05 0.25064732D+05 0.25064732D+05 0.12231773D+01  1  2 11  6  6  5       21 0.377611152578D-01 0.100000000000D+01
0.114521736609D-03 0.000000000000D+00 0.000000000000D+00 0.210197206632D-04 0.000000000000D+00  6 -1 2 25 24 2 -2 4 0.74840191D-01 0.63139453D-01 0.25064732D+05 0.25064732D+05 0.25064732D+05 0.12231773D+01  1  2 12  7  6  5       21 0.436409208457D-02 0.100000000000D+01
0.113250280150D-03 0.000000000000D+00 0.000000000000D+00 0.210197206632D-04 0.000000000000D+00  6 -1 2 25 24 2 -2 4 0.74840191D-01 0.63139453D-01 0.25064732D+05 0.25064732D+05 0.25064732D+05 0.12231773D+01  1  2 12  7  6  5       21 0.431564055707D-02 0.100000000000D+01
-.121418346167D-02 0.000000000000D+00 0.000000000000D+00 0.210197551762D-04 0.000000000000D+00  6 -1 2 25 24 2 -2 4 0.74840191D-01 0.63139453D-01 0.25064191D+05 0.25064191D+05 0.25064191D+05 0.12231783D+01  1  2  5  7  6  5       21 -.462691882439D-01 0.100000000000D+01
0.112324029675D-02 0.000000000000D+00 0.000000000000D+00 0.210197551762D-04 0.207309629193D-06  6 -1 2 25 24 2 -2 4 0.74840191D-01 0.63139453D-01 0.25064732D+05 0.25064732D+05 0.25064732D+05 0.12231773D+01  1  2 11  7  6  5       21 0.428034383102D-01 0.100000000000D+01
0.114521736609D-03 0.000000000000D+00 0.000000000000D+00 0.210197206632D-04 0.000000000000D+00  6 -1 2 25 24 3 -3 4 0.74840191D-01 0.63139453D-01 0.25064732D+05 0.25064732D+05 0.25064732D+05 0.12231773D+01  1  2 12  8  6  5       21 0.436409208457D-02 0.100000000000D+01
0.114521736609D-03 0.000000000000D+00 0.000000000000D+00 0.210197206632D-04 0.000000000000D+00  6 -1 2 25 24 4 -4 4 0.74840191D-01 0.63139453D-01 0.25064732D+05 0.25064732D+05 0.25064732D+05 0.12231773D+01  1  2 12  8  6  5       21 0.436409208457D-02 0.100000000000D+01
0.113250280150D-03 0.000000000000D+00 0.000000000000D+00 0.210197206632D-04 0.000000000000D+00  6 -1 2 25 24 3 -3 4 0.74840191D-01 0.63139453D-01 0.25064732D+05 0.25064732D+05 0.25064732D+05 0.12231773D+01  1  2 12  8  6  5       21 0.431564055707D-02 0.100000000000D+01
0.113250280150D-03 0.000000000000D+00 0.000000000000D+00 0.210197206632D-04 0.000000000000D+00  6 -1 2 25 24 4 -4 4 0.74840191D-01 0.63139453D-01 0.25064732D+05 0.25064732D+05 0.25064732D+05 0.12231773D+01  1  2 12  8  6  5       21 0.431564055707D-02 0.100000000000D+01
-.121418346167D-02 0.000000000000D+00 0.000000000000D+00 0.210197551762D-04 0.000000000000D+00  6 -1 2 25 24 3 -3 4 0.74840191D-01 0.63139453D-01 0.25064191D+05 0.25064191D+05 0.25064191D+05 0.12231783D+01  1  2  5  8  6  5       21 -.462691882439D-01 0.100000000000D+01
-.121418346167D-02 0.000000000000D+00 0.000000000000D+00 0.210197551762D-04 0.000000000000D+00  6 -1 2 25 24 4 -4 4 0.74840191D-01 0.63139453D-01 0.25064191D+05 0.25064191D+05 0.25064191D+05 0.12231783D+01  1  2  5  8  6  5       21 -.462691882439D-01 0.100000000000D+01
0.989873777180D-03 0.000000000000D+00 0.000000000000D+00 0.210197551762D-04 0.182383553770D-06  6 -1 2 25 24 3 -3 4 0.74840191D-01 0.63139453D-01 0.25064732D+05 0.25064732D+05 0.25064732D+05 0.12231773D+01  1  2 11  8  6  5       21 0.377212260626D-01 0.100000000000D+01
0.989873777180D-03 0.000000000000D+00 0.000000000000D+00 0.210197551762D-04 0.182383553770D-06  6 -1 2 25 24 4 -4 4 0.74840191D-01 0.63139453D-01 0.25064732D+05 0.25064732D+05 0.25064732D+05 0.12231773D+01  1  2 11  8  6  5       21 0.377212260626D-01 0.100000000000D+01
  </mgrwgt>
  </event>
  <event>
  5     66 0.43535451E-03 0.42105618E+02 0.75467711E-02 0.11548249E+00
       -3 -1    0    0    0  501 0.00000000E+00 0.00000000E+00 0.65764516E+03 0.65764535E+03 0.50000000E+00 0.0000E+00 0.9000E+01
        4 -1    0    0  502    0 0.00000000E+00 0.00000000E+00 -.35685935E+02 0.35719581E+02 0.15500000E+01 0.0000E+00 0.9000E+01
       25  1    1    2    0    0 0.11816872E+02 -.67960578E+02 0.20755122E+03 0.25191425E+03 0.12500000E+03 0.0000E+00 0.9000E+01
       24  1    1    2    0    0 0.26417016E+02 0.50330384E+02 0.19981382E+03 0.22276397E+03 0.80419002E+02 0.0000E+00 0.9000E+01
       21  1    1    2  502  501 -.38233888E+02 0.17630194E+02 0.21459418E+03 0.21868671E+03 0.75000000E+00 0.0000E+00 0.9000E+01
#aMCatNLO 1  0  0  1  1 0.98489070D+03 0.00000000D+00  -5  6  0 0.00000000D+00 0.00000000D+00 0.00000000D+00 0.00000000D+00 0.00000000D+00
  <mgrwgt>
 0.4236710002D-01    7    4    0
 0.153233196250140D+03 0.000000000000000D+00 0.000000000000000D+00 0.153233196250140D+03
 0.153233196250140D+03 0.000000000000000D+00 0.000000000000000D+00 -.153233196250140D+03
 0.148728801787081D+03 0.118183585970284D+02 -.679612637331282D+02 -.416755265460318D+02
 0.984795868468808D+02 0.264180000631000D+02 0.503299303475521D+02 -.213316291503212D-01
 0.592580038663180D+02 -.382363586601284D+02 0.176313333855760D+02 0.416968581751821D+02
 0.000000000000000D+00 -.000000000000000D+00 -.000000000000000D+00 0.000000000000000D+00
 0.219470737799682D+03 0.000000000000000D+00 0.000000000000000D+00 0.219470737799682D+03
 0.195070118916379D+03 0.000000000000000D+00 0.000000000000000D+00 -.195070118916379D+03
 0.140071312707946D+03 0.346752144875764D+02 -.324923472694525D+02 -.416755265460318D+02
 0.119680897544710D+03 0.436841384836808D+02 0.771232576635411D+02 -.213316291503212D-01
 0.600840340174251D+02 -.287911277731441D+02 0.322882970079924D+02 0.416968581751821D+02
 0.947046124459808D+02 -.495682251981132D+02 -.769192074020810D+02 0.244006188833031D+02
 0.153233196250140D+03 0.000000000000000D+00 0.000000000000000D+00 0.153233196250140D+03
 0.153233196250140D+03 0.000000000000000D+00 0.000000000000000D+00 -.153233196250140D+03
 0.148728801787081D+03 0.118183585970284D+02 -.679612637331282D+02 -.416755265460318D+02
 0.984795868468808D+02 0.264180000631000D+02 0.503299303475521D+02 -.213316291503212D-01
 0.000000000000000D+00 -.000000000000000D+00 -.000000000000000D+00 0.000000000000000D+00
 0.592580038663180D+02 -.382363586601284D+02 0.176313333855760D+02 0.416968581751821D+02
 0.219470737799682D+03 0.000000000000000D+00 0.000000000000000D+00 0.219470737799682D+03
 0.195070118916379D+03 0.000000000000000D+00 0.000000000000000D+00 -.195070118916379D+03
 0.140071312707946D+03 0.346752144875764D+02 -.324923472694525D+02 -.416755265460318D+02
 0.119680897544710D+03 0.436841384836808D+02 0.771232576635411D+02 -.213316291503212D-01
 0.947046124459808D+02 -.495682251981132D+02 -.769192074020810D+02 0.244006188833031D+02
 0.600840340174251D+02 -.287911277731441D+02 0.322882970079924D+02 0.416968581751821D+02
0.429890780042D-03 0.000000000000D+00 0.000000000000D+00 0.136464545913D-04 0.000000000000D+00  6 -3 4 25 24 21 21 2 0.10117878D+00 0.54927466D-02 0.20072609D+05 0.20072609D+05 0.20072609D+05 0.12336528D+01  1  2  2  1  6  1       -3 0.235091176027D-01 0.100000000000D+01
0.129549544219D-04 0.226859597244D-04 -.165089378820D-05 0.136464545913D-04 0.000000000000D+00  6 -3 4 25 24 21 21 4 0.10117878D+00 0.54927466D-02 0.20072609D+05 0.20072609D+05 0.20072609D+05 0.12336528D+01  1  2  3  1  6  1       -3 0.107820166290D-02 0.100000000000D+01
0.211811207737D-04 0.000000000000D+00 0.000000000000D+00 0.136464545913D-04 0.000000000000D+00  6 -3 4 25 24 21 21 4 0.10117878D+00 0.54927466D-02 0.20072609D+05 0.20072609D+05 0.20072609D+05 0.12336528D+01  1  2 15  1  6  1       -3 0.176284060110D-02 0.100000000000D+01
-.719136993123D-04 0.000000000000D+00 0.000000000000D+00 0.136464545913D-04 0.000000000000D+00  6 -3 4 25 24 21 21 4 0.10117878D+00 0.54927466D-02 0.20072609D+05 0.20072609D+05 0.20072609D+05 0.12336528D+01  1  2  4  1  6  1       -3 -.598515962765D-02 0.100000000000D+01
-.314912359630D-03 0.000000000000D+00 -.207416683139D-03 0.136464545913D-04 0.000000000000D+00  6 -3 4 25 24 21 21 4 0.17211219D+00 0.54927466D-02 0.20072609D+05 0.20072609D+05 0.20072609D+05 0.12336528D+01  1  2  5  1  6  1       -3 -.723697754471D-02 0.100000000000D+01
0.394320017295D-03 0.000000000000D+00 0.181234203257D-03 0.136464545913D-04 0.000000000000D+00  6 -3 4 25 24 21 21 4 0.10117878D+00 0.54927466D-02 0.20072609D+05 0.20072609D+05 0.20072609D+05 0.12336528D+01  1  2  6  1  6  1       -3 0.328180620724D-01 0.100000000000D+01
-.864973413344D-05 0.000000000000D+00 -.122795222936D-04 0.136464545913D-04 0.000000000000D+00  6 21 4 25 24 3 21 4 0.17211219D+00 0.54927466D-02 0.20072609D+05 0.20072609D+05 0.20072609D+05 0.12336528D+01  3  4  5  4  5  1       -3 -.357898475062D-02 0.100000000000D+01
  </mgrwgt>
  </event>
  <event>
  5     66 -.43535451E-03 0.21140389E+02 0.75467711E-02 0.12507329E+00
       -1 -1    0    0    0  501 0.00000000E+00 0.00000000E+00 0.10397078E+02 0.10402001E+02 0.32000000E+00 0.0000E+00 0.9000E+01
        2 -1    0    0  502    0 -.00000000E+00 -.00000000E+00 -.14008327E+04 0.14008328E+04 0.32000000E+00 0.0000E+00 0.9000E+01
       25  1    1    2    0    0 -.84993282E+01 0.59095449E+01 -.75746057E+03 0.76777515E+03 0.12500000E+03 0.0000E+00 0.9000E+01
       24  1    1    2    0    0 0.87069602E+00 -.25619334E+02 -.58462783E+03 0.59068945E+03 0.80419002E+02 0.0000E+00 0.9000E+01
       21  1    1    2  502  501 0.76286322E+01 0.19709789E+02 -.48347245E+02 0.52770166E+02 0.75000000E+00 0.0000E+00 0.9000E+01
#aMCatNLO 1  0  0  5  2 0.21745280D+01 0.00000000D+00  -5  6  0 0.00000000D+00 0.00000000D+00 0.00000000D+00 0.00000000D+00 0.00000000D+00
  <mgrwgt>
 -.6375676334D+01    9    2    0
 0.120698246969491D+03 0.000000000000000D+00 0.000000000000000D+00 0.120698246969491D+03
 0.120698246969491D+03 -.000000000000000D+00 -.000000000000000D+00 -.120698246969491D+03
 0.125564469177117D+03 -.850056697694520D+01 0.590634435850295D+01 -.585588397430480D+01
 0.858105518054562D+02 0.869849450094920D+00 -.256215209675878D+02 -.154601381632887D+02
 0.300214729564084D+02 0.763071752685028D+01 0.197151766090848D+02 0.213160221375935D+02
 0.000000000000000D+00 0.000000000000000D+00 0.000000000000000D+00 -.000000000000000D+00
 0.120698246969491D+03 0.000000000000000D+00 0.000000000000000D+00 0.120698246969491D+03
 0.120698246969491D+03 -.000000000000000D+00 -.000000000000000D+00 -.120698246969491D+03
 0.125546934576737D+03 -.819681161431633D+01 0.669114481784543D+01 -.500735878497279D+01
 0.855519050718058D+02 0.107713699041209D+01 -.250859605236537D+02 -.148810909396560D+02
 0.281229476656318D+02 0.689662753034712D+01 0.168673711103980D+02 0.214202825830015D+02
 0.217470662480768D+01 0.223047093557116D+00 0.152744459541026D+01 -.153183285837265D+01
0.275247923332D-03 0.000000000000D+00 0.000000000000D+00 0.611702620058D-04 0.000000000000D+00  6 -1 2 25 24 21 21 2 0.15999320D-02 0.21551311D+00 0.13337317D+05 0.13337317D+05 0.13337317D+05 0.12536815D+01  1  2  2  3  6  5       21 0.691028963275D+00 0.100000000000D+01
0.386502895813D-04 0.145252319725D-04 -.105702450004D-05 0.611702620058D-04 0.000000000000D+00  6 -1 2 25 24 21 21 4 0.15999320D-02 0.21551311D+00 0.13337317D+05 0.13337317D+05 0.13337317D+05 0.12536815D+01  1  2  3  3  6  5       21 0.152510369458D+00 0.100000000000D+01
0.129174933043D-04 0.000000000000D+00 0.000000000000D+00 0.611702620058D-04 0.000000000000D+00  6 -1 2 25 24 21 21 4 0.15999320D-02 0.21551311D+00 0.13337317D+05 0.13337317D+05 0.13337317D+05 0.12536815D+01  1  2 15  3  6  5       21 0.509712009313D-01 0.100000000000D+01
0.101531979593D-06 0.000000000000D+00 0.000000000000D+00 0.612347787860D-04 0.000000000000D+00  6 -1 2 25 24 21 21 4 0.15999320D-02 0.21551311D+00 0.13163117D+05 0.13163117D+05 0.13163117D+05 0.12543424D+01  1  2 12  3  6  5       21 0.401321440774D-03 0.100000000000D+01
-.184259503093D-02 0.000000000000D+00 0.000000000000D+00 0.611702620058D-04 0.000000000000D+00  6 -1 2 25 24 21 21 4 0.15999320D-02 0.21551311D+00 0.13337317D+05 0.13337317D+05 0.13337317D+05 0.12536815D+01  1  2  4  3  6  5       21 -.727070487629D+01 0.100000000000D+01
0.738031225706D-08 0.000000000000D+00 0.000000000000D+00 0.612347787860D-04 0.000000000000D+00  6 -1 2 25 24 1 -1 4 0.15999320D-02 0.21551311D+00 0.13163117D+05 0.13163117D+05 0.13163117D+05 0.12543424D+01  1  2 12  6  6  5       21 0.291718684127D-04 0.100000000000D+01
0.738031225706D-08 0.000000000000D+00 0.000000000000D+00 0.612347787860D-04 0.000000000000D+00  6 -1 2 25 24 2 -2 4 0.15999320D-02 0.21551311D+00 0.13163117D+05 0.13163117D+05 0.13163117D+05 0.12543424D+01  1  2 12  7  6  5       21 0.291718684127D-04 0.100000000000D+01
0.738031225706D-08 0.000000000000D+00 0.000000000000D+00 0.612347787860D-04 0.000000000000D+00  6 -1 2 25 24 3 -3 4 0.15999320D-02 0.21551311D+00 0.13163117D+05 0.13163117D+05 0.13163117D+05 0.12543424D+01  1  2 12  8  6  5       21 0.291718684127D-04 0.100000000000D+01
0.738031225706D-08 0.000000000000D+00 0.000000000000D+00 0.612347787860D-04 0.000000000000D+00  6 -1 2 25 24 4 -4 4 0.15999320D-02 0.21551311D+00 0.13163117D+05 0.13163117D+05 0.13163117D+05 0.12543424D+01  1  2 12  8  6  5       21 0.291718684127D-04 0.100000000000D+01
  </mgrwgt>
  </event>
  <event>
  5     66 -.43535451E-03 0.27638304E+02 0.75467711E-02 0.11331689E+00
       -1 -1    0    0    0  501 0.00000000E+00 0.00000000E+00 0.34121434E+02 0.34122934E+02 0.32000000E+00 0.0000E+00 0.9000E+01
        2 -1    0    0  502    0 -.00000000E+00 -.00000000E+00 -.15522690E+04 0.15522690E+04 0.32000000E+00 0.0000E+00 0.9000E+01
       25  1    1    2    0    0 -.96353673E+02 -.16752513E+03 -.61991265E+03 0.66126045E+03 0.12500000E+03 0.0000E+00 0.9000E+01
       24  1    1    2    0    0 0.82170342E+02 0.14381186E+03 -.84834697E+03 0.86809770E+03 0.80419002E+02 0.0000E+00 0.9000E+01
       21  1    1    2  502  501 0.14183331E+02 0.23713269E+02 -.49887952E+02 0.57033817E+02 0.75000000E+00 0.0000E+00 0.9000E+01
#aMCatNLO 1  0  0  5  2 0.21745280D+01 0.00000000D+00  -5  6  0 0.00000000D+00 0.00000000D+00 0.00000000D+00 0.00000000D+00 0.00000000D+00
  <mgrwgt>
 -.1292725752D+00    1    2    0
 0.230145302465914D+03 0.000000000000000D+00 0.000000000000000D+00 0.230145302465914D+03
 0.230145302465914D+03 -.000000000000000D+00 -.000000000000000D+00 -.230145302465914D+03
 0.234418569333933D+03 -.963556544001279D+02 -.167528442607347D+03 0.444620560843474D+02
 0.193847843526257D+03 0.821687029943453D+02 0.143809120497467D+03 -.606383673541908D+02
 0.320241920716374D+02 0.141869514057825D+02 0.237193221098797D+02 0.161763112698433D+02
 0.000000000000000D+00 -.000000000000000D+00 0.000000000000000D+00 0.000000000000000D+00
 0.230145302465914D+03 0.000000000000000D+00 0.000000000000000D+00 0.230145302465914D+03
 0.230145302465914D+03 -.000000000000000D+00 -.000000000000000D+00 -.230145302465914D+03
 0.232403495299644D+03 -.948951082013487D+02 -.165086539145897D+03 0.461274068182484D+02
 0.195453282929130D+03 0.833867094329895D+02 0.145845519031851D+03 -.592495664260259D+02
 0.665790663140897D+01 0.550023830177833D+01 0.653267984776514D+00 -.369436601817904D+01
 0.257759200716444D+02 0.600816046658091D+01 0.185877521292696D+02 0.168165256259565D+02
-.267649677798D-03 0.000000000000D+00 0.000000000000D+00 0.200221610917D-04 0.000000000000D+00  6 -1 2 25 24 21 21 4 0.52495693D-02 0.23881073D+00 0.48823579D+05 0.48823579D+05 0.48823579D+05 0.11933072D+01  1  2 14  3  6  5       21 -.129272575242D+00 0.100000000000D+01
  </mgrwgt>
  </event>
  <event>
  6     66 0.43535451E-03 0.31982884E+02 0.75467711E-02 0.12249317E+00
       -3 -1    0    0    0  503 0.00000000E+00 0.00000000E+00 0.44422689E+03 0.44422717E+03 0.50000000E+00 0.0000E+00 0.9000E+01
        4 -1    0    0  502    0 0.00000000E+00 0.00000000E+00 -.56244013E+02 0.56265367E+02 0.15500000E+01 0.0000E+00 0.9000E+01
       25  1    1    2    0    0 0.11966992E+01 -.28494954E+02 0.19430740E+03 0.23279553E+03 0.12500000E+03 0.0000E+00 0.9000E+01
       24  1    1    2    0    0 -.21829836E+02 0.11283879E+02 0.20159296E+02 0.86472428E+02 0.80419002E+02 0.0000E+00 0.9000E+01
       21  1    1    2  502  501 0.24783015E+02 0.29281853E+02 0.11188986E+03 0.11828579E+03 0.75000000E+00 0.0000E+00 0.9000E+01
       21  1    1    2  501  503 -.41498784E+01 -.12070777E+02 0.61626317E+02 0.62938785E+02 0.75000000E+00 0.0000E+00 0.9000E+01
#aMCatNLO 2  0  0  1  5 0.12764214D+02 0.00000000D+00  -5  6  0 0.00000000D+00 0.00000000D+00 0.00000000D+00 0.00000000D+00 0.00000000D+00
  <mgrwgt>
 0.3061169336D-01    1    2    0
 0.145586536899675D+03 0.000000000000000D+00 0.000000000000000D+00 0.145586536899675D+03
 0.145586536899675D+03 0.000000000000000D+00 0.000000000000000D+00 -.145586536899675D+03
 0.133206126180667D+03 -.692886376029177D+00 -.339890668023533D+02 0.310344211873675D+02
 0.107193642047861D+03 -.233581893884761D+02 0.684006692021515D+01 -.665647760766420D+02
 0.507733055708224D+02 0.240510757645053D+02 0.271489998821382D+02 0.355303548892744D+02
 0.000000000000000D+00 -.000000000000000D+00 -.000000000000000D+00 0.000000000000000D+00
 0.169482574367223D+03 0.000000000000000D+00 0.000000000000000D+00 0.169482574367223D+03
 0.147440909301224D+03 0.000000000000000D+00 0.000000000000000D+00 -.147440909301224D+03
 0.131915140899576D+03 0.119549730546519D+01 -.284963135565395D+02 0.310344211873675D+02
 0.107247241940819D+03 -.218307877189342D+02 0.112828295644035D+02 -.665647760766420D+02
 0.522903303966730D+02 0.247851688474928D+02 0.292842609542516D+02 0.355303548892744D+02
 0.254707704313789D+02 -.414987843402388D+01 -.120707769621156D+02 0.220416650659992D+02
0.324902782397D-03 0.000000000000D+00 0.000000000000D+00 0.160450180164D-04 0.200798666657D-06  6 -3 4 25 24 21 21 4 0.68341730D-01 0.86542686D-02 0.17349057D+05 0.17349057D+05 0.17349057D+05 0.12406831D+01  1  2  1  1  6  1       -3 0.306116933564D-01 0.100000000000D+01
  </mgrwgt>
  </event>
  <event>
  6     66 -.43535451E-03 0.19976171E+02 0.75467711E-02 0.12207508E+00
       -1 -1    0    0    0  501 0.00000000E+00 0.00000000E+00 0.57113215E+02 0.57114111E+02 0.32000000E+00 0.0000E+00 0.9000E+01
        2 -1    0    0  502    0 -.00000000E+00 -.00000000E+00 -.36890052E+03 0.36890066E+03 0.32000000E+00 0.0000E+00 0.9000E+01
       25  1    1    2    0    0 -.20078504E+02 0.49500286E+02 -.13521723E+03 0.19173451E+03 0.12500000E+03 0.0000E+00 0.9000E+01
       24  1    1    2    0    0 0.30513854E+02 -.40434322E+02 -.16543677E+03 0.19079458E+03 0.80419002E+02 0.0000E+00 0.9000E+01
       21  1    1    2  502  503 0.62192632E+01 0.11599470E+02 -.10620683E+02 0.16928921E+02 0.75000000E+00 0.0000E+00 0.9000E+01
       21  1    1    2  503  501 -.16654613E+02 -.20665435E+02 -.51262706E+00 0.26556762E+02 0.75000000E+00 0.0000E+00 0.9000E+01
#aMCatNLO 2  0  0  5  2 0.11967751D+02 0.00000000D+00  -5  6  0 0.00000000D+00 0.00000000D+00 0.00000000D+00 0.00000000D+00 0.00000000D+00
  <mgrwgt>
 -.8518005053D-01    2    2    0
 0.145152730698167D+03 0.000000000000000D+00 0.000000000000000D+00 0.145152730698167D+03
 0.145152730698167D+03 -.000000000000000D+00 -.000000000000000D+00 -.145152730698167D+03
 0.136459847846876D+03 -.172735300758450D+02 0.519371753603670D+02 -.667119702848726D+00
 0.104703115077738D+03 0.326439114464964D+02 -.385837821326596D+02 -.440589735970360D+02
 0.491424984717204D+02 -.153703813706514D+02 -.133533932277073D+02 0.447260932998848D+02
 0.000000000000000D+00 0.000000000000000D+00 0.000000000000000D+00 -.000000000000000D+00
 0.145152730698167D+03 0.000000000000000D+00 0.000000000000000D+00 0.145152730698167D+03
 0.145152730698167D+03 -.000000000000000D+00 -.000000000000000D+00 -.145152730698167D+03
 0.136145176727251D+03 -.198701617475508D+02 0.496812883434050D+02 0.688878848274163D+01
 0.102469559910677D+03 0.306705394214307D+02 -.402981971494253D+02 -.383166813805917D+02
 0.123298497102551D+02 0.581563446219598D+01 0.106987944430106D+02 0.193374950440923D+01
 0.393608750481519D+02 -.166160121360759D+02 -.200818856369903D+02 0.294941433934409D+02
-.621035044388D-04 0.000000000000D+00 0.000000000000D+00 0.578306518986D-04 0.000000000000D+00  6 -1 2 25 24 21 21 4 0.87867280D-02 0.56754006D-01 0.18123737D+05 0.18123737D+05 0.18123737D+05 0.12385640D+01  1  2 13  3  6  5       21 -.103266490275D+00 0.100000000000D+01
0.108770162325D-04 0.000000000000D+00 0.000000000000D+00 0.584426116029D-04 0.571410287828D-06  6 -1 2 25 24 21 21 4 0.87867280D-02 0.56754006D-01 0.18123737D+05 0.18123737D+05 0.18123737D+05 0.12385640D+01  1  2  1  3  6  5       21 0.180864397451D-01 0.100000000000D+01
  </mgrwgt>
  </event>
  <event>
  5     66 0.43535451E-03 0.25544126E+02 0.75467711E-02 0.12288908E+00
       -1 -1    0    0    0  501 0.00000000E+00 0.00000000E+00 0.23610739E+03 0.23610760E+03 0.32000000E+00 0.0000E+00 0.9000E+01
        2 -1    0    0  502    0 0.00000000E+00 0.00000000E+00 -.89777607E+02 0.89778177E+02 0.32000000E+00 0.0000E+00 0.9000E+01
       25  1    1    2    0    0 -.44642226E+02 -.68556533E+01 0.13023264E+03 0.18607920E+03 0.12500000E+03 0.0000E+00 0.9000E+01
       24  1    1    2    0    0 0.49356211E+02 0.31953191E+02 -.13698529E+02 0.10055798E+03 0.80419002E+02 0.0000E+00 0.9000E+01
       21  1    1    2  502  501 -.47139852E+01 -.25097538E+02 0.29795673E+02 0.39248601E+02 0.75000000E+00 0.0000E+00 0.9000E+01
#aMCatNLO 1  0  0  5  2 0.87530804D+01 0.00000000D+00  -5  6  0 0.00000000D+00 0.00000000D+00 0.00000000D+00 0.00000000D+00 0.00000000D+00
  <mgrwgt>
 0.5363343451D+00   14    2    0
 0.145592871748225D+03 0.000000000000000D+00 0.000000000000000D+00 0.145592871748225D+03
 0.145592871748225D+03 -.000000000000000D+00 -.000000000000000D+00 -.145592871748225D+03
 0.142806731484487D+03 -.446414500539671D+02 -.685152133910783D+01 0.522394501282430D+02
 0.119427438761527D+03 0.493568604034844D+02 0.319566462802559D+02 -.658663059871843D+02
 0.289515732504358D+02 -.471541034951731D+01 -.251051249411480D+02 0.136268558589412D+02
 0.000000000000000D+00 0.000000000000000D+00 0.000000000000000D+00 0.000000000000000D+00
 0.145592871748225D+03 0.000000000000000D+00 0.000000000000000D+00 0.145592871748225D+03
 0.145592871748225D+03 -.000000000000000D+00 -.000000000000000D+00 -.145592871748225D+03
 0.144723083692708D+03 -.457319588356740D+02 -.126574549026572D+02 0.553908632354290D+02
 0.116446555904355D+03 0.484622656554549D+02 0.271937706753203D+02 -.632810561828247D+02
 0.904780148802174D+01 0.779055133986148D+01 -.122861071564355D+01 -.443402044391280D+01
 0.209683024113647D+02 -.105208581596423D+02 -.133077050570195D+02 0.123242133913085D+02
0.734544264512D-03 0.000000000000D+00 0.000000000000D+00 0.272700309423D-04 0.000000000000D+00  6 -1 2 25 24 21 21 2 0.36324274D-01 0.13812000D-01 0.16650693D+05 0.16650693D+05 0.16650693D+05 0.12426865D+01  1  2  2  3  6  5       21 0.391625885454D+00 0.100000000000D+01
0.100552807658D-03 0.387629657906D-04 -.282084338567D-05 0.272700309423D-04 0.000000000000D+00  6 -1 2 25 24 21 21 4 0.36324274D-01 0.13812000D-01 0.16650693D+05 0.16650693D+05 0.16650693D+05 0.12426865D+01  1  2  3  3  6  5       21 0.827886465523D-01 0.100000000000D+01
0.176863344075D-04 0.000000000000D+00 0.000000000000D+00 0.272700309423D-04 0.000000000000D+00  6 -1 2 25 24 21 21 4 0.36324274D-01 0.13812000D-01 0.16650693D+05 0.16650693D+05 0.16650693D+05 0.12426865D+01  1  2 15  3  6  5       21 0.145617782553D-01 0.100000000000D+01
0.861887288290D-04 0.000000000000D+00 0.000000000000D+00 0.272995824126D-04 0.000000000000D+00  6 -1 2 25 24 21 21 4 0.36324274D-01 0.13812000D-01 0.16423161D+05 0.16423161D+05 0.16423161D+05 0.12433596D+01  1  2 12  3  6  5       21 0.710895656764D-01 0.100000000000D+01
0.118170745096D-03 0.000000000000D+00 0.000000000000D+00 0.272995824126D-04 0.000000000000D+00  6 -1 2 25 24 21 21 4 0.36324274D-01 0.13812000D-01 0.16423161D+05 0.16423161D+05 0.16423161D+05 0.12433596D+01  1  2 12  3  6  5       21 0.974687416630D-01 0.100000000000D+01
-.210708403433D-03 0.000000000000D+00 0.000000000000D+00 0.272700309423D-04 0.000000000000D+00  6 -1 2 25 24 21 21 4 0.36324274D-01 0.13812000D-01 0.16650693D+05 0.16650693D+05 0.16650693D+05 0.12426865D+01  1  2  4  3  6  5       21 -.173483604721D+00 0.100000000000D+01
0.723636418385D-05 0.000000000000D+00 0.000000000000D+00 0.272995824126D-04 0.000000000000D+00  6 -1 2 25 24 1 -1 4 0.36324274D-01 0.13812000D-01 0.16423161D+05 0.16423161D+05 0.16423161D+05 0.12433596D+01  1  2 12  6  6  5       21 0.596864571383D-02 0.100000000000D+01
0.861066590659D-05 0.000000000000D+00 0.000000000000D+00 0.272995824126D-04 0.000000000000D+00  6 -1 2 25 24 1 -1 4 0.36324274D-01 0.13812000D-01 0.16423161D+05 0.16423161D+05 0.16423161D+05 0.12433596D+01  1  2 12  6  6  5       21 0.710218734863D-02 0.100000000000D+01
0.723636418385D-05 0.000000000000D+00 0.000000000000D+00 0.272995824126D-04 0.000000000000D+00  6 -1 2 25 24 2 -2 4 0.36324274D-01 0.13812000D-01 0.16423161D+05 0.16423161D+05 0.16423161D+05 0.12433596D+01  1  2 12  7  6  5       21 0.596864571383D-02 0.100000000000D+01
0.861066590659D-05 0.000000000000D+00 0.000000000000D+00 0.272995824126D-04 0.000000000000D+00  6 -1 2 25 24 2 -2 4 0.36324274D-01 0.13812000D-01 0.16423161D+05 0.16423161D+05 0.16423161D+05 0.12433596D+01  1  2 12  7  6  5       21 0.710218734863D-02 0.100000000000D+01
0.723636418385D-05 0.000000000000D+00 0.000000000000D+00 0.272995824126D-04 0.000000000000D+00  6 -1 2 25 24 3 -3 4 0.36324274D-01 0.13812000D-01 0.16423161D+05 0.16423161D+05 0.16423161D+05 0.12433596D+01  1  2 12  8  6  5       21 0.596864571383D-02 0.100000000000D+01
0.723636418385D-05 0.000000000000D+00 0.000000000000D+00 0.272995824126D-04 0.000000000000D+00  6 -1 2 25 24 4 -4 4 0.36324274D-01 0.13812000D-01 0.16423161D+05 0.16423161D+05 0.16423161D+05 0.12433596D+01  1  2 12  8  6  5       21 0.596864571383D-02 0.100000000000D+01
0.861066590659D-05 0.000000000000D+00 0.000000000000D+00 0.272995824126D-04 0.000000000000D+00  6 -1 2 25 24 3 -3 4 0.36324274D-01 0.13812000D-01 0.16423161D+05 0.16423161D+05 0.16423161D+05 0.12433596D+01  1  2 12  8  6  5       21 0.710218734863D-02 0.100000000000D+01
0.861066590659D-05 0.000000000000D+00 0.000000000000D+00 0.272995824126D-04 0.000000000000D+00  6 -1 2 25 24 4 -4 4 0.36324274D-01 0.13812000D-01 0.16423161D+05 0.16423161D+05 0.16423161D+05 0.12433596D+01  1  2 12  8  6  5       21 0.710218734863D-02 0.100000000000D+01
  </mgrwgt>
  </event>
  <event>
  5     66 0.43535451E-03 0.92566109E+02 0.75467711E-02 0.11824563E+00
       -1 -1    0    0    0  501 0.00000000E+00 0.00000000E+00 0.29889595E+03 0.29889612E+03 0.32000000E+00 0.0000E+00 0.9000E+01
        2 -1    0    0  502    0 0.00000000E+00 0.00000000E+00 -.15778815E+03 0.15778847E+03 0.32000000E+00 0.0000E+00 0.9000E+01
       25  1    1    2    0    0 0.36167476E+02 0.10472382E+02 0.16504324E+03 0.21043295E+03 0.12500000E+03 0.0000E+00 0.9000E+01
       24  1    1    2    0    0 -.12762120E+03 0.41495278E+01 -.28287925E+02 0.15353114E+03 0.80419002E+02 0.0000E+00 0.9000E+01
       21  1    1    2  502  501 0.91453722E+02 -.14621910E+02 0.43524831E+01 0.92720495E+02 0.75000000E+00 0.0000E+00 0.9000E+01
#aMCatNLO 1  0  0  5  1 0.40510135D+02 0.00000000D+00  -5  6  0 0.00000000D+00 0.00000000D+00 0.00000000D+00 0.00000000D+00 0.00000000D+00
  <mgrwgt>
 0.8574802589D-01    9    2    0
 0.217168945858798D+03 0.000000000000000D+00 0.000000000000000D+00 0.217168945858798D+03
 0.217168945858798D+03 -.000000000000000D+00 -.000000000000000D+00 -.217168945858798D+03
 0.167640415853567D+03 0.361664001670522D+02 0.104725538018316D+02 0.105169511472580D+03
 0.170621191711145D+03 -.127622292826813D+03 0.414970281515520D+01 -.796222672795355D+02
 0.960762841528840D+02 0.914558926597605D+02 -.146222566169868D+02 -.255472441930449D+02
 0.000000000000000D+00 -.000000000000000D+00 0.000000000000000D+00 0.000000000000000D+00
 0.217168945858798D+03 0.000000000000000D+00 0.000000000000000D+00 0.217168945858798D+03
 0.217168945858798D+03 -.000000000000000D+00 -.000000000000000D+00 -.217168945858798D+03
 0.169135410315924D+03 0.533885681722236D+02 0.771901925366052D+01 0.100358679510133D+03
 0.160731643151288D+03 -.110677447776923D+03 0.144050753589265D+01 -.843556319836921D+02
 0.617423767305644D+02 0.551846213214379D+02 -.754507430858820D+01 0.266430198668680D+02
 0.427284615198184D+02 0.210425828326146D+01 -.161445248096497D+01 -.426460673933087D+02
0.374333736979D-03 0.000000000000D+00 0.000000000000D+00 0.166823534646D-05 0.000000000000D+00  6 -1 2 25 24 21 21 2 0.45984030D-01 0.24275138D-01 0.34981836D+05 0.34981836D+05 0.34981836D+05 0.12079575D+01  1  2  2  3  6  5       21 0.659528487263D-01 0.100000000000D+01
-.211962431397D-04 0.197541340146D-04 -.143754011434D-05 0.166823534646D-05 0.000000000000D+00  6 -1 2 25 24 21 21 4 0.45984030D-01 0.24275138D-01 0.34981836D+05 0.34981836D+05 0.34981836D+05 0.12079575D+01  1  2  3  3  6  5       21 -.544925069971D-02 0.100000000000D+01
0.184304247439D-04 0.000000000000D+00 0.000000000000D+00 0.166823534646D-05 0.000000000000D+00  6 -1 2 25 24 21 21 4 0.45984030D-01 0.24275138D-01 0.34981836D+05 0.34981836D+05 0.34981836D+05 0.12079575D+01  1  2 15  3  6  5       21 0.473819838118D-02 0.100000000000D+01
0.122546963389D-03 0.000000000000D+00 0.000000000000D+00 0.169882626479D-05 0.000000000000D+00  6 -1 2 25 24 21 21 4 0.45984030D-01 0.24275138D-01 0.27441565D+05 0.27441565D+05 0.27441565D+05 0.12189825D+01  1  2 12  3  6  5       21 0.325968735308D-01 0.100000000000D+01
-.601399390080D-04 0.000000000000D+00 0.000000000000D+00 0.166823534646D-05 0.000000000000D+00  6 -1 2 25 24 21 21 4 0.45984030D-01 0.24275138D-01 0.34981836D+05 0.34981836D+05 0.34981836D+05 0.12079575D+01  1  2  4  3  6  5       21 -.154611174518D-01 0.100000000000D+01
0.316779828847D-05 0.000000000000D+00 0.000000000000D+00 0.169882626479D-05 0.000000000000D+00  6 -1 2 25 24 1 -1 4 0.45984030D-01 0.24275138D-01 0.27441565D+05 0.27441565D+05 0.27441565D+05 0.12189825D+01  1  2 12  6  6  5       21 0.842618350751D-03 0.100000000000D+01
0.316779828847D-05 0.000000000000D+00 0.000000000000D+00 0.169882626479D-05 0.000000000000D+00  6 -1 2 25 24 2 -2 4 0.45984030D-01 0.24275138D-01 0.27441565D+05 0.27441565D+05 0.27441565D+05 0.12189825D+01  1  2 12  7  6  5       21 0.842618350751D-03 0.100000000000D+01
0.316779828847D-05 0.000000000000D+00 0.000000000000D+00 0.169882626479D-05 0.000000000000D+00  6 -1 2 25 24 3 -3 4 0.45984030D-01 0.24275138D-01 0.27441565D+05 0.27441565D+05 0.27441565D+05 0.12189825D+01  1  2 12  8  6  5       21 0.842618350751D-03 0.100000000000D+01
0.316779828847D-05 0.000000000000D+00 0.000000000000D+00 0.169882626479D-05 0.000000000000D+00  6 -1 2 25 24 4 -4 4 0.45984030D-01 0.24275138D-01 0.27441565D+05 0.27441565D+05 0.27441565D+05 0.12189825D+01  1  2 12  8  6  5       21 0.842618350751D-03 0.100000000000D+01
  </mgrwgt>
  </event>
  <event>
  5     66 0.43535451E-03 0.43343875E+02 0.75467711E-02 0.12008362E+00
       -1 -1    0    0    0  501 0.00000000E+00 0.00000000E+00 0.38947451E+03 0.38947464E+03 0.32000000E+00 0.0000E+00 0.9000E+01
        2 -1    0    0  502    0 0.00000000E+00 0.00000000E+00 -.61936307E+02 0.61937134E+02 0.32000000E+00 0.0000E+00 0.9000E+01
       25  1    1    2    0    0 -.72175745E+02 -.38213620E+02 0.77405407E+02 0.16818506E+03 0.12500000E+03 0.0000E+00 0.9000E+01
       24  1    1    2    0    0 0.34372055E+02 0.17018523E+02 0.15752008E+03 0.18097198E+03 0.80419002E+02 0.0000E+00 0.9000E+01
       21  1    1    2  502  501 0.37803690E+02 0.21195097E+02 0.92612719E+02 0.10225473E+03 0.75000000E+00 0.0000E+00 0.9000E+01
#aMCatNLO 1  0  0  1  2 0.17235116D+02 0.00000000D+00  -5  6  0 0.00000000D+00 0.00000000D+00 0.00000000D+00 0.00000000D+00 0.00000000D+00
  <mgrwgt>
 0.3639947137D-01    7    4    0
 0.155315257663281D+03 0.000000000000000D+00 0.000000000000000D+00 0.155315257663281D+03
 0.155315257663281D+03 0.000000000000000D+00 0.000000000000000D+00 -.155315257663281D+03
 0.162791676732527D+03 -.721778920205951D+02 -.382148240771301D+02 -.648545228770112D+02
 0.968956676849537D+02 0.343707764922080D+02 0.170178066140514D+02 0.380867226617344D+02
 0.509431709090810D+02 0.378071155283871D+02 0.211970174630787D+02 0.267678002152768D+02
 0.000000000000000D+00 0.000000000000000D+00 -.000000000000000D+00 0.000000000000000D+00
 0.169625168382589D+03 0.000000000000000D+00 0.000000000000000D+00 0.169625168382589D+03
 0.160831819489921D+03 0.000000000000000D+00 0.000000000000000D+00 -.160831819489921D+03
 0.165363149097491D+03 -.799515793800021D+02 -.334904000644570D+02 -.648545228770112D+02
 0.959054087034355D+02 0.298034955247270D+02 0.197935513639713D+02 0.380867226617344D+02
 0.498397292787762D+02 0.354196609015868D+02 0.226479824230180D+02 0.267678002152768D+02
 0.193487007928070D+02 0.147284229536883D+02 -.895113372253230D+01 0.879334889266784D+01
 0.155315257663281D+03 0.000000000000000D+00 0.000000000000000D+00 0.155315257663281D+03
 0.155315257663281D+03 0.000000000000000D+00 0.000000000000000D+00 -.155315257663281D+03
 0.162791676732527D+03 -.721778920205951D+02 -.382148240771301D+02 -.648545228770112D+02
 0.968956676849537D+02 0.343707764922080D+02 0.170178066140514D+02 0.380867226617344D+02
 0.000000000000000D+00 0.000000000000000D+00 -.000000000000000D+00 0.000000000000000D+00
 0.509431709090810D+02 0.378071155283871D+02 0.211970174630787D+02 0.267678002152768D+02
 0.169625168382589D+03 0.000000000000000D+00 0.000000000000000D+00 0.169625168382589D+03
 0.160831819489921D+03 0.000000000000000D+00 0.000000000000000D+00 -.160831819489921D+03
 0.165363149097491D+03 -.799515793800021D+02 -.334904000644570D+02 -.648545228770112D+02
 0.959054087034355D+02 0.298034955247270D+02 0.197935513639713D+02 0.380867226617344D+02
 0.193487007928070D+02 0.147284229536883D+02 -.895113372253230D+01 0.879334889266784D+01
 0.498397292787762D+02 0.354196609015868D+02 0.226479824230180D+02 0.267678002152768D+02
0.111743959150D-03 0.000000000000D+00 0.000000000000D+00 0.104199536995D-04 0.000000000000D+00  6 -1 2 25 24 21 21 2 0.59919229D-01 0.95287364D-02 0.19846536D+05 0.19846536D+05 0.19846536D+05 0.12341945D+01  1  2  2  1  6  1       -1 0.374464199173D-01 0.100000000000D+01
0.306198801735D-05 0.589689073226D-05 -.429126225995D-06 0.104199536995D-04 0.000000000000D+00  6 -1 2 25 24 21 21 4 0.59919229D-01 0.95287364D-02 0.19846536D+05 0.19846536D+05 0.19846536D+05 0.12341945D+01  1  2  3  1  6  1       -1 0.156299270097D-02 0.100000000000D+01
0.511826265012D-05 0.000000000000D+00 0.000000000000D+00 0.104199536995D-04 0.000000000000D+00  6 -1 2 25 24 21 21 4 0.59919229D-01 0.95287364D-02 0.19846536D+05 0.19846536D+05 0.19846536D+05 0.12341945D+01  1  2 15  1  6  1       -1 0.261261870341D-02 0.100000000000D+01
-.908464108228D-04 0.000000000000D+00 0.000000000000D+00 0.104199536995D-04 0.000000000000D+00  6 -1 2 25 24 21 21 4 0.59919229D-01 0.95287364D-02 0.19846536D+05 0.19846536D+05 0.19846536D+05 0.12341945D+01  1  2  4  1  6  1       -1 -.463725776261D-01 0.100000000000D+01
-.962658681799D-03 0.000000000000D+00 -.186177510226D-03 0.104199536995D-04 0.000000000000D+00  6 -1 2 25 24 21 21 4 0.67310598D-01 0.95287364D-02 0.19846536D+05 0.19846536D+05 0.19846536D+05 0.12341945D+01  1  2  5  1  6  1       -1 -.392696812454D+00 0.100000000000D+01
0.978937183027D-03 0.000000000000D+00 0.184925044645D-03 0.104199536995D-04 0.000000000000D+00  6 -1 2 25 24 21 21 4 0.59919229D-01 0.95287364D-02 0.19846536D+05 0.19846536D+05 0.19846536D+05 0.12341945D+01  1  2  6  1  6  1       -1 0.499698778409D+00 0.100000000000D+01
-.169789587351D-04 0.000000000000D+00 -.344096215534D-05 0.104199536995D-04 0.000000000000D+00  6 21 2 25 24 1 21 4 0.67310598D-01 0.95287364D-02 0.19846536D+05 0.19846536D+05 0.19846536D+05 0.12341945D+01  3  4  5  4  5  1       -1 -.658519482830D-01 0.100000000000D+01
  </mgrwgt>
  </event>
  <event>
  5     66 0.43535451E-03 0.36327006E+02 0.75467711E-02 0.90812234E-01
       -1 -1    0    0    0  501 0.00000000E+00 0.00000000E+00 0.30261853E+03 0.30261870E+03 0.32000000E+00 0.0000E+00 0.9000E+01
        2 -1    0    0  502    0 0.00000000E+00 0.00000000E+00 -.78882221E+02 0.78882870E+02 0.32000000E+00 0.0000E+00 0.9000E+01
       25  1    1    2    0    0 0.79153441E+02 0.21330407E+02 0.14868360E+03 0.21083659E+03 0.12500000E+03 0.0000E+00 0.9000E+01
       24  1    1    2    0    0 -.63994530E+02 -.54335906E+02 0.50080894E+02 0.12658200E+03 0.80419002E+02 0.0000E+00 0.9000E+01
       21  1    1    2  502  501 -.15158911E+02 0.33005499E+02 0.24971815E+02 0.44082985E+02 0.75000000E+00 0.0000E+00 0.9000E+01
#aMCatNLO 1  0  0  1  2 0.12383733D+03 0.00000000D+00  -5  6  0 0.00000000D+00 0.00000000D+00 0.00000000D+00 0.00000000D+00 0.00000000D+00
  <mgrwgt>
 0.2995331768D+00    3    2    0
 0.154503650706805D+03 0.000000000000000D+00 0.000000000000000D+00 0.154503650706805D+03
 0.154503650706805D+03 0.000000000000000D+00 0.000000000000000D+00 -.154503650706805D+03
 0.152645849234206D+03 0.791550354772286D+02 0.213269343038824D+02 0.309095053378142D+02
 0.120018152515483D+03 -.639932759244595D+02 -.543386359371890D+02 -.298213725338180D+02
 0.363432996639213D+02 -.151617595527691D+02 0.330117016333067D+02 -.108813280399619D+01
 0.000000000000000D+00 0.000000000000000D+00 -.000000000000000D+00 -.000000000000000D+00
 0.903659091257228D+03 0.000000000000000D+00 0.000000000000000D+00 0.903659091257228D+03
 0.197808369630569D+04 0.000000000000000D+00 0.000000000000000D+00 -.197808369630569D+04
 0.631258544248914D+03 -.607804120913843D+02 0.614989994774737D+03 0.309095053378142D+02
 0.337602587741572D+03 -.145683547897568D+03 0.292224709611647D+03 -.298213725338180D+02
 0.288284163095307D+03 -.731112871634394D+02 0.278857157605588D+03 -.108813280399619D+01
 0.162459749247713D+04 0.279575247152392D+03 -.118607186199197D+04 -.107442460504847D+04
0.644135059254D-03 0.000000000000D+00 0.000000000000D+00 0.151446741700D-04 0.000000000000D+00  6 -1 2 25 24 21 21 2 0.46556760D-01 0.12135789D-01 0.22810795D+05 0.22810795D+05 0.22810795D+05 0.12275878D+01  1  2  2  1  6  1       -1 0.254367947301D+00 0.100000000000D+01
0.672493894911D-04 0.339919409527D-04 -.247364823219D-05 0.151446741700D-04 0.000000000000D+00  6 -1 2 25 24 21 21 4 0.46556760D-01 0.12135789D-01 0.22810795D+05 0.22810795D+05 0.22810795D+05 0.12275878D+01  1  2  3  1  6  1       -1 0.400201690805D-01 0.100000000000D+01
0.864569495121D-05 0.000000000000D+00 0.000000000000D+00 0.151446741700D-04 0.000000000000D+00  6 -1 2 25 24 21 21 4 0.46556760D-01 0.12135789D-01 0.22810795D+05 0.22810795D+05 0.22810795D+05 0.12275878D+01  1  2 15  1  6  1       -1 0.514506044418D-02 0.100000000000D+01
  </mgrwgt>
  </event>
  <event>
  5     66 0.43535451E-03 0.22277846E+02 0.75467711E-02 0.11797360E+00
       -1 -1    0    0    0  501 0.00000000E+00 0.00000000E+00 0.46826983E+02 0.46828077E+02 0.32000000E+00 0.0000E+00 0.9000E+01
        2 -1    0    0  502    0 -.00000000E+00 -.00000000E+00 -.70806930E+03 0.70806937E+03 0.32000000E+00 0.0000E+00 0.9000E+01
       25  1    1    2    0    0 -.12208081E+03 -.42590198E+02 -.46300576E+03 0.49670613E+03 0.12500000E+03 0.0000E+00 0.9000E+01
       24  1    1    2    0    0 0.10002983E+03 0.39487492E+02 -.13196392E+03 0.18827353E+03 0.80419002E+02 0.0000E+00 0.9000E+01
       21  1    1    2  502  501 0.22050973E+02 0.31027058E+01 -.66272632E+02 0.69917784E+02 0.75000000E+00 0.0000E+00 0.9000E+01
#aMCatNLO 1  0  0  5  2 0.59364160D+01 0.00000000D+00  -5  6  0 0.00000000D+00 0.00000000D+00 0.00000000D+00 0.00000000D+00 0.00000000D+00
  <mgrwgt>
 0.3573539928D+00   14    2    0
 0.182091156386614D+03 0.000000000000000D+00 0.000000000000000D+00 0.182091156386614D+03
 0.182091156386614D+03 -.000000000000000D+00 -.000000000000000D+00 -.182091156386614D+03
 0.188927967000435D+03 -.122086127423318D+03 -.425909465492692D+02 -.578771585146708D+02
 0.150656208477547D+03 0.100025590242226D+03 0.394868950819767D+02 0.683062487034580D+02
 0.245981372952462D+02 0.220605371810916D+02 0.310405146729253D+01 -.104290901887872D+02
 0.000000000000000D+00 0.000000000000000D+00 0.000000000000000D+00 0.000000000000000D+00
 0.182091156386614D+03 0.000000000000000D+00 0.000000000000000D+00 0.182091156386614D+03
 0.182091156386614D+03 -.000000000000000D+00 -.000000000000000D+00 -.182091156386614D+03
 0.185642923540371D+03 -.115728042112765D+03 -.416963253587069D+02 -.608829350552619D+02
 0.153253170336094D+03 0.105184244601043D+03 0.402127490582555D+02 0.658675015814253D+02
 0.176266360685132D+02 0.154625220141553D+02 -.379010868363323D+01 -.756596247808695D+01
 0.765958282824931D+01 -.491872450243403D+01 0.527368498408460D+01 0.258139595192358D+01
0.265389144849D-03 0.000000000000D+00 0.000000000000D+00 0.318029207774D-04 0.000000000000D+00  6 -1 2 25 24 21 21 2 0.72042410D-02 0.10893383D+00 0.28291889D+05 0.28291889D+05 0.28291889D+05 0.12175796D+01  1  2  2  3  6  5       21 0.183510460362D+00 0.100000000000D+01
0.714174836102D-04 0.140049699385D-04 -.101916419479D-05 0.318029207774D-04 0.000000000000D+00  6 -1 2 25 24 21 21 4 0.72042410D-02 0.10893383D+00 0.28291889D+05 0.28291889D+05 0.28291889D+05 0.12175796D+01  1  2  3  3  6  5       21 0.732110962573D-01 0.100000000000D+01
0.703791811664D-05 0.000000000000D+00 0.000000000000D+00 0.318029207774D-04 0.000000000000D+00  6 -1 2 25 24 21 21 4 0.72042410D-02 0.10893383D+00 0.28291889D+05 0.28291889D+05 0.28291889D+05 0.12175796D+01  1  2 15  3  6  5       21 0.721467173921D-02 0.100000000000D+01
0.112417727265D-03 0.000000000000D+00 0.000000000000D+00 0.317960899472D-04 0.000000000000D+00  6 -1 2 25 24 21 21 4 0.72042410D-02 0.10893383D+00 0.28372633D+05 0.28372633D+05 0.28372633D+05 0.12174488D+01  1  2 12  3  6  5       21 0.115197670125D+00 0.100000000000D+01
0.805727067867D-04 0.000000000000D+00 0.000000000000D+00 0.317960899472D-04 0.000000000000D+00  6 -1 2 25 24 21 21 4 0.72042410D-02 0.10893383D+00 0.28372633D+05 0.28372633D+05 0.28372633D+05 0.12174488D+01  1  2 12  3  6  5       21 0.825651640833D-01 0.100000000000D+01
-.122061638995D-03 0.000000000000D+00 0.000000000000D+00 0.318029207774D-04 0.000000000000D+00  6 -1 2 25 24 21 21 4 0.72042410D-02 0.10893383D+00 0.28291889D+05 0.28291889D+05 0.28291889D+05 0.12175796D+01  1  2  4  3  6  5       21 -.125127153045D+00 0.100000000000D+01
0.268494911144D-05 0.000000000000D+00 0.000000000000D+00 0.317960899472D-04 0.000000000000D+00  6 -1 2 25 24 1 -1 4 0.72042410D-02 0.10893383D+00 0.28372633D+05 0.28372633D+05 0.28372633D+05 0.12174488D+01  1  2 12  6  6  5       21 0.275134437929D-02 0.100000000000D+01
0.238519373271D-05 0.000000000000D+00 0.000000000000D+00 0.317960899472D-04 0.000000000000D+00  6 -1 2 25 24 1 -1 4 0.72042410D-02 0.10893383D+00 0.28372633D+05 0.28372633D+05 0.28372633D+05 0.12174488D+01  1  2 12  6  6  5       21 0.244417644343D-02 0.100000000000D+01
0.268494911144D-05 0.000000000000D+00 0.000000000000D+00 0.317960899472D-04 0.000000000000D+00  6 -1 2 25 24 2 -2 4 0.72042410D-02 0.10893383D+00 0.28372633D+05 0.28372633D+05 0.28372633D+05 0.12174488D+01  1  2 12  7  6  5       21 0.275134437929D-02 0.100000000000D+01
0.238519373271D-05 0.000000000000D+00 0.000000000000D+00 0.317960899472D-04 0.000000000000D+00  6 -1 2 25 24 2 -2 4 0.72042410D-02 0.10893383D+00 0.28372633D+05 0.28372633D+05 0.28372633D+05 0.12174488D+01  1  2 12  7  6  5       21 0.244417644343D-02 0.100000000000D+01
0.268494911144D-05 0.000000000000D+00 0.000000000000D+00 0.317960899472D-04 0.000000000000D+00  6 -1 2 25 24 3 -3 4 0.72042410D-02 0.10893383D+00 0.28372633D+05 0.28372633D+05 0.28372633D+05 0.12174488D+01  1  2 12  8  6  5       21 0.275134437929D-02 0.100000000000D+01
0.268494911144D-05 0.000000000000D+00 0.000000000000D+00 0.317960899472D-04 0.000000000000D+00  6 -1 2 25 24 4 -4 4 0.72042410D-02 0.10893383D+00 0.28372633D+05 0.28372633D+05 0.28372633D+05 0.12174488D+01  1  2 12  8  6  5       21 0.275134437929D-02 0.100000000000D+01
0.238519373271D-05 0.000000000000D+00 0.000000000000D+00 0.317960899472D-04 0.000000000000D+00  6 -1 2 25 24 3 -3 4 0.72042410D-02 0.10893383D+00 0.28372633D+05 0.28372633D+05 0.28372633D+05 0.12174488D+01  1  2 12  8  6  5       21 0.244417644343D-02 0.100000000000D+01
0.238519373271D-05 0.000000000000D+00 0.000000000000D+00 0.317960899472D-04 0.000000000000D+00  6 -1 2 25 24 4 -4 4 0.72042410D-02 0.10893383D+00 0.28372633D+05 0.28372633D+05 0.28372633D+05 0.12174488D+01  1  2 12  8  6  5       21 0.244417644343D-02 0.100000000000D+01
  </mgrwgt>
  </event>
  <event>
  6     66 0.43535451E-03 0.51256438E+02 0.75467711E-02 0.12019926E+00
       -1 -1    0    0    0  503 0.00000000E+00 0.00000000E+00 0.43750386E+03 0.43750398E+03 0.32000000E+00 0.0000E+00 0.9000E+01
        2 -1    0    0  502    0 0.00000000E+00 0.00000000E+00 -.61590513E+02 0.61591345E+02 0.32000000E+00 0.0000E+00 0.9000E+01
       25  1    1    2    0    0 -.24570252E+02 -.48290179E+02 0.15971694E+03 0.20992889E+03 0.12500000E+03 0.0000E+00 0.9000E+01
       24  1    1    2    0    0 -.39446505E+02 0.23113610E+02 0.67332439E+02 0.11441652E+03 0.80419002E+02 0.0000E+00 0.9000E+01
       21  1    1    2  502  501 0.53196846E+02 0.20745185E+02 0.52164207E+02 0.77342964E+02 0.75000000E+00 0.0000E+00 0.9000E+01
       21  1    1    2  501  503 0.10819911E+02 0.44313841E+01 0.96699766E+02 0.97406955E+02 0.75000000E+00 0.0000E+00 0.9000E+01
#aMCatNLO 2  0  0  1  5 0.11692205D+02 0.00000000D+00  -5  6  0 0.00000000D+00 0.00000000D+00 0.00000000D+00 0.00000000D+00 0.00000000D+00
  <mgrwgt>
 0.7662823416D-01    2    2    0
 0.144271110309347D+03 0.000000000000000D+00 0.000000000000000D+00 0.144271110309347D+03
 0.144271110309347D+03 0.000000000000000D+00 0.000000000000000D+00 -.144271110309347D+03
 0.136032719564476D+03 -.194443613523509D+02 -.461907891790345D+02 0.191892834343691D+02
 0.930033128433359D+02 -.359422568184826D+02 0.245488303557743D+02 -.169678916905589D+02
 0.595061882108816D+02 0.553866181708335D+02 0.216419588232602D+02 -.222139174381026D+01
 0.000000000000000D+00 0.000000000000000D+00 0.000000000000000D+00 0.000000000000000D+00
 0.185546794999053D+03 0.000000000000000D+00 0.000000000000000D+00 0.185546794999053D+03
 0.145219906168997D+03 0.000000000000000D+00 0.000000000000000D+00 -.145219906168997D+03
 0.137582882539495D+03 -.245723497244719D+02 -.482909991423895D+02 0.191892834343691D+02
 0.940504025906086D+02 -.394479387691149D+02 0.231130493775842D+02 -.169678916905589D+02
 0.571457319895647D+02 0.532003770143582D+02 0.207465657127593D+02 -.222139174381026D+01
 0.419876840483821D+02 0.108199114792286D+02 0.443138405204611D+01 0.403268888300559D+02
-.565578638191D-03 0.000000000000D+00 0.000000000000D+00 0.716995235218D-05 0.000000000000D+00  6 -1 2 25 24 21 21 4 0.68145204D-01 0.94134121D-02 0.22132510D+05 0.22132510D+05 0.22132510D+05 0.12290112D+01  1  2 13  1  6  1       -1 -.225243935605D+00 0.100000000000D+01
0.745838888342D-03 0.000000000000D+00 0.000000000000D+00 0.721547193433D-05 0.291623865006D-06  6 -1 2 25 24 21 21 4 0.67306816D-01 0.94753192D-02 0.22132510D+05 0.22132510D+05 0.22132510D+05 0.12290112D+01  1  2  1  1  6  1       -1 0.301872169769D+00 0.100000000000D+01
  </mgrwgt>
  </event>
  <event>
  5     66 0.43535451E-03 0.27936732E+02 0.75467711E-02 0.12019283E+00
       -1 -1    0    0    0  501 0.00000000E+00 0.00000000E+00 0.69391641E+02 0.69392379E+02 0.32000000E+00 0.0000E+00 0.9000E+01
        2 -1    0    0  502    0 -.00000000E+00 -.00000000E+00 -.10754541E+04 0.10754542E+04 0.32000000E+00 0.0000E+00 0.9000E+01
       25  1    1    2    0    0 0.50917241E+01 -.31381619E+02 -.16390507E+03 0.20856799E+03 0.12500000E+03 0.0000E+00 0.9000E+01
       24  1    1    2    0    0 0.22823155E+02 0.32483800E+02 0.38908515E+01 0.89768861E+02 0.80419002E+02 0.0000E+00 0.9000E+01
       21  1    1    2  502  501 -.27914879E+02 -.11021809E+01 -.84604829E+03 0.84650973E+03 0.75000000E+00 0.0000E+00 0.9000E+01
#aMCatNLO 1  0  0  5  1 0.11173202D+03 0.00000000D+00  -5  6  0 0.00000000D+00 0.00000000D+00 0.00000000D+00 0.00000000D+00 0.00000000D+00
  <mgrwgt>
 0.8995951694D-01   10    2    0
 0.273181217790592D+03 0.000000000000000D+00 0.000000000000000D+00 0.273181217790592D+03
 0.273181217790592D+03 -.000000000000000D+00 -.000000000000000D+00 -.273181217790592D+03
 0.135220951593856D+03 0.509176577116052D+01 -.313816176868005D+02 0.406075577034500D+02
 0.195266427289898D+03 0.228232155140682D+02 0.324838026303549D+02 0.173452198234733D+03
 0.215875056697430D+03 -.279149812852287D+02 -.110218494355431D+01 -.214059755938183D+03
 0.000000000000000D+00 0.000000000000000D+00 -.000000000000000D+00 0.000000000000000D+00
 0.273181217790592D+03 0.000000000000000D+00 0.000000000000000D+00 0.273181217790592D+03
 0.273181217790592D+03 -.000000000000000D+00 -.000000000000000D+00 -.273181217790592D+03
 0.133901242326100D+03 0.449462618439595D+01 -.314051949285335D+02 0.360285270783608D+02
 0.189370231535720D+03 0.219697675982343D+02 0.324501054040043D+02 0.166907724831628D+03
 0.157180265607658D+03 -.469222285906062D+01 0.359718520473360D+02 -.152936734636971D+03
 0.659106961117068D+02 -.217721709235696D+02 -.370167625228068D+02 -.499995172730173D+02
0.600861750147D-03 0.000000000000D+00 0.000000000000D+00 0.553989996664D-04 0.000000000000D+00  6 -1 2 25 24 21 21 2 0.10675697D-01 0.16545454D+00 0.15202992D+05 0.15202992D+05 0.15202992D+05 0.12471576D+01  1  2  2  3  6  5       21 0.138469785752D+00 0.100000000000D+01
0.115200816750D-03 0.317083456929D-04 -.230746733110D-05 0.553989996664D-04 0.000000000000D+00  6 -1 2 25 24 21 21 4 0.10675697D-01 0.16545454D+00 0.15202992D+05 0.15202992D+05 0.15202992D+05 0.12471576D+01  1  2  3  3  6  5       21 0.412932125262D-01 0.100000000000D+01
0.240799879389D-04 0.000000000000D+00 0.000000000000D+00 0.553989996664D-04 0.000000000000D+00  6 -1 2 25 24 21 21 4 0.10675697D-01 0.16545454D+00 0.15202992D+05 0.15202992D+05 0.15202992D+05 0.12471576D+01  1  2 15  3  6  5       21 0.863136293338D-02 0.100000000000D+01
-.611010546591D-03 0.000000000000D+00 0.000000000000D+00 0.553989996664D-04 0.000000000000D+00  6 -1 2 25 24 21 21 4 0.10675697D-01 0.16545454D+00 0.15202992D+05 0.15202992D+05 0.15202992D+05 0.12471576D+01  1  2  4  3  6  5       21 -.219013971151D+00 0.100000000000D+01
-.130004265074D-02 0.000000000000D+00 0.000000000000D+00 0.553989996664D-04 0.000000000000D+00  6 -1 2 25 24 21 21 4 0.10675697D-01 0.16545454D+00 0.15202992D+05 0.15202992D+05 0.15202992D+05 0.12471576D+01  1  2  5  3  6  5       21 -.465994417269D+00 0.100000000000D+01
0.176047938394D-02 0.000000000000D+00 -.000000000000D+00 0.553989996664D-04 0.000000000000D+00  6 -1 2 25 24 21 21 4 0.10675697D-01 0.16545454D+00 0.15202992D+05 0.15202992D+05 0.15202992D+05 0.12471576D+01  1  2  6  3  6  5       21 0.631035884987D+00 0.100000000000D+01
-.310105321550D-04 0.000000000000D+00 0.000000000000D+00 0.553989996664D-04 0.000000000000D+00  6 -1 2 25 24 1 -1 4 0.10675697D-01 0.16545454D+00 0.15202992D+05 0.15202992D+05 0.15202992D+05 0.12471576D+01  1  2  5  6  6  5       21 -.111155852098D-01 0.100000000000D+01
-.310105321550D-04 0.000000000000D+00 0.000000000000D+00 0.553989996664D-04 0.000000000000D+00  6 -1 2 25 24 2 -2 4 0.10675697D-01 0.16545454D+00 0.15202992D+05 0.15202992D+05 0.15202992D+05 0.12471576D+01  1  2  5  7  6  5       21 -.111155852098D-01 0.100000000000D+01
-.310105321550D-04 0.000000000000D+00 0.000000000000D+00 0.553989996664D-04 0.000000000000D+00  6 -1 2 25 24 3 -3 4 0.10675697D-01 0.16545454D+00 0.15202992D+05 0.15202992D+05 0.15202992D+05 0.12471576D+01  1  2  5  8  6  5       21 -.111155852098D-01 0.100000000000D+01
-.310105321550D-04 0.000000000000D+00 0.000000000000D+00 0.553989996664D-04 0.000000000000D+00  6 -1 2 25 24 4 -4 4 0.10675697D-01 0.16545454D+00 0.15202992D+05 0.15202992D+05 0.15202992D+05 0.12471576D+01  1  2  5  8  6  5       21 -.111155852098D-01 0.100000000000D+01
  </mgrwgt>
  </event>
  <event>
  5     66 0.43535451E-03 0.24341406E+03 0.75467711E-02 0.10875757E+00
       -1 -1    0    0    0  501 0.00000000E+00 0.00000000E+00 0.50712099E+02 0.50713108E+02 0.32000000E+00 0.0000E+00 0.9000E+01
        2 -1    0    0  502    0 -.00000000E+00 -.00000000E+00 -.22682833E+04 0.22682833E+04 0.32000000E+00 0.0000E+00 0.9000E+01
       25  1    1    2    0    0 0.10487746E+03 0.90294352E+02 -.12667818E+04 0.12804349E+04 0.12500000E+03 0.0000E+00 0.9000E+01
       24  1    1    2    0    0 -.36339061E+02 0.14327068E+03 -.47869514E+03 0.50740838E+03 0.80419002E+02 0.0000E+00 0.9000E+01
       21  1    1    2  502  501 -.68538395E+02 -.23356503E+03 -.47209428E+03 0.53115318E+03 0.75000000E+00 0.0000E+00 0.9000E+01
#aMCatNLO 1  0  0  5  5 0.32977161D+02 0.00000000D+00  -5  6  0 0.00000000D+00 0.00000000D+00 0.00000000D+00 0.00000000D+00 0.00000000D+00
  <mgrwgt>
 0.4478048144D-02    4    2    0
 0.339161619934884D+03 0.000000000000000D+00 0.000000000000000D+00 0.339161619934884D+03
 0.339161619934884D+03 -.000000000000000D+00 -.000000000000000D+00 -.339161619934884D+03
 0.236089878981065D+03 0.104877546571158D+03 0.902946598896155D+02 -.144779161407735D+03
 0.169738813807557D+03 -.363389961566485D+02 0.143270901004795D+03 0.222929415292683D+02
 0.272494547081146D+03 -.685385504145098D+02 -.233565560894410D+03 0.122486219878467D+03
 0.000000000000000D+00 0.000000000000000D+00 0.000000000000000D+00 -.000000000000000D+00
 0.339161619934884D+03 0.000000000000000D+00 0.000000000000000D+00 0.339161619934884D+03
 0.339161619934884D+03 -.000000000000000D+00 -.000000000000000D+00 -.339161619934884D+03
 0.217945886346362D+03 0.982200583402341D+02 0.676072822984698D+02 -.132881469344516D+03
 0.158771271185018D+03 -.411559118967572D+02 0.126855823361405D+03 0.309013202724829D+02
 0.257811097880352D+03 -.332516246553132D+02 -.222790105421423D+03 0.125401198456658D+03
 0.437949844580357D+02 -.238125217881636D+02 0.283269997615487D+02 -.234210493846250D+02
0.106597884815D-03 0.000000000000D+00 0.000000000000D+00 0.513794432513D-06 0.000000000000D+00  6 -1 2 25 24 21 21 2 0.78019407D-02 0.34896674D+00 0.89451726D+05 0.89451726D+05 0.89451726D+05 0.11680452D+01  1  2  2  3  6  5       21 0.789413686754D-02 0.100000000000D+01
-.115484003382D-04 0.562532492876D-05 -.409363945557D-06 0.513794432513D-06 0.000000000000D+00  6 -1 2 25 24 21 21 4 0.78019407D-02 0.34896674D+00 0.89451726D+05 0.89451726D+05 0.89451726D+05 0.11680452D+01  1  2  3  3  6  5       21 -.116680206549D-02 0.100000000000D+01
0.417062436265D-05 0.000000000000D+00 0.000000000000D+00 0.513794432513D-06 0.000000000000D+00  6 -1 2 25 24 21 21 4 0.78019407D-02 0.34896674D+00 0.89451726D+05 0.89451726D+05 0.89451726D+05 0.11680452D+01  1  2 15  3  6  5       21 0.421382440703D-03 0.100000000000D+01
-.264328945174D-04 0.000000000000D+00 0.000000000000D+00 0.513794432513D-06 0.000000000000D+00  6 -1 2 25 24 21 21 4 0.78019407D-02 0.34896674D+00 0.89451726D+05 0.89451726D+05 0.89451726D+05 0.11680452D+01  1  2  4  3  6  5       21 -.267066909845D-02 0.100000000000D+01
  </mgrwgt>
  </event>
  <event>
  5     66 0.43535451E-03 0.20200512E+02 0.75467711E-02 0.12459918E+00
       -1 -1    0    0    0  501 0.00000000E+00 0.00000000E+00 0.85175456E+01 0.85235546E+01 0.32000000E+00 0.0000E+00 0.9000E+01
        2 -1    0    0  502    0 -.00000000E+00 -.00000000E+00 -.18079983E+04 0.18079983E+04 0.32000000E+00 0.0000E+00 0.9000E+01
       25  1    1    2    0    0 -.32304504E+02 -.26024608E+02 -.10943491E+04 0.11022458E+04 0.12500000E+03 0.0000E+00 0.9000E+01
       24  1    1    2    0    0 0.12302047E+02 0.23241282E+02 -.65135982E+03 0.65683204E+03 0.80419002E+02 0.0000E+00 0.9000E+01
       21  1    1    2  502  501 0.20002457E+02 0.27833258E+01 -.53771879E+02 0.57444083E+02 0.75000000E+00 0.0000E+00 0.9000E+01
#aMCatNLO 1  0  0  5  5 0.12536875D-01 0.00000000D+00  -5  6  0 0.00000000D+00 0.00000000D+00 0.00000000D+00 0.00000000D+00 0.00000000D+00
  <mgrwgt>
 0.5671031168D+00    9    2    0
 0.124117652599409D+03 0.000000000000000D+00 0.000000000000000D+00 0.124117652599409D+03
 0.124117652599409D+03 -.000000000000000D+00 -.000000000000000D+00 -.124117652599409D+03
 0.132913489573356D+03 -.323077303445194D+02 -.260250570518736D+02 -.178858233246066D+02
 0.847593174965327D+02 0.122999900755980D+02 0.232409961109418D+02 -.504898920764138D+01
 0.305624981289292D+02 0.200077402689214D+02 0.278406094093183D+01 0.229348125322480D+02
 0.000000000000000D+00 -.000000000000000D+00 0.000000000000000D+00 0.000000000000000D+00
 0.124117652599409D+03 0.000000000000000D+00 0.000000000000000D+00 0.124117652599409D+03
 0.124117652599409D+03 -.000000000000000D+00 -.000000000000000D+00 -.124117652599409D+03
 0.132906676208325D+03 -.322916778817252D+02 -.260228233646071D+02 -.178674224347551D+02
 0.847604960683347D+02 0.123102271111974D+02 0.232424205861989D+02 -.503725452450370D+01
 0.305435215363697D+02 0.200009206925230D+02 0.277171171401748D+01 0.229169695524619D+02
 0.246113857877590D-01 -.194699219951014D-01 0.869106439073257D-02 -.122925932030110D-01
0.177352882930D-03 0.000000000000D+00 0.000000000000D+00 0.648132022981D-04 0.000000000000D+00  6 -1 2 25 24 21 21 2 0.13108560D-02 0.27815405D+00 0.13984704D+05 0.13984704D+05 0.13984704D+05 0.12513075D+01  1  2  2  3  6  5       21 0.364891177893D+00 0.100000000000D+01
0.271879716487D-04 0.935916876086D-05 -.681081768538D-06 0.648132022981D-04 0.000000000000D+00  6 -1 2 25 24 21 21 4 0.13108560D-02 0.27815405D+00 0.13984704D+05 0.13984704D+05 0.13984704D+05 0.12513075D+01  1  2  3  3  6  5       21 0.875850559752D-01 0.100000000000D+01
0.715608946039D-05 0.000000000000D+00 0.000000000000D+00 0.648132022981D-04 0.000000000000D+00  6 -1 2 25 24 21 21 4 0.13108560D-02 0.27815405D+00 0.13984704D+05 0.13984704D+05 0.13984704D+05 0.12513075D+01  1  2 15  3  6  5       21 0.230530803861D-01 0.100000000000D+01
-.306921781643D-01 0.000000000000D+00 0.000000000000D+00 0.648132022981D-04 0.000000000000D+00  6 -1 2 25 24 21 21 4 0.13108560D-02 0.27815405D+00 0.13984704D+05 0.13984704D+05 0.13984704D+05 0.12513075D+01  1  2  4  3  6  5       21 -.988737290615D+02 0.100000000000D+01
0.307103755976D-01 0.000000000000D+00 0.000000000000D+00 0.648132022981D-04 0.420952108289D+00  6 -1 2 25 24 21 21 4 0.13108560D-02 0.27815405D+00 0.13985930D+05 0.13985930D+05 0.13985930D+05 0.12513031D+01  1  2 11  3  6  5       21 0.989311629053D+02 0.100000000000D+01
0.252382496909D-05 0.000000000000D+00 0.000000000000D+00 0.648127486494D-04 0.395655960586D-04  6 -1 2 25 24 1 -1 4 0.13108560D-02 0.27815405D+00 0.13985930D+05 0.13985930D+05 0.13985930D+05 0.12513031D+01  1  2 11  6  6  5       21 0.813031212750D-02 0.100000000000D+01
0.269133792148D-05 0.000000000000D+00 0.000000000000D+00 0.648127486494D-04 0.360998339163D-04  6 -1 2 25 24 2 -2 4 0.13108560D-02 0.27815405D+00 0.13985930D+05 0.13985930D+05 0.13985930D+05 0.12513031D+01  1  2 11  7  6  5       21 0.866994249212D-02 0.100000000000D+01
0.269130984243D-05 0.000000000000D+00 0.000000000000D+00 0.648127486494D-04 0.360993467952D-04  6 -1 2 25 24 3 -3 4 0.13108560D-02 0.27815405D+00 0.13985930D+05 0.13985930D+05 0.13985930D+05 0.12513031D+01  1  2 11  8  6  5       21 0.866985203757D-02 0.100000000000D+01
0.269130984243D-05 0.000000000000D+00 0.000000000000D+00 0.648127486494D-04 0.360993467952D-04  6 -1 2 25 24 4 -4 4 0.13108560D-02 0.27815405D+00 0.13985930D+05 0.13985930D+05 0.13985930D+05 0.12513031D+01  1  2 11  8  6  5       21 0.866985203757D-02 0.100000000000D+01
  </mgrwgt>
  </event>
  <event>
  5     66 0.43535451E-03 0.34669235E+02 0.75467711E-02 0.11456361E+00
       -1 -1    0    0    0  501 0.00000000E+00 0.00000000E+00 0.65121159E+02 0.65121945E+02 0.32000000E+00 0.0000E+00 0.9000E+01
        2 -1    0    0  502    0 0.00000000E+00 0.00000000E+00 -.63161274E+03 0.63161282E+03 0.32000000E+00 0.0000E+00 0.9000E+01
       25  1    1    2    0    0 0.13295455E+03 -.54497544E+02 -.30995443E+03 0.36379066E+03 0.12500000E+03 0.0000E+00 0.9000E+01
       24  1    1    2    0    0 -.12589421E+03 0.88433419E+02 -.18648460E+03 0.25478136E+03 0.80419002E+02 0.0000E+00 0.9000E+01
       21  1    1    2  502  501 -.70603413E+01 -.33935875E+02 -.70052547E+02 0.78162740E+02 0.75000000E+00 0.0000E+00 0.9000E+01
#aMCatNLO 1  0  0  2  5 0.10978031D+02 0.00000000D+00  -5  6  0 0.00000000D+00 0.00000000D+00 0.00000000D+00 0.00000000D+00 0.00000000D+00
  <mgrwgt>
 0.9014255441D+00    9    4    0
 0.202809407276507D+03 0.000000000000000D+00 0.000000000000000D+00 0.202809407276507D+03
 0.202809407276507D+03 0.000000000000000D+00 0.000000000000000D+00 -.202809407276507D+03
 0.191999905011088D+03 0.132955259200242D+03 -.544941380669426D+02 -.243362176930641D+02
 0.177194961390688D+03 -.125893555199085D+03 0.884365625856484D+02 0.355052889756794D+02
 0.364239481512387D+02 -.706170400115623D+01 -.339424245187058D+02 -.111690712826153D+02
 0.000000000000000D+00 0.000000000000000D+00 0.000000000000000D+00 -.000000000000000D+00
 0.204462077570476D+03 0.000000000000000D+00 0.000000000000000D+00 0.204462077570476D+03
 0.221972125975073D+03 0.000000000000000D+00 0.000000000000000D+00 -.221972125975073D+03
 0.191680919716802D+03 0.130515564205439D+03 -.590763149833402D+02 -.243362176930641D+02
 0.176748443381077D+03 -.128144160122273D+03 0.842095301291617D+02 0.355052889756794D+02
 0.373379838931128D+02 -.753073087145458D+01 -.348233395932660D+02 -.111690712826153D+02
 0.206668565545574D+02 0.515932678828893D+01 0.969012444744458D+01 -.175100484045971D+02
 0.202809407276507D+03 0.000000000000000D+00 0.000000000000000D+00 0.202809407276507D+03
 0.202809407276507D+03 0.000000000000000D+00 0.000000000000000D+00 -.202809407276507D+03
 0.191999905011088D+03 0.132955259200242D+03 -.544941380669426D+02 -.243362176930641D+02
 0.177194961390688D+03 -.125893555199085D+03 0.884365625856484D+02 0.355052889756794D+02
 0.000000000000000D+00 0.000000000000000D+00 0.000000000000000D+00 -.000000000000000D+00
 0.364239481512387D+02 -.706170400115623D+01 -.339424245187058D+02 -.111690712826153D+02
 0.204462077570476D+03 0.000000000000000D+00 0.000000000000000D+00 0.204462077570476D+03
 0.221972125975073D+03 0.000000000000000D+00 0.000000000000000D+00 -.221972125975073D+03
 0.191680919716802D+03 0.130515564205439D+03 -.590763149833402D+02 -.243362176930641D+02
 0.176748443381077D+03 -.128144160122273D+03 0.842095301291617D+02 0.355052889756794D+02
 0.206668565545574D+02 0.515932678828893D+01 0.969012444744458D+01 -.175100484045971D+02
 0.373379838931128D+02 -.753073087145458D+01 -.348233395932660D+02 -.111690712826153D+02
0.178470213502D-03 0.000000000000D+00 0.000000000000D+00 0.140108341901D-04 0.000000000000D+00  6 -1 2 25 24 21 21 2 0.10018707D-01 0.97171257D-01 0.39744793D+05 0.39744793D+05 0.39744793D+05 0.12022826D+01  1  2  2  2  6  2        2 0.838045852854D-01 0.100000000000D+01
0.342774891197D-04 0.941813191506D-05 -.685372612134D-06 0.140108341901D-04 0.000000000000D+00  6 -1 2 25 24 21 21 4 0.10018707D-01 0.97171257D-01 0.39744793D+05 0.39744793D+05 0.39744793D+05 0.12022826D+01  1  2  3  2  6  2        2 0.232661324581D-01 0.100000000000D+01
0.412961340713D-05 0.000000000000D+00 0.000000000000D+00 0.140108341901D-04 0.000000000000D+00  6 -1 2 25 24 21 21 4 0.10018707D-01 0.97171257D-01 0.39744793D+05 0.39744793D+05 0.39744793D+05 0.12022826D+01  1  2 15  2  6  2        2 0.280300964273D-02 0.100000000000D+01
0.220894142001D-02 0.000000000000D+00 0.000000000000D+00 0.139542786126D-04 0.000000000000D+00  6 -1 2 25 24 21 21 4 0.10018707D-01 0.11259008D+00 0.42000745D+05 0.42000745D+05 0.42000745D+05 0.11998536D+01  1  2 12  2  6  2        2 0.124785735074D+01 0.100000000000D+01
-.128213872980D-02 0.000000000000D+00 0.000000000000D+00 0.140108341901D-04 0.000000000000D+00  6 -1 2 25 24 21 21 4 0.10018707D-01 0.97171257D-01 0.39744793D+05 0.39744793D+05 0.39744793D+05 0.12022826D+01  1  2  4  2  6  2        2 -.870262387454D+00 0.100000000000D+01
-.596698688015D-02 0.000000000000D+00 -.593501141717D-03 0.140108341901D-04 0.000000000000D+00  6 -1 2 25 24 21 21 4 0.10018707D-01 0.10680966D+00 0.39744793D+05 0.39744793D+05 0.39744793D+05 0.12022826D+01  1  2  5  2  6  2        2 -.362043947835D+01 0.100000000000D+01
0.599891309481D-02 0.000000000000D+00 0.590856822726D-03 0.140108341901D-04 0.000000000000D+00  6 -1 2 25 24 21 21 4 0.10018707D-01 0.97171257D-01 0.39744793D+05 0.39744793D+05 0.39744793D+05 0.12022826D+01  1  2  6  2  6  2        2 0.407181244172D+01 0.100000000000D+01
0.498688777508D-04 0.000000000000D+00 0.000000000000D+00 0.139542786126D-04 0.000000000000D+00  6 -1 21 25 24 -2 21 4 0.10018707D-01 0.11259008D+00 0.42000745D+05 0.42000745D+05 0.42000745D+05 0.11998536D+01  3  4 12  5  5  2        2 0.345219603603D-01 0.100000000000D+01
-.905768386131D-04 0.000000000000D+00 -.918453649332D-05 0.140108341901D-04 0.000000000000D+00  6 -1 21 25 24 -2 21 4 0.10018707D-01 0.10680966D+00 0.39744793D+05 0.39744793D+05 0.39744793D+05 0.12022826D+01  3  4  5  5  5  2        2 -.719380702757D-01 0.100000000000D+01
  </mgrwgt>
  </event>
  <event>
  5     66 0.43535451E-03 0.51376995E+02 0.75467711E-02 0.10905553E+00
       -1 -1    0    0    0  501 0.00000000E+00 0.00000000E+00 0.43135481E+02 0.43136667E+02 0.32000000E+00 0.0000E+00 0.9000E+01
        2 -1    0    0  502    0 0.00000000E+00 0.00000000E+00 -.11716485E+04 0.11716485E+04 0.32000000E+00 0.0000E+00 0.9000E+01
       25  1    1    2    0    0 -.28985738E+02 0.11564085E+03 -.66953109E+03 0.69145489E+03 0.12500000E+03 0.0000E+00 0.9000E+01
       24  1    1    2    0    0 0.73276062E+02 -.14167521E+03 -.42687563E+03 0.46274319E+03 0.80419002E+02 0.0000E+00 0.9000E+01
       21  1    1    2  502  501 -.44290323E+02 0.26034356E+02 -.32106252E+02 0.60587081E+02 0.75000000E+00 0.0000E+00 0.9000E+01
#aMCatNLO 1  0  0  1  1 0.15048207D+03 0.00000000D+00  -5  6  0 0.00000000D+00 0.00000000D+00 0.00000000D+00 0.00000000D+00 0.00000000D+00
  <mgrwgt>
 0.8150827780D-01    3    2    0
 0.224811846737384D+03 0.000000000000000D+00 0.000000000000000D+00 0.224811846737384D+03
 0.224811846737384D+03 0.000000000000000D+00 0.000000000000000D+00 -.224811846737384D+03
 0.187700602503070D+03 -.289849855590493D+02 0.115640410906235D+03 -.734416922299204D+02
 0.178814296007325D+03 0.732767790991399D+02 -.141675631028412D+03 0.811576982065077D+01
 0.831087949643727D+02 -.442917935400906D+02 0.260352201221769D+02 0.653259224092697D+02
 0.000000000000000D+00 -.000000000000000D+00 -.000000000000000D+00 -.000000000000000D+00
 0.269660294851433D+03 0.000000000000000D+00 0.000000000000000D+00 0.269660294851433D+03
 0.410770488145564D+03 0.000000000000000D+00 0.000000000000000D+00 -.410770488145564D+03
 0.215931076519754D+03 0.207275122122545D+02 0.158675511301765D+03 -.734416922299204D+02
 0.176070994766725D+03 0.116985524332875D+03 -.103837857357296D+03 0.811576982065077D+01
 0.821353763832992D+02 -.239398218620263D+02 0.436535089565403D+02 0.653259224092697D+02
 0.206293335327217D+03 -.113773214683103D+03 -.984911629010091D+02 -.141110193294131D+03
0.186635200414D-03 0.000000000000D+00 0.000000000000D+00 0.680801859847D-05 0.000000000000D+00  6 -1 2 25 24 21 21 2 0.66363224D-02 0.18025370D+00 0.40550549D+05 0.40550549D+05 0.40550549D+05 0.12013979D+01  1  2  2  1  6  1       -1 0.726409016207D-01 0.100000000000D+01
0.102283216051D-04 0.984901011210D-05 -.716728311765D-06 0.680801859847D-05 0.000000000000D+00  6 -1 2 25 24 21 21 4 0.66363224D-02 0.18025370D+00 0.40550549D+05 0.40550549D+05 0.40550549D+05 0.12013979D+01  1  2  3  1  6  1       -1 0.574600165535D-02 0.100000000000D+01
0.555628494450D-05 0.000000000000D+00 0.000000000000D+00 0.680801859847D-05 0.000000000000D+00  6 -1 2 25 24 21 21 4 0.66363224D-02 0.18025370D+00 0.40550549D+05 0.40550549D+05 0.40550549D+05 0.12013979D+01  1  2 15  1  6  1       -1 0.312137452472D-02 0.100000000000D+01
  </mgrwgt>
  </event>
  <event>
  5     66 0.43535451E-03 0.32511901E+02 0.75467711E-02 0.11887801E+00
       -1 -1    0    0    0  501 0.00000000E+00 0.00000000E+00 0.54795841E+02 0.54796775E+02 0.32000000E+00 0.0000E+00 0.9000E+01
        2 -1    0    0  502    0 -.00000000E+00 -.00000000E+00 -.47894793E+03 0.47894804E+03 0.32000000E+00 0.0000E+00 0.9000E+01
       25  1    1    2    0    0 0.83935292E+02 -.80701829E+02 -.26992436E+03 0.31944026E+03 0.12500000E+03 0.0000E+00 0.9000E+01
       24  1    1    2    0    0 -.59777591E+02 0.58954503E+02 -.12208740E+03 0.16858690E+03 0.80419002E+02 0.0000E+00 0.9000E+01
       21  1    1    2  502  501 -.24157701E+02 0.21747326E+02 -.32140333E+02 0.45717658E+02 0.75000000E+00 0.0000E+00 0.9000E+01
#aMCatNLO 1  0  0  5  2 0.56491467D+01 0.00000000D+00  -5  6  0 0.00000000D+00 0.00000000D+00 0.00000000D+00 0.00000000D+00 0.00000000D+00
  <mgrwgt>
 0.2631614741D+00   19    2    0
 0.162001952898666D+03 0.000000000000000D+00 0.000000000000000D+00 0.162001952898666D+03
 0.162001952898666D+03 -.000000000000000D+00 -.000000000000000D+00 -.162001952898666D+03
 0.172873254621779D+03 0.839385747667395D+02 -.807047846355228D+02 -.264804751956764D+02
 0.117893730997840D+03 -.597753523544655D+02 0.589524881105531D+02 0.195761909138417D+02
 0.332369201777124D+02 -.241632224122740D+02 0.217522965249698D+02 0.690428428183475D+01
 0.000000000000000D+00 0.000000000000000D+00 0.000000000000000D+00 -.000000000000000D+00
 0.162001952898666D+03 0.000000000000000D+00 0.000000000000000D+00 0.162001952898666D+03
 0.162001952898666D+03 -.000000000000000D+00 -.000000000000000D+00 -.162001952898666D+03
 0.170668142721811D+03 0.815996669015081D+02 -.785992452103155D+02 -.258121667832035D+02
 0.119527277036833D+03 -.613917685050585D+02 0.604076236390656D+02 0.200380579790463D+02
 0.565318169143122D+01 0.371700747371324D+01 0.414761967526767D+01 0.969314038908702D+00
 0.281553043472570D+02 -.239249058701629D+02 0.140440018959823D+02 0.480479476524853D+01
0.359891758049D-03 0.000000000000D+00 0.000000000000D+00 0.182603789660D-04 0.000000000000D+00  6 -1 2 25 24 21 21 2 0.84302095D-02 0.73684378D-01 0.25536369D+05 0.25536369D+05 0.25536369D+05 0.12223105D+01  1  2  2  3  6  5       21 0.308300586048D+00 0.100000000000D+01
0.536257003187D-04 0.189920098482D-04 -.138207911258D-05 0.182603789660D-04 0.000000000000D+00  6 -1 2 25 24 21 21 4 0.84302095D-02 0.73684378D-01 0.25536369D+05 0.25536369D+05 0.25536369D+05 0.12223105D+01  1  2  3  3  6  5       21 0.686338703112D-01 0.100000000000D+01
0.684114502147D-05 0.000000000000D+00 0.000000000000D+00 0.182603789660D-04 0.000000000000D+00  6 -1 2 25 24 21 21 4 0.84302095D-02 0.73684378D-01 0.25536369D+05 0.25536369D+05 0.25536369D+05 0.12223105D+01  1  2 15  3  6  5       21 0.875576929334D-02 0.100000000000D+01
0.125880188599D-04 0.000000000000D+00 0.000000000000D+00 0.182582065832D-04 0.000000000000D+00  6 -1 2 25 24 21 21 4 0.84302095D-02 0.73684378D-01 0.25576381D+05 0.25576381D+05 0.25576381D+05 0.12222378D+01  1  2 12  3  6  5       21 0.161078306575D-01 0.100000000000D+01
0.135944091515D-04 0.000000000000D+00 0.000000000000D+00 0.182582065832D-04 0.000000000000D+00  6 -1 2 25 24 21 21 4 0.84302095D-02 0.73684378D-01 0.25576381D+05 0.25576381D+05 0.25576381D+05 0.12222378D+01  1  2 12  3  6  5       21 0.173956238022D-01 0.100000000000D+01
-.165223744355D-03 0.000000000000D+00 0.000000000000D+00 0.182603789660D-04 0.000000000000D+00  6 -1 2 25 24 21 21 4 0.84302095D-02 0.73684378D-01 0.25536369D+05 0.25536369D+05 0.25536369D+05 0.12223105D+01  1  2  4  3  6  5       21 -.211464744982D+00 0.100000000000D+01
0.601812059567D-05 0.000000000000D+00 0.000000000000D+00 0.182603789660D-04 0.230869773244D-05  6 -1 2 25 24 21 21 4 0.84302095D-02 0.73684378D-01 0.25576381D+05 0.25576381D+05 0.25576381D+05 0.12222378D+01  1  2 11  3  6  5       21 0.770088355528D-02 0.100000000000D+01
0.295251128954D-05 0.000000000000D+00 0.000000000000D+00 0.182582065832D-04 0.000000000000D+00  6 -1 2 25 24 1 -1 4 0.84302095D-02 0.73684378D-01 0.25576381D+05 0.25576381D+05 0.25576381D+05 0.12222378D+01  1  2 12  6  6  5       21 0.377808076042D-02 0.100000000000D+01
0.303714648107D-05 0.000000000000D+00 0.000000000000D+00 0.182582065832D-04 0.000000000000D+00  6 -1 2 25 24 1 -1 4 0.84302095D-02 0.73684378D-01 0.25576381D+05 0.25576381D+05 0.25576381D+05 0.12222378D+01  1  2 12  6  6  5       21 0.388638130780D-02 0.100000000000D+01
0.336322860116D-05 0.000000000000D+00 0.000000000000D+00 0.182582065832D-04 0.759557208061D-07  6 -1 2 25 24 1 -1 4 0.84302095D-02 0.73684378D-01 0.25576381D+05 0.25576381D+05 0.25576381D+05 0.12222378D+01  1  2 11  6  6  5       21 0.430364121417D-02 0.100000000000D+01
0.295251128954D-05 0.000000000000D+00 0.000000000000D+00 0.182582065832D-04 0.000000000000D+00  6 -1 2 25 24 2 -2 4 0.84302095D-02 0.73684378D-01 0.25576381D+05 0.25576381D+05 0.25576381D+05 0.12222378D+01  1  2 12  7  6  5       21 0.377808076042D-02 0.100000000000D+01
0.303714648107D-05 0.000000000000D+00 0.000000000000D+00 0.182582065832D-04 0.000000000000D+00  6 -1 2 25 24 2 -2 4 0.84302095D-02 0.73684378D-01 0.25576381D+05 0.25576381D+05 0.25576381D+05 0.12222378D+01  1  2 12  7  6  5       21 0.388638130780D-02 0.100000000000D+01
0.325294637131D-05 0.000000000000D+00 0.000000000000D+00 0.182582065832D-04 0.778899728761D-07  6 -1 2 25 24 2 -2 4 0.84302095D-02 0.73684378D-01 0.25576381D+05 0.25576381D+05 0.25576381D+05 0.12222378D+01  1  2 11  7  6  5       21 0.416252230556D-02 0.100000000000D+01
0.295251128954D-05 0.000000000000D+00 0.000000000000D+00 0.182582065832D-04 0.000000000000D+00  6 -1 2 25 24 3 -3 4 0.84302095D-02 0.73684378D-01 0.25576381D+05 0.25576381D+05 0.25576381D+05 0.12222378D+01  1  2 12  8  6  5       21 0.377808076042D-02 0.100000000000D+01
0.295251128954D-05 0.000000000000D+00 0.000000000000D+00 0.182582065832D-04 0.000000000000D+00  6 -1 2 25 24 4 -4 4 0.84302095D-02 0.73684378D-01 0.25576381D+05 0.25576381D+05 0.25576381D+05 0.12222378D+01  1  2 12  8  6  5       21 0.377808076042D-02 0.100000000000D+01
0.303714648107D-05 0.000000000000D+00 0.000000000000D+00 0.182582065832D-04 0.000000000000D+00  6 -1 2 25 24 3 -3 4 0.84302095D-02 0.73684378D-01 0.25576381D+05 0.25576381D+05 0.25576381D+05 0.12222378D+01  1  2 12  8  6  5       21 0.388638130780D-02 0.100000000000D+01
0.303714648107D-05 0.000000000000D+00 0.000000000000D+00 0.182582065832D-04 0.000000000000D+00  6 -1 2 25 24 4 -4 4 0.84302095D-02 0.73684378D-01 0.25576381D+05 0.25576381D+05 0.25576381D+05 0.12222378D+01  1  2 12  8  6  5       21 0.388638130780D-02 0.100000000000D+01
0.336336971778D-05 0.000000000000D+00 0.000000000000D+00 0.182582065832D-04 0.751449541210D-07  6 -1 2 25 24 3 -3 4 0.84302095D-02 0.73684378D-01 0.25576381D+05 0.25576381D+05 0.25576381D+05 0.12222378D+01  1  2 11  8  6  5       21 0.430382178926D-02 0.100000000000D+01
0.336336971778D-05 0.000000000000D+00 0.000000000000D+00 0.182582065832D-04 0.751449541210D-07  6 -1 2 25 24 4 -4 4 0.84302095D-02 0.73684378D-01 0.25576381D+05 0.25576381D+05 0.25576381D+05 0.12222378D+01  1  2 11  8  6  5       21 0.430382178926D-02 0.100000000000D+01
  </mgrwgt>
  </event>
  <event>
  6     66 -.43535451E-03 0.78141659E+01 0.75467711E-02 0.11988905E+00
       -1 -1    0    0    0  501 0.00000000E+00 0.00000000E+00 0.14999530E+02 0.15002943E+02 0.32000000E+00 0.0000E+00 0.9000E+01
        2 -1    0    0  502    0 -.00000000E+00 -.00000000E+00 -.15503846E+04 0.15503846E+04 0.32000000E+00 0.0000E+00 0.9000E+01
       25  1    1    2    0    0 0.56070075E+02 0.60530073E+02 -.84332341E+03 0.85652035E+03 0.12500000E+03 0.0000E+00 0.9000E+01
       24  1    1    2    0    0 -.66628693E+02 -.50968665E+02 -.50021357E+03 0.51353483E+03 0.80419002E+02 0.0000E+00 0.9000E+01
       21  1    1    2  503  501 0.11396385E+02 0.24417610E+01 -.16981968E+03 0.17022081E+03 0.75000000E+00 0.0000E+00 0.9000E+01
       21  1    1    2  502  503 -.83776653E+00 -.12003169E+02 -.22028393E+02 0.25111561E+02 0.75000000E+00 0.0000E+00 0.9000E+01
#aMCatNLO 2  0  0  5  2 0.16909695D+02 0.00000000D+00  -5  6  0 0.00000000D+00 0.00000000D+00 0.00000000D+00 0.00000000D+00 0.00000000D+00
  <mgrwgt>
 -.2126707784D+00    2    2    0
 0.152504873836762D+03 0.000000000000000D+00 0.000000000000000D+00 0.152504873836762D+03
 0.152504873836762D+03 -.000000000000000D+00 -.000000000000000D+00 -.152504873836762D+03
 0.150936021145951D+03 0.475659627918774D+02 0.682310124801922D+02 -.154496148489404D+02
 0.119198992844845D+03 -.733043943285881D+02 -.449234510843608D+02 0.186958085047127D+02
 0.348747336827276D+02 0.257384315367107D+02 -.233075613958314D+02 -.324619365577232D+01
 0.000000000000000D+00 0.000000000000000D+00 0.000000000000000D+00 0.000000000000000D+00
 0.152504873836762D+03 0.000000000000000D+00 0.000000000000000D+00 0.152504873836762D+03
 0.152504873836762D+03 -.000000000000000D+00 -.000000000000000D+00 -.152504873836762D+03
 0.150684047601821D+03 0.560636244285063D+02 0.605359138089994D+02 -.165213606254606D+02
 0.117572923357293D+03 -.666337253731197D+02 -.509641076802800D+02 0.178544874936747D+02
 0.180853907771588D+02 0.101260120010230D+02 0.361001718223703D+01 -.145434870805331D+02
 0.186673859372520D+02 0.444088943590401D+00 -.131818233109564D+02 0.132103602123190D+02
-.588333093202D-04 0.000000000000D+00 0.000000000000D+00 0.172741292896D-04 0.000000000000D+00  6 -1 2 25 24 21 21 4 0.23078850D-02 0.23852097D+00 0.21014053D+05 0.21014053D+05 0.21014053D+05 0.12314683D+01  1  2 13  3  6  5       21 -.107715400736D+00 0.100000000000D+01
-.573258063015D-04 0.000000000000D+00 0.000000000000D+00 0.172741292896D-04 0.000000000000D+00  6 -1 2 25 24 21 21 4 0.23078850D-02 0.23852097D+00 0.21014053D+05 0.21014053D+05 0.21014053D+05 0.12314683D+01  1  2 13  3  6  5       21 -.104955377653D+00 0.100000000000D+01
  </mgrwgt>
  </event>
  <event>
  6     66 0.43535451E-03 0.32841825E+02 0.75467711E-02 0.11735734E+00
       -1 -1    0    0    0  501 0.00000000E+00 0.00000000E+00 0.54638611E+02 0.54639548E+02 0.32000000E+00 0.0000E+00 0.9000E+01
        2 -1    0    0  503    0 0.00000000E+00 0.00000000E+00 -.58963963E+03 0.58963972E+03 0.32000000E+00 0.0000E+00 0.9000E+01
       25  1    1    2    0    0 0.19343659E+02 0.99914055E+02 -.25897512E+03 0.30504116E+03 0.12500000E+03 0.0000E+00 0.9000E+01
       24  1    1    2    0    0 -.23041529E+02 -.76203530E+02 -.21309827E+03 0.24127987E+03 0.80419002E+02 0.0000E+00 0.9000E+01
       21  1    1    2  502  501 0.27271328E+02 -.37725669E+02 -.31353724E+02 0.56129938E+02 0.75000000E+00 0.0000E+00 0.9000E+01
       21  1    1    2  503  502 -.23573458E+02 0.14015144E+02 -.31573911E+02 0.41828298E+02 0.75000000E+00 0.0000E+00 0.9000E+01
#aMCatNLO 2  0  0  2  2 0.27425029D+02 0.00000000D+00  -5  6  0 0.00000000D+00 0.00000000D+00 0.00000000D+00 0.00000000D+00 0.00000000D+00
  <mgrwgt>
 0.2205374336D-01    1    2    0
 0.164891011655537D+03 0.000000000000000D+00 0.000000000000000D+00 0.164891011655537D+03
 0.164891011655537D+03 0.000000000000000D+00 0.000000000000000D+00 -.164891011655537D+03
 0.164781478060839D+03 0.770591907751378D+01 0.106834205029110D+03 -.741666764010283D+01
 0.113877899791855D+03 -.312112281416905D+02 -.713455938418992D+02 -.208955876650417D+02
 0.511226454583795D+02 0.235053090641767D+02 -.354886111872108D+02 0.283122553051445D+02
 0.000000000000000D+00 -.000000000000000D+00 0.000000000000000D+00 0.000000000000000D+00
 0.182589280171284D+03 0.000000000000000D+00 0.000000000000000D+00 0.182589280171284D+03
 0.176437621634924D+03 0.000000000000000D+00 0.000000000000000D+00 -.176437621634924D+03
 0.161360863324342D+03 0.193424782069215D+02 0.999159136009275D+02 -.741666764010283D+01
 0.115072018342182D+03 -.230424351885139D+02 -.762021918824434D+02 -.208955876650417D+02
 0.544875243274835D+02 0.272734152847933D+02 -.377288659460847D+02 0.283122553051445D+02
 0.281064958121991D+02 -.235734583032009D+02 0.140151442276005D+02 0.615165853635996D+01
0.221341716338D-04 0.000000000000D+00 0.000000000000D+00 0.115763203889D-04 0.272541274850D-07  6 -1 2 25 24 21 21 4 0.84057839D-02 0.90711331D-01 0.30333208D+05 0.30333208D+05 0.30333208D+05 0.12143952D+01  1  2  1  2  6  2        2 0.220537433582D-01 0.100000000000D+01
  </mgrwgt>
  </event>
  <event>
  5     66 0.43535451E-03 0.28066158E+02 0.75467711E-02 0.10894192E+00
       -1 -1    0    0    0  501 0.00000000E+00 0.00000000E+00 0.34318936E+02 0.34320428E+02 0.32000000E+00 0.0000E+00 0.9000E+01
        2 -1    0    0  502    0 0.00000000E+00 0.00000000E+00 -.12225701E+04 0.12225701E+04 0.32000000E+00 0.0000E+00 0.9000E+01
       25  1    1    2    0    0 -.11092409E+03 0.95826015E+02 -.75203098E+03 0.77631332E+03 0.12500000E+03 0.0000E+00 0.9000E+01
       24  1    1    2    0    0 0.13181757E+03 -.77097132E+02 -.39032022E+03 0.42677503E+03 0.80419002E+02 0.0000E+00 0.9000E+01
       21  1    1    2  502  501 -.20893482E+02 -.18728883E+02 -.45899953E+02 0.53802200E+02 0.75000000E+00 0.0000E+00 0.9000E+01
#aMCatNLO 1  0  0  1  1 0.16069071D+03 0.00000000D+00  -5  6  0 0.00000000D+00 0.00000000D+00 0.00000000D+00 0.00000000D+00 0.00000000D+00
  <mgrwgt>
 0.1290981211D+00    5    4    0
 0.204837174472878D+03 0.000000000000000D+00 0.000000000000000D+00 0.204837174472878D+03
 0.204837174472878D+03 0.000000000000000D+00 0.000000000000000D+00 -.204837174472878D+03
 0.200498994167722D+03 -.110921270678553D+03 0.958285439358522D+02 -.555716523099483D+02
 0.177241393685025D+03 0.131820067361811D+03 -.770948968536301D+02 0.403378532013718D+02
 0.319339610930099D+02 -.208987966832579D+02 -.187336470822221D+02 0.152337991085765D+02
 0.000000000000000D+00 -.000000000000000D+00 -.000000000000000D+00 0.000000000000000D+00
 0.556719751021355D+03 0.000000000000000D+00 0.000000000000000D+00 0.556719751021355D+03
 0.239204134329583D+03 0.000000000000000D+00 0.000000000000000D+00 -.239204134329583D+03
 0.207473895310420D+03 -.529437065475313D+02 0.146728227113361D+03 -.555716523099483D+02
 0.209293535312248D+03 0.186751054721009D+03 -.288698654105634D+02 0.403378532013718D+02
 0.232945837898274D+02 -.130501955007050D+02 -.118432004143391D+02 0.152337991085765D+02
 0.355861870938443D+03 -.120757152672772D+03 -.106015161288459D+03 0.317515616691772D+03
 0.204837174472878D+03 0.000000000000000D+00 0.000000000000000D+00 0.204837174472878D+03
 0.204837174472878D+03 0.000000000000000D+00 0.000000000000000D+00 -.204837174472878D+03
 0.200498994167722D+03 -.110921270678553D+03 0.958285439358522D+02 -.555716523099483D+02
 0.177241393685025D+03 0.131820067361811D+03 -.770948968536301D+02 0.403378532013718D+02
 0.000000000000000D+00 -.000000000000000D+00 -.000000000000000D+00 0.000000000000000D+00
 0.319339610930099D+02 -.208987966832579D+02 -.187336470822221D+02 0.152337991085765D+02
 0.556719751021355D+03 0.000000000000000D+00 0.000000000000000D+00 0.556719751021355D+03
 0.239204134329583D+03 0.000000000000000D+00 0.000000000000000D+00 -.239204134329583D+03
 0.207473895310420D+03 -.529437065475313D+02 0.146728227113361D+03 -.555716523099483D+02
 0.209293535312248D+03 0.186751054721009D+03 -.288698654105634D+02 0.403378532013718D+02
 0.355861870938443D+03 -.120757152672772D+03 -.106015161288459D+03 0.317515616691772D+03
 0.232945837898274D+02 -.130501955007050D+02 -.118432004143391D+02 0.152337991085765D+02
0.442228515224D-03 0.000000000000D+00 0.000000000000D+00 0.204882234243D-04 0.000000000000D+00  6 -1 2 25 24 21 21 2 0.52799543D-02 0.18808782D+00 0.38671251D+05 0.38671251D+05 0.38671251D+05 0.12034930D+01  1  2  2  1  6  1       -1 0.227921626213D+00 0.100000000000D+01
0.106501333562D-03 0.233370398974D-04 -.169827393990D-05 0.204882234243D-04 0.000000000000D+00  6 -1 2 25 24 21 21 4 0.52799543D-02 0.18808782D+00 0.38671251D+05 0.38671251D+05 0.38671251D+05 0.12034930D+01  1  2  3  1  6  1       -1 0.795025385683D-01 0.100000000000D+01
0.945101161781D-05 0.000000000000D+00 0.000000000000D+00 0.204882234243D-04 0.000000000000D+00  6 -1 2 25 24 21 21 4 0.52799543D-02 0.18808782D+00 0.38671251D+05 0.38671251D+05 0.38671251D+05 0.12034930D+01  1  2 15  1  6  1       -1 0.705511743867D-02 0.100000000000D+01
-.579205032823D-03 0.000000000000D+00 -.216506356872D-03 0.204882234243D-04 0.000000000000D+00  6 -1 2 25 24 21 21 4 0.16742382D-01 0.18808782D+00 0.38671251D+05 0.38671251D+05 0.38671251D+05 0.12034930D+01  1  2  5  1  6  1       -1 -.732441289908D-01 0.100000000000D+01
-.672627358142D-04 0.000000000000D+00 -.287256727070D-04 0.204882234243D-04 0.000000000000D+00  6 21 2 25 24 1 21 4 0.16742382D-01 0.18808782D+00 0.38671251D+05 0.38671251D+05 0.38671251D+05 0.12034930D+01  3  4  5  4  5  1       -1 -.112137032079D+00 0.100000000000D+01
  </mgrwgt>
  </event>
  <event>
  5     66 0.43535451E-03 0.58305854E+02 0.75467711E-02 0.10919694E+00
       -1 -1    0    0    0  501 0.00000000E+00 0.00000000E+00 0.67202658E+03 0.67202665E+03 0.32000000E+00 0.0000E+00 0.9000E+01
        2 -1    0    0  502    0 0.00000000E+00 0.00000000E+00 -.34855936E+02 0.34857405E+02 0.32000000E+00 0.0000E+00 0.9000E+01
       25  1    1    2    0    0 -.15822965E+01 -.15824335E+02 0.45022466E+03 0.46752557E+03 0.12500000E+03 0.0000E+00 0.9000E+01
       24  1    1    2    0    0 -.12787499E+02 -.40679907E+02 0.11905771E+03 0.14986771E+03 0.80419002E+02 0.0000E+00 0.9000E+01
       21  1    1    2  502  501 0.14369796E+02 0.56504242E+02 0.67888261E+02 0.89490775E+02 0.75000000E+00 0.0000E+00 0.9000E+01
#aMCatNLO 1  0  0  1  2 0.78686173D+02 0.00000000D+00  -5  6  0 0.00000000D+00 0.00000000D+00 0.00000000D+00 0.00000000D+00 0.00000000D+00
  <mgrwgt>
 0.9917430574D-01    5    4    0
 0.153051173189559D+03 0.000000000000000D+00 0.000000000000000D+00 0.153051173189559D+03
 0.153051173189559D+03 0.000000000000000D+00 0.000000000000000D+00 -.153051173189559D+03
 0.142490336665158D+03 -.158273712095405D+01 -.158260673461950D+02 0.665246313669588D+02
 0.982648653777631D+02 -.127878032672216D+02 -.406811014499221D+02 -.370173997703696D+02
 0.653471443361973D+02 0.143705403881756D+02 0.565071687961171D+02 -.295072315965892D+02
 0.000000000000000D+00 -.000000000000000D+00 -.000000000000000D+00 0.000000000000000D+00
 0.419863677003824D+03 0.000000000000000D+00 0.000000000000000D+00 0.419863677003824D+03
 0.242050205942205D+03 0.000000000000000D+00 0.000000000000000D+00 -.242050205942205D+03
 0.164834779699259D+03 0.355164377158767D+02 0.765412351087170D+02 0.665246313669588D+02
 0.905291484798448D+02 0.100027262251521D+02 0.160613932278789D+02 -.370173997703696D+02
 0.122488098566569D+03 0.370453305237960D+02 0.112961502558798D+03 -.295072315965892D+02
 0.284061856200356D+03 -.825644944648248D+02 -.205564130895394D+03 0.177813471061618D+03
 0.153051173189559D+03 0.000000000000000D+00 0.000000000000000D+00 0.153051173189559D+03
 0.153051173189559D+03 0.000000000000000D+00 0.000000000000000D+00 -.153051173189559D+03
 0.142490336665158D+03 -.158273712095405D+01 -.158260673461950D+02 0.665246313669588D+02
 0.982648653777631D+02 -.127878032672216D+02 -.406811014499221D+02 -.370173997703696D+02
 0.000000000000000D+00 -.000000000000000D+00 -.000000000000000D+00 0.000000000000000D+00
 0.653471443361973D+02 0.143705403881756D+02 0.565071687961171D+02 -.295072315965892D+02
 0.419863677003824D+03 0.000000000000000D+00 0.000000000000000D+00 0.419863677003824D+03
 0.242050205942205D+03 0.000000000000000D+00 0.000000000000000D+00 -.242050205942205D+03
 0.164834779699259D+03 0.355164377158767D+02 0.765412351087170D+02 0.665246313669588D+02
 0.905291484798448D+02 0.100027262251521D+02 0.160613932278789D+02 -.370173997703696D+02
 0.284061856200356D+03 -.825644944648248D+02 -.205564130895394D+03 0.177813471061618D+03
 0.122488098566569D+03 0.370453305237960D+02 0.112961502558798D+03 -.295072315965892D+02
0.416890156634D-03 0.000000000000D+00 0.000000000000D+00 0.647286881151D-05 0.000000000000D+00  6 -1 2 25 24 21 21 2 0.10338882D+00 0.53625706D-02 0.18952955D+05 0.18952955D+05 0.18952955D+05 0.12364053D+01  1  2  2  1  6  1       -1 0.951132327720D-01 0.100000000000D+01
-.129583249963D-04 0.219998979786D-04 -.160096797117D-05 0.647286881151D-05 0.000000000000D+00  6 -1 2 25 24 21 21 4 0.10338882D+00 0.53625706D-02 0.18952955D+05 0.18952955D+05 0.18952955D+05 0.12364053D+01  1  2  3  1  6  1       -1 -.451949493788D-02 0.100000000000D+01
0.218021214281D-04 0.000000000000D+00 0.000000000000D+00 0.647286881151D-05 0.000000000000D+00  6 -1 2 25 24 21 21 4 0.10338882D+00 0.53625706D-02 0.18952955D+05 0.18952955D+05 0.18952955D+05 0.12364053D+01  1  2 15  1  6  1       -1 0.760395942049D-02 0.100000000000D+01
0.291764743902D-04 0.000000000000D+00 -.189642452171D-03 0.647286881151D-05 0.000000000000D+00  6 -1 2 25 24 21 21 4 0.35401933D+00 0.53625706D-02 0.18952955D+05 0.18952955D+05 0.18952955D+05 0.12364053D+01  1  2  5  1  6  1       -1 0.204306871543D-03 0.100000000000D+01
0.108037840338D-04 0.000000000000D+00 -.272076294117D-04 0.647286881151D-05 0.000000000000D+00  6 21 2 25 24 1 21 4 0.35401933D+00 0.53625706D-02 0.18952955D+05 0.18952955D+05 0.18952955D+05 0.12364053D+01  3  4  5  4  5  1       -1 0.772301613564D-03 0.100000000000D+01
  </mgrwgt>
  </event>
  <event>
  5     66 0.43535451E-03 0.13675323E+03 0.75467711E-02 0.10073992E+00
       -1 -1    0    0    0  501 0.00000000E+00 0.00000000E+00 0.61007724E+03 0.61007733E+03 0.32000000E+00 0.0000E+00 0.9000E+01
        2 -1    0    0  502    0 -.00000000E+00 -.00000000E+00 -.99320025E+03 0.99320030E+03 0.32000000E+00 0.0000E+00 0.9000E+01
       25  1    1    2    0    0 -.49871712E+03 -.77723717E+02 0.38088752E+03 0.64456190E+03 0.12500000E+03 0.0000E+00 0.9000E+01
       24  1    1    2    0    0 0.38826562E+03 -.29076231E+01 -.70690370E+03 0.81051755E+03 0.80419002E+02 0.0000E+00 0.9000E+01
       21  1    1    2  502  501 0.11045150E+03 0.80631341E+02 -.57106824E+02 0.14819817E+03 0.75000000E+00 0.0000E+00 0.9000E+01
#aMCatNLO 1  0  0  5  2 0.37023034D+02 0.00000000D+00  -5  6  0 0.00000000D+00 0.00000000D+00 0.00000000D+00 0.00000000D+00 0.00000000D+00
  <mgrwgt>
 0.1866335284D+01   14    2    0
 0.778414399016690D+03 0.000000000000000D+00 0.000000000000000D+00 0.778414399016690D+03
 0.778414399016690D+03 -.000000000000000D+00 -.000000000000000D+00 -.778414399016690D+03
 0.757526790358749D+03 -.498717907588629D+03 -.777242921521801D+02 0.550873144354569D+03
 0.660735973438981D+03 0.388264937544386D+03 -.290812433762427D+01 -.528532583412299D+03
 0.138566034235649D+03 0.110452970044244D+03 0.806324164898044D+02 -.223405609422700D+02
 0.000000000000000D+00 0.000000000000000D+00 0.000000000000000D+00 0.000000000000000D+00
 0.778414399016690D+03 0.000000000000000D+00 0.000000000000000D+00 0.778414399016690D+03
 0.778414399016690D+03 -.000000000000000D+00 -.000000000000000D+00 -.778414399016690D+03
 0.732091652042172D+03 -.469288488798433D+03 -.562403505977479D+02 0.544920658661205D+03
 0.681041731957687D+03 0.414773563439096D+03 0.164435921699401D+02 -.533894300458562D+03
 0.995585516614736D+02 0.935610495814369D+02 0.239613206793654D+02 -.241679606390532D+02
 0.441368623720482D+02 -.390461242220998D+02 0.158354377484425D+02 0.131416024364107D+02
0.171184303420D+00 0.000000000000D+00 0.000000000000D+00 0.292778209757D-06 0.000000000000D+00  6 -1 2 25 24 21 21 2 0.93858048D-01 0.15280005D+00 0.27733700D+06 0.27733700D+06 0.27733700D+06 0.11249446D+01  1  2  2  3  6  5       21 0.728400691540D+00 0.100000000000D+01
0.124964261670D-01 0.903364387684D-02 -.657392798996D-03 0.292778209757D-06 0.000000000000D+00  6 -1 2 25 24 21 21 4 0.93858048D-01 0.15280005D+00 0.27733700D+06 0.27733700D+06 0.27733700D+06 0.11249446D+01  1  2  3  3  6  5       21 0.672906166074D-01 0.100000000000D+01
0.442325970396D-02 0.000000000000D+00 0.000000000000D+00 0.292778209757D-06 0.000000000000D+00  6 -1 2 25 24 21 21 4 0.93858048D-01 0.15280005D+00 0.27733700D+06 0.27733700D+06 0.27733700D+06 0.11249446D+01  1  2 15  3  6  5       21 0.238183196473D-01 0.100000000000D+01
0.126983379906D+00 0.000000000000D+00 0.000000000000D+00 0.292878820310D-06 0.000000000000D+00  6 -1 2 25 24 21 21 4 0.93858048D-01 0.15280005D+00 0.27585059D+06 0.27585059D+06 0.27585059D+06 0.11251379D+01  1  2 12  3  6  5       21 0.684403459311D+00 0.100000000000D+01
0.112658890475D+00 0.000000000000D+00 0.000000000000D+00 0.292878820310D-06 0.000000000000D+00  6 -1 2 25 24 21 21 4 0.93858048D-01 0.15280005D+00 0.27585059D+06 0.27585059D+06 0.27585059D+06 0.11251379D+01  1  2 12  3  6  5       21 0.607198630408D+00 0.100000000000D+01
-.618406390202D-01 0.000000000000D+00 0.000000000000D+00 0.292778209757D-06 0.000000000000D+00  6 -1 2 25 24 21 21 4 0.93858048D-01 0.15280005D+00 0.27733700D+06 0.27733700D+06 0.27733700D+06 0.11249446D+01  1  2  4  3  6  5       21 -.332998785049D+00 0.100000000000D+01
0.209680567058D-02 0.000000000000D+00 0.000000000000D+00 0.292878820310D-06 0.000000000000D+00  6 -1 2 25 24 1 -1 4 0.93858048D-01 0.15280005D+00 0.27585059D+06 0.27585059D+06 0.27585059D+06 0.11251379D+01  1  2 12  6  6  5       21 0.113011722913D-01 0.100000000000D+01
0.199536110240D-02 0.000000000000D+00 0.000000000000D+00 0.292878820310D-06 0.000000000000D+00  6 -1 2 25 24 1 -1 4 0.93858048D-01 0.15280005D+00 0.27585059D+06 0.27585059D+06 0.27585059D+06 0.11251379D+01  1  2 12  6  6  5       21 0.107544155941D-01 0.100000000000D+01
0.209680567058D-02 0.000000000000D+00 0.000000000000D+00 0.292878820310D-06 0.000000000000D+00  6 -1 2 25 24 2 -2 4 0.93858048D-01 0.15280005D+00 0.27585059D+06 0.27585059D+06 0.27585059D+06 0.11251379D+01  1  2 12  7  6  5       21 0.113011722913D-01 0.100000000000D+01
0.199536110240D-02 0.000000000000D+00 0.000000000000D+00 0.292878820310D-06 0.000000000000D+00  6 -1 2 25 24 2 -2 4 0.93858048D-01 0.15280005D+00 0.27585059D+06 0.27585059D+06 0.27585059D+06 0.11251379D+01  1  2 12  7  6  5       21 0.107544155941D-01 0.100000000000D+01
0.209680567058D-02 0.000000000000D+00 0.000000000000D+00 0.292878820310D-06 0.000000000000D+00  6 -1 2 25 24 3 -3 4 0.93858048D-01 0.15280005D+00 0.27585059D+06 0.27585059D+06 0.27585059D+06 0.11251379D+01  1  2 12  8  6  5       21 0.113011722913D-01 0.100000000000D+01
0.209680567058D-02 0.000000000000D+00 0.000000000000D+00 0.292878820310D-06 0.000000000000D+00  6 -1 2 25 24 4 -4 4 0.93858048D-01 0.15280005D+00 0.27585059D+06 0.27585059D+06 0.27585059D+06 0.11251379D+01  1  2 12  8  6  5       21 0.113011722913D-01 0.100000000000D+01
0.199536110240D-02 0.000000000000D+00 0.000000000000D+00 0.292878820310D-06 0.000000000000D+00  6 -1 2 25 24 3 -3 4 0.93858048D-01 0.15280005D+00 0.27585059D+06 0.27585059D+06 0.27585059D+06 0.11251379D+01  1  2 12  8  6  5       21 0.107544155941D-01 0.100000000000D+01
0.199536110240D-02 0.000000000000D+00 0.000000000000D+00 0.292878820310D-06 0.000000000000D+00  6 -1 2 25 24 4 -4 4 0.93858048D-01 0.15280005D+00 0.27585059D+06 0.27585059D+06 0.27585059D+06 0.11251379D+01  1  2 12  8  6  5       21 0.107544155941D-01 0.100000000000D+01
  </mgrwgt>
  </event>
  <event>
  5     66 0.43535451E-03 0.49821590E+02 0.75467711E-02 0.12089152E+00
       -1 -1    0    0    0  501 0.00000000E+00 0.00000000E+00 0.99664745E+02 0.99665259E+02 0.32000000E+00 0.0000E+00 0.9000E+01
        2 -1    0    0  502    0 -.00000000E+00 -.00000000E+00 -.20680127E+03 0.20680152E+03 0.32000000E+00 0.0000E+00 0.9000E+01
       25  1    1    2    0    0 -.30475520E+02 -.65195713E+02 -.62161047E+02 0.15706124E+03 0.12500000E+03 0.0000E+00 0.9000E+01
       24  1    1    2    0    0 0.42722865E+02 0.16907701E+02 -.30785035E+02 0.97601475E+02 0.80419002E+02 0.0000E+00 0.9000E+01
       21  1    1    2  502  501 -.12247345E+02 0.48288012E+02 -.14190447E+02 0.51804062E+02 0.75000000E+00 0.0000E+00 0.9000E+01
#aMCatNLO 1  0  0  5  1 0.17627244D+01 0.00000000D+00  -5  6  0 0.00000000D+00 0.00000000D+00 0.00000000D+00 0.00000000D+00 0.00000000D+00
  <mgrwgt>
 0.2721321063D+00   13    2    0
 0.143565012567160D+03 0.000000000000000D+00 0.000000000000000D+00 0.143565012567160D+03
 0.143565012567160D+03 -.000000000000000D+00 -.000000000000000D+00 -.143565012567160D+03
 0.144445536488967D+03 -.304748269923273D+02 -.651984464916018D+02 -.774341697540368D+01
 0.926875313972186D+02 0.427233098351398D+02 0.169059468322968D+02 0.355953375795926D+01
 0.499969572481351D+02 -.122484828428125D+02 0.482924996593049D+02 0.418388321744440D+01
 0.000000000000000D+00 0.000000000000000D+00 0.000000000000000D+00 0.000000000000000D+00
 0.143565012567160D+03 0.000000000000000D+00 0.000000000000000D+00 0.143565012567160D+03
 0.143565012567160D+03 -.000000000000000D+00 -.000000000000000D+00 -.143565012567160D+03
 0.144442409045433D+03 -.304767978171836D+02 -.651906760550569D+02 -.774274377357562D+01
 0.926878746685495D+02 0.427220451840400D+02 0.169109330141438D+02 0.355996574227765D+01
 0.237849311228235D-01 -.488161643078999D-02 0.870648475820174D-02 -.215891151523129D-01
 0.499759564892157D+02 -.122403657504256D+02 0.482710365561548D+02 0.420436714645027D+01
0.238026020580D-03 0.000000000000D+00 0.000000000000D+00 0.976082763277D-05 0.000000000000D+00  6 -1 2 25 24 21 21 2 0.15333096D-01 0.31815639D-01 0.20546152D+05 0.20546152D+05 0.20546152D+05 0.12325400D+01  1  2  2  3  6  5       21 0.201391528362D+00 0.100000000000D+01
0.390943402695D-05 0.125609781994D-04 -.914082592719D-06 0.976082763277D-05 0.000000000000D+00  6 -1 2 25 24 21 21 4 0.15333096D-01 0.31815639D-01 0.20546152D+05 0.20546152D+05 0.20546152D+05 0.12325400D+01  1  2  3  3  6  5       21 0.502496099034D-02 0.100000000000D+01
0.362003221593D-05 0.000000000000D+00 0.000000000000D+00 0.976082763277D-05 0.000000000000D+00  6 -1 2 25 24 21 21 4 0.15333096D-01 0.31815639D-01 0.20546152D+05 0.20546152D+05 0.20546152D+05 0.12325400D+01  1  2 15  3  6  5       21 0.465298059602D-02 0.100000000000D+01
-.112921145008D-03 0.000000000000D+00 0.000000000000D+00 0.976082763277D-05 0.000000000000D+00  6 -1 2 25 24 21 21 4 0.15333096D-01 0.31815639D-01 0.20546152D+05 0.20546152D+05 0.20546152D+05 0.12325400D+01  1  2  4  3  6  5       21 -.145142326162D+00 0.100000000000D+01
0.164115243767D-03 0.000000000000D+00 -.000000000000D+00 0.976082763277D-05 0.000000000000D+00  6 -1 2 25 24 21 21 4 0.15333096D-01 0.31815639D-01 0.20546152D+05 0.20546152D+05 0.20546152D+05 0.12325400D+01  1  2  6  3  6  5       21 0.210944267678D+00 0.100000000000D+01
-.100242394506D-04 0.000000000000D+00 0.000000000000D+00 0.976082763277D-05 0.000000000000D+00  6 -1 2 25 24 1 -1 4 0.15333096D-01 0.31815639D-01 0.20546152D+05 0.20546152D+05 0.20546152D+05 0.12325400D+01  1  2  5  6  6  5       21 -.128845791615D-01 0.100000000000D+01
0.113581378916D-04 0.000000000000D+00 0.000000000000D+00 0.976082763277D-05 0.926345639779D-05  6 -1 2 25 24 1 -1 4 0.15333096D-01 0.31815639D-01 0.20543918D+05 0.20543918D+05 0.20543918D+05 0.12325452D+01  1  2 11  6  6  5       21 0.145992943660D-01 0.100000000000D+01
-.100242394506D-04 0.000000000000D+00 0.000000000000D+00 0.976082763277D-05 0.000000000000D+00  6 -1 2 25 24 2 -2 4 0.15333096D-01 0.31815639D-01 0.20546152D+05 0.20546152D+05 0.20546152D+05 0.12325400D+01  1  2  5  7  6  5       21 -.128845791615D-01 0.100000000000D+01
0.233610503539D-05 0.000000000000D+00 0.000000000000D+00 0.976082763277D-05 0.959928841898D-05  6 -1 2 25 24 2 -2 4 0.15333096D-01 0.31815639D-01 0.20543918D+05 0.20543918D+05 0.20543918D+05 0.12325452D+01  1  2 11  7  6  5       21 0.300273560748D-02 0.100000000000D+01
-.100242394506D-04 0.000000000000D+00 0.000000000000D+00 0.976082763277D-05 0.000000000000D+00  6 -1 2 25 24 3 -3 4 0.15333096D-01 0.31815639D-01 0.20546152D+05 0.20546152D+05 0.20546152D+05 0.12325400D+01  1  2  5  8  6  5       21 -.128845791615D-01 0.100000000000D+01
-.100242394506D-04 0.000000000000D+00 0.000000000000D+00 0.976082763277D-05 0.000000000000D+00  6 -1 2 25 24 4 -4 4 0.15333096D-01 0.31815639D-01 0.20546152D+05 0.20546152D+05 0.20546152D+05 0.12325400D+01  1  2  5  8  6  5       21 -.128845791615D-01 0.100000000000D+01
0.113575126741D-04 0.000000000000D+00 0.000000000000D+00 0.976082763277D-05 0.926293405446D-05  6 -1 2 25 24 3 -3 4 0.15333096D-01 0.31815639D-01 0.20543918D+05 0.20543918D+05 0.20543918D+05 0.12325452D+01  1  2 11  8  6  5       21 0.145984907366D-01 0.100000000000D+01
0.113575126741D-04 0.000000000000D+00 0.000000000000D+00 0.976082763277D-05 0.926293405446D-05  6 -1 2 25 24 4 -4 4 0.15333096D-01 0.31815639D-01 0.20543918D+05 0.20543918D+05 0.20543918D+05 0.12325452D+01  1  2 11  8  6  5       21 0.145984907366D-01 0.100000000000D+01
  </mgrwgt>
  </event>
  <event>
  5     66 0.43535451E-03 0.11023552E+03 0.75467711E-02 0.11420573E+00
       -1 -1    0    0    0  501 0.00000000E+00 0.00000000E+00 0.35062845E+02 0.35064305E+02 0.32000000E+00 0.0000E+00 0.9000E+01
        2 -1    0    0  502    0 -.00000000E+00 -.00000000E+00 -.16472160E+04 0.16472160E+04 0.32000000E+00 0.0000E+00 0.9000E+01
       25  1    1    2    0    0 0.95958106E+01 0.13977929E+03 -.33744695E+03 0.38616806E+03 0.12500000E+03 0.0000E+00 0.9000E+01
       24  1    1    2    0    0 0.38520480E+02 -.13125259E+02 -.34468953E+03 0.35627824E+03 0.80419002E+02 0.0000E+00 0.9000E+01
       21  1    1    2  502  501 -.48116291E+02 -.12665403E+03 -.93001666E+03 0.93983401E+03 0.75000000E+00 0.0000E+00 0.9000E+01
#aMCatNLO 1  0  0  5  1 0.33403768D+02 0.00000000D+00  -5  6  0 0.00000000D+00 0.00000000D+00 0.00000000D+00 0.00000000D+00 0.00000000D+00
  <mgrwgt>
 0.4484879632D-01   20    2    0
 0.240327553776241D+03 0.000000000000000D+00 0.000000000000000D+00 0.240327553776241D+03
 0.240327553776241D+03 -.000000000000000D+00 -.000000000000000D+00 -.240327553776241D+03
 0.219756459959382D+03 0.959602455933535D+01 0.139779852709991D+03 0.114181481786275D+03
 0.908500961793710D+02 0.385205686099723D+02 -.131250265616313D+02 -.114203105540660D+02
 0.170048551413728D+03 -.481165931693076D+02 -.126654826148360D+03 -.102761171232209D+03
 0.000000000000000D+00 0.000000000000000D+00 0.000000000000000D+00 -.000000000000000D+00
 0.240327553776241D+03 0.000000000000000D+00 0.000000000000000D+00 0.240327553776241D+03
 0.240327553776241D+03 -.000000000000000D+00 -.000000000000000D+00 -.240327553776241D+03
 0.214411994226297D+03 0.769249184922451D+01 0.134769281749190D+03 0.110116163818281D+03
 0.910728087401381D+02 0.377229606840759D+02 -.152245287610804D+02 -.131237379842001D+02
 0.112123941718415D+03 -.619400592826782D+02 -.757176201593744D+02 -.547909605677217D+02
 0.630463628676306D+02 0.165246067493778D+02 -.438271328287356D+02 -.422014652663593D+02
0.606048039358D-04 0.000000000000D+00 0.000000000000D+00 0.144809846303D-05 0.000000000000D+00  6 -1 2 25 24 21 21 2 0.53943986D-02 0.25341796D+00 0.42720884D+05 0.42720884D+05 0.42720884D+05 0.11991087D+01  1  2  2  3  6  5       21 0.177689089783D-01 0.100000000000D+01
-.516289457479D-05 0.319820336937D-05 -.232738404725D-06 0.144809846303D-05 0.000000000000D+00  6 -1 2 25 24 21 21 4 0.53943986D-02 0.25341796D+00 0.42720884D+05 0.42720884D+05 0.42720884D+05 0.11991087D+01  1  2  3  3  6  5       21 -.217652718484D-02 0.100000000000D+01
0.233867237714D-05 0.000000000000D+00 0.000000000000D+00 0.144809846303D-05 0.000000000000D+00  6 -1 2 25 24 21 21 4 0.53943986D-02 0.25341796D+00 0.42720884D+05 0.42720884D+05 0.42720884D+05 0.11991087D+01  1  2 15  3  6  5       21 0.985916704584D-03 0.100000000000D+01
0.626787045005D-04 0.000000000000D+00 0.000000000000D+00 0.144536894337D-05 0.000000000000D+00  6 -1 2 25 24 21 21 4 0.53943986D-02 0.25341796D+00 0.43840299D+05 0.43840299D+05 0.43840299D+05 0.11979781D+01  1  2 12  3  6  5       21 0.263213208832D-01 0.100000000000D+01
0.523715572044D-04 0.000000000000D+00 0.000000000000D+00 0.144536894337D-05 0.000000000000D+00  6 -1 2 25 24 21 21 4 0.53943986D-02 0.25341796D+00 0.43840299D+05 0.43840299D+05 0.43840299D+05 0.11979781D+01  1  2 12  3  6  5       21 0.219929332190D-01 0.100000000000D+01
-.963279697464D-04 0.000000000000D+00 0.000000000000D+00 0.144809846303D-05 0.000000000000D+00  6 -1 2 25 24 21 21 4 0.53943986D-02 0.25341796D+00 0.42720884D+05 0.42720884D+05 0.42720884D+05 0.11991087D+01  1  2  4  3  6  5       21 -.406090889087D-01 0.100000000000D+01
-.106988476467D-03 0.000000000000D+00 0.000000000000D+00 0.144809846303D-05 0.000000000000D+00  6 -1 2 25 24 21 21 4 0.53943986D-02 0.25341796D+00 0.42720884D+05 0.42720884D+05 0.42720884D+05 0.11991087D+01  1  2  5  3  6  5       21 -.451032505356D-01 0.100000000000D+01
0.159791502503D-03 0.000000000000D+00 -.000000000000D+00 0.144809846303D-05 0.000000000000D+00  6 -1 2 25 24 21 21 4 0.53943986D-02 0.25341796D+00 0.42720884D+05 0.42720884D+05 0.42720884D+05 0.11991087D+01  1  2  6  3  6  5       21 0.673634807117D-01 0.100000000000D+01
0.142405237507D-05 0.000000000000D+00 0.000000000000D+00 0.144536894337D-05 0.000000000000D+00  6 -1 2 25 24 1 -1 4 0.53943986D-02 0.25341796D+00 0.43840299D+05 0.43840299D+05 0.43840299D+05 0.11979781D+01  1  2 12  6  6  5       21 0.598017138637D-03 0.100000000000D+01
0.121053466691D-05 0.000000000000D+00 0.000000000000D+00 0.144536894337D-05 0.000000000000D+00  6 -1 2 25 24 1 -1 4 0.53943986D-02 0.25341796D+00 0.43840299D+05 0.43840299D+05 0.43840299D+05 0.11979781D+01  1  2 12  6  6  5       21 0.508352424672D-03 0.100000000000D+01
-.362950383161D-05 0.000000000000D+00 0.000000000000D+00 0.144809846303D-05 0.000000000000D+00  6 -1 2 25 24 1 -1 4 0.53943986D-02 0.25341796D+00 0.42720884D+05 0.42720884D+05 0.42720884D+05 0.11991087D+01  1  2  5  6  6  5       21 -.153009395070D-02 0.100000000000D+01
0.142405237507D-05 0.000000000000D+00 0.000000000000D+00 0.144536894337D-05 0.000000000000D+00  6 -1 2 25 24 2 -2 4 0.53943986D-02 0.25341796D+00 0.43840299D+05 0.43840299D+05 0.43840299D+05 0.11979781D+01  1  2 12  7  6  5       21 0.598017138637D-03 0.100000000000D+01
0.121053466691D-05 0.000000000000D+00 0.000000000000D+00 0.144536894337D-05 0.000000000000D+00  6 -1 2 25 24 2 -2 4 0.53943986D-02 0.25341796D+00 0.43840299D+05 0.43840299D+05 0.43840299D+05 0.11979781D+01  1  2 12  7  6  5       21 0.508352424672D-03 0.100000000000D+01
-.362950383161D-05 0.000000000000D+00 0.000000000000D+00 0.144809846303D-05 0.000000000000D+00  6 -1 2 25 24 2 -2 4 0.53943986D-02 0.25341796D+00 0.42720884D+05 0.42720884D+05 0.42720884D+05 0.11991087D+01  1  2  5  7  6  5       21 -.153009395070D-02 0.100000000000D+01
0.142405237507D-05 0.000000000000D+00 0.000000000000D+00 0.144536894337D-05 0.000000000000D+00  6 -1 2 25 24 3 -3 4 0.53943986D-02 0.25341796D+00 0.43840299D+05 0.43840299D+05 0.43840299D+05 0.11979781D+01  1  2 12  8  6  5       21 0.598017138637D-03 0.100000000000D+01
0.142405237507D-05 0.000000000000D+00 0.000000000000D+00 0.144536894337D-05 0.000000000000D+00  6 -1 2 25 24 4 -4 4 0.53943986D-02 0.25341796D+00 0.43840299D+05 0.43840299D+05 0.43840299D+05 0.11979781D+01  1  2 12  8  6  5       21 0.598017138637D-03 0.100000000000D+01
0.121053466691D-05 0.000000000000D+00 0.000000000000D+00 0.144536894337D-05 0.000000000000D+00  6 -1 2 25 24 3 -3 4 0.53943986D-02 0.25341796D+00 0.43840299D+05 0.43840299D+05 0.43840299D+05 0.11979781D+01  1  2 12  8  6  5       21 0.508352424672D-03 0.100000000000D+01
0.121053466691D-05 0.000000000000D+00 0.000000000000D+00 0.144536894337D-05 0.000000000000D+00  6 -1 2 25 24 4 -4 4 0.53943986D-02 0.25341796D+00 0.43840299D+05 0.43840299D+05 0.43840299D+05 0.11979781D+01  1  2 12  8  6  5       21 0.508352424672D-03 0.100000000000D+01
-.362950383161D-05 0.000000000000D+00 0.000000000000D+00 0.144809846303D-05 0.000000000000D+00  6 -1 2 25 24 3 -3 4 0.53943986D-02 0.25341796D+00 0.42720884D+05 0.42720884D+05 0.42720884D+05 0.11991087D+01  1  2  5  8  6  5       21 -.153009395070D-02 0.100000000000D+01
-.362950383161D-05 0.000000000000D+00 0.000000000000D+00 0.144809846303D-05 0.000000000000D+00  6 -1 2 25 24 4 -4 4 0.53943986D-02 0.25341796D+00 0.42720884D+05 0.42720884D+05 0.42720884D+05 0.11991087D+01  1  2  5  8  6  5       21 -.153009395070D-02 0.100000000000D+01
  </mgrwgt>
  </event>
</LesHouchesEvents>
