<event>
 5    0  0.1911311E+001  0.3061950E+03  0.7546771E-02  0.1082184E+00
         21   -1    0    0  504  501  0.00000000000E+00  0.00000000000E+00  0.31704380878E+03  0.31704380878E+03  0.00000000000E+00 0. -1.
         21   -1    0    0  503  502 -0.00000000000E+00 -0.00000000000E+00 -0.82391899616E+03  0.82391899616E+03  0.00000000000E+00 0. -1.
         25    1    1    2    0    0  0.35221594620E+02 -0.27033848706E+03 -0.69258714140E+03  0.75473532231E+03  0.12500000000E+03 0.  0.
         21    1    1    2  503  501 -0.20555279278E+02 -0.95310144760E+01 -0.26373921542E+02  0.34769864548E+02  0.00000000000E+00 0. -1.
         21    1    1    2  504  502 -0.14666315341E+02  0.27986950153E+03  0.21208587556E+03  0.35145761808E+03  0.00000000000E+00 0. -1.
<mgrwt>
<rscale>  4 0.30619496E+03</rscale>
<asrwt>0</asrwt>
<pdfrwt beam="1">  1       21 0.48775972E-01 0.30619496E+03</pdfrwt>
<pdfrwt beam="2">  1       21 0.12675677E+00 0.30619496E+03</pdfrwt>
<totfact> 0.16957703E+03</totfact>
</mgrwt>
</event>
<event>
 5    0  0.1911311E+001  0.2480078E+03  0.7546771E-02  0.1114570E+00
         21   -1    0    0  503  501  0.00000000000E+00  0.00000000000E+00  0.28416630349E+03  0.28416630349E+03  0.00000000000E+00 0.  1.
         21   -1    0    0  504  502 -0.00000000000E+00 -0.00000000000E+00 -0.28053684813E+03  0.28053684813E+03  0.00000000000E+00 0.  1.
         25    1    1    2    0    0  0.39895403967E+02  0.24567339090E+03  0.27455597971E+02  0.27986759033E+03  0.12500000000E+03 0.  0.
         21    1    1    2  503  502  0.29975154956E+02 -0.65467249871E+02 -0.52949536514E+02  0.89376306354E+02  0.00000000000E+00 0.  1.
         21    1    1    2  504  501 -0.69870558923E+02 -0.18020614103E+03  0.29123393897E+02  0.19545925494E+03  0.00000000000E+00 0.  1.
<mgrwt>
<rscale>  4 0.24800775E+03</rscale>
<asrwt>0</asrwt>
<pdfrwt beam="1">  1       21 0.43717893E-01 0.24800775E+03</pdfrwt>
<pdfrwt beam="2">  1       21 0.43159515E-01 0.24800775E+03</pdfrwt>
<totfact> 0.25214055E+04</totfact>
</mgrwt>
</event>
<event>
 5    0  0.1911311E+001  0.2180991E+03  0.7546771E-02  0.1135308E+00
         21   -1    0    0  504  501  0.00000000000E+00  0.00000000000E+00  0.11590122764E+03  0.11590122764E+03  0.00000000000E+00 0. -1.
         21   -1    0    0  501  502 -0.00000000000E+00 -0.00000000000E+00 -0.53469364412E+03  0.53469364412E+03  0.00000000000E+00 0. -1.
         25    1    1    2    0    0 -0.10358197828E+03  0.17190584541E+03 -0.11325889799E+03  0.26217060072E+03  0.12500000000E+03 0.  0.
         21    1    1    2  503  502 -0.23696217862E+02 -0.54582544438E+02 -0.40904820036E+02  0.72207819525E+02  0.00000000000E+00 0.  1.
         21    1    1    2  504  503  0.12727819614E+03 -0.11732330097E+03 -0.26462869846E+03  0.31621645152E+03  0.00000000000E+00 0. -1.
<mgrwt>
<rscale>  4 0.21809913E+03</rscale>
<asrwt>0</asrwt>
<pdfrwt beam="1">  1       21 0.17830958E-01 0.21809913E+03</pdfrwt>
<pdfrwt beam="2">  1       21 0.82260561E-01 0.21809913E+03</pdfrwt>
<totfact> 0.36399482E+04</totfact>
</mgrwt>
</event>
<event>
 5    0  0.1911311E+001  0.2619851E+03  0.7546771E-02  0.1105956E+00
         21   -1    0    0  503  501  0.00000000000E+00  0.00000000000E+00  0.60176062677E+03  0.60176062677E+03  0.00000000000E+00 0. -1.
         21   -1    0    0  504  502 -0.00000000000E+00 -0.00000000000E+00 -0.21222701801E+03  0.21222701801E+03  0.00000000000E+00 0. -1.
         25    1    1    2    0    0  0.19896667592E+03 -0.10288077532E+03  0.19619625587E+03  0.32293987501E+03  0.12500000000E+03 0.  0.
         21    1    1    2  503  502  0.57819307508E+02  0.14343632400E+03 -0.18426593770E+02  0.15574527511E+03  0.00000000000E+00 0. -1.
         21    1    1    2  504  501 -0.25678598343E+03 -0.40555548683E+02  0.21176394666E+03  0.33530249465E+03  0.00000000000E+00 0. -1.
<mgrwt>
<rscale>  4 0.26198511E+03</rscale>
<asrwt>0</asrwt>
<pdfrwt beam="1">  1       21 0.92578558E-01 0.26198511E+03</pdfrwt>
<pdfrwt beam="2">  1       21 0.32650311E-01 0.26198511E+03</pdfrwt>
<totfact> 0.85003884E+03</totfact>
</mgrwt>
</event>
