<LesHouchesEvents version="3.0">
  <!--
  <scalesfunctionalform>
    muR  H_T/2 := sum_i mT(i)/2, i=final state
    muF1 H_T/2 := sum_i mT(i)/2, i=final state
    muF2 H_T/2 := sum_i mT(i)/2, i=final state
    QES  H_T/2 := sum_i mT(i)/2, i=final state
  </scalesfunctionalform>
HERWIG6   
  -->
  <header>
      412
  </header>
  <init>
   2212   2212 0.65000000D+04 0.65000000D+04 -1 -1   247000   247000 -3   1
 0.17522371D+00 0.67311867D-03 0.46888340D-03     66
  </init>
  <event>
  5     66 0.46888340E-03 0.12565336E+03 0.75467711E-02 0.12151077E+00
       -2 -1    0    0    0  501 0.00000000E+00 0.00000000E+00 0.22675231E+03 0.22675254E+03 0.32000000E+00 0.0000E+00 0.9000E+01
        2 -1    0    0  502    0 0.00000000E+00 0.00000000E+00 -.13358444E+03 0.13358482E+03 0.32000000E+00 0.0000E+00 0.9000E+01
       25  1    1    2    0    0 -.26897773E+02 -.44810143E+02 0.12977378E+03 0.18761043E+03 0.12500000E+03 0.0000E+00 0.9000E+01
       23  1    1    2    0    0 0.49025663E+02 0.55325948E+02 -.65829121E+02 0.13458529E+03 0.91188000E+02 0.0000E+00 0.9000E+01
       21  1    1    2  502  501 -.22127890E+02 -.10515805E+02 0.29223216E+02 0.38141637E+02 0.75000000E+00 0.0000E+00 0.9000E+01
#aMCatNLO 2  0  0  2  1 0.24499503D+02 0.00000000D+00  -5  5  0 0.00000000D+00 0.00000000D+00 0.00000000D+00 0.00000000D+00 0.00000000D+00
  <mgrwgt>
 0.4522338365D-01    1    2    0
 0.157417389015689D+03 0.000000000000000D+00 0.000000000000000D+00 0.157417389015689D+03
 0.157417389015689D+03 0.000000000000000D+00 0.000000000000000D+00 -.157417389015689D+03
 0.169026253674332D+03 -.386233353260870D+02 -.503824651275218D+02 0.944177928525244D+02
 0.145808524357047D+03 0.386233353260870D+02 0.503824651275218D+02 -.944177928525244D+02
 0.000000000000000D+00 -.000000000000000D+00 -.000000000000000D+00 0.000000000000000D+00
 0.185434129981716D+03 0.000000000000000D+00 0.000000000000000D+00 0.185434129981716D+03
 0.163341794416446D+03 0.000000000000000D+00 0.000000000000000D+00 -.163341794416446D+03
 0.165139815777234D+03 -.268977730411712D+02 -.448101434188978D+02 0.944177928525244D+02
 0.150646762650213D+03 0.490256629418177D+02 0.553259479716600D+02 -.944177928525244D+02
 0.329893459707145D+02 -.221278899006465D+02 -.105158045527621D+02 0.220923355652695D+02
0.146498458331D-03 0.000000000000D+00 0.000000000000D+00 0.907966206085D-03 0.124513845081D-04  5 -2 2 25 23 21 2 0.34884128D-01 0.20550974D-01 0.19233879D+05 0.19233879D+05 0.19233879D+05 0.12356979D+01  1  2  1  2  5  2        2 0.452233836472D-01 0.100000000000D+01
  </mgrwgt>
  </event>
  <event>
  4     66 0.46888340E-03 0.15276481E+03 0.75467711E-02 0.11526682E+00
       -2 -1    0    0    0  501 0.00000000E+00 0.00000000E+00 0.50540670E+02 0.50541683E+02 0.32000000E+00 0.0000E+00 0.9000E+01
        2 -1    0    0  501    0 0.00000000E+00 0.00000000E+00 -.56089554E+03 0.56089563E+03 0.32000000E+00 0.0000E+00 0.9000E+01
       25  1    1    2    0    0 -.75768571E+02 0.75955147E+02 -.14341363E+03 0.21840909E+03 0.12500000E+03 0.0000E+00 0.9000E+01
       23  1    1    2    0    0 0.75768571E+02 -.75955147E+02 -.36694124E+03 0.39302823E+03 0.91188000E+02 0.0000E+00 0.9000E+01
#aMCatNLO 1  0  0  1  2 0.78066550D+02 0.00000000D+00  -5  5  0 0.00000000D+00 0.00000000D+00 0.00000000D+00 0.00000000D+00 0.00000000D+00
  <mgrwgt>
 0.1979254632D+00    3    2    0
 0.168369753832775D+03 0.000000000000000D+00 0.000000000000000D+00 0.168369753832775D+03
 0.168369753832775D+03 0.000000000000000D+00 0.000000000000000D+00 -.168369753832775D+03
 0.179223467890082D+03 -.757685706268529D+02 0.759551473779824D+02 0.706115481667105D+02
 0.157516039775469D+03 0.757685706268529D+02 -.759551473779824D+02 -.706115481667105D+02
 0.000000000000000D+00 0.000000000000000D+00 0.000000000000000D+00 -.000000000000000D+00
 0.181970236638114D+03 0.000000000000000D+00 0.000000000000000D+00 0.181970236638114D+03
 0.339619240186106D+03 0.000000000000000D+00 0.000000000000000D+00 -.339619240186106D+03
 0.191258069688653D+03 -.113222490955581D+03 0.561188562636772D+02 0.706115481667105D+02
 0.154412123115534D+03 0.442341178237270D+02 -.926563786627975D+02 -.706115481667105D+02
 0.175919284020033D+03 0.689883731318538D+02 0.365375223991202D+02 -.157649003547992D+03
0.370039005612D-03 0.000000000000D+00 0.000000000000D+00 0.105653091491D-02 0.000000000000D+00  5 -2 2 25 23 21 0 0.77755726D-02 0.86291707D-01 0.23337087D+05 0.23337087D+05 0.23337087D+05 0.12265156D+01  1  2  2  1  5  1       -2 0.193870476004D+00 0.100000000000D+01
-.203212660431D-04 0.000000000000D+00 -.142104721506D-05 0.105653091491D-02 0.000000000000D+00  5 -2 2 25 23 21 2 0.77755726D-02 0.86291707D-01 0.23337087D+05 0.23337087D+05 0.23337087D+05 0.12265156D+01  1  2  3  1  5  1       -2 -.160162596021D-01 0.100000000000D+01
0.254661922692D-04 0.000000000000D+00 0.000000000000D+00 0.105653091491D-02 0.000000000000D+00  5 -2 2 25 23 21 2 0.77755726D-02 0.86291707D-01 0.23337087D+05 0.23337087D+05 0.23337087D+05 0.12265156D+01  1  2 15  1  5  1       -2 0.200712468207D-01 0.100000000000D+01
  </mgrwgt>
  </event>
  <event>
  4     66 0.46888340E-03 0.33143972E+02 0.75467711E-02 0.12176869E+00
       -2 -1    0    0    0  501 0.00000000E+00 0.00000000E+00 0.19491047E+03 0.19491073E+03 0.32000000E+00 0.0000E+00 0.9000E+01
        2 -1    0    0  501    0 0.00000000E+00 0.00000000E+00 -.17666745E+03 0.17666774E+03 0.32000000E+00 0.0000E+00 0.9000E+01
       25  1    1    2    0    0 -.64258333E+02 0.21112299E+02 -.12466984E+03 0.18905669E+03 0.12500000E+03 0.0000E+00 0.9000E+01
       23  1    1    2    0    0 0.64258333E+02 -.21112299E+02 0.14291286E+03 0.18252178E+03 0.91188000E+02 0.0000E+00 0.9000E+01
#aMCatNLO 1  0  0  2  1 0.17964565D+02 0.00000000D+00  -5  5  0 0.00000000D+00 0.00000000D+00 0.00000000D+00 0.00000000D+00 0.00000000D+00
  <mgrwgt>
 0.1206648949D+00    9    2    0
 0.185565186249112D+03 0.000000000000000D+00 0.000000000000000D+00 0.185565186249112D+03
 0.185565186249112D+03 0.000000000000000D+00 0.000000000000000D+00 -.185565186249112D+03
 0.195413138879337D+03 -.642583329524592D+02 0.211122991464321D+02 -.134113505351241D+03
 0.175717233618888D+03 0.642583329524592D+02 -.211122991464321D+02 0.134113505351241D+03
 0.000000000000000D+00 0.000000000000000D+00 -.000000000000000D+00 -.000000000000000D+00
 0.190894619018930D+03 0.000000000000000D+00 0.000000000000000D+00 0.190894619018930D+03
 0.201564685124822D+03 0.000000000000000D+00 0.000000000000000D+00 -.201564685124822D+03
 0.198809107230945D+03 -.737760153829340D+02 0.216962751315808D+02 -.134113505351241D+03
 0.172755798237748D+03 0.558451708706106D+02 -.205960931634260D+02 0.134113505351241D+03
 0.208943986750584D+02 0.179308445123234D+02 -.110018196815480D+01 -.106700661058924D+02
0.402889391203D-03 0.000000000000D+00 0.000000000000D+00 0.637480240462D-03 0.000000000000D+00  5 -2 2 25 23 21 0 0.29986269D-01 0.27179650D-01 0.16340619D+05 0.16340619D+05 0.16340619D+05 0.12436064D+01  1  2  2  2  5  2        2 0.783995218721D-01 0.100000000000D+01
-.186025212839D-04 0.000000000000D+00 -.154720134543D-05 0.637480240462D-03 0.000000000000D+00  5 -2 2 25 23 21 2 0.29986269D-01 0.27179650D-01 0.16340619D+05 0.16340619D+05 0.16340619D+05 0.12436064D+01  1  2  3  2  5  2        2 -.559841791170D-02 0.100000000000D+01
0.274170583305D-04 0.000000000000D+00 0.000000000000D+00 0.637480240462D-03 0.000000000000D+00  5 -2 2 25 23 21 2 0.29986269D-01 0.27179650D-01 0.16340619D+05 0.16340619D+05 0.16340619D+05 0.12436064D+01  1  2 15  2  5  2        2 0.825114768588D-02 0.100000000000D+01
0.135268661582D-02 0.000000000000D+00 0.000000000000D+00 0.637480240462D-03 0.000000000000D+00  5 -2 2 25 23 21 2 0.29986269D-01 0.29889773D-01 0.18716986D+05 0.18716986D+05 0.18716986D+05 0.12370087D+01  1  2 12  2  5  2        2 0.364228639041D+00 0.100000000000D+01
-.133778050103D-02 0.000000000000D+00 0.000000000000D+00 0.637480240462D-03 0.000000000000D+00  5 -2 2 25 23 21 2 0.29986269D-01 0.27179650D-01 0.16340619D+05 0.16340619D+05 0.16340619D+05 0.12436064D+01  1  2  4  2  5  2        2 -.402604260175D+00 0.100000000000D+01
-.304586271997D-02 0.000000000000D+00 -.613300546524D-03 0.637480240462D-03 0.000000000000D+00  5 -2 2 25 23 21 2 0.29986269D-01 0.30281799D-01 0.16340619D+05 0.16340619D+05 0.16340619D+05 0.12436064D+01  1  2  5  2  5  2        2 -.815197335888D+00 0.100000000000D+01
0.309760276632D-02 0.000000000000D+00 0.609735940552D-03 0.637480240462D-03 0.000000000000D+00  5 -2 2 25 23 21 2 0.29986269D-01 0.27179650D-01 0.16340619D+05 0.16340619D+05 0.16340619D+05 0.12436064D+01  1  2  6  2  5  2        2 0.932221742720D+00 0.100000000000D+01
0.210244126739D-04 0.000000000000D+00 0.000000000000D+00 0.637480240462D-03 0.000000000000D+00  5 -2 21 25 23 -2 2 0.29986269D-01 0.29889773D-01 0.18716986D+05 0.18716986D+05 0.18716986D+05 0.12370087D+01  1  2 12  4  5  2        2 0.284814643938D-01 0.100000000000D+01
-.505487292821D-04 0.000000000000D+00 -.106489588708D-04 0.637480240462D-03 0.000000000000D+00  5 -2 21 25 23 -2 2 0.29986269D-01 0.30281799D-01 0.16340619D+05 0.16340619D+05 0.16340619D+05 0.12436064D+01  1  2  5  4  5  2        2 -.675176068824D-01 0.100000000000D+01
  </mgrwgt>
  </event>
  <event>
  4     66 0.46888340E-03 0.39997691E+02 0.75467711E-02 0.12272392E+00
       -2 -1    0    0    0  501 0.00000000E+00 0.00000000E+00 0.37783918E+02 0.37785273E+02 0.32000000E+00 0.0000E+00 0.9000E+01
        2 -1    0    0  501    0 0.00000000E+00 0.00000000E+00 -.40589509E+03 0.40589521E+03 0.32000000E+00 0.0000E+00 0.9000E+01
       25  1    1    2    0    0 0.24229034E+01 -.37238755E+02 -.12212533E+03 0.17869581E+03 0.12500000E+03 0.0000E+00 0.9000E+01
       23  1    1    2    0    0 -.24229034E+01 0.37238755E+02 -.24598584E+03 0.26498468E+03 0.91188000E+02 0.0000E+00 0.9000E+01
#aMCatNLO 1  0  0  1  2 0.29352539D+02 0.00000000D+00  -5  5  0 0.00000000D+00 0.00000000D+00 0.00000000D+00 0.00000000D+00 0.00000000D+00
  <mgrwgt>
 0.1777540523D+00    9    2    0
 0.123841168964498D+03 0.000000000000000D+00 0.000000000000000D+00 0.123841168964498D+03
 0.123841168964498D+03 0.000000000000000D+00 0.000000000000000D+00 -.123841168964498D+03
 0.138597466722991D+03 0.242290335168286D+01 -.372387552447507D+02 0.468151944266027D+02
 0.109084871206005D+03 -.242290335168286D+01 0.372387552447507D+02 -.468151944266027D+02
 0.000000000000000D+00 0.000000000000000D+00 -.000000000000000D+00 0.000000000000000D+00
 0.154200681827312D+03 0.000000000000000D+00 0.000000000000000D+00 0.154200681827312D+03
 0.132010979320152D+03 0.000000000000000D+00 0.000000000000000D+00 -.132010979320152D+03
 0.137467909679756D+03 -.123964292978805D+02 -.304481904746980D+02 0.468151944266027D+02
 0.111947631303126D+03 -.142880427752866D+02 0.426756395948743D+02 -.468151944266027D+02
 0.367961201645824D+02 0.266844720731671D+02 -.122274491201763D+02 0.221897025071598D+02
0.129645474633D-03 0.000000000000D+00 0.000000000000D+00 0.143726332202D-02 0.000000000000D+00  5 -2 2 25 23 21 0 0.58130244D-02 0.62445512D-01 0.13107950D+05 0.13107950D+05 0.13107950D+05 0.12545538D+01  1  2  2  1  5  1       -2 0.147926772218D+00 0.100000000000D+01
-.714854464128D-05 0.000000000000D+00 -.497872759026D-06 0.143726332202D-02 0.000000000000D+00  5 -2 2 25 23 21 2 0.58130244D-02 0.62445512D-01 0.13107950D+05 0.13107950D+05 0.13107950D+05 0.12545538D+01  1  2  3  1  5  1       -2 -.128376532418D-01 0.100000000000D+01
0.887345919767D-05 0.000000000000D+00 0.000000000000D+00 0.143726332202D-02 0.000000000000D+00  5 -2 2 25 23 21 2 0.58130244D-02 0.62445512D-01 0.13107950D+05 0.13107950D+05 0.13107950D+05 0.12545538D+01  1  2 15  1  5  1       -2 0.159353264128D-01 0.100000000000D+01
0.147353462095D-03 0.000000000000D+00 0.000000000000D+00 0.143726332202D-02 0.000000000000D+00  5 -2 2 25 23 21 2 0.73952193D-02 0.62445512D-01 0.16937995D+05 0.16937995D+05 0.16937995D+05 0.12418511D+01  1  2 12  1  5  1       -2 0.181519199775D+00 0.100000000000D+01
-.153088560777D-03 0.000000000000D+00 0.000000000000D+00 0.143726332202D-02 0.000000000000D+00  5 -2 2 25 23 21 2 0.58130244D-02 0.62445512D-01 0.13107950D+05 0.13107950D+05 0.13107950D+05 0.12545538D+01  1  2  4  1  5  1       -2 -.274922792982D+00 0.100000000000D+01
-.247651964988D-03 0.000000000000D+00 -.640269267102D-04 0.143726332202D-02 0.000000000000D+00  5 -2 2 25 23 21 2 0.77037608D-02 0.62445512D-01 0.13107950D+05 0.13107950D+05 0.13107950D+05 0.12545538D+01  1  2  5  1  5  1       -2 -.289892358681D+00 0.100000000000D+01
0.257848136359D-03 0.000000000000D+00 0.615694340949D-04 0.143726332202D-02 0.000000000000D+00  5 -2 2 25 23 21 2 0.58130244D-02 0.62445512D-01 0.13107950D+05 0.13107950D+05 0.13107950D+05 0.12545538D+01  1  2  6  1  5  1       -2 0.463054387953D+00 0.100000000000D+01
0.484947588134D-05 0.000000000000D+00 0.000000000000D+00 0.143726332202D-02 0.000000000000D+00  5 21 2 25 23 2 2 0.73952193D-02 0.62445512D-01 0.16937995D+05 0.16937995D+05 0.16937995D+05 0.12418511D+01  1  2 12  3  5  1       -2 0.997043095860D-01 0.100000000000D+01
-.784420518435D-05 0.000000000000D+00 -.236411120696D-05 0.143726332202D-02 0.000000000000D+00  5 21 2 25 23 2 2 0.77037608D-02 0.62445512D-01 0.13107950D+05 0.13107950D+05 0.13107950D+05 0.12545538D+01  1  2  5  3  5  1       -2 -.152733138699D+00 0.100000000000D+01
  </mgrwgt>
  </event>
  <event>
  4     66 0.46888340E-03 0.12066282E+03 0.75467711E-02 0.10821448E+00
       -2 -1    0    0    0  501 0.00000000E+00 0.00000000E+00 0.50924946E+02 0.50925951E+02 0.32000000E+00 0.0000E+00 0.9000E+01
        2 -1    0    0  501    0 0.00000000E+00 0.00000000E+00 -.31386597E+03 0.31386614E+03 0.32000000E+00 0.0000E+00 0.9000E+01
       25  1    1    2    0    0 -.42609050E+02 0.31673796E+02 -.20055686E+03 0.24221233E+03 0.12500000E+03 0.0000E+00 0.9000E+01
       23  1    1    2    0    0 0.42609050E+02 -.31673796E+02 -.62384170E+02 0.12257976E+03 0.91188000E+02 0.0000E+00 0.9000E+01
#aMCatNLO 1  0  0  2  1 0.25878107D+03 0.00000000D+00  -5  5  0 0.00000000D+00 0.00000000D+00 0.00000000D+00 0.00000000D+00 0.00000000D+00
  <mgrwgt>
 0.1580569075D+00    5    2    0
 0.126427136153159D+03 0.000000000000000D+00 0.000000000000000D+00 0.126427136153159D+03
 0.126427136153159D+03 0.000000000000000D+00 0.000000000000000D+00 -.126427136153159D+03
 0.140881605498934D+03 -.426090497153830D+02 0.316737964107372D+02 -.374682034696144D+02
 0.111972666807383D+03 0.426090497153830D+02 -.316737964107372D+02 0.374682034696144D+02
 0.000000000000000D+00 -.000000000000000D+00 0.000000000000000D+00 -.000000000000000D+00
 0.232149202871497D+03 0.000000000000000D+00 0.000000000000000D+00 0.232149202871497D+03
 0.507595295080589D+03 0.000000000000000D+00 0.000000000000000D+00 -.507595295080589D+03
 0.153908551986458D+03 0.927025611048151D+01 -.810742773940895D+02 -.374682034696144D+02
 0.207896542233623D+03 0.989019485749323D+02 -.154013828033517D+03 0.374682034696144D+02
 0.377939403732005D+03 -.108172204685414D+03 0.235088105427606D+03 -.275446092209091D+03
0.150760892930D-03 0.000000000000D+00 0.000000000000D+00 0.146947826825D-02 0.000000000000D+00  5 -2 2 25 23 21 0 0.78346969D-02 0.48287162D-01 0.14559515D+05 0.14559515D+05 0.14559515D+05 0.12493009D+01  1  2  2  2  5  2        2 0.143964660070D+00 0.100000000000D+01
-.835342824761D-05 0.000000000000D+00 -.578961525104D-06 0.146947826825D-02 0.000000000000D+00  5 -2 2 25 23 21 2 0.78346969D-02 0.48287162D-01 0.14559515D+05 0.14559515D+05 0.14559515D+05 0.12493009D+01  1  2  3  2  5  2        2 -.124499054065D-01 0.100000000000D+01
0.104134462109D-04 0.000000000000D+00 0.000000000000D+00 0.146947826825D-02 0.000000000000D+00  5 -2 2 25 23 21 2 0.78346969D-02 0.48287162D-01 0.14559515D+05 0.14559515D+05 0.14559515D+05 0.12493009D+01  1  2 15  2  5  2        2 0.155201453150D-01 0.100000000000D+01
0.726953773747D-04 0.000000000000D+00 -.827103325997D-04 0.146947826825D-02 0.000000000000D+00  5 -2 2 25 23 21 2 0.78346969D-02 0.28099261D+00 0.14559515D+05 0.14559515D+05 0.14559515D+05 0.12493009D+01  1  2  5  2  5  2        2 0.104045243159D-01 0.100000000000D+01
0.108985198294D-04 0.000000000000D+00 -.178482238300D-04 0.146947826825D-02 0.000000000000D+00  5 -2 21 25 23 -2 2 0.78346969D-02 0.28099261D+00 0.14559515D+05 0.14559515D+05 0.14559515D+05 0.12493009D+01  1  2  5  4  5  2        2 0.617483171705D-03 0.100000000000D+01
  </mgrwgt>
  </event>
  <event>
  4     66 0.46888340E-03 0.11705983E+03 0.75467711E-02 0.11984355E+00
       -2 -1    0    0    0  501 0.00000000E+00 0.00000000E+00 0.11767749E+02 0.11772099E+02 0.32000000E+00 0.0000E+00 0.9000E+01
        2 -1    0    0  501    0 0.00000000E+00 0.00000000E+00 -.11794747E+04 0.11794747E+04 0.32000000E+00 0.0000E+00 0.9000E+01
       25  1    1    2    0    0 0.36674371E+02 -.25131159E+02 -.59360197E+03 0.60824739E+03 0.12500000E+03 0.0000E+00 0.9000E+01
       23  1    1    2    0    0 -.36674371E+02 0.25131159E+02 -.57410497E+03 0.58299944E+03 0.91188000E+02 0.0000E+00 0.9000E+01
#aMCatNLO 1  0  0  2  1 0.61363153D+02 0.00000000D+00  -5  5  0 0.00000000D+00 0.00000000D+00 0.00000000D+00 0.00000000D+00 0.00000000D+00
  <mgrwgt>
 0.1530575778D+00    4    2    0
 0.117823507347514D+03 0.000000000000000D+00 0.000000000000000D+00 0.117823507347514D+03
 0.117823507347514D+03 0.000000000000000D+00 0.000000000000000D+00 -.117823507347514D+03
 0.133333461219538D+03 0.366743705460825D+02 -.251311592087637D+02 0.132750616817550D+02
 0.102313553475490D+03 -.366743705460825D+02 0.251311592087637D+02 -.132750616817550D+02
 0.000000000000000D+00 -.000000000000000D+00 0.000000000000000D+00 0.000000000000000D+00
 0.177467907647029D+03 0.000000000000000D+00 0.000000000000000D+00 0.177467907647029D+03
 0.138648706868822D+03 0.000000000000000D+00 0.000000000000000D+00 -.138648706868822D+03
 0.148785214895333D+03 0.586658325826404D+02 -.537971467289998D+02 0.132750616817550D+02
 0.947203335149733D+02 -.213153616873357D+02 0.511060961837628D+01 -.132750616817550D+02
 0.726110661055449D+02 -.373504708953048D+02 0.486865371106235D+02 0.388192007782062D+02
0.117213625503D-03 0.000000000000D+00 0.000000000000D+00 0.169447441835D-02 0.000000000000D+00  5 -2 2 25 23 21 0 0.18107609D-02 0.18145798D+00 0.13703003D+05 0.13703003D+05 0.13703003D+05 0.12523250D+01  1  2  2  2  5  2        2 0.204667021587D+00 0.100000000000D+01
-.651153329447D-05 0.000000000000D+00 -.450131184987D-06 0.169447441835D-02 0.000000000000D+00  5 -2 2 25 23 21 2 0.18107609D-02 0.18145798D+00 0.13703003D+05 0.13703003D+05 0.13703003D+05 0.12523250D+01  1  2  3  2  5  2        2 -.178314694947D-01 0.100000000000D+01
0.811248763183D-05 0.000000000000D+00 0.000000000000D+00 0.169447441835D-02 0.000000000000D+00  5 -2 2 25 23 21 2 0.18107609D-02 0.18145798D+00 0.13703003D+05 0.13703003D+05 0.13703003D+05 0.12523250D+01  1  2 15  2  5  2        2 0.222155933466D-01 0.100000000000D+01
-.204472200195D-04 0.000000000000D+00 0.000000000000D+00 0.169447441835D-02 0.000000000000D+00  5 -2 2 25 23 21 2 0.18107609D-02 0.18145798D+00 0.13703003D+05 0.13703003D+05 0.13703003D+05 0.12523250D+01  1  2  4  2  5  2        2 -.559935676498D-01 0.100000000000D+01
  </mgrwgt>
  </event>
  <event>
  4     66 0.46888340E-03 0.83441485E+02 0.75467711E-02 0.12228251E+00
       -2 -1    0    0    0  501 0.00000000E+00 0.00000000E+00 0.19513590E+02 0.19516214E+02 0.32000000E+00 0.0000E+00 0.9000E+01
        2 -1    0    0  501    0 0.00000000E+00 0.00000000E+00 -.82527056E+03 0.82527062E+03 0.32000000E+00 0.0000E+00 0.9000E+01
       25  1    1    2    0    0 -.18599816E+02 0.13476843E+01 -.65895667E+03 0.67096696E+03 0.12500000E+03 0.0000E+00 0.9000E+01
       23  1    1    2    0    0 0.18599816E+02 -.13476843E+01 -.14680030E+03 0.17381987E+03 0.91188000E+02 0.0000E+00 0.9000E+01
#aMCatNLO 1  0  0  2  1 0.42588623D+02 0.00000000D+00  -5  5  0 0.00000000D+00 0.00000000D+00 0.00000000D+00 0.00000000D+00 0.00000000D+00
  <mgrwgt>
 0.1103008452D+00    7    2    0
 0.126905972663532D+03 0.000000000000000D+00 0.000000000000000D+00 0.126905972663532D+03
 0.126905972663532D+03 0.000000000000000D+00 0.000000000000000D+00 -.126905972663532D+03
 0.141305902987104D+03 -.185998162366040D+02 0.134768431448651D+01 -.632027594488881D+02
 0.112506042339960D+03 0.185998162366040D+02 -.134768431448651D+01 0.632027594488881D+02
 0.000000000000000D+00 -.000000000000000D+00 0.000000000000000D+00 -.000000000000000D+00
 0.131273601560630D+03 0.000000000000000D+00 0.000000000000000D+00 0.131273601560630D+03
 0.303521507324429D+03 0.000000000000000D+00 0.000000000000000D+00 -.303521507324429D+03
 0.140822199846576D+03 -.122573497409990D+01 -.144845000413653D+02 -.632027594488881D+02
 0.116538042584563D+03 0.327048646320150D+02 -.142009525345624D+02 0.632027594488881D+02
 0.177434866453919D+03 -.314791296579151D+02 0.286854525759277D+02 -.172247905763799D+03
0.101218090378D-03 0.000000000000D+00 0.000000000000D+00 0.127025985428D-02 0.000000000000D+00  5 -2 2 25 23 21 0 0.30022974D-02 0.12696491D+00 0.12040538D+05 0.12040538D+05 0.12040538D+05 0.12588525D+01  1  2  2  2  5  2        2 0.137323334269D+00 0.100000000000D+01
-.547862649082D-05 0.000000000000D+00 -.388704118387D-06 0.127025985428D-02 0.000000000000D+00  5 -2 2 25 23 21 2 0.30022974D-02 0.12696491D+00 0.12040538D+05 0.12040538D+05 0.12040538D+05 0.12588525D+01  1  2  3  2  5  2        2 -.117789771133D-01 0.100000000000D+01
0.694862897134D-05 0.000000000000D+00 0.000000000000D+00 0.127025985428D-02 0.000000000000D+00  5 -2 2 25 23 21 2 0.30022974D-02 0.12696491D+00 0.12040538D+05 0.12040538D+05 0.12040538D+05 0.12588525D+01  1  2 15  2  5  2        2 0.149394637068D-01 0.100000000000D+01
0.418669197340D-03 0.000000000000D+00 0.000000000000D+00 0.127025985428D-02 0.000000000000D+00  5 -2 2 25 23 21 2 0.30022974D-02 0.30254714D+00 0.17734489D+05 0.17734489D+05 0.17734489D+05 0.12396158D+01  1  2 12  2  5  2        2 0.210565137182D+00 0.100000000000D+01
-.475783484407D-03 0.000000000000D+00 -.339993374321D-04 0.127025985428D-02 0.000000000000D+00  5 -2 2 25 23 21 2 0.30022974D-02 0.30611457D+00 0.12040538D+05 0.12040538D+05 0.12040538D+05 0.12588525D+01  1  2  5  2  5  2        2 -.239945675824D+00 0.100000000000D+01
0.397360258996D-04 0.000000000000D+00 0.000000000000D+00 0.127025985428D-02 0.000000000000D+00  5 -2 21 25 23 -2 2 0.30022974D-02 0.30254714D+00 0.17734489D+05 0.17734489D+05 0.17734489D+05 0.12396158D+01  1  2 12  4  5  2        2 0.695318373874D-02 0.100000000000D+01
-.437067060030D-04 0.000000000000D+00 -.327572212457D-05 0.127025985428D-02 0.000000000000D+00  5 -2 21 25 23 -2 2 0.30022974D-02 0.30611457D+00 0.12040538D+05 0.12040538D+05 0.12040538D+05 0.12588525D+01  1  2  5  4  5  2        2 -.775562074283D-02 0.100000000000D+01
  </mgrwgt>
  </event>
  <event>
  4     66 0.46888340E-03 0.98552144E+02 0.75467711E-02 0.11595896E+00
       -2 -1    0    0    0  501 0.00000000E+00 0.00000000E+00 0.11488803E+03 0.11488848E+03 0.32000000E+00 0.0000E+00 0.9000E+01
        2 -1    0    0  501    0 0.00000000E+00 0.00000000E+00 -.38742946E+03 0.38742959E+03 0.32000000E+00 0.0000E+00 0.9000E+01
       25  1    1    2    0    0 0.13641825E+03 0.45531155E+02 -.27190923E+03 0.33202809E+03 0.12500000E+03 0.0000E+00 0.9000E+01
       23  1    1    2    0    0 -.13641825E+03 -.45531155E+02 -.63219713E+00 0.17028997E+03 0.91188000E+02 0.0000E+00 0.9000E+01
#aMCatNLO 1  0  0  2  1 0.16178552D+02 0.00000000D+00  -5  5  0 0.00000000D+00 0.00000000D+00 0.00000000D+00 0.00000000D+00 0.00000000D+00
  <mgrwgt>
 0.2313239274D+00    9    2    0
 0.210976662415488D+03 0.000000000000000D+00 0.000000000000000D+00 0.210976662415488D+03
 0.210976662415488D+03 0.000000000000000D+00 0.000000000000000D+00 -.210976662415488D+03
 0.219638460090537D+03 0.136418246014366D+03 0.455311551144010D+02 -.109238405422519D+03
 0.202314864740440D+03 -.136418246014366D+03 -.455311551144010D+02 0.109238405422519D+03
 0.000000000000000D+00 0.000000000000000D+00 0.000000000000000D+00 -.000000000000000D+00
 0.216690074731113D+03 0.000000000000000D+00 0.000000000000000D+00 0.216690074731113D+03
 0.222904229899387D+03 0.000000000000000D+00 0.000000000000000D+00 -.222904229899387D+03
 0.214305960346262D+03 0.128784726925558D+03 0.422316176743050D+02 -.109238405422519D+03
 0.207957409952729D+03 -.143635348235261D+03 -.486506991555961D+02 0.109238405422519D+03
 0.173309343315082D+02 0.148506213097028D+02 0.641908148129111D+01 -.621415516827462D+01
0.508697557833D-03 0.000000000000D+00 0.000000000000D+00 0.843080975374D-03 0.000000000000D+00  5 -2 2 25 23 21 0 0.17675126D-01 0.59604576D-01 0.32550555D+05 0.32550555D+05 0.32550555D+05 0.12111966D+01  1  2  2  2  5  2        2 0.107812657223D+00 0.100000000000D+01
-.274196854966D-04 0.000000000000D+00 -.195353256522D-05 0.843080975374D-03 0.000000000000D+00  5 -2 2 25 23 21 2 0.17675126D-01 0.59604576D-01 0.32550555D+05 0.32550555D+05 0.32550555D+05 0.12111966D+01  1  2  3  2  5  2        2 -.852514713739D-02 0.100000000000D+01
0.347844692289D-04 0.000000000000D+00 0.000000000000D+00 0.843080975374D-03 0.000000000000D+00  5 -2 2 25 23 21 2 0.17675126D-01 0.59604576D-01 0.32550555D+05 0.32550555D+05 0.32550555D+05 0.12111966D+01  1  2 15  2  5  2        2 0.108149569516D-01 0.100000000000D+01
0.172084420467D-02 0.000000000000D+00 0.000000000000D+00 0.843080975374D-03 0.000000000000D+00  5 -2 2 25 23 21 2 0.17675126D-01 0.63746987D-01 0.35628210D+05 0.35628210D+05 0.35628210D+05 0.12071385D+01  1  2 12  2  5  2        2 0.494876902184D+00 0.100000000000D+01
-.161938157977D-02 0.000000000000D+00 0.000000000000D+00 0.843080975374D-03 0.000000000000D+00  5 -2 2 25 23 21 2 0.17675126D-01 0.59604576D-01 0.32550555D+05 0.32550555D+05 0.32550555D+05 0.12111966D+01  1  2  4  2  5  2        2 -.503487402904D+00 0.100000000000D+01
-.580415371207D-02 0.000000000000D+00 -.102878714960D-02 0.843080975374D-03 0.000000000000D+00  5 -2 2 25 23 21 2 0.17675126D-01 0.64390487D-01 0.32550555D+05 0.32550555D+05 0.32550555D+05 0.12111966D+01  1  2  5  2  5  2        2 -.166015352175D+01 0.100000000000D+01
0.586915783133D-02 0.000000000000D+00 0.102572638834D-02 0.843080975374D-03 0.000000000000D+00  5 -2 2 25 23 21 2 0.17675126D-01 0.59604576D-01 0.32550555D+05 0.32550555D+05 0.32550555D+05 0.12111966D+01  1  2  6  2  5  2        2 0.182479970789D+01 0.100000000000D+01
0.211352020801D-04 0.000000000000D+00 0.000000000000D+00 0.843080975374D-03 0.000000000000D+00  5 -2 21 25 23 -2 2 0.17675126D-01 0.63746987D-01 0.35628210D+05 0.35628210D+05 0.35628210D+05 0.12071385D+01  1  2 12  4  5  2        2 0.144434903763D-01 0.100000000000D+01
-.730489234467D-04 0.000000000000D+00 -.133175578108D-04 0.843080975374D-03 0.000000000000D+00  5 -2 21 25 23 -2 2 0.17675126D-01 0.64390487D-01 0.32550555D+05 0.32550555D+05 0.32550555D+05 0.12111966D+01  1  2  5  4  5  2        2 -.492577154363D-01 0.100000000000D+01
  </mgrwgt>
  </event>
  <event>
  4     66 0.46888340E-03 0.11949026E+03 0.75467711E-02 0.97346274E-01
       -2 -1    0    0    0  501 0.00000000E+00 0.00000000E+00 0.85218637E+02 0.85219238E+02 0.32000000E+00 0.0000E+00 0.9000E+01
        2 -1    0    0  501    0 0.00000000E+00 0.00000000E+00 -.17157081E+03 0.17157110E+03 0.32000000E+00 0.0000E+00 0.9000E+01
       25  1    1    2    0    0 0.38237441E+02 0.32857093E+02 -.68086427E+02 0.15100481E+03 0.12500000E+03 0.0000E+00 0.9000E+01
       23  1    1    2    0    0 -.38237441E+02 -.32857093E+02 -.18265741E+02 0.10578553E+03 0.91188000E+02 0.0000E+00 0.9000E+01
#aMCatNLO 1  0  0  1  1 0.66923783D+03 0.00000000D+00  -5  5  0 0.00000000D+00 0.00000000D+00 0.00000000D+00 0.00000000D+00 0.00000000D+00
  <mgrwgt>
 0.1736950861D+00    3    2    0
 0.120917929236011D+03 0.000000000000000D+00 0.000000000000000D+00 0.120917929236011D+03
 0.120917929236011D+03 0.000000000000000D+00 0.000000000000000D+00 -.120917929236011D+03
 0.136030966446838D+03 0.382374411232582D+02 0.328570927578520D+02 -.183775238894728D+02
 0.105804892025184D+03 -.382374411232582D+02 -.328570927578520D+02 0.183775238894728D+02
 0.000000000000000D+00 0.000000000000000D+00 -.000000000000000D+00 -.000000000000000D+00
 0.531421260017959D+03 0.000000000000000D+00 0.000000000000000D+00 0.531421260017959D+03
 0.993346718304130D+03 0.000000000000000D+00 0.000000000000000D+00 -.993346718304130D+03
 0.427829230870618D+03 -.155319226682734D+03 0.378088686984567D+03 -.183775238894728D+02
 0.283763244836545D+03 -.171964756534196D+03 0.205661656372771D+03 0.183775238894728D+02
 0.813175502614926D+03 0.327283983216930D+03 -.583750343357337D+03 -.461925458286171D+03
0.209843733848D-03 0.000000000000D+00 0.000000000000D+00 0.162860911045D-02 0.000000000000D+00  5 -2 2 25 23 21 0 0.13110629D-01 0.26395578D-01 0.14277922D+05 0.14277922D+05 0.14277922D+05 0.12502726D+01  1  2  2  1  5  1       -2 0.170127008406D+00 0.100000000000D+01
-.116559856589D-04 0.000000000000D+00 -.805855191100D-06 0.162860911045D-02 0.000000000000D+00  5 -2 2 25 23 21 2 0.13110629D-01 0.26395578D-01 0.14277922D+05 0.14277922D+05 0.14277922D+05 0.12502726D+01  1  2  3  1  5  1       -2 -.147718766441D-01 0.100000000000D+01
0.144714344644D-04 0.000000000000D+00 0.000000000000D+00 0.162860911045D-02 0.000000000000D+00  5 -2 2 25 23 21 2 0.13110629D-01 0.26395578D-01 0.14277922D+05 0.14277922D+05 0.14277922D+05 0.12502726D+01  1  2 15  1  5  1       -2 0.183399543400D-01 0.100000000000D+01
  </mgrwgt>
  </event>
  <event>
  4     66 0.46888340E-03 0.76418774E+02 0.75467711E-02 0.12390546E+00
       -4 -1    0    0    0  501 0.00000000E+00 0.00000000E+00 0.15583367E+03 0.15584137E+03 0.15500000E+01 0.0000E+00 0.9000E+01
        4 -1    0    0  501    0 0.00000000E+00 0.00000000E+00 -.86082516E+02 0.86096470E+02 0.15500000E+01 0.0000E+00 0.9000E+01
       25  1    1    2    0    0 0.32745234E+02 -.23448791E+02 0.48600464E+02 0.14003250E+03 0.12500000E+03 0.0000E+00 0.9000E+01
       23  1    1    2    0    0 -.32745234E+02 0.23448791E+02 0.21150685E+02 0.10190534E+03 0.91188000E+02 0.0000E+00 0.9000E+01
#aMCatNLO 1  0  0  2  1 0.13555001D+02 0.00000000D+00  -5  5  0 0.00000000D+00 0.00000000D+00 0.00000000D+00 0.00000000D+00 0.00000000D+00
  <mgrwgt>
 0.4446517896D-01    6    2    0
 0.115832527151829D+03 0.000000000000000D+00 0.000000000000000D+00 0.115832527151829D+03
 0.115832527151829D+03 0.000000000000000D+00 0.000000000000000D+00 -.115832527151829D+03
 0.131609072902270D+03 0.327452338236765D+02 -.234487906819268D+02 0.859371558657099D+01
 0.100055981401388D+03 -.327452338236765D+02 0.234487906819268D+02 -.859371558657099D+01
 0.000000000000000D+00 -.000000000000000D+00 -.000000000000000D+00 0.000000000000000D+00
 0.123295905809766D+03 0.000000000000000D+00 0.000000000000000D+00 0.123295905809766D+03
 0.122353117687164D+03 0.000000000000000D+00 0.000000000000000D+00 -.122353117687164D+03
 0.131058061256354D+03 0.349101629331205D+02 -.160824126509151D+02 0.859371558657099D+01
 0.101003213928183D+03 -.310880835826131D+02 0.290874026238161D+02 -.859371558657099D+01
 0.135877483123934D+02 -.382207935050736D+01 -.130049899729011D+02 0.942788122601781D+00
0.162850755699D-03 0.000000000000D+00 0.000000000000D+00 0.174101919827D-02 0.000000000000D+00  5 -4 4 25 23 21 0 0.23976076D-01 0.13245130D-01 0.13341918D+05 0.13341918D+05 0.13341918D+05 0.12536642D+01  1  2  2  2  5  2        4 0.196453272134D-01 0.100000000000D+01
-.904717720148D-05 0.000000000000D+00 -.625389781471D-06 0.174101919827D-02 0.000000000000D+00  5 -4 4 25 23 21 2 0.23976076D-01 0.13245130D-01 0.13341918D+05 0.13341918D+05 0.13341918D+05 0.12536642D+01  1  2  3  2  5  2        4 -.171531940692D-02 0.100000000000D+01
0.112518283306D-04 0.000000000000D+00 0.000000000000D+00 0.174101919827D-02 0.000000000000D+00  5 -4 4 25 23 21 2 0.23976076D-01 0.13245130D-01 0.13341918D+05 0.13341918D+05 0.13341918D+05 0.12536642D+01  1  2 15  2  5  2        4 0.213331507375D-02 0.100000000000D+01
0.288629123248D-03 0.000000000000D+00 0.000000000000D+00 0.174101919827D-02 0.000000000000D+00  5 -4 4 25 23 21 2 0.23976076D-01 0.14392639D-01 0.15002326D+05 0.15002326D+05 0.15002326D+05 0.12478149D+01  1  2 12  2  5  2        4 0.475815588825D-01 0.100000000000D+01
-.212398398019D-03 0.000000000000D+00 0.000000000000D+00 0.174101919827D-02 0.000000000000D+00  5 -4 4 25 23 21 2 0.23976076D-01 0.13245130D-01 0.13341918D+05 0.13341918D+05 0.13341918D+05 0.12536642D+01  1  2  4  2  5  2        4 -.402701401781D-01 0.100000000000D+01
0.398678617556D-05 0.000000000000D+00 0.000000000000D+00 0.174101919827D-02 0.000000000000D+00  5 -4 21 25 23 -4 2 0.23976076D-01 0.14392639D-01 0.15002326D+05 0.15002326D+05 0.15002326D+05 0.12478149D+01  1  2 12  4  5  2        4 0.170904373781D-01 0.100000000000D+01
  </mgrwgt>
  </event>
  <event>
  4     66 0.46888340E-03 0.13144394E+03 0.75467711E-02 0.12235960E+00
       -2 -1    0    0    0  501 0.00000000E+00 0.00000000E+00 0.59451714E+01 0.59537772E+01 0.32000000E+00 0.0000E+00 0.9000E+01
        2 -1    0    0  501    0 0.00000000E+00 0.00000000E+00 -.29515921E+04 0.29515921E+04 0.32000000E+00 0.0000E+00 0.9000E+01
       25  1    1    2    0    0 0.62680094E+02 -.39646903E+02 -.14394146E+04 0.14467343E+04 0.12500000E+03 0.0000E+00 0.9000E+01
       23  1    1    2    0    0 -.62680094E+02 0.39646903E+02 -.15062323E+04 0.15108116E+04 0.91188000E+02 0.0000E+00 0.9000E+01
#aMCatNLO 1  0  0  1  1 0.23748182D+01 0.00000000D+00  -5  5  0 0.00000000D+00 0.00000000D+00 0.00000000D+00 0.00000000D+00 0.00000000D+00
  <mgrwgt>
 0.2008346970D+00    6    2    0
 0.132515932718462D+03 0.000000000000000D+00 0.000000000000000D+00 0.132515932718462D+03
 0.132515932718462D+03 0.000000000000000D+00 0.000000000000000D+00 -.132515932718462D+03
 0.146306253070978D+03 0.626800940195832D+02 -.396469033397765D+02 0.167286746914294D+02
 0.118725612365947D+03 -.626800940195832D+02 0.396469033397765D+02 -.167286746914294D+02
 0.000000000000000D+00 -.000000000000000D+00 -.000000000000000D+00 -.000000000000000D+00
 0.132800369904037D+03 0.000000000000000D+00 0.000000000000000D+00 0.132800369904037D+03
 0.137572676626199D+03 0.000000000000000D+00 0.000000000000000D+00 -.137572676626199D+03
 0.146747917367658D+03 0.639375883749361D+02 -.392694217885937D+02 0.167286746914294D+02
 0.118294587635775D+03 -.616630412229598D+02 0.399522078253751D+02 -.167286746914294D+02
 0.533054152680344D+01 -.227454715197631D+01 -.682786036781378D+00 -.477230672216160D+01
0.312740258199D-03 0.000000000000D+00 0.000000000000D+00 0.148193398155D-02 0.000000000000D+00  5 -2 2 25 23 21 0 0.91530508D-03 0.45409175D+00 0.17277509D+05 0.17277509D+05 0.17277509D+05 0.12408842D+01  1  2  2  1  5  1       -2 0.169632003061D+00 0.100000000000D+01
-.173730651008D-04 0.000000000000D+00 -.120100493789D-05 0.148193398155D-02 0.000000000000D+00  5 -2 2 25 23 21 2 0.91530508D-03 0.45409175D+00 0.17277509D+05 0.17277509D+05 0.17277509D+05 0.12408842D+01  1  2  3  1  5  1       -2 -.145098505615D-01 0.100000000000D+01
0.216364461926D-04 0.000000000000D+00 0.000000000000D+00 0.148193398155D-02 0.000000000000D+00  5 -2 2 25 23 21 2 0.91530508D-03 0.45409175D+00 0.17277509D+05 0.17277509D+05 0.17277509D+05 0.12408842D+01  1  2 15  1  5  1       -2 0.180705937102D-01 0.100000000000D+01
-.705869491865D-04 0.000000000000D+00 0.000000000000D+00 0.148193398155D-02 0.000000000000D+00  5 -2 2 25 23 21 2 0.91530508D-03 0.45409175D+00 0.17277509D+05 0.17277509D+05 0.17277509D+05 0.12408842D+01  1  2  4  1  5  1       -2 -.589536779116D-01 0.100000000000D+01
0.705604200904D-04 0.000000000000D+00 0.000000000000D+00 0.148193398155D-02 0.215628852171D-02  5 -2 2 25 23 21 2 0.91726972D-03 0.47141967D+00 0.17592293D+05 0.17592293D+05 0.17592293D+05 0.12400065D+01  1  2 11  1  5  1       -2 0.504879392136D-01 0.100000000000D+01
0.213260072633D-05 0.000000000000D+00 0.000000000000D+00 0.148193398155D-02 0.880454621587D-06  5 21 2 25 23 2 2 0.91726972D-03 0.47141967D+00 0.17592293D+05 0.17592293D+05 0.17592293D+05 0.12400065D+01  1  2 11  3  5  1       -2 0.361076894698D-01 0.100000000000D+01
  </mgrwgt>
  </event>
  <event>
  4     66 0.46888340E-03 0.12284943E+03 0.75467711E-02 0.10592831E+00
       -2 -1    0    0    0  501 0.00000000E+00 0.00000000E+00 0.17259595E+02 0.17262561E+02 0.32000000E+00 0.0000E+00 0.9000E+01
        2 -1    0    0  501    0 0.00000000E+00 0.00000000E+00 -.89307453E+03 0.89307459E+03 0.32000000E+00 0.0000E+00 0.9000E+01
       25  1    1    2    0    0 -.40010599E+02 -.41740700E+02 -.42435725E+03 0.44614707E+03 0.12500000E+03 0.0000E+00 0.9000E+01
       23  1    1    2    0    0 0.40010599E+02 0.41740700E+02 -.45145769E+03 0.46419008E+03 0.91188000E+02 0.0000E+00 0.9000E+01
#aMCatNLO 1  0  0  1  1 0.31612314D+03 0.00000000D+00  -5  5  0 0.00000000D+00 0.00000000D+00 0.00000000D+00 0.00000000D+00 0.00000000D+00
  <mgrwgt>
 0.1912645005D+00    5    2    0
 0.124159093955235D+03 0.000000000000000D+00 0.000000000000000D+00 0.124159093955235D+03
 0.124159093955235D+03 0.000000000000000D+00 0.000000000000000D+00 -.124159093955235D+03
 0.138877606355614D+03 -.400105985819851D+02 -.417406999258130D+02 0.178565259185375D+02
 0.109440581554855D+03 0.400105985819851D+02 0.417406999258130D+02 -.178565259185375D+02
 0.000000000000000D+00 -.000000000000000D+00 -.000000000000000D+00 0.000000000000000D+00
 0.387368012009192D+03 0.000000000000000D+00 0.000000000000000D+00 0.387368012009192D+03
 0.335045638838081D+03 0.000000000000000D+00 0.000000000000000D+00 -.335045638838081D+03
 0.168001880819771D+03 -.287864717217337D+02 0.107014557359805D+03 0.178565259185375D+02
 0.233987875299993D+03 0.525715051536134D+02 0.208212525491166D+03 -.178565259185375D+02
 0.320423894727508D+03 -.237850334318797D+02 -.315227082850970D+03 0.523223731711111D+02
0.100116308999D-03 0.000000000000D+00 0.000000000000D+00 0.158212517019D-02 0.000000000000D+00  5 -2 2 25 23 21 0 0.26555548D-02 0.13739631D+00 0.15091981D+05 0.15091981D+05 0.15091981D+05 0.12475200D+01  1  2  2  1  5  1       -2 0.148171491565D+00 0.100000000000D+01
-.556125669954D-05 0.000000000000D+00 -.384472987787D-06 0.158212517019D-02 0.000000000000D+00  5 -2 2 25 23 21 2 0.26555548D-02 0.13739631D+00 0.15091981D+05 0.15091981D+05 0.15091981D+05 0.12475200D+01  1  2  3  1  5  1       -2 -.128093702860D-01 0.100000000000D+01
0.690613775362D-05 0.000000000000D+00 0.000000000000D+00 0.158212517019D-02 0.000000000000D+00  5 -2 2 25 23 21 2 0.26555548D-02 0.13739631D+00 0.15091981D+05 0.15091981D+05 0.15091981D+05 0.12475200D+01  1  2 15  1  5  1       -2 0.159070657069D-01 0.100000000000D+01
0.149290743941D-03 0.000000000000D+00 -.619495342504D-04 0.158212517019D-02 0.000000000000D+00  5 -2 2 25 23 21 2 0.24814361D-01 0.13739631D+00 0.15091981D+05 0.15091981D+05 0.15091981D+05 0.12475200D+01  1  2  5  1  5  1       -2 0.105002423512D-01 0.100000000000D+01
0.308205388282D-04 0.000000000000D+00 -.165900073004D-04 0.158212517019D-02 0.000000000000D+00  5 21 2 25 23 2 2 0.24814361D-01 0.13739631D+00 0.15091981D+05 0.15091981D+05 0.15091981D+05 0.12475200D+01  1  2  5  3  5  1       -2 0.294950711634D-01 0.100000000000D+01
  </mgrwgt>
  </event>
  <event>
  4     66 0.46888340E-03 0.12839431E+03 0.75467711E-02 0.11940445E+00
       -2 -1    0    0    0  501 0.00000000E+00 0.00000000E+00 0.11617815E+02 0.11622222E+02 0.32000000E+00 0.0000E+00 0.9000E+01
        2 -1    0    0  501    0 0.00000000E+00 0.00000000E+00 -.14445078E+04 0.14445078E+04 0.32000000E+00 0.0000E+00 0.9000E+01
       25  1    1    2    0    0 -.63310515E+02 0.26633250E+02 -.89121666E+03 0.90255730E+03 0.12500000E+03 0.0000E+00 0.9000E+01
       23  1    1    2    0    0 0.63310515E+02 -.26633250E+02 -.54167333E+03 0.55357276E+03 0.91188000E+02 0.0000E+00 0.9000E+01
#aMCatNLO 1  0  0  1  1 0.49301853D+02 0.00000000D+00  -5  5  0 0.00000000D+00 0.00000000D+00 0.00000000D+00 0.00000000D+00 0.00000000D+00
  <mgrwgt>
 0.1911177552D+00    4    2    0
 0.129557935708290D+03 0.000000000000000D+00 0.000000000000000D+00 0.129557935708290D+03
 0.129557935708290D+03 0.000000000000000D+00 0.000000000000000D+00 -.129557935708290D+03
 0.143663109227839D+03 -.633105152991456D+02 0.266332495260006D+02 -.172202678623891D+02
 0.115452762188741D+03 0.633105152991456D+02 -.266332495260006D+02 0.172202678623891D+02
 0.000000000000000D+00 0.000000000000000D+00 -.000000000000000D+00 -.000000000000000D+00
 0.140112459401407D+03 0.000000000000000D+00 0.000000000000000D+00 0.140112459401407D+03
 0.205716079315654D+03 0.000000000000000D+00 0.000000000000000D+00 -.205716079315654D+03
 0.158840670064670D+03 -.857250090430162D+02 0.442723803958598D+02 -.172202678623891D+02
 0.104923822510301D+03 0.469813653275818D+02 -.137829921597936D+02 0.172202678623891D+02
 0.820640461420898D+02 0.387436437154344D+02 -.304893882360662D+02 -.656036199142467D+02
0.159858259432D-03 0.000000000000D+00 0.000000000000D+00 0.151423579233D-02 0.000000000000D+00  5 -2 2 25 23 21 0 0.17876979D-02 0.22223231D+00 0.16485098D+05 0.16485098D+05 0.16485098D+05 0.12431754D+01  1  2  2  1  5  1       -2 0.206136516973D+00 0.100000000000D+01
-.888013547344D-05 0.000000000000D+00 -.613897807865D-06 0.151423579233D-02 0.000000000000D+00  5 -2 2 25 23 21 2 0.17876979D-02 0.22223231D+00 0.16485098D+05 0.16485098D+05 0.16485098D+05 0.12431754D+01  1  2  3  1  5  1       -2 -.176971871634D-01 0.100000000000D+01
0.110542023784D-04 0.000000000000D+00 0.000000000000D+00 0.151423579233D-02 0.000000000000D+00  5 -2 2 25 23 21 2 0.17876979D-02 0.22223231D+00 0.16485098D+05 0.16485098D+05 0.16485098D+05 0.12431754D+01  1  2 15  1  5  1       -2 0.220298765733D-01 0.100000000000D+01
-.971021591362D-05 0.000000000000D+00 0.000000000000D+00 0.151423579233D-02 0.000000000000D+00  5 -2 2 25 23 21 2 0.17876979D-02 0.22223231D+00 0.16485098D+05 0.16485098D+05 0.16485098D+05 0.12431754D+01  1  2  4  1  5  1       -2 -.193514512177D-01 0.100000000000D+01
  </mgrwgt>
  </event>
  <event>
  4     66 0.46888340E-03 0.13841360E+03 0.75467711E-02 0.10660979E+00
       -4 -1    0    0    0  501 0.00000000E+00 0.00000000E+00 0.84212997E+03 0.84213140E+03 0.15500000E+01 0.0000E+00 0.9000E+01
        4 -1    0    0  501    0 0.00000000E+00 0.00000000E+00 -.29654044E+02 0.29694525E+02 0.15500000E+01 0.0000E+00 0.9000E+01
       25  1    1    2    0    0 0.43596215E+02 -.73904537E+02 0.22608995E+03 0.27222082E+03 0.12500000E+03 0.0000E+00 0.9000E+01
       23  1    1    2    0    0 -.43596215E+02 0.73904537E+02 0.58638598E+03 0.59960510E+03 0.91188000E+02 0.0000E+00 0.9000E+01
#aMCatNLO 1  0  0  1  2 0.28559597D+03 0.00000000D+00  -5  5  0 0.00000000D+00 0.00000000D+00 0.00000000D+00 0.00000000D+00 0.00000000D+00
  <mgrwgt>
 0.3999722254D-01    3    2    0
 0.158084871306807D+03 0.000000000000000D+00 0.000000000000000D+00 0.158084871306807D+03
 0.158084871306807D+03 0.000000000000000D+00 0.000000000000000D+00 -.158084871306807D+03
 0.169644719816621D+03 0.435962146847932D+02 -.739045374750850D+02 -.761040101927021D+02
 0.146525022796994D+03 -.435962146847932D+02 0.739045374750850D+02 0.761040101927021D+02
 0.000000000000000D+00 -.000000000000000D+00 -.000000000000000D+00 -.000000000000000D+00
 0.263077094235093D+03 0.000000000000000D+00 0.000000000000000D+00 0.263077094235093D+03
 0.620478178018024D+03 0.000000000000000D+00 0.000000000000000D+00 -.620478178018024D+03
 0.231538498437977D+03 0.179423932836134D+03 -.555173051217636D+00 -.761040101927021D+02
 0.194522957039219D+03 0.718716483101125D+02 0.136259220873519D+03 0.761040101927021D+02
 0.457493816775921D+03 -.251295581146246D+03 -.135704047822301D+03 -.357401083782931D+03
0.183281383817D-02 0.000000000000D+00 0.000000000000D+00 0.104391511068D-02 0.000000000000D+00  5 -4 4 25 23 21 0 0.12956168D+00 0.45653842D-02 0.19158324D+05 0.19158324D+05 0.19158324D+05 0.12358870D+01  1  2  2  1  5  1       -4 0.391282702342D-01 0.100000000000D+01
-.996368195767D-04 0.000000000000D+00 -.703848772954D-05 0.104391511068D-02 0.000000000000D+00  5 -4 4 25 23 21 2 0.12956168D+00 0.45653842D-02 0.19158324D+05 0.19158324D+05 0.19158324D+05 0.12358870D+01  1  2  3  1  5  1       -4 -.324899992573D-02 0.100000000000D+01
0.126284910032D-03 0.000000000000D+00 0.000000000000D+00 0.104391511068D-02 0.000000000000D+00  5 -4 4 25 23 21 2 0.12956168D+00 0.45653842D-02 0.19158324D+05 0.19158324D+05 0.19158324D+05 0.12358870D+01  1  2 15  1  5  1       -4 0.411795222948D-02 0.100000000000D+01
  </mgrwgt>
  </event>
  <event>
  4     66 0.46888340E-03 0.82690384E+02 0.75467711E-02 0.11715994E+00
       -2 -1    0    0    0  501 0.00000000E+00 0.00000000E+00 0.79342487E+01 0.79406991E+01 0.32000000E+00 0.0000E+00 0.9000E+01
        2 -1    0    0  501    0 0.00000000E+00 0.00000000E+00 -.15773987E+04 0.15773987E+04 0.32000000E+00 0.0000E+00 0.9000E+01
       25  1    1    2    0    0 -.11062863E+02 -.23943286E+02 -.97736548E+03 0.98567943E+03 0.12500000E+03 0.0000E+00 0.9000E+01
       23  1    1    2    0    0 0.11062863E+02 0.23943286E+02 -.59209897E+03 0.59966000E+03 0.91188000E+02 0.0000E+00 0.9000E+01
#aMCatNLO 1  0  0  1  2 0.10578122D+03 0.00000000D+00  -5  5  0 0.00000000D+00 0.00000000D+00 0.00000000D+00 0.00000000D+00 0.00000000D+00
  <mgrwgt>
 0.1454182587D+00    7    2    0
 0.111895542161857D+03 0.000000000000000D+00 0.000000000000000D+00 0.111895542161857D+03
 0.111895542161857D+03 0.000000000000000D+00 0.000000000000000D+00 -.111895542161857D+03
 0.128227177262714D+03 -.110628631097412D+02 -.239432857473705D+02 -.110245687533975D+02
 0.955639070610003D+02 0.110628631097412D+02 0.239432857473705D+02 0.110245687533975D+02
 0.000000000000000D+00 0.000000000000000D+00 0.000000000000000D+00 0.000000000000000D+00
 0.238715165428452D+03 0.000000000000000D+00 0.000000000000000D+00 0.238715165428452D+03
 0.148102149989022D+03 0.000000000000000D+00 0.000000000000000D+00 -.148102149989022D+03
 0.154293244250006D+03 -.361730644598129D+02 -.821667421319591D+02 -.110245687533975D+02
 0.932388060614732D+02 -.571777921183230D+01 -.149662786441841D+02 0.110245687533975D+02
 0.139285265105994D+03 0.418908436716452D+02 0.971330207761431D+02 0.906130154394294D+02
0.840546979295D-04 0.000000000000D+00 0.000000000000D+00 0.181841903249D-02 0.000000000000D+00  5 -2 2 25 23 21 0 0.12211523D-02 0.24267722D+00 0.12396399D+05 0.12396399D+05 0.12396399D+05 0.12573733D+01  1  2  2  1  5  1       -2 0.158687281053D+00 0.100000000000D+01
-.466956434106D-05 0.000000000000D+00 -.322792172160D-06 0.181841903249D-02 0.000000000000D+00  5 -2 2 25 23 21 2 0.12211523D-02 0.24267722D+00 0.12396399D+05 0.12396399D+05 0.12396399D+05 0.12573733D+01  1  2  3  1  5  1       -2 -.139375022197D-01 0.100000000000D+01
0.581034744332D-05 0.000000000000D+00 0.000000000000D+00 0.181841903249D-02 0.000000000000D+00  5 -2 2 25 23 21 2 0.12211523D-02 0.24267722D+00 0.12396399D+05 0.12396399D+05 0.12396399D+05 0.12573733D+01  1  2 15  1  5  1       -2 0.173424594830D-01 0.100000000000D+01
0.131013654986D-06 0.000000000000D+00 0.000000000000D+00 0.181841903249D-02 0.000000000000D+00  5 -2 2 25 23 21 2 0.26108802D-02 0.24267722D+00 0.31022628D+05 0.31022628D+05 0.31022628D+05 0.12133735D+01  1  2 12  1  5  1       -2 0.123455170247D-03 0.100000000000D+01
-.154266466811D-04 0.000000000000D+00 -.244463103883D-04 0.181841903249D-02 0.000000000000D+00  5 -2 2 25 23 21 2 0.35814020D-02 0.24267722D+00 0.12396399D+05 0.12396399D+05 0.12396399D+05 0.12573733D+01  1  2  5  1  5  1       -2 -.970169821006D-02 0.100000000000D+01
0.107733207589D-07 0.000000000000D+00 0.000000000000D+00 0.181841903249D-02 0.000000000000D+00  5 21 2 25 23 2 2 0.26108802D-02 0.24267722D+00 0.31022628D+05 0.31022628D+05 0.31022628D+05 0.12133735D+01  1  2 12  3  5  1       -2 0.201895373468D-03 0.100000000000D+01
-.607494625434D-06 0.000000000000D+00 -.297992144502D-05 0.181841903249D-02 0.000000000000D+00  5 21 2 25 23 2 2 0.35814020D-02 0.24267722D+00 0.12396399D+05 0.12396399D+05 0.12396399D+05 0.12573733D+01  1  2  5  3  5  1       -2 -.729763192026D-02 0.100000000000D+01
  </mgrwgt>
  </event>
  <event>
  4     66 0.46888340E-03 0.11183032E+03 0.75467711E-02 0.12381053E+00
       -2 -1    0    0    0  501 0.00000000E+00 0.00000000E+00 0.16584882E+02 0.16587969E+02 0.32000000E+00 0.0000E+00 0.9000E+01
        2 -1    0    0  501    0 0.00000000E+00 0.00000000E+00 -.78272309E+03 0.78272315E+03 0.32000000E+00 0.0000E+00 0.9000E+01
       25  1    1    2    0    0 -.26649904E+02 0.96286370E+01 -.36120676E+03 0.38327307E+03 0.12500000E+03 0.0000E+00 0.9000E+01
       23  1    1    2    0    0 0.26649904E+02 -.96286370E+01 -.40493145E+03 0.41603805E+03 0.91188000E+02 0.0000E+00 0.9000E+01
#aMCatNLO 1  0  0  1  1 0.21483156D+02 0.00000000D+00  -5  5  0 0.00000000D+00 0.00000000D+00 0.00000000D+00 0.00000000D+00 0.00000000D+00
  <mgrwgt>
 0.1586047907D+00    4    2    0
 0.113941344488549D+03 0.000000000000000D+00 0.000000000000000D+00 0.113941344488549D+03
 0.113941344488549D+03 0.000000000000000D+00 0.000000000000000D+00 -.113941344488549D+03
 0.129979747161458D+03 -.266499035789997D+02 0.962863698908569D+01 0.216057089936657D+02
 0.979029418156397D+02 0.266499035789997D+02 -.962863698908569D+01 -.216057089936657D+02
 0.000000000000000D+00 0.000000000000000D+00 -.000000000000000D+00 -.000000000000000D+00
 0.116993543977394D+03 0.000000000000000D+00 0.000000000000000D+00 0.116993543977394D+03
 0.159747491494487D+03 0.000000000000000D+00 0.000000000000000D+00 -.159747491494487D+03
 0.132171663115656D+03 -.303265554223054D+02 0.213972406131592D+02 0.216057089936657D+02
 0.967214253364529D+02 0.239203129295138D+02 -.891483791328941D+00 -.216057089936657D+02
 0.478479470197717D+02 0.640624249279166D+01 -.205057568218302D+02 -.427539475170936D+02
0.923466179043D-04 0.000000000000D+00 0.000000000000D+00 0.173982656254D-02 0.000000000000D+00  5 -2 2 25 23 21 0 0.25517628D-02 0.12041918D+00 0.12506020D+05 0.12506020D+05 0.12506020D+05 0.12569272D+01  1  2  2  1  5  1       -2 0.169777623080D+00 0.100000000000D+01
-.512818611954D-05 0.000000000000D+00 -.354635328175D-06 0.173982656254D-02 0.000000000000D+00  5 -2 2 25 23 21 2 0.25517628D-02 0.12041918D+00 0.12506020D+05 0.12506020D+05 0.12506020D+05 0.12569272D+01  1  2  3  1  5  1       -2 -.148951026924D-01 0.100000000000D+01
0.636514129468D-05 0.000000000000D+00 0.000000000000D+00 0.173982656254D-02 0.000000000000D+00  5 -2 2 25 23 21 2 0.25517628D-02 0.12041918D+00 0.12506020D+05 0.12506020D+05 0.12506020D+05 0.12569272D+01  1  2 15  1  5  1       -2 0.184879080100D-01 0.100000000000D+01
-.508361304255D-05 0.000000000000D+00 0.000000000000D+00 0.173982656254D-02 0.000000000000D+00  5 -2 2 25 23 21 2 0.25517628D-02 0.12041918D+00 0.12506020D+05 0.12506020D+05 0.12506020D+05 0.12569272D+01  1  2  4  1  5  1       -2 -.147656377035D-01 0.100000000000D+01
  </mgrwgt>
  </event>
  <event>
  4     66 0.46888340E-03 0.74630385E+02 0.75467711E-02 0.12339907E+00
       -2 -1    0    0    0  501 0.00000000E+00 0.00000000E+00 0.76550052E+02 0.76550721E+02 0.32000000E+00 0.0000E+00 0.9000E+01
        2 -1    0    0  501    0 0.00000000E+00 0.00000000E+00 -.17414816E+03 0.17414845E+03 0.32000000E+00 0.0000E+00 0.9000E+01
       25  1    1    2    0    0 -.19461965E+02 0.34546333E+02 -.48679629E+02 0.13988182E+03 0.12500000E+03 0.0000E+00 0.9000E+01
       23  1    1    2    0    0 0.19461965E+02 -.34546333E+02 -.48918478E+02 0.11081735E+03 0.91188000E+02 0.0000E+00 0.9000E+01
#aMCatNLO 1  0  0  1  2 0.19947594D+02 0.00000000D+00  -5  5  0 0.00000000D+00 0.00000000D+00 0.00000000D+00 0.00000000D+00 0.00000000D+00
  <mgrwgt>
 0.1782765410D+00    6    2    0
 0.115460691899535D+03 0.000000000000000D+00 0.000000000000000D+00 0.115460691899535D+03
 0.115460691899535D+03 0.000000000000000D+00 0.000000000000000D+00 -.115460691899535D+03
 0.131288045208574D+03 -.194619652028154D+02 0.345463331200110D+02 0.627164994990838D+01
 0.996333385904967D+02 0.194619652028154D+02 -.345463331200110D+02 -.627164994990838D+01
 0.000000000000000D+00 -.000000000000000D+00 0.000000000000000D+00 -.000000000000000D+00
 0.124566602031259D+03 0.000000000000000D+00 0.000000000000000D+00 0.124566602031259D+03
 0.127356490284804D+03 0.000000000000000D+00 0.000000000000000D+00 -.127356490284804D+03
 0.128364613291304D+03 -.131452309071754D+02 0.253050045787151D+02 0.627164994990838D+01
 0.103416731935245D+03 0.244016925741131D+02 -.417731122444873D+02 -.627164994990838D+01
 0.201417470895146D+02 -.112564616669377D+02 0.164681076657721D+02 -.278988825354500D+01
0.128032667746D-03 0.000000000000D+00 0.000000000000D+00 0.175160308826D-02 0.000000000000D+00  5 -2 2 25 23 21 0 0.11777005D-01 0.26792099D-01 0.13291082D+05 0.13291082D+05 0.13291082D+05 0.12538560D+01  1  2  2  1  5  1       -2 0.120858887607D+00 0.100000000000D+01
-.711290637509D-05 0.000000000000D+00 -.491679155920D-06 0.175160308826D-02 0.000000000000D+00  5 -2 2 25 23 21 2 0.11777005D-01 0.26792099D-01 0.13291082D+05 0.13291082D+05 0.13291082D+05 0.12538560D+01  1  2  3  1  5  1       -2 -.105560195423D-01 0.100000000000D+01
0.884445793569D-05 0.000000000000D+00 0.000000000000D+00 0.175160308826D-02 0.000000000000D+00  5 -2 2 25 23 21 2 0.11777005D-01 0.26792099D-01 0.13291082D+05 0.13291082D+05 0.13291082D+05 0.12538560D+01  1  2 15  1  5  1       -2 0.131257556176D-01 0.100000000000D+01
0.108441135751D-03 0.000000000000D+00 0.000000000000D+00 0.175160308826D-02 0.000000000000D+00  5 -2 2 25 23 21 2 0.13260892D-01 0.26792099D-01 0.15798641D+05 0.15798641D+05 0.15798641D+05 0.12452624D+01  1  2 12  1  5  1       -2 0.132200737617D+00 0.100000000000D+01
-.773167261304D-04 0.000000000000D+00 0.000000000000D+00 0.175160308826D-02 0.000000000000D+00  5 -2 2 25 23 21 2 0.11777005D-01 0.26792099D-01 0.13291082D+05 0.13291082D+05 0.13291082D+05 0.12538560D+01  1  2  4  1  5  1       -2 -.114743092196D+00 0.100000000000D+01
0.203833358855D-05 0.000000000000D+00 0.000000000000D+00 0.175160308826D-02 0.000000000000D+00  5 21 2 25 23 2 2 0.13260892D-01 0.26792099D-01 0.15798641D+05 0.15798641D+05 0.15798641D+05 0.12452624D+01  1  2 12  3  5  1       -2 0.373902719409D-01 0.100000000000D+01
  </mgrwgt>
  </event>
  <event>
  4     66 0.46888340E-03 0.11050499E+03 0.75467711E-02 0.11435045E+00
       -2 -1    0    0    0  501 0.00000000E+00 0.00000000E+00 0.51827831E+02 0.51828819E+02 0.32000000E+00 0.0000E+00 0.9000E+01
        2 -1    0    0  501    0 0.00000000E+00 0.00000000E+00 -.23567047E+03 0.23567069E+03 0.32000000E+00 0.0000E+00 0.9000E+01
       25  1    1    2    0    0 0.18977671E+02 0.12431936E+02 -.10794156E+03 0.16670658E+03 0.12500000E+03 0.0000E+00 0.9000E+01
       23  1    1    2    0    0 -.18977671E+02 -.12431936E+02 -.75901085E+02 0.12079293E+03 0.91188000E+02 0.0000E+00 0.9000E+01
#aMCatNLO 1  0  0  2  1 0.14874049D+03 0.00000000D+00  -5  5  0 0.00000000D+00 0.00000000D+00 0.00000000D+00 0.00000000D+00 0.00000000D+00
  <mgrwgt>
 0.1396626931D+00    3    2    0
 0.110519060365481D+03 0.000000000000000D+00 0.000000000000000D+00 0.110519060365481D+03
 0.110519060365481D+03 0.000000000000000D+00 0.000000000000000D+00 -.110519060365481D+03
 0.127054101090192D+03 0.189776712360420D+02 0.124319357450518D+02 -.174343681397767D+01
 0.939840196407705D+02 -.189776712360420D+02 -.124319357450518D+02 0.174343681397767D+01
 0.000000000000000D+00 -.000000000000000D+00 0.000000000000000D+00 0.000000000000000D+00
 0.245804702303424D+03 0.000000000000000D+00 0.000000000000000D+00 0.245804702303424D+03
 0.182335155005527D+03 0.000000000000000D+00 0.000000000000000D+00 -.182335155005527D+03
 0.154273032948781D+03 0.712073567260912D+02 -.556923825255703D+02 -.174343681397767D+01
 0.112150661206352D+03 0.192921870412808D+02 -.623481468229962D+02 0.174343681397767D+01
 0.161716163153818D+03 -.904995437673719D+02 0.118040529348567D+03 0.634695472978968D+02
0.109453336025D-03 0.000000000000D+00 0.000000000000D+00 0.186307216518D-02 0.000000000000D+00  5 -2 2 25 23 21 0 0.79736052D-02 0.36257088D-01 0.12211354D+05 0.12211354D+05 0.12211354D+05 0.12581364D+01  1  2  2  2  5  2        2 0.136722257617D+00 0.100000000000D+01
-.608074077048D-05 0.000000000000D+00 -.420329630061D-06 0.186307216518D-02 0.000000000000D+00  5 -2 2 25 23 21 2 0.79736052D-02 0.36257088D-01 0.12211354D+05 0.12211354D+05 0.12211354D+05 0.12581364D+01  1  2  3  2  5  2        2 -.120232580685D-01 0.100000000000D+01
0.756786061593D-05 0.000000000000D+00 0.000000000000D+00 0.186307216518D-02 0.000000000000D+00  5 -2 2 25 23 21 2 0.79736052D-02 0.36257088D-01 0.12211354D+05 0.12211354D+05 0.12211354D+05 0.12581364D+01  1  2 15  2  5  2        2 0.149636935114D-01 0.100000000000D+01
  </mgrwgt>
  </event>
  <event>
  4     66 0.46888340E-03 0.15273105E+03 0.75467711E-02 0.11500187E+00
       -2 -1    0    0    0  501 0.00000000E+00 0.00000000E+00 0.18764421E+02 0.18767150E+02 0.32000000E+00 0.0000E+00 0.9000E+01
        2 -1    0    0  501    0 0.00000000E+00 0.00000000E+00 -.14186444E+04 0.14186444E+04 0.32000000E+00 0.0000E+00 0.9000E+01
       25  1    1    2    0    0 0.79780125E+02 0.71658515E+02 -.10001627E+04 0.10136322E+04 0.12500000E+03 0.0000E+00 0.9000E+01
       23  1    1    2    0    0 -.79780125E+02 -.71658515E+02 -.39971723E+03 0.42377933E+03 0.91188000E+02 0.0000E+00 0.9000E+01
#aMCatNLO 1  0  0  1  2 0.82895637D+02 0.00000000D+00  -5  5  0 0.00000000D+00 0.00000000D+00 0.00000000D+00 0.00000000D+00 0.00000000D+00
  <mgrwgt>
 0.2291537560D+00    3    2    0
 0.163162579754994D+03 0.000000000000000D+00 0.000000000000000D+00 0.163162579754994D+03
 0.163162579754994D+03 0.000000000000000D+00 0.000000000000000D+00 -.163162579754994D+03
 0.174362679476046D+03 0.797801248446615D+02 0.716585147162602D+02 -.572497418552794D+02
 0.151962480033943D+03 -.797801248446615D+02 -.716585147162602D+02 0.572497418552794D+02
 0.000000000000000D+00 0.000000000000000D+00 0.000000000000000D+00 -.000000000000000D+00
 0.180506333420321D+03 0.000000000000000D+00 0.000000000000000D+00 0.180506333420321D+03
 0.309602590922405D+03 0.000000000000000D+00 0.000000000000000D+00 -.309602590922405D+03
 0.153647138483417D+03 0.430635332353321D+02 0.533895338707474D+02 -.572497418552794D+02
 0.183042327221736D+03 -.117279717910772D+03 -.903170915996664D+02 0.572497418552794D+02
 0.153419458637573D+03 0.742161846754398D+02 0.369275577289190D+02 -.129096257502084D+03
0.337087507965D-03 0.000000000000D+00 0.000000000000D+00 0.113626448509D-02 0.000000000000D+00  5 -2 2 25 23 21 0 0.28870467D-02 0.21825319D+00 0.23326774D+05 0.23326774D+05 0.23326774D+05 0.12265364D+01  1  2  2  1  5  1       -2 0.224573971376D+00 0.100000000000D+01
-.186276940010D-04 0.000000000000D+00 -.129450478777D-05 0.113626448509D-02 0.000000000000D+00  5 -2 2 25 23 21 2 0.28870467D-02 0.21825319D+00 0.23326774D+05 0.23326774D+05 0.23326774D+05 0.12265364D+01  1  2  3  1  5  1       -2 -.186696732117D-01 0.100000000000D+01
0.231971809184D-04 0.000000000000D+00 0.000000000000D+00 0.113626448509D-02 0.000000000000D+00  5 -2 2 25 23 21 2 0.28870467D-02 0.21825319D+00 0.23326774D+05 0.23326774D+05 0.23326774D+05 0.12265364D+01  1  2 15  1  5  1       -2 0.232494578854D-01 0.100000000000D+01
  </mgrwgt>
  </event>
  <event>
  4     66 0.46888340E-03 0.12176718E+03 0.75467711E-02 0.10894599E+00
       -2 -1    0    0    0  501 0.00000000E+00 0.00000000E+00 0.32600950E+02 0.32602520E+02 0.32000000E+00 0.0000E+00 0.9000E+01
        2 -1    0    0  501    0 0.00000000E+00 0.00000000E+00 -.11800092E+04 0.11800092E+04 0.32000000E+00 0.0000E+00 0.9000E+01
       25  1    1    2    0    0 -.10257838E+03 -.10979223E+03 -.40519662E+03 0.44987327E+03 0.12500000E+03 0.0000E+00 0.9000E+01
       23  1    1    2    0    0 0.10257838E+03 0.10979223E+03 -.74221164E+03 0.76273850E+03 0.91188000E+02 0.0000E+00 0.9000E+01
#aMCatNLO 1  0  0  2  1 0.17385310D+03 0.00000000D+00  -5  5  0 0.00000000D+00 0.00000000D+00 0.00000000D+00 0.00000000D+00 0.00000000D+00
  <mgrwgt>
 0.1470685863D+00    7    2    0
 0.196138725283642D+03 0.000000000000000D+00 0.000000000000000D+00 0.196138725283642D+03
 0.196138725283642D+03 0.000000000000000D+00 0.000000000000000D+00 -.196138725283642D+03
 0.205455789832508D+03 -.102578380215364D+03 -.109792225915409D+03 0.633279134081608D+02
 0.186821660734775D+03 0.102578380215364D+03 0.109792225915409D+03 -.633279134081608D+02
 0.000000000000000D+00 0.000000000000000D+00 -.000000000000000D+00 -.000000000000000D+00
 0.260604743670003D+03 0.000000000000000D+00 0.000000000000000D+00 0.260604743670003D+03
 0.378566536138959D+03 0.000000000000000D+00 0.000000000000000D+00 -.378566536138959D+03
 0.185879269428749D+03 -.118745198730202D+03 -.285526875312762D+02 0.633279134081608D+02
 0.243197064255740D+03 0.848134636294922D+02 0.199062333175184D+03 -.633279134081608D+02
 0.210094946124472D+03 0.339317351007096D+02 -.170509645643908D+03 -.117961792468956D+03
0.403870828515D-03 0.000000000000D+00 0.000000000000D+00 0.104092138636D-02 0.000000000000D+00  5 -2 2 25 23 21 0 0.50156549D-02 0.18154000D+00 0.34449844D+05 0.34449844D+05 0.34449844D+05 0.12086443D+01  1  2  2  2  5  2        2 0.160124275724D+00 0.100000000000D+01
-.223541667685D-04 0.000000000000D+00 -.155097032313D-05 0.104092138636D-02 0.000000000000D+00  5 -2 2 25 23 21 2 0.50156549D-02 0.18154000D+00 0.34449844D+05 0.34449844D+05 0.34449844D+05 0.12086443D+01  1  2  3  2  5  2        2 -.129470322118D-01 0.100000000000D+01
0.276851405498D-04 0.000000000000D+00 0.000000000000D+00 0.104092138636D-02 0.000000000000D+00  5 -2 2 25 23 21 2 0.50156549D-02 0.18154000D+00 0.34449844D+05 0.34449844D+05 0.34449844D+05 0.12086443D+01  1  2 15  2  5  2        2 0.160346127055D-01 0.100000000000D+01
0.120259274591D-05 0.000000000000D+00 0.000000000000D+00 0.104092138636D-02 0.000000000000D+00  5 -2 2 25 23 21 2 0.50156549D-02 0.35723670D+00 0.85094475D+05 0.85094475D+05 0.85094475D+05 0.11700665D+01  1  2 12  2  5  2        2 0.160263194093D-03 0.100000000000D+01
-.148635936655D-03 0.000000000000D+00 -.128628273755D-03 0.104092138636D-02 0.000000000000D+00  5 -2 2 25 23 21 2 0.50156549D-02 0.39240332D+00 0.34449844D+05 0.34449844D+05 0.34449844D+05 0.12086443D+01  1  2  5  2  5  2        2 -.162121059714D-01 0.100000000000D+01
0.881613473501D-07 0.000000000000D+00 0.000000000000D+00 0.104092138636D-02 0.000000000000D+00  5 -2 21 25 23 -2 2 0.50156549D-02 0.35723670D+00 0.85094475D+05 0.85094475D+05 0.85094475D+05 0.11700665D+01  1  2 12  4  5  2        2 0.265328694933D-05 0.100000000000D+01
-.434227907081D-05 0.000000000000D+00 -.107348079347D-04 0.104092138636D-02 0.000000000000D+00  5 -2 21 25 23 -2 2 0.50156549D-02 0.39240332D+00 0.34449844D+05 0.34449844D+05 0.34449844D+05 0.12086443D+01  1  2  5  4  5  2        2 -.940803774233D-04 0.100000000000D+01
  </mgrwgt>
  </event>
  <event>
  4     66 0.46888340E-03 0.84469531E+02 0.75467711E-02 0.12086298E+00
       -2 -1    0    0    0  501 0.00000000E+00 0.00000000E+00 0.14504487E+02 0.14508017E+02 0.32000000E+00 0.0000E+00 0.9000E+01
        2 -1    0    0  501    0 0.00000000E+00 0.00000000E+00 -.10846407E+04 0.10846408E+04 0.32000000E+00 0.0000E+00 0.9000E+01
       25  1    1    2    0    0 -.61285217E+02 -.78518504E+01 -.65241051E+03 0.66714466E+03 0.12500000E+03 0.0000E+00 0.9000E+01
       23  1    1    2    0    0 0.61285217E+02 0.78518504E+01 -.41772576E+03 0.43200415E+03 0.91188000E+02 0.0000E+00 0.9000E+01
#aMCatNLO 1  0  0  2  1 0.35059519D+02 0.00000000D+00  -5  5  0 0.00000000D+00 0.00000000D+00 0.00000000D+00 0.00000000D+00 0.00000000D+00
  <mgrwgt>
 0.2387838729D+00    9    2    0
 0.125435734548203D+03 0.000000000000000D+00 0.000000000000000D+00 0.125435734548203D+03
 0.125435734548203D+03 0.000000000000000D+00 0.000000000000000D+00 -.125435734548203D+03
 0.140004447129049D+03 -.612852174855568D+02 -.785185038479962D+01 -.125982450838749D+02
 0.110867021967358D+03 0.612852174855568D+02 0.785185038479962D+01 0.125982450838749D+02
 0.000000000000000D+00 -.000000000000000D+00 -.000000000000000D+00 -.000000000000000D+00
 0.140798950605378D+03 0.000000000000000D+00 0.000000000000000D+00 0.140798950605378D+03
 0.148380338490489D+03 0.000000000000000D+00 0.000000000000000D+00 -.148380338490489D+03
 0.138764580864834D+03 -.578436660444142D+02 0.112251245846962D+02 -.125982450838749D+02
 0.114544842269110D+03 0.640680464525921D+02 0.232774395286583D+02 0.125982450838749D+02
 0.358698659619235D+02 -.622438040817791D+01 -.345025641133545D+02 -.758138788511109D+01
0.869812307722D-04 0.000000000000D+00 0.000000000000D+00 0.157693045874D-02 0.000000000000D+00  5 -2 2 25 23 21 0 0.22317347D-02 0.16686808D+00 0.15573215D+05 0.15573215D+05 0.15573215D+05 0.12459701D+01  1  2  2  2  5  2        2 0.127440450057D+00 0.100000000000D+01
-.483213539209D-05 0.000000000000D+00 -.334030828849D-06 0.157693045874D-02 0.000000000000D+00  5 -2 2 25 23 21 2 0.22317347D-02 0.16686808D+00 0.15573215D+05 0.15573215D+05 0.15573215D+05 0.12459701D+01  1  2  3  2  5  2        2 -.109909708762D-01 0.100000000000D+01
0.599819204393D-05 0.000000000000D+00 0.000000000000D+00 0.157693045874D-02 0.000000000000D+00  5 -2 2 25 23 21 2 0.22317347D-02 0.16686808D+00 0.15573215D+05 0.15573215D+05 0.15573215D+05 0.12459701D+01  1  2 15  2  5  2        2 0.136432340394D-01 0.100000000000D+01
0.746606355283D-04 0.000000000000D+00 0.000000000000D+00 0.157693045874D-02 0.000000000000D+00  5 -2 2 25 23 21 2 0.22317347D-02 0.20605041D+00 0.20606739D+05 0.20606739D+05 0.20606739D+05 0.12323997D+01  1  2 12  2  5  2        2 0.121115308153D+00 0.100000000000D+01
-.712537339364D-04 0.000000000000D+00 0.000000000000D+00 0.157693045874D-02 0.000000000000D+00  5 -2 2 25 23 21 2 0.22317347D-02 0.16686808D+00 0.15573215D+05 0.15573215D+05 0.15573215D+05 0.12459701D+01  1  2  4  2  5  2        2 -.162070730840D+00 0.100000000000D+01
-.185319889963D-03 0.000000000000D+00 -.555102681560D-04 0.157693045874D-02 0.000000000000D+00  5 -2 2 25 23 21 2 0.22317347D-02 0.21233277D+00 0.15573215D+05 0.15573215D+05 0.15573215D+05 0.12459701D+01  1  2  5  2  5  2        2 -.290364091091D+00 0.100000000000D+01
0.194592313588D-03 0.000000000000D+00 0.539369574521D-04 0.157693045874D-02 0.000000000000D+00  5 -2 2 25 23 21 2 0.22317347D-02 0.16686808D+00 0.15573215D+05 0.15573215D+05 0.15573215D+05 0.12459701D+01  1  2  6  2  5  2        2 0.442611449770D+00 0.100000000000D+01
0.222499270342D-05 0.000000000000D+00 0.000000000000D+00 0.157693045874D-02 0.000000000000D+00  5 -2 21 25 23 -2 2 0.22317347D-02 0.20605041D+00 0.20606739D+05 0.20606739D+05 0.20606739D+05 0.12323997D+01  1  2 12  4  5  2        2 0.213975202288D-02 0.100000000000D+01
-.522756247035D-05 0.000000000000D+00 -.182809999931D-05 0.157693045874D-02 0.000000000000D+00  5 -2 21 25 23 -2 2 0.22317347D-02 0.21233277D+00 0.15573215D+05 0.15573215D+05 0.15573215D+05 0.12459701D+01  1  2  5  4  5  2        2 -.474052831581D-02 0.100000000000D+01
  </mgrwgt>
  </event>
  <event>
  4     66 0.46888340E-03 0.58549791E+02 0.75467711E-02 0.12058111E+00
       -2 -1    0    0    0  501 0.00000000E+00 0.00000000E+00 0.18959340E+03 0.18959367E+03 0.32000000E+00 0.0000E+00 0.9000E+01
        2 -1    0    0  501    0 0.00000000E+00 0.00000000E+00 -.11123132E+03 0.11123178E+03 0.32000000E+00 0.0000E+00 0.9000E+01
       25  1    1    2    0    0 0.61010547E+02 0.57296750E+02 0.91944633E+02 0.17630661E+03 0.12500000E+03 0.0000E+00 0.9000E+01
       23  1    1    2    0    0 -.61010547E+02 -.57296750E+02 -.13582560E+02 0.12451884E+03 0.91188000E+02 0.0000E+00 0.9000E+01
#aMCatNLO 1  0  0  2  1 0.16728498D+02 0.00000000D+00  -5  5  0 0.00000000D+00 0.00000000D+00 0.00000000D+00 0.00000000D+00 0.00000000D+00
  <mgrwgt>
 0.1549540583D+00    9    2    0
 0.145219950484376D+03 0.000000000000000D+00 0.000000000000000D+00 0.145219950484376D+03
 0.145219950484376D+03 0.000000000000000D+00 0.000000000000000D+00 -.145219950484376D+03
 0.157803876851963D+03 0.610105470995753D+02 0.572967499153661D+02 0.476640235529484D+02
 0.132636024116789D+03 -.610105470995753D+02 -.572967499153661D+02 -.476640235529484D+02
 0.000000000000000D+00 -.000000000000000D+00 0.000000000000000D+00 -.000000000000000D+00
 0.151858621819265D+03 0.000000000000000D+00 0.000000000000000D+00 0.151858621819265D+03
 0.156395412481450D+03 0.000000000000000D+00 0.000000000000000D+00 -.156395412481450D+03
 0.156810649941330D+03 0.652766810059770D+02 0.493120239962866D+02 0.476640235529484D+02
 0.134110608680258D+03 -.573934958902977D+02 -.640666177101903D+02 -.476640235529484D+02
 0.173327756791266D+02 -.788318511567923D+01 0.147545937139037D+02 -.453679066218483D+01
0.268226456518D-03 0.000000000000D+00 0.000000000000D+00 0.126061101234D-02 0.000000000000D+00  5 -2 2 25 23 21 0 0.29168271D-01 0.17112567D-01 0.18797674D+05 0.18797674D+05 0.18797674D+05 0.12368014D+01  1  2  2  2  5  2        2 0.924440530840D-01 0.100000000000D+01
-.148415560938D-04 0.000000000000D+00 -.103006021868D-05 0.126061101234D-02 0.000000000000D+00  5 -2 2 25 23 21 2 0.29168271D-01 0.17112567D-01 0.18797674D+05 0.18797674D+05 0.18797674D+05 0.12368014D+01  1  2  3  2  5  2        2 -.782450272650D-02 0.100000000000D+01
0.185255077906D-04 0.000000000000D+00 0.000000000000D+00 0.126061101234D-02 0.000000000000D+00  5 -2 2 25 23 21 2 0.29168271D-01 0.17112567D-01 0.18797674D+05 0.18797674D+05 0.18797674D+05 0.12368014D+01  1  2 15  2  5  2        2 0.976669058834D-02 0.100000000000D+01
0.610251485563D-03 0.000000000000D+00 0.000000000000D+00 0.126061101234D-02 0.000000000000D+00  5 -2 2 25 23 21 2 0.29168271D-01 0.18796372D-01 0.21239324D+05 0.21239324D+05 0.21239324D+05 0.12309618D+01  1  2 12  2  5  2        2 0.287113624495D+00 0.100000000000D+01
-.553622125796D-03 0.000000000000D+00 0.000000000000D+00 0.126061101234D-02 0.000000000000D+00  5 -2 2 25 23 21 2 0.29168271D-01 0.17112567D-01 0.18797674D+05 0.18797674D+05 0.18797674D+05 0.12368014D+01  1  2  4  2  5  2        2 -.291870866193D+00 0.100000000000D+01
-.184630375938D-02 0.000000000000D+00 -.383909433090D-03 0.126061101234D-02 0.000000000000D+00  5 -2 2 25 23 21 2 0.29168271D-01 0.19231663D-01 0.18797674D+05 0.18797674D+05 0.18797674D+05 0.12368014D+01  1  2  5  2  5  2        2 -.851628213160D+00 0.100000000000D+01
0.188089242380D-02 0.000000000000D+00 0.381307985248D-03 0.126061101234D-02 0.000000000000D+00  5 -2 2 25 23 21 2 0.29168271D-01 0.17112567D-01 0.18797674D+05 0.18797674D+05 0.18797674D+05 0.12368014D+01  1  2  6  2  5  2        2 0.991610839546D+00 0.100000000000D+01
0.938087867197D-05 0.000000000000D+00 0.000000000000D+00 0.126061101234D-02 0.000000000000D+00  5 -2 21 25 23 -2 2 0.29168271D-01 0.18796372D-01 0.21239324D+05 0.21239324D+05 0.21239324D+05 0.12309618D+01  1  2 12  4  5  2        2 0.317180325352D-01 0.100000000000D+01
-.325410175180D-04 0.000000000000D+00 -.711735175044D-05 0.126061101234D-02 0.000000000000D+00  5 -2 21 25 23 -2 2 0.29168271D-01 0.19231663D-01 0.18797674D+05 0.18797674D+05 0.18797674D+05 0.12368014D+01  1  2  5  4  5  2        2 -.106375599833D+00 0.100000000000D+01
  </mgrwgt>
  </event>
  <event>
  4     66 0.46888340E-03 0.81409469E+02 0.75467711E-02 0.11433275E+00
       -2 -1    0    0    0  501 0.00000000E+00 0.00000000E+00 0.28725513E+03 0.28725531E+03 0.32000000E+00 0.0000E+00 0.9000E+01
        2 -1    0    0  501    0 0.00000000E+00 0.00000000E+00 -.20121541E+03 0.20121566E+03 0.32000000E+00 0.0000E+00 0.9000E+01
       25  1    1    2    0    0 -.54746351E+02 0.84026888E+02 0.23667530E+03 0.28582841E+03 0.12500000E+03 0.0000E+00 0.9000E+01
       23  1    1    2    0    0 0.54746351E+02 -.84026888E+02 -.15063558E+03 0.20264256E+03 0.91188000E+02 0.0000E+00 0.9000E+01
#aMCatNLO 1  0  0  1  2 0.10856042D+03 0.00000000D+00  -5  5  0 0.00000000D+00 0.00000000D+00 0.00000000D+00 0.00000000D+00 0.00000000D+00
  <mgrwgt>
 0.7526667989D-01    9    2    0
 0.240416854634257D+03 0.000000000000000D+00 0.000000000000000D+00 0.240416854634257D+03
 0.240416854634257D+03 0.000000000000000D+00 0.000000000000000D+00 -.240416854634257D+03
 0.248017973810281D+03 -.547463509261447D+02 0.840268876339806D+02 0.189288759697387D+03
 0.232815735458232D+03 0.547463509261447D+02 -.840268876339806D+02 -.189288759697387D+03
 0.000000000000000D+00 0.000000000000000D+00 -.000000000000000D+00 0.000000000000000D+00
 0.309732923200168D+03 0.000000000000000D+00 0.000000000000000D+00 0.309732923200168D+03
 0.293039942328108D+03 0.000000000000000D+00 0.000000000000000D+00 -.293039942328108D+03
 0.275729041015774D+03 -.694178607398814D+02 0.140543338945685D+03 0.189288759697387D+03
 0.217207487617510D+03 0.421400353828324D+02 -.354658173918079D+02 -.189288759697387D+03
 0.109836336894992D+03 0.272778253570490D+02 -.105077521553877D+03 0.166929808720607D+02
0.896885373279D-03 0.000000000000D+00 0.000000000000D+00 0.454080047987D-03 0.000000000000D+00  5 -2 2 25 23 21 0 0.44193131D-01 0.30956250D-01 0.21875143D+05 0.21875143D+05 0.21875143D+05 0.12295641D+01  1  2  2  1  5  1       -2 0.739448106066D-01 0.100000000000D+01
-.355281905065D-04 0.000000000000D+00 -.344427598873D-05 0.454080047987D-03 0.000000000000D+00  5 -2 2 25 23 21 2 0.44193131D-01 0.30956250D-01 0.21875143D+05 0.21875143D+05 0.21875143D+05 0.12295641D+01  1  2  3  1  5  1       -2 -.442839318804D-02 0.100000000000D+01
0.608360539854D-04 0.000000000000D+00 0.000000000000D+00 0.454080047987D-03 0.000000000000D+00  5 -2 2 25 23 21 2 0.44193131D-01 0.30956250D-01 0.21875143D+05 0.21875143D+05 0.21875143D+05 0.12295641D+01  1  2 15  1  5  1       -2 0.758287892560D-02 0.100000000000D+01
0.588905808831D-04 0.000000000000D+00 0.000000000000D+00 0.454080047987D-03 0.000000000000D+00  5 -2 2 25 23 21 2 0.60591299D-01 0.30956250D-01 0.43176999D+05 0.43176999D+05 0.43176999D+05 0.11986441D+01  1  2 12  1  5  1       -2 0.372435807931D-02 0.100000000000D+01
-.347934567657D-03 0.000000000000D+00 0.000000000000D+00 0.454080047987D-03 0.000000000000D+00  5 -2 2 25 23 21 2 0.44193131D-01 0.30956250D-01 0.21875143D+05 0.21875143D+05 0.21875143D+05 0.12295641D+01  1  2  4  1  5  1       -2 -.433681267559D-01 0.100000000000D+01
-.339670007324D-03 0.000000000000D+00 -.315617434481D-03 0.454080047987D-03 0.000000000000D+00  5 -2 2 25 23 21 2 0.67781275D-01 0.30956250D-01 0.21875143D+05 0.21875143D+05 0.21875143D+05 0.12295641D+01  1  2  5  1  5  1       -2 -.178498185186D-01 0.100000000000D+01
0.458869453021D-03 0.000000000000D+00 0.288795874717D-03 0.454080047987D-03 0.000000000000D+00  5 -2 2 25 23 21 2 0.44193131D-01 0.30956250D-01 0.21875143D+05 0.21875143D+05 0.21875143D+05 0.12295641D+01  1  2  6  1  5  1       -2 0.571955489708D-01 0.100000000000D+01
0.236113957054D-05 0.000000000000D+00 0.000000000000D+00 0.454080047987D-03 0.000000000000D+00  5 21 2 25 23 2 2 0.60591299D-01 0.30956250D-01 0.43176999D+05 0.43176999D+05 0.43176999D+05 0.11986441D+01  1  2 12  3  5  1       -2 0.178795343811D-02 0.100000000000D+01
-.521551614065D-05 0.000000000000D+00 -.157865583310D-04 0.454080047987D-03 0.000000000000D+00  5 21 2 25 23 2 2 0.67781275D-01 0.30956250D-01 0.21875143D+05 0.21875143D+05 0.21875143D+05 0.12295641D+01  1  2  5  3  5  1       -2 -.332253167240D-02 0.100000000000D+01
  </mgrwgt>
  </event>
  <event>
  5     66 0.46888340E-03 0.10914859E+03 0.75467711E-02 0.11714501E+00
       -2 -1    0    0    0  502 0.00000000E+00 0.00000000E+00 0.17272213E+02 0.17275177E+02 0.32000000E+00 0.0000E+00 0.9000E+01
        2 -1    0    0  501    0 0.00000000E+00 0.00000000E+00 -.19596691E+04 0.19596692E+04 0.32000000E+00 0.0000E+00 0.9000E+01
       25  1    1    2    0    0 -.63148376E+02 0.42085593E+02 -.94214893E+03 0.95342987E+03 0.12500000E+03 0.0000E+00 0.9000E+01
       23  1    1    2    0    0 -.20173579E+02 0.27950862E+02 -.31702657E+03 0.33167653E+03 0.91188000E+02 0.0000E+00 0.9000E+01
       21  1    1    2  501  502 0.83321955E+02 -.70036455E+02 -.68322143E+03 0.69183795E+03 0.75000000E+00 0.0000E+00 0.9000E+01
#aMCatNLO 2  0  0  1  2 0.10884693D+03 0.00000000D+00  -5  5  0 0.00000000D+00 0.00000000D+00 0.00000000D+00 0.00000000D+00 0.00000000D+00
  <mgrwgt>
 0.1068288392D-01    1    2    0
 0.116326990573707D+03 0.000000000000000D+00 0.000000000000000D+00 0.116326990573707D+03
 0.116326990573707D+03 0.000000000000000D+00 0.000000000000000D+00 -.116326990573707D+03
 0.132036476007718D+03 -.148769336727294D+02 0.151092456632279D+01 -.398123717955710D+02
 0.100617505139696D+03 0.148769336727294D+02 -.151092456632279D+01 0.398123717955710D+02
 0.000000000000000D+00 0.000000000000000D+00 -.000000000000000D+00 -.000000000000000D+00
 0.171102498892009D+03 0.000000000000000D+00 0.000000000000000D+00 0.171102498892009D+03
 0.197836441177706D+03 0.000000000000000D+00 0.000000000000000D+00 -.197836441177706D+03
 0.151555071076853D+03 -.631483764768127D+02 0.420855933718876D+02 -.398123717955710D+02
 0.105301948051512D+03 -.201735789717933D+02 0.279508619352497D+02 0.398123717955710D+02
 0.112081920941350D+03 0.833219554486060D+02 -.700364553071373D+02 -.267339422856972D+02
0.183569371993D-04 0.000000000000D+00 0.000000000000D+00 0.158904073223D-02 0.132103748351D-05  5 -2 2 25 23 21 2 0.26574751D-02 0.30148570D+00 0.31075537D+05 0.31075537D+05 0.31075537D+05 0.12132962D+01  1  2  1  1  5  1       -2 0.106828839235D-01 0.100000000000D+01
  </mgrwgt>
  </event>
  <event>
  4     66 0.46888340E-03 0.67857980E+02 0.75467711E-02 0.11759005E+00
       -2 -1    0    0    0  501 0.00000000E+00 0.00000000E+00 0.16785322E+02 0.16788372E+02 0.32000000E+00 0.0000E+00 0.9000E+01
        2 -1    0    0  501    0 0.00000000E+00 0.00000000E+00 -.10912231E+04 0.10912232E+04 0.32000000E+00 0.0000E+00 0.9000E+01
       25  1    1    2    0    0 0.50553086E+02 -.27427100E+02 -.82317852E+03 0.83459915E+03 0.12500000E+03 0.0000E+00 0.9000E+01
       23  1    1    2    0    0 -.50553086E+02 0.27427100E+02 -.25125929E+03 0.27341241E+03 0.91188000E+02 0.0000E+00 0.9000E+01
#aMCatNLO 1  0  0  2  1 0.84060339D+02 0.00000000D+00  -5  5  0 0.00000000D+00 0.00000000D+00 0.00000000D+00 0.00000000D+00 0.00000000D+00
  <mgrwgt>
 0.1648961719D+00    9    2    0
 0.135344919191768D+03 0.000000000000000D+00 0.000000000000000D+00 0.135344919191768D+03
 0.135344919191768D+03 0.000000000000000D+00 0.000000000000000D+00 -.135344919191768D+03
 0.148846993557860D+03 0.505530864099842D+02 -.274271004380089D+02 -.567676589899716D+02
 0.121842844825676D+03 -.505530864099842D+02 0.274271004380089D+02 0.567676589899716D+02
 0.000000000000000D+00 0.000000000000000D+00 -.000000000000000D+00 -.000000000000000D+00
 0.172329441316522D+03 0.000000000000000D+00 0.000000000000000D+00 0.172329441316522D+03
 0.199434380510316D+03 0.000000000000000D+00 0.000000000000000D+00 -.199434380510316D+03
 0.144028254082341D+03 0.405580285211252D+02 0.158624458796670D+02 -.567676589899716D+02
 0.139413325922807D+03 -.594690688000723D+02 0.660430681427601D+02 0.567676589899716D+02
 0.883222418216907D+02 0.189110402789471D+02 -.819055140224270D+02 -.271049391937939D+02
0.124023712528D-03 0.000000000000D+00 0.000000000000D+00 0.126577167256D-02 0.000000000000D+00  5 -2 2 25 23 21 0 0.25825954D-02 0.16788072D+00 0.15056182D+05 0.15056182D+05 0.15056182D+05 0.12476375D+01  1  2  2  2  5  2        2 0.145493655619D+00 0.100000000000D+01
-.680965934114D-05 0.000000000000D+00 -.476283712302D-06 0.126577167256D-02 0.000000000000D+00  5 -2 2 25 23 21 2 0.25825954D-02 0.16788072D+00 0.15056182D+05 0.15056182D+05 0.15056182D+05 0.12476375D+01  1  2  3  2  5  2        2 -.124348784485D-01 0.100000000000D+01
0.855924786072D-05 0.000000000000D+00 0.000000000000D+00 0.126577167256D-02 0.000000000000D+00  5 -2 2 25 23 21 2 0.25825954D-02 0.16788072D+00 0.15056182D+05 0.15056182D+05 0.15056182D+05 0.12476375D+01  1  2 15  2  5  2        2 0.156297402596D-01 0.100000000000D+01
0.141216024414D-04 0.000000000000D+00 0.000000000000D+00 0.126577167256D-02 0.000000000000D+00  5 -2 2 25 23 21 2 0.25825954D-02 0.26151713D+00 0.29543024D+05 0.29543024D+05 0.29543024D+05 0.12155987D+01  1  2 12  2  5  2        2 0.117150029079D-01 0.100000000000D+01
-.579670155705D-04 0.000000000000D+00 0.000000000000D+00 0.126577167256D-02 0.000000000000D+00  5 -2 2 25 23 21 2 0.25825954D-02 0.16788072D+00 0.15056182D+05 0.15056182D+05 0.15056182D+05 0.12476375D+01  1  2  4  2  5  2        2 -.105851520102D+00 0.100000000000D+01
-.729152119108D-04 0.000000000000D+00 -.460940651631D-04 0.126577167256D-02 0.000000000000D+00  5 -2 2 25 23 21 2 0.25825954D-02 0.28286080D+00 0.15056182D+05 0.15056182D+05 0.15056182D+05 0.12476375D+01  1  2  5  2  5  2        2 -.537627985518D-01 0.100000000000D+01
0.900586189613D-04 0.000000000000D+00 0.404617572566D-04 0.126577167256D-02 0.000000000000D+00  5 -2 2 25 23 21 2 0.25825954D-02 0.16788072D+00 0.15056182D+05 0.15056182D+05 0.15056182D+05 0.12476375D+01  1  2  6  2  5  2        2 0.164452863781D+00 0.100000000000D+01
0.725486062890D-06 0.000000000000D+00 0.000000000000D+00 0.126577167256D-02 0.000000000000D+00  5 -2 21 25 23 -2 2 0.25825954D-02 0.26151713D+00 0.29543024D+05 0.29543024D+05 0.29543024D+05 0.12155987D+01  1  2 12  4  5  2        2 0.252323186414D-03 0.100000000000D+01
-.207488378855D-05 0.000000000000D+00 -.268886066647D-05 0.126577167256D-02 0.000000000000D+00  5 -2 21 25 23 -2 2 0.25825954D-02 0.28286080D+00 0.15056182D+05 0.15056182D+05 0.15056182D+05 0.12476375D+01  1  2  5  4  5  2        2 -.598216780042D-03 0.100000000000D+01
  </mgrwgt>
  </event>
  <event>
  5     66 0.46888340E-03 0.10972732E+03 0.75467711E-02 0.11982245E+00
       21 -1    0    0  502  501 0.00000000E+00 0.00000000E+00 0.58861517E+02 0.58866295E+02 0.75000000E+00 0.0000E+00 0.9000E+01
        4 -1    0    0  501    0 0.00000000E+00 0.00000000E+00 -.45252470E+03 0.45252735E+03 0.15500000E+01 0.0000E+00 0.9000E+01
       25  1    1    2    0    0 0.25820857E+02 0.14993892E+02 -.19492539E+03 0.23347899E+03 0.12500000E+03 0.0000E+00 0.9000E+01
       23  1    1    2    0    0 0.16053763E+02 0.44252345E+02 -.17256212E+03 0.20077084E+03 0.91188000E+02 0.0000E+00 0.9000E+01
        4  1    1    2  502    0 -.41874620E+02 -.59246237E+02 -.26175681E+02 0.77143822E+02 0.15500000E+01 0.0000E+00 0.9000E+01
#aMCatNLO 2  0  0  1  2 0.72550675D+02 0.00000000D+00  -5  5  0 0.00000000D+00 0.00000000D+00 0.00000000D+00 0.00000000D+00 0.00000000D+00
  <mgrwgt>
 0.5405324377D-02    2    2    0
 0.109843352410716D+03 0.000000000000000D+00 0.000000000000000D+00 0.109843352410716D+03
 0.109843352410716D+03 0.000000000000000D+00 0.000000000000000D+00 -.109843352410716D+03
 0.126480109427809D+03 0.213810135003265D+01 -.185136156631033D+02 0.498925230535380D+01
 0.932065953936233D+02 -.213810135003265D+01 0.185136156631033D+02 -.498925230535380D+01
 0.000000000000000D+00 -.000000000000000D+00 -.000000000000000D+00 0.000000000000000D+00
 0.203981738986371D+03 0.000000000000000D+00 0.000000000000000D+00 0.203981738986371D+03
 0.130580290668750D+03 0.000000000000000D+00 0.000000000000000D+00 -.130580290668750D+03
 0.128613475574878D+03 0.258208571119806D+02 0.149938920526297D+02 0.498925230535380D+01
 0.102743064655806D+03 0.160537631789734D+02 0.442523450236725D+02 -.498925230535380D+01
 0.103205489424436D+03 -.418746202909540D+02 -.592462370763022D+02 0.734014483176211D+02
-.985930541436D-06 0.000000000000D+00 0.000000000000D+00 0.187714043809D-02 0.000000000000D+00  5 21 4 25 23 4 2 0.91747689D-02 0.58561305D-01 0.23056782D+05 0.23056782D+05 0.23056782D+05 0.12270833D+01  1  2 13  3  5  1       -4 -.161708185558D-02 0.100000000000D+01
0.604681116507D-05 0.000000000000D+00 0.000000000000D+00 0.187714043809D-02 0.317209573602D-06  5 21 4 25 23 4 2 0.90558164D-02 0.69616887D-01 0.23056782D+05 0.23056782D+05 0.23056782D+05 0.12270833D+01  1  2  1  3  5  1       -4 0.702240623256D-02 0.100000000000D+01
  </mgrwgt>
  </event>
  <event>
  4     66 0.46888340E-03 0.17615273E+03 0.75467711E-02 0.97462672E-01
       -2 -1    0    0    0  501 0.00000000E+00 0.00000000E+00 0.44762439E+02 0.44763583E+02 0.32000000E+00 0.0000E+00 0.9000E+01
        2 -1    0    0  501    0 0.00000000E+00 0.00000000E+00 -.77952092E+03 0.77952099E+03 0.32000000E+00 0.0000E+00 0.9000E+01
       25  1    1    2    0    0 0.20611369E+02 -.13690308E+03 -.24968283E+03 0.31166295E+03 0.12500000E+03 0.0000E+00 0.9000E+01
       23  1    1    2    0    0 -.20611369E+02 0.13690308E+03 -.48507565E+03 0.51262162E+03 0.91188000E+02 0.0000E+00 0.9000E+01
#aMCatNLO 1  0  0  2  2 0.64370308D+03 0.00000000D+00  -5  5  0 0.00000000D+00 0.00000000D+00 0.00000000D+00 0.00000000D+00 0.00000000D+00
  <mgrwgt>
 0.2142922733D+00    5    2    0
 0.186798705908834D+03 0.000000000000000D+00 0.000000000000000D+00 0.186798705908834D+03
 0.186798705908834D+03 0.000000000000000D+00 0.000000000000000D+00 -.186798705908834D+03
 0.196581627878817D+03 0.206113687500451D+02 -.136903079081197D+03 0.620649243600839D+02
 0.177015783938850D+03 -.206113687500451D+02 0.136903079081197D+03 -.620649243600839D+02
 0.000000000000000D+00 -.000000000000000D+00 0.000000000000000D+00 -.000000000000000D+00
 0.503254028913495D+03 0.000000000000000D+00 0.000000000000000D+00 0.503254028913495D+03
 0.116214681165289D+04 0.000000000000000D+00 0.000000000000000D+00 -.116214681165289D+04
 0.630131073968858D+03 0.989866916396118D+02 -.606456717683602D+03 0.620649243600839D+02
 0.114132777215143D+03 0.699055685032077D+01 -.284625503063408D+02 -.620649243600839D+02
 0.921136989382388D+03 -.105977248489933D+03 0.634919267989943D+03 -.658892782739398D+03
0.487272796084D-03 0.000000000000D+00 0.000000000000D+00 0.106020085403D-02 0.000000000000D+00  5 -2 2 25 23 21 0 0.68866222D-02 0.11992639D+00 0.31029784D+05 0.31029784D+05 0.31029784D+05 0.12133630D+01  1  2  2  2  5  2        2 0.210068100204D+00 0.100000000000D+01
-.269573758197D-04 0.000000000000D+00 -.187125583884D-05 0.106020085403D-02 0.000000000000D+00  5 -2 2 25 23 21 2 0.68866222D-02 0.11992639D+00 0.31029784D+05 0.31029784D+05 0.31029784D+05 0.12133630D+01  1  2  3  2  5  2        2 -.171098846825D-01 0.100000000000D+01
0.334811823120D-04 0.000000000000D+00 0.000000000000D+00 0.106020085403D-02 0.000000000000D+00  5 -2 2 25 23 21 2 0.68866222D-02 0.11992639D+00 0.31029784D+05 0.31029784D+05 0.31029784D+05 0.12133630D+01  1  2 15  2  5  2        2 0.212505539198D-01 0.100000000000D+01
0.389965890785D-03 0.000000000000D+00 -.285256357893D-03 0.106020085403D-02 0.000000000000D+00  5 -2 2 25 23 21 2 0.68866222D-02 0.84131619D+00 0.31029784D+05 0.31029784D+05 0.31029784D+05 0.12133630D+01  1  2  5  2  5  2        2 0.833944667221D-04 0.100000000000D+01
0.658852721750D-04 0.000000000000D+00 -.679207393828D-04 0.106020085403D-02 0.000000000000D+00  5 -2 21 25 23 -2 2 0.68866222D-02 0.84131619D+00 0.31029784D+05 0.31029784D+05 0.31029784D+05 0.12133630D+01  1  2  5  4  5  2        2 0.109356521998D-06 0.100000000000D+01
  </mgrwgt>
  </event>
  <event>
  4     66 0.46888340E-03 0.11227461E+03 0.75467711E-02 0.10988541E+00
       -2 -1    0    0    0  501 0.00000000E+00 0.00000000E+00 0.71984641E+01 0.72055732E+01 0.32000000E+00 0.0000E+00 0.9000E+01
        2 -1    0    0  501    0 0.00000000E+00 0.00000000E+00 -.25756471E+04 0.25756471E+04 0.32000000E+00 0.0000E+00 0.9000E+01
       25  1    1    2    0    0 0.10149419E+02 -.28237840E+02 -.21365548E+04 0.21404186E+04 0.12500000E+03 0.0000E+00 0.9000E+01
       23  1    1    2    0    0 -.10149419E+02 0.28237840E+02 -.43189383E+03 0.44243408E+03 0.91188000E+02 0.0000E+00 0.9000E+01
#aMCatNLO 1  0  0  2  2 0.22954858D+03 0.00000000D+00  -5  5  0 0.00000000D+00 0.00000000D+00 0.00000000D+00 0.00000000D+00 0.00000000D+00
  <mgrwgt>
 0.2142069796D+00    3    2    0
 0.136198052918379D+03 0.000000000000000D+00 0.000000000000000D+00 0.136198052918379D+03
 0.136198052918379D+03 0.000000000000000D+00 0.000000000000000D+00 -.136198052918379D+03
 0.149615551368927D+03 0.101494190501650D+02 -.282378401954248D+02 -.765468933756937D+02
 0.122780554467831D+03 -.101494190501650D+02 0.282378401954248D+02 0.765468933756937D+02
 0.000000000000000D+00 0.000000000000000D+00 0.000000000000000D+00 0.000000000000000D+00
 0.414875226949473D+03 0.000000000000000D+00 0.000000000000000D+00 0.414875226949473D+03
 0.233747541275856D+03 0.000000000000000D+00 0.000000000000000D+00 -.233747541275856D+03
 0.219417387573075D+03 0.960523930406051D+01 -.162994792744538D+03 -.765468933756937D+02
 0.136801911266975D+03 -.105322020090567D+02 -.665519152066117D+02 0.765468933756937D+02
 0.292403469385278D+03 0.926962704996184D+00 0.229546707951149D+03 0.181127685673617D+03
0.314016084577D-03 0.000000000000D+00 0.000000000000D+00 0.109553080571D-02 0.000000000000D+00  5 -2 2 25 23 21 0 0.11080044D-02 0.39625395D+00 0.12605588D+05 0.12605588D+05 0.12605588D+05 0.12565259D+01  1  2  2  2  5  2        2 0.209082953149D+00 0.100000000000D+01
-.166539200279D-04 0.000000000000D+00 -.120590444711D-05 0.109553080571D-02 0.000000000000D+00  5 -2 2 25 23 21 2 0.11080044D-02 0.39625395D+00 0.12605588D+05 0.12605588D+05 0.12605588D+05 0.12565259D+01  1  2  3  2  5  2        2 -.175075783493D-01 0.100000000000D+01
0.215281022420D-04 0.000000000000D+00 0.000000000000D+00 0.109553080571D-02 0.000000000000D+00  5 -2 2 25 23 21 2 0.11080044D-02 0.39625395D+00 0.12605588D+05 0.12605588D+05 0.12605588D+05 0.12565259D+01  1  2 15  2  5  2        2 0.226316048163D-01 0.100000000000D+01
  </mgrwgt>
  </event>
  <event>
  4     66 0.46888340E-03 0.82964725E+02 0.75467711E-02 0.10793898E+00
       -2 -1    0    0    0  501 0.00000000E+00 0.00000000E+00 0.36637972E+02 0.36639369E+02 0.32000000E+00 0.0000E+00 0.9000E+01
        2 -1    0    0  501    0 0.00000000E+00 0.00000000E+00 -.17369508E+04 0.17369508E+04 0.32000000E+00 0.0000E+00 0.9000E+01
       25  1    1    2    0    0 0.19630977E+03 -.11173945E+03 -.78164727E+03 0.82317719E+03 0.12500000E+03 0.0000E+00 0.9000E+01
       23  1    1    2    0    0 -.19630977E+03 0.11173945E+03 -.91866554E+03 0.95041300E+03 0.91188000E+02 0.0000E+00 0.9000E+01
#aMCatNLO 1  0  0  1  2 0.11032013D+03 0.00000000D+00  -5  5  0 0.00000000D+00 0.00000000D+00 0.00000000D+00 0.00000000D+00 0.00000000D+00
  <mgrwgt>
 0.1972319991D+00    9    2    0
 0.252268943063606D+03 0.000000000000000D+00 0.000000000000000D+00 0.252268943063606D+03
 0.252268943063606D+03 0.000000000000000D+00 0.000000000000000D+00 -.252268943063606D+03
 0.259512946791561D+03 0.196309766005097D+03 -.111739453798139D+03 0.264336866206249D+02
 0.245024939335652D+03 -.196309766005097D+03 0.111739453798139D+03 -.264336866206249D+02
 0.000000000000000D+00 0.000000000000000D+00 -.000000000000000D+00 0.000000000000000D+00
 0.353995599796384D+03 0.000000000000000D+00 0.000000000000000D+00 0.353995599796384D+03
 0.290000424714587D+03 0.000000000000000D+00 0.000000000000000D+00 -.290000424714587D+03
 0.220688278562849D+03 0.144635472451896D+03 -.107052121021926D+03 0.264336866206249D+02
 0.295769859664812D+03 -.254504513790194D+03 0.117018251628548D+03 -.264336866206249D+02
 0.127537886283311D+03 0.109869041338298D+03 -.996613060662178D+01 0.639951750817972D+02
0.980614458617D-03 0.000000000000D+00 0.000000000000D+00 0.103833914929D-02 0.000000000000D+00  5 -2 2 25 23 21 0 0.56367208D-02 0.26722331D+00 0.62940297D+05 0.62940297D+05 0.62940297D+05 0.11825073D+01  1  2  2  1  5  1       -2 0.163429878786D+00 0.100000000000D+01
-.544765592168D-04 0.000000000000D+00 -.376581772281D-05 0.103833914929D-02 0.000000000000D+00  5 -2 2 25 23 21 2 0.56367208D-02 0.26722331D+00 0.62940297D+05 0.62940297D+05 0.62940297D+05 0.11825073D+01  1  2  3  1  5  1       -2 -.126955203726D-01 0.100000000000D+01
0.673273252064D-04 0.000000000000D+00 0.000000000000D+00 0.103833914929D-02 0.000000000000D+00  5 -2 2 25 23 21 2 0.56367208D-02 0.26722331D+00 0.62940297D+05 0.62940297D+05 0.62940297D+05 0.11825073D+01  1  2 15  1  5  1       -2 0.156903343581D-01 0.100000000000D+01
0.432100254922D-03 0.000000000000D+00 0.000000000000D+00 0.103833914929D-02 0.000000000000D+00  5 -2 2 25 23 21 2 0.81966996D-02 0.26722331D+00 0.97345829D+05 0.97345829D+05 0.97345829D+05 0.11646464D+01  1  2 12  1  5  1       -2 0.543193683167D-01 0.100000000000D+01
-.568106573431D-03 0.000000000000D+00 0.000000000000D+00 0.103833914929D-02 0.000000000000D+00  5 -2 2 25 23 21 2 0.56367208D-02 0.26722331D+00 0.62940297D+05 0.62940297D+05 0.62940297D+05 0.11825073D+01  1  2  4  1  5  1       -2 -.132394715828D+00 0.100000000000D+01
-.761324618643D-03 0.000000000000D+00 -.329708774518D-03 0.103833914929D-02 0.000000000000D+00  5 -2 2 25 23 21 2 0.92394134D-02 0.26722331D+00 0.62940297D+05 0.62940297D+05 0.62940297D+05 0.11825073D+01  1  2  5  1  5  1       -2 -.822107164363D-01 0.100000000000D+01
0.854332904283D-03 0.000000000000D+00 0.293176055949D-03 0.103833914929D-02 0.000000000000D+00  5 -2 2 25 23 21 2 0.56367208D-02 0.26722331D+00 0.62940297D+05 0.62940297D+05 0.62940297D+05 0.11825073D+01  1  2  6  1  5  1       -2 0.199098492035D+00 0.100000000000D+01
0.195999416019D-04 0.000000000000D+00 0.000000000000D+00 0.103833914929D-02 0.000000000000D+00  5 21 2 25 23 2 2 0.81966996D-02 0.26722331D+00 0.97345829D+05 0.97345829D+05 0.97345829D+05 0.11646464D+01  1  2 12  3  5  1       -2 0.389807991687D-01 0.100000000000D+01
-.278549210351D-04 0.000000000000D+00 -.184184997206D-04 0.103833914929D-02 0.000000000000D+00  5 21 2 25 23 2 2 0.92394134D-02 0.26722331D+00 0.62940297D+05 0.62940297D+05 0.62940297D+05 0.11825073D+01  1  2  5  3  5  1       -2 -.469859209711D-01 0.100000000000D+01
  </mgrwgt>
  </event>
  <event>
  4     66 0.46888340E-03 0.12153353E+03 0.75467711E-02 0.10825554E+00
       -2 -1    0    0    0  501 0.00000000E+00 0.00000000E+00 0.29356966E+03 0.29356983E+03 0.32000000E+00 0.0000E+00 0.9000E+01
        2 -1    0    0  501    0 0.00000000E+00 0.00000000E+00 -.11098168E+03 0.11098214E+03 0.32000000E+00 0.0000E+00 0.9000E+01
       25  1    1    2    0    0 -.43351499E+02 -.33867621E+02 0.24544990E+03 0.28088614E+03 0.12500000E+03 0.0000E+00 0.9000E+01
       23  1    1    2    0    0 0.43351499E+02 0.33867621E+02 -.62861918E+02 0.12366584E+03 0.91188000E+02 0.0000E+00 0.9000E+01
#aMCatNLO 1  0  0  1  2 0.26119508D+03 0.00000000D+00  -5  5  0 0.00000000D+00 0.00000000D+00 0.00000000D+00 0.00000000D+00 0.00000000D+00
  <mgrwgt>
 0.1072199615D+00    3    2    0
 0.180502029926422D+03 0.000000000000000D+00 0.000000000000000D+00 0.180502029926422D+03
 0.180502029926422D+03 0.000000000000000D+00 0.000000000000000D+00 -.180502029926422D+03
 0.190626221686176D+03 -.433514994549104D+02 -.338676213079415D+02 0.132992436312370D+03
 0.170377838166667D+03 0.433514994549104D+02 0.338676213079415D+02 -.132992436312370D+03
 0.000000000000000D+00 0.000000000000000D+00 0.000000000000000D+00 -.000000000000000D+00
 0.241114490062442D+03 0.000000000000000D+00 0.000000000000000D+00 0.241114490062442D+03
 0.115370383390682D+04 0.000000000000000D+00 0.000000000000000D+00 -.115370383390682D+04
 0.269860858248045D+03 -.999234237592762D+02 -.171837726015842D+03 0.132992436312370D+03
 0.175725049339924D+03 0.831943083551991D+00 -.698309485538066D+02 -.132992436312370D+03
 0.949232416381291D+03 0.990914806757242D+02 0.241668674569649D+03 -.912589343844375D+03
0.679232982385D-03 0.000000000000D+00 0.000000000000D+00 0.629135947789D-03 0.000000000000D+00  5 -2 2 25 23 21 0 0.45164612D-01 0.17074154D-01 0.14770398D+05 0.14770398D+05 0.14770398D+05 0.12485870D+01  1  2  2  1  5  1       -2 0.103518609650D+00 0.100000000000D+01
-.305566504338D-04 0.000000000000D+00 -.260843349851D-05 0.629135947789D-03 0.000000000000D+00  5 -2 2 25 23 21 2 0.45164612D-01 0.17074154D-01 0.14770398D+05 0.14770398D+05 0.14770398D+05 0.12485870D+01  1  2  3  1  5  1       -2 -.726010660116D-02 0.100000000000D+01
0.461350598887D-04 0.000000000000D+00 0.000000000000D+00 0.629135947789D-03 0.000000000000D+00  5 -2 2 25 23 21 2 0.45164612D-01 0.17074154D-01 0.14770398D+05 0.14770398D+05 0.14770398D+05 0.12485870D+01  1  2 15  1  5  1       -2 0.109614584088D-01 0.100000000000D+01
  </mgrwgt>
  </event>
  <event>
  4     66 0.46888340E-03 0.11816760E+03 0.75467711E-02 0.10858062E+00
       -2 -1    0    0    0  501 0.00000000E+00 0.00000000E+00 0.93060910E+02 0.93061460E+02 0.32000000E+00 0.0000E+00 0.9000E+01
        2 -1    0    0  501    0 0.00000000E+00 0.00000000E+00 -.94001351E+03 0.94001356E+03 0.32000000E+00 0.0000E+00 0.9000E+01
       25  1    1    2    0    0 -.12373770E+03 0.21880201E+03 -.23815073E+03 0.36813871E+03 0.12500000E+03 0.0000E+00 0.9000E+01
       23  1    1    2    0    0 0.12373770E+03 -.21880201E+03 -.60880187E+03 0.66493632E+03 0.91188000E+02 0.0000E+00 0.9000E+01
#aMCatNLO 1  0  0  2  1 0.47741016D+02 0.00000000D+00  -5  5  0 0.00000000D+00 0.00000000D+00 0.00000000D+00 0.00000000D+00 0.00000000D+00
  <mgrwgt>
 0.2626822431D+00    9    2    0
 0.295768194595296D+03 0.000000000000000D+00 0.000000000000000D+00 0.295768194595296D+03
 0.295768194595296D+03 0.000000000000000D+00 0.000000000000000D+00 -.295768194595296D+03
 0.301946807432624D+03 -.123737700749875D+03 0.218802008331385D+03 0.111182449523480D+03
 0.289589581757967D+03 0.123737700749875D+03 -.218802008331385D+03 -.111182449523480D+03
 0.000000000000000D+00 -.000000000000000D+00 -.000000000000000D+00 -.000000000000000D+00
 0.305242184760418D+03 0.000000000000000D+00 0.000000000000000D+00 0.305242184760418D+03
 0.363668475354518D+03 0.000000000000000D+00 0.000000000000000D+00 -.363668475354518D+03
 0.316107703391015D+03 -.115222620907784D+03 0.242200930411594D+03 0.111182449523480D+03
 0.277352071478648D+03 0.131548586939644D+03 -.197338167625117D+03 -.111182449523480D+03
 0.754508852452723D+02 -.163259660318599D+02 -.448627627864766D+02 -.584262905940993D+02
0.161306038257D-02 0.000000000000D+00 0.000000000000D+00 0.874993514425D-03 0.000000000000D+00  5 -2 2 25 23 21 0 0.14317110D-01 0.14461751D+00 0.75111002D+05 0.75111002D+05 0.75111002D+05 0.11751655D+01  1  2  2  2  5  2        2 0.171086502854D+00 0.100000000000D+01
-.889815601168D-04 0.000000000000D+00 -.619457659762D-05 0.874993514425D-03 0.000000000000D+00  5 -2 2 25 23 21 2 0.14317110D-01 0.14461751D+00 0.75111002D+05 0.75111002D+05 0.75111002D+05 0.11751655D+01  1  2  3  2  5  2        2 -.130335647461D-01 0.100000000000D+01
0.110465983629D-03 0.000000000000D+00 0.000000000000D+00 0.874993514425D-03 0.000000000000D+00  5 -2 2 25 23 21 2 0.14317110D-01 0.14461751D+00 0.75111002D+05 0.75111002D+05 0.75111002D+05 0.11751655D+01  1  2 15  2  5  2        2 0.161804934413D-01 0.100000000000D+01
0.449796333619D-02 0.000000000000D+00 0.000000000000D+00 0.874993514425D-03 0.000000000000D+00  5 -2 2 25 23 21 2 0.14317110D-01 0.17976434D+00 0.89324020D+05 0.89324020D+05 0.89324020D+05 0.11681029D+01  1  2 12  2  5  2        2 0.473442190091D+00 0.100000000000D+01
-.456907721478D-02 0.000000000000D+00 0.000000000000D+00 0.874993514425D-03 0.000000000000D+00  5 -2 2 25 23 21 2 0.14317110D-01 0.14461751D+00 0.75111002D+05 0.75111002D+05 0.75111002D+05 0.11751655D+01  1  2  4  2  5  2        2 -.669255108931D+00 0.100000000000D+01
-.672888313792D-02 0.000000000000D+00 -.113300420438D-02 0.874993514425D-03 0.000000000000D+00  5 -2 2 25 23 21 2 0.14317110D-01 0.18051736D+00 0.75111002D+05 0.75111002D+05 0.75111002D+05 0.11751655D+01  1  2  5  2  5  2        2 -.713448485337D+00 0.100000000000D+01
0.683859875232D-02 0.000000000000D+00 0.110571084120D-02 0.874993514425D-03 0.000000000000D+00  5 -2 2 25 23 21 2 0.14317110D-01 0.14461751D+00 0.75111002D+05 0.75111002D+05 0.75111002D+05 0.11751655D+01  1  2  6  2  5  2        2 0.100168303966D+01 0.100000000000D+01
0.137227858210D-03 0.000000000000D+00 0.000000000000D+00 0.874993514425D-03 0.000000000000D+00  5 -2 21 25 23 -2 2 0.14317110D-01 0.17976434D+00 0.89324020D+05 0.89324020D+05 0.89324020D+05 0.11681029D+01  1  2 12  4  5  2        2 0.948426291666D-02 0.100000000000D+01
-.192702925930D-03 0.000000000000D+00 -.350662069189D-04 0.874993514425D-03 0.000000000000D+00  5 -2 21 25 23 -2 2 0.14317110D-01 0.18051736D+00 0.75111002D+05 0.75111002D+05 0.75111002D+05 0.11751655D+01  1  2  5  4  5  2        2 -.134570868003D-01 0.100000000000D+01
  </mgrwgt>
  </event>
  <event>
  4     66 0.46888340E-03 0.14023490E+03 0.75467711E-02 0.12077695E+00
       -2 -1    0    0    0  501 0.00000000E+00 0.00000000E+00 0.10067116E+02 0.10072201E+02 0.32000000E+00 0.0000E+00 0.9000E+01
        2 -1    0    0  501    0 0.00000000E+00 0.00000000E+00 -.20088993E+04 0.20088994E+04 0.32000000E+00 0.0000E+00 0.9000E+01
       25  1    1    2    0    0 -.62907480E+02 0.62515315E+02 -.92197655E+03 0.93462895E+03 0.12500000E+03 0.0000E+00 0.9000E+01
       23  1    1    2    0    0 0.62907480E+02 -.62515315E+02 -.10768557E+04 0.10843426E+04 0.91188000E+02 0.0000E+00 0.9000E+01
#aMCatNLO 1  0  0  1  2 0.78358170D+01 0.00000000D+00  -5  5  0 0.00000000D+00 0.00000000D+00 0.00000000D+00 0.00000000D+00 0.00000000D+00
  <mgrwgt>
 0.2233187173D+00    6    2    0
 0.142228623973498D+03 0.000000000000000D+00 0.000000000000000D+00 0.142228623973498D+03
 0.142228623973498D+03 0.000000000000000D+00 0.000000000000000D+00 -.142228623973498D+03
 0.155077213188145D+03 -.629074797890669D+02 0.625153145093348D+02 0.236310492485745D+02
 0.129380034758851D+03 0.629074797890669D+02 -.625153145093348D+02 -.236310492485745D+02
 0.000000000000000D+00 -.000000000000000D+00 0.000000000000000D+00 -.000000000000000D+00
 0.142644444805667D+03 0.000000000000000D+00 0.000000000000000D+00 0.142644444805667D+03
 0.184701305371850D+03 0.000000000000000D+00 0.000000000000000D+00 -.184701305371850D+03
 0.152717808065207D+03 -.603562718520728D+02 0.591305577495385D+02 0.236310492485745D+02
 0.131847344296091D+03 0.650727044249020D+02 -.653879767554608D+02 -.236310492485745D+02
 0.427805978162190D+02 -.471643257282922D+01 0.625741900592232D+01 -.420568605661831D+02
0.275440804722D-03 0.000000000000D+00 0.000000000000D+00 0.137477920248D-02 0.000000000000D+00  5 -2 2 25 23 21 0 0.15491802D-02 0.30906183D+00 0.19665828D+05 0.19665828D+05 0.19665828D+05 0.12346325D+01  1  2  2  1  5  1       -2 0.224843618252D+00 0.100000000000D+01
-.152985591279D-04 0.000000000000D+00 -.105776521536D-05 0.137477920248D-02 0.000000000000D+00  5 -2 2 25 23 21 2 0.15491802D-02 0.30906183D+00 0.19665828D+05 0.19665828D+05 0.19665828D+05 0.12346325D+01  1  2  3  1  5  1       -2 -.190361103451D-01 0.100000000000D+01
0.190161890230D-04 0.000000000000D+00 0.000000000000D+00 0.137477920248D-02 0.000000000000D+00  5 -2 2 25 23 21 2 0.15491802D-02 0.30906183D+00 0.19665828D+05 0.19665828D+05 0.19665828D+05 0.12346325D+01  1  2 15  1  5  1       -2 0.236619847371D-01 0.100000000000D+01
-.519269025595D-05 0.000000000000D+00 0.000000000000D+00 0.137477920248D-02 0.000000000000D+00  5 -2 2 25 23 21 2 0.15491802D-02 0.30906183D+00 0.19665828D+05 0.19665828D+05 0.19665828D+05 0.12346325D+01  1  2  4  1  5  1       -2 -.646130291575D-02 0.100000000000D+01
0.404185523762D-07 0.000000000000D+00 0.000000000000D+00 0.137477920248D-02 0.187646650467D-03  5 -2 2 25 23 21 2 0.15537094D-02 0.40135467D+00 0.20797477D+05 0.20797477D+05 0.20797477D+05 0.12319610D+01  1  2 11  1  5  1       -2 0.241504014340D-04 0.100000000000D+01
0.219918315636D-07 0.000000000000D+00 0.000000000000D+00 0.137477920248D-02 0.118394118815D-06  5 21 2 25 23 2 2 0.15537094D-02 0.40135467D+00 0.20797477D+05 0.20797477D+05 0.20797477D+05 0.12319610D+01  1  2 11  3  5  1       -2 0.286377170749D-03 0.100000000000D+01
  </mgrwgt>
  </event>
  <event>
  4     66 0.46888340E-03 0.12144674E+03 0.75467711E-02 0.11697601E+00
       -2 -1    0    0    0  501 0.00000000E+00 0.00000000E+00 0.67145476E+02 0.67146239E+02 0.32000000E+00 0.0000E+00 0.9000E+01
        2 -1    0    0  501    0 0.00000000E+00 0.00000000E+00 -.22809357E+03 0.22809379E+03 0.32000000E+00 0.0000E+00 0.9000E+01
       25  1    1    2    0    0 -.31001704E+02 -.45216130E+02 -.61901216E+02 0.14987450E+03 0.12500000E+03 0.0000E+00 0.9000E+01
       23  1    1    2    0    0 0.31001704E+02 0.45216130E+02 -.99046876E+02 0.14536554E+03 0.91188000E+02 0.0000E+00 0.9000E+01
#aMCatNLO 1  0  0  2  2 0.95267649D+02 0.00000000D+00  -5  5  0 0.00000000D+00 0.00000000D+00 0.00000000D+00 0.00000000D+00 0.00000000D+00
  <mgrwgt>
 0.1699622141D+00    3    2    0
 0.123756199848217D+03 0.000000000000000D+00 0.000000000000000D+00 0.123756199848217D+03
 0.123756199848217D+03 0.000000000000000D+00 0.000000000000000D+00 -.123756199848217D+03
 0.138522629055330D+03 -.310017035913225D+02 -.452161296193204D+02 0.236202192429521D+02
 0.108989770641104D+03 0.310017035913225D+02 0.452161296193204D+02 -.236202192429521D+02
 0.000000000000000D+00 0.000000000000000D+00 0.000000000000000D+00 0.000000000000000D+00
 0.205180544833681D+03 0.000000000000000D+00 0.000000000000000D+00 0.205180544833681D+03
 0.163871371839369D+03 0.000000000000000D+00 0.000000000000000D+00 -.163871371839369D+03
 0.163530863349060D+03 -.860445084419345D+02 -.561762501203996D+02 0.236202192429521D+02
 0.101682848579021D+03 -.738888668060164D+01 0.375717972378253D+02 -.236202192429521D+02
 0.103838204744968D+03 0.934333951225361D+02 0.186044528825743D+02 0.413091729943122D+02
0.190970109407D-03 0.000000000000D+00 0.000000000000D+00 0.156872028830D-02 0.000000000000D+00  5 -2 2 25 23 21 0 0.10330149D-01 0.35091394D-01 0.14749311D+05 0.14749311D+05 0.14749311D+05 0.12486578D+01  1  2  2  2  5  2        2 0.166485599188D+00 0.100000000000D+01
-.106048730075D-04 0.000000000000D+00 -.733375503708D-06 0.156872028830D-02 0.000000000000D+00  5 -2 2 25 23 21 2 0.10330149D-01 0.35091394D-01 0.14749311D+05 0.14749311D+05 0.14749311D+05 0.12486578D+01  1  2  3  2  5  2        2 -.144146346817D-01 0.100000000000D+01
0.131626249429D-04 0.000000000000D+00 0.000000000000D+00 0.156872028830D-02 0.000000000000D+00  5 -2 2 25 23 21 2 0.10330149D-01 0.35091394D-01 0.14749311D+05 0.14749311D+05 0.14749311D+05 0.12486578D+01  1  2 15  2  5  2        2 0.178912496048D-01 0.100000000000D+01
  </mgrwgt>
  </event>
  <event>
  4     66 0.46888340E-03 0.15015105E+03 0.75467711E-02 0.98600141E-01
       -2 -1    0    0    0  501 0.00000000E+00 0.00000000E+00 0.32776455E+02 0.32778017E+02 0.32000000E+00 0.0000E+00 0.9000E+01
        2 -1    0    0  501    0 0.00000000E+00 0.00000000E+00 -.70757801E+03 0.70757808E+03 0.32000000E+00 0.0000E+00 0.9000E+01
       25  1    1    2    0    0 0.54334135E+02 0.88154067E+02 -.42562468E+03 0.45552684E+03 0.12500000E+03 0.0000E+00 0.9000E+01
       23  1    1    2    0    0 -.54334135E+02 -.88154067E+02 -.24917687E+03 0.28482925E+03 0.91188000E+02 0.0000E+00 0.9000E+01
#aMCatNLO 1  0  0  2  2 0.58628531D+03 0.00000000D+00  -5  5  0 0.00000000D+00 0.00000000D+00 0.00000000D+00 0.00000000D+00 0.00000000D+00
  <mgrwgt>
 0.2439365678D+00    3    2    0
 0.152290852042341D+03 0.000000000000000D+00 0.000000000000000D+00 0.152290852042341D+03
 0.152290852042341D+03 0.000000000000000D+00 0.000000000000000D+00 -.152290852042341D+03
 0.164290503626744D+03 0.543341346391850D+02 0.881540669843965D+02 -.253580730547636D+02
 0.140291200457938D+03 -.543341346391850D+02 -.881540669843965D+02 0.253580730547636D+02
 0.000000000000000D+00 0.000000000000000D+00 0.000000000000000D+00 0.000000000000000D+00
 0.815013786785611D+03 0.000000000000000D+00 0.000000000000000D+00 0.815013786785611D+03
 0.507641156193506D+03 0.000000000000000D+00 0.000000000000000D+00 -.507641156193506D+03
 0.221558070187395D+03 -.175788412921982D+03 0.437993205253540D+02 -.253580730547636D+02
 0.439123760659814D+03 -.399900908748085D+03 -.154759998531349D+03 0.253580730547636D+02
 0.661973112131907D+03 0.575689321670067D+03 0.110960678005995D+03 0.307372630592105D+03
0.308853244215D-03 0.000000000000D+00 0.000000000000D+00 0.130065903790D-02 0.000000000000D+00  5 -2 2 25 23 21 0 0.50426573D-02 0.10885828D+00 0.22545338D+05 0.22545338D+05 0.22545338D+05 0.12281391D+01  1  2  2  2  5  2        2 0.239065404876D+00 0.100000000000D+01
-.171543362446D-04 0.000000000000D+00 -.118607778071D-05 0.130065903790D-02 0.000000000000D+00  5 -2 2 25 23 21 2 0.50426573D-02 0.10885828D+00 0.22545338D+05 0.22545338D+05 0.22545338D+05 0.12281391D+01  1  2  3  2  5  2        2 -.200278177591D-01 0.100000000000D+01
0.213266113761D-04 0.000000000000D+00 0.000000000000D+00 0.130065903790D-02 0.000000000000D+00  5 -2 2 25 23 21 2 0.50426573D-02 0.10885828D+00 0.22545338D+05 0.22545338D+05 0.22545338D+05 0.12281391D+01  1  2 15  2  5  2        2 0.248989806407D-01 0.100000000000D+01
  </mgrwgt>
  </event>
  <event>
  5     66 0.46888340E-03 0.17687608E+03 0.75467711E-02 0.10105077E+00
       21 -1    0    0  502  501 0.00000000E+00 0.00000000E+00 0.18925567E+03 0.18925715E+03 0.75000000E+00 0.0000E+00 0.9000E+01
        2 -1    0    0  501    0 0.00000000E+00 0.00000000E+00 -.14490761E+04 0.14490762E+04 0.32000000E+00 0.0000E+00 0.9000E+01
       25  1    1    2    0    0 -.14085312E+02 0.14620581E+03 -.21478691E+03 0.28867447E+03 0.12500000E+03 0.0000E+00 0.9000E+01
       23  1    1    2    0    0 -.34763131E+03 0.12498754E+03 -.62976829E+03 0.73579397E+03 0.91188000E+02 0.0000E+00 0.9000E+01
        2  1    1    2  502    0 0.36171662E+03 -.27119335E+03 -.41526526E+03 0.61386488E+03 0.32000000E+00 0.0000E+00 0.9000E+01
#aMCatNLO 2  0  0  1  1 0.45208931D+03 0.00000000D+00  -5  5  0 0.00000000D+00 0.00000000D+00 0.00000000D+00 0.00000000D+00 0.00000000D+00
  <mgrwgt>
 0.1903928458D-01    1    2    0
 0.181574608728655D+03 0.000000000000000D+00 0.000000000000000D+00 0.181574608728655D+03
 0.181574608728655D+03 0.000000000000000D+00 0.000000000000000D+00 -.181574608728655D+03
 0.191638995906990D+03 0.135051728456127D+03 0.343918348615057D+02 0.409723942198994D+02
 0.171510221550319D+03 -.135051728456127D+03 -.343918348615057D+02 -.409723942198994D+02
 0.000000000000000D+00 0.000000000000000D+00 -.000000000000000D+00 0.000000000000000D+00
 0.609995207428458D+03 0.000000000000000D+00 0.000000000000000D+00 0.609995207428458D+03
 0.449588867512730D+03 0.000000000000000D+00 0.000000000000000D+00 -.449588867512730D+03
 0.197175738449591D+03 -.140853117470589D+02 0.146205809522121D+03 0.409723942198994D+02
 0.382705368291220D+03 -.347631307880266D+03 0.124987536451692D+03 -.409723942198994D+02
 0.479702968200377D+03 0.361716619627325D+03 -.271193345973814D+03 0.160406339915729D+03
0.791021402558D-04 0.000000000000D+00 0.000000000000D+00 0.113846503686D-02 0.263801611700D-07  5 21 2 25 23 2 2 0.29116370D-01 0.22293488D+00 0.26289560D+06 0.26289560D+06 0.26289560D+06 0.11268724D+01  1  2  1  3  5  1       -2 0.190392845821D-01 0.100000000000D+01
  </mgrwgt>
  </event>
  <event>
  4     66 0.46888340E-03 0.11585283E+03 0.75467711E-02 0.12195714E+00
       -2 -1    0    0    0  501 0.00000000E+00 0.00000000E+00 0.84788885E+02 0.84789489E+02 0.32000000E+00 0.0000E+00 0.9000E+01
        2 -1    0    0  501    0 0.00000000E+00 0.00000000E+00 -.15855227E+03 0.15855259E+03 0.32000000E+00 0.0000E+00 0.9000E+01
       25  1    1    2    0    0 0.26363794E+02 -.31709872E+02 -.46738464E+02 0.13967838E+03 0.12500000E+03 0.0000E+00 0.9000E+01
       23  1    1    2    0    0 -.26363794E+02 0.31709872E+02 -.27024922E+02 0.10366370E+03 0.91188000E+02 0.0000E+00 0.9000E+01
#aMCatNLO 1  0  0  1  1 0.36376199D+02 0.00000000D+00  -5  5  0 0.00000000D+00 0.00000000D+00 0.00000000D+00 0.00000000D+00 0.00000000D+00
  <mgrwgt>
 0.1615380262D+00    3    2    0
 0.115946466261600D+03 0.000000000000000D+00 0.000000000000000D+00 0.115946466261600D+03
 0.115946466261600D+03 0.000000000000000D+00 0.000000000000000D+00 -.115946466261600D+03
 0.131707508602269D+03 0.263637943654665D+02 -.317098722595510D+02 -.461542740762233D+01
 0.100185423920931D+03 -.263637943654665D+02 0.317098722595510D+02 0.461542740762233D+01
 0.000000000000000D+00 0.000000000000000D+00 0.000000000000000D+00 -.000000000000000D+00
 0.118653419149419D+03 0.000000000000000D+00 0.000000000000000D+00 0.118653419149419D+03
 0.373988482285066D+03 0.000000000000000D+00 0.000000000000000D+00 -.373988482285066D+03
 0.131881758941677D+03 0.804051320678191D+01 -.410103196618500D+02 -.461542740762233D+01
 0.102846935535264D+03 -.404774911835919D+02 0.245461064595181D+02 0.461542740762233D+01
 0.257913206957544D+03 0.324369779768100D+02 0.164642132023319D+02 -.255335063135647D+03
0.177924881366D-03 0.000000000000D+00 0.000000000000D+00 0.174381307785D-02 0.000000000000D+00  5 -2 2 25 23 21 0 0.13044515D-01 0.24392728D-01 0.13421879D+05 0.13421879D+05 0.13421879D+05 0.12533641D+01  1  2  2  1  5  1       -2 0.158187173383D+00 0.100000000000D+01
-.988470778755D-05 0.000000000000D+00 -.683278393142D-06 0.174381307785D-02 0.000000000000D+00  5 -2 2 25 23 21 2 0.13044515D-01 0.24392728D-01 0.13421879D+05 0.13421879D+05 0.13421879D+05 0.12533641D+01  1  2  3  1  5  1       -2 -.138055251529D-01 0.100000000000D+01
0.122839066678D-04 0.000000000000D+00 0.000000000000D+00 0.174381307785D-02 0.000000000000D+00  5 -2 2 25 23 21 2 0.13044515D-01 0.24392728D-01 0.13421879D+05 0.13421879D+05 0.13421879D+05 0.12533641D+01  1  2 15  1  5  1       -2 0.171563779248D-01 0.100000000000D+01
  </mgrwgt>
  </event>
  <event>
  4     66 0.46888340E-03 0.13929637E+03 0.75467711E-02 0.11694280E+00
       -2 -1    0    0    0  501 0.00000000E+00 0.00000000E+00 0.92730076E+02 0.92730629E+02 0.32000000E+00 0.0000E+00 0.9000E+01
        2 -1    0    0  501    0 0.00000000E+00 0.00000000E+00 -.21317606E+03 0.21317630E+03 0.32000000E+00 0.0000E+00 0.9000E+01
       25  1    1    2    0    0 0.75372887E+02 0.43867863E+02 -.45112009E+02 0.15895142E+03 0.12500000E+03 0.0000E+00 0.9000E+01
       23  1    1    2    0    0 -.75372887E+02 -.43867863E+02 -.75333974E+02 0.14695551E+03 0.91188000E+02 0.0000E+00 0.9000E+01
#aMCatNLO 1  0  0  1  2 0.69508913D+02 0.00000000D+00  -5  5  0 0.00000000D+00 0.00000000D+00 0.00000000D+00 0.00000000D+00 0.00000000D+00
  <mgrwgt>
 0.1791117423D+00    3    2    0
 0.140598554347366D+03 0.000000000000000D+00 0.000000000000000D+00 0.140598554347366D+03
 0.140598554347366D+03 0.000000000000000D+00 0.000000000000000D+00 -.140598554347366D+03
 0.153596107362634D+03 0.753728870191836D+02 0.438678631886686D+02 0.190079635576115D+02
 0.127601001332097D+03 -.753728870191836D+02 -.438678631886686D+02 -.190079635576115D+02
 0.000000000000000D+00 0.000000000000000D+00 -.000000000000000D+00 -.000000000000000D+00
 0.155830331238522D+03 0.000000000000000D+00 0.000000000000000D+00 0.155830331238522D+03
 0.254636931744141D+03 0.000000000000000D+00 0.000000000000000D+00 -.254636931744141D+03
 0.148791384257753D+03 0.448002402457952D+02 0.643856492135463D+02 0.190079635576115D+02
 0.140869284278098D+03 -.102516361662028D+03 -.256514487309470D+02 -.190079635576115D+02
 0.120806594446812D+03 0.577161214162323D+02 -.387342004825993D+02 -.988066005056197D+02
0.310637793140D-03 0.000000000000D+00 0.000000000000D+00 0.139937173052D-02 0.000000000000D+00  5 -2 2 25 23 21 0 0.14266227D-01 0.32796378D-01 0.19403477D+05 0.19403477D+05 0.19403477D+05 0.12352764D+01  1  2  2  1  5  1       -2 0.175522413843D+00 0.100000000000D+01
-.172558384573D-04 0.000000000000D+00 -.119293091847D-05 0.139937173052D-02 0.000000000000D+00  5 -2 2 25 23 21 2 0.14266227D-01 0.32796378D-01 0.19403477D+05 0.19403477D+05 0.19403477D+05 0.12352764D+01  1  2  3  1  5  1       -2 -.148779351870D-01 0.100000000000D+01
0.214188403629D-04 0.000000000000D+00 0.000000000000D+00 0.139937173052D-02 0.000000000000D+00  5 -2 2 25 23 21 2 0.14266227D-01 0.32796378D-01 0.19403477D+05 0.19403477D+05 0.19403477D+05 0.12352764D+01  1  2 15  1  5  1       -2 0.184672636736D-01 0.100000000000D+01
  </mgrwgt>
  </event>
  <event>
  4     66 0.46888340E-03 0.11480537E+03 0.75467711E-02 0.12039960E+00
       -2 -1    0    0    0  501 0.00000000E+00 0.00000000E+00 0.18704909E+02 0.18707646E+02 0.32000000E+00 0.0000E+00 0.9000E+01
        2 -1    0    0  501    0 0.00000000E+00 0.00000000E+00 -.74681374E+03 0.74681380E+03 0.32000000E+00 0.0000E+00 0.9000E+01
       25  1    1    2    0    0 0.21038201E+02 0.31951747E+02 -.50186132E+03 0.51860708E+03 0.12500000E+03 0.0000E+00 0.9000E+01
       23  1    1    2    0    0 -.21038201E+02 -.31951747E+02 -.22624751E+03 0.24691437E+03 0.91188000E+02 0.0000E+00 0.9000E+01
#aMCatNLO 1  0  0  1  2 0.57598778D+02 0.00000000D+00  -5  5  0 0.00000000D+00 0.00000000D+00 0.00000000D+00 0.00000000D+00 0.00000000D+00
  <mgrwgt>
 0.1668434641D+00    4    2    0
 0.118195417816088D+03 0.000000000000000D+00 0.000000000000000D+00 0.118195417816088D+03
 0.118195417816088D+03 0.000000000000000D+00 0.000000000000000D+00 -.118195417816088D+03
 0.133656568491519D+03 0.210382012331750D+02 0.319517469702271D+02 -.278488465712866D+02
 0.102734267140658D+03 -.210382012331750D+02 -.319517469702271D+02 0.278488465712866D+02
 0.000000000000000D+00 -.000000000000000D+00 0.000000000000000D+00 -.000000000000000D+00
 0.136298226520179D+03 0.000000000000000D+00 0.000000000000000D+00 0.136298226520179D+03
 0.178288299966341D+03 0.000000000000000D+00 0.000000000000000D+00 -.178288299966341D+03
 0.136699679861125D+03 0.463726099236630D+02 0.116544097941858D+02 -.278488465712866D+02
 0.106607217702840D+03 -.142133361789057D+01 -.476683236304390D+02 0.278488465712866D+02
 0.712796289225543D+02 -.449512763057724D+02 0.360139138362532D+02 -.419900734461620D+02
0.121433269027D-03 0.000000000000D+00 0.000000000000D+00 0.163378110346D-02 0.000000000000D+00  5 -2 2 25 23 21 0 0.28778941D-02 0.11489464D+00 0.13180273D+05 0.13180273D+05 0.13180273D+05 0.12542769D+01  1  2  2  1  5  1       -2 0.198751078173D+00 0.100000000000D+01
-.673934623629D-05 0.000000000000D+00 -.466335727177D-06 0.163378110346D-02 0.000000000000D+00  5 -2 2 25 23 21 2 0.28778941D-02 0.11489464D+00 0.13180273D+05 0.13180273D+05 0.13180273D+05 0.12542769D+01  1  2  3  1  5  1       -2 -.173530745412D-01 0.100000000000D+01
0.840068741708D-05 0.000000000000D+00 0.000000000000D+00 0.163378110346D-02 0.000000000000D+00  5 -2 2 25 23 21 2 0.28778941D-02 0.11489464D+00 0.13180273D+05 0.13180273D+05 0.13180273D+05 0.12542769D+01  1  2 15  1  5  1       -2 0.216308451643D-01 0.100000000000D+01
-.140531774806D-04 0.000000000000D+00 0.000000000000D+00 0.163378110346D-02 0.000000000000D+00  5 -2 2 25 23 21 2 0.28778941D-02 0.11489464D+00 0.13180273D+05 0.13180273D+05 0.13180273D+05 0.12542769D+01  1  2  4  1  5  1       -2 -.361853847258D-01 0.100000000000D+01
  </mgrwgt>
  </event>
  <event>
  5     66 0.46888340E-03 0.24097274E+03 0.75467711E-02 0.11059195E+00
       21 -1    0    0  502  501 0.00000000E+00 0.00000000E+00 0.69967308E+02 0.69971328E+02 0.75000000E+00 0.0000E+00 0.9000E+01
        4 -1    0    0  501    0 0.00000000E+00 0.00000000E+00 -.10439286E+04 0.10439298E+04 0.15500000E+01 0.0000E+00 0.9000E+01
       25  1    1    2    0    0 -.23137194E+03 -.48642643E+02 -.51648449E+03 0.58161870E+03 0.12500000E+03 0.0000E+00 0.9000E+01
       23  1    1    2    0    0 0.19140935E+03 0.42082033E+02 -.30055749E+03 0.37021412E+03 0.91188000E+02 0.0000E+00 0.9000E+01
        4  1    1    2  502    0 0.39962590E+02 0.65606099E+01 -.15691934E+03 0.16206829E+03 0.15500000E+01 0.0000E+00 0.9000E+01
#aMCatNLO 2  0  0  1  2 0.40497533D+02 0.00000000D+00  -5  5  0 0.00000000D+00 0.00000000D+00 0.00000000D+00 0.00000000D+00 0.00000000D+00
  <mgrwgt>
 0.1882727251D-02    1    2    0
 0.243304366035878D+03 0.000000000000000D+00 0.000000000000000D+00 0.243304366035878D+03
 0.243304366035878D+03 0.000000000000000D+00 0.000000000000000D+00 -.243304366035878D+03
 0.250815275904756D+03 -.210041776990979D+03 -.451408966720696D+02 -.335865150513199D+02
 0.235793456167000D+03 0.210041776990979D+03 0.451408966720696D+02 0.335865150513199D+02
 0.000000000000000D+00 0.000000000000000D+00 0.000000000000000D+00 -.000000000000000D+00
 0.253460764622246D+03 0.000000000000000D+00 0.000000000000000D+00 0.253460764622246D+03
 0.288160649207155D+03 0.000000000000000D+00 0.000000000000000D+00 -.288160649207155D+03
 0.269540598981576D+03 -.231371938135879D+03 -.486426433214858D+02 -.335865150513199D+02
 0.218750408861994D+03 0.191409348000699D+03 0.420820334340487D+02 0.335865150513199D+02
 0.533304059858304D+02 0.399625901351802D+02 0.656060988743712D+01 -.346998845849084D+02
0.170387501283D-04 0.000000000000D+00 0.000000000000D+00 0.104121469616D-02 0.385936650231D-07  5 21 4 25 23 4 2 0.10764132D-01 0.16059784D+00 0.68668636D+05 0.68668636D+05 0.68668636D+05 0.11788721D+01  1  2  1  3  5  1       -4 0.188272725092D-02 0.100000000000D+01
  </mgrwgt>
  </event>
  <event>
  4     66 0.46888340E-03 0.16682153E+03 0.75467711E-02 0.10965442E+00
       -2 -1    0    0    0  501 0.00000000E+00 0.00000000E+00 0.33037447E+02 0.33038997E+02 0.32000000E+00 0.0000E+00 0.9000E+01
        2 -1    0    0  501    0 0.00000000E+00 0.00000000E+00 -.85726763E+03 0.85726769E+03 0.32000000E+00 0.0000E+00 0.9000E+01
       25  1    1    2    0    0 -.92199949E+02 0.86478124E+02 -.38008580E+03 0.41960638E+03 0.12500000E+03 0.0000E+00 0.9000E+01
       23  1    1    2    0    0 0.92199949E+02 -.86478124E+02 -.44414438E+03 0.47070031E+03 0.91188000E+02 0.0000E+00 0.9000E+01
#aMCatNLO 1  0  0  2  2 0.17858792D+03 0.00000000D+00  -5  5  0 0.00000000D+00 0.00000000D+00 0.00000000D+00 0.00000000D+00 0.00000000D+00
  <mgrwgt>
 0.1618782628D+00    5    2    0
 0.168293346015409D+03 0.000000000000000D+00 0.000000000000000D+00 0.168293346015409D+03
 0.168293346015409D+03 0.000000000000000D+00 0.000000000000000D+00 -.168293346015409D+03
 0.179151987829047D+03 -.921999494911646D+02 0.864781236916671D+02 0.221616375679772D+02
 0.157434704201770D+03 0.921999494911646D+02 -.864781236916671D+02 -.221616375679772D+02
 0.000000000000000D+00 -.000000000000000D+00 0.000000000000000D+00 -.000000000000000D+00
 0.225438478617572D+03 0.000000000000000D+00 0.000000000000000D+00 0.225438478617572D+03
 0.418827815324650D+03 0.000000000000000D+00 0.000000000000000D+00 -.418827815324650D+03
 0.145967906334560D+03 -.715721023728734D+02 0.824170261096413D+01 0.221616375679772D+02
 0.235062599084307D+03 0.117102683872754D+03 -.180928155338999D+03 -.221616375679772D+02
 0.263235788523355D+03 -.455305814998806D+02 0.172686452728035D+03 -.193389336707077D+03
0.284007810060D-03 0.000000000000D+00 0.000000000000D+00 0.122561547542D-02 0.000000000000D+00  5 -2 2 25 23 21 0 0.50828080D-02 0.13188745D+00 0.27829422D+05 0.27829422D+05 0.27829422D+05 0.12183367D+01  1  2  2  2  5  2        2 0.172076656999D+00 0.100000000000D+01
-.157767314531D-04 0.000000000000D+00 -.109066477160D-05 0.122561547542D-02 0.000000000000D+00  5 -2 2 25 23 21 2 0.50828080D-02 0.13188745D+00 0.27829422D+05 0.27829422D+05 0.27829422D+05 0.12183367D+01  1  2  3  2  5  2        2 -.141887236410D-01 0.100000000000D+01
0.195924517625D-04 0.000000000000D+00 0.000000000000D+00 0.122561547542D-02 0.000000000000D+00  5 -2 2 25 23 21 2 0.50828080D-02 0.13188745D+00 0.27829422D+05 0.27829422D+05 0.27829422D+05 0.12183367D+01  1  2 15  2  5  2        2 0.176203724031D-01 0.100000000000D+01
-.100955657224D-03 0.000000000000D+00 -.963972143287D-04 0.122561547542D-02 0.000000000000D+00  5 -2 2 25 23 21 2 0.50828080D-02 0.36772626D+00 0.27829422D+05 0.27829422D+05 0.27829422D+05 0.12183367D+01  1  2  5  2  5  2        2 -.134364415003D-01 0.100000000000D+01
-.620822291903D-05 0.000000000000D+00 -.110915268309D-04 0.122561547542D-02 0.000000000000D+00  5 -2 21 25 23 -2 2 0.50828080D-02 0.36772626D+00 0.27829422D+05 0.27829422D+05 0.27829422D+05 0.12183367D+01  1  2  5  4  5  2        2 -.193601505210D-03 0.100000000000D+01
  </mgrwgt>
  </event>
  <event>
  4     66 0.46888340E-03 0.12277185E+03 0.75467711E-02 0.10929270E+00
       -2 -1    0    0    0  501 0.00000000E+00 0.00000000E+00 0.77546840E+02 0.77547500E+02 0.32000000E+00 0.0000E+00 0.9000E+01
        2 -1    0    0  501    0 0.00000000E+00 0.00000000E+00 -.20733648E+03 0.20733672E+03 0.32000000E+00 0.0000E+00 0.9000E+01
       25  1    1    2    0    0 -.24072254E+02 -.52391662E+02 -.36895931E+02 0.14251551E+03 0.12500000E+03 0.0000E+00 0.9000E+01
       23  1    1    2    0    0 0.24072254E+02 0.52391662E+02 -.92893706E+02 0.14236872E+03 0.91188000E+02 0.0000E+00 0.9000E+01
#aMCatNLO 1  0  0  1  2 0.23292844D+03 0.00000000D+00  -5  5  0 0.00000000D+00 0.00000000D+00 0.00000000D+00 0.00000000D+00 0.00000000D+00
  <mgrwgt>
 0.1783864394D+00    3    2    0
 0.126800700657091D+03 0.000000000000000D+00 0.000000000000000D+00 0.126800700657091D+03
 0.126800700657091D+03 0.000000000000000D+00 0.000000000000000D+00 -.126800700657091D+03
 0.141212586037299D+03 -.240722539451324D+02 -.523916624103046D+02 0.314902326956662D+02
 0.112388815276884D+03 0.240722539451324D+02 0.523916624103046D+02 -.314902326956662D+02
 0.000000000000000D+00 0.000000000000000D+00 0.000000000000000D+00 -.000000000000000D+00
 0.234707625561122D+03 0.000000000000000D+00 0.000000000000000D+00 0.234707625561122D+03
 0.389059764911041D+03 0.000000000000000D+00 0.000000000000000D+00 -.389059764911041D+03
 0.242289668581802D+03 -.431638469037066D+02 -.200560542148065D+03 0.314902326956662D+02
 0.102049304410922D+03 0.133970486586661D+02 -.304580616383096D+02 -.314902326956662D+02
 0.279428417479439D+03 0.297667982450405D+02 0.231018603786375D+03 -.154352139349919D+03
0.227037243973D-03 0.000000000000D+00 0.000000000000D+00 0.149617528825D-02 0.000000000000D+00  5 -2 2 25 23 21 0 0.11930353D-01 0.31897989D-01 0.15072927D+05 0.15072927D+05 0.15072927D+05 0.12475825D+01  1  2  2  1  5  1       -2 0.174712069863D+00 0.100000000000D+01
-.125971916370D-04 0.000000000000D+00 -.871882797134D-06 0.149617528825D-02 0.000000000000D+00  5 -2 2 25 23 21 2 0.11930353D-01 0.31897989D-01 0.15072927D+05 0.15072927D+05 0.15072927D+05 0.12475825D+01  1  2  3  1  5  1       -2 -.150882222562D-01 0.100000000000D+01
0.156649312581D-04 0.000000000000D+00 0.000000000000D+00 0.149617528825D-02 0.000000000000D+00  5 -2 2 25 23 21 2 0.11930353D-01 0.31897989D-01 0.15072927D+05 0.15072927D+05 0.15072927D+05 0.12475825D+01  1  2 15  1  5  1       -2 0.187625917952D-01 0.100000000000D+01
  </mgrwgt>
  </event>
  <event>
  4     66 0.46888340E-03 0.14860505E+03 0.75467711E-02 0.10569362E+00
       -4 -1    0    0    0  501 0.00000000E+00 0.00000000E+00 0.18813532E+02 0.18877274E+02 0.15500000E+01 0.0000E+00 0.9000E+01
        4 -1    0    0  501    0 0.00000000E+00 0.00000000E+00 -.14103768E+04 0.14103776E+04 0.15500000E+01 0.0000E+00 0.9000E+01
       25  1    1    2    0    0 -.73132653E+02 -.70115422E+02 -.10367175E+04 0.10491295E+04 0.12500000E+03 0.0000E+00 0.9000E+01
       23  1    1    2    0    0 0.73132653E+02 0.70115422E+02 -.35484572E+03 0.38012536E+03 0.91188000E+02 0.0000E+00 0.9000E+01
#aMCatNLO 1  0  0  2  2 0.30385898D+03 0.00000000D+00  -5  5  0 0.00000000D+00 0.00000000D+00 0.00000000D+00 0.00000000D+00 0.00000000D+00
  <mgrwgt>
 0.2951510602D-02    5    2    0
 0.163034743123007D+03 0.000000000000000D+00 0.000000000000000D+00 0.163034743123007D+03
 0.163034743123007D+03 0.000000000000000D+00 0.000000000000000D+00 -.163034743123007D+03
 0.174243624917124D+03 -.731326534046565D+02 -.701154216835231D+02 -.668676563997544D+02
 0.151825861328891D+03 0.731326534046565D+02 0.701154216835231D+02 0.668676563997544D+02
 0.000000000000000D+00 0.000000000000000D+00 -.000000000000000D+00 -.000000000000000D+00
 0.291875499008245D+03 0.000000000000000D+00 0.000000000000000D+00 0.291875499008245D+03
 0.557266578620963D+03 0.000000000000000D+00 0.000000000000000D+00 -.557266578620963D+03
 0.186349270343639D+03 -.990082007183633D+02 0.694776458706208D+02 -.668676563997544D+02
 0.259354206533001D+03 0.436270545971160D+02 0.229291844026662D+03 0.668676563997544D+02
 0.403438600752568D+03 0.553811461212472D+02 -.298769489897283D+03 -.265391079612719D+03
0.259503287449D-03 0.000000000000D+00 0.000000000000D+00 0.108836255745D-02 0.000000000000D+00  5 -4 4 25 23 21 0 0.28993583D-02 0.21698601D+00 0.22083460D+05 0.22083460D+05 0.22083460D+05 0.12291160D+01  1  2  2  2  5  2        4 0.289132543403D-02 0.100000000000D+01
-.142663128390D-04 0.000000000000D+00 -.996560952590D-06 0.108836255745D-02 0.000000000000D+00  5 -4 4 25 23 21 2 0.28993583D-02 0.21698601D+00 0.22083460D+05 0.22083460D+05 0.22083460D+05 0.12291160D+01  1  2  3  2  5  2        4 -.240132857552D-03 0.100000000000D+01
0.178348613933D-04 0.000000000000D+00 0.000000000000D+00 0.108836255745D-02 0.000000000000D+00  5 -4 4 25 23 21 2 0.28993583D-02 0.21698601D+00 0.22083460D+05 0.22083460D+05 0.22083460D+05 0.12291160D+01  1  2 15  2  5  2        4 0.300199237095D-03 0.100000000000D+01
0.231178026443D-04 0.000000000000D+00 -.876893555668D-04 0.108836255745D-02 0.000000000000D+00  5 -4 4 25 23 21 2 0.28993583D-02 0.79534461D+00 0.22083460D+05 0.22083460D+05 0.22083460D+05 0.12291160D+01  1  2  5  2  5  2        4 0.759052261191D-08 0.100000000000D+01
0.576260341531D-05 0.000000000000D+00 -.134251234685D-04 0.108836255745D-02 0.000000000000D+00  5 -4 21 25 23 -4 2 0.28993583D-02 0.79534461D+00 0.22083460D+05 0.22083460D+05 0.22083460D+05 0.12291160D+01  1  2  5  4  5  2        4 0.111198364506D-06 0.100000000000D+01
  </mgrwgt>
  </event>
  <event>
  4     66 0.46888340E-03 0.11213206E+03 0.75467711E-02 0.11989087E+00
       -4 -1    0    0    0  501 0.00000000E+00 0.00000000E+00 0.15483624E+04 0.15483631E+04 0.15500000E+01 0.0000E+00 0.9000E+01
        4 -1    0    0  501    0 0.00000000E+00 0.00000000E+00 -.84999803E+01 0.86401485E+01 0.15500000E+01 0.0000E+00 0.9000E+01
       25  1    1    2    0    0 -.19063198E+02 -.22487027E+02 0.69931297E+03 0.71100823E+03 0.12500000E+03 0.0000E+00 0.9000E+01
       23  1    1    2    0    0 0.19063198E+02 0.22487027E+02 0.84054942E+03 0.84599506E+03 0.91188000E+02 0.0000E+00 0.9000E+01
#aMCatNLO 1  0  0  1  1 0.68093609D+02 0.00000000D+00  -5  5  0 0.00000000D+00 0.00000000D+00 0.00000000D+00 0.00000000D+00 0.00000000D+00
  <mgrwgt>
 0.4623131431D-01    3    2    0
 0.115198827107006D+03 0.000000000000000D+00 0.000000000000000D+00 0.115198827107006D+03
 0.115198827107006D+03 0.000000000000000D+00 0.000000000000000D+00 -.115198827107006D+03
 0.131062158443726D+03 -.190631981158851D+02 -.224870267191149D+02 -.261384292346875D+02
 0.993354957702856D+02 0.190631981158851D+02 0.224870267191149D+02 0.261384292346875D+02
 0.000000000000000D+00 -.000000000000000D+00 -.000000000000000D+00 -.000000000000000D+00
 0.127986722326429D+03 0.000000000000000D+00 0.000000000000000D+00 0.127986722326429D+03
 0.267566670214811D+03 0.000000000000000D+00 0.000000000000000D+00 -.267566670214811D+03
 0.127962095564404D+03 0.640691324083550D+01 0.500318709437550D+01 -.261384292346875D+02
 0.112287396855086D+03 0.398722866757168D+02 0.449465395874278D+02 0.261384292346875D+02
 0.155303900121750D+03 -.462791999165523D+02 -.499497266818033D+02 -.139579947888382D+03
0.168170126252D-02 0.000000000000D+00 0.000000000000D+00 0.169445351162D-02 0.000000000000D+00  5 -4 4 25 23 21 0 0.23822044D+00 0.13185311D-02 0.12573599D+05 0.12573599D+05 0.12573599D+05 0.12566544D+01  1  2  2  1  5  1       -4 0.452704780618D-01 0.100000000000D+01
-.933451461602D-04 0.000000000000D+00 -.645817565018D-05 0.169445351162D-02 0.000000000000D+00  5 -4 4 25 23 21 2 0.23822044D+00 0.13185311D-02 0.12573599D+05 0.12573599D+05 0.12573599D+05 0.12566544D+01  1  2  3  1  5  1       -4 -.396816482491D-02 0.100000000000D+01
0.115947382648D-03 0.000000000000D+00 0.000000000000D+00 0.169445351162D-02 0.000000000000D+00  5 -4 4 25 23 21 2 0.23822044D+00 0.13185311D-02 0.12573599D+05 0.12573599D+05 0.12573599D+05 0.12566544D+01  1  2 15  1  5  1       -4 0.492900107065D-02 0.100000000000D+01
  </mgrwgt>
  </event>
  <event>
  4     66 0.46888340E-03 0.44613012E+02 0.75467711E-02 0.11829366E+00
       -2 -1    0    0    0  501 0.00000000E+00 0.00000000E+00 0.60637207E+02 0.60638051E+02 0.32000000E+00 0.0000E+00 0.9000E+01
        2 -1    0    0  501    0 0.00000000E+00 0.00000000E+00 -.19964780E+03 0.19964806E+03 0.32000000E+00 0.0000E+00 0.9000E+01
       25  1    1    2    0    0 -.18247918E+02 0.69626220E+01 -.73465902E+02 0.14630005E+03 0.12500000E+03 0.0000E+00 0.9000E+01
       23  1    1    2    0    0 0.18247918E+02 -.69626220E+01 -.65544695E+02 0.11398606E+03 0.91188000E+02 0.0000E+00 0.9000E+01
#aMCatNLO 1  0  0  2  1 0.92118697D+02 0.00000000D+00  -5  5  0 0.00000000D+00 0.00000000D+00 0.00000000D+00 0.00000000D+00 0.00000000D+00
  <mgrwgt>
 0.8456707889D-01    7    2    0
 0.110028306996273D+03 0.000000000000000D+00 0.000000000000000D+00 0.110028306996273D+03
 0.110028306996273D+03 0.000000000000000D+00 0.000000000000000D+00 -.110028306996273D+03
 0.126637098078207D+03 -.182479183089349D+02 0.696262198549557D+01 0.552177346030388D+01
 0.934195159143387D+02 0.182479183089349D+02 -.696262198549557D+01 -.552177346030388D+01
 0.000000000000000D+00 -.000000000000000D+00 0.000000000000000D+00 -.000000000000000D+00
 0.135552208407724D+03 0.000000000000000D+00 0.000000000000000D+00 0.135552208407724D+03
 0.249652428954124D+03 0.000000000000000D+00 0.000000000000000D+00 -.249652428954124D+03
 0.129337495961792D+03 0.241474486326773D+02 -.221268751533493D+02 0.552177346030388D+01
 0.109222282208213D+03 0.518101295171740D+02 -.299912667961412D+02 -.552177346030388D+01
 0.146644859191843D+03 -.759575781498513D+02 0.521181419494906D+02 -.114100220546401D+03
0.107392460962D-03 0.000000000000D+00 0.000000000000D+00 0.187197848078D-02 0.000000000000D+00  5 -2 2 25 23 21 0 0.93288857D-02 0.30715131D-01 0.12075026D+05 0.12075026D+05 0.12075026D+05 0.12587070D+01  1  2  2  2  5  2        2 0.125592678996D+00 0.100000000000D+01
-.596623575271D-05 0.000000000000D+00 -.412415327177D-06 0.187197848078D-02 0.000000000000D+00  5 -2 2 25 23 21 2 0.93288857D-02 0.30715131D-01 0.12075026D+05 0.12075026D+05 0.12075026D+05 0.12587070D+01  1  2  3  2  5  2        2 -.110545287001D-01 0.100000000000D+01
0.742907192318D-05 0.000000000000D+00 0.000000000000D+00 0.187197848078D-02 0.000000000000D+00  5 -2 2 25 23 21 2 0.93288857D-02 0.30715131D-01 0.12075026D+05 0.12075026D+05 0.12075026D+05 0.12587070D+01  1  2 15  2  5  2        2 0.137649419490D-01 0.100000000000D+01
0.440405957376D-05 0.000000000000D+00 0.000000000000D+00 0.187197848078D-02 0.000000000000D+00  5 -2 2 25 23 21 2 0.93288857D-02 0.69082377D-01 0.27294490D+05 0.27294490D+05 0.27294490D+05 0.12192301D+01  1  2 12  2  5  2        2 0.331594020919D-02 0.100000000000D+01
-.644144186837D-04 0.000000000000D+00 -.403683739052D-04 0.187197848078D-02 0.000000000000D+00  5 -2 2 25 23 21 2 0.93288857D-02 0.81919481D-01 0.12075026D+05 0.12075026D+05 0.12075026D+05 0.12587070D+01  1  2  5  2  5  2        2 -.420364904615D-01 0.100000000000D+01
0.387616224664D-06 0.000000000000D+00 0.000000000000D+00 0.187197848078D-02 0.000000000000D+00  5 -2 21 25 23 -2 2 0.93288857D-02 0.69082377D-01 0.27294490D+05 0.27294490D+05 0.27294490D+05 0.12192301D+01  1  2 12  4  5  2        2 0.640777235177D-03 0.100000000000D+01
-.465407263835D-05 0.000000000000D+00 -.440745473718D-05 0.187197848078D-02 0.000000000000D+00  5 -2 21 25 23 -2 2 0.93288857D-02 0.81919481D-01 0.12075026D+05 0.12075026D+05 0.12075026D+05 0.12587070D+01  1  2  5  4  5  2        2 -.565624033727D-02 0.100000000000D+01
  </mgrwgt>
  </event>
  <event>
  4     66 0.46888340E-03 0.13542002E+03 0.75467711E-02 0.10604685E+00
       -2 -1    0    0    0  501 0.00000000E+00 0.00000000E+00 0.40788806E+03 0.40788819E+03 0.32000000E+00 0.0000E+00 0.9000E+01
        2 -1    0    0  501    0 0.00000000E+00 0.00000000E+00 -.55405702E+02 0.55406626E+02 0.32000000E+00 0.0000E+00 0.9000E+01
       25  1    1    2    0    0 0.52439291E+02 0.61649664E+02 0.29067107E+03 0.32659643E+03 0.12500000E+03 0.0000E+00 0.9000E+01
       23  1    1    2    0    0 -.52439291E+02 -.61649664E+02 0.61811292E+02 0.13669838E+03 0.91188000E+02 0.0000E+00 0.9000E+01
#aMCatNLO 1  0  0  2  1 0.30446405D+03 0.00000000D+00  -5  5  0 0.00000000D+00 0.00000000D+00 0.00000000D+00 0.00000000D+00 0.00000000D+00
  <mgrwgt>
 0.1677729256D+00    5    2    0
 0.150331526038025D+03 0.000000000000000D+00 0.000000000000000D+00 0.150331526038025D+03
 0.150331526038025D+03 0.000000000000000D+00 0.000000000000000D+00 -.150331526038025D+03
 0.162487573489693D+03 0.524392910823098D+02 0.616496639587062D+02 0.650127004756139D+02
 0.138175478586356D+03 -.524392910823098D+02 -.616496639587062D+02 -.650127004756139D+02
 0.000000000000000D+00 0.000000000000000D+00 0.000000000000000D+00 -.000000000000000D+00
 0.355664231022006D+03 0.000000000000000D+00 0.000000000000000D+00 0.355664231022006D+03
 0.377478183466129D+03 0.000000000000000D+00 0.000000000000000D+00 -.377478183466129D+03
 0.160159028212870D+03 -.744449116999316D+02 0.160380240973911D+02 0.650127004756139D+02
 0.267738887584291D+03 -.212069426585492D+03 -.119032632775397D+03 -.650127004756139D+02
 0.305244498690974D+03 0.286514338285423D+03 0.102994608678006D+03 -.218139524441228D+02
0.666570290437D-03 0.000000000000D+00 0.000000000000D+00 0.113703143577D-02 0.000000000000D+00  5 -2 2 25 23 21 0 0.62752090D-01 0.85240349D-02 0.18338582D+05 0.18338582D+05 0.18338582D+05 0.12379942D+01  1  2  2  2  5  2        2 0.121582481291D+00 0.100000000000D+01
-.365403564439D-04 0.000000000000D+00 -.255980542727D-05 0.113703143577D-02 0.000000000000D+00  5 -2 2 25 23 21 2 0.62752090D-01 0.85240349D-02 0.18338582D+05 0.18338582D+05 0.18338582D+05 0.12379942D+01  1  2  3  2  5  2        2 -.102149222508D-01 0.100000000000D+01
0.459896428048D-04 0.000000000000D+00 0.000000000000D+00 0.113703143577D-02 0.000000000000D+00  5 -2 2 25 23 21 2 0.62752090D-01 0.85240349D-02 0.18338582D+05 0.18338582D+05 0.18338582D+05 0.12379942D+01  1  2 15  2  5  2        2 0.128564872189D-01 0.100000000000D+01
0.723152944623D-03 0.000000000000D+00 -.380034394229D-03 0.113703143577D-02 0.000000000000D+00  5 -2 2 25 23 21 2 0.62752090D-01 0.49436895D-01 0.18338582D+05 0.18338582D+05 0.18338582D+05 0.12379942D+01  1  2  5  2  5  2        2 0.274693164230D-01 0.100000000000D+01
0.133994946835D-03 0.000000000000D+00 -.818485837367D-04 0.113703143577D-02 0.000000000000D+00  5 -2 21 25 23 -2 2 0.62752090D-01 0.49436895D-01 0.18338582D+05 0.18338582D+05 0.18338582D+05 0.12379942D+01  1  2  5  4  5  2        2 0.160795629318D-01 0.100000000000D+01
  </mgrwgt>
  </event>
  <event>
  5     66 0.46888340E-03 0.11749704E+03 0.75467711E-02 0.12403080E+00
       -2 -1    0    0    0  502 0.00000000E+00 0.00000000E+00 0.13427359E+03 0.13427397E+03 0.32000000E+00 0.0000E+00 0.9000E+01
        2 -1    0    0  501    0 0.00000000E+00 0.00000000E+00 -.11109431E+03 0.11109477E+03 0.32000000E+00 0.0000E+00 0.9000E+01
       25  1    1    2    0    0 -.25281337E+02 0.41780815E+02 0.12913486E+02 0.13482040E+03 0.12500000E+03 0.0000E+00 0.9000E+01
       23  1    1    2    0    0 0.27138651E+02 -.33718486E+02 0.13067027E+02 0.10178134E+03 0.91188000E+02 0.0000E+00 0.9000E+01
       21  1    1    2  501  502 -.18573133E+01 -.80623295E+01 -.28012371E+01 0.87669948E+01 0.75000000E+00 0.0000E+00 0.9000E+01
#aMCatNLO 2  0  0  1  2 0.82734980D+01 0.00000000D+00  -5  5  0 0.00000000D+00 0.00000000D+00 0.00000000D+00 0.00000000D+00 0.00000000D+00
  <mgrwgt>
 0.1059759405D+00    2    2    0
 0.117512708142456D+03 0.000000000000000D+00 0.000000000000000D+00 0.117512708142456D+03
 0.117512708142456D+03 0.000000000000000D+00 0.000000000000000D+00 -.117512708142456D+03
 0.133063682950939D+03 -.263371055065692D+02 0.371978776842391D+02 -.190223284388274D+01
 0.101961733333973D+03 0.263371055065692D+02 -.371978776842391D+02 0.190223284388274D+01
 0.000000000000000D+00 -.000000000000000D+00 -.000000000000000D+00 -.000000000000000D+00
 0.120241702052824D+03 0.000000000000000D+00 0.000000000000000D+00 0.120241702052824D+03
 0.124028033685887D+03 0.000000000000000D+00 0.000000000000000D+00 -.124028033685887D+03
 0.134214012066744D+03 -.252813373123186D+02 0.417808153218754D+02 -.190223284388274D+01
 0.100956983314803D+03 0.271386506075989D+02 -.337184858709829D+02 0.190223284388274D+01
 0.909874035716389D+01 -.185731329528027D+01 -.806232945089254D+01 -.378633163306237D+01
-.135483979391D-04 0.000000000000D+00 0.000000000000D+00 0.171587130590D-02 0.000000000000D+00  5 -2 2 25 23 21 2 0.20186131D-01 0.16191604D-01 0.13805554D+05 0.13805554D+05 0.13805554D+05 0.12519519D+01  1  2  8  1  5  1       -2 -.146334045622D-01 0.100000000000D+01
0.123901723034D-03 0.000000000000D+00 0.000000000000D+00 0.171587130590D-02 0.208721725678D-03  5 -2 2 25 23 21 2 0.20654913D-01 0.17089324D-01 0.14812483D+05 0.14812483D+05 0.14812483D+05 0.12484458D+01  1  2  1  1  5  1       -2 0.120609345083D+00 0.100000000000D+01
  </mgrwgt>
  </event>
  <event>
  4     66 0.46888340E-03 0.30903725E+02 0.75467711E-02 0.11948298E+00
       -2 -1    0    0    0  501 0.00000000E+00 0.00000000E+00 0.71866166E+01 0.71937374E+01 0.32000000E+00 0.0000E+00 0.9000E+01
        2 -1    0    0  501    0 0.00000000E+00 0.00000000E+00 -.20055723E+04 0.20055723E+04 0.32000000E+00 0.0000E+00 0.9000E+01
       25  1    1    2    0    0 -.49338923E+02 0.15415241E+02 -.10993553E+04 0.11076458E+04 0.12500000E+03 0.0000E+00 0.9000E+01
       23  1    1    2    0    0 0.49338923E+02 -.15415241E+02 -.89903035E+03 0.90512031E+03 0.91188000E+02 0.0000E+00 0.9000E+01
#aMCatNLO 1  0  0  1  2 0.61527041D+02 0.00000000D+00  -5  5  0 0.00000000D+00 0.00000000D+00 0.00000000D+00 0.00000000D+00 0.00000000D+00
  <mgrwgt>
 0.9377874067D-01    7    2    0
 0.120085266459940D+03 0.000000000000000D+00 0.000000000000000D+00 0.120085266459940D+03
 0.120085266459940D+03 0.000000000000000D+00 0.000000000000000D+00 -.120085266459940D+03
 0.135303096405878D+03 -.493389234340307D+02 0.154152409361723D+02 0.315735304788128D+01
 0.104867436514003D+03 0.493389234340307D+02 -.154152409361723D+02 -.315735304788128D+01
 0.000000000000000D+00 -.000000000000000D+00 0.000000000000000D+00 0.000000000000000D+00
 0.250387108364416D+03 0.000000000000000D+00 0.000000000000000D+00 0.250387108364416D+03
 0.131449039102551D+03 0.000000000000000D+00 0.000000000000000D+00 -.131449039102551D+03
 0.129120009150682D+03 -.299915050106394D+02 -.117267860899709D+02 0.315735304788128D+01
 0.118806313869946D+03 0.657047762966195D+02 -.383745014939127D+02 -.315735304788128D+01
 0.133909824446339D+03 -.357132712859801D+02 0.501012875838835D+02 0.118938069261865D+03
0.109054220947D-03 0.000000000000D+00 0.000000000000D+00 0.167018712038D-02 0.000000000000D+00  5 -2 2 25 23 21 0 0.11061830D-02 0.30855014D+00 0.14410340D+05 0.14410340D+05 0.14410340D+05 0.12498130D+01  1  2  2  1  5  1       -2 0.144225292865D+00 0.100000000000D+01
-.605856692067D-05 0.000000000000D+00 -.418796923072D-06 0.167018712038D-02 0.000000000000D+00  5 -2 2 25 23 21 2 0.11061830D-02 0.30855014D+00 0.14410340D+05 0.14410340D+05 0.14410340D+05 0.12498130D+01  1  2  3  1  5  1       -2 -.125158091399D-01 0.100000000000D+01
0.754787139273D-05 0.000000000000D+00 0.000000000000D+00 0.167018712038D-02 0.000000000000D+00  5 -2 2 25 23 21 2 0.11061830D-02 0.30855014D+00 0.14410340D+05 0.14410340D+05 0.14410340D+05 0.12498130D+01  1  2 15  1  5  1       -2 0.155924196267D-01 0.100000000000D+01
0.842520309670D-04 0.000000000000D+00 0.000000000000D+00 0.167018712038D-02 0.000000000000D+00  5 -2 2 25 23 21 2 0.23040402D-02 0.30855014D+00 0.23927881D+05 0.23927881D+05 0.23927881D+05 0.12253438D+01  1  2 12  1  5  1       -2 0.583355529322D-01 0.100000000000D+01
-.131533351534D-03 0.000000000000D+00 -.308803994531D-04 0.167018712038D-02 0.000000000000D+00  5 -2 2 25 23 21 2 0.25604426D-02 0.30855014D+00 0.14410340D+05 0.14410340D+05 0.14410340D+05 0.12498130D+01  1  2  5  1  5  1       -2 -.810293835938D-01 0.100000000000D+01
0.668500074622D-05 0.000000000000D+00 0.000000000000D+00 0.167018712038D-02 0.000000000000D+00  5 21 2 25 23 2 2 0.23040402D-02 0.30855014D+00 0.23927881D+05 0.23927881D+05 0.23927881D+05 0.12253438D+01  1  2 12  3  5  1       -2 0.944324991915D-01 0.100000000000D+01
-.100696980053D-04 0.000000000000D+00 -.282255153871D-05 0.167018712038D-02 0.000000000000D+00  5 21 2 25 23 2 2 0.25604426D-02 0.30855014D+00 0.14410340D+05 0.14410340D+05 0.14410340D+05 0.12498130D+01  1  2  5  3  5  1       -2 -.125261831209D+00 0.100000000000D+01
  </mgrwgt>
  </event>
  <event>
  4     66 0.46888340E-03 0.12523857E+03 0.75467711E-02 0.12310363E+00
       -2 -1    0    0    0  501 0.00000000E+00 0.00000000E+00 0.26029063E+02 0.26031030E+02 0.32000000E+00 0.0000E+00 0.9000E+01
        2 -1    0    0  501    0 0.00000000E+00 0.00000000E+00 -.63345909E+03 0.63345917E+03 0.32000000E+00 0.0000E+00 0.9000E+01
       25  1    1    2    0    0 0.27473293E+01 -.62609434E+02 -.40973090E+03 0.43293406E+03 0.12500000E+03 0.0000E+00 0.9000E+01
       23  1    1    2    0    0 -.27473293E+01 0.62609434E+02 -.19769913E+03 0.22655614E+03 0.91188000E+02 0.0000E+00 0.9000E+01
#aMCatNLO 1  0  0  2  2 0.47246172D+01 0.00000000D+00  -5  5  0 0.00000000D+00 0.00000000D+00 0.00000000D+00 0.00000000D+00 0.00000000D+00
  <mgrwgt>
 0.9170451546D-01    6    2    0
 0.128409585906351D+03 0.000000000000000D+00 0.000000000000000D+00 0.128409585906351D+03
 0.128409585906351D+03 0.000000000000000D+00 0.000000000000000D+00 -.128409585906351D+03
 0.142640900111606D+03 0.274732926152873D+01 -.626094344515453D+02 -.281768927356384D+02
 0.114178271701096D+03 -.274732926152873D+01 0.626094344515453D+02 0.281768927356384D+02
 0.000000000000000D+00 0.000000000000000D+00 0.000000000000000D+00 0.000000000000000D+00
 0.132541052082646D+03 0.000000000000000D+00 0.000000000000000D+00 0.132541052082646D+03
 0.129789186049114D+03 0.000000000000000D+00 0.000000000000000D+00 -.129789186049114D+03
 0.143795785749593D+03 0.234700874320023D+01 -.652133595597295D+02 -.281768927356384D+02
 0.113066840995085D+03 -.306492433853027D+01 0.605436053037088D+02 0.281768927356384D+02
 0.546761138708207D+01 0.717915595330043D+00 0.466975425602072D+01 0.275186603353213D+01
0.107532448343D-03 0.000000000000D+00 0.000000000000D+00 0.149196075397D-02 0.000000000000D+00  5 -2 2 25 23 21 0 0.40046288D-02 0.97455402D-01 0.15684699D+05 0.15684699D+05 0.15684699D+05 0.12456187D+01  1  2  2  2  5  2        2 0.132198684440D+00 0.100000000000D+01
-.596948352481D-05 0.000000000000D+00 -.412952915582D-06 0.149196075397D-02 0.000000000000D+00  5 -2 2 25 23 21 2 0.40046288D-02 0.97455402D-01 0.15684699D+05 0.15684699D+05 0.15684699D+05 0.12456187D+01  1  2  3  2  5  2        2 -.113866134166D-01 0.100000000000D+01
0.743745352659D-05 0.000000000000D+00 0.000000000000D+00 0.149196075397D-02 0.000000000000D+00  5 -2 2 25 23 21 2 0.40046288D-02 0.97455402D-01 0.15684699D+05 0.15684699D+05 0.15684699D+05 0.12456187D+01  1  2 15  2  5  2        2 0.141867228143D-01 0.100000000000D+01
-.144205257367D-03 0.000000000000D+00 0.000000000000D+00 0.149196075397D-02 0.000000000000D+00  5 -2 2 25 23 21 2 0.40046288D-02 0.97455402D-01 0.15684699D+05 0.15684699D+05 0.15684699D+05 0.12456187D+01  1  2  4  2  5  2        2 -.275067266951D+00 0.100000000000D+01
0.126835283700D-03 0.000000000000D+00 0.000000000000D+00 0.149196075397D-02 0.551691873213D-03  5 -2 2 25 23 21 2 0.41334742D-02 0.98502438D-01 0.16285893D+05 0.16285893D+05 0.16285893D+05 0.12437708D+01  1  2 11  2  5  2        2 0.227634159455D+00 0.100000000000D+01
0.154766387451D-05 0.000000000000D+00 0.000000000000D+00 0.149196075397D-02 0.110316510707D-05  5 -2 21 25 23 -2 2 0.41334742D-02 0.98502438D-01 0.16285893D+05 0.16285893D+05 0.16285893D+05 0.12437708D+01  1  2 11  4  5  2        2 0.413882912096D-02 0.100000000000D+01
  </mgrwgt>
  </event>
  <event>
  5     66 0.46888340E-03 0.11002974E+03 0.75467711E-02 0.11794294E+00
       21 -1    0    0  502  501 0.00000000E+00 0.00000000E+00 0.24654531E+02 0.24665936E+02 0.75000000E+00 0.0000E+00 0.9000E+01
        2 -1    0    0  501    0 0.00000000E+00 0.00000000E+00 -.14103319E+04 0.14103319E+04 0.32000000E+00 0.0000E+00 0.9000E+01
       25  1    1    2    0    0 -.30259548E+02 -.37246119E+02 -.47729254E+03 0.49571775E+03 0.12500000E+03 0.0000E+00 0.9000E+01
       23  1    1    2    0    0 0.15907471E+01 -.54992153E+02 -.22303268E+03 0.24715480E+03 0.91188000E+02 0.0000E+00 0.9000E+01
        2  1    1    2  502    0 0.28668801E+02 0.92238272E+02 -.68535214E+03 0.69212531E+03 0.32000000E+00 0.0000E+00 0.9000E+01
#aMCatNLO 2  0  0  1  2 0.96590884D+02 0.00000000D+00  -5  5  0 0.00000000D+00 0.00000000D+00 0.00000000D+00 0.00000000D+00 0.00000000D+00
  <mgrwgt>
 0.6703938872D-01    1    2    0
 0.114099084953546D+03 0.000000000000000D+00 0.000000000000000D+00 0.114099084953546D+03
 0.114099084953546D+03 0.000000000000000D+00 0.000000000000000D+00 -.114099084953546D+03
 0.130115314748413D+03 -.141601236307244D+02 0.145517596730896D+02 -.298786264955025D+02
 0.980828551586795D+02 0.141601236307244D+02 -.145517596730896D+02 0.298786264955025D+02
 0.000000000000000D+00 0.000000000000000D+00 0.000000000000000D+00 -.000000000000000D+00
 0.143622932683183D+03 0.000000000000000D+00 0.000000000000000D+00 0.143622932683183D+03
 0.242156304227511D+03 0.000000000000000D+00 0.000000000000000D+00 -.242156304227511D+03
 0.137188359274920D+03 -.302595477730353D+02 -.372461188294585D+02 -.298786264955025D+02
 0.110610356648082D+03 0.159074707885221D+01 -.549921526791715D+02 0.298786264955025D+02
 0.137980520987693D+03 0.286688006941830D+02 0.922382715086300D+02 -.985333715443278D+02
0.538095335092D-05 0.000000000000D+00 0.000000000000D+00 0.169435404422D-02 0.112520045505D-06  5 21 2 25 23 2 2 0.37938804D-02 0.21697476D+00 0.28389636D+05 0.28389636D+05 0.28389636D+05 0.12174213D+01  1  2  1  3  5  1       -2 0.670393887160D-01 0.100000000000D+01
  </mgrwgt>
  </event>
  <event>
  4     66 0.46888340E-03 0.73357595E+02 0.75467711E-02 0.11950232E+00
       -2 -1    0    0    0  501 0.00000000E+00 0.00000000E+00 0.21699563E+02 0.21701922E+02 0.32000000E+00 0.0000E+00 0.9000E+01
        2 -1    0    0  501    0 0.00000000E+00 0.00000000E+00 -.95788580E+03 0.95788585E+03 0.32000000E+00 0.0000E+00 0.9000E+01
       25  1    1    2    0    0 0.29273057E+02 0.88403109E+02 -.44987718E+03 0.47611605E+03 0.12500000E+03 0.0000E+00 0.9000E+01
       23  1    1    2    0    0 -.29273057E+02 -.88403109E+02 -.48630906E+03 0.50347172E+03 0.91188000E+02 0.0000E+00 0.9000E+01
#aMCatNLO 1  0  0  2  1 0.21995040D+02 0.00000000D+00  -5  5  0 0.00000000D+00 0.00000000D+00 0.00000000D+00 0.00000000D+00 0.00000000D+00
  <mgrwgt>
 0.1540065742D+00    9    2    0
 0.144176574455494D+03 0.000000000000000D+00 0.000000000000000D+00 0.144176574455494D+03
 0.144176574455494D+03 0.000000000000000D+00 0.000000000000000D+00 -.144176574455494D+03
 0.156851568093688D+03 0.292730571152986D+02 0.884031093328629D+02 0.174754914338685D+02
 0.131501580817300D+03 -.292730571152986D+02 -.884031093328629D+02 -.174754914338685D+02
 0.000000000000000D+00 -.000000000000000D+00 0.000000000000000D+00 -.000000000000000D+00
 0.145895499586943D+03 0.000000000000000D+00 0.000000000000000D+00 0.145895499586943D+03
 0.237623318834504D+03 0.000000000000000D+00 0.000000000000000D+00 -.237623318834504D+03
 0.158730222981377D+03 0.412079167114587D+02 0.869873467072299D+02 0.174754914338685D+02
 0.130460579518691D+03 -.193660165586615D+02 -.895783236399696D+02 -.174754914338685D+02
 0.943280159213789D+02 -.218419001527971D+02 0.259097693273969D+01 -.917278192475606D+02
0.129418011931D-03 0.000000000000D+00 0.000000000000D+00 0.137347326380D-02 0.000000000000D+00  5 -2 2 25 23 21 0 0.33385799D-02 0.14736723D+00 0.20479077D+05 0.20479077D+05 0.20479077D+05 0.12326959D+01  1  2  2  2  5  2        2 0.125946553712D+00 0.100000000000D+01
-.718940315089D-05 0.000000000000D+00 -.496999242360D-06 0.137347326380D-02 0.000000000000D+00  5 -2 2 25 23 21 2 0.33385799D-02 0.14736723D+00 0.20479077D+05 0.20479077D+05 0.20479077D+05 0.12326959D+01  1  2  3  2  5  2        2 -.106315425722D-01 0.100000000000D+01
0.895871870022D-05 0.000000000000D+00 0.000000000000D+00 0.137347326380D-02 0.000000000000D+00  5 -2 2 25 23 21 2 0.33385799D-02 0.14736723D+00 0.20479077D+05 0.20479077D+05 0.20479077D+05 0.12326959D+01  1  2 15  2  5  2        2 0.132479702772D-01 0.100000000000D+01
0.113020272598D-02 0.000000000000D+00 0.000000000000D+00 0.137347326380D-02 0.000000000000D+00  5 -2 2 25 23 21 2 0.33385799D-02 0.24326863D+00 0.23877231D+05 0.23877231D+05 0.23877231D+05 0.12254430D+01  1  2 12  2  5  2        2 0.750113636907D+00 0.100000000000D+01
-.101837000060D-02 0.000000000000D+00 0.000000000000D+00 0.137347326380D-02 0.000000000000D+00  5 -2 2 25 23 21 2 0.33385799D-02 0.14736723D+00 0.20479077D+05 0.20479077D+05 0.20479077D+05 0.12326959D+01  1  2  4  2  5  2        2 -.150594476181D+01 0.100000000000D+01
-.115493946406D-02 0.000000000000D+00 -.502231413804D-04 0.137347326380D-02 0.000000000000D+00  5 -2 2 25 23 21 2 0.33385799D-02 0.24375766D+00 0.20479077D+05 0.20479077D+05 0.20479077D+05 0.12326959D+01  1  2  5  2  5  2        2 -.771622070327D+00 0.100000000000D+01
0.105015524703D-02 0.000000000000D+00 0.444718677336D-04 0.137347326380D-02 0.000000000000D+00  5 -2 2 25 23 21 2 0.33385799D-02 0.14736723D+00 0.20479077D+05 0.20479077D+05 0.20479077D+05 0.12326959D+01  1  2  6  2  5  2        2 0.155294813519D+01 0.100000000000D+01
0.638488694040D-04 0.000000000000D+00 0.000000000000D+00 0.137347326380D-02 0.000000000000D+00  5 -2 21 25 23 -2 2 0.33385799D-02 0.24326863D+00 0.23877231D+05 0.23877231D+05 0.23877231D+05 0.12254430D+01  1  2 12  4  5  2        2 0.199545756648D-01 0.100000000000D+01
-.631720338186D-04 0.000000000000D+00 -.284629477446D-05 0.137347326380D-02 0.000000000000D+00  5 -2 21 25 23 -2 2 0.33385799D-02 0.24375766D+00 0.20479077D+05 0.20479077D+05 0.20479077D+05 0.12326959D+01  1  2  5  4  5  2        2 -.200059228138D-01 0.100000000000D+01
  </mgrwgt>
  </event>
  <event>
  5     66 0.46888340E-03 0.11430501E+03 0.75467711E-02 0.12397826E+00
       -2 -1    0    0    0  501 0.00000000E+00 0.00000000E+00 0.80941743E+03 0.80941749E+03 0.32000000E+00 0.0000E+00 0.9000E+01
       21 -1    0    0  501  502 0.00000000E+00 0.00000000E+00 -.29109443E+02 0.29119103E+02 0.75000000E+00 0.0000E+00 0.9000E+01
       25  1    1    2    0    0 0.35032796E+02 -.27877967E+02 0.15814986E+03 0.20649663E+03 0.12500000E+03 0.0000E+00 0.9000E+01
       23  1    1    2    0    0 -.21168347E+02 0.21625323E+02 0.54254624E+03 0.55098768E+03 0.91188000E+02 0.0000E+00 0.9000E+01
       -2  1    1    2    0  502 -.13864449E+02 0.62526439E+01 0.79611885E+02 0.81052287E+02 0.32000000E+00 0.0000E+00 0.9000E+01
#aMCatNLO 2  0  0  2  2 0.15209159D+02 0.00000000D+00  -5  5  0 0.00000000D+00 0.00000000D+00 0.00000000D+00 0.00000000D+00 0.00000000D+00
  <mgrwgt>
 0.3352820177D-01    1    2    0
 0.143680317330442D+03 0.000000000000000D+00 0.000000000000000D+00 0.143680317330442D+03
 0.143680317330442D+03 0.000000000000000D+00 0.000000000000000D+00 -.143680317330442D+03
 0.156399089100671D+03 0.274421766573382D+02 -.244547195184072D+02 -.865134018814612D+02
 0.130961545560213D+03 -.274421766573382D+02 0.244547195184072D+02 0.865134018814612D+02
 0.000000000000000D+00 -.000000000000000D+00 0.000000000000000D+00 0.000000000000000D+00
 0.159733058947694D+03 0.000000000000000D+00 0.000000000000000D+00 0.159733058947694D+03
 0.147529600426133D+03 0.000000000000000D+00 0.000000000000000D+00 -.147529600426133D+03
 0.158474119566039D+03 0.350327963128936D+02 -.278779670999764D+02 -.865134018814612D+02
 0.129288721774125D+03 -.211683472548419D+02 0.216253231971786D+02 0.865134018814612D+02
 0.194998180336630D+02 -.138644490580517D+02 0.625264390279777D+01 0.122034585215610D+02
0.160194710920D-04 0.000000000000D+00 0.000000000000D+00 0.984346094903D-03 0.178052864595D-06  5 -2 21 25 23 -2 2 0.12452542D+00 0.44790846D-02 0.14891726D+05 0.14891726D+05 0.14891726D+05 0.12481814D+01  1  2  1  4  5  2        2 0.335282017725D-01 0.100000000000D+01
  </mgrwgt>
  </event>
  <event>
  5     66 0.46888340E-03 0.10978208E+03 0.75467711E-02 0.11889136E+00
       -2 -1    0    0    0  501 0.00000000E+00 0.00000000E+00 0.47826163E+02 0.47827234E+02 0.32000000E+00 0.0000E+00 0.9000E+01
        2 -1    0    0  502    0 0.00000000E+00 0.00000000E+00 -.10040529E+04 0.10040529E+04 0.32000000E+00 0.0000E+00 0.9000E+01
       25  1    1    2    0    0 -.28238424E+02 -.38121980E+02 -.56202791E+03 0.57771192E+03 0.12500000E+03 0.0000E+00 0.9000E+01
       23  1    1    2    0    0 0.91825295E+01 -.43963216E+02 -.38616265E+02 0.10873615E+03 0.91188000E+02 0.0000E+00 0.9000E+01
       21  1    1    2  502  501 0.19055895E+02 0.82085196E+02 -.35558254E+03 0.36543209E+03 0.75000000E+00 0.0000E+00 0.9000E+01
#aMCatNLO 2  0  0  2  1 0.84268064D+02 0.00000000D+00  -5  5  0 0.00000000D+00 0.00000000D+00 0.00000000D+00 0.00000000D+00 0.00000000D+00
  <mgrwgt>
 0.6141844669D-01    2    2    0
 0.160729917460413D+03 0.000000000000000D+00 0.000000000000000D+00 0.160729917460413D+03
 0.160729917460413D+03 0.000000000000000D+00 0.000000000000000D+00 -.160729917460413D+03
 0.172099531735553D+03 -.180482785207645D+02 0.577310454093518D+01 -.116765490321384D+03
 0.149360303185273D+03 0.180482785207645D+02 -.577310454093518D+01 0.116765490321384D+03
 0.000000000000000D+00 0.000000000000000D+00 0.000000000000000D+00 -.000000000000000D+00
 0.185233360725413D+03 0.000000000000000D+00 0.000000000000000D+00 0.185233360725413D+03
 0.259240438292315D+03 0.000000000000000D+00 0.000000000000000D+00 -.259240438292315D+03
 0.177510207408672D+03 -.282384244329439D+02 -.381219804026684D+02 -.116765490321384D+03
 0.154811221439827D+03 0.918252945482903D+01 -.439632160164516D+02 0.116765490321384D+03
 0.112152370169229D+03 0.190558949781148D+02 0.820851964191200D+02 -.740070775669013D+02
-.161690655785D-04 0.000000000000D+00 0.000000000000D+00 0.710855851543D-03 0.000000000000D+00  5 -2 2 25 23 21 2 0.63845757D-02 0.15808275D+00 0.25538624D+05 0.25538624D+05 0.25538624D+05 0.12223064D+01  1  2 13  2  5  2        2 -.810244381352D-02 0.100000000000D+01
0.167005412597D-03 0.000000000000D+00 0.000000000000D+00 0.710855851543D-03 0.946052558642D-06  5 -2 2 25 23 21 2 0.73579109D-02 0.15446878D+00 0.25538624D+05 0.25538624D+05 0.25538624D+05 0.12223064D+01  1  2  1  2  5  2        2 0.695208905074D-01 0.100000000000D+01
  </mgrwgt>
  </event>
  <event>
  4     66 0.46888340E-03 0.64221910E+02 0.75467711E-02 0.12406363E+00
       -2 -1    0    0    0  501 0.00000000E+00 0.00000000E+00 0.16648488E+02 0.16651563E+02 0.32000000E+00 0.0000E+00 0.9000E+01
        2 -1    0    0  501    0 0.00000000E+00 0.00000000E+00 -.82701270E+03 0.82701276E+03 0.32000000E+00 0.0000E+00 0.9000E+01
       25  1    1    2    0    0 0.30077643E+02 0.12634760E+02 -.34653868E+03 0.36983558E+03 0.12500000E+03 0.0000E+00 0.9000E+01
       23  1    1    2    0    0 -.30077643E+02 -.12634760E+02 -.46382553E+03 0.47382874E+03 0.91188000E+02 0.0000E+00 0.9000E+01
#aMCatNLO 1  0  0  1  2 0.16358243D+02 0.00000000D+00  -5  5  0 0.00000000D+00 0.00000000D+00 0.00000000D+00 0.00000000D+00 0.00000000D+00
  <mgrwgt>
 0.1268652639D+00    9    2    0
 0.117344938226598D+03 0.000000000000000D+00 0.000000000000000D+00 0.117344938226598D+03
 0.117344938226598D+03 0.000000000000000D+00 0.000000000000000D+00 -.117344938226598D+03
 0.132918146509951D+03 0.300776432486839D+02 0.126347598682787D+02 0.312719025854938D+02
 0.101771729943245D+03 -.300776432486839D+02 -.126347598682787D+02 -.312719025854938D+02
 0.000000000000000D+00 0.000000000000000D+00 -.000000000000000D+00 0.000000000000000D+00
 0.198667373191344D+03 0.000000000000000D+00 0.000000000000000D+00 0.198667373191344D+03
 0.118455158490583D+03 0.000000000000000D+00 0.000000000000000D+00 -.118455158490583D+03
 0.132127144339713D+03 0.227971502929108D+02 0.183013747727676D+02 0.312719025854938D+02
 0.103132138612198D+03 -.357061196756607D+02 -.825395645229834D+01 -.312719025854938D+02
 0.818632487300145D+02 0.129089693827499D+02 -.100474183204692D+02 0.802122147007608D+02
0.594387266736D-04 0.000000000000D+00 0.000000000000D+00 0.162925314117D-02 0.000000000000D+00  5 -2 2 25 23 21 0 0.25615472D-02 0.12723296D+00 0.12772975D+05 0.12772975D+05 0.12772975D+05 0.12558591D+01  1  2  2  1  5  1       -2 0.101606817123D+00 0.100000000000D+01
-.329648307075D-05 0.000000000000D+00 -.228260361003D-06 0.162925314117D-02 0.000000000000D+00  5 -2 2 25 23 21 2 0.25615472D-02 0.12723296D+00 0.12772975D+05 0.12772975D+05 0.12772975D+05 0.12558591D+01  1  2  3  1  5  1       -2 -.888763154416D-02 0.100000000000D+01
0.410910327801D-05 0.000000000000D+00 0.000000000000D+00 0.162925314117D-02 0.000000000000D+00  5 -2 2 25 23 21 2 0.25615472D-02 0.12723296D+00 0.12772975D+05 0.12772975D+05 0.12772975D+05 0.12558591D+01  1  2 15  1  5  1       -2 0.110785328266D-01 0.100000000000D+01
0.572179697841D-03 0.000000000000D+00 0.000000000000D+00 0.162925314117D-02 0.000000000000D+00  5 -2 2 25 23 21 2 0.43414563D-02 0.12723296D+00 0.14763224D+05 0.14763224D+05 0.14763224D+05 0.12486111D+01  1  2 12  1  5  1       -2 0.705488006632D+00 0.100000000000D+01
-.507178199055D-03 0.000000000000D+00 0.000000000000D+00 0.162925314117D-02 0.000000000000D+00  5 -2 2 25 23 21 2 0.25615472D-02 0.12723296D+00 0.12772975D+05 0.12772975D+05 0.12772975D+05 0.12558591D+01  1  2  4  1  5  1       -2 -.136740060958D+01 0.100000000000D+01
-.579267010289D-03 0.000000000000D+00 -.192451499145D-04 0.162925314117D-02 0.000000000000D+00  5 -2 2 25 23 21 2 0.43710057D-02 0.12723296D+00 0.12772975D+05 0.12772975D+05 0.12772975D+05 0.12558591D+01  1  2  5  1  5  1       -2 -.712363709458D+00 0.100000000000D+01
0.516489192808D-03 0.000000000000D+00 0.167902159652D-04 0.162925314117D-02 0.000000000000D+00  5 -2 2 25 23 21 2 0.25615472D-02 0.12723296D+00 0.12772975D+05 0.12772975D+05 0.12772975D+05 0.12558591D+01  1  2  6  1  5  1       -2 0.139250393334D+01 0.100000000000D+01
0.336837490802D-04 0.000000000000D+00 0.000000000000D+00 0.162925314117D-02 0.000000000000D+00  5 21 2 25 23 2 2 0.43414563D-02 0.12723296D+00 0.14763224D+05 0.14763224D+05 0.14763224D+05 0.12486111D+01  1  2 12  3  5  1       -2 0.764801681199D+00 0.100000000000D+01
-.335260033218D-04 0.000000000000D+00 -.114483992377D-05 0.162925314117D-02 0.000000000000D+00  5 21 2 25 23 2 2 0.43710057D-02 0.12723296D+00 0.12772975D+05 0.12772975D+05 0.12772975D+05 0.12558591D+01  1  2  5  3  5  1       -2 -.759961756613D+00 0.100000000000D+01
  </mgrwgt>
  </event>
  <event>
  4     66 0.46888340E-03 0.11542469E+03 0.75467711E-02 0.11671942E+00
       -2 -1    0    0    0  501 0.00000000E+00 0.00000000E+00 0.71202082E+01 0.71273953E+01 0.32000000E+00 0.0000E+00 0.9000E+01
        2 -1    0    0  501    0 0.00000000E+00 0.00000000E+00 -.19378189E+04 0.19378190E+04 0.32000000E+00 0.0000E+00 0.9000E+01
       25  1    1    2    0    0 0.35348966E+02 -.18810796E+02 -.91311578E+03 0.92250139E+03 0.12500000E+03 0.0000E+00 0.9000E+01
       23  1    1    2    0    0 -.35348966E+02 0.18810796E+02 -.10175830E+04 0.10224450E+04 0.91188000E+02 0.0000E+00 0.9000E+01
#aMCatNLO 1  0  0  2  2 0.10693791D+03 0.00000000D+00  -5  5  0 0.00000000D+00 0.00000000D+00 0.00000000D+00 0.00000000D+00 0.00000000D+00
  <mgrwgt>
 0.2834789842D+00    6    2    0
 0.117493358247067D+03 0.000000000000000D+00 0.000000000000000D+00 0.117493358247067D+03
 0.117493358247067D+03 0.000000000000000D+00 0.000000000000000D+00 -.117493358247067D+03
 0.133046894134238D+03 0.353489664964294D+02 -.188107956190532D+02 0.217504155036087D+02
 0.101939822359896D+03 -.353489664964294D+02 0.188107956190532D+02 -.217504155036087D+02
 0.000000000000000D+00 -.000000000000000D+00 0.000000000000000D+00 -.000000000000000D+00
 0.172251902781036D+03 0.000000000000000D+00 0.000000000000000D+00 0.172251902781036D+03
 0.195321336955548D+03 0.000000000000000D+00 0.000000000000000D+00 -.195321336955548D+03
 0.154984894808916D+03 0.363176417480941D+02 -.812604820451384D+02 0.217504155036087D+02
 0.103190380466870D+03 -.346590962860046D+02 -.256645620838393D+02 -.217504155036087D+02
 0.109397964460797D+03 -.165854546208948D+01 0.106925044128978D+03 -.230694341745118D+02
0.114757274765D-03 0.000000000000D+00 0.000000000000D+00 0.167314894484D-02 0.000000000000D+00  5 -2 2 25 23 21 0 0.10959715D-02 0.29812655D+00 0.13322860D+05 0.13322860D+05 0.13322860D+05 0.12537360D+01  1  2  2  2  5  2        2 0.166195215998D+00 0.100000000000D+01
-.637295821128D-05 0.000000000000D+00 -.440698151382D-06 0.167314894484D-02 0.000000000000D+00  5 -2 2 25 23 21 2 0.10959715D-02 0.29812655D+00 0.13322860D+05 0.13322860D+05 0.13322860D+05 0.12537360D+01  1  2  3  2  5  2        2 -.145074649980D-01 0.100000000000D+01
0.794534117923D-05 0.000000000000D+00 0.000000000000D+00 0.167314894484D-02 0.000000000000D+00  5 -2 2 25 23 21 2 0.10959715D-02 0.29812655D+00 0.13322860D+05 0.13322860D+05 0.13322860D+05 0.12537360D+01  1  2 15  2  5  2        2 0.180868531118D-01 0.100000000000D+01
-.388975763899D-04 0.000000000000D+00 -.331238014789D-04 0.167314894484D-02 0.000000000000D+00  5 -2 2 25 23 21 2 0.10959715D-02 0.55894985D+00 0.13322860D+05 0.13322860D+05 0.13322860D+05 0.12537360D+01  1  2  5  2  5  2        2 -.979314249450D-02 0.100000000000D+01
0.542572935435D-04 0.000000000000D+00 0.275086810071D-04 0.167314894484D-02 0.000000000000D+00  5 -2 2 25 23 21 2 0.10959715D-02 0.29812655D+00 0.13322860D+05 0.13322860D+05 0.13322860D+05 0.12537360D+01  1  2  6  2  5  2        2 0.123511838753D+00 0.100000000000D+01
-.799315249632D-06 0.000000000000D+00 -.226629706758D-05 0.167314894484D-02 0.000000000000D+00  5 -2 21 25 23 -2 2 0.10959715D-02 0.55894985D+00 0.13322860D+05 0.13322860D+05 0.13322860D+05 0.12537360D+01  1  2  5  4  5  2        2 -.143161926897D-04 0.100000000000D+01
  </mgrwgt>
  </event>
  <event>
  4     66 0.46888340E-03 0.29625034E+03 0.75467711E-02 0.10210174E+00
       -2 -1    0    0    0  501 0.00000000E+00 0.00000000E+00 0.42016544E+03 0.42016556E+03 0.32000000E+00 0.0000E+00 0.9000E+01
        2 -1    0    0  501    0 0.00000000E+00 0.00000000E+00 -.23316651E+03 0.23316673E+03 0.32000000E+00 0.0000E+00 0.9000E+01
       25  1    1    2    0    0 -.27062496E+03 -.50934476E+02 0.20065047E+03 0.36292947E+03 0.12500000E+03 0.0000E+00 0.9000E+01
       23  1    1    2    0    0 0.27062496E+03 0.50934476E+02 -.13651543E+02 0.29040283E+03 0.91188000E+02 0.0000E+00 0.9000E+01
#aMCatNLO 1  0  0  2  2 0.28785562D+03 0.00000000D+00  -5  5  0 0.00000000D+00 0.00000000D+00 0.00000000D+00 0.00000000D+00 0.00000000D+00
  <mgrwgt>
 0.1493096478D+00    3    2    0
 0.312999397571200D+03 0.000000000000000D+00 0.000000000000000D+00 0.312999397571200D+03
 0.312999397571200D+03 0.000000000000000D+00 0.000000000000000D+00 -.312999397571200D+03
 0.318837866201429D+03 -.270624955354412D+03 -.509344761068226D+02 0.100997017812537D+03
 0.307160928940971D+03 0.270624955354412D+03 0.509344761068226D+02 -.100997017812537D+03
 0.000000000000000D+00 -.000000000000000D+00 0.000000000000000D+00 0.000000000000000D+00
 0.528124410700917D+03 0.000000000000000D+00 0.000000000000000D+00 0.528124410700917D+03
 0.457321375526986D+03 0.000000000000000D+00 0.000000000000000D+00 -.457321375526986D+03
 0.368653659100559D+03 -.263762319209688D+03 -.201269872873045D+03 0.100997017812537D+03
 0.320356755425771D+03 0.276888924267044D+03 -.862862991102340D+02 -.100997017812537D+03
 0.296435371701573D+03 -.131266050573561D+02 0.287556171983279D+03 0.708030351739306D+02
0.448394633137D-02 0.000000000000D+00 0.000000000000D+00 0.900403796347D-03 0.000000000000D+00  5 -2 2 25 23 21 0 0.64640863D-01 0.35871798D-01 0.87764262D+05 0.87764262D+05 0.87764262D+05 0.11688148D+01  1  2  2  2  5  2        2 0.146645448527D+00 0.100000000000D+01
-.248192038730D-03 0.000000000000D+00 -.172195345626D-04 0.900403796347D-03 0.000000000000D+00  5 -2 2 25 23 21 2 0.64640863D-01 0.35871798D-01 0.87764262D+05 0.87764262D+05 0.87764262D+05 0.11688148D+01  1  2  3  2  5  2        2 -.110888738275D-01 0.100000000000D+01
0.307822355299D-03 0.000000000000D+00 0.000000000000D+00 0.900403796347D-03 0.000000000000D+00  5 -2 2 25 23 21 2 0.64640863D-01 0.35871798D-01 0.87764262D+05 0.87764262D+05 0.87764262D+05 0.11688148D+01  1  2 15  2  5  2        2 0.137530731311D-01 0.100000000000D+01
  </mgrwgt>
  </event>
  <event>
  4     66 0.46888340E-03 0.11572789E+03 0.75467711E-02 0.11066785E+00
       -2 -1    0    0    0  501 0.00000000E+00 0.00000000E+00 0.46568412E+01 0.46678228E+01 0.32000000E+00 0.0000E+00 0.9000E+01
        2 -1    0    0  501    0 0.00000000E+00 0.00000000E+00 -.36827329E+04 0.36827330E+04 0.32000000E+00 0.0000E+00 0.9000E+01
       25  1    1    2    0    0 0.22004938E+02 -.34466669E+02 -.28932148E+04 0.28962025E+04 0.12500000E+03 0.0000E+00 0.9000E+01
       23  1    1    2    0    0 -.22004938E+02 0.34466669E+02 -.78486128E+03 0.79119824E+03 0.91188000E+02 0.0000E+00 0.9000E+01
#aMCatNLO 1  0  0  1  2 0.20926619D+03 0.00000000D+00  -5  5  0 0.00000000D+00 0.00000000D+00 0.00000000D+00 0.00000000D+00 0.00000000D+00
  <mgrwgt>
 0.2524675315D+00    5    2    0
 0.131035013653108D+03 0.000000000000000D+00 0.000000000000000D+00 0.131035013653108D+03
 0.131035013653108D+03 0.000000000000000D+00 0.000000000000000D+00 -.131035013653108D+03
 0.144981188137722D+03 0.220049377444783D+02 -.344666691099473D+02 -.610112805073983D+02
 0.117088839168494D+03 -.220049377444783D+02 0.344666691099473D+02 0.610112805073983D+02
 0.000000000000000D+00 -.000000000000000D+00 -.000000000000000D+00 0.000000000000000D+00
 0.416200908352896D+03 0.000000000000000D+00 0.000000000000000D+00 0.416200908352896D+03
 0.211738857351989D+03 0.000000000000000D+00 0.000000000000000D+00 -.211738857351989D+03
 0.177779080955929D+03 0.100124948541844D+03 0.472548405549689D+02 -.610112805073983D+02
 0.157590918898670D+03 0.444777979598918D+02 0.104014400516533D+03 0.610112805073983D+02
 0.292569765850286D+03 -.144602746501736D+03 -.151269241071502D+03 0.204462051000907D+03
0.713516493791D-03 0.000000000000D+00 0.000000000000D+00 0.126111668049D-02 0.000000000000D+00  5 -2 2 25 23 21 0 0.71728291D-03 0.56657515D+00 0.13392945D+05 0.13392945D+05 0.13392945D+05 0.12534725D+01  1  2  2  1  5  1       -2 0.193400738666D+00 0.100000000000D+01
-.388960733478D-04 0.000000000000D+00 -.274009120936D-05 0.126111668049D-02 0.000000000000D+00  5 -2 2 25 23 21 2 0.71728291D-03 0.56657515D+00 0.13392945D+05 0.13392945D+05 0.13392945D+05 0.12534725D+01  1  2  3  1  5  1       -2 -.165649245931D-01 0.100000000000D+01
0.488926211479D-04 0.000000000000D+00 0.000000000000D+00 0.126111668049D-02 0.000000000000D+00  5 -2 2 25 23 21 2 0.71728291D-03 0.56657515D+00 0.13392945D+05 0.13392945D+05 0.13392945D+05 0.12534725D+01  1  2 15  1  5  1       -2 0.208222196424D-01 0.100000000000D+01
0.244659877851D-02 0.000000000000D+00 -.876381557582D-03 0.126111668049D-02 0.000000000000D+00  5 -2 2 25 23 21 2 0.14246854D-01 0.56657515D+00 0.13392945D+05 0.13392945D+05 0.13392945D+05 0.12534725D+01  1  2  5  1  5  1       -2 0.123818848105D-01 0.100000000000D+01
0.562481524297D-03 0.000000000000D+00 -.281539389248D-03 0.126111668049D-02 0.000000000000D+00  5 21 2 25 23 2 2 0.14246854D-01 0.56657515D+00 0.13392945D+05 0.13392945D+05 0.13392945D+05 0.12534725D+01  1  2  5  3  5  1       -2 0.424276129877D-01 0.100000000000D+01
  </mgrwgt>
  </event>
  <event>
  4     66 0.46888340E-03 0.80147597E+02 0.75467711E-02 0.11681764E+00
       -4 -1    0    0    0  501 0.00000000E+00 0.00000000E+00 0.46812801E+02 0.46838454E+02 0.15500000E+01 0.0000E+00 0.9000E+01
        4 -1    0    0  501    0 0.00000000E+00 0.00000000E+00 -.53103041E+03 0.53103267E+03 0.15500000E+01 0.0000E+00 0.9000E+01
       25  1    1    2    0    0 -.77242980E+02 0.79588006E+02 -.30942392E+03 0.35166588E+03 0.12500000E+03 0.0000E+00 0.9000E+01
       23  1    1    2    0    0 0.77242980E+02 -.79588006E+02 -.17479369E+03 0.22620525E+03 0.91188000E+02 0.0000E+00 0.9000E+01
#aMCatNLO 1  0  0  2  1 0.45351441D+02 0.00000000D+00  -5  5  0 0.00000000D+00 0.00000000D+00 0.00000000D+00 0.00000000D+00 0.00000000D+00
  <mgrwgt>
 0.1038324003D-01    6    2    0
 0.157693013123976D+03 0.000000000000000D+00 0.000000000000000D+00 0.157693013123976D+03
 0.157693013123976D+03 0.000000000000000D+00 0.000000000000000D+00 -.157693013123976D+03
 0.169281587200896D+03 -.772429799835993D+02 0.795880059278554D+02 -.270282652224580D+02
 0.146104439047055D+03 0.772429799835993D+02 -.795880059278554D+02 0.270282652224580D+02
 0.000000000000000D+00 0.000000000000000D+00 -.000000000000000D+00 0.000000000000000D+00
 0.183456701460772D+03 0.000000000000000D+00 0.000000000000000D+00 0.183456701460772D+03
 0.180613792287811D+03 0.000000000000000D+00 0.000000000000000D+00 -.180613792287811D+03
 0.185484684201946D+03 -.100946204845942D+03 0.886504635056195D+02 -.270282652224580D+02
 0.133145350121108D+03 0.585852859496059D+02 -.724546069214363D+02 0.270282652224580D+02
 0.454404594255289D+02 0.423609188963365D+02 -.161958565841832D+02 0.284290917296144D+01
0.270843009479D-03 0.000000000000D+00 0.000000000000D+00 0.126617937530D-02 0.000000000000D+00  5 -4 4 25 23 21 0 0.72041167D-02 0.81699134D-01 0.24132471D+05 0.24132471D+05 0.24132471D+05 0.12249455D+01  1  2  2  2  5  2        4 0.823996659641D-02 0.100000000000D+01
-.150427211584D-04 0.000000000000D+00 -.104010847100D-05 0.126617937530D-02 0.000000000000D+00  5 -4 4 25 23 21 2 0.72041167D-02 0.81699134D-01 0.24132471D+05 0.24132471D+05 0.24132471D+05 0.12249455D+01  1  2  3  2  5  2        4 -.686701140289D-03 0.100000000000D+01
0.186670079136D-04 0.000000000000D+00 0.000000000000D+00 0.126617937530D-02 0.000000000000D+00  5 -4 4 25 23 21 2 0.72041167D-02 0.81699134D-01 0.24132471D+05 0.24132471D+05 0.24132471D+05 0.12249455D+01  1  2 15  2  5  2        4 0.852150052181D-03 0.100000000000D+01
0.190376790461D-03 0.000000000000D+00 0.000000000000D+00 0.126617937530D-02 0.000000000000D+00  5 -4 4 25 23 21 2 0.72041167D-02 0.99302338D-01 0.32261452D+05 0.32261452D+05 0.32261452D+05 0.12115997D+01  1  2 12  2  5  2        4 0.558857629969D-02 0.100000000000D+01
-.158316636540D-03 0.000000000000D+00 0.000000000000D+00 0.126617937530D-02 0.000000000000D+00  5 -4 4 25 23 21 2 0.72041167D-02 0.81699134D-01 0.24132471D+05 0.24132471D+05 0.24132471D+05 0.12249455D+01  1  2  4  2  5  2        4 -.722716413433D-02 0.100000000000D+01
0.534561568655D-05 0.000000000000D+00 0.000000000000D+00 0.126617937530D-02 0.000000000000D+00  5 -4 21 25 23 -4 2 0.72041167D-02 0.99302338D-01 0.32261452D+05 0.32261452D+05 0.32261452D+05 0.12115997D+01  1  2 12  4  5  2        4 0.361641235283D-02 0.100000000000D+01
  </mgrwgt>
  </event>
  <event>
  4     66 0.46888340E-03 0.85757789E+02 0.75467711E-02 0.11867668E+00
       -2 -1    0    0    0  501 0.00000000E+00 0.00000000E+00 0.10620607E+03 0.10620656E+03 0.32000000E+00 0.0000E+00 0.9000E+01
        2 -1    0    0  501    0 0.00000000E+00 0.00000000E+00 -.18987085E+03 0.18987112E+03 0.32000000E+00 0.0000E+00 0.9000E+01
       25  1    1    2    0    0 -.41500388E+02 -.51329938E+02 0.20342180E+02 0.14281404E+03 0.12500000E+03 0.0000E+00 0.9000E+01
       23  1    1    2    0    0 0.41500388E+02 0.51329938E+02 -.10400696E+03 0.15326364E+03 0.91188000E+02 0.0000E+00 0.9000E+01
#aMCatNLO 1  0  0  1  2 0.61798384D+02 0.00000000D+00  -5  5  0 0.00000000D+00 0.00000000D+00 0.00000000D+00 0.00000000D+00 0.00000000D+00
  <mgrwgt>
 0.1565157153D+00    9    2    0
 0.142005453281636D+03 0.000000000000000D+00 0.000000000000000D+00 0.142005453281636D+03
 0.142005453281636D+03 0.000000000000000D+00 0.000000000000000D+00 -.142005453281636D+03
 0.154874234879591D+03 -.415003877460557D+02 -.513299377754524D+02 0.632770411321047D+02
 0.129136671683681D+03 0.415003877460557D+02 0.513299377754524D+02 -.632770411321047D+02
 0.000000000000000D+00 0.000000000000000D+00 -.000000000000000D+00 0.000000000000000D+00
 0.180768700432378D+03 0.000000000000000D+00 0.000000000000000D+00 0.180768700432378D+03
 0.172268142415342D+03 0.000000000000000D+00 0.000000000000000D+00 -.172268142415342D+03
 0.148141522094828D+03 -.442842640070519D+02 -.188634725194544D+02 0.632770411321047D+02
 0.142515037023421D+03 0.390046602938606D+02 0.804359184364388D+02 -.632770411321047D+02
 0.623802837294711D+02 0.527960371319134D+01 -.615724459169844D+02 0.850055801703661D+01
0.233842586033D-03 0.000000000000D+00 0.000000000000D+00 0.118243174144D-02 0.000000000000D+00  5 -2 2 25 23 21 0 0.16339454D-01 0.29210958D-01 0.16120004D+05 0.16120004D+05 0.16120004D+05 0.12442730D+01  1  2  2  1  5  1       -2 0.119212162262D+00 0.100000000000D+01
-.127932673073D-04 0.000000000000D+00 -.898017102534D-06 0.118243174144D-02 0.000000000000D+00  5 -2 2 25 23 21 2 0.16339454D-01 0.29210958D-01 0.16120004D+05 0.16120004D+05 0.16120004D+05 0.12442730D+01  1  2  3  1  5  1       -2 -.100974047384D-01 0.100000000000D+01
0.160618346723D-04 0.000000000000D+00 0.000000000000D+00 0.118243174144D-02 0.000000000000D+00  5 -2 2 25 23 21 2 0.16339454D-01 0.29210958D-01 0.16120004D+05 0.16120004D+05 0.16120004D+05 0.12442730D+01  1  2 15  1  5  1       -2 0.126772029093D-01 0.100000000000D+01
0.667898181990D-04 0.000000000000D+00 0.000000000000D+00 0.118243174144D-02 0.000000000000D+00  5 -2 2 25 23 21 2 0.22135559D-01 0.29210958D-01 0.26153839D+05 0.26153839D+05 0.26153839D+05 0.12212023D+01  1  2 12  1  5  1       -2 0.308673937190D-01 0.100000000000D+01
-.919553636312D-04 0.000000000000D+00 0.000000000000D+00 0.118243174144D-02 0.000000000000D+00  5 -2 2 25 23 21 2 0.16339454D-01 0.29210958D-01 0.16120004D+05 0.16120004D+05 0.16120004D+05 0.12442730D+01  1  2  4  1  5  1       -2 -.725780601738D-01 0.100000000000D+01
-.154233469061D-03 0.000000000000D+00 -.848969402298D-04 0.118243174144D-02 0.000000000000D+00  5 -2 2 25 23 21 2 0.25018871D-01 0.29210958D-01 0.16120004D+05 0.16120004D+05 0.16120004D+05 0.12442730D+01  1  2  5  1  5  1       -2 -.591752084897D-01 0.100000000000D+01
0.180898169680D-03 0.000000000000D+00 0.777345190144D-04 0.118243174144D-02 0.000000000000D+00  5 -2 2 25 23 21 2 0.16339454D-01 0.29210958D-01 0.16120004D+05 0.16120004D+05 0.16120004D+05 0.12442730D+01  1  2  6  1  5  1       -2 0.142778384272D+00 0.100000000000D+01
0.260413400268D-05 0.000000000000D+00 0.000000000000D+00 0.118243174144D-02 0.000000000000D+00  5 21 2 25 23 2 2 0.22135559D-01 0.29210958D-01 0.26153839D+05 0.26153839D+05 0.26153839D+05 0.12212023D+01  1  2 12  3  5  1       -2 0.164767242287D-01 0.100000000000D+01
-.454094987513D-05 0.000000000000D+00 -.423401560103D-05 0.118243174144D-02 0.000000000000D+00  5 21 2 25 23 2 2 0.25018871D-01 0.29210958D-01 0.16120004D+05 0.16120004D+05 0.16120004D+05 0.12442730D+01  1  2  5  3  5  1       -2 -.236454787285D-01 0.100000000000D+01
  </mgrwgt>
  </event>
  <event>
  4     66 0.46888340E-03 0.13357255E+03 0.75467711E-02 0.10966548E+00
       -2 -1    0    0    0  501 0.00000000E+00 0.00000000E+00 0.22033596E+03 0.22033620E+03 0.32000000E+00 0.0000E+00 0.9000E+01
        2 -1    0    0  501    0 0.00000000E+00 0.00000000E+00 -.81710625E+02 0.81711252E+02 0.32000000E+00 0.0000E+00 0.9000E+01
       25  1    1    2    0    0 -.62832909E+02 0.45942374E+02 0.90612095E+02 0.17289947E+03 0.12500000E+03 0.0000E+00 0.9000E+01
       23  1    1    2    0    0 0.62832909E+02 -.45942374E+02 0.48013244E+02 0.12914797E+03 0.91188000E+02 0.0000E+00 0.9000E+01
#aMCatNLO 1  0  0  1  2 0.21414434D+03 0.00000000D+00  -5  5  0 0.00000000D+00 0.00000000D+00 0.00000000D+00 0.00000000D+00 0.00000000D+00
  <mgrwgt>
 0.1828362003D+00    3    2    0
 0.134178683093178D+03 0.000000000000000D+00 0.000000000000000D+00 0.134178683093178D+03
 0.134178683093178D+03 0.000000000000000D+00 0.000000000000000D+00 -.134178683093178D+03
 0.147798112959925D+03 -.628329090435253D+02 0.459423744606563D+02 0.126730408568567D+02
 0.120559253226431D+03 0.628329090435253D+02 -.459423744606563D+02 -.126730408568567D+02
 0.000000000000000D+00 -.000000000000000D+00 0.000000000000000D+00 -.000000000000000D+00
 0.199104996250088D+03 0.000000000000000D+00 0.000000000000000D+00 0.199104996250088D+03
 0.589441898436581D+03 0.000000000000000D+00 0.000000000000000D+00 -.589441898436581D+03
 0.130634708515771D+03 -.824076408317068D+01 -.348125108512220D+02 0.126730408568567D+02
 0.212692357728697D+03 0.128173338943677D+03 -.142596552944528D+03 -.126730408568567D+02
 0.445219828442202D+03 -.119932574860506D+03 0.177409063795750D+03 -.390336902186493D+03
0.475811584660D-03 0.000000000000D+00 0.000000000000D+00 0.147212506117D-02 0.000000000000D+00  5 -2 2 25 23 21 0 0.33897907D-01 0.12570931D-01 0.17841626D+05 0.17841626D+05 0.17841626D+05 0.12393237D+01  1  2  2  1  5  1       -2 0.179095223200D+00 0.100000000000D+01
-.264333180849D-04 0.000000000000D+00 -.182724176916D-05 0.147212506117D-02 0.000000000000D+00  5 -2 2 25 23 21 2 0.33897907D-01 0.12570931D-01 0.17841626D+05 0.17841626D+05 0.17841626D+05 0.12393237D+01  1  2  3  1  5  1       -2 -.152816485897D-01 0.100000000000D+01
0.329042454426D-04 0.000000000000D+00 0.000000000000D+00 0.147212506117D-02 0.000000000000D+00  5 -2 2 25 23 21 2 0.33897907D-01 0.12570931D-01 0.17841626D+05 0.17841626D+05 0.17841626D+05 0.12393237D+01  1  2 15  1  5  1       -2 0.190226257009D-01 0.100000000000D+01
  </mgrwgt>
  </event>
  <event>
  4     66 0.46888340E-03 0.11293311E+03 0.75467711E-02 0.11754290E+00
       -2 -1    0    0    0  501 0.00000000E+00 0.00000000E+00 0.23470983E+02 0.23473164E+02 0.32000000E+00 0.0000E+00 0.9000E+01
        2 -1    0    0  501    0 0.00000000E+00 0.00000000E+00 -.11393539E+04 0.11393539E+04 0.32000000E+00 0.0000E+00 0.9000E+01
       25  1    1    2    0    0 0.70909886E+02 -.95795597E+02 -.50248787E+03 0.53134176E+03 0.12500000E+03 0.0000E+00 0.9000E+01
       23  1    1    2    0    0 -.70909886E+02 0.95795597E+02 -.61339504E+03 0.63148534E+03 0.91188000E+02 0.0000E+00 0.9000E+01
#aMCatNLO 1  0  0  2  1 0.21204800D+02 0.00000000D+00  -5  5  0 0.00000000D+00 0.00000000D+00 0.00000000D+00 0.00000000D+00 0.00000000D+00
  <mgrwgt>
 0.2576151253D+00    9    2    0
 0.163533023798410D+03 0.000000000000000D+00 0.000000000000000D+00 0.163533023798410D+03
 0.163533023798410D+03 0.000000000000000D+00 0.000000000000000D+00 -.163533023798410D+03
 0.174707752434582D+03 0.709098855582243D+02 -.957955966091319D+02 0.263209148998157D+02
 0.152358295162237D+03 -.709098855582243D+02 0.957955966091319D+02 -.263209148998157D+02
 0.000000000000000D+00 -.000000000000000D+00 -.000000000000000D+00 -.000000000000000D+00
 0.168364578177521D+03 0.000000000000000D+00 0.000000000000000D+00 0.168364578177521D+03
 0.188922117833546D+03 0.000000000000000D+00 0.000000000000000D+00 -.188922117833546D+03
 0.175378312883598D+03 0.802799708413633D+02 -.894141395442785D+02 0.263209148998157D+02
 0.152374403373637D+03 -.627536872495396D+02 0.101350341069458D+03 -.263209148998157D+02
 0.295339797538318D+02 -.175262835918237D+02 -.119362015251798D+02 -.205575396560243D+02
0.203802887857D-03 0.000000000000D+00 0.000000000000D+00 0.123894878130D-02 0.000000000000D+00  5 -2 2 25 23 21 0 0.36110917D-02 0.17528538D+00 0.26046922D+05 0.26046922D+05 0.26046922D+05 0.12213921D+01  1  2  2  2  5  2        2 0.138863097897D+00 0.100000000000D+01
-.113199885440D-04 0.000000000000D+00 -.782656751904D-06 0.123894878130D-02 0.000000000000D+00  5 -2 2 25 23 21 2 0.36110917D-02 0.17528538D+00 0.26046922D+05 0.26046922D+05 0.26046922D+05 0.12213921D+01  1  2  3  2  5  2        2 -.115062211779D-01 0.100000000000D+01
0.140266866845D-04 0.000000000000D+00 0.000000000000D+00 0.123894878130D-02 0.000000000000D+00  5 -2 2 25 23 21 2 0.36110917D-02 0.17528538D+00 0.26046922D+05 0.26046922D+05 0.26046922D+05 0.12213921D+01  1  2 15  2  5  2        2 0.142574490034D-01 0.100000000000D+01
0.593830550837D-03 0.000000000000D+00 0.000000000000D+00 0.123894878130D-02 0.000000000000D+00  5 -2 2 25 23 21 2 0.36110917D-02 0.20481645D+00 0.29701179D+05 0.29701179D+05 0.29701179D+05 0.12153550D+01  1  2 12  2  5  2        2 0.468910861195D+00 0.100000000000D+01
-.601981004260D-03 0.000000000000D+00 0.000000000000D+00 0.123894878130D-02 0.000000000000D+00  5 -2 2 25 23 21 2 0.36110917D-02 0.17528538D+00 0.26046922D+05 0.26046922D+05 0.26046922D+05 0.12213921D+01  1  2  4  2  5  2        2 -.611884592727D+00 0.100000000000D+01
-.110017741881D-02 0.000000000000D+00 -.185247912399D-03 0.123894878130D-02 0.000000000000D+00  5 -2 2 25 23 21 2 0.36110917D-02 0.20535191D+00 0.26046922D+05 0.26046922D+05 0.26046922D+05 0.12213921D+01  1  2  5  2  5  2        2 -.872080558670D+00 0.100000000000D+01
0.111776533082D-02 0.000000000000D+00 0.182950569139D-03 0.123894878130D-02 0.000000000000D+00  5 -2 2 25 23 21 2 0.36110917D-02 0.17528538D+00 0.26046922D+05 0.26046922D+05 0.26046922D+05 0.12213921D+01  1  2  6  2  5  2        2 0.113615442908D+01 0.100000000000D+01
0.139595416999D-04 0.000000000000D+00 0.000000000000D+00 0.123894878130D-02 0.000000000000D+00  5 -2 21 25 23 -2 2 0.36110917D-02 0.20481645D+00 0.29701179D+05 0.29701179D+05 0.29701179D+05 0.12153550D+01  1  2 12  4  5  2        2 0.645953230023D-02 0.100000000000D+01
-.247941442378D-04 0.000000000000D+00 -.441326551313D-05 0.123894878130D-02 0.000000000000D+00  5 -2 21 25 23 -2 2 0.36110917D-02 0.20535191D+00 0.26046922D+05 0.26046922D+05 0.26046922D+05 0.12213921D+01  1  2  5  4  5  2        2 -.115588716447D-01 0.100000000000D+01
  </mgrwgt>
  </event>
  <event>
  4     66 0.46888340E-03 0.52437537E+02 0.75467711E-02 0.11917501E+00
       -2 -1    0    0    0  501 0.00000000E+00 0.00000000E+00 0.69998011E+02 0.69998743E+02 0.32000000E+00 0.0000E+00 0.9000E+01
        2 -1    0    0  501    0 0.00000000E+00 0.00000000E+00 -.23760060E+03 0.23760081E+03 0.32000000E+00 0.0000E+00 0.9000E+01
       25  1    1    2    0    0 0.39222504E+02 -.55664377E+02 -.75102367E+02 0.16094189E+03 0.12500000E+03 0.0000E+00 0.9000E+01
       23  1    1    2    0    0 -.39222504E+02 0.55664377E+02 -.92500218E+02 0.14665766E+03 0.91188000E+02 0.0000E+00 0.9000E+01
#aMCatNLO 1  0  0  2  1 0.53043327D+02 0.00000000D+00  -5  5  0 0.00000000D+00 0.00000000D+00 0.00000000D+00 0.00000000D+00 0.00000000D+00
  <mgrwgt>
 0.7409735687D-01    7    2    0
 0.128964005887812D+03 0.000000000000000D+00 0.000000000000000D+00 0.128964005887812D+03
 0.128964005887812D+03 0.000000000000000D+00 0.000000000000000D+00 -.128964005887812D+03
 0.143134139262777D+03 0.392225041917223D+02 -.556643767792538D+02 0.150151305423394D+02
 0.114793872512848D+03 -.392225041917223D+02 0.556643767792538D+02 -.150151305423394D+02
 0.000000000000000D+00 0.000000000000000D+00 -.000000000000000D+00 -.000000000000000D+00
 0.135625116049580D+03 0.000000000000000D+00 0.000000000000000D+00 0.135625116049580D+03
 0.309188469864076D+03 0.000000000000000D+00 0.000000000000000D+00 -.309188469864076D+03
 0.134341501290952D+03 0.130716654894409D+02 -.450146241263380D+02 0.150151305423394D+02
 0.128984254827060D+03 -.621975029140902D+02 0.650207900239629D+02 -.150151305423394D+02
 0.181487829795643D+03 0.491258374246493D+02 -.200061658976249D+02 -.173563353814496D+03
0.142481970471D-03 0.000000000000D+00 0.000000000000D+00 0.152642454696D-02 0.000000000000D+00  5 -2 2 25 23 21 0 0.10768998D-01 0.36554011D-01 0.16403467D+05 0.16403467D+05 0.16403467D+05 0.12434184D+01  1  2  2  2  5  2        2 0.111820469732D+00 0.100000000000D+01
-.791520557045D-05 0.000000000000D+00 -.547168282974D-06 0.152642454696D-02 0.000000000000D+00  5 -2 2 25 23 21 2 0.10768998D-01 0.36554011D-01 0.16403467D+05 0.16403467D+05 0.16403467D+05 0.12434184D+01  1  2  3  2  5  2        2 -.960413332815D-02 0.100000000000D+01
0.987040135677D-05 0.000000000000D+00 0.000000000000D+00 0.152642454696D-02 0.000000000000D+00  5 -2 2 25 23 21 2 0.10768998D-01 0.36554011D-01 0.16403467D+05 0.16403467D+05 0.16403467D+05 0.12434184D+01  1  2 15  2  5  2        2 0.119765241457D-01 0.100000000000D+01
0.418408244736D-03 0.000000000000D+00 0.000000000000D+00 0.152642454696D-02 0.000000000000D+00  5 -2 2 25 23 21 2 0.10768998D-01 0.87166835D-01 0.24751218D+05 0.24751218D+05 0.24751218D+05 0.12237636D+01  1  2 12  2  5  2        2 0.195184716679D+00 0.100000000000D+01
-.500112804775D-03 0.000000000000D+00 -.528286529581D-04 0.152642454696D-02 0.000000000000D+00  5 -2 2 25 23 21 2 0.10768998D-01 0.89736155D-01 0.16403467D+05 0.16403467D+05 0.16403467D+05 0.12434184D+01  1  2  5  2  5  2        2 -.231347604861D+00 0.100000000000D+01
0.397473416381D-04 0.000000000000D+00 0.000000000000D+00 0.152642454696D-02 0.000000000000D+00  5 -2 21 25 23 -2 2 0.10768998D-01 0.87166835D-01 0.24751218D+05 0.24751218D+05 0.24751218D+05 0.12237636D+01  1  2 12  4  5  2        2 0.314129274883D-01 0.100000000000D+01
-.460077387826D-04 0.000000000000D+00 -.520783217106D-05 0.152642454696D-02 0.000000000000D+00  5 -2 21 25 23 -2 2 0.10768998D-01 0.89736155D-01 0.16403467D+05 0.16403467D+05 0.16403467D+05 0.12434184D+01  1  2  5  4  5  2        2 -.353455429829D-01 0.100000000000D+01
  </mgrwgt>
  </event>
  <event>
  4     66 0.46888340E-03 0.18131779E+03 0.75467711E-02 0.11258502E+00
       -2 -1    0    0    0  501 0.00000000E+00 0.00000000E+00 0.59726601E+02 0.59727458E+02 0.32000000E+00 0.0000E+00 0.9000E+01
        2 -1    0    0  501    0 0.00000000E+00 0.00000000E+00 -.56605083E+03 0.56605092E+03 0.32000000E+00 0.0000E+00 0.9000E+01
       25  1    1    2    0    0 0.60824434E+02 -.13155980E+03 -.31873048E+03 0.37178180E+03 0.12500000E+03 0.0000E+00 0.9000E+01
       23  1    1    2    0    0 -.60824434E+02 0.13155980E+03 -.18759376E+03 0.25399658E+03 0.91188000E+02 0.0000E+00 0.9000E+01
#aMCatNLO 1  0  0  2  1 0.88881338D+02 0.00000000D+00  -5  5  0 0.00000000D+00 0.00000000D+00 0.00000000D+00 0.00000000D+00 0.00000000D+00
  <mgrwgt>
 0.2178115708D+00    3    2    0
 0.183871119457993D+03 0.000000000000000D+00 0.000000000000000D+00 0.183871119457993D+03
 0.183871119457993D+03 0.000000000000000D+00 0.000000000000000D+00 -.183871119457993D+03
 0.193809804605431D+03 0.608244335534867D+02 -.131559800738846D+03 -.304901209188813D+02
 0.173932434310554D+03 -.608244335534867D+02 0.131559800738846D+03 0.304901209188813D+02
 0.000000000000000D+00 0.000000000000000D+00 -.000000000000000D+00 0.000000000000000D+00
 0.662503601467707D+03 0.000000000000000D+00 0.000000000000000D+00 0.662503601467707D+03
 0.193337870216161D+03 0.000000000000000D+00 0.000000000000000D+00 -.193337870216161D+03
 0.178975472641205D+03 0.172050338103778D+02 -.123213469819977D+03 -.304901209188813D+02
 0.199355396440212D+03 -.104502636805015D+03 0.139917383383858D+03 0.304901209188813D+02
 0.477510602602451D+03 0.872976029946368D+02 -.167039135638808D+02 0.469165731251545D+03
0.530607850022D-03 0.000000000000D+00 0.000000000000D+00 0.115517609384D-02 0.000000000000D+00  5 -2 2 25 23 21 0 0.91887807D-02 0.87084816D-01 0.32876140D+05 0.32876140D+05 0.32876140D+05 0.12107475D+01  1  2  2  2  5  2        2 0.213679411034D+00 0.100000000000D+01
-.294712052021D-04 0.000000000000D+00 -.203767385634D-05 0.115517609384D-02 0.000000000000D+00  5 -2 2 25 23 21 2 0.91887807D-02 0.87084816D-01 0.32876140D+05 0.32876140D+05 0.32876140D+05 0.12107475D+01  1  2  3  2  5  2        2 -.173977893495D-01 0.100000000000D+01
0.364709294637D-04 0.000000000000D+00 0.000000000000D+00 0.115517609384D-02 0.000000000000D+00  5 -2 2 25 23 21 2 0.91887807D-02 0.87084816D-01 0.32876140D+05 0.32876140D+05 0.32876140D+05 0.12107475D+01  1  2 15  2  5  2        2 0.215299491094D-01 0.100000000000D+01
  </mgrwgt>
  </event>
  <event>
  4     66 0.46888340E-03 0.11343077E+03 0.75467711E-02 0.11147110E+00
       -4 -1    0    0    0  501 0.00000000E+00 0.00000000E+00 0.70463324E+03 0.70463494E+03 0.15500000E+01 0.0000E+00 0.9000E+01
        4 -1    0    0  501    0 0.00000000E+00 0.00000000E+00 -.18850443E+02 0.18914061E+02 0.15500000E+01 0.0000E+00 0.9000E+01
       25  1    1    2    0    0 0.24487512E+02 -.23586566E+02 0.32486043E+03 0.34973599E+03 0.12500000E+03 0.0000E+00 0.9000E+01
       23  1    1    2    0    0 -.24487512E+02 0.23586566E+02 0.36092236E+03 0.37381301E+03 0.91188000E+02 0.0000E+00 0.9000E+01
#aMCatNLO 1  0  0  2  2 0.19583226D+03 0.00000000D+00  -5  5  0 0.00000000D+00 0.00000000D+00 0.00000000D+00 0.00000000D+00 0.00000000D+00
  <mgrwgt>
 0.5077374782D-01    3    2    0
 0.115352850050880D+03 0.000000000000000D+00 0.000000000000000D+00 0.115352850050880D+03
 0.115352850050880D+03 0.000000000000000D+00 0.000000000000000D+00 -.115352850050880D+03
 0.131195000142481D+03 0.244875122070311D+02 -.235865657825290D+02 -.207644822445120D+02
 0.995106999592794D+02 -.244875122070311D+02 0.235865657825290D+02 0.207644822445120D+02
 0.000000000000000D+00 0.000000000000000D+00 -.000000000000000D+00 0.000000000000000D+00
 0.335650411402559D+03 0.000000000000000D+00 0.000000000000000D+00 0.335650411402559D+03
 0.203316455754138D+03 0.000000000000000D+00 0.000000000000000D+00 -.203316455754138D+03
 0.143351719646124D+03 -.543017215846837D+02 0.393048958217392D+02 -.207644822445120D+02
 0.159262548514216D+03 -.987500857636136D+02 0.828647383030883D+02 0.207644822445120D+02
 0.236352598996357D+03 0.153051807348297D+03 -.122169634124827D+03 0.132333955648421D+03
0.773645710148D-03 0.000000000000D+00 0.000000000000D+00 0.171593543377D-02 0.000000000000D+00  5 -4 4 25 23 21 0 0.10841014D+00 0.29050931D-02 0.12866539D+05 0.12866539D+05 0.12866539D+05 0.12554907D+01  1  2  2  2  5  2        4 0.497012888104D-01 0.100000000000D+01
-.429655626678D-04 0.000000000000D+00 -.297100323256D-05 0.171593543377D-02 0.000000000000D+00  5 -4 4 25 23 21 2 0.10841014D+00 0.29050931D-02 0.12866539D+05 0.12866539D+05 0.12866539D+05 0.12554907D+01  1  2  3  2  5  2        4 -.435083906936D-02 0.100000000000D+01
0.535563485259D-04 0.000000000000D+00 0.000000000000D+00 0.171593543377D-02 0.000000000000D+00  5 -4 4 25 23 21 2 0.10841014D+00 0.29050931D-02 0.12866539D+05 0.12866539D+05 0.12866539D+05 0.12554907D+01  1  2 15  2  5  2        4 0.542329808131D-02 0.100000000000D+01
  </mgrwgt>
  </event>
  <event>
  5     66 0.46888340E-03 0.10921126E+03 0.75467711E-02 0.11962932E+00
       -2 -1    0    0    0  501 0.00000000E+00 0.00000000E+00 0.14987858E+03 0.14987892E+03 0.32000000E+00 0.0000E+00 0.9000E+01
       21 -1    0    0  501  502 0.00000000E+00 0.00000000E+00 -.18199907E+03 0.18200061E+03 0.75000000E+00 0.0000E+00 0.9000E+01
       25  1    1    2    0    0 0.35630512E+01 -.44002223E+02 -.67420306E+02 0.14872588E+03 0.12500000E+03 0.0000E+00 0.9000E+01
       23  1    1    2    0    0 -.23963930E+02 -.28917611E+02 -.22264769E+01 0.98644345E+02 0.91188000E+02 0.0000E+00 0.9000E+01
       -2  1    1    2    0  502 0.20400879E+02 0.72919833E+02 0.37526296E+02 0.84509308E+02 0.32000000E+00 0.0000E+00 0.9000E+01
#aMCatNLO 2  0  0  2  2 0.75719865D+02 0.00000000D+00  -5  5  0 0.00000000D+00 0.00000000D+00 0.00000000D+00 0.00000000D+00 0.00000000D+00
  <mgrwgt>
 0.2261448422D-01    1    2    0
 0.112480951338714D+03 0.000000000000000D+00 0.000000000000000D+00 0.112480951338714D+03
 0.112480951338714D+03 0.000000000000000D+00 0.000000000000000D+00 -.112480951338714D+03
 0.128727588144773D+03 0.152098995251871D+02 -.237233831828335D+01 -.266237284561635D+02
 0.962343145326562D+02 -.152098995251871D+02 0.237233831828335D+01 0.266237284561635D+02
 0.000000000000000D+00 0.000000000000000D+00 0.000000000000000D+00 0.000000000000000D+00
 0.200175291178105D+03 0.000000000000000D+00 0.000000000000000D+00 0.200175291178105D+03
 0.136270464249245D+03 0.000000000000000D+00 0.000000000000000D+00 -.136270464249245D+03
 0.135213586040100D+03 0.356305116646276D+01 -.440022226631918D+02 -.266237284561635D+02
 0.102149754884869D+03 -.239639303444717D+02 -.289176106304897D+02 0.266237284561635D+02
 0.990824145023811D+02 0.204008791780090D+02 0.729198332936814D+02 0.639048269288607D+02
0.942896142702D-05 0.000000000000D+00 0.000000000000D+00 0.174468028982D-02 0.134986846444D-06  5 -2 21 25 23 -2 2 0.23058348D-01 0.27999953D-01 0.23547767D+05 0.23547767D+05 0.23547767D+05 0.12260940D+01  1  2  1  4  5  2        2 0.226144842216D-01 0.100000000000D+01
  </mgrwgt>
  </event>
  <event>
  4     66 0.46888340E-03 0.12374392E+03 0.75467711E-02 0.12049226E+00
       -2 -1    0    0    0  501 0.00000000E+00 0.00000000E+00 0.16091718E+02 0.16094900E+02 0.32000000E+00 0.0000E+00 0.9000E+01
        2 -1    0    0  501    0 0.00000000E+00 0.00000000E+00 -.10430400E+04 0.10430401E+04 0.32000000E+00 0.0000E+00 0.9000E+01
       25  1    1    2    0    0 0.46805979E+02 0.37009777E+02 -.41349925E+03 0.43608159E+03 0.12500000E+03 0.0000E+00 0.9000E+01
       23  1    1    2    0    0 -.46805979E+02 -.37009777E+02 -.61344907E+03 0.62305340E+03 0.91188000E+02 0.0000E+00 0.9000E+01
#aMCatNLO 1  0  0  1  2 0.42012868D+02 0.00000000D+00  -5  5  0 0.00000000D+00 0.00000000D+00 0.00000000D+00 0.00000000D+00 0.00000000D+00
  <mgrwgt>
 0.6204930283D-01    4    2    0
 0.129560863769360D+03 0.000000000000000D+00 0.000000000000000D+00 0.129560863769360D+03
 0.129560863769360D+03 0.000000000000000D+00 0.000000000000000D+00 -.129560863769360D+03
 0.143665718513561D+03 0.468059790114294D+02 0.370097772018176D+02 0.381354873611324D+02
 0.115456009025159D+03 -.468059790114294D+02 -.370097772018176D+02 -.381354873611324D+02
 0.000000000000000D+00 -.000000000000000D+00 0.000000000000000D+00 -.000000000000000D+00
 0.151357270924024D+03 0.000000000000000D+00 0.000000000000000D+00 0.151357270924024D+03
 0.153201584799989D+03 0.000000000000000D+00 0.000000000000000D+00 -.153201584799989D+03
 0.151898190691771D+03 0.702055109463314D+02 0.326332831925807D+02 0.381354873611324D+02
 0.110607334568334D+03 -.289087450698800D+02 -.403571577111803D+02 -.381354873611324D+02
 0.420533304639074D+02 -.412967658764515D+02 0.772387451859962D+01 -.184431387596576D+01
0.112422692539D-03 0.000000000000D+00 0.000000000000D+00 0.143208376966D-02 0.000000000000D+00  5 -2 2 25 23 21 0 0.24758975D-02 0.16046795D+00 0.15312558D+05 0.15312558D+05 0.15312558D+05 0.12468028D+01  1  2  2  1  5  1       -2 0.149606067038D+00 0.100000000000D+01
-.622968086858D-05 0.000000000000D+00 -.431732740924D-06 0.143208376966D-02 0.000000000000D+00  5 -2 2 25 23 21 2 0.24758975D-02 0.16046795D+00 0.15312558D+05 0.15312558D+05 0.15312558D+05 0.12468028D+01  1  2  3  1  5  1       -2 -.128871399129D-01 0.100000000000D+01
0.775343662208D-05 0.000000000000D+00 0.000000000000D+00 0.143208376966D-02 0.000000000000D+00  5 -2 2 25 23 21 2 0.24758975D-02 0.16046795D+00 0.15312558D+05 0.15312558D+05 0.15312558D+05 0.12468028D+01  1  2 15  1  5  1       -2 0.160392843008D-01 0.100000000000D+01
-.438489499097D-04 0.000000000000D+00 0.000000000000D+00 0.143208376966D-02 0.000000000000D+00  5 -2 2 25 23 21 2 0.24758975D-02 0.16046795D+00 0.15312558D+05 0.15312558D+05 0.15312558D+05 0.12468028D+01  1  2  4  1  5  1       -2 -.907089086005D-01 0.100000000000D+01
  </mgrwgt>
  </event>
  <event>
  5     66 0.46888340E-03 0.11648834E+03 0.75467711E-02 0.12352722E+00
       21 -1    0    0  502  501 0.00000000E+00 0.00000000E+00 0.53851805E+02 0.53857028E+02 0.75000000E+00 0.0000E+00 0.9000E+01
        2 -1    0    0  501    0 0.00000000E+00 0.00000000E+00 -.61400548E+03 0.61400556E+03 0.32000000E+00 0.0000E+00 0.9000E+01
       25  1    1    2    0    0 0.26359272E+02 -.30587782E+02 -.47344154E+03 0.49132710E+03 0.12500000E+03 0.0000E+00 0.9000E+01
       23  1    1    2    0    0 -.40423743E+02 0.22857888E+02 -.15454536E+02 0.10349230E+03 0.91188000E+02 0.0000E+00 0.9000E+01
        2  1    1    2  502    0 0.14064471E+02 0.77298936E+01 -.71257597E+02 0.73043193E+02 0.32000000E+00 0.0000E+00 0.9000E+01
#aMCatNLO 2  0  0  1  2 0.16048695D+02 0.00000000D+00  -5  5  0 0.00000000D+00 0.00000000D+00 0.00000000D+00 0.00000000D+00 0.00000000D+00
  <mgrwgt>
 0.3749815284D-01    1    2    0
 0.169213755244081D+03 0.000000000000000D+00 0.000000000000000D+00 0.169213755244081D+03
 0.169213755244081D+03 0.000000000000000D+00 0.000000000000000D+00 -.169213755244081D+03
 0.180013333336087D+03 0.338236907417486D+02 -.264853049668658D+02 -.122205919431866D+03
 0.158414177152075D+03 -.338236907417486D+02 0.264853049668658D+02 0.122205919431866D+03
 0.000000000000000D+00 0.000000000000000D+00 0.000000000000000D+00 -.000000000000000D+00
 0.172258633785794D+03 0.000000000000000D+00 0.000000000000000D+00 0.172258633785794D+03
 0.191959570554513D+03 0.000000000000000D+00 0.000000000000000D+00 -.191959570554513D+03
 0.179414911129395D+03 0.263592718661284D+02 -.305877815159688D+02 -.122205919431866D+03
 0.159392911183531D+03 -.404237430901834D+02 0.228578879591278D+02 0.122205919431866D+03
 0.254103820273808D+02 0.140644712240549D+02 0.772989355684103D+01 -.197009367687193D+02
0.347510390226D-05 0.000000000000D+00 0.000000000000D+00 0.685694920772D-03 0.775730367316D-07  5 21 2 25 23 2 2 0.82852534D-02 0.94462244D-01 0.15592576D+05 0.15592576D+05 0.15592576D+05 0.12459088D+01  1  2  1  3  5  1       -2 0.374981528417D-01 0.100000000000D+01
  </mgrwgt>
  </event>
  <event>
  4     66 0.46888340E-03 0.12362979E+03 0.75467711E-02 0.11989965E+00
       -2 -1    0    0    0  501 0.00000000E+00 0.00000000E+00 0.48109622E+02 0.48110687E+02 0.32000000E+00 0.0000E+00 0.9000E+01
        2 -1    0    0  501    0 0.00000000E+00 0.00000000E+00 -.33065935E+03 0.33065950E+03 0.32000000E+00 0.0000E+00 0.9000E+01
       25  1    1    2    0    0 0.59189748E+02 -.54099047E+01 -.12025973E+03 0.18335783E+03 0.12500000E+03 0.0000E+00 0.9000E+01
       23  1    1    2    0    0 -.59189748E+02 0.54099047E+01 -.16229000E+03 0.19541235E+03 0.91188000E+02 0.0000E+00 0.9000E+01
#aMCatNLO 1  0  0  1  2 0.50238663D+02 0.00000000D+00  -5  5  0 0.00000000D+00 0.00000000D+00 0.00000000D+00 0.00000000D+00 0.00000000D+00
  <mgrwgt>
 0.1972737099D+00    3    2    0
 0.126127423942965D+03 0.000000000000000D+00 0.000000000000000D+00 0.126127423942965D+03
 0.126127423942965D+03 0.000000000000000D+00 0.000000000000000D+00 -.126127423942965D+03
 0.140616240941450D+03 0.591897478644602D+02 -.540990470945652D+01 0.248039088709864D+02
 0.111638606944479D+03 -.591897478644602D+02 0.540990470945652D+01 -.248039088709864D+02
 0.000000000000000D+00 -.000000000000000D+00 0.000000000000000D+00 -.000000000000000D+00
 0.133337974379762D+03 0.000000000000000D+00 0.000000000000000D+00 0.133337974379762D+03
 0.261905251107092D+03 0.000000000000000D+00 0.000000000000000D+00 -.261905251107092D+03
 0.153778681990696D+03 0.833300177918232D+02 -.215350243633421D+02 0.248039088709864D+02
 0.103430243829194D+03 -.415541852028010D+02 -.637022695181020D+01 -.248039088709864D+02
 0.138034299666965D+03 -.417758325890222D+02 0.279052513151523D+02 -.128567276727329D+03
0.195534445596D-03 0.000000000000D+00 0.000000000000D+00 0.153284750801D-02 0.000000000000D+00  5 -2 2 25 23 21 0 0.74015741D-02 0.50870762D-01 0.15284325D+05 0.15284325D+05 0.15284325D+05 0.12468939D+01  1  2  2  1  5  1       -2 0.193195425016D+00 0.100000000000D+01
-.108577410079D-04 0.000000000000D+00 -.750903756490D-06 0.153284750801D-02 0.000000000000D+00  5 -2 2 25 23 21 2 0.74015741D-02 0.50870762D-01 0.15284325D+05 0.15284325D+05 0.15284325D+05 0.12468939D+01  1  2  3  1  5  1       -2 -.166790787412D-01 0.100000000000D+01
0.135126214923D-04 0.000000000000D+00 0.000000000000D+00 0.153284750801D-02 0.000000000000D+00  5 -2 2 25 23 21 2 0.74015741D-02 0.50870762D-01 0.15284325D+05 0.15284325D+05 0.15284325D+05 0.12468939D+01  1  2 15  1  5  1       -2 0.207573635903D-01 0.100000000000D+01
  </mgrwgt>
  </event>
  <event>
  4     66 0.46888340E-03 0.13901714E+03 0.75467711E-02 0.11146062E+00
       -2 -1    0    0    0  501 0.00000000E+00 0.00000000E+00 0.63676496E+02 0.63677300E+02 0.32000000E+00 0.0000E+00 0.9000E+01
        2 -1    0    0  501    0 0.00000000E+00 0.00000000E+00 -.30475220E+03 0.30475237E+03 0.32000000E+00 0.0000E+00 0.9000E+01
       25  1    1    2    0    0 0.17538829E+02 0.84975479E+02 -.12011645E+03 0.19385924E+03 0.12500000E+03 0.0000E+00 0.9000E+01
       23  1    1    2    0    0 -.17538829E+02 -.84975479E+02 -.12095926E+03 0.17457043E+03 0.91188000E+02 0.0000E+00 0.9000E+01
#aMCatNLO 1  0  0  1  2 0.17006006D+03 0.00000000D+00  -5  5  0 0.00000000D+00 0.00000000D+00 0.00000000D+00 0.00000000D+00 0.00000000D+00
  <mgrwgt>
 0.1159215079D+00    5    2    0
 0.139304455518213D+03 0.000000000000000D+00 0.000000000000000D+00 0.139304455518213D+03
 0.139304455518213D+03 0.000000000000000D+00 0.000000000000000D+00 -.139304455518213D+03
 0.152422752109675D+03 0.175388285055964D+02 0.849754790074967D+02 0.890240544937716D+01
 0.126186158926751D+03 -.175388285055964D+02 -.849754790074967D+02 -.890240544937716D+01
 0.000000000000000D+00 0.000000000000000D+00 -.000000000000000D+00 0.000000000000000D+00
 0.633927009228262D+03 0.000000000000000D+00 0.000000000000000D+00 0.633927009228262D+03
 0.178564500316186D+03 0.000000000000000D+00 0.000000000000000D+00 -.178564500316186D+03
 0.224674646601354D+03 -.149092905811903D+02 0.185882105263050D+03 0.890240544937716D+01
 0.101735142077799D+03 -.371507843098269D+02 -.239865418926858D+02 -.890240544937716D+01
 0.486081720865295D+03 0.520600748910173D+02 -.161895563370365D+03 0.455362508912076D+03
0.215367723863D-03 0.000000000000D+00 0.000000000000D+00 0.142721594977D-02 0.000000000000D+00  5 -2 2 25 23 21 0 0.97964587D-02 0.46885029D-01 0.19325766D+05 0.19325766D+05 0.19325766D+05 0.12354690D+01  1  2  2  1  5  1       -2 0.151466140799D+00 0.100000000000D+01
-.119648115381D-04 0.000000000000D+00 -.827068767259D-06 0.142721594977D-02 0.000000000000D+00  5 -2 2 25 23 21 2 0.97964587D-02 0.46885029D-01 0.19325766D+05 0.19325766D+05 0.19325766D+05 0.12354690D+01  1  2  3  1  5  1       -2 -.128441254364D-01 0.100000000000D+01
0.148476434125D-04 0.000000000000D+00 0.000000000000D+00 0.142721594977D-02 0.000000000000D+00  5 -2 2 25 23 21 2 0.97964587D-02 0.46885029D-01 0.19325766D+05 0.19325766D+05 0.19325766D+05 0.12354690D+01  1  2 15  1  5  1       -2 0.159388214196D-01 0.100000000000D+01
-.187855789116D-03 0.000000000000D+00 -.878339324690D-04 0.142721594977D-02 0.000000000000D+00  5 -2 2 25 23 21 2 0.54767081D-01 0.46885029D-01 0.19325766D+05 0.19325766D+05 0.19325766D+05 0.12354690D+01  1  2  5  1  5  1       -2 -.992767685684D-02 0.100000000000D+01
-.439798914286D-04 0.000000000000D+00 -.185088181411D-04 0.142721594977D-02 0.000000000000D+00  5 21 2 25 23 2 2 0.54767081D-01 0.46885029D-01 0.19325766D+05 0.19325766D+05 0.19325766D+05 0.12354690D+01  1  2  5  3  5  1       -2 -.287116519877D-01 0.100000000000D+01
  </mgrwgt>
  </event>
  <event>
  4     66 0.46888340E-03 0.18007336E+03 0.75467711E-02 0.10246863E+00
       -2 -1    0    0    0  501 0.00000000E+00 0.00000000E+00 0.23225226E+03 0.23225248E+03 0.32000000E+00 0.0000E+00 0.9000E+01
        2 -1    0    0  501    0 0.00000000E+00 0.00000000E+00 -.17771369E+03 0.17771398E+03 0.32000000E+00 0.0000E+00 0.9000E+01
       25  1    1    2    0    0 -.12363758E+03 -.72615592E+02 0.12326604E+03 0.22666891E+03 0.12500000E+03 0.0000E+00 0.9000E+01
       23  1    1    2    0    0 0.12363758E+03 0.72615592E+02 -.68727479E+02 0.18329755E+03 0.91188000E+02 0.0000E+00 0.9000E+01
#aMCatNLO 1  0  0  1  2 0.39429918D+03 0.00000000D+00  -5  5  0 0.00000000D+00 0.00000000D+00 0.00000000D+00 0.00000000D+00 0.00000000D+00
  <mgrwgt>
 0.1379148116D+00    3    2    0
 0.203161293851985D+03 0.000000000000000D+00 0.000000000000000D+00 0.203161293851985D+03
 0.203161293851985D+03 0.000000000000000D+00 0.000000000000000D+00 -.203161293851985D+03
 0.212156300377841D+03 -.123637582039159D+03 -.726155921042531D+02 0.939468992616145D+02
 0.194166287326129D+03 0.123637582039159D+03 0.726155921042531D+02 -.939468992616145D+02
 0.000000000000000D+00 -.000000000000000D+00 -.000000000000000D+00 -.000000000000000D+00
 0.474453192795792D+03 0.000000000000000D+00 0.000000000000000D+00 0.474453192795792D+03
 0.486210149950549D+03 0.000000000000000D+00 0.000000000000000D+00 -.486210149950549D+03
 0.168746795299174D+03 -.343073509979199D+02 0.533616595541670D+02 0.939468992616145D+02
 0.397442122778824D+03 0.262382886449675D+03 0.268280060072311D+03 -.939468992616145D+02
 0.394474424668344D+03 -.228075535451755D+03 -.321641719626478D+03 -.117569571547570D+02
0.951713829300D-03 0.000000000000D+00 0.000000000000D+00 0.913180636129D-03 0.000000000000D+00  5 -2 2 25 23 21 0 0.35731156D-01 0.27340607D-01 0.32426414D+05 0.32426414D+05 0.32426414D+05 0.12113692D+01  1  2  2  1  5  1       -2 0.135157559051D+00 0.100000000000D+01
-.519374371033D-04 0.000000000000D+00 -.365483169652D-05 0.913180636129D-03 0.000000000000D+00  5 -2 2 25 23 21 2 0.35731156D-01 0.27340607D-01 0.32426414D+05 0.32426414D+05 0.32426414D+05 0.12113692D+01  1  2  3  1  5  1       -2 -.108234954578D-01 0.100000000000D+01
0.651683412562D-04 0.000000000000D+00 0.000000000000D+00 0.913180636129D-03 0.000000000000D+00  5 -2 2 25 23 21 2 0.35731156D-01 0.27340607D-01 0.32426414D+05 0.32426414D+05 0.32426414D+05 0.12113692D+01  1  2 15  1  5  1       -2 0.135807480099D-01 0.100000000000D+01
  </mgrwgt>
  </event>
  <event>
  5     66 0.46888340E-03 0.11604808E+03 0.75467711E-02 0.12297000E+00
       -2 -1    0    0    0  501 0.00000000E+00 0.00000000E+00 0.24186399E+02 0.24188516E+02 0.32000000E+00 0.0000E+00 0.9000E+01
        2 -1    0    0  502    0 0.00000000E+00 0.00000000E+00 -.85231138E+03 0.85231144E+03 0.32000000E+00 0.0000E+00 0.9000E+01
       25  1    1    2    0    0 0.32317867E+02 -.33350057E+02 -.62116325E+03 0.63531524E+03 0.12500000E+03 0.0000E+00 0.9000E+01
       23  1    1    2    0    0 -.94501381E+01 0.39721067E+02 -.17215579E+03 0.19904757E+03 0.91188000E+02 0.0000E+00 0.9000E+01
       21  1    1    2  502  501 -.22867729E+02 -.63710099E+01 -.34805932E+02 0.42137136E+02 0.75000000E+00 0.0000E+00 0.9000E+01
#aMCatNLO 2  0  0  2  2 0.23738635D+02 0.00000000D+00  -5  5  0 0.00000000D+00 0.00000000D+00 0.00000000D+00 0.00000000D+00 0.00000000D+00
  <mgrwgt>
 0.6454553210D-01    1    2    0
 0.128688265186296D+03 0.000000000000000D+00 0.000000000000000D+00 0.128688265186296D+03
 0.128688265186296D+03 0.000000000000000D+00 0.000000000000000D+00 -.128688265186296D+03
 0.142888760945210D+03 0.195856445448830D+02 -.368972877177732D+02 -.552013649404692D+02
 0.114487769427383D+03 -.195856445448830D+02 0.368972877177732D+02 0.552013649404692D+02
 0.000000000000000D+00 -.000000000000000D+00 -.000000000000000D+00 0.000000000000000D+00
 0.152312947966640D+03 0.000000000000000D+00 0.000000000000000D+00 0.152312947966640D+03
 0.135338899208949D+03 0.000000000000000D+00 0.000000000000000D+00 -.135338899208949D+03
 0.144322075661591D+03 0.323178673174655D+02 -.333500567320312D+02 -.552013649404692D+02
 0.114146880298504D+03 -.945013807084760D+01 0.397210666653352D+02 0.552013649404692D+02
 0.291828912154941D+02 -.228677292466179D+02 -.637100993330400D+01 0.169740487576912D+02
0.435026776105D-04 0.000000000000D+00 0.000000000000D+00 0.132614568721D-02 0.197119969346D-04  5 -2 2 25 23 21 2 0.37210228D-02 0.13112045D+00 0.16512009D+05 0.16512009D+05 0.16512009D+05 0.12430956D+01  1  2  1  2  5  2        2 0.645455321006D-01 0.100000000000D+01
  </mgrwgt>
  </event>
  <event>
  4     66 0.46888340E-03 0.11224647E+03 0.75467711E-02 0.94164744E-01
       -2 -1    0    0    0  501 0.00000000E+00 0.00000000E+00 0.55327184E+02 0.55328110E+02 0.32000000E+00 0.0000E+00 0.9000E+01
        2 -1    0    0  501    0 0.00000000E+00 0.00000000E+00 -.22844880E+03 0.22844902E+03 0.32000000E+00 0.0000E+00 0.9000E+01
       25  1    1    2    0    0 -.20228364E+02 0.22023051E+02 -.10700536E+03 0.16724039E+03 0.12500000E+03 0.0000E+00 0.9000E+01
       23  1    1    2    0    0 0.20228364E+02 -.22023051E+02 -.66116257E+02 0.11653674E+03 0.91188000E+02 0.0000E+00 0.9000E+01
#aMCatNLO 1  0  0  1  2 0.89344298D+03 0.00000000D+00  -5  5  0 0.00000000D+00 0.00000000D+00 0.00000000D+00 0.00000000D+00 0.00000000D+00
  <mgrwgt>
 0.2085941858D+00    3    2    0
 0.112425939299681D+03 0.000000000000000D+00 0.000000000000000D+00 0.112425939299681D+03
 0.112425939299681D+03 0.000000000000000D+00 0.000000000000000D+00 -.112425939299681D+03
 0.128680525878040D+03 -.202283642122147D+02 0.220230511725027D+02 -.628301190515435D+01
 0.961713527213223D+02 0.202283642122147D+02 -.220230511725027D+02 0.628301190515435D+01
 0.000000000000000D+00 0.000000000000000D+00 -.000000000000000D+00 -.000000000000000D+00
 0.572175864982224D+03 0.000000000000000D+00 0.000000000000000D+00 0.572175864982224D+03
 0.225003481568844D+04 0.000000000000000D+00 0.000000000000000D+00 -.225003481568844D+04
 0.643118202494250D+03 -.515272507822246D+03 0.363910413183530D+03 -.628301190515435D+01
 0.278184532016787D+03 -.219889533826300D+03 0.143807159712063D+03 0.628301190515435D+01
 0.190090794615963D+04 0.735162041648546D+03 -.507717572895593D+03 -.167785895070622D+04
0.174676674046D-03 0.000000000000D+00 0.000000000000D+00 0.181513373332D-02 0.000000000000D+00  5 -2 2 25 23 21 0 0.85119629D-02 0.35146057D-01 0.12599270D+05 0.12599270D+05 0.12599270D+05 0.12565512D+01  1  2  2  1  5  1       -2 0.204222310823D+00 0.100000000000D+01
-.970422955407D-05 0.000000000000D+00 -.670804421761D-06 0.181513373332D-02 0.000000000000D+00  5 -2 2 25 23 21 2 0.85119629D-02 0.35146057D-01 0.12599270D+05 0.12599270D+05 0.12599270D+05 0.12565512D+01  1  2  3  1  5  1       -2 -.179138831001D-01 0.100000000000D+01
0.120725423335D-04 0.000000000000D+00 0.000000000000D+00 0.181513373332D-02 0.000000000000D+00  5 -2 2 25 23 21 2 0.85119629D-02 0.35146057D-01 0.12599270D+05 0.12599270D+05 0.12599270D+05 0.12565512D+01  1  2 15  1  5  1       -2 0.222857580686D-01 0.100000000000D+01
  </mgrwgt>
  </event>
  <event>
  4     66 0.46888340E-03 0.11440782E+03 0.75467711E-02 0.10415532E+00
       -2 -1    0    0    0  501 0.00000000E+00 0.00000000E+00 0.69391792E+02 0.69392530E+02 0.32000000E+00 0.0000E+00 0.9000E+01
        2 -1    0    0  501    0 0.00000000E+00 0.00000000E+00 -.21500185E+03 0.21500208E+03 0.32000000E+00 0.0000E+00 0.9000E+01
       25  1    1    2    0    0 0.37069606E+02 0.67597752E-01 -.13110096E+03 0.18489624E+03 0.12500000E+03 0.0000E+00 0.9000E+01
       23  1    1    2    0    0 -.37069606E+02 -.67597752E-01 -.14509097E+02 0.99498369E+02 0.91188000E+02 0.0000E+00 0.9000E+01
#aMCatNLO 1  0  0  1  1 0.37437130D+03 0.00000000D+00  -5  5  0 0.00000000D+00 0.00000000D+00 0.00000000D+00 0.00000000D+00 0.00000000D+00
  <mgrwgt>
 0.1682950753D+00    5    2    0
 0.122145413808412D+03 0.000000000000000D+00 0.000000000000000D+00 0.122145413808412D+03
 0.122145413808412D+03 0.000000000000000D+00 0.000000000000000D+00 -.122145413808412D+03
 0.137106574502226D+03 0.370696057984896D+02 0.675977517180518D-01 -.424152393394507D+02
 0.107184253114599D+03 -.370696057984896D+02 -.675977517180518D-01 0.424152393394507D+02
 0.000000000000000D+00 -.000000000000000D+00 0.000000000000000D+00 0.000000000000000D+00
 0.415173778793339D+03 0.000000000000000D+00 0.000000000000000D+00 0.415173778793339D+03
 0.406327618616222D+03 0.000000000000000D+00 0.000000000000000D+00 -.406327618616222D+03
 0.263497227586970D+03 0.855993665317169D+02 -.211375222926353D+03 -.424152393394507D+02
 0.183528366142803D+03 -.185223197149259D+01 -.153508718135316D+03 0.424152393394507D+02
 0.374475803679788D+03 -.837471345602243D+02 0.364883941061669D+03 0.884616017711686D+01
0.166462442161D-03 0.000000000000D+00 0.000000000000D+00 0.148896107889D-02 0.000000000000D+00  5 -2 2 25 23 21 0 0.10675735D-01 0.33077282D-01 0.13089149D+05 0.13089149D+05 0.13089149D+05 0.12546261D+01  1  2  2  1  5  1       -2 0.146111119666D+00 0.100000000000D+01
-.919975756014D-05 0.000000000000D+00 -.639259608465D-06 0.148896107889D-02 0.000000000000D+00  5 -2 2 25 23 21 2 0.10675735D-01 0.33077282D-01 0.13089149D+05 0.13089149D+05 0.13089149D+05 0.12546261D+01  1  2  3  1  5  1       -2 -.127107743315D-01 0.100000000000D+01
0.113761154737D-04 0.000000000000D+00 0.000000000000D+00 0.148896107889D-02 0.000000000000D+00  5 -2 2 25 23 21 2 0.10675735D-01 0.33077282D-01 0.13089149D+05 0.13089149D+05 0.13089149D+05 0.12546261D+01  1  2 15  1  5  1       -2 0.157177225171D-01 0.100000000000D+01
0.304783899284D-03 0.000000000000D+00 -.111041396071D-03 0.148896107889D-02 0.000000000000D+00  5 -2 2 25 23 21 2 0.10982282D+00 0.33077282D-01 0.13089149D+05 0.13089149D+05 0.13089149D+05 0.12546261D+01  1  2  5  1  5  1       -2 0.531230937320D-02 0.100000000000D+01
0.660222760835D-04 0.000000000000D+00 -.307043505072D-04 0.148896107889D-02 0.000000000000D+00  5 21 2 25 23 2 2 0.10982282D+00 0.33077282D-01 0.13089149D+05 0.13089149D+05 0.13089149D+05 0.12546261D+01  1  2  5  3  5  1       -2 0.138646981149D-01 0.100000000000D+01
  </mgrwgt>
  </event>
  <event>
  4     66 -.46888340E-03 0.13794477E+03 0.75467711E-02 0.12161205E+00
       -2 -1    0    0    0  501 0.00000000E+00 0.00000000E+00 0.19671992E+02 0.19674595E+02 0.32000000E+00 0.0000E+00 0.9000E+01
        2 -1    0    0  501    0 0.00000000E+00 0.00000000E+00 -.99059413E+03 0.99059418E+03 0.32000000E+00 0.0000E+00 0.9000E+01
       25  1    1    2    0    0 0.65904150E+02 -.53765926E+02 -.60820120E+03 0.62671192E+03 0.12500000E+03 0.0000E+00 0.9000E+01
       23  1    1    2    0    0 -.65904150E+02 0.53765926E+02 -.36272094E+03 0.38355685E+03 0.91188000E+02 0.0000E+00 0.9000E+01
#aMCatNLO 1  0  0  1  2 0.13627111D-02 0.00000000D+00  -5  5  0 0.00000000D+00 0.00000000D+00 0.00000000D+00 0.00000000D+00 0.00000000D+00
  <mgrwgt>
 -.3008682125D-01    9    2    0
 0.139600504697647D+03 0.000000000000000D+00 0.000000000000000D+00 0.139600504697647D+03
 0.139600504697647D+03 0.000000000000000D+00 0.000000000000000D+00 -.139600504697647D+03
 0.152690981468902D+03 0.659041502946003D+02 -.537659257434839D+02 -.213401973943407D+02
 0.126510027926392D+03 -.659041502946003D+02 0.537659257434839D+02 0.213401973943407D+02
 0.000000000000000D+00 -.000000000000000D+00 0.000000000000000D+00 0.000000000000000D+00
 0.139601755369480D+03 0.000000000000000D+00 0.000000000000000D+00 0.139601755369480D+03
 0.139600875896629D+03 0.000000000000000D+00 0.000000000000000D+00 -.139600875896629D+03
 0.152691373827851D+03 0.659045422031533D+02 -.537665596221286D+02 -.213401973943407D+02
 0.126509635570768D+03 -.659038255850403D+02 0.537654005534768D+02 0.213401973943407D+02
 0.162186748993464D-02 -.716618113086719D-03 0.115906865183135D-02 0.879472850771851D-03
0.374142479058D-05 0.000000000000D+00 0.000000000000D+00 0.140242994469D-02 0.000000000000D+00  5 -2 2 25 23 21 0 0.30266645D-02 0.15239930D+00 0.19028759D+05 0.19028759D+05 0.19028759D+05 0.12362133D+01  1  2  2  1  5  1       -2 0.401163121267D-02 0.100000000000D+01
-.207820955218D-06 0.000000000000D+00 -.143680563356D-07 0.140242994469D-02 0.000000000000D+00  5 -2 2 25 23 21 2 0.30266645D-02 0.15239930D+00 0.19028759D+05 0.19028759D+05 0.19028759D+05 0.12362133D+01  1  2  3  1  5  1       -2 -.340533730289D-03 0.100000000000D+01
0.258577505464D-06 0.000000000000D+00 0.000000000000D+00 0.140242994469D-02 0.000000000000D+00  5 -2 2 25 23 21 2 0.30266645D-02 0.15239930D+00 0.19028759D+05 0.19028759D+05 0.19028759D+05 0.12362133D+01  1  2 15  1  5  1       -2 0.423703001520D-03 0.100000000000D+01
-.914260732044D-01 0.000000000000D+00 0.000000000000D+00 0.140242994469D-02 0.000000000000D+00  5 -2 2 25 23 21 2 0.30266645D-02 0.15239930D+00 0.19028759D+05 0.19028759D+05 0.19028759D+05 0.12362133D+01  1  2  4  1  5  1       -2 -.149810021426D+03 0.100000000000D+01
-.906703530196D+00 0.000000000000D+00 -.374895849484D-01 0.140242994469D-02 0.000000000000D+00  5 -2 2 25 23 21 2 0.30266998D-02 0.15239930D+00 0.19028759D+05 0.19028759D+05 0.19028759D+05 0.12362133D+01  1  2  5  1  5  1       -2 -.148569155390D+04 0.100000000000D+01
0.906703967448D+00 0.000000000000D+00 0.374895849459D-01 0.140242994469D-02 0.000000000000D+00  5 -2 2 25 23 21 2 0.30266645D-02 0.15239930D+00 0.19028759D+05 0.19028759D+05 0.19028759D+05 0.12362133D+01  1  2  6  1  5  1       -2 0.148571776113D+04 0.100000000000D+01
0.914260732082D-01 0.000000000000D+00 0.000000000000D+00 0.140242994469D-02 0.615543533525D+04  5 -2 2 25 23 21 2 0.30266917D-02 0.15239971D+00 0.19028946D+05 0.19028946D+05 0.19028946D+05 0.12362128D+01  1  2 11  1  5  1       -2 0.149807428340D+03 0.100000000000D+01
-.198307417538D-05 0.000000000000D+00 -.819944965420D-07 0.140242994469D-02 0.000000000000D+00  5 21 2 25 23 2 2 0.30266998D-02 0.15239930D+00 0.19028759D+05 0.19028759D+05 0.19028759D+05 0.12362133D+01  1  2  5  3  5  1       -2 -.635094023470D-01 0.100000000000D+01
0.178407464126D-06 0.000000000000D+00 0.000000000000D+00 0.140242994469D-02 0.103397378170D-01  5 21 2 25 23 2 2 0.30266917D-02 0.15239971D+00 0.19028946D+05 0.19028946D+05 0.19028946D+05 0.12362128D+01  1  2 11  3  5  1       -2 0.571363061330D-02 0.100000000000D+01
  </mgrwgt>
  </event>
  <event>
  5     66 0.46888340E-03 0.15404742E+03 0.75467711E-02 0.11824858E+00
       21 -1    0    0  502  501 0.00000000E+00 0.00000000E+00 0.57816148E+02 0.57821013E+02 0.75000000E+00 0.0000E+00 0.9000E+01
        2 -1    0    0  501    0 0.00000000E+00 0.00000000E+00 -.48232210E+03 0.48232221E+03 0.32000000E+00 0.0000E+00 0.9000E+01
       25  1    1    2    0    0 0.74934776E+02 0.95336959E+02 -.19190454E+03 0.25914611E+03 0.12500000E+03 0.0000E+00 0.9000E+01
       23  1    1    2    0    0 -.63834146E+02 -.75921611E+02 -.19065286E+03 0.23345803E+03 0.91188000E+02 0.0000E+00 0.9000E+01
        2  1    1    2  502    0 -.11100629E+02 -.19415348E+02 -.41948559E+02 0.47539075E+02 0.32000000E+00 0.0000E+00 0.9000E+01
#aMCatNLO 2  0  0  1  2 0.22364698D+02 0.00000000D+00  -5  5  0 0.00000000D+00 0.00000000D+00 0.00000000D+00 0.00000000D+00 0.00000000D+00
  <mgrwgt>
 0.5875582825D-01    1    2    0
 0.154764743608688D+03 0.000000000000000D+00 0.000000000000000D+00 0.154764743608688D+03
 0.154764743608688D+03 0.000000000000000D+00 0.000000000000000D+00 -.154764743608688D+03
 0.166572582534978D+03 0.688217166401211D+02 0.846450272280140D+02 0.148396744117850D+02
 0.142956904682398D+03 -.688217166401211D+02 -.846450272280140D+02 -.148396744117850D+02
 0.000000000000000D+00 -.000000000000000D+00 -.000000000000000D+00 -.000000000000000D+00
 0.163049885159059D+03 0.000000000000000D+00 0.000000000000000D+00 0.163049885159059D+03
 0.171033457230698D+03 0.000000000000000D+00 0.000000000000000D+00 -.171033457230698D+03
 0.174784359400685D+03 0.749347758865098D+02 0.953369588213227D+02 0.148396744117850D+02
 0.135552043804999D+03 -.638341464647540D+02 -.759216111800907D+02 -.148396744117850D+02
 0.237469391840737D+02 -.111006294217558D+02 -.194153476412320D+02 -.798357207163865D+01
0.489350375219D-05 0.000000000000D+00 0.000000000000D+00 0.130547572754D-02 0.198322903534D-06  5 21 2 25 23 2 2 0.88951165D-02 0.74203300D-01 0.27432511D+05 0.27432511D+05 0.27432511D+05 0.12189977D+01  1  2  1  3  5  1       -2 0.587558282452D-01 0.100000000000D+01
  </mgrwgt>
  </event>
  <event>
  4     66 0.46888340E-03 0.61253846E+02 0.75467711E-02 0.12125204E+00
       -2 -1    0    0    0  501 0.00000000E+00 0.00000000E+00 0.24437047E+02 0.24439143E+02 0.32000000E+00 0.0000E+00 0.9000E+01
        2 -1    0    0  501    0 0.00000000E+00 0.00000000E+00 -.71929006E+03 0.71929013E+03 0.32000000E+00 0.0000E+00 0.9000E+01
       25  1    1    2    0    0 -.50358856E+02 -.26707668E+02 -.24194775E+03 0.27823197E+03 0.12500000E+03 0.0000E+00 0.9000E+01
       23  1    1    2    0    0 0.50358856E+02 0.26707668E+02 -.45290526E+03 0.46549731E+03 0.91188000E+02 0.0000E+00 0.9000E+01
#aMCatNLO 1  0  0  2  1 0.33762989D+02 0.00000000D+00  -5  5  0 0.00000000D+00 0.00000000D+00 0.00000000D+00 0.00000000D+00 0.00000000D+00
  <mgrwgt>
 0.1903672848D+00    9    2    0
 0.132582543778430D+03 0.000000000000000D+00 0.000000000000000D+00 0.132582543778430D+03
 0.132582543778430D+03 0.000000000000000D+00 0.000000000000000D+00 -.132582543778430D+03
 0.146365935708623D+03 -.503588562099727D+02 -.267076677199312D+02 0.504843859232307D+02
 0.118799151848238D+03 0.503588562099727D+02 0.267076677199312D+02 -.504843859232307D+02
 0.000000000000000D+00 -.000000000000000D+00 -.000000000000000D+00 -.000000000000000D+00
 0.138705174423529D+03 0.000000000000000D+00 0.000000000000000D+00 0.138705174423529D+03
 0.190060962443598D+03 0.000000000000000D+00 0.000000000000000D+00 -.190060962443598D+03
 0.140367343032839D+03 -.357123934418433D+02 -.159355804007287D+02 0.504843859232307D+02
 0.126938592306610D+03 0.629112489293869D+02 0.359396217131288D+02 -.504843859232307D+02
 0.614602015276780D+02 -.271988554875436D+02 -.200040413124001D+02 -.513557880200695D+02
0.129289464967D-03 0.000000000000D+00 0.000000000000D+00 0.132948407318D-02 0.000000000000D+00  5 -2 2 25 23 21 0 0.37597124D-02 0.11066018D+00 0.14996756D+05 0.14996756D+05 0.14996756D+05 0.12478332D+01  1  2  2  2  5  2        2 0.150162565714D+00 0.100000000000D+01
-.712767597522D-05 0.000000000000D+00 -.496505588170D-06 0.132948407318D-02 0.000000000000D+00  5 -2 2 25 23 21 2 0.37597124D-02 0.11066018D+00 0.14996756D+05 0.14996756D+05 0.14996756D+05 0.12478332D+01  1  2  3  2  5  2        2 -.128901980935D-01 0.100000000000D+01
0.891378284502D-05 0.000000000000D+00 0.000000000000D+00 0.132948407318D-02 0.000000000000D+00  5 -2 2 25 23 21 2 0.37597124D-02 0.11066018D+00 0.14996756D+05 0.14996756D+05 0.14996756D+05 0.12478332D+01  1  2 15  2  5  2        2 0.161203212708D-01 0.100000000000D+01
0.276710735695D-03 0.000000000000D+00 0.000000000000D+00 0.132948407318D-02 0.000000000000D+00  5 -2 2 25 23 21 2 0.37597124D-02 0.16033066D+00 0.19769093D+05 0.19769093D+05 0.19769093D+05 0.12343816D+01  1  2 12  2  5  2        2 0.306132565498D+00 0.100000000000D+01
-.284506701032D-03 0.000000000000D+00 0.000000000000D+00 0.132948407318D-02 0.000000000000D+00  5 -2 2 25 23 21 2 0.37597124D-02 0.11066018D+00 0.14996756D+05 0.14996756D+05 0.14996756D+05 0.12478332D+01  1  2  4  2  5  2        2 -.514522229682D+00 0.100000000000D+01
-.345484361327D-03 0.000000000000D+00 -.620376122761D-04 0.132948407318D-02 0.000000000000D+00  5 -2 2 25 23 21 2 0.37597124D-02 0.16205180D+00 0.14996756D+05 0.14996756D+05 0.14996756D+05 0.12478332D+01  1  2  5  2  5  2        2 -.382317952739D+00 0.100000000000D+01
0.347792605281D-03 0.000000000000D+00 0.577825480335D-04 0.132948407318D-02 0.000000000000D+00  5 -2 2 25 23 21 2 0.37597124D-02 0.11066018D+00 0.14996756D+05 0.14996756D+05 0.14996756D+05 0.12478332D+01  1  2  6  2  5  2        2 0.628972977040D+00 0.100000000000D+01
0.124625034607D-04 0.000000000000D+00 0.000000000000D+00 0.132948407318D-02 0.000000000000D+00  5 -2 21 25 23 -2 2 0.37597124D-02 0.16033066D+00 0.19769093D+05 0.19769093D+05 0.19769093D+05 0.12343816D+01  1  2 12  4  5  2        2 0.112732482747D-01 0.100000000000D+01
-.139005856283D-04 0.000000000000D+00 -.285227761367D-05 0.132948407318D-02 0.000000000000D+00  5 -2 21 25 23 -2 2 0.37597124D-02 0.16205180D+00 0.14996756D+05 0.14996756D+05 0.14996756D+05 0.12478332D+01  1  2  5  4  5  2        2 -.125640124949D-01 0.100000000000D+01
  </mgrwgt>
  </event>
  <event>
  4     66 0.46888340E-03 0.83425408E+02 0.75467711E-02 0.11799737E+00
       -2 -1    0    0    0  501 0.00000000E+00 0.00000000E+00 0.85444455E+03 0.85444461E+03 0.32000000E+00 0.0000E+00 0.9000E+01
        2 -1    0    0  501    0 0.00000000E+00 0.00000000E+00 -.34625562E+02 0.34627041E+02 0.32000000E+00 0.0000E+00 0.9000E+01
       25  1    1    2    0    0 -.41811585E+02 -.10471167E+03 0.25218485E+03 0.30320775E+03 0.12500000E+03 0.0000E+00 0.9000E+01
       23  1    1    2    0    0 0.41811585E+02 0.10471167E+03 0.56763414E+03 0.58586390E+03 0.91188000E+02 0.0000E+00 0.9000E+01
#aMCatNLO 1  0  0  1  2 0.21741076D+02 0.00000000D+00  -5  5  0 0.00000000D+00 0.00000000D+00 0.00000000D+00 0.00000000D+00 0.00000000D+00
  <mgrwgt>
 0.1498478696D+00    9    2    0
 0.172006706014484D+03 0.000000000000000D+00 0.000000000000000D+00 0.172006706014484D+03
 0.172006706014484D+03 0.000000000000000D+00 0.000000000000000D+00 -.172006706014484D+03
 0.182630926466948D+03 -.418115847131553D+02 -.104711668495895D+03 -.708259356927683D+02
 0.161382485562021D+03 0.418115847131553D+02 0.104711668495895D+03 0.708259356927683D+02
 0.000000000000000D+00 -.000000000000000D+00 -.000000000000000D+00 0.000000000000000D+00
 0.187251962861215D+03 0.000000000000000D+00 0.000000000000000D+00 0.187251962861215D+03
 0.180279524773054D+03 0.000000000000000D+00 0.000000000000000D+00 -.180279524773054D+03
 0.177601756618817D+03 -.317179883691227D+02 -.994738156559272D+02 -.708259356927683D+02
 0.167097970738576D+03 0.510154945427710D+02 0.109487837821149D+03 0.708259356927683D+02
 0.228317602768773D+02 -.192975061736482D+02 -.100140221652219D+02 0.697243808816150D+01
0.133009105935D-02 0.000000000000D+00 0.000000000000D+00 0.104863394956D-02 0.000000000000D+00  5 -2 2 25 23 21 0 0.13145313D+00 0.53271279D-02 0.24546821D+05 0.24546821D+05 0.24546821D+05 0.12241503D+01  1  2  2  1  5  1       -2 0.837651522392D-01 0.100000000000D+01
-.731107789537D-04 0.000000000000D+00 -.510789988891D-05 0.104863394956D-02 0.000000000000D+00  5 -2 2 25 23 21 2 0.13145313D+00 0.53271279D-02 0.24546821D+05 0.24546821D+05 0.24546821D+05 0.12241503D+01  1  2  3  1  5  1       -2 -.689974328067D-02 0.100000000000D+01
0.915441208492D-04 0.000000000000D+00 0.000000000000D+00 0.104863394956D-02 0.000000000000D+00  5 -2 2 25 23 21 2 0.13145313D+00 0.53271279D-02 0.24546821D+05 0.24546821D+05 0.24546821D+05 0.12241503D+01  1  2 15  1  5  1       -2 0.863936811717D-02 0.100000000000D+01
0.204145947060D-02 0.000000000000D+00 0.000000000000D+00 0.104863394956D-02 0.000000000000D+00  5 -2 2 25 23 21 2 0.14604487D+00 0.53271279D-02 0.28216390D+05 0.28216390D+05 0.28216390D+05 0.12177022D+01  1  2 12  1  5  1       -2 0.146772588741D+00 0.100000000000D+01
-.189195768515D-02 0.000000000000D+00 0.000000000000D+00 0.104863394956D-02 0.000000000000D+00  5 -2 2 25 23 21 2 0.13145313D+00 0.53271279D-02 0.24546821D+05 0.24546821D+05 0.24546821D+05 0.12241503D+01  1  2  4  1  5  1       -2 -.178551268530D+00 0.100000000000D+01
-.591921100629D-02 0.000000000000D+00 -.123233710676D-02 0.104863394956D-02 0.000000000000D+00  5 -2 2 25 23 21 2 0.14780984D+00 0.53271279D-02 0.24546821D+05 0.24546821D+05 0.24546821D+05 0.12241503D+01  1  2  5  1  5  1       -2 -.416272648641D+00 0.100000000000D+01
0.603064178289D-02 0.000000000000D+00 0.122391078920D-02 0.104863394956D-02 0.000000000000D+00  5 -2 2 25 23 21 2 0.13145313D+00 0.53271279D-02 0.24546821D+05 0.24546821D+05 0.24546821D+05 0.12241503D+01  1  2  6  1  5  1       -2 0.569134684586D+00 0.100000000000D+01
0.346548919921D-04 0.000000000000D+00 0.000000000000D+00 0.104863394956D-02 0.000000000000D+00  5 21 2 25 23 2 2 0.14604487D+00 0.53271279D-02 0.28216390D+05 0.28216390D+05 0.28216390D+05 0.12177022D+01  1  2 12  3  5  1       -2 0.287882568241D-01 0.100000000000D+01
-.104694993108D-03 0.000000000000D+00 -.229342207866D-04 0.104863394956D-02 0.000000000000D+00  5 21 2 25 23 2 2 0.14780984D+00 0.53271279D-02 0.24546821D+05 0.24546821D+05 0.24546821D+05 0.12241503D+01  1  2  5  3  5  1       -2 -.855285204432D-01 0.100000000000D+01
  </mgrwgt>
  </event>
  <event>
  4     66 0.46888340E-03 0.11144697E+03 0.75467711E-02 0.96768726E-01
       -2 -1    0    0    0  501 0.00000000E+00 0.00000000E+00 0.89202916E+02 0.89203490E+02 0.32000000E+00 0.0000E+00 0.9000E+01
        2 -1    0    0  501    0 0.00000000E+00 0.00000000E+00 -.19445252E+03 0.19445279E+03 0.32000000E+00 0.0000E+00 0.9000E+01
       25  1    1    2    0    0 0.12210304E+02 0.23876439E+02 0.16819412E+02 0.12894599E+03 0.12500000E+03 0.0000E+00 0.9000E+01
       23  1    1    2    0    0 -.12210304E+02 -.23876439E+02 -.12206902E+03 0.15471028E+03 0.91188000E+02 0.0000E+00 0.9000E+01
#aMCatNLO 1  0  0  1  2 0.70684895D+03 0.00000000D+00  -5  5  0 0.00000000D+00 0.00000000D+00 0.00000000D+00 0.00000000D+00 0.00000000D+00
  <mgrwgt>
 0.2240455272D+00    3    2    0
 0.131703647644830D+03 0.000000000000000D+00 0.000000000000000D+00 0.131703647644830D+03
 0.131703647644830D+03 0.000000000000000D+00 0.000000000000000D+00 -.131703647644830D+03
 0.145579020094105D+03 0.122103035939093D+02 0.238764389476171D+02 0.696353016858904D+02
 0.117828275195556D+03 -.122103035939093D+02 -.238764389476171D+02 -.696353016858904D+02
 0.000000000000000D+00 -.000000000000000D+00 0.000000000000000D+00 -.000000000000000D+00
 0.503475358540211D+03 0.000000000000000D+00 0.000000000000000D+00 0.503475358540211D+03
 0.136608421520840D+04 0.000000000000000D+00 0.000000000000000D+00 -.136608421520840D+04
 0.381426431229606D+03 0.213586678970444D+03 -.281767240406057D+03 0.696353016858904D+02
 0.372906943060548D+03 0.175306693192004D+03 -.308484723965325D+03 -.696353016858904D+02
 0.111522619945846D+04 -.388893372162447D+03 0.590251964371382D+03 -.862608856668189D+03
0.334562772045D-03 0.000000000000D+00 0.000000000000D+00 0.118005037946D-02 0.000000000000D+00  5 -2 2 25 23 21 0 0.13723590D-01 0.29915837D-01 0.12420428D+05 0.12420428D+05 0.12420428D+05 0.12572751D+01  1  2  2  1  5  1       -2 0.218903677478D+00 0.100000000000D+01
-.179565201515D-04 0.000000000000D+00 -.128480913705D-05 0.118005037946D-02 0.000000000000D+00  5 -2 2 25 23 21 2 0.13723590D-01 0.29915837D-01 0.12420428D+05 0.12420428D+05 0.12420428D+05 0.12572751D+01  1  2  3  1  5  1       -2 -.185719827464D-01 0.100000000000D+01
0.229279725808D-04 0.000000000000D+00 0.000000000000D+00 0.118005037946D-02 0.000000000000D+00  5 -2 2 25 23 21 2 0.13723590D-01 0.29915837D-01 0.12420428D+05 0.12420428D+05 0.12420428D+05 0.12572751D+01  1  2 15  1  5  1       -2 0.237138325013D-01 0.100000000000D+01
  </mgrwgt>
  </event>
  <event>
  4     66 0.46888340E-03 0.60894072E+02 0.75467711E-02 0.11857833E+00
       -2 -1    0    0    0  501 0.00000000E+00 0.00000000E+00 0.20900127E+02 0.20902577E+02 0.32000000E+00 0.0000E+00 0.9000E+01
        2 -1    0    0  501    0 0.00000000E+00 0.00000000E+00 -.71898834E+03 0.71898841E+03 0.32000000E+00 0.0000E+00 0.9000E+01
       25  1    1    2    0    0 0.25884880E+02 -.46843843E+02 -.45301071E+03 0.47297789E+03 0.12500000E+03 0.0000E+00 0.9000E+01
       23  1    1    2    0    0 -.25884880E+02 0.46843843E+02 -.24507750E+03 0.26691310E+03 0.91188000E+02 0.0000E+00 0.9000E+01
#aMCatNLO 1  0  0  1  2 0.72867428D+02 0.00000000D+00  -5  5  0 0.00000000D+00 0.00000000D+00 0.00000000D+00 0.00000000D+00 0.00000000D+00
  <mgrwgt>
 0.5021072587D-01    7    2    0
 0.122588255017650D+03 0.000000000000000D+00 0.000000000000000D+00 0.122588255017650D+03
 0.122588255017650D+03 0.000000000000000D+00 0.000000000000000D+00 -.122588255017650D+03
 0.137495369600013D+03 0.258848797946092D+02 -.468438434972838D+02 -.203863676476384D+02
 0.107681140435287D+03 -.258848797946092D+02 0.468438434972838D+02 0.203863676476384D+02
 0.000000000000000D+00 -.000000000000000D+00 0.000000000000000D+00 0.000000000000000D+00
 0.327301711189447D+03 0.000000000000000D+00 0.000000000000000D+00 0.327301711189447D+03
 0.134544410234329D+03 0.000000000000000D+00 0.000000000000000D+00 -.134544410234329D+03
 0.154748921345781D+03 0.666660330456687D+02 -.588410121409524D+02 -.203863676476384D+02
 0.101026728720781D+03 0.323920529601930D+01 0.382759994671312D+02 0.203863676476384D+02
 0.206070471357214D+03 -.699052383416880D+02 0.205650126738212D+02 0.192757300955118D+03
0.973889546682D-04 0.000000000000D+00 0.000000000000D+00 0.159684232081D-02 0.000000000000D+00  5 -2 2 25 23 21 0 0.32155981D-02 0.11061378D+00 0.14605855D+05 0.14605855D+05 0.14605855D+05 0.12491430D+01  1  2  2  1  5  1       -2 0.142347914437D+00 0.100000000000D+01
-.540916309759D-05 0.000000000000D+00 -.373999229026D-06 0.159684232081D-02 0.000000000000D+00  5 -2 2 25 23 21 2 0.32155981D-02 0.11061378D+00 0.14605855D+05 0.14605855D+05 0.14605855D+05 0.12491430D+01  1  2  3  1  5  1       -2 -.123366095244D-01 0.100000000000D+01
0.674289199140D-05 0.000000000000D+00 0.000000000000D+00 0.159684232081D-02 0.000000000000D+00  5 -2 2 25 23 21 2 0.32155981D-02 0.11061378D+00 0.14605855D+05 0.14605855D+05 0.14605855D+05 0.12491430D+01  1  2 15  1  5  1       -2 0.153784280603D-01 0.100000000000D+01
0.671073184559D-04 0.000000000000D+00 0.000000000000D+00 0.159684232081D-02 0.000000000000D+00  5 -2 2 25 23 21 2 0.84564827D-02 0.11061378D+00 0.26441376D+05 0.26441376D+05 0.26441376D+05 0.12206962D+01  1  2 12  1  5  1       -2 0.345457480754D-01 0.100000000000D+01
-.150106044032D-03 0.000000000000D+00 -.282287224191D-04 0.159684232081D-02 0.000000000000D+00  5 -2 2 25 23 21 2 0.93826930D-02 0.11061378D+00 0.14605855D+05 0.14605855D+05 0.14605855D+05 0.12491430D+01  1  2  5  1  5  1       -2 -.681416654013D-01 0.100000000000D+01
0.720372861039D-05 0.000000000000D+00 0.000000000000D+00 0.159684232081D-02 0.000000000000D+00  5 21 2 25 23 2 2 0.84564827D-02 0.11061378D+00 0.26441376D+05 0.26441376D+05 0.26441376D+05 0.12206962D+01  1  2 12  3  5  1       -2 0.599620377653D-01 0.100000000000D+01
-.167104387393D-04 0.000000000000D+00 -.342133081835D-05 0.159684232081D-02 0.000000000000D+00  5 21 2 25 23 2 2 0.93826930D-02 0.11061378D+00 0.14605855D+05 0.14605855D+05 0.14605855D+05 0.12491430D+01  1  2  5  3  5  1       -2 -.121545127543D+00 0.100000000000D+01
  </mgrwgt>
  </event>
  <event>
  4     66 0.46888340E-03 0.12256433E+03 0.75467711E-02 0.11149680E+00
       -2 -1    0    0    0  501 0.00000000E+00 0.00000000E+00 0.71267369E+02 0.71268087E+02 0.32000000E+00 0.0000E+00 0.9000E+01
        2 -1    0    0  501    0 0.00000000E+00 0.00000000E+00 -.21784649E+03 0.21784672E+03 0.32000000E+00 0.0000E+00 0.9000E+01
       25  1    1    2    0    0 0.48908071E+02 0.29701845E+02 -.10776088E+03 0.17467572E+03 0.12500000E+03 0.0000E+00 0.9000E+01
       23  1    1    2    0    0 -.48908071E+02 -.29701845E+02 -.38818241E+02 0.11443909E+03 0.91188000E+02 0.0000E+00 0.9000E+01
#aMCatNLO 1  0  0  1  2 0.18671901D+03 0.00000000D+00  -5  5  0 0.00000000D+00 0.00000000D+00 0.00000000D+00 0.00000000D+00 0.00000000D+00
  <mgrwgt>
 0.1612873088D+00    3    2    0
 0.124601299344146D+03 0.000000000000000D+00 0.000000000000000D+00 0.124601299344146D+03
 0.124601299344146D+03 0.000000000000000D+00 0.000000000000000D+00 -.124601299344146D+03
 0.139267576290044D+03 0.489080711834170D+02 0.297018447445738D+02 -.222768668710442D+02
 0.109935022398247D+03 -.489080711834170D+02 -.297018447445738D+02 0.222768668710442D+02
 0.000000000000000D+00 0.000000000000000D+00 -.000000000000000D+00 -.000000000000000D+00
 0.199639618480150D+03 0.000000000000000D+00 0.000000000000000D+00 0.199639618480150D+03
 0.354045198412040D+03 0.000000000000000D+00 0.000000000000000D+00 -.354045198412040D+03
 0.186767655329052D+03 0.226787973466611D+02 0.135079866858205D+03 -.222768668710442D+02
 0.124625864969496D+03 -.677783071257361D+02 0.461107054920474D+02 0.222768668710442D+02
 0.242291296593642D+03 0.450995097790750D+02 -.181190572350253D+03 -.154405579931890D+03
0.189376278089D-03 0.000000000000D+00 0.000000000000D+00 0.156204187634D-02 0.000000000000D+00  5 -2 2 25 23 21 0 0.10964284D-01 0.33514918D-01 0.15022016D+05 0.15022016D+05 0.15022016D+05 0.12477499D+01  1  2  2  1  5  1       -2 0.157985071456D+00 0.100000000000D+01
-.105174289325D-04 0.000000000000D+00 -.727254771782D-06 0.156204187634D-02 0.000000000000D+00  5 -2 2 25 23 21 2 0.10964284D-01 0.33514918D-01 0.15022016D+05 0.15022016D+05 0.15022016D+05 0.12477499D+01  1  2  3  1  5  1       -2 -.136601404886D-01 0.100000000000D+01
0.130599391615D-04 0.000000000000D+00 0.000000000000D+00 0.156204187634D-02 0.000000000000D+00  5 -2 2 25 23 21 2 0.10964284D-01 0.33514918D-01 0.15022016D+05 0.15022016D+05 0.15022016D+05 0.12477499D+01  1  2 15  1  5  1       -2 0.169623778648D-01 0.100000000000D+01
  </mgrwgt>
  </event>
  <event>
  4     66 0.46888340E-03 0.49289195E+02 0.75467711E-02 0.12194665E+00
       -2 -1    0    0    0  501 0.00000000E+00 0.00000000E+00 0.39026892E+02 0.39028204E+02 0.32000000E+00 0.0000E+00 0.9000E+01
        2 -1    0    0  501    0 0.00000000E+00 0.00000000E+00 -.34605365E+03 0.34605379E+03 0.32000000E+00 0.0000E+00 0.9000E+01
       25  1    1    2    0    0 -.39218149E+02 0.14881587E+02 -.16628828E+03 0.21221762E+03 0.12500000E+03 0.0000E+00 0.9000E+01
       23  1    1    2    0    0 0.39218149E+02 -.14881587E+02 -.14073848E+03 0.17286438E+03 0.91188000E+02 0.0000E+00 0.9000E+01
#aMCatNLO 1  0  0  2  1 0.36061057D+02 0.00000000D+00  -5  5  0 0.00000000D+00 0.00000000D+00 0.00000000D+00 0.00000000D+00 0.00000000D+00
  <mgrwgt>
 0.1654525937D+00    9    2    0
 0.116213937885996D+03 0.000000000000000D+00 0.000000000000000D+00 0.116213937885996D+03
 0.116213937885996D+03 0.000000000000000D+00 0.000000000000000D+00 -.116213937885996D+03
 0.131938705476202D+03 -.392181487568805D+02 0.148815871141954D+02 0.482671480221263D+01
 0.100489170295789D+03 0.392181487568805D+02 -.148815871141954D+02 -.482671480221263D+01
 0.000000000000000D+00 -.000000000000000D+00 0.000000000000000D+00 -.000000000000000D+00
 0.129260362466275D+03 0.000000000000000D+00 0.000000000000000D+00 0.129260362466275D+03
 0.145495475878693D+03 0.000000000000000D+00 0.000000000000000D+00 -.145495475878693D+03
 0.128262252606454D+03 -.282696201031428D+02 -.193309263200555D+01 0.482671480221263D+01
 0.106946414862758D+03 0.479464580784462D+02 -.282864683187403D+02 -.482671480221263D+01
 0.395471708757563D+02 -.196768379753034D+02 0.302195609507458D+02 -.162351134124183D+02
0.839194930194D-04 0.000000000000D+00 0.000000000000D+00 0.173845340500D-02 0.000000000000D+00  5 -2 2 25 23 21 0 0.60042495D-02 0.53239135D-01 0.13481947D+05 0.13481947D+05 0.13481947D+05 0.12531400D+01  1  2  2  2  5  2        2 0.108093955670D+00 0.100000000000D+01
-.466218967307D-05 0.000000000000D+00 -.322272949704D-06 0.173845340500D-02 0.000000000000D+00  5 -2 2 25 23 21 2 0.60042495D-02 0.53239135D-01 0.13481947D+05 0.13481947D+05 0.13481947D+05 0.12531400D+01  1  2  3  2  5  2        2 -.943034790711D-02 0.100000000000D+01
0.580315443792D-05 0.000000000000D+00 0.000000000000D+00 0.173845340500D-02 0.000000000000D+00  5 -2 2 25 23 21 2 0.60042495D-02 0.53239135D-01 0.13481947D+05 0.13481947D+05 0.13481947D+05 0.12531400D+01  1  2 15  2  5  2        2 0.117382108292D-01 0.100000000000D+01
0.782341858839D-04 0.000000000000D+00 0.000000000000D+00 0.173845340500D-02 0.000000000000D+00  5 -2 2 25 23 21 2 0.60042495D-02 0.69053643D-01 0.18369722D+05 0.18369722D+05 0.18369722D+05 0.12379123D+01  1  2 12  2  5  2        2 0.118433020794D+00 0.100000000000D+01
-.819503488365D-04 0.000000000000D+00 0.000000000000D+00 0.173845340500D-02 0.000000000000D+00  5 -2 2 25 23 21 2 0.60042495D-02 0.53239135D-01 0.13481947D+05 0.13481947D+05 0.13481947D+05 0.12531400D+01  1  2  4  2  5  2        2 -.165763376188D+00 0.100000000000D+01
-.155318119156D-03 0.000000000000D+00 -.494879804876D-04 0.173845340500D-02 0.000000000000D+00  5 -2 2 25 23 21 2 0.60042495D-02 0.72777558D-01 0.13481947D+05 0.13481947D+05 0.13481947D+05 0.12531400D+01  1  2  5  2  5  2        2 -.225148783703D+00 0.100000000000D+01
0.164984583593D-03 0.000000000000D+00 0.471645164019D-04 0.173845340500D-02 0.000000000000D+00  5 -2 2 25 23 21 2 0.60042495D-02 0.53239135D-01 0.13481947D+05 0.13481947D+05 0.13481947D+05 0.12531400D+01  1  2  6  2  5  2        2 0.333719160244D+00 0.100000000000D+01
0.272588855928D-05 0.000000000000D+00 0.000000000000D+00 0.173845340500D-02 0.000000000000D+00  5 -2 21 25 23 -2 2 0.60042495D-02 0.69053643D-01 0.18369722D+05 0.18369722D+05 0.18369722D+05 0.12379123D+01  1  2 12  4  5  2        2 0.917513186858D-02 0.100000000000D+01
-.500275632167D-05 0.000000000000D+00 -.197068523397D-05 0.173845340500D-02 0.000000000000D+00  5 -2 21 25 23 -2 2 0.60042495D-02 0.72777558D-01 0.13481947D+05 0.13481947D+05 0.13481947D+05 0.12531400D+01  1  2  5  4  5  2        2 -.153643779069D-01 0.100000000000D+01
  </mgrwgt>
  </event>
  <event>
  4     66 0.46888340E-03 0.11089995E+03 0.75467711E-02 0.11768205E+00
       -2 -1    0    0    0  501 0.00000000E+00 0.00000000E+00 0.19531610E+02 0.19534231E+02 0.32000000E+00 0.0000E+00 0.9000E+01
        2 -1    0    0  501    0 0.00000000E+00 0.00000000E+00 -.15169590E+04 0.15169591E+04 0.32000000E+00 0.0000E+00 0.9000E+01
       25  1    1    2    0    0 0.76135690E+02 0.51782814E+02 -.36460256E+03 0.39628036E+03 0.12500000E+03 0.0000E+00 0.9000E+01
       23  1    1    2    0    0 -.76135690E+02 -.51782814E+02 -.11328249E+04 0.11402129E+04 0.91188000E+02 0.0000E+00 0.9000E+01
#aMCatNLO 1  0  0  2  1 0.52060621D+02 0.00000000D+00  -5  5  0 0.00000000D+00 0.00000000D+00 0.00000000D+00 0.00000000D+00 0.00000000D+00
  <mgrwgt>
 0.1988147415D+00    9    2    0
 0.172135677891155D+03 0.000000000000000D+00 0.000000000000000D+00 0.172135677891155D+03
 0.172135677891155D+03 0.000000000000000D+00 0.000000000000000D+00 -.172135677891155D+03
 0.182751938194585D+03 0.761356900618173D+02 0.517828136643968D+02 0.964114506772239D+02
 0.161519417587724D+03 -.761356900618173D+02 -.517828136643968D+02 -.964114506772239D+02
 0.000000000000000D+00 0.000000000000000D+00 -.000000000000000D+00 -.000000000000000D+00
 0.197251729023478D+03 0.000000000000000D+00 0.000000000000000D+00 0.197251729023478D+03
 0.203350279636539D+03 0.000000000000000D+00 0.000000000000000D+00 -.203350279636539D+03
 0.173579842892648D+03 0.493602344716197D+02 0.526627125189755D+02 0.964114506772239D+02
 0.174605559831835D+03 -.101392767547842D+03 -.509528119684371D+02 -.964114506772239D+02
 0.524166059355336D+02 0.520325330762228D+02 -.170990055053847D+01 -.609855061306092D+01
0.200567100393D-03 0.000000000000D+00 0.000000000000D+00 0.895754563640D-03 0.000000000000D+00  5 -2 2 25 23 21 0 0.30050673D-02 0.23337852D+00 0.20283587D+05 0.20283587D+05 0.20283587D+05 0.12331534D+01  1  2  2  2  5  2        2 0.111625062733D+00 0.100000000000D+01
-.106561153179D-04 0.000000000000D+00 -.770230476041D-06 0.895754563640D-03 0.000000000000D+00  5 -2 2 25 23 21 2 0.30050673D-02 0.23337852D+00 0.20283587D+05 0.20283587D+05 0.20283587D+05 0.12331534D+01  1  2  3  2  5  2        2 -.901851772477D-02 0.100000000000D+01
0.137934944493D-04 0.000000000000D+00 0.000000000000D+00 0.895754563640D-03 0.000000000000D+00  5 -2 2 25 23 21 2 0.30050673D-02 0.23337852D+00 0.20283587D+05 0.20283587D+05 0.20283587D+05 0.12331534D+01  1  2 15  2  5  2        2 0.116737545031D-01 0.100000000000D+01
0.131477475819D-03 0.000000000000D+00 0.000000000000D+00 0.895754563640D-03 0.000000000000D+00  5 -2 2 25 23 21 2 0.30050673D-02 0.29003102D+00 0.29237194D+05 0.29237194D+05 0.29237194D+05 0.12160741D+01  1  2 12  2  5  2        2 0.700364717446D-01 0.100000000000D+01
-.133040940588D-03 0.000000000000D+00 0.000000000000D+00 0.895754563640D-03 0.000000000000D+00  5 -2 2 25 23 21 2 0.30050673D-02 0.23337852D+00 0.20283587D+05 0.20283587D+05 0.20283587D+05 0.12331534D+01  1  2  4  2  5  2        2 -.112595635935D+00 0.100000000000D+01
-.335742127792D-03 0.000000000000D+00 -.117711389297D-03 0.895754563640D-03 0.000000000000D+00  5 -2 2 25 23 21 2 0.30050673D-02 0.29701560D+00 0.20283587D+05 0.20283587D+05 0.20283587D+05 0.12331534D+01  1  2  5  2  5  2        2 -.174146531051D+00 0.100000000000D+01
0.357036469074D-03 0.000000000000D+00 0.114370482569D-03 0.895754563640D-03 0.000000000000D+00  5 -2 2 25 23 21 2 0.30050673D-02 0.23337852D+00 0.20283587D+05 0.20283587D+05 0.20283587D+05 0.12331534D+01  1  2  6  2  5  2        2 0.302168250689D+00 0.100000000000D+01
0.400805409996D-05 0.000000000000D+00 0.000000000000D+00 0.895754563640D-03 0.000000000000D+00  5 -2 21 25 23 -2 2 0.30050673D-02 0.29003102D+00 0.29237194D+05 0.29237194D+05 0.29237194D+05 0.12160741D+01  1  2 12  4  5  2        2 0.765925252971D-03 0.100000000000D+01
-.920398520325D-05 0.000000000000D+00 -.387859886436D-05 0.895754563640D-03 0.000000000000D+00  5 -2 21 25 23 -2 2 0.30050673D-02 0.29701560D+00 0.20283587D+05 0.20283587D+05 0.20283587D+05 0.12331534D+01  1  2  5  4  5  2        2 -.169403873092D-02 0.100000000000D+01
  </mgrwgt>
  </event>
  <event>
  4     66 0.46888340E-03 0.13437573E+03 0.75467711E-02 0.11022455E+00
       -2 -1    0    0    0  501 0.00000000E+00 0.00000000E+00 0.46341412E+03 0.46341423E+03 0.32000000E+00 0.0000E+00 0.9000E+01
        2 -1    0    0  501    0 0.00000000E+00 0.00000000E+00 -.41584490E+02 0.41585722E+02 0.32000000E+00 0.0000E+00 0.9000E+01
       25  1    1    2    0    0 -.49027508E+02 -.62192922E+02 0.29399418E+03 0.32913406E+03 0.12500000E+03 0.0000E+00 0.9000E+01
       23  1    1    2    0    0 0.49027508E+02 0.62192922E+02 0.12783545E+03 0.17586589E+03 0.91188000E+02 0.0000E+00 0.9000E+01
#aMCatNLO 1  0  0  2  2 0.20114527D+03 0.00000000D+00  -5  5  0 0.00000000D+00 0.00000000D+00 0.00000000D+00 0.00000000D+00 0.00000000D+00
  <mgrwgt>
 0.1672697325D+00    3    2    0
 0.138820671050586D+03 0.000000000000000D+00 0.000000000000000D+00 0.138820671050586D+03
 0.138820671050586D+03 0.000000000000000D+00 0.000000000000000D+00 -.138820671050586D+03
 0.151984684379222D+03 -.490275083028149D+02 -.621929216621738D+02 0.346797954231528D+02
 0.125656657721951D+03 0.490275083028149D+02 0.621929216621738D+02 -.346797954231528D+02
 0.000000000000000D+00 -.000000000000000D+00 -.000000000000000D+00 0.000000000000000D+00
 0.455847944559282D+03 0.000000000000000D+00 0.000000000000000D+00 0.455847944559282D+03
 0.206986091459362D+03 0.000000000000000D+00 0.000000000000000D+00 -.206986091459362D+03
 0.139736575117420D+03 -.409022931838857D+02 0.320253747402588D+02 0.346797954231528D+02
 0.203110523494302D+03 0.581845511458197D+02 0.168376076707759D+03 -.346797954231528D+02
 0.319986937406922D+03 -.172822579619339D+02 -.200401451448018D+03 0.248861853099920D+03
0.817846279090D-03 0.000000000000D+00 0.000000000000D+00 0.136470163375D-02 0.000000000000D+00  5 -2 2 25 23 21 0 0.71294583D-01 0.63977171D-02 0.18056836D+05 0.18056836D+05 0.18056836D+05 0.12387429D+01  1  2  2  2  5  2        2 0.163881843517D+00 0.100000000000D+01
-.453773984976D-04 0.000000000000D+00 -.314074505558D-05 0.136470163375D-02 0.000000000000D+00  5 -2 2 25 23 21 2 0.71294583D-01 0.63977171D-02 0.18056836D+05 0.18056836D+05 0.18056836D+05 0.12387429D+01  1  2  3  2  5  2        2 -.139527927492D-01 0.100000000000D+01
0.563955216065D-04 0.000000000000D+00 0.000000000000D+00 0.136470163375D-02 0.000000000000D+00  5 -2 2 25 23 21 2 0.71294583D-01 0.63977171D-02 0.18056836D+05 0.18056836D+05 0.18056836D+05 0.12387429D+01  1  2 15  2  5  2        2 0.173406817273D-01 0.100000000000D+01
  </mgrwgt>
  </event>
  <event>
  4     66 0.46888340E-03 0.66956881E+02 0.75467711E-02 0.12248554E+00
       -2 -1    0    0    0  501 0.00000000E+00 0.00000000E+00 0.23451467E+02 0.23453650E+02 0.32000000E+00 0.0000E+00 0.9000E+01
        2 -1    0    0  501    0 0.00000000E+00 0.00000000E+00 -.70944696E+03 0.70944703E+03 0.32000000E+00 0.0000E+00 0.9000E+01
       25  1    1    2    0    0 0.21099548E+02 0.38892886E+02 -.53395188E+03 0.55017039E+03 0.12500000E+03 0.0000E+00 0.9000E+01
       23  1    1    2    0    0 -.21099548E+02 -.38892886E+02 -.15204361E+03 0.18273028E+03 0.91188000E+02 0.0000E+00 0.9000E+01
#aMCatNLO 1  0  0  1  2 0.28112595D+02 0.00000000D+00  -5  5  0 0.00000000D+00 0.00000000D+00 0.00000000D+00 0.00000000D+00 0.00000000D+00
  <mgrwgt>
 0.1379687957D+00    9    2    0
 0.128989914583175D+03 0.000000000000000D+00 0.000000000000000D+00 0.128989914583175D+03
 0.128989914583175D+03 0.000000000000000D+00 0.000000000000000D+00 -.128989914583175D+03
 0.143157201769195D+03 0.210995484938193D+02 0.388928862976151D+02 -.539549522025904D+02
 0.114822627397156D+03 -.210995484938193D+02 -.388928862976151D+02 0.539549522025904D+02
 0.000000000000000D+00 0.000000000000000D+00 -.000000000000000D+00 0.000000000000000D+00
 0.156198232022860D+03 0.000000000000000D+00 0.000000000000000D+00 0.156198232022860D+03
 0.137224946021517D+03 0.000000000000000D+00 0.000000000000000D+00 -.137224946021517D+03
 0.147632920827856D+03 0.176225771777601D+02 0.543027367504991D+02 -.539549522025904D+02
 0.111874131586457D+03 -.238101568232564D+02 -.268795375535392D+02 0.539549522025904D+02
 0.339161256300637D+02 0.618757964549626D+01 -.274231991969599D+02 0.189732860013431D+02
0.980653904671D-04 0.000000000000D+00 0.000000000000D+00 0.133345037453D-02 0.000000000000D+00  5 -2 2 25 23 21 0 0.36080914D-02 0.10914586D+00 0.13683926D+05 0.13683926D+05 0.13683926D+05 0.12523948D+01  1  2  2  1  5  1       -2 0.122632882966D+00 0.100000000000D+01
-.538478949174D-05 0.000000000000D+00 -.376596920604D-06 0.133345037453D-02 0.000000000000D+00  5 -2 2 25 23 21 2 0.36080914D-02 0.10914586D+00 0.13683926D+05 0.13683926D+05 0.13683926D+05 0.12523948D+01  1  2  3  1  5  1       -2 -.105619080812D-01 0.100000000000D+01
0.669819377906D-05 0.000000000000D+00 0.000000000000D+00 0.133345037453D-02 0.000000000000D+00  5 -2 2 25 23 21 2 0.36080914D-02 0.10914586D+00 0.13683926D+05 0.13683926D+05 0.13683926D+05 0.12523948D+01  1  2 15  1  5  1       -2 0.131380636351D-01 0.100000000000D+01
0.114615853061D-03 0.000000000000D+00 0.000000000000D+00 0.133345037453D-02 0.000000000000D+00  5 -2 2 25 23 21 2 0.44664968D-02 0.10914586D+00 0.17362859D+05 0.17362859D+05 0.17362859D+05 0.12406444D+01  1  2 12  1  5  1       -2 0.162055972690D+00 0.100000000000D+01
-.117555226737D-03 0.000000000000D+00 0.000000000000D+00 0.133345037453D-02 0.000000000000D+00  5 -2 2 25 23 21 2 0.36080914D-02 0.10914586D+00 0.13683926D+05 0.13683926D+05 0.13683926D+05 0.12523948D+01  1  2  4  1  5  1       -2 -.230576794349D+00 0.100000000000D+01
-.204762648613D-03 0.000000000000D+00 -.528360034231D-04 0.133345037453D-02 0.000000000000D+00  5 -2 2 25 23 21 2 0.46484528D-02 0.10914586D+00 0.13683926D+05 0.13683926D+05 0.13683926D+05 0.12523948D+01  1  2  5  1  5  1       -2 -.275907055664D+00 0.100000000000D+01
0.212929971015D-03 0.000000000000D+00 0.511844578481D-04 0.133345037453D-02 0.000000000000D+00  5 -2 2 25 23 21 2 0.36080914D-02 0.10914586D+00 0.13683926D+05 0.13683926D+05 0.13683926D+05 0.12523948D+01  1  2  6  1  5  1       -2 0.417648040845D+00 0.100000000000D+01
0.344648384335D-05 0.000000000000D+00 0.000000000000D+00 0.133345037453D-02 0.000000000000D+00  5 21 2 25 23 2 2 0.44664968D-02 0.10914586D+00 0.17362859D+05 0.17362859D+05 0.17362859D+05 0.12406444D+01  1  2 12  3  5  1       -2 0.890684604657D-01 0.100000000000D+01
-.609326553618D-05 0.000000000000D+00 -.180579780988D-05 0.133345037453D-02 0.000000000000D+00  5 21 2 25 23 2 2 0.46484528D-02 0.10914586D+00 0.13683926D+05 0.13683926D+05 0.13683926D+05 0.12523948D+01  1  2  5  3  5  1       -2 -.149528866784D+00 0.100000000000D+01
  </mgrwgt>
  </event>
  <event>
  4     66 0.46888340E-03 0.20175843E+03 0.75467711E-02 0.94652858E-01
       -2 -1    0    0    0  501 0.00000000E+00 0.00000000E+00 0.59799194E+02 0.59800050E+02 0.32000000E+00 0.0000E+00 0.9000E+01
        2 -1    0    0  501    0 0.00000000E+00 0.00000000E+00 -.68836507E+03 0.68836515E+03 0.32000000E+00 0.0000E+00 0.9000E+01
       25  1    1    2    0    0 -.38884615E+02 -.16524637E+03 -.36763557E+03 0.42379157E+03 0.12500000E+03 0.0000E+00 0.9000E+01
       23  1    1    2    0    0 0.38884615E+02 0.16524637E+03 -.26093030E+03 0.32437363E+03 0.91188000E+02 0.0000E+00 0.9000E+01
#aMCatNLO 1  0  0  1  2 0.82261914D+03 0.00000000D+00  -5  5  0 0.00000000D+00 0.00000000D+00 0.00000000D+00 0.00000000D+00 0.00000000D+00
  <mgrwgt>
 0.1875696238D+00    5    2    0
 0.202889192920655D+03 0.000000000000000D+00 0.000000000000000D+00 0.202889192920655D+03
 0.202889192920655D+03 0.000000000000000D+00 0.000000000000000D+00 -.202889192920655D+03
 0.211896262926176D+03 -.388846146856267D+02 -.165246372384817D+03 -.213693564827785D+02
 0.193882122915134D+03 0.388846146856267D+02 0.165246372384817D+03 0.213693564827785D+02
 0.000000000000000D+00 0.000000000000000D+00 0.000000000000000D+00 0.000000000000000D+00
 0.122666550500506D+04 0.000000000000000D+00 0.000000000000000D+00 0.122666550500506D+04
 0.678897850434627D+03 0.000000000000000D+00 0.000000000000000D+00 -.678897850434627D+03
 0.785106246801484D+03 -.440915960398839D+03 -.637105395704506D+03 -.213693564827785D+02
 0.132149636252148D+03 -.925844494384672D+02 0.109428215402991D+02 0.213693564827785D+02
 0.988307472386055D+03 0.533500409837306D+03 0.626162574164207D+03 0.547767654570433D+03
0.544823026777D-03 0.000000000000D+00 0.000000000000D+00 0.111929365926D-02 0.000000000000D+00  5 -2 2 25 23 21 0 0.91999476D-02 0.10590239D+00 0.40706463D+05 0.40706463D+05 0.40706463D+05 0.12012289D+01  1  2  2  1  5  1       -2 0.174953708558D+00 0.100000000000D+01
-.302667964099D-04 0.000000000000D+00 -.209226387802D-05 0.111929365926D-02 0.000000000000D+00  5 -2 2 25 23 21 2 0.91999476D-02 0.10590239D+00 0.40706463D+05 0.40706463D+05 0.40706463D+05 0.12012289D+01  1  2  3  1  5  1       -2 -.140244456056D-01 0.100000000000D+01
0.373486360475D-04 0.000000000000D+00 0.000000000000D+00 0.111929365926D-02 0.000000000000D+00  5 -2 2 25 23 21 2 0.91999476D-02 0.10590239D+00 0.40706463D+05 0.40706463D+05 0.40706463D+05 0.12012289D+01  1  2 15  1  5  1       -2 0.173058921597D-01 0.100000000000D+01
0.189092629827D-02 0.000000000000D+00 -.636470113469D-03 0.111929365926D-02 0.000000000000D+00  5 -2 2 25 23 21 2 0.17482581D+00 0.10590239D+00 0.40706463D+05 0.40706463D+05 0.40706463D+05 0.12012289D+01  1  2  5  1  5  1       -2 0.256547914038D-02 0.100000000000D+01
0.443911628542D-03 0.000000000000D+00 -.203008402049D-03 0.111929365926D-02 0.000000000000D+00  5 21 2 25 23 2 2 0.17482581D+00 0.10590239D+00 0.40706463D+05 0.40706463D+05 0.40706463D+05 0.12012289D+01  1  2  5  3  5  1       -2 0.676898956162D-02 0.100000000000D+01
  </mgrwgt>
  </event>
  <event>
  4     66 0.46888340E-03 0.73369083E+02 0.75467711E-02 0.11800285E+00
       -2 -1    0    0    0  501 0.00000000E+00 0.00000000E+00 0.23311631E+03 0.23311653E+03 0.32000000E+00 0.0000E+00 0.9000E+01
        2 -1    0    0  501    0 0.00000000E+00 0.00000000E+00 -.10887424E+03 0.10887471E+03 0.32000000E+00 0.0000E+00 0.9000E+01
       25  1    1    2    0    0 0.85899074E+02 -.72141130E+02 0.33356205E+02 0.17123268E+03 0.12500000E+03 0.0000E+00 0.9000E+01
       23  1    1    2    0    0 -.85899074E+02 0.72141130E+02 0.90885864E+02 0.17075856E+03 0.91188000E+02 0.0000E+00 0.9000E+01
#aMCatNLO 1  0  0  2  1 0.22581951D+02 0.00000000D+00  -5  5  0 0.00000000D+00 0.00000000D+00 0.00000000D+00 0.00000000D+00 0.00000000D+00
  <mgrwgt>
 0.1521870322D+00    9    2    0
 0.159312518595420D+03 0.000000000000000D+00 0.000000000000000D+00 0.159312518595420D+03
 0.159312518595420D+03 0.000000000000000D+00 0.000000000000000D+00 -.159312518595420D+03
 0.170783287999554D+03 0.858990742663221D+02 -.721411304974316D+02 -.309667206962600D+02
 0.147841749191285D+03 -.858990742663221D+02 0.721411304974316D+02 0.309667206962600D+02
 0.000000000000000D+00 -.000000000000000D+00 0.000000000000000D+00 -.000000000000000D+00
 0.166010775429315D+03 0.000000000000000D+00 0.000000000000000D+00 0.166010775429315D+03
 0.179952378819898D+03 0.000000000000000D+00 0.000000000000000D+00 -.179952378819898D+03
 0.178913474511091D+03 0.931067874137919D+02 -.822023096295580D+02 -.309667206962600D+02
 0.140510787008126D+03 -.799557468207113D+02 0.638448954992111D+02 0.309667206962600D+02
 0.265388927299958D+02 -.131510405930807D+02 0.183574141303469D+02 -.139416033905827D+02
0.436869594737D-03 0.000000000000D+00 0.000000000000D+00 0.124806091739D-02 0.000000000000D+00  5 -2 2 25 23 21 0 0.35864100D-01 0.16749936D-01 0.24416345D+05 0.24416345D+05 0.24416345D+05 0.12243991D+01  1  2  2  2  5  2        2 0.106590322713D+00 0.100000000000D+01
-.242594683218D-04 0.000000000000D+00 -.167769427420D-05 0.124806091739D-02 0.000000000000D+00  5 -2 2 25 23 21 2 0.35864100D-01 0.16749936D-01 0.24416345D+05 0.24416345D+05 0.24416345D+05 0.12243991D+01  1  2  3  2  5  2        2 -.887346502450D-02 0.100000000000D+01
0.301268065965D-04 0.000000000000D+00 0.000000000000D+00 0.124806091739D-02 0.000000000000D+00  5 -2 2 25 23 21 2 0.35864100D-01 0.16749936D-01 0.24416345D+05 0.24416345D+05 0.24416345D+05 0.12243991D+01  1  2 15  2  5  2        2 0.110195805237D-01 0.100000000000D+01
0.103284121019D-02 0.000000000000D+00 0.000000000000D+00 0.124806091739D-02 0.000000000000D+00  5 -2 2 25 23 21 2 0.35864100D-01 0.19239530D-01 0.28198998D+05 0.28198998D+05 0.28198998D+05 0.12177305D+01  1  2 12  2  5  2        2 0.319579560449D+00 0.100000000000D+01
-.102515736960D-02 0.000000000000D+00 0.000000000000D+00 0.124806091739D-02 0.000000000000D+00  5 -2 2 25 23 21 2 0.35864100D-01 0.16749936D-01 0.24416345D+05 0.24416345D+05 0.24416345D+05 0.12243991D+01  1  2  4  2  5  2        2 -.374975161989D+00 0.100000000000D+01
-.229452235954D-02 0.000000000000D+00 -.468433527629D-03 0.124806091739D-02 0.000000000000D+00  5 -2 2 25 23 21 2 0.35864100D-01 0.19660014D-01 0.24416345D+05 0.24416345D+05 0.24416345D+05 0.12243991D+01  1  2  5  2  5  2        2 -.698204215298D+00 0.100000000000D+01
0.234535147511D-02 0.000000000000D+00 0.462486752260D-03 0.124806091739D-02 0.000000000000D+00  5 -2 2 25 23 21 2 0.35864100D-01 0.16749936D-01 0.24416345D+05 0.24416345D+05 0.24416345D+05 0.12243991D+01  1  2  6  2  5  2        2 0.857866875252D+00 0.100000000000D+01
0.220862016521D-04 0.000000000000D+00 0.000000000000D+00 0.124806091739D-02 0.000000000000D+00  5 -2 21 25 23 -2 2 0.35864100D-01 0.19239530D-01 0.28198998D+05 0.28198998D+05 0.28198998D+05 0.12177305D+01  1  2 12  4  5  2        2 0.480440266882D-01 0.100000000000D+01
-.515267158339D-04 0.000000000000D+00 -.112658941092D-04 0.124806091739D-02 0.000000000000D+00  5 -2 21 25 23 -2 2 0.35864100D-01 0.19660014D-01 0.24416345D+05 0.24416345D+05 0.24416345D+05 0.12243991D+01  1  2  5  4  5  2        2 -.108860491103D+00 0.100000000000D+01
  </mgrwgt>
  </event>
  <event>
  4     66 0.46888340E-03 0.15930089E+03 0.75467711E-02 0.11227427E+00
       -2 -1    0    0    0  501 0.00000000E+00 0.00000000E+00 0.17171608E+02 0.17174589E+02 0.32000000E+00 0.0000E+00 0.9000E+01
        2 -1    0    0  501    0 0.00000000E+00 0.00000000E+00 -.16369569E+04 0.16369570E+04 0.32000000E+00 0.0000E+00 0.9000E+01
       25  1    1    2    0    0 0.59331231E+02 -.10009022E+03 -.60517645E+03 0.62880981E+03 0.12500000E+03 0.0000E+00 0.9000E+01
       23  1    1    2    0    0 -.59331231E+02 0.10009022E+03 -.10146089E+04 0.10253218E+04 0.91188000E+02 0.0000E+00 0.9000E+01
#aMCatNLO 1  0  0  2  1 0.12787005D+03 0.00000000D+00  -5  5  0 0.00000000D+00 0.00000000D+00 0.00000000D+00 0.00000000D+00 0.00000000D+00
  <mgrwgt>
 0.2826437530D+00    6    2    0
 0.167665363780336D+03 0.000000000000000D+00 0.000000000000000D+00 0.167665363780336D+03
 0.167665363780336D+03 0.000000000000000D+00 0.000000000000000D+00 -.167665363780336D+03
 0.178564676093845D+03 0.593312313525734D+02 -.100090220149131D+03 0.521737133543867D+02
 0.156766051466827D+03 -.593312313525734D+02 0.100090220149131D+03 -.521737133543867D+02
 0.000000000000000D+00 0.000000000000000D+00 0.000000000000000D+00 -.000000000000000D+00
 0.242426016321454D+03 0.000000000000000D+00 0.000000000000000D+00 0.242426016321454D+03
 0.244342004637305D+03 0.000000000000000D+00 0.000000000000000D+00 -.244342004637305D+03
 0.180691820994818D+03 -.392224247726497D+01 -.119528464489372D+03 0.521737133543867D+02
 0.178191791958108D+03 -.118306496531840D+03 0.819666998873179D+02 -.521737133543867D+02
 0.127884408005833D+03 0.122228739009105D+03 0.375617646020544D+02 -.191598831585147D+01
0.284625589464D-03 0.000000000000D+00 0.000000000000D+00 0.114373939883D-02 0.000000000000D+00  5 -2 2 25 23 21 0 0.26420175D-02 0.25183976D+00 0.25376775D+05 0.25376775D+05 0.25376775D+05 0.12226018D+01  1  2  2  2  5  2        2 0.166301992634D+00 0.100000000000D+01
-.157621823008D-04 0.000000000000D+00 -.109303720718D-05 0.114373939883D-02 0.000000000000D+00  5 -2 2 25 23 21 2 0.26420175D-02 0.25183976D+00 0.25376775D+05 0.25376775D+05 0.25376775D+05 0.12226018D+01  1  2  3  2  5  2        2 -.137660672919D-01 0.100000000000D+01
0.195909288307D-04 0.000000000000D+00 0.000000000000D+00 0.114373939883D-02 0.000000000000D+00  5 -2 2 25 23 21 2 0.26420175D-02 0.25183976D+00 0.25376775D+05 0.25376775D+05 0.25376775D+05 0.12226018D+01  1  2 15  2  5  2        2 0.171099432457D-01 0.100000000000D+01
-.118356110144D-03 0.000000000000D+00 -.930506307513D-04 0.114373939883D-02 0.000000000000D+00  5 -2 2 25 23 21 2 0.26420175D-02 0.43441331D+00 0.25376775D+05 0.25376775D+05 0.25376775D+05 0.12226018D+01  1  2  5  2  5  2        2 -.243941236538D-01 0.100000000000D+01
0.157409134849D-03 0.000000000000D+00 0.807491779233D-04 0.114373939883D-02 0.000000000000D+00  5 -2 2 25 23 21 2 0.26420175D-02 0.25183976D+00 0.25376775D+05 0.25376775D+05 0.25376775D+05 0.12226018D+01  1  2  6  2  5  2        2 0.137474919484D+00 0.100000000000D+01
-.255349665103D-05 0.000000000000D+00 -.562763914890D-05 0.114373939883D-02 0.000000000000D+00  5 -2 21 25 23 -2 2 0.26420175D-02 0.43441331D+00 0.25376775D+05 0.25376775D+05 0.25376775D+05 0.12226018D+01  1  2  5  4  5  2        2 -.829114662234D-04 0.100000000000D+01
  </mgrwgt>
  </event>
  <event>
  4     66 0.46888340E-03 0.67038450E+02 0.75467711E-02 0.12119046E+00
       -2 -1    0    0    0  501 0.00000000E+00 0.00000000E+00 0.24350742E+03 0.24350764E+03 0.32000000E+00 0.0000E+00 0.9000E+01
        2 -1    0    0  501    0 0.00000000E+00 0.00000000E+00 -.56190299E+02 0.56191210E+02 0.32000000E+00 0.0000E+00 0.9000E+01
       25  1    1    2    0    0 -.44234366E+02 -.85011859E-01 0.10562947E+03 0.16952661E+03 0.12500000E+03 0.0000E+00 0.9000E+01
       23  1    1    2    0    0 0.44234366E+02 0.85011859E-01 0.81687657E+02 0.13017224E+03 0.91188000E+02 0.0000E+00 0.9000E+01
#aMCatNLO 1  0  0  2  1 0.44066972D+02 0.00000000D+00  -5  5  0 0.00000000D+00 0.00000000D+00 0.00000000D+00 0.00000000D+00 0.00000000D+00
  <mgrwgt>
 0.1462829748D+00    9    2    0
 0.116974026923062D+03 0.000000000000000D+00 0.000000000000000D+00 0.116974026923062D+03
 0.116974026923062D+03 0.000000000000000D+00 0.000000000000000D+00 -.116974026923062D+03
 0.132596616074430D+03 -.442343661637381D+02 -.850118590082178D-01 -.419782641265329D+00
 0.101351437771695D+03 0.442343661637381D+02 0.850118590082178D-01 0.419782641265329D+00
 0.000000000000000D+00 -.000000000000000D+00 -.000000000000000D+00 -.000000000000000D+00
 0.135631299108956D+03 0.000000000000000D+00 0.000000000000000D+00 0.135631299108956D+03
 0.148276140046956D+03 0.000000000000000D+00 0.000000000000000D+00 -.148276140046956D+03
 0.129756233356653D+03 -.290670282329895D+02 0.191471080621329D+02 -.419782641265329D+00
 0.108305922228281D+03 0.563552332924314D+02 0.154542197735141D+02 0.419782641265329D+00
 0.458452835709781D+02 -.272882050594420D+02 -.346013278356470D+02 -.126448409380001D+02
0.207695002481D-03 0.000000000000D+00 0.000000000000D+00 0.172618674173D-02 0.000000000000D+00  5 -2 2 25 23 21 0 0.37462767D-01 0.86447476D-02 0.13682744D+05 0.13682744D+05 0.13682744D+05 0.12523991D+01  1  2  2  2  5  2        2 0.101590200679D+00 0.100000000000D+01
-.115386112484D-04 0.000000000000D+00 -.797603496878D-06 0.172618674173D-02 0.000000000000D+00  5 -2 2 25 23 21 2 0.37462767D-01 0.86447476D-02 0.13682744D+05 0.13682744D+05 0.13682744D+05 0.12523991D+01  1  2  3  2  5  2        2 -.885247667098D-02 0.100000000000D+01
0.143391692013D-04 0.000000000000D+00 0.000000000000D+00 0.172618674173D-02 0.000000000000D+00  5 -2 2 25 23 21 2 0.37462767D-01 0.86447476D-02 0.13682744D+05 0.13682744D+05 0.13682744D+05 0.12523991D+01  1  2 15  2  5  2        2 0.110010778683D-01 0.100000000000D+01
0.133318716388D-03 0.000000000000D+00 0.000000000000D+00 0.172618674173D-02 0.000000000000D+00  5 -2 2 25 23 21 2 0.37462767D-01 0.11496994D-01 0.19899001D+05 0.19899001D+05 0.19899001D+05 0.12340682D+01  1  2 12  2  5  2        2 0.709269655100D-01 0.100000000000D+01
-.147056091690D-03 0.000000000000D+00 0.000000000000D+00 0.172618674173D-02 0.000000000000D+00  5 -2 2 25 23 21 2 0.37462767D-01 0.86447476D-02 0.13682744D+05 0.13682744D+05 0.13682744D+05 0.12523991D+01  1  2  4  2  5  2        2 -.112822123303D+00 0.100000000000D+01
-.273206484432D-03 0.000000000000D+00 -.111088684340D-03 0.172618674173D-02 0.000000000000D+00  5 -2 2 25 23 21 2 0.37462767D-01 0.12659608D-01 0.13682744D+05 0.13682744D+05 0.13682744D+05 0.12523991D+01  1  2  5  2  5  2        2 -.131850157170D+00 0.100000000000D+01
0.301033398152D-03 0.000000000000D+00 0.103468811027D-03 0.172618674173D-02 0.000000000000D+00  5 -2 2 25 23 21 2 0.37462767D-01 0.86447476D-02 0.13682744D+05 0.13682744D+05 0.13682744D+05 0.12523991D+01  1  2  6  2  5  2        2 0.230954235043D+00 0.100000000000D+01
0.496729312852D-05 0.000000000000D+00 0.000000000000D+00 0.172618674173D-02 0.000000000000D+00  5 -2 21 25 23 -2 2 0.37462767D-01 0.11496994D-01 0.19899001D+05 0.19899001D+05 0.19899001D+05 0.12340682D+01  1  2 12  4  5  2        2 0.259115715860D-01 0.100000000000D+01
-.900926216156D-05 0.000000000000D+00 -.510760049172D-05 0.172618674173D-02 0.000000000000D+00  5 -2 21 25 23 -2 2 0.37462767D-01 0.12659608D-01 0.13682744D+05 0.13682744D+05 0.13682744D+05 0.12523991D+01  1  2  5  4  5  2        2 -.405763187242D-01 0.100000000000D+01
  </mgrwgt>
  </event>
  <event>
  4     66 0.46888340E-03 0.37620075E+02 0.75467711E-02 0.12280882E+00
       -2 -1    0    0    0  501 0.00000000E+00 0.00000000E+00 0.52711060E+01 0.52808104E+01 0.32000000E+00 0.0000E+00 0.9000E+01
        2 -1    0    0  501    0 0.00000000E+00 0.00000000E+00 -.28080875E+04 0.28080876E+04 0.32000000E+00 0.0000E+00 0.9000E+01
       25  1    1    2    0    0 -.51833802E+02 -.17720510E+02 -.16709094E+04 0.16764737E+04 0.12500000E+03 0.0000E+00 0.9000E+01
       23  1    1    2    0    0 0.51833802E+02 0.17720510E+02 -.11319070E+04 0.11368947E+04 0.91188000E+02 0.0000E+00 0.9000E+01
#aMCatNLO 1  0  0  2  1 0.15783257D+02 0.00000000D+00  -5  5  0 0.00000000D+00 0.00000000D+00 0.00000000D+00 0.00000000D+00 0.00000000D+00
  <mgrwgt>
 0.3283138649D+00    9    2    0
 0.121718542533786D+03 0.000000000000000D+00 0.000000000000000D+00 0.121718542533786D+03
 0.121718542533786D+03 0.000000000000000D+00 0.000000000000000D+00 -.121718542533786D+03
 0.136732172552341D+03 -.518338022202752D+02 -.177205099185141D+02 -.836226563202109D+01
 0.106704912515232D+03 0.518338022202752D+02 0.177205099185141D+02 0.836226563202109D+01
 0.000000000000000D+00 0.000000000000000D+00 -.000000000000000D+00 -.000000000000000D+00
 0.125492299917704D+03 0.000000000000000D+00 0.000000000000000D+00 0.125492299917704D+03
 0.139675717250078D+03 0.000000000000000D+00 0.000000000000000D+00 -.139675717250078D+03
 0.136399342583744D+03 -.531903131958009D+02 -.898018668568850D+01 -.836226563202109D+01
 0.107548860086952D+03 0.507697082656180D+02 0.245767206544388D+02 0.836226563202109D+01
 0.212198144970851D+02 0.242060493018294D+01 -.155965339687503D+02 -.141834173323743D+02
0.177103387667D-03 0.000000000000D+00 0.000000000000D+00 0.163861105787D-02 0.000000000000D+00  5 -2 2 25 23 21 0 0.81168727D-03 0.43201421D+00 0.14744390D+05 0.14744390D+05 0.14744390D+05 0.12486744D+01  1  2  2  2  5  2        2 0.137315994168D+00 0.100000000000D+01
-.983900805086D-05 0.000000000000D+00 -.680123641036D-06 0.163861105787D-02 0.000000000000D+00  5 -2 2 25 23 21 2 0.81168727D-03 0.43201421D+00 0.14744390D+05 0.14744390D+05 0.14744390D+05 0.12486744D+01  1  2  3  2  5  2        2 -.118944394192D-01 0.100000000000D+01
0.122136389563D-04 0.000000000000D+00 0.000000000000D+00 0.163861105787D-02 0.000000000000D+00  5 -2 2 25 23 21 2 0.81168727D-03 0.43201421D+00 0.14744390D+05 0.14744390D+05 0.14744390D+05 0.12486744D+01  1  2 15  2  5  2        2 0.147651458260D-01 0.100000000000D+01
0.356957879587D-03 0.000000000000D+00 0.000000000000D+00 0.163861105787D-02 0.000000000000D+00  5 -2 2 25 23 21 2 0.81168727D-03 0.50177452D+00 0.16789589D+05 0.16789589D+05 0.16789589D+05 0.12422806D+01  1  2 12  2  5  2        2 0.232724751556D+00 0.100000000000D+01
-.361189064032D-03 0.000000000000D+00 0.000000000000D+00 0.163861105787D-02 0.000000000000D+00  5 -2 2 25 23 21 2 0.81168727D-03 0.43201421D+00 0.14744390D+05 0.14744390D+05 0.14744390D+05 0.12486744D+01  1  2  4  2  5  2        2 -.436643757054D+00 0.100000000000D+01
-.705794645823D-03 0.000000000000D+00 -.119555003570D-03 0.163861105787D-02 0.000000000000D+00  5 -2 2 25 23 21 2 0.81168727D-03 0.49973630D+00 0.14744390D+05 0.14744390D+05 0.14744390D+05 0.12486744D+01  1  2  5  2  5  2        2 -.474030051562D+00 0.100000000000D+01
0.716846924755D-03 0.000000000000D+00 0.118298479154D-03 0.163861105787D-02 0.000000000000D+00  5 -2 2 25 23 21 2 0.81168727D-03 0.43201421D+00 0.14744390D+05 0.14744390D+05 0.14744390D+05 0.12486744D+01  1  2  6  2  5  2        2 0.866600807243D+00 0.100000000000D+01
0.812903014596D-05 0.000000000000D+00 0.000000000000D+00 0.163861105787D-02 0.000000000000D+00  5 -2 21 25 23 -2 2 0.81168727D-03 0.50177452D+00 0.16789589D+05 0.16789589D+05 0.16789589D+05 0.12422806D+01  1  2 12  4  5  2        2 0.553724863873D-03 0.100000000000D+01
-.149306966042D-04 0.000000000000D+00 -.266238024329D-05 0.163861105787D-02 0.000000000000D+00  5 -2 21 25 23 -2 2 0.81168727D-03 0.49973630D+00 0.14744390D+05 0.14744390D+05 0.14744390D+05 0.12486744D+01  1  2  5  4  5  2        2 -.107831068099D-02 0.100000000000D+01
  </mgrwgt>
  </event>
  <event>
  4     66 0.46888340E-03 0.58522066E+02 0.75467711E-02 0.12368007E+00
       -2 -1    0    0    0  501 0.00000000E+00 0.00000000E+00 0.14043637E+03 0.14043674E+03 0.32000000E+00 0.0000E+00 0.9000E+01
        2 -1    0    0  501    0 0.00000000E+00 0.00000000E+00 -.96591030E+02 0.96591560E+02 0.32000000E+00 0.0000E+00 0.9000E+01
       25  1    1    2    0    0 0.33883087E+01 -.33977321E+02 0.51315424E+02 0.13937077E+03 0.12500000E+03 0.0000E+00 0.9000E+01
       23  1    1    2    0    0 -.33883087E+01 0.33977321E+02 -.74700813E+01 0.97657526E+02 0.91188000E+02 0.0000E+00 0.9000E+01
#aMCatNLO 1  0  0  2  1 0.19987374D+02 0.00000000D+00  -5  5  0 0.00000000D+00 0.00000000D+00 0.00000000D+00 0.00000000D+00 0.00000000D+00
  <mgrwgt>
 0.1093743979D+00    7    2    0
 0.116468879441704D+03 0.000000000000000D+00 0.000000000000000D+00 0.116468879441704D+03
 0.116468879441704D+03 0.000000000000000D+00 0.000000000000000D+00 -.116468879441704D+03
 0.132159226706655D+03 0.338830870892683D+01 -.339773211734540D+02 0.259831140102559D+02
 0.100778532176754D+03 -.338830870892683D+01 0.339773211734540D+02 -.259831140102559D+02
 0.000000000000000D+00 0.000000000000000D+00 0.000000000000000D+00 -.000000000000000D+00
 0.117576232210760D+03 0.000000000000000D+00 0.000000000000000D+00 0.117576232210760D+03
 0.263903720431655D+03 0.000000000000000D+00 0.000000000000000D+00 -.263903720431655D+03
 0.133925204190962D+03 -.631624111878205D+01 -.399492578410450D+02 0.259831140102559D+02
 0.998684968110020D+02 -.107062456660976D+02 0.294740462331918D+02 -.259831140102559D+02
 0.147686251640452D+03 0.170224867848797D+02 0.104752116078532D+02 -.146327488220895D+03
0.152977893617D-03 0.000000000000D+00 0.000000000000D+00 0.167232182545D-02 0.000000000000D+00  5 -2 2 25 23 21 0 0.21605665D-01 0.14860227D-01 0.12876719D+05 0.12876719D+05 0.12876719D+05 0.12554508D+01  1  2  2  2  5  2        2 0.103500435261D+00 0.100000000000D+01
-.849176721666D-05 0.000000000000D+00 -.587475391493D-06 0.167232182545D-02 0.000000000000D+00  5 -2 2 25 23 21 2 0.21605665D-01 0.14860227D-01 0.12876719D+05 0.12876719D+05 0.12876719D+05 0.12554508D+01  1  2  3  2  5  2        2 -.905546924443D-02 0.100000000000D+01
0.105752123604D-04 0.000000000000D+00 0.000000000000D+00 0.167232182545D-02 0.000000000000D+00  5 -2 2 25 23 21 2 0.21605665D-01 0.14860227D-01 0.12876719D+05 0.12876719D+05 0.12876719D+05 0.12554508D+01  1  2 15  2  5  2        2 0.112772180206D-01 0.100000000000D+01
0.280626102485D-02 0.000000000000D+00 0.000000000000D+00 0.167232182545D-02 0.000000000000D+00  5 -2 2 25 23 21 2 0.21605665D-01 0.33646037D-01 0.15350851D+05 0.15350851D+05 0.15350851D+05 0.12466794D+01  1  2 12  2  5  2        2 0.119406378447D+01 0.100000000000D+01
-.279379436536D-02 0.000000000000D+00 -.581672270123D-04 0.167232182545D-02 0.000000000000D+00  5 -2 2 25 23 21 2 0.21605665D-01 0.33802118D-01 0.12876719D+05 0.12876719D+05 0.12876719D+05 0.12554508D+01  1  2  5  2  5  2        2 -.119446994299D+01 0.100000000000D+01
0.249175416845D-03 0.000000000000D+00 0.000000000000D+00 0.167232182545D-02 0.000000000000D+00  5 -2 21 25 23 -2 2 0.21605665D-01 0.33646037D-01 0.15350851D+05 0.15350851D+05 0.15350851D+05 0.12466794D+01  1  2 12  4  5  2        2 0.483659073465D+00 0.100000000000D+01
-.245908192567D-03 0.000000000000D+00 -.519645598791D-05 0.167232182545D-02 0.000000000000D+00  5 -2 21 25 23 -2 2 0.21605665D-01 0.33802118D-01 0.12876719D+05 0.12876719D+05 0.12876719D+05 0.12554508D+01  1  2  5  4  5  2        2 -.479600701082D+00 0.100000000000D+01
  </mgrwgt>
  </event>
  <event>
  5     66 -.46888340E-03 0.11366589E+03 0.75467711E-02 0.12408325E+00
       -2 -1    0    0    0  502 0.00000000E+00 0.00000000E+00 0.40453939E+01 0.40580305E+01 0.32000000E+00 0.0000E+00 0.9000E+01
        2 -1    0    0  501    0 0.00000000E+00 0.00000000E+00 -.36725556E+04 0.36725556E+04 0.32000000E+00 0.0000E+00 0.9000E+01
       25  1    1    2    0    0 -.27977070E+02 -.91277624E+01 -.17817778E+04 0.17863995E+04 0.12500000E+03 0.0000E+00 0.9000E+01
       23  1    1    2    0    0 0.31801909E+02 0.23569794E+02 -.16830014E+04 0.16859347E+04 0.91188000E+02 0.0000E+00 0.9000E+01
       21  1    1    2  501  502 -.38248387E+01 -.14442032E+02 -.20373105E+03 0.20427948E+03 0.75000000E+00 0.0000E+00 0.9000E+01
#aMCatNLO 2  0  0  1  2 0.14939936D+02 0.00000000D+00  -5  5  0 0.00000000D+00 0.00000000D+00 0.00000000D+00 0.00000000D+00 0.00000000D+00
  <mgrwgt>
 -.7742108979D-01    2    2    0
 0.114222112525022D+03 0.000000000000000D+00 0.000000000000000D+00 0.114222112525022D+03
 0.114222112525022D+03 0.000000000000000D+00 0.000000000000000D+00 -.114222112525022D+03
 0.130221091388241D+03 -.301439886689997D+02 -.173097291397281D+02 0.111465629939037D+02
 0.982231336618039D+02 0.301439886689997D+02 0.173097291397281D+02 -.111465629939037D+02
 0.000000000000000D+00 -.000000000000000D+00 -.000000000000000D+00 0.000000000000000D+00
 0.122765928155879D+03 0.000000000000000D+00 0.000000000000000D+00 0.122765928155879D+03
 0.121189207907222D+03 0.000000000000000D+00 0.000000000000000D+00 -.121189207907222D+03
 0.128900265251389D+03 -.279770704019252D+02 -.912776243266213D+01 0.111465629939037D+02
 0.100031964104601D+03 0.318019091062107D+02 0.235697944252259D+02 -.111465629939037D+02
 0.150229067071111D+02 -.382483870428550D+01 -.144420319925638D+02 0.157672024865720D+01
-.304561884010D-03 0.000000000000D+00 0.000000000000D+00 0.176822770800D-02 0.000000000000D+00  5 -2 2 25 23 21 2 0.63979714D-03 0.53248659D+00 0.14733874D+05 0.14733874D+05 0.14733874D+05 0.12487098D+01  1  2 13  1  5  1       -2 -.211389884943D+00 0.100000000000D+01
0.255904650185D-03 0.000000000000D+00 0.000000000000D+00 0.176822770800D-02 0.661594686848D-04  5 -2 2 25 23 21 2 0.62329357D-03 0.56496616D+00 0.14733874D+05 0.14733874D+05 0.14733874D+05 0.12487098D+01  1  2  1  1  5  1       -2 0.133968795150D+00 0.100000000000D+01
  </mgrwgt>
  </event>
  <event>
  4     66 0.46888340E-03 0.10861512E+03 0.75467711E-02 0.12257941E+00
       -2 -1    0    0    0  501 0.00000000E+00 0.00000000E+00 0.37701369E+02 0.37702727E+02 0.32000000E+00 0.0000E+00 0.9000E+01
        2 -1    0    0  501    0 0.00000000E+00 0.00000000E+00 -.32240013E+03 0.32240029E+03 0.32000000E+00 0.0000E+00 0.9000E+01
       25  1    1    2    0    0 0.93796650E+01 0.47136286E+01 -.13321444E+03 0.18297891E+03 0.12500000E+03 0.0000E+00 0.9000E+01
       23  1    1    2    0    0 -.93796650E+01 -.47136286E+01 -.15148433E+03 0.17712411E+03 0.91188000E+02 0.0000E+00 0.9000E+01
#aMCatNLO 1  0  0  1  2 0.41161472D+02 0.00000000D+00  -5  5  0 0.00000000D+00 0.00000000D+00 0.00000000D+00 0.00000000D+00 0.00000000D+00
  <mgrwgt>
 0.1630982386D+00    4    2    0
 0.110250621673137D+03 0.000000000000000D+00 0.000000000000000D+00 0.110250621673137D+03
 0.110250621673137D+03 0.000000000000000D+00 0.000000000000000D+00 -.110250621673137D+03
 0.126825921986798D+03 0.937966496896031D+01 0.471362857931538D+01 0.186980768660197D+02
 0.936753213594769D+02 -.937966496896031D+01 -.471362857931538D+01 -.186980768660197D+02
 0.000000000000000D+00 -.000000000000000D+00 0.000000000000000D+00 -.000000000000000D+00
 0.122395229543652D+03 0.000000000000000D+00 0.000000000000000D+00 0.122395229543652D+03
 0.153518507418860D+03 0.000000000000000D+00 0.000000000000000D+00 -.153518507418860D+03
 0.129511916252137D+03 0.250412130558017D+02 -.131017564283160D+02 0.186980768660197D+02
 0.947982821070545D+02 0.213556206139314D+01 -.178124743548740D+02 -.186980768660197D+02
 0.516035386033198D+02 -.271767751171948D+02 0.309142307831900D+02 -.311232778752079D+02
0.139002458857D-03 0.000000000000D+00 0.000000000000D+00 0.183164637959D-02 0.000000000000D+00  5 -2 2 25 23 21 0 0.58003273D-02 0.49600137D-01 0.11797245D+05 0.11797245D+05 0.11797245D+05 0.12598924D+01  1  2  2  1  5  1       -2 0.202064319374D+00 0.100000000000D+01
-.772026156842D-05 0.000000000000D+00 -.533806042197D-06 0.183164637959D-02 0.000000000000D+00  5 -2 2 25 23 21 2 0.58003273D-02 0.49600137D-01 0.11797245D+05 0.11797245D+05 0.11797245D+05 0.12598924D+01  1  2  3  1  5  1       -2 -.178141892509D-01 0.100000000000D+01
0.951432948145D-05 0.000000000000D+00 0.000000000000D+00 0.183164637959D-02 0.000000000000D+00  5 -2 2 25 23 21 2 0.58003273D-02 0.49600137D-01 0.11797245D+05 0.11797245D+05 0.11797245D+05 0.12598924D+01  1  2 15  1  5  1       -2 0.219539279176D-01 0.100000000000D+01
-.186810747451D-04 0.000000000000D+00 0.000000000000D+00 0.183164637959D-02 0.000000000000D+00  5 -2 2 25 23 21 2 0.58003273D-02 0.49600137D-01 0.11797245D+05 0.11797245D+05 0.11797245D+05 0.12598924D+01  1  2  4  1  5  1       -2 -.431058194041D-01 0.100000000000D+01
  </mgrwgt>
  </event>
  <event>
  5     66 -.46888340E-03 0.12723202E+03 0.75467711E-02 0.12233208E+00
       -2 -1    0    0    0  501 0.00000000E+00 0.00000000E+00 0.12112248E+03 0.12112291E+03 0.32000000E+00 0.0000E+00 0.9000E+01
        2 -1    0    0  502    0 0.00000000E+00 0.00000000E+00 -.15242591E+03 0.15242624E+03 0.32000000E+00 0.0000E+00 0.9000E+01
       25  1    1    2    0    0 -.20054034E+02 0.62414213E+02 -.44092474E+02 0.14787442E+03 0.12500000E+03 0.0000E+00 0.9000E+01
       23  1    1    2    0    0 0.10077263E+02 -.66921797E+02 0.14801754E+02 0.11451821E+03 0.91188000E+02 0.0000E+00 0.9000E+01
       21  1    1    2  502  501 0.99767709E+01 0.45075839E+01 -.20127027E+01 0.11156511E+02 0.75000000E+00 0.0000E+00 0.9000E+01
#aMCatNLO 2  0  0  2  1 0.10947797D+02 0.00000000D+00  -5  5  0 0.00000000D+00 0.00000000D+00 0.00000000D+00 0.00000000D+00 0.00000000D+00
  <mgrwgt>
 -.8050279501D-01    3    2    0
 0.130261366851132D+03 0.000000000000000D+00 0.000000000000000D+00 0.130261366851132D+03
 0.130261366851132D+03 0.000000000000000D+00 0.000000000000000D+00 -.130261366851132D+03
 0.144290370293791D+03 -.145392421463556D+02 0.649058395743755D+02 -.277588433922295D+02
 0.116232363408473D+03 0.145392421463556D+02 -.649058395743755D+02 0.277588433922295D+02
 0.000000000000000D+00 0.000000000000000D+00 0.000000000000000D+00 -.000000000000000D+00
 0.135477792195054D+03 0.000000000000000D+00 0.000000000000000D+00 0.135477792195054D+03
 0.136249853989699D+03 0.000000000000000D+00 0.000000000000000D+00 -.136249853989699D+03
 0.143851491657405D+03 -.200540340852874D+02 0.624142129846415D+02 -.277588433922295D+02
 0.116901167093119D+03 0.100772632238947D+02 -.669217969212976D+02 0.277588433922295D+02
 0.109749874342291D+02 0.997677086139277D+01 0.450758393665604D+01 -.772061794645292D+00
-.414943821638D-03 0.000000000000D+00 0.000000000000D+00 0.147285137238D-02 0.000000000000D+00  5 -2 2 25 23 21 2 0.17915106D-01 0.23877800D-01 0.17642904D+05 0.17642904D+05 0.17642904D+05 0.12398670D+01  1  2 13  2  5  2        2 -.349203573020D+00 0.100000000000D+01
-.190557097618D-04 0.000000000000D+00 0.000000000000D+00 0.147285137238D-02 0.000000000000D+00  5 -2 2 25 23 21 2 0.17915106D-01 0.22417397D-01 0.16187987D+05 0.16187987D+05 0.16187987D+05 0.12440665D+01  1  2  8  2  5  2        2 -.172669513337D-01 0.100000000000D+01
0.355611756083D-03 0.000000000000D+00 0.000000000000D+00 0.147285137238D-02 0.100935830395D-03  5 -2 2 25 23 21 2 0.18632531D-01 0.23447988D-01 0.17642904D+05 0.17642904D+05 0.17642904D+05 0.12398670D+01  1  2  1  2  5  2        2 0.285967729348D+00 0.100000000000D+01
  </mgrwgt>
  </event>
  <event>
  4     66 0.46888340E-03 0.51270523E+02 0.75467711E-02 0.12528986E+00
       -4 -1    0    0    0  501 0.00000000E+00 0.00000000E+00 0.11890397E+04 0.11890407E+04 0.15500000E+01 0.0000E+00 0.9000E+01
        4 -1    0    0  501    0 0.00000000E+00 0.00000000E+00 -.97904835E+01 0.99124198E+01 0.15500000E+01 0.0000E+00 0.9000E+01
       25  1    1    2    0    0 0.19723164E+01 0.48204275E+01 0.67235728E+03 0.68389798E+03 0.12500000E+03 0.0000E+00 0.9000E+01
       23  1    1    2    0    0 -.19723164E+01 -.48204275E+01 0.50689188E+03 0.51505510E+03 0.91188000E+02 0.0000E+00 0.9000E+01
#aMCatNLO 1  0  0  1  2 0.11734085D+02 0.00000000D+00  -5  5  0 0.00000000D+00 0.00000000D+00 0.00000000D+00 0.00000000D+00 0.00000000D+00
  <mgrwgt>
 0.1090290929D-01    9    2    0
 0.108235728201079D+03 0.000000000000000D+00 0.000000000000000D+00 0.108235728201079D+03
 0.108235728201079D+03 0.000000000000000D+00 0.000000000000000D+00 -.108235728201079D+03
 0.125119590807011D+03 0.197231642182848D+01 0.482042751486520D+01 -.166896681213310D+01
 0.913518655951475D+02 -.197231642182848D+01 -.482042751486520D+01 0.166896681213310D+01
 0.000000000000000D+00 0.000000000000000D+00 -.000000000000000D+00 0.000000000000000D+00
 0.120451319067746D+03 0.000000000000000D+00 0.000000000000000D+00 0.120451319067746D+03
 0.111249653916626D+03 0.000000000000000D+00 0.000000000000000D+00 -.111249653916626D+03
 0.125475407021669D+03 -.143960268845117D+01 0.106873692334877D+02 -.166896681213310D+01
 0.913138459177197D+02 -.445935980778489D+01 -.543849399888749D+00 0.166896681213310D+01
 0.149117200449831D+02 0.589896249623606D+01 -.101435198335990D+02 0.920166515111994D+01
0.222955267226D-03 0.000000000000D+00 0.000000000000D+00 0.192070574894D-02 0.000000000000D+00  5 -4 4 25 23 21 0 0.18293863D+00 0.15156857D-02 0.11712118D+05 0.11712118D+05 0.11712118D+05 0.12602619D+01  1  2  2  1  5  1       -4 0.104258679727D-01 0.100000000000D+01
-.123864035111D-04 0.000000000000D+00 -.856206931620D-06 0.192070574894D-02 0.000000000000D+00  5 -4 4 25 23 21 2 0.18293863D+00 0.15156857D-02 0.11712118D+05 0.11712118D+05 0.11712118D+05 0.12602619D+01  1  2  3  1  5  1       -4 -.919943917480D-03 0.100000000000D+01
0.153901795726D-04 0.000000000000D+00 0.000000000000D+00 0.192070574894D-02 0.000000000000D+00  5 -4 4 25 23 21 2 0.18293863D+00 0.15156857D-02 0.11712118D+05 0.11712118D+05 0.11712118D+05 0.12602619D+01  1  2 15  1  5  1       -4 0.114303575481D-02 0.100000000000D+01
0.508160251712D-03 0.000000000000D+00 0.000000000000D+00 0.192070574894D-02 0.000000000000D+00  5 -4 4 25 23 21 2 0.20593734D+00 0.15156857D-02 0.13052718D+05 0.13052718D+05 0.13052718D+05 0.12547664D+01  1  2 12  1  5  1       -4 0.271376530215D-01 0.100000000000D+01
-.511356187614D-03 0.000000000000D+00 0.000000000000D+00 0.192070574894D-02 0.000000000000D+00  5 -4 4 25 23 21 2 0.18293863D+00 0.15156857D-02 0.11712118D+05 0.11712118D+05 0.11712118D+05 0.12602619D+01  1  2  4  1  5  1       -4 -.379786605562D-01 0.100000000000D+01
-.112964253793D-02 0.000000000000D+00 -.189048368566D-03 0.192070574894D-02 0.000000000000D+00  5 -4 4 25 23 21 2 0.20642960D+00 0.15156857D-02 0.11712118D+05 0.11712118D+05 0.11712118D+05 0.12602619D+01  1  2  5  1  5  1       -4 -.598518013285D-01 0.100000000000D+01
0.114548325284D-02 0.000000000000D+00 0.187677152678D-03 0.192070574894D-02 0.000000000000D+00  5 -4 4 25 23 21 2 0.18293863D+00 0.15156857D-02 0.11712118D+05 0.11712118D+05 0.11712118D+05 0.12602619D+01  1  2  6  1  5  1       -4 0.850755709742D-01 0.100000000000D+01
0.953482900010D-05 0.000000000000D+00 0.000000000000D+00 0.192070574894D-02 0.000000000000D+00  5 21 4 25 23 4 2 0.20593734D+00 0.15156857D-02 0.13052718D+05 0.13052718D+05 0.13052718D+05 0.12547664D+01  1  2 12  3  5  1       -4 0.120881954776D-01 0.100000000000D+01
-.206696720395D-04 0.000000000000D+00 -.360726214662D-05 0.192070574894D-02 0.000000000000D+00  5 21 4 25 23 4 2 0.20642960D+00 0.15156857D-02 0.11712118D+05 0.11712118D+05 0.11712118D+05 0.12602619D+01  1  2  5  3  5  1       -4 -.262170081067D-01 0.100000000000D+01
  </mgrwgt>
  </event>
  <event>
  5     66 -.46888340E-03 0.30085541E+03 0.75467711E-02 0.10805187E+00
       -2 -1    0    0    0  502 0.00000000E+00 0.00000000E+00 0.23638462E+03 0.23638483E+03 0.32000000E+00 0.0000E+00 0.9000E+01
        2 -1    0    0  501    0 0.00000000E+00 0.00000000E+00 -.42415894E+03 0.42415906E+03 0.32000000E+00 0.0000E+00 0.9000E+01
       25  1    1    2    0    0 -.20053793E+03 0.20118126E+03 -.16283720E+03 0.35047156E+03 0.12500000E+03 0.0000E+00 0.9000E+01
       23  1    1    2    0    0 0.18417487E+03 -.20687941E+03 -.21555937E+02 0.29240277E+03 0.91188000E+02 0.0000E+00 0.9000E+01
       21  1    1    2  501  502 0.16363061E+02 0.56981451E+01 -.33811873E+01 0.17669565E+02 0.75000000E+00 0.0000E+00 0.9000E+01
#aMCatNLO 2  0  0  1  2 0.17326818D+02 0.00000000D+00  -5  5  0 0.00000000D+00 0.00000000D+00 0.00000000D+00 0.00000000D+00 0.00000000D+00
  <mgrwgt>
 -.5545062248D-01    3    2    0
 0.307809340147741D+03 0.000000000000000D+00 0.000000000000000D+00 0.307809340147741D+03
 0.307809340147741D+03 0.000000000000000D+00 0.000000000000000D+00 -.307809340147741D+03
 0.313746252793481D+03 -.192155832237848D+03 0.204100178407724D+03 -.650458642256821D+02
 0.301872427502001D+03 0.192155832237848D+03 -.204100178407724D+03 0.650458642256821D+02
 0.000000000000000D+00 0.000000000000000D+00 0.000000000000000D+00 0.000000000000000D+00
 0.317519688486878D+03 0.000000000000000D+00 0.000000000000000D+00 0.317519688486878D+03
 0.315758840083969D+03 0.000000000000000D+00 0.000000000000000D+00 -.315758840083969D+03
 0.317088828849757D+03 -.200537927909703D+03 0.201181262542333D+03 -.650458642256821D+02
 0.298773638057840D+03 0.184174867112491D+03 -.206879407688507D+03 0.650458642256821D+02
 0.174160616632508D+02 0.163630607972121D+02 0.569814514617417D+01 0.176084840290884D+01
-.323344348045D-02 0.000000000000D+00 0.000000000000D+00 0.960114564658D-03 0.000000000000D+00  5 -2 2 25 23 21 2 0.36808225D-01 0.63610769D-01 0.95876777D+05 0.95876777D+05 0.95876777D+05 0.11652552D+01  1  2 13  1  5  1       -2 -.236962677082D+00 0.100000000000D+01
-.177956705224D-02 0.000000000000D+00 0.000000000000D+00 0.960114564658D-03 0.000000000000D+00  5 -2 2 25 23 21 2 0.35253824D-01 0.63610769D-01 0.90513977D+05 0.90513977D+05 0.90513977D+05 0.11675689D+01  1  2  8  1  5  1       -2 -.142048781466D+00 0.100000000000D+01
0.443846299608D-02 0.000000000000D+00 0.000000000000D+00 0.960114564658D-03 0.231757803047D-04  5 -2 2 25 23 21 2 0.36365963D-01 0.65253584D-01 0.95876777D+05 0.95876777D+05 0.95876777D+05 0.11652552D+01  1  2  1  1  5  1       -2 0.323560836070D+00 0.100000000000D+01
  </mgrwgt>
  </event>
  <event>
  4     66 0.46888340E-03 0.13928854E+03 0.75467711E-02 0.11113542E+00
       -2 -1    0    0    0  501 0.00000000E+00 0.00000000E+00 0.16813645E+03 0.16813675E+03 0.32000000E+00 0.0000E+00 0.9000E+01
        2 -1    0    0  501    0 0.00000000E+00 0.00000000E+00 -.23395807E+03 0.23395829E+03 0.32000000E+00 0.0000E+00 0.9000E+01
       25  1    1    2    0    0 -.81797675E+02 -.30206664E+02 -.17725066E+03 0.23376505E+03 0.12500000E+03 0.0000E+00 0.9000E+01
       23  1    1    2    0    0 0.81797675E+02 0.30206664E+02 0.11142904E+03 0.16832999E+03 0.91188000E+02 0.0000E+00 0.9000E+01
#aMCatNLO 1  0  0  1  1 0.18334665D+03 0.00000000D+00  -5  5  0 0.00000000D+00 0.00000000D+00 0.00000000D+00 0.00000000D+00 0.00000000D+00
  <mgrwgt>
 0.8318711408D-01    5    2    0
 0.198335532637908D+03 0.000000000000000D+00 0.000000000000000D+00 0.198335532637908D+03
 0.198335532637908D+03 0.000000000000000D+00 0.000000000000000D+00 -.198335532637908D+03
 0.207549399360096D+03 -.817976747169534D+02 -.302066636384573D+02 -.140884530937465D+03
 0.189121665915719D+03 0.817976747169534D+02 0.302066636384573D+02 0.140884530937465D+03
 0.000000000000000D+00 0.000000000000000D+00 0.000000000000000D+00 0.000000000000000D+00
 0.889237043697935D+03 0.000000000000000D+00 0.000000000000000D+00 0.889237043697935D+03
 0.231026542080945D+03 0.000000000000000D+00 0.000000000000000D+00 -.231026542080945D+03
 0.265405887470959D+03 -.156012476780080D+03 -.103087056101740D+03 -.140884530937465D+03
 0.171588309091085D+03 0.251960885993893D+02 -.253772050186812D+02 0.140884530937465D+03
 0.683269389216835D+03 0.130816388180691D+03 0.128464261120421D+03 0.658210501616990D+03
0.617152697940D-03 0.000000000000D+00 0.000000000000D+00 0.627635481812D-03 0.000000000000D+00  5 -2 2 25 23 21 0 0.25867186D-01 0.35993590D-01 0.19401299D+05 0.19401299D+05 0.19401299D+05 0.12352818D+01  1  2  2  1  5  1       -2 0.115684256707D+00 0.100000000000D+01
-.290795246165D-04 0.000000000000D+00 -.237002886013D-05 0.627635481812D-03 0.000000000000D+00  5 -2 2 25 23 21 2 0.25867186D-01 0.35993590D-01 0.19401299D+05 0.19401299D+05 0.19401299D+05 0.12352818D+01  1  2  3  1  5  1       -2 -.831765735076D-02 0.100000000000D+01
0.418037868814D-04 0.000000000000D+00 0.000000000000D+00 0.627635481812D-03 0.000000000000D+00  5 -2 2 25 23 21 2 0.25867186D-01 0.35993590D-01 0.19401299D+05 0.19401299D+05 0.19401299D+05 0.12352818D+01  1  2 15  1  5  1       -2 0.119571959937D-01 0.100000000000D+01
-.972936440071D-03 0.000000000000D+00 -.224768215374D-03 0.627635481812D-03 0.000000000000D+00  5 -2 2 25 23 21 2 0.12571122D+00 0.35993590D-01 0.19401299D+05 0.19401299D+05 0.19401299D+05 0.12352818D+01  1  2  5  1  5  1       -2 -.108360204046D-01 0.100000000000D+01
-.192310476920D-03 0.000000000000D+00 -.432329041984D-04 0.627635481812D-03 0.000000000000D+00  5 21 2 25 23 2 2 0.12571122D+00 0.35993590D-01 0.19401299D+05 0.19401299D+05 0.19401299D+05 0.12352818D+01  1  2  5  3  5  1       -2 -.253006608627D-01 0.100000000000D+01
  </mgrwgt>
  </event>
  <event>
  4     66 0.46888340E-03 0.11590412E+03 0.75467711E-02 0.11087583E+00
       -2 -1    0    0    0  501 0.00000000E+00 0.00000000E+00 0.66786942E+01 0.66863560E+01 0.32000000E+00 0.0000E+00 0.9000E+01
        2 -1    0    0  501    0 0.00000000E+00 0.00000000E+00 -.21068323E+04 0.21068323E+04 0.32000000E+00 0.0000E+00 0.9000E+01
       25  1    1    2    0    0 0.37621028E+02 -.17230469E+02 -.96215017E+03 0.97111800E+03 0.12500000E+03 0.0000E+00 0.9000E+01
       23  1    1    2    0    0 -.37621028E+02 0.17230469E+02 -.11380035E+04 0.11424007E+04 0.91188000E+02 0.0000E+00 0.9000E+01
#aMCatNLO 1  0  0  1  1 0.20508784D+03 0.00000000D+00  -5  5  0 0.00000000D+00 0.00000000D+00 0.00000000D+00 0.00000000D+00 0.00000000D+00
  <mgrwgt>
 0.1911568621D+00    5    2    0
 0.118655008724775D+03 0.000000000000000D+00 0.000000000000000D+00 0.118655008724775D+03
 0.118655008724775D+03 0.000000000000000D+00 0.000000000000000D+00 -.118655008724775D+03
 0.134056273143699D+03 0.376210278049201D+02 -.172304687544408D+02 0.251764489668779D+02
 0.103253744305851D+03 -.376210278049201D+02 0.172304687544408D+02 -.251764489668779D+02
 0.000000000000000D+00 0.000000000000000D+00 -.000000000000000D+00 0.000000000000000D+00
 0.332423376609423D+03 0.000000000000000D+00 0.000000000000000D+00 0.332423376609423D+03
 0.216708215885450D+03 0.000000000000000D+00 0.000000000000000D+00 -.216708215885450D+03
 0.148643119907704D+03 -.123244371068803D+02 0.753925179531292D+02 0.251764489668779D+02
 0.165008067298123D+03 -.850157560143508D+02 0.105123159085847D+03 -.251764489668779D+02
 0.235480405289046D+03 0.973401931212312D+02 -.180515677038976D+03 0.115715160723973D+03
0.111801057949D-03 0.000000000000D+00 0.000000000000D+00 0.163899970464D-02 0.000000000000D+00  5 -2 2 25 23 21 0 0.10280826D-02 0.32412864D+00 0.13433764D+05 0.13433764D+05 0.13433764D+05 0.12533197D+01  1  2  2  1  5  1       -2 0.145533837254D+00 0.100000000000D+01
-.620701463849D-05 0.000000000000D+00 -.429345500420D-06 0.163899970464D-02 0.000000000000D+00  5 -2 2 25 23 21 2 0.10280826D-02 0.32412864D+00 0.13433764D+05 0.13433764D+05 0.13433764D+05 0.12533197D+01  1  2  3  1  5  1       -2 -.126918393099D-01 0.100000000000D+01
0.771609874893D-05 0.000000000000D+00 0.000000000000D+00 0.163899970464D-02 0.000000000000D+00  5 -2 2 25 23 21 2 0.10280826D-02 0.32412864D+00 0.13433764D+05 0.13433764D+05 0.13433764D+05 0.12533197D+01  1  2 15  1  5  1       -2 0.157775502595D-01 0.100000000000D+01
0.866474521399D-04 0.000000000000D+00 -.537576098056D-04 0.163899970464D-02 0.000000000000D+00  5 -2 2 25 23 21 2 0.70633779D-02 0.32412864D+00 0.13433764D+05 0.13433764D+05 0.13433764D+05 0.12533197D+01  1  2  5  1  5  1       -2 0.105460949611D-01 0.100000000000D+01
0.155608445292D-04 0.000000000000D+00 -.126720741585D-04 0.163899970464D-02 0.000000000000D+00  5 21 2 25 23 2 2 0.70633779D-02 0.32412864D+00 0.13433764D+05 0.13433764D+05 0.13433764D+05 0.12533197D+01  1  2  5  3  5  1       -2 0.319912189578D-01 0.100000000000D+01
  </mgrwgt>
  </event>
  <event>
  4     66 0.46888340E-03 0.52399483E+02 0.75467711E-02 0.11545536E+00
       -4 -1    0    0    0  501 0.00000000E+00 0.00000000E+00 0.17317140E+03 0.17317833E+03 0.15500000E+01 0.0000E+00 0.9000E+01
        4 -1    0    0  501    0 0.00000000E+00 0.00000000E+00 -.10033196E+03 0.10034393E+03 0.15500000E+01 0.0000E+00 0.9000E+01
       25  1    1    2    0    0 -.68994595E+02 0.89638858E+01 0.11674090E+02 0.14353358E+03 0.12500000E+03 0.0000E+00 0.9000E+01
       23  1    1    2    0    0 0.68994595E+02 -.89638858E+01 0.61165347E+02 0.12998868E+03 0.91188000E+02 0.0000E+00 0.9000E+01
#aMCatNLO 1  0  0  1  2 0.10897650D+03 0.00000000D+00  -5  5  0 0.00000000D+00 0.00000000D+00 0.00000000D+00 0.00000000D+00 0.00000000D+00
  <mgrwgt>
 0.1651709808D-01    7    2    0
 0.131822650172287D+03 0.000000000000000D+00 0.000000000000000D+00 0.131822650172287D+03
 0.131822650172287D+03 0.000000000000000D+00 0.000000000000000D+00 -.131822650172287D+03
 0.145685496668026D+03 -.689945951425159D+02 0.896388575692436D+01 -.275437566912475D+02
 0.117959803676547D+03 0.689945951425159D+02 -.896388575692436D+01 0.275437566912475D+02
 0.000000000000000D+00 0.000000000000000D+00 0.000000000000000D+00 0.000000000000000D+00
 0.242596419162348D+03 0.000000000000000D+00 0.000000000000000D+00 0.242596419162348D+03
 0.172342685604021D+03 0.000000000000000D+00 0.000000000000000D+00 -.172342685604021D+03
 0.160701445788105D+03 -.832070837471665D+02 -.501784551377635D+02 -.275437566912475D+02
 0.124578629359925D+03 0.577438718313741D+02 -.557814510608383D+02 0.275437566912475D+02
 0.129659029618339D+03 0.254632119157924D+02 0.105959906198602D+03 0.702537335583266D+02
0.231738327384D-03 0.000000000000D+00 0.000000000000D+00 0.145702067590D-02 0.000000000000D+00  5 -4 4 25 23 21 0 0.26643208D-01 0.15437140D-01 0.16609672D+05 0.16609672D+05 0.16609672D+05 0.12428071D+01  1  2  2  1  5  1       -4 0.180727101789D-01 0.100000000000D+01
-.128663654537D-04 0.000000000000D+00 -.889936195259D-06 0.145702067590D-02 0.000000000000D+00  5 -4 4 25 23 21 2 0.26643208D-01 0.15437140D-01 0.16609672D+05 0.16609672D+05 0.16609672D+05 0.12428071D+01  1  2  3  1  5  1       -4 -.154984671859D-02 0.100000000000D+01
0.160503397082D-04 0.000000000000D+00 0.000000000000D+00 0.145702067590D-02 0.000000000000D+00  5 -4 4 25 23 21 2 0.26643208D-01 0.15437140D-01 0.16609672D+05 0.16609672D+05 0.16609672D+05 0.12428071D+01  1  2 15  1  5  1       -4 0.193337943171D-02 0.100000000000D+01
0.398620746877D-05 0.000000000000D+00 0.000000000000D+00 0.145702067590D-02 0.000000000000D+00  5 -4 4 25 23 21 2 0.50291007D-01 0.15437140D-01 0.37790479D+05 0.37790479D+05 0.37790479D+05 0.12045144D+01  1  2 12  1  5  1       -4 0.140658310933D-03 0.100000000000D+01
-.616681711715D-04 0.000000000000D+00 -.639237065774D-04 0.145702067590D-02 0.000000000000D+00  5 -4 4 25 23 21 2 0.61927536D-01 0.15437140D-01 0.16609672D+05 0.16609672D+05 0.16609672D+05 0.12428071D+01  1  2  5  1  5  1       -4 -.140459017683D-02 0.100000000000D+01
0.275399468878D-06 0.000000000000D+00 0.000000000000D+00 0.145702067590D-02 0.000000000000D+00  5 21 4 25 23 4 2 0.50291007D-01 0.15437140D-01 0.37790479D+05 0.37790479D+05 0.37790479D+05 0.12045144D+01  1  2 12  3  5  1       -4 0.226767354926D-03 0.100000000000D+01
-.162635284092D-05 0.000000000000D+00 -.587463665475D-05 0.145702067590D-02 0.000000000000D+00  5 21 4 25 23 4 2 0.61927536D-01 0.15437140D-01 0.16609672D+05 0.16609672D+05 0.16609672D+05 0.12428071D+01  1  2  5  3  5  1       -4 -.901980298335D-03 0.100000000000D+01
  </mgrwgt>
  </event>
  <event>
  4     66 0.46888340E-03 0.23425169E+03 0.75467711E-02 0.10891928E+00
       -2 -1    0    0    0  501 0.00000000E+00 0.00000000E+00 0.68865543E+02 0.68866287E+02 0.32000000E+00 0.0000E+00 0.9000E+01
        2 -1    0    0  501    0 0.00000000E+00 0.00000000E+00 -.83781566E+03 0.83781572E+03 0.32000000E+00 0.0000E+00 0.9000E+01
       25  1    1    2    0    0 0.15095482E+03 0.14204656E+03 -.49687977E+03 0.55270163E+03 0.12500000E+03 0.0000E+00 0.9000E+01
       23  1    1    2    0    0 -.15095482E+03 -.14204656E+03 -.27207035E+03 0.35398038E+03 0.91188000E+02 0.0000E+00 0.9000E+01
#aMCatNLO 1  0  0  1  2 0.10446207D+03 0.00000000D+00  -5  5  0 0.00000000D+00 0.00000000D+00 0.00000000D+00 0.00000000D+00 0.00000000D+00
  <mgrwgt>
 0.2398374448D+00    3    2    0
 0.240201988787738D+03 0.000000000000000D+00 0.000000000000000D+00 0.240201988787738D+03
 0.240201988787738D+03 0.000000000000000D+00 0.000000000000000D+00 -.240201988787738D+03
 0.247809907328391D+03 0.150954823935431D+03 0.142046561585966D+03 -.531052317792990D+02
 0.232594070247085D+03 -.150954823935431D+03 -.142046561585966D+03 0.531052317792990D+02
 0.000000000000000D+00 0.000000000000000D+00 -.000000000000000D+00 -.000000000000000D+00
 0.254920742273799D+03 0.000000000000000D+00 0.000000000000000D+00 0.254920742273799D+03
 0.545419316146914D+03 0.000000000000000D+00 0.000000000000000D+00 -.545419316146914D+03
 0.258188034986412D+03 0.117913811243888D+03 0.185235603720647D+03 -.531052317792990D+02
 0.233442217105271D+03 -.181386392124594D+03 -.102268413954234D+03 0.531052317792990D+02
 0.308709806329030D+03 0.634725808807064D+02 -.829671897664136D+02 -.290498573873115D+03
0.116845144541D-02 0.000000000000D+00 0.000000000000D+00 0.101591761009D-02 0.000000000000D+00  5 -2 2 25 23 21 0 0.10594761D-01 0.12889478D+00 0.54873852D+05 0.54873852D+05 0.54873852D+05 0.11883018D+01  1  2  2  1  5  1       -2 0.235529078465D+00 0.100000000000D+01
-.648643081459D-04 0.000000000000D+00 -.448716121070D-05 0.101591761009D-02 0.000000000000D+00  5 -2 2 25 23 21 2 0.10594761D-01 0.12889478D+00 0.54873852D+05 0.54873852D+05 0.54873852D+05 0.11883018D+01  1  2  3  1  5  1       -2 -.184626116294D-01 0.100000000000D+01
0.800008017768D-04 0.000000000000D+00 0.000000000000D+00 0.101591761009D-02 0.000000000000D+00  5 -2 2 25 23 21 2 0.10594761D-01 0.12889478D+00 0.54873852D+05 0.54873852D+05 0.54873852D+05 0.11883018D+01  1  2 15  1  5  1       -2 0.227709779918D-01 0.100000000000D+01
  </mgrwgt>
  </event>
  <event>
  4     66 0.46888340E-03 0.10874397E+03 0.75467711E-02 0.11988331E+00
       -2 -1    0    0    0  501 0.00000000E+00 0.00000000E+00 0.14430201E+02 0.14433749E+02 0.32000000E+00 0.0000E+00 0.9000E+01
        2 -1    0    0  501    0 0.00000000E+00 0.00000000E+00 -.82885599E+03 0.82885605E+03 0.32000000E+00 0.0000E+00 0.9000E+01
       25  1    1    2    0    0 0.45472912E+01 -.10809860E+02 -.42486230E+03 0.44302427E+03 0.12500000E+03 0.0000E+00 0.9000E+01
       23  1    1    2    0    0 -.45472912E+01 0.10809860E+02 -.38956349E+03 0.40026553E+03 0.91188000E+02 0.0000E+00 0.9000E+01
#aMCatNLO 1  0  0  1  1 0.73198735D+02 0.00000000D+00  -5  5  0 0.00000000D+00 0.00000000D+00 0.00000000D+00 0.00000000D+00 0.00000000D+00
  <mgrwgt>
 0.1667475954D+00    3    2    0
 0.109371297074615D+03 0.000000000000000D+00 0.000000000000000D+00 0.109371297074615D+03
 0.109371297074615D+03 0.000000000000000D+00 0.000000000000000D+00 -.109371297074615D+03
 0.126079859676312D+03 0.454729115889057D+01 -.108098601862237D+02 0.115585501629314D+02
 0.926627344729176D+02 -.454729115889057D+01 0.108098601862237D+02 -.115585501629314D+02
 0.000000000000000D+00 0.000000000000000D+00 -.000000000000000D+00 -.000000000000000D+00
 0.132825846099171D+03 0.000000000000000D+00 0.000000000000000D+00 0.132825846099171D+03
 0.191905458614235D+03 0.000000000000000D+00 0.000000000000000D+00 -.191905458614235D+03
 0.129353217968207D+03 -.255444187058790D+02 0.179203122138061D+02 0.115585501629314D+02
 0.101311857998659D+03 -.273987840493881D+02 0.326274083844632D+02 -.115585501629314D+02
 0.940662287465387D+02 0.529432027552671D+02 -.505477205982693D+02 -.590796125150641D+02
0.780544903786D-04 0.000000000000D+00 0.000000000000D+00 0.187673440718D-02 0.000000000000D+00  5 -2 2 25 23 21 0 0.22203086D-02 0.12751658D+00 0.11825250D+05 0.11825250D+05 0.11825250D+05 0.12597715D+01  1  2  2  1  5  1       -2 0.163225224847D+00 0.100000000000D+01
-.433618611875D-05 0.000000000000D+00 -.299749795273D-06 0.187673440718D-02 0.000000000000D+00  5 -2 2 25 23 21 2 0.22203086D-02 0.12751658D+00 0.11825250D+05 0.11825250D+05 0.11825250D+05 0.12597715D+01  1  2  3  1  5  1       -2 -.143906637292D-01 0.100000000000D+01
0.539754469263D-05 0.000000000000D+00 0.000000000000D+00 0.187673440718D-02 0.000000000000D+00  5 -2 2 25 23 21 2 0.22203086D-02 0.12751658D+00 0.11825250D+05 0.11825250D+05 0.11825250D+05 0.12597715D+01  1  2 15  1  5  1       -2 0.179130342904D-01 0.100000000000D+01
  </mgrwgt>
  </event>
  <event>
  4     66 0.46888340E-03 0.54302939E+02 0.75467711E-02 0.11983066E+00
       -2 -1    0    0    0  501 0.00000000E+00 0.00000000E+00 0.21734757E+02 0.21737113E+02 0.32000000E+00 0.0000E+00 0.9000E+01
        2 -1    0    0  501    0 0.00000000E+00 0.00000000E+00 -.74767002E+03 0.74767009E+03 0.32000000E+00 0.0000E+00 0.9000E+01
       25  1    1    2    0    0 -.59783362E+01 -.42722312E+02 -.24914646E+03 0.28206364E+03 0.12500000E+03 0.0000E+00 0.9000E+01
       23  1    1    2    0    0 0.59783362E+01 0.42722312E+02 -.47678880E+03 0.48734356E+03 0.91188000E+02 0.0000E+00 0.9000E+01
#aMCatNLO 1  0  0  2  1 0.62796695D+02 0.00000000D+00  -5  5  0 0.00000000D+00 0.00000000D+00 0.00000000D+00 0.00000000D+00 0.00000000D+00
  <mgrwgt>
 0.1478627079D+00    9    2    0
 0.127480817530208D+03 0.000000000000000D+00 0.000000000000000D+00 0.127480817530208D+03
 0.127480817530208D+03 0.000000000000000D+00 0.000000000000000D+00 -.127480817530208D+03
 0.141815814743157D+03 -.597833621571949D+01 -.427223115465416D+02 0.512424521610493D+02
 0.113145820317259D+03 0.597833621571949D+01 0.427223115465416D+02 -.512424521610493D+02
 0.000000000000000D+00 0.000000000000000D+00 0.000000000000000D+00 -.000000000000000D+00
 0.146024626977579D+03 0.000000000000000D+00 0.000000000000000D+00 0.146024626977579D+03
 0.198200630030671D+03 0.000000000000000D+00 0.000000000000000D+00 -.198200630030671D+03
 0.156502549468610D+03 -.174162934596015D+02 -.770644652795726D+02 0.512424521610493D+02
 0.106078600432525D+03 -.242704492122870D+01 0.174853846167621D+02 -.512424521610493D+02
 0.816441071071154D+02 0.198433383808302D+02 0.595790806628105D+02 -.521760030530926D+02
0.111566169975D-03 0.000000000000D+00 0.000000000000D+00 0.136737235697D-02 0.000000000000D+00  5 -2 2 25 23 21 0 0.33439953D-02 0.11502634D+00 0.13585242D+05 0.13585242D+05 0.13585242D+05 0.12527573D+01  1  2  2  2  5  2        2 0.146510773459D+00 0.100000000000D+01
-.613762533236D-05 0.000000000000D+00 -.428443468751D-06 0.136737235697D-02 0.000000000000D+00  5 -2 2 25 23 21 2 0.33439953D-02 0.11502634D+00 0.13585242D+05 0.13585242D+05 0.13585242D+05 0.12527573D+01  1  2  3  2  5  2        2 -.126494405902D-01 0.100000000000D+01
0.762356624691D-05 0.000000000000D+00 0.000000000000D+00 0.136737235697D-02 0.000000000000D+00  5 -2 2 25 23 21 2 0.33439953D-02 0.11502634D+00 0.13585242D+05 0.13585242D+05 0.13585242D+05 0.12527573D+01  1  2 15  2  5  2        2 0.157119151306D-01 0.100000000000D+01
0.521476891079D-04 0.000000000000D+00 0.000000000000D+00 0.136737235697D-02 0.000000000000D+00  5 -2 2 25 23 21 2 0.33439953D-02 0.18343124D+00 0.23036185D+05 0.23036185D+05 0.23036185D+05 0.12271253D+01  1  2 12  2  5  2        2 0.558515373343D-01 0.100000000000D+01
-.944765390640D-04 0.000000000000D+00 0.000000000000D+00 0.136737235697D-02 0.000000000000D+00  5 -2 2 25 23 21 2 0.33439953D-02 0.11502634D+00 0.13585242D+05 0.13585242D+05 0.13585242D+05 0.12527573D+01  1  2  4  2  5  2        2 -.194712988060D+00 0.100000000000D+01
-.109590202584D-03 0.000000000000D+00 -.442786297815D-04 0.136737235697D-02 0.000000000000D+00  5 -2 2 25 23 21 2 0.33439953D-02 0.19300784D+00 0.13585242D+05 0.13585242D+05 0.13585242D+05 0.12527573D+01  1  2  5  2  5  2        2 -.111881476227D+00 0.100000000000D+01
0.121237074184D-03 0.000000000000D+00 0.389448954805D-04 0.136737235697D-02 0.000000000000D+00  5 -2 2 25 23 21 2 0.33439953D-02 0.11502634D+00 0.13585242D+05 0.13585242D+05 0.13585242D+05 0.12527573D+01  1  2  6  2  5  2        2 0.249865556167D+00 0.100000000000D+01
0.278620473242D-05 0.000000000000D+00 0.000000000000D+00 0.136737235697D-02 0.000000000000D+00  5 -2 21 25 23 -2 2 0.33439953D-02 0.18343124D+00 0.23036185D+05 0.23036185D+05 0.23036185D+05 0.12271253D+01  1  2 12  4  5  2        2 0.204360951895D-02 0.100000000000D+01
-.427701614961D-05 0.000000000000D+00 -.256641745809D-05 0.136737235697D-02 0.000000000000D+00  5 -2 21 25 23 -2 2 0.33439953D-02 0.19300784D+00 0.13585242D+05 0.13585242D+05 0.13585242D+05 0.12527573D+01  1  2  5  4  5  2        2 -.287677887185D-02 0.100000000000D+01
  </mgrwgt>
  </event>
  <event>
  5     66 -.46888340E-03 0.25680445E+03 0.75467711E-02 0.11016913E+00
       -2 -1    0    0    0  502 0.00000000E+00 0.00000000E+00 0.20933743E+03 0.20933768E+03 0.32000000E+00 0.0000E+00 0.9000E+01
        2 -1    0    0  501    0 0.00000000E+00 0.00000000E+00 -.37197072E+03 0.37197086E+03 0.32000000E+00 0.0000E+00 0.9000E+01
       25  1    1    2    0    0 -.62192772E+02 0.21250577E+03 -.14228000E+01 0.25427085E+03 0.12500000E+03 0.0000E+00 0.9000E+01
       23  1    1    2    0    0 0.57747221E+02 -.23646222E+03 -.15100314E+03 0.30060992E+03 0.91188000E+02 0.0000E+00 0.9000E+01
       21  1    1    2  501  502 0.44455506E+01 0.23956450E+02 -.10207350E+02 0.26427768E+02 0.75000000E+00 0.0000E+00 0.9000E+01
#aMCatNLO 2  0  0  1  2 0.24365435D+02 0.00000000D+00  -5  5  0 0.00000000D+00 0.00000000D+00 0.00000000D+00 0.00000000D+00 0.00000000D+00
  <mgrwgt>
 -.9559582372D-01    3    2    0
 0.266488895484840D+03 0.000000000000000D+00 0.000000000000000D+00 0.266488895484840D+03
 0.266488895484840D+03 0.000000000000000D+00 0.000000000000000D+00 -.266488895484840D+03
 0.273346356320779D+03 -.599527903543806D+02 0.224576713370214D+03 0.711631453380379D+02
 0.259631434648900D+03 0.599527903543806D+02 -.224576713370214D+03 -.711631453380379D+02
 0.000000000000000D+00 0.000000000000000D+00 0.000000000000000D+00 -.000000000000000D+00
 0.277513228301028D+03 0.000000000000000D+00 0.000000000000000D+00 0.277513228301028D+03
 0.280578731541459D+03 0.000000000000000D+00 0.000000000000000D+00 -.280578731541459D+03
 0.264037564600579D+03 -.621927716083329D+02 0.212505767981662D+03 0.711631453380379D+02
 0.269496876717754D+03 0.577472210169791D+02 -.236462217758013D+03 -.711631453380379D+02
 0.245575185241541D+02 0.444555059135383D+01 0.239564497763503D+02 -.306550324043065D+01
-.279031348018D-02 0.000000000000D+00 0.000000000000D+00 0.965042222989D-03 0.000000000000D+00  5 -2 2 25 23 21 2 0.32985492D-01 0.54351443D-01 0.72512738D+05 0.72512738D+05 0.72512738D+05 0.11766164D+01  1  2 13  1  5  1       -2 -.304066991591D+00 0.100000000000D+01
-.364097932337D-04 0.000000000000D+00 0.000000000000D+00 0.965042222989D-03 0.000000000000D+00  5 -2 2 25 23 21 2 0.30925764D-01 0.54351443D-01 0.65948525D+05 0.65948525D+05 0.65948525D+05 0.11805546D+01  1  2  8  1  5  1       -2 -.449639568063D-02 0.100000000000D+01
0.197753246610D-02 0.000000000000D+00 0.000000000000D+00 0.965042222989D-03 0.120168748152D-04  5 -2 2 25 23 21 2 0.32205127D-01 0.57225119D-01 0.72512738D+05 0.72512738D+05 0.72512738D+05 0.11766164D+01  1  2  1  1  5  1       -2 0.212967563550D+00 0.100000000000D+01
  </mgrwgt>
  </event>
  <event>
  5     66 0.46888340E-03 0.16942913E+03 0.75467711E-02 0.11200442E+00
       -2 -1    0    0    0  501 0.00000000E+00 0.00000000E+00 0.13631296E+04 0.13631297E+04 0.32000000E+00 0.0000E+00 0.9000E+01
        2 -1    0    0  502    0 0.00000000E+00 0.00000000E+00 -.43071668E+02 0.43072857E+02 0.32000000E+00 0.0000E+00 0.9000E+01
       25  1    1    2    0    0 -.80597143E+02 0.10995447E+03 0.56871431E+03 0.59803582E+03 0.12500000E+03 0.0000E+00 0.9000E+01
       23  1    1    2    0    0 -.34056024E+02 -.14477876E+03 0.50367518E+03 0.53303343E+03 0.91188000E+02 0.0000E+00 0.9000E+01
       21  1    1    2  502  501 0.11465317E+03 0.34824290E+02 0.24766848E+03 0.27513328E+03 0.75000000E+00 0.0000E+00 0.9000E+01
#aMCatNLO 2  0  0  2  2 0.11982521D+03 0.00000000D+00  -5  5  0 0.00000000D+00 0.00000000D+00 0.00000000D+00 0.00000000D+00 0.00000000D+00
  <mgrwgt>
 0.1742269912D-01    1    2    0
 0.169514283731067D+03 0.000000000000000D+00 0.000000000000000D+00 0.169514283731067D+03
 0.169514283731067D+03 0.000000000000000D+00 0.000000000000000D+00 -.169514283731067D+03
 0.180294715466833D+03 -.206398574723476D+02 0.128165649472086D+03 0.536162327898989D+01
 0.158733851995302D+03 0.206398574723476D+02 -.128165649472086D+03 -.536162327898989D+01
 0.000000000000000D+00 0.000000000000000D+00 0.000000000000000D+00 -.000000000000000D+00
 0.222447256885049D+03 0.000000000000000D+00 0.000000000000000D+00 0.222447256885049D+03
 0.263939324107583D+03 0.000000000000000D+00 0.000000000000000D+00 -.263939324107583D+03
 0.185039539112073D+03 -.805971430060183D+02 0.109954465893342D+03 0.536162327898989D+01
 0.174541396867767D+03 -.340560244684801D+02 -.144778755588545D+03 -.536162327898989D+01
 0.126805645012792D+03 0.114653167474498D+03 0.348242896952028D+02 -.414920672225346D+02
0.910413590249D-03 0.000000000000D+00 0.000000000000D+00 0.123755376210D-02 0.738045282608D-06  5 -2 2 25 23 21 2 0.20971136D+00 0.66264737D-02 0.57419201D+05 0.57419201D+05 0.57419201D+05 0.11863764D+01  1  2  1  2  5  2        2 0.174226991221D-01 0.100000000000D+01
  </mgrwgt>
  </event>
  <event>
  4     66 0.46888340E-03 0.19584443E+03 0.75467711E-02 0.11474082E+00
       -2 -1    0    0    0  501 0.00000000E+00 0.00000000E+00 0.31146773E+02 0.31148417E+02 0.32000000E+00 0.0000E+00 0.9000E+01
        2 -1    0    0  501    0 0.00000000E+00 0.00000000E+00 -.18524370E+04 0.18524370E+04 0.32000000E+00 0.0000E+00 0.9000E+01
       25  1    1    2    0    0 -.39074044E+02 0.15794051E+03 -.39458798E+03 0.44474336E+03 0.12500000E+03 0.0000E+00 0.9000E+01
       23  1    1    2    0    0 0.39074044E+02 -.15794051E+03 -.14267022E+04 0.14388420E+04 0.91188000E+02 0.0000E+00 0.9000E+01
#aMCatNLO 1  0  0  2  1 0.13569652D+02 0.00000000D+00  -5  5  0 0.00000000D+00 0.00000000D+00 0.00000000D+00 0.00000000D+00 0.00000000D+00
  <mgrwgt>
 0.9971786670D-01    4    2    0
 0.240206177461397D+03 0.000000000000000D+00 0.000000000000000D+00 0.240206177461397D+03
 0.240206177461397D+03 0.000000000000000D+00 0.000000000000000D+00 -.240206177461397D+03
 0.247813963336486D+03 -.390740439326338D+02 0.157940505435052D+03 0.138977610636419D+03
 0.232598391586308D+03 0.390740439326338D+02 -.157940505435052D+03 -.138977610636419D+03
 0.000000000000000D+00 0.000000000000000D+00 0.000000000000000D+00 0.000000000000000D+00
 0.269839061624760D+03 0.000000000000000D+00 0.000000000000000D+00 0.269839061624760D+03
 0.241860490847238D+03 0.000000000000000D+00 0.000000000000000D+00 -.241860490847238D+03
 0.245423367571478D+03 -.438509373257740D+02 0.152872327082332D+03 0.138977610636419D+03
 0.235180592275322D+03 0.345437089449209D+02 -.162747090766906D+03 -.138977610636419D+03
 0.310955926251993D+02 0.930722838085311D+01 0.987476368457343D+01 0.279785707775222D+02
0.706759289391D-03 0.000000000000D+00 0.000000000000D+00 0.734740667173D-03 0.000000000000D+00  5 -2 2 25 23 21 0 0.47919398D-02 0.28499043D+00 0.38355041D+05 0.38355041D+05 0.38355041D+05 0.12038567D+01  1  2  2  2  5  2        2 0.131736351054D+00 0.100000000000D+01
-.372742166416D-04 0.000000000000D+00 -.271414176526D-05 0.734740667173D-03 0.000000000000D+00  5 -2 2 25 23 21 2 0.47919398D-02 0.28499043D+00 0.38355041D+05 0.38355041D+05 0.38355041D+05 0.12038567D+01  1  2  3  2  5  2        2 -.100691361209D-01 0.100000000000D+01
0.483880794113D-04 0.000000000000D+00 0.000000000000D+00 0.734740667173D-03 0.000000000000D+00  5 -2 2 25 23 21 2 0.47919398D-02 0.28499043D+00 0.38355041D+05 0.38355041D+05 0.38355041D+05 0.12038567D+01  1  2 15  2  5  2        2 0.130713990023D-01 0.100000000000D+01
-.129640805695D-03 0.000000000000D+00 0.000000000000D+00 0.734740667173D-03 0.000000000000D+00  5 -2 2 25 23 21 2 0.47919398D-02 0.28499043D+00 0.38355041D+05 0.38355041D+05 0.38355041D+05 0.12038567D+01  1  2  4  2  5  2        2 -.350207472345D-01 0.100000000000D+01
  </mgrwgt>
  </event>
  <event>
  4     66 0.46888340E-03 0.14173925E+03 0.75467711E-02 0.10557324E+00
       -2 -1    0    0    0  501 0.00000000E+00 0.00000000E+00 0.35808280E+02 0.35809710E+02 0.32000000E+00 0.0000E+00 0.9000E+01
        2 -1    0    0  501    0 0.00000000E+00 0.00000000E+00 -.83882875E+03 0.83882881E+03 0.32000000E+00 0.0000E+00 0.9000E+01
       25  1    1    2    0    0 0.85412693E+02 -.31476796E+02 -.67690679E+03 0.69434424E+03 0.12500000E+03 0.0000E+00 0.9000E+01
       23  1    1    2    0    0 -.85412693E+02 0.31476796E+02 -.12611368E+03 0.18029428E+03 0.91188000E+02 0.0000E+00 0.9000E+01
#aMCatNLO 1  0  0  1  1 0.31547063D+03 0.00000000D+00  -5  5  0 0.00000000D+00 0.00000000D+00 0.00000000D+00 0.00000000D+00 0.00000000D+00
  <mgrwgt>
 0.1749566661D+00    5    2    0
 0.173313780724066D+03 0.000000000000000D+00 0.000000000000000D+00 0.173313780724066D+03
 0.173313780724066D+03 0.000000000000000D+00 0.000000000000000D+00 -.173313780724066D+03
 0.183857876850556D+03 0.854126933679106D+02 -.314767961424972D+02 -.994615603951454D+02
 0.162769684597576D+03 -.854126933679106D+02 0.314767961424972D+02 0.994615603951454D+02
 0.000000000000000D+00 0.000000000000000D+00 -.000000000000000D+00 0.000000000000000D+00
 0.479568020856814D+03 0.000000000000000D+00 0.000000000000000D+00 0.479568020856814D+03
 0.335806972929223D+03 0.000000000000000D+00 0.000000000000000D+00 -.335806972929223D+03
 0.167771111895370D+03 -.494564607747990D+02 -.135499991882816D+02 -.994615603951454D+02
 0.300921093390965D+03 -.263263738112907D+03 0.551167424853430D+02 0.994615603951454D+02
 0.346682788499702D+03 0.312720198887706D+03 -.415667432970614D+02 0.143761047927590D+03
0.256257415931D-03 0.000000000000D+00 0.000000000000D+00 0.875071865280D-03 0.000000000000D+00  5 -2 2 25 23 21 0 0.55090808D-02 0.12905069D+00 0.20090014D+05 0.20090014D+05 0.20090014D+05 0.12336114D+01  1  2  2  1  5  1       -2 0.140380448813D+00 0.100000000000D+01
-.135364026767D-04 0.000000000000D+00 -.984095951301D-06 0.875071865280D-03 0.000000000000D+00  5 -2 2 25 23 21 2 0.55090808D-02 0.12905069D+00 0.20090014D+05 0.20090014D+05 0.20090014D+05 0.12336114D+01  1  2  3  1  5  1       -2 -.112847046216D-01 0.100000000000D+01
0.176684899685D-04 0.000000000000D+00 0.000000000000D+00 0.875071865280D-03 0.000000000000D+00  5 -2 2 25 23 21 2 0.55090808D-02 0.12905069D+00 0.20090014D+05 0.20090014D+05 0.20090014D+05 0.12336114D+01  1  2 15  1  5  1       -2 0.147294443854D-01 0.100000000000D+01
0.174633822530D-03 0.000000000000D+00 -.103314641425D-03 0.875071865280D-03 0.000000000000D+00  5 -2 2 25 23 21 2 0.30125123D-01 0.12905069D+00 0.20090014D+05 0.20090014D+05 0.20090014D+05 0.12336114D+01  1  2  5  1  5  1       -2 0.920845161230D-02 0.100000000000D+01
0.315832682428D-04 0.000000000000D+00 -.214783092045D-04 0.875071865280D-03 0.000000000000D+00  5 21 2 25 23 2 2 0.30125123D-01 0.12905069D+00 0.20090014D+05 0.20090014D+05 0.20090014D+05 0.12336114D+01  1  2  5  3  5  1       -2 0.219230259349D-01 0.100000000000D+01
  </mgrwgt>
  </event>
  <event>
  4     66 0.46888340E-03 0.10967796E+03 0.75467711E-02 0.12479735E+00
       -2 -1    0    0    0  501 0.00000000E+00 0.00000000E+00 0.12695040E+03 0.12695081E+03 0.32000000E+00 0.0000E+00 0.9000E+01
        2 -1    0    0  501    0 0.00000000E+00 0.00000000E+00 -.94756905E+02 0.94757445E+02 0.32000000E+00 0.0000E+00 0.9000E+01
       25  1    1    2    0    0 0.16718404E+02 0.75658330E+01 0.19067092E+02 0.12777050E+03 0.12500000E+03 0.0000E+00 0.9000E+01
       23  1    1    2    0    0 -.16718404E+02 -.75658330E+01 0.13126405E+02 0.93937749E+02 0.91188000E+02 0.0000E+00 0.9000E+01
#aMCatNLO 1  0  0  2  1 0.14357957D+02 0.00000000D+00  -5  5  0 0.00000000D+00 0.00000000D+00 0.00000000D+00 0.00000000D+00 0.00000000D+00
  <mgrwgt>
 0.9878495910D-01    4    2    0
 0.109679221892317D+03 0.000000000000000D+00 0.000000000000000D+00 0.109679221892317D+03
 0.109679221892317D+03 0.000000000000000D+00 0.000000000000000D+00 -.109679221892317D+03
 0.126340875143233D+03 0.167184043008084D+02 0.756583303254653D+01 0.519480621652547D+00
 0.930175686414020D+02 -.167184043008084D+02 -.756583303254653D+01 -.519480621652547D+00
 0.000000000000000D+00 -.000000000000000D+00 -.000000000000000D+00 0.000000000000000D+00
 0.138387709228620D+03 0.000000000000000D+00 0.000000000000000D+00 0.138387709228620D+03
 0.111723924383491D+03 0.000000000000000D+00 0.000000000000000D+00 -.111723924383491D+03
 0.127798226382355D+03 0.236748587652743D+02 0.121085865733206D+02 0.519480621652547D+00
 0.920296103267645D+02 -.116531771612518D+02 -.425810225667752D+01 -.519480621652547D+00
 0.302837969029921D+02 -.120216816040225D+02 -.785048431664303D+01 0.266637848451288D+02
0.143627749899D-03 0.000000000000D+00 0.000000000000D+00 0.188393763310D-02 0.000000000000D+00  5 -2 2 25 23 21 0 0.19530904D-01 0.14578058D-01 0.12029255D+05 0.12029255D+05 0.12029255D+05 0.12589002D+01  1  2  2  2  5  2        2 0.117547993877D+00 0.100000000000D+01
-.797931943753D-05 0.000000000000D+00 -.551568377666D-06 0.188393763310D-02 0.000000000000D+00  5 -2 2 25 23 21 2 0.19530904D-01 0.14578058D-01 0.12029255D+05 0.12029255D+05 0.12029255D+05 0.12589002D+01  1  2  3  2  5  2        2 -.103496416488D-01 0.100000000000D+01
0.991142629120D-05 0.000000000000D+00 0.000000000000D+00 0.188393763310D-02 0.000000000000D+00  5 -2 2 25 23 21 2 0.19530904D-01 0.14578058D-01 0.12029255D+05 0.12029255D+05 0.12029255D+05 0.12589002D+01  1  2 15  2  5  2        2 0.128556966726D-01 0.100000000000D+01
-.163979456890D-04 0.000000000000D+00 0.000000000000D+00 0.188393763310D-02 0.000000000000D+00  5 -2 2 25 23 21 2 0.19530904D-01 0.14578058D-01 0.12029255D+05 0.12029255D+05 0.12029255D+05 0.12589002D+01  1  2  4  2  5  2        2 -.212690897997D-01 0.100000000000D+01
  </mgrwgt>
  </event>
  <event>
  5     66 0.46888340E-03 0.16800460E+03 0.75467711E-02 0.11693207E+00
       21 -1    0    0  502  501 0.00000000E+00 0.00000000E+00 0.91208162E+03 0.91208193E+03 0.75000000E+00 0.0000E+00 0.9000E+01
        2 -1    0    0  501    0 0.00000000E+00 0.00000000E+00 -.46693701E+02 0.46694797E+02 0.32000000E+00 0.0000E+00 0.9000E+01
       25  1    1    2    0    0 -.90950175E+02 -.83443339E+02 0.66042377E+03 0.68338809E+03 0.12500000E+03 0.0000E+00 0.9000E+01
       23  1    1    2    0    0 0.10936715E+03 0.75231052E+02 0.16467943E+03 0.23033769E+03 0.91188000E+02 0.0000E+00 0.9000E+01
        2  1    1    2  502    0 -.18416976E+02 0.82122876E+01 0.40284719E+02 0.45050945E+02 0.32000000E+00 0.0000E+00 0.9000E+01
#aMCatNLO 2  0  0  1  2 0.20164986D+02 0.00000000D+00  -5  5  0 0.00000000D+00 0.00000000D+00 0.00000000D+00 0.00000000D+00 0.00000000D+00
  <mgrwgt>
 0.3162133506D-02    2    2    0
 0.196018419615298D+03 0.000000000000000D+00 0.000000000000000D+00 0.196018419615298D+03
 0.196018419615298D+03 0.000000000000000D+00 0.000000000000000D+00 -.196018419615298D+03
 0.205341202482268D+03 -.100524705964788D+03 -.791739740004591D+02 0.100827946366725D+03
 0.186695636748328D+03 0.100524705964788D+03 0.791739740004591D+02 -.100827946366725D+03
 0.000000000000000D+00 -.000000000000000D+00 0.000000000000000D+00 -.000000000000000D+00
 0.205908904755801D+03 0.000000000000000D+00 0.000000000000000D+00 0.205908904755801D+03
 0.206832317755776D+03 0.000000000000000D+00 0.000000000000000D+00 -.206832317755776D+03
 0.202548759645890D+03 -.909501752652478D+02 -.834433393673690D+02 0.100827946366725D+03
 0.190006344749588D+03 0.109367151284137D+03 0.752310517842261D+02 -.100827946366725D+03
 0.201861181160988D+02 -.184169760188889D+02 0.821228758314291D+01 -.923412999975080D+00
-.307530119402D-04 0.000000000000D+00 0.000000000000D+00 0.877437325005D-03 0.000000000000D+00  5 21 2 25 23 2 2 0.14381535D+00 0.68081213D-02 0.31841074D+05 0.31841074D+05 0.31841074D+05 0.12121930D+01  1  2 13  3  5  1       -2 -.191010485696D-01 0.100000000000D+01
0.360282956161D-04 0.000000000000D+00 0.000000000000D+00 0.877437325005D-03 0.154151200071D-06  5 21 2 25 23 2 2 0.14031949D+00 0.71837102D-02 0.31841074D+05 0.31841074D+05 0.31841074D+05 0.12121930D+01  1  2  1  3  5  1       -2 0.222631820751D-01 0.100000000000D+01
  </mgrwgt>
  </event>
  <event>
  4     66 0.46888340E-03 0.14165055E+03 0.75467711E-02 0.11236932E+00
       -2 -1    0    0    0  501 0.00000000E+00 0.00000000E+00 0.19300676E+03 0.19300703E+03 0.32000000E+00 0.0000E+00 0.9000E+01
        2 -1    0    0  501    0 0.00000000E+00 0.00000000E+00 -.10439995E+03 0.10440044E+03 0.32000000E+00 0.0000E+00 0.9000E+01
       25  1    1    2    0    0 0.35606160E+02 -.83626502E+02 0.57946825E+02 0.16505764E+03 0.12500000E+03 0.0000E+00 0.9000E+01
       23  1    1    2    0    0 -.35606160E+02 0.83626502E+02 0.30659986E+02 0.13234983E+03 0.91188000E+02 0.0000E+00 0.9000E+01
#aMCatNLO 1  0  0  1  2 0.14858713D+03 0.00000000D+00  -5  5  0 0.00000000D+00 0.00000000D+00 0.00000000D+00 0.00000000D+00 0.00000000D+00
  <mgrwgt>
 0.1021637412D+00    5    2    0
 0.141950726354754D+03 0.000000000000000D+00 0.000000000000000D+00 0.141950726354754D+03
 0.141950726354754D+03 0.000000000000000D+00 0.000000000000000D+00 -.141950726354754D+03
 0.154824469314215D+03 0.356061595095718D+02 -.836265020411576D+02 0.918835457346145D+01
 0.129076983395292D+03 -.356061595095718D+02 0.836265020411576D+02 -.918835457346145D+01
 0.000000000000000D+00 -.000000000000000D+00 -.000000000000000D+00 0.000000000000000D+00
 0.614464465873171D+03 0.000000000000000D+00 0.000000000000000D+00 0.614464465873171D+03
 0.172368117026466D+03 0.000000000000000D+00 0.000000000000000D+00 -.172368117026466D+03
 0.192038080715757D+03 0.120848979992988D+03 -.810229758764658D+02 0.918835457346145D+01
 0.128396264314292D+03 0.276688923283788D+02 0.855590783226333D+02 -.918835457346145D+01
 0.466398237869587D+03 -.148517872321367D+03 -.453610244616747D+01 0.442096348846705D+03
0.354323905434D-03 0.000000000000D+00 0.000000000000D+00 0.140372043795D-02 0.000000000000D+00  5 -2 2 25 23 21 0 0.29693406D-01 0.16061589D-01 0.20064880D+05 0.20064880D+05 0.20064880D+05 0.12336712D+01  1  2  2  1  5  1       -2 0.127510565314D+00 0.100000000000D+01
-.196845541643D-04 0.000000000000D+00 -.136069709249D-05 0.140372043795D-02 0.000000000000D+00  5 -2 2 25 23 21 2 0.29693406D-01 0.16061589D-01 0.20064880D+05 0.20064880D+05 0.20064880D+05 0.12336712D+01  1  2  3  1  5  1       -2 -.107812761502D-01 0.100000000000D+01
0.244757672608D-04 0.000000000000D+00 0.000000000000D+00 0.140372043795D-02 0.000000000000D+00  5 -2 2 25 23 21 2 0.29693406D-01 0.16061589D-01 0.20064880D+05 0.20064880D+05 0.20064880D+05 0.12336712D+01  1  2 15  1  5  1       -2 0.134054347193D-01 0.100000000000D+01
-.426483793553D-03 0.000000000000D+00 -.127807291721D-03 0.140372043795D-02 0.000000000000D+00  5 -2 2 25 23 21 2 0.14305949D+00 0.16061589D-01 0.20064880D+05 0.20064880D+05 0.20064880D+05 0.12336712D+01  1  2  5  1  5  1       -2 -.843011209383D-02 0.100000000000D+01
-.842646047083D-04 0.000000000000D+00 -.244334794657D-04 0.140372043795D-02 0.000000000000D+00  5 21 2 25 23 2 2 0.14305949D+00 0.16061589D-01 0.20064880D+05 0.20064880D+05 0.20064880D+05 0.12336712D+01  1  2  5  3  5  1       -2 -.195408705866D-01 0.100000000000D+01
  </mgrwgt>
  </event>
  <event>
  5     66 -.46888340E-03 0.30385100E+03 0.75467711E-02 0.10764551E+00
       -2 -1    0    0    0  501 0.00000000E+00 0.00000000E+00 0.34362664E+03 0.34362679E+03 0.32000000E+00 0.0000E+00 0.9000E+01
        2 -1    0    0  502    0 0.00000000E+00 0.00000000E+00 -.38213037E+03 0.38213051E+03 0.32000000E+00 0.0000E+00 0.9000E+01
       25  1    1    2    0    0 0.16149490E+03 -.22088807E+03 0.15078728E+03 0.33650252E+03 0.12500000E+03 0.0000E+00 0.9000E+01
       23  1    1    2    0    0 -.18940125E+03 0.22449031E+03 -.18924635E+03 0.36110686E+03 0.91188000E+02 0.0000E+00 0.9000E+01
       21  1    1    2  502  501 0.27906347E+02 -.36022322E+01 -.44661628E-01 0.28147908E+02 0.75000000E+00 0.0000E+00 0.9000E+01
#aMCatNLO 2  0  0  2  1 0.28137879D+02 0.00000000D+00  -5  5  0 0.00000000D+00 0.00000000D+00 0.00000000D+00 0.00000000D+00 0.00000000D+00
  <mgrwgt>
 -.1224387676D+00    3    2    0
 0.347989946919488D+03 0.000000000000000D+00 0.000000000000000D+00 0.347989946919488D+03
 0.347989946919488D+03 0.000000000000000D+00 0.000000000000000D+00 -.347989946919488D+03
 0.353241354841404D+03 0.175494525898456D+03 -.222695186594686D+03 0.169596521242108D+03
 0.342738538997573D+03 -.175494525898456D+03 0.222695186594686D+03 -.169596521242108D+03
 0.000000000000000D+00 0.000000000000000D+00 -.000000000000000D+00 0.000000000000000D+00
 0.363118096856286D+03 0.000000000000000D+00 0.000000000000000D+00 0.363118096856286D+03
 0.361608694863724D+03 0.000000000000000D+00 0.000000000000000D+00 -.361608694863724D+03
 0.345340593794799D+03 0.161494904307849D+03 -.220888074797437D+03 0.169596521242108D+03
 0.351207863158459D+03 -.189401250876554D+03 0.224490307027504D+03 -.169596521242108D+03
 0.281783347667518D+02 0.279063465687047D+02 -.360223223006655D+01 0.150940199256123D+01
-.926773774227D-02 0.000000000000D+00 0.000000000000D+00 0.758063507106D-03 0.000000000000D+00  5 -2 2 25 23 21 2 0.50662483D-01 0.59968677D-01 0.10128637D+06 0.10128637D+06 0.10128637D+06 0.11630621D+01  1  2 13  2  5  2        2 -.386941265754D+00 0.100000000000D+01
-.558798210421D-03 0.000000000000D+00 0.000000000000D+00 0.758063507106D-03 0.000000000000D+00  5 -2 2 25 23 21 2 0.50662483D-01 0.56574434D-01 0.92325429D+05 0.92325429D+05 0.92325429D+05 0.11667708D+01  1  2  8  2  5  2        2 -.250409592430D-01 0.100000000000D+01
0.739524308021D-02 0.000000000000D+00 0.000000000000D+00 0.758063507106D-03 0.691670232817D-05  5 -2 2 25 23 21 2 0.52864930D-01 0.58788500D-01 0.10128637D+06 0.10128637D+06 0.10128637D+06 0.11630621D+01  1  2  1  2  5  2        2 0.289543457358D+00 0.100000000000D+01
  </mgrwgt>
  </event>
  <event>
  5     66 -.46888340E-03 0.11108971E+03 0.75467711E-02 0.12442744E+00
       -2 -1    0    0    0  502 0.00000000E+00 0.00000000E+00 0.35405838E+01 0.35550153E+01 0.32000000E+00 0.0000E+00 0.9000E+01
        2 -1    0    0  501    0 0.00000000E+00 0.00000000E+00 -.45360085E+04 0.45360085E+04 0.32000000E+00 0.0000E+00 0.9000E+01
       25  1    1    2    0    0 0.24365105E+02 0.21197982E+02 -.17435927E+04 0.17483659E+04 0.12500000E+03 0.0000E+00 0.9000E+01
       23  1    1    2    0    0 -.20262033E+02 -.58593634E+01 -.25890130E+04 0.25907043E+04 0.91188000E+02 0.0000E+00 0.9000E+01
       21  1    1    2  501  502 -.41030720E+01 -.15338618E+02 -.19986217E+03 0.20049329E+03 0.75000000E+00 0.0000E+00 0.9000E+01
#aMCatNLO 2  0  0  1  2 0.15877922D+02 0.00000000D+00  -5  5  0 0.00000000D+00 0.00000000D+00 0.00000000D+00 0.00000000D+00 0.00000000D+00
  <mgrwgt>
 -.3191606829D-01    2    2    0
 0.118116349159600D+03 0.000000000000000D+00 0.000000000000000D+00 0.118116349159600D+03
 0.118116349159600D+03 0.000000000000000D+00 0.000000000000000D+00 -.118116349159600D+03
 0.133587849735111D+03 0.220344962629194D+02 0.124854062808082D+02 0.397405234149378D+02
 0.102644848584090D+03 -.220344962629194D+02 -.124854062808082D+02 -.397405234149378D+02
 0.000000000000000D+00 -.000000000000000D+00 -.000000000000000D+00 0.000000000000000D+00
 0.129931808479468D+03 0.000000000000000D+00 0.000000000000000D+00 0.129931808479468D+03
 0.123840233303548D+03 0.000000000000000D+00 0.000000000000000D+00 -.123840233303548D+03
 0.135082648750567D+03 0.243651054376705D+02 0.211979817243785D+02 0.397405234149378D+02
 0.101683050129131D+03 -.202620334205800D+02 -.585936344097615D+01 -.397405234149378D+02
 0.170063429033181D+02 -.410307201709047D+01 -.153386182834023D+02 0.609157517591996D+01
-.446987762939D-03 0.000000000000D+00 0.000000000000D+00 0.156236908075D-02 0.000000000000D+00  5 -2 2 25 23 21 2 0.55688100D-03 0.66555034D+00 0.14229885D+05 0.14229885D+05 0.14229885D+05 0.12504405D+01  1  2 13  1  5  1       -2 -.889645372956D-01 0.100000000000D+01
0.425820199712D-03 0.000000000000D+00 0.000000000000D+00 0.156236908075D-02 0.520038967540D-04  5 -2 2 25 23 21 2 0.54578032D-03 0.69780272D+00 0.14229885D+05 0.14229885D+05 0.14229885D+05 0.12504405D+01  1  2  1  1  5  1       -2 0.570484690039D-01 0.100000000000D+01
  </mgrwgt>
  </event>
  <event>
  4     66 0.46888340E-03 0.11601114E+03 0.75467711E-02 0.12006242E+00
       -2 -1    0    0    0  501 0.00000000E+00 0.00000000E+00 0.75270381E+02 0.75271061E+02 0.32000000E+00 0.0000E+00 0.9000E+01
        2 -1    0    0  501    0 0.00000000E+00 0.00000000E+00 -.49176930E+03 0.49176940E+03 0.32000000E+00 0.0000E+00 0.9000E+01
       25  1    1    2    0    0 -.96980628E+02 -.89993800E+01 -.34180312E+02 0.16210961E+03 0.12500000E+03 0.0000E+00 0.9000E+01
       23  1    1    2    0    0 0.96980628E+02 0.89993800E+01 -.38231860E+03 0.40493085E+03 0.91188000E+02 0.0000E+00 0.9000E+01
#aMCatNLO 1  0  0  2  1 0.79723905D+01 0.00000000D+00  -5  5  0 0.00000000D+00 0.00000000D+00 0.00000000D+00 0.00000000D+00 0.00000000D+00
  <mgrwgt>
 0.2011508272D+00   11    2    0
 0.192395126620703D+03 0.000000000000000D+00 0.000000000000000D+00 0.192395126620703D+03
 0.192395126620703D+03 0.000000000000000D+00 0.000000000000000D+00 -.192395126620703D+03
 0.201893481366469D+03 -.969806283469552D+02 -.899938003748879D+01 0.125098947648026D+03
 0.182896771874937D+03 0.969806283469552D+02 0.899938003748879D+01 -.125098947648026D+03
 0.000000000000000D+00 0.000000000000000D+00 -.000000000000000D+00 -.000000000000000D+00
 0.194431821750228D+03 0.000000000000000D+00 0.000000000000000D+00 0.194431821750228D+03
 0.200399588473490D+03 0.000000000000000D+00 0.000000000000000D+00 -.200399588473490D+03
 0.203939331491062D+03 -.101182311774327D+03 -.886814582539622D+01 0.125098947648026D+03
 0.180933502051952D+03 0.932138071735489D+02 0.911703188283374D+01 -.125098947648026D+03
 0.995857668070460D+01 0.796850460077817D+01 -.248886057437510D+00 -.596776672326120D+01
0.267698901281D-03 0.000000000000D+00 0.000000000000D+00 0.723871936371D-03 0.000000000000D+00  5 -2 2 25 23 21 0 0.11580119D-01 0.75656875D-01 0.21299568D+05 0.21299568D+05 0.21299568D+05 0.12308274D+01  1  2  2  2  5  2        2 0.867286844196D-01 0.100000000000D+01
-.134914203127D-04 0.000000000000D+00 -.102803426766D-05 0.723871936371D-03 0.000000000000D+00  5 -2 2 25 23 21 2 0.11580119D-01 0.75656875D-01 0.21299568D+05 0.21299568D+05 0.21299568D+05 0.12308274D+01  1  2  3  2  5  2        2 -.662167913877D-02 0.100000000000D+01
0.181890632602D-04 0.000000000000D+00 0.000000000000D+00 0.723871936371D-03 0.000000000000D+00  5 -2 2 25 23 21 2 0.11580119D-01 0.75656875D-01 0.21299568D+05 0.21299568D+05 0.21299568D+05 0.12308274D+01  1  2 15  2  5  2        2 0.892731365213D-02 0.100000000000D+01
0.112276759967D-02 0.000000000000D+00 0.000000000000D+00 0.723871936371D-03 0.000000000000D+00  5 -2 2 25 23 21 2 0.11580119D-01 0.79194175D-01 0.22463118D+05 0.22463118D+05 0.22463118D+05 0.12283114D+01  1  2 12  2  5  2        2 0.522378302794D+00 0.100000000000D+01
-.113817418462D-02 0.000000000000D+00 0.000000000000D+00 0.723871936371D-03 0.000000000000D+00  5 -2 2 25 23 21 2 0.11580119D-01 0.75656875D-01 0.21299568D+05 0.21299568D+05 0.21299568D+05 0.12308274D+01  1  2  4  2  5  2        2 -.558623486625D+00 0.100000000000D+01
-.606381387060D-02 0.000000000000D+00 -.836643751834D-03 0.723871936371D-03 0.000000000000D+00  5 -2 2 25 23 21 2 0.11580119D-01 0.79403954D-01 0.21299568D+05 0.21299568D+05 0.21299568D+05 0.12308274D+01  1  2  5  2  5  2        2 -.282170019734D+01 0.100000000000D+01
0.609810742724D-02 0.000000000000D+00 0.835667192705D-03 0.723871936371D-03 0.000000000000D+00  5 -2 2 25 23 21 2 0.11580119D-01 0.75656875D-01 0.21299568D+05 0.21299568D+05 0.21299568D+05 0.12308274D+01  1  2  6  2  5  2        2 0.299299182749D+01 0.100000000000D+01
0.122136608581D-04 0.000000000000D+00 0.000000000000D+00 0.723871936371D-03 0.916807991143D-04  5 -2 2 25 23 21 2 0.11702706D-01 0.78804525D-01 0.22463118D+05 0.22463118D+05 0.22463118D+05 0.12283114D+01  1  2 11  2  5  2        2 0.561841737241D-02 0.100000000000D+01
0.179872031211D-04 0.000000000000D+00 0.000000000000D+00 0.723871936371D-03 0.000000000000D+00  5 -2 21 25 23 -2 2 0.11580119D-01 0.79194175D-01 0.22463118D+05 0.22463118D+05 0.22463118D+05 0.12283114D+01  1  2 12  4  5  2        2 0.158727269801D-01 0.100000000000D+01
-.504975326060D-04 0.000000000000D+00 -.706245382199D-05 0.723871936371D-03 0.000000000000D+00  5 -2 21 25 23 -2 2 0.11580119D-01 0.79403954D-01 0.21299568D+05 0.21299568D+05 0.21299568D+05 0.12308274D+01  1  2  5  4  5  2        2 -.445105736267D-01 0.100000000000D+01
0.101998956654D-06 0.000000000000D+00 0.000000000000D+00 0.723871936371D-03 0.676812289559D-06  5 -2 21 25 23 -2 2 0.11702706D-01 0.78804525D-01 0.22463118D+05 0.22463118D+05 0.22463118D+05 0.12283114D+01  1  2 11  4  5  2        2 0.894912149452D-04 0.100000000000D+01
  </mgrwgt>
  </event>
  <event>
  4     66 0.46888340E-03 0.17729265E+03 0.75467711E-02 0.11029844E+00
       -2 -1    0    0    0  501 0.00000000E+00 0.00000000E+00 0.38969427E+02 0.38970740E+02 0.32000000E+00 0.0000E+00 0.9000E+01
        2 -1    0    0  501    0 0.00000000E+00 0.00000000E+00 -.10813074E+04 0.10813074E+04 0.32000000E+00 0.0000E+00 0.9000E+01
       25  1    1    2    0    0 -.13794643E+03 0.23228912E+02 -.26178888E+03 0.32206710E+03 0.12500000E+03 0.0000E+00 0.9000E+01
       23  1    1    2    0    0 0.13794643E+03 -.23228912E+02 -.78054907E+03 0.79821106E+03 0.91188000E+02 0.0000E+00 0.9000E+01
#aMCatNLO 1  0  0  1  2 0.15125637D+03 0.00000000D+00  -5  5  0 0.00000000D+00 0.00000000D+00 0.00000000D+00 0.00000000D+00 0.00000000D+00
  <mgrwgt>
 0.1488737938D+00    3    2    0
 0.205277107606620D+03 0.000000000000000D+00 0.000000000000000D+00 0.205277107606620D+03
 0.205277107606620D+03 0.000000000000000D+00 0.000000000000000D+00 -.205277107606620D+03
 0.214179401609622D+03 -.137946430579433D+03 0.232289124860004D+02 0.103339324504117D+03
 0.196374813603618D+03 0.137946430579433D+03 -.232289124860004D+02 -.103339324504117D+03
 0.000000000000000D+00 -.000000000000000D+00 0.000000000000000D+00 -.000000000000000D+00
 0.281259596132047D+03 0.000000000000000D+00 0.000000000000000D+00 0.281259596132047D+03
 0.310287929718403D+03 0.000000000000000D+00 0.000000000000000D+00 -.310287929718403D+03
 0.176773454712784D+03 -.687143490455749D+02 0.149390942619845D+02 0.103339324504117D+03
 0.260757404768161D+03 0.218897917446099D+03 -.329220070199308D+02 -.103339324504117D+03
 0.154016666369505D+03 -.150183568400524D+03 0.179829127579463D+02 -.290283335863556D+02
0.423627178986D-03 0.000000000000D+00 0.000000000000D+00 0.868740390387D-03 0.000000000000D+00  5 -2 2 25 23 21 0 0.59954011D-02 0.16635509D+00 0.31432682D+05 0.31432682D+05 0.31432682D+05 0.12127778D+01  1  2  2  1  5  1       -2 0.145756166072D+00 0.100000000000D+01
-.229202068703D-04 0.000000000000D+00 -.162683991091D-05 0.868740390387D-03 0.000000000000D+00  5 -2 2 25 23 21 2 0.59954011D-02 0.16635509D+00 0.31432682D+05 0.31432682D+05 0.31432682D+05 0.12127778D+01  1  2  3  1  5  1       -2 -.115990947698D-01 0.100000000000D+01
0.290807456059D-04 0.000000000000D+00 0.000000000000D+00 0.868740390387D-03 0.000000000000D+00  5 -2 2 25 23 21 2 0.59954011D-02 0.16635509D+00 0.31432682D+05 0.31432682D+05 0.31432682D+05 0.12127778D+01  1  2 15  1  5  1       -2 0.147167225047D-01 0.100000000000D+01
  </mgrwgt>
  </event>
  <event>
  5     66 0.46888340E-03 0.16768284E+03 0.75467711E-02 0.11661195E+00
       -2 -1    0    0    0  501 0.00000000E+00 0.00000000E+00 0.44151564E+03 0.44151576E+03 0.32000000E+00 0.0000E+00 0.9000E+01
        2 -1    0    0  502    0 0.00000000E+00 0.00000000E+00 -.11244696E+03 0.11244741E+03 0.32000000E+00 0.0000E+00 0.9000E+01
       25  1    1    2    0    0 -.87999360E+02 -.11168541E+03 0.11023721E+02 0.18964187E+03 0.12500000E+03 0.0000E+00 0.9000E+01
       23  1    1    2    0    0 0.72916153E+02 0.88443553E+02 0.28999752E+03 0.32488897E+03 0.91188000E+02 0.0000E+00 0.9000E+01
       21  1    1    2  502  501 0.15083207E+02 0.23241857E+02 0.28047444E+02 0.39432330E+02 0.75000000E+00 0.0000E+00 0.9000E+01
#aMCatNLO 2  0  0  2  2 0.27707166D+02 0.00000000D+00  -5  5  0 0.00000000D+00 0.00000000D+00 0.00000000D+00 0.00000000D+00 0.00000000D+00
  <mgrwgt>
 0.9842579756D-01    1    2    0
 0.208182919092772D+03 0.000000000000000D+00 0.000000000000000D+00 0.208182919092772D+03
 0.208182919092772D+03 0.000000000000000D+00 0.000000000000000D+00 -.208182919092772D+03
 0.216960955119760D+03 -.799870099659129D+02 -.993391040015005D+02 -.123210700425615D+03
 0.199404883065783D+03 0.799870099659129D+02 0.993391040015005D+02 0.123210700425615D+03
 0.000000000000000D+00 0.000000000000000D+00 0.000000000000000D+00 0.000000000000000D+00
 0.225901722979134D+03 0.000000000000000D+00 0.000000000000000D+00 0.225901722979134D+03
 0.219763859716857D+03 0.000000000000000D+00 0.000000000000000D+00 -.219763859716857D+03
 0.225883586984750D+03 -.879993597795772D+02 -.111685410184639D+03 -.123210700425615D+03
 0.191403122920330D+03 0.729161529128697D+02 0.884435529853437D+02 0.123210700425615D+03
 0.283788727909114D+02 0.150832068667075D+02 0.232418571992951D+02 0.613786326227734D+01
0.100933194815D-02 0.000000000000D+00 0.000000000000D+00 0.765392528514D-03 0.781498598527D-05  5 -2 2 25 23 21 2 0.67924013D-01 0.17299190D-01 0.33033274D+05 0.33033274D+05 0.33033274D+05 0.12105325D+01  1  2  1  2  5  2        2 0.984257975593D-01 0.100000000000D+01
  </mgrwgt>
  </event>
  <event>
  4     66 0.46888340E-03 0.59119191E+02 0.75467711E-02 0.12113248E+00
       -2 -1    0    0    0  501 0.00000000E+00 0.00000000E+00 0.71338631E+02 0.71339349E+02 0.32000000E+00 0.0000E+00 0.9000E+01
        2 -1    0    0  501    0 0.00000000E+00 0.00000000E+00 -.23499769E+03 0.23499791E+03 0.32000000E+00 0.0000E+00 0.9000E+01
       25  1    1    2    0    0 -.29775798E+02 0.59508433E+02 -.62611125E+02 0.15483218E+03 0.12500000E+03 0.0000E+00 0.9000E+01
       23  1    1    2    0    0 0.29775798E+02 -.59508433E+02 -.10104794E+03 0.15150508E+03 0.91188000E+02 0.0000E+00 0.9000E+01
#aMCatNLO 1  0  0  2  1 0.27096424D+02 0.00000000D+00  -5  5  0 0.00000000D+00 0.00000000D+00 0.00000000D+00 0.00000000D+00 0.00000000D+00
  <mgrwgt>
 0.1992608444D+00    9    2    0
 0.129478018081012D+03 0.000000000000000D+00 0.000000000000000D+00 0.129478018081012D+03
 0.129478018081012D+03 0.000000000000000D+00 0.000000000000000D+00 -.129478018081012D+03
 0.143591897727028D+03 -.297757979427813D+02 0.595084331683438D+02 0.237861584029161D+02
 0.115364138434997D+03 0.297757979427813D+02 -.595084331683438D+02 -.237861584029161D+02
 0.000000000000000D+00 0.000000000000000D+00 -.000000000000000D+00 -.000000000000000D+00
 0.139034043041005D+03 0.000000000000000D+00 0.000000000000000D+00 0.139034043041005D+03
 0.150927518242785D+03 0.000000000000000D+00 0.000000000000000D+00 -.150927518242785D+03
 0.147601890733302D+03 -.449667597692779D+02 0.597789873812625D+02 0.237861584029161D+02
 0.112767932539109D+03 0.178746320563415D+02 -.592964709103909D+02 -.237861584029161D+02
 0.295917380113789D+02 0.270921277129364D+02 -.482516470871582D+00 -.118934752017805D+02
0.156647717830D-03 0.000000000000D+00 0.000000000000D+00 0.149605378187D-02 0.000000000000D+00  5 -2 2 25 23 21 0 0.10975246D-01 0.36153563D-01 0.16191729D+05 0.16191729D+05 0.16191729D+05 0.12440552D+01  1  2  2  2  5  2        2 0.120660331519D+00 0.100000000000D+01
-.869945361605D-05 0.000000000000D+00 -.601568482757D-06 0.149605378187D-02 0.000000000000D+00  5 -2 2 25 23 21 2 0.10975246D-01 0.36153563D-01 0.16191729D+05 0.16191729D+05 0.16191729D+05 0.12440552D+01  1  2  3  2  5  2        2 -.103707863267D-01 0.100000000000D+01
0.108249435979D-04 0.000000000000D+00 0.000000000000D+00 0.149605378187D-02 0.000000000000D+00  5 -2 2 25 23 21 2 0.10975246D-01 0.36153563D-01 0.16191729D+05 0.16191729D+05 0.16191729D+05 0.12440552D+01  1  2 15  2  5  2        2 0.129046239003D-01 0.100000000000D+01
0.222279637467D-03 0.000000000000D+00 0.000000000000D+00 0.149605378187D-02 0.000000000000D+00  5 -2 2 25 23 21 2 0.10975246D-01 0.43307749D-01 0.20022237D+05 0.20022237D+05 0.20022237D+05 0.12337729D+01  1  2 12  2  5  2        2 0.216629864178D+00 0.100000000000D+01
-.217568857475D-03 0.000000000000D+00 0.000000000000D+00 0.149605378187D-02 0.000000000000D+00  5 -2 2 25 23 21 2 0.10975246D-01 0.36153563D-01 0.16191729D+05 0.16191729D+05 0.16191729D+05 0.12440552D+01  1  2  4  2  5  2        2 -.259368028363D+00 0.100000000000D+01
-.492740012027D-03 0.000000000000D+00 -.126706453005D-03 0.149605378187D-02 0.000000000000D+00  5 -2 2 25 23 21 2 0.10975246D-01 0.44875448D-01 0.16191729D+05 0.16191729D+05 0.16191729D+05 0.12440552D+01  1  2  5  2  5  2        2 -.467043300582D+00 0.100000000000D+01
0.511044763701D-03 0.000000000000D+00 0.123803998590D-03 0.149605378187D-02 0.000000000000D+00  5 -2 2 25 23 21 2 0.10975246D-01 0.36153563D-01 0.16191729D+05 0.16191729D+05 0.16191729D+05 0.12440552D+01  1  2  6  2  5  2        2 0.609226312555D+00 0.100000000000D+01
0.587653848087D-05 0.000000000000D+00 0.000000000000D+00 0.149605378187D-02 0.000000000000D+00  5 -2 21 25 23 -2 2 0.10975246D-01 0.43307749D-01 0.20022237D+05 0.20022237D+05 0.20022237D+05 0.12337729D+01  1  2 12  4  5  2        2 0.205623485532D-01 0.100000000000D+01
-.132921064095D-04 0.000000000000D+00 -.384633661057D-05 0.149605378187D-02 0.000000000000D+00  5 -2 21 25 23 -2 2 0.10975246D-01 0.44875448D-01 0.16191729D+05 0.16191729D+05 0.16191729D+05 0.12440552D+01  1  2  5  4  5  2        2 -.439405209949D-01 0.100000000000D+01
  </mgrwgt>
  </event>
  <event>
  5     66 0.46888340E-03 0.15940474E+03 0.75467711E-02 0.10538484E+00
       -2 -1    0    0    0  501 0.00000000E+00 0.00000000E+00 0.62120855E+03 0.62120863E+03 0.32000000E+00 0.0000E+00 0.9000E+01
       21 -1    0    0  501  502 0.00000000E+00 0.00000000E+00 -.66062964E+03 0.66063007E+03 0.75000000E+00 0.0000E+00 0.9000E+01
       25  1    1    2    0    0 -.27774435E+02 0.36125257E+01 0.41654638E+03 0.43579853E+03 0.12500000E+03 0.0000E+00 0.9000E+01
       23  1    1    2    0    0 -.27880387E+03 -.72387227E+02 -.12303146E+02 0.30238738E+03 0.91188000E+02 0.0000E+00 0.9000E+01
       -2  1    1    2    0  502 0.30657831E+03 0.68774701E+02 -.44366433E+03 0.54365279E+03 0.32000000E+00 0.0000E+00 0.9000E+01
#aMCatNLO 2  0  0  2  1 0.31419774D+03 0.00000000D+00  -5  5  0 0.00000000D+00 0.00000000D+00 0.00000000D+00 0.00000000D+00 0.00000000D+00
  <mgrwgt>
 0.2231126351D-01    1    2    0
 0.265887958109578D+03 0.000000000000000D+00 0.000000000000000D+00 0.265887958109578D+03
 0.265887958109578D+03 0.000000000000000D+00 0.000000000000000D+00 -.265887958109578D+03
 0.272760917595945D+03 0.111181019072046D+03 0.347843980125259D+02 0.212608430737798D+03
 0.259014998623210D+03 -.111181019072046D+03 -.347843980125259D+02 -.212608430737798D+03
 0.000000000000000D+00 0.000000000000000D+00 0.000000000000000D+00 -.000000000000000D+00
 0.335860469981602D+03 0.000000000000000D+00 0.000000000000000D+00 0.335860469981602D+03
 0.122190338270198D+04 0.000000000000000D+00 0.000000000000000D+00 -.122190338270198D+04
 0.248217272586315D+03 -.277744351378662D+02 0.361252573310564D+01 0.212608430737798D+03
 0.369444319477596D+03 -.278803870939604D+03 -.723872266257475D+02 -.212608430737798D+03
 0.940102260619667D+03 0.306578306077470D+03 0.687747008926419D+02 -.886042912720374D+03
0.297976473678D-02 0.000000000000D+00 0.000000000000D+00 0.414463208692D-03 0.398839426047D-07  5 -2 21 25 23 -2 2 0.95570578D-01 0.10163536D+00 0.13854556D+06 0.13854556D+06 0.13854556D+06 0.11507845D+01  1  2  1  4  5  2        2 0.223112635068D-01 0.100000000000D+01
  </mgrwgt>
  </event>
  <event>
  4     66 0.46888340E-03 0.45994998E+02 0.75467711E-02 0.11736112E+00
       -2 -1    0    0    0  501 0.00000000E+00 0.00000000E+00 0.50676330E+01 0.50777263E+01 0.32000000E+00 0.0000E+00 0.9000E+01
        2 -1    0    0  501    0 0.00000000E+00 0.00000000E+00 -.36706317E+04 0.36706317E+04 0.32000000E+00 0.0000E+00 0.9000E+01
       25  1    1    2    0    0 0.53521360E+02 0.46776427E+02 -.25803622E+04 0.25843658E+04 0.12500000E+03 0.0000E+00 0.9000E+01
       23  1    1    2    0    0 -.53521360E+02 -.46776427E+02 -.10852019E+04 0.10913436E+04 0.91188000E+02 0.0000E+00 0.9000E+01
#aMCatNLO 1  0  0  2  1 0.77485385D+02 0.00000000D+00  -5  5  0 0.00000000D+00 0.00000000D+00 0.00000000D+00 0.00000000D+00 0.00000000D+00
  <mgrwgt>
 0.2439755097D+00    9    2    0
 0.136455084136219D+03 0.000000000000000D+00 0.000000000000000D+00 0.136455084136219D+03
 0.136455084136219D+03 0.000000000000000D+00 0.000000000000000D+00 -.136455084136219D+03
 0.149847308951937D+03 0.535213597105414D+02 0.467764273907510D+02 -.421502775249455D+02
 0.123062859320500D+03 -.535213597105414D+02 -.467764273907510D+02 0.421502775249455D+02
 0.000000000000000D+00 0.000000000000000D+00 -.000000000000000D+00 -.000000000000000D+00
 0.161128564800556D+03 0.000000000000000D+00 0.000000000000000D+00 0.161128564800556D+03
 0.219700549412511D+03 0.000000000000000D+00 0.000000000000000D+00 -.219700549412511D+03
 0.154416635574059D+03 0.235718178951824D+02 0.767282271898558D+02 -.421502775249455D+02
 0.129280288758942D+03 -.783601938911680D+02 -.219357205376077D+02 0.421502775249455D+02
 0.971321898800664D+02 0.547883759959856D+02 -.547925066522481D+02 -.585719846119554D+02
0.734080511068D-03 0.000000000000D+00 0.000000000000D+00 0.134862554398D-02 0.000000000000D+00  5 -2 2 25 23 21 0 0.78041332D-03 0.56471335D+00 0.16824200D+05 0.16824200D+05 0.16824200D+05 0.12421801D+01  1  2  2  2  5  2        2 0.179212473456D+00 0.100000000000D+01
-.406547484596D-04 0.000000000000D+00 -.281906245034D-05 0.134862554398D-02 0.000000000000D+00  5 -2 2 25 23 21 2 0.78041332D-03 0.56471335D+00 0.16824200D+05 0.16824200D+05 0.16824200D+05 0.12421801D+01  1  2  3  2  5  2        2 -.153145747775D-01 0.100000000000D+01
0.506667331877D-04 0.000000000000D+00 0.000000000000D+00 0.134862554398D-02 0.000000000000D+00  5 -2 2 25 23 21 2 0.78041332D-03 0.56471335D+00 0.16824200D+05 0.16824200D+05 0.16824200D+05 0.12421801D+01  1  2 15  2  5  2        2 0.190860724402D-01 0.100000000000D+01
0.123976170697D-03 0.000000000000D+00 0.000000000000D+00 0.134862554398D-02 0.000000000000D+00  5 -2 2 25 23 21 2 0.78041332D-03 0.93475359D+00 0.30320193D+05 0.30320193D+05 0.30320193D+05 0.12144148D+01  1  2 12  2  5  2        2 0.205105428526D-04 0.100000000000D+01
-.294483051882D-03 0.000000000000D+00 0.000000000000D+00 0.134862554398D-02 0.000000000000D+00  5 -2 2 25 23 21 2 0.78041332D-03 0.56471335D+00 0.16824200D+05 0.16824200D+05 0.16824200D+05 0.12421801D+01  1  2  4  2  5  2        2 -.110931266079D+00 0.100000000000D+01
-.374324639973D-03 0.000000000000D+00 -.148760216310D-03 0.134862554398D-02 0.000000000000D+00  5 -2 2 25 23 21 2 0.78041332D-03 0.91529010D+00 0.16824200D+05 0.16824200D+05 0.16824200D+05 0.12421801D+01  1  2  5  2  5  2        2 -.189790644828D-03 0.100000000000D+01
0.456843323701D-03 0.000000000000D+00 0.149168428829D-03 0.134862554398D-02 0.000000000000D+00  5 -2 2 25 23 21 2 0.78041332D-03 0.56471335D+00 0.16824200D+05 0.16824200D+05 0.16824200D+05 0.12421801D+01  1  2  6  2  5  2        2 0.172092105044D+00 0.100000000000D+01
0.703406644682D-05 0.000000000000D+00 0.000000000000D+00 0.134862554398D-02 0.000000000000D+00  5 -2 21 25 23 -2 2 0.78041332D-03 0.93475359D+00 0.30320193D+05 0.30320193D+05 0.30320193D+05 0.12144148D+01  1  2 12  4  5  2        2 0.250673467861D-08 0.100000000000D+01
-.140894979392D-04 0.000000000000D+00 -.816147434119D-05 0.134862554398D-02 0.000000000000D+00  5 -2 21 25 23 -2 2 0.78041332D-03 0.91529010D+00 0.16824200D+05 0.16824200D+05 0.16824200D+05 0.12421801D+01  1  2  5  4  5  2        2 -.228344765982D-07 0.100000000000D+01
  </mgrwgt>
  </event>
  <event>
  5     66 0.46888340E-03 0.16286207E+03 0.75467711E-02 0.10973080E+00
       21 -1    0    0  502  501 0.00000000E+00 0.00000000E+00 0.26164916E+02 0.26175663E+02 0.75000000E+00 0.0000E+00 0.9000E+01
        2 -1    0    0  501    0 0.00000000E+00 0.00000000E+00 -.33932983E+04 0.33932984E+04 0.32000000E+00 0.0000E+00 0.9000E+01
       25  1    1    2    0    0 0.44380560E+02 -.29028332E+02 -.48299095E+03 0.50171459E+03 0.12500000E+03 0.0000E+00 0.9000E+01
       23  1    1    2    0    0 -.21355958E+03 -.39953928E+02 -.20700694E+04 0.20834363E+04 0.91188000E+02 0.0000E+00 0.9000E+01
        2  1    1    2  502    0 0.16917902E+03 0.68982259E+02 -.81407306E+03 0.83432317E+03 0.32000000E+00 0.0000E+00 0.9000E+01
#aMCatNLO 2  0  0  1  2 0.18270220D+03 0.00000000D+00  -5  5  0 0.00000000D+00 0.00000000D+00 0.00000000D+00 0.00000000D+00 0.00000000D+00
  <mgrwgt>
 0.1775583403D-01    1    2    0
 0.181319898830292D+03 0.000000000000000D+00 0.000000000000000D+00 0.181319898830292D+03
 0.181319898830292D+03 0.000000000000000D+00 0.000000000000000D+00 -.181319898830292D+03
 0.191398423999283D+03 0.121139103927473D+03 0.226974409802443D+01 0.795520111046087D+02
 0.171241373661301D+03 -.121139103927473D+03 -.226974409802443D+01 -.795520111046087D+02
 0.000000000000000D+00 0.000000000000000D+00 0.000000000000000D+00 0.000000000000000D+00
 0.331151141147896D+03 0.000000000000000D+00 0.000000000000000D+00 0.331151141147896D+03
 0.268166628830864D+03 0.000000000000000D+00 0.000000000000000D+00 -.268166628830864D+03
 0.157371536843112D+03 0.443805598418095D+02 -.290283317760907D+02 0.795520111046087D+02
 0.248692147439984D+03 -.213559579631993D+03 -.399539276032993D+02 -.795520111046087D+02
 0.193254085695664D+03 0.169179019790183D+03 0.689822593793900D+02 0.629845123170314D+02
0.219779543694D-04 0.000000000000D+00 0.000000000000D+00 0.991878469162D-03 0.308215755739D-07  5 21 2 25 23 2 2 0.40261977D-02 0.52204649D+00 0.76759859D+05 0.76759859D+05 0.76759859D+05 0.11742733D+01  1  2  1  3  5  1       -2 0.177558340336D-01 0.100000000000D+01
  </mgrwgt>
  </event>
  <event>
  4     66 0.46888340E-03 0.11480675E+03 0.75467711E-02 0.11744470E+00
       -2 -1    0    0    0  501 0.00000000E+00 0.00000000E+00 0.25928205E+02 0.25930179E+02 0.32000000E+00 0.0000E+00 0.9000E+01
        2 -1    0    0  501    0 0.00000000E+00 0.00000000E+00 -.54141997E+03 0.54142006E+03 0.32000000E+00 0.0000E+00 0.9000E+01
       25  1    1    2    0    0 0.22214398E+02 -.31150465E+02 -.22180130E+03 0.25745805E+03 0.12500000E+03 0.0000E+00 0.9000E+01
       23  1    1    2    0    0 -.22214398E+02 0.31150465E+02 -.29369046E+03 0.30989219E+03 0.91188000E+02 0.0000E+00 0.9000E+01
#aMCatNLO 1  0  0  1  1 0.97496486D+02 0.00000000D+00  -5  5  0 0.00000000D+00 0.00000000D+00 0.00000000D+00 0.00000000D+00 0.00000000D+00
  <mgrwgt>
 0.1573209369D+00    3    2    0
 0.118484744612373D+03 0.000000000000000D+00 0.000000000000000D+00 0.118484744612373D+03
 0.118484744612373D+03 0.000000000000000D+00 0.000000000000000D+00 -.118484744612373D+03
 0.133908140847716D+03 0.222143978389528D+02 -.311504648427954D+02 0.290268712406666D+02
 0.103061348377031D+03 -.222143978389528D+02 0.311504648427954D+02 -.290268712406666D+02
 0.000000000000000D+00 -.000000000000000D+00 0.000000000000000D+00 -.000000000000000D+00
 0.165372243211627D+03 0.000000000000000D+00 0.000000000000000D+00 0.165372243211627D+03
 0.191914981144418D+03 0.000000000000000D+00 0.000000000000000D+00 -.191914981144418D+03
 0.159910871438091D+03 0.678270407062268D+02 -.671075263968462D+02 0.290268712406666D+02
 0.963314038133292D+02 0.873945475631404D+01 0.674912536457849D+01 -.290268712406666D+02
 0.101044949104625D+03 -.765664954625408D+02 0.603584010322677D+02 -.265427379327916D+02
0.105062399656D-03 0.000000000000D+00 0.000000000000D+00 0.162307090304D-02 0.000000000000D+00  5 -2 2 25 23 21 0 0.39891137D-02 0.83295539D-01 0.13180590D+05 0.13180590D+05 0.13180590D+05 0.12542757D+01  1  2  2  1  5  1       -2 0.153997730008D+00 0.100000000000D+01
-.582974309809D-05 0.000000000000D+00 -.403467278246D-06 0.162307090304D-02 0.000000000000D+00  5 -2 2 25 23 21 2 0.39891137D-02 0.83295539D-01 0.13180590D+05 0.13180590D+05 0.13180590D+05 0.12542757D+01  1  2  3  1  5  1       -2 -.134431931614D-01 0.100000000000D+01
0.727087708383D-05 0.000000000000D+00 0.000000000000D+00 0.162307090304D-02 0.000000000000D+00  5 -2 2 25 23 21 2 0.39891137D-02 0.83295539D-01 0.13180590D+05 0.13180590D+05 0.13180590D+05 0.12542757D+01  1  2 15  1  5  1       -2 0.167664000705D-01 0.100000000000D+01
  </mgrwgt>
  </event>
  <event>
  4     66 0.46888340E-03 0.13450783E+03 0.75467711E-02 0.11342648E+00
       -2 -1    0    0    0  501 0.00000000E+00 0.00000000E+00 0.13009306E+02 0.13013241E+02 0.32000000E+00 0.0000E+00 0.9000E+01
        2 -1    0    0  501    0 0.00000000E+00 0.00000000E+00 -.15725182E+04 0.15725182E+04 0.32000000E+00 0.0000E+00 0.9000E+01
       25  1    1    2    0    0 -.70120897E+02 0.37280978E+02 -.58091085E+03 0.59949081E+03 0.12500000E+03 0.0000E+00 0.9000E+01
       23  1    1    2    0    0 0.70120897E+02 -.37280978E+02 -.97859799E+03 0.98604062E+03 0.91188000E+02 0.0000E+00 0.9000E+01
#aMCatNLO 1  0  0  2  1 0.13797663D+03 0.00000000D+00  -5  5  0 0.00000000D+00 0.00000000D+00 0.00000000D+00 0.00000000D+00 0.00000000D+00
  <mgrwgt>
 0.1910205281D+00    3    2    0
 0.143040254715475D+03 0.000000000000000D+00 0.000000000000000D+00 0.143040254715475D+03
 0.143040254715475D+03 0.000000000000000D+00 0.000000000000000D+00 -.143040254715475D+03
 0.155815939208173D+03 -.701208969049614D+02 0.372809783706840D+02 0.484437341695838D+02
 0.130264570222778D+03 0.701208969049614D+02 -.372809783706840D+02 -.484437341695838D+02
 0.000000000000000D+00 0.000000000000000D+00 0.000000000000000D+00 0.000000000000000D+00
 0.234070946632562D+03 0.000000000000000D+00 0.000000000000000D+00 0.234070946632562D+03
 0.222044336487660D+03 0.000000000000000D+00 0.000000000000000D+00 -.222044336487660D+03
 0.203117416452507D+03 -.150875015096057D+03 0.228389865320759D+02 0.484437341695838D+02
 0.114498086407289D+03 0.150533134927457D+02 -.471292140771174D+02 -.484437341695838D+02
 0.138499780260426D+03 0.135821701603311D+03 0.242902275450415D+02 0.120266101449019D+02
0.198787336738D-03 0.000000000000D+00 0.000000000000D+00 0.126944111453D-02 0.000000000000D+00  5 -2 2 25 23 21 0 0.20017368D-02 0.24192617D+00 0.18092355D+05 0.18092355D+05 0.18092355D+05 0.12386478D+01  1  2  2  2  5  2        2 0.187097202775D+00 0.100000000000D+01
-.109929483328D-04 0.000000000000D+00 -.763395714982D-06 0.126944111453D-02 0.000000000000D+00  5 -2 2 25 23 21 2 0.20017368D-02 0.24192617D+00 0.18092355D+05 0.18092355D+05 0.18092355D+05 0.12386478D+01  1  2  3  2  5  2        2 -.158740764050D-01 0.100000000000D+01
0.137098883139D-04 0.000000000000D+00 0.000000000000D+00 0.126944111453D-02 0.000000000000D+00  5 -2 2 25 23 21 2 0.20017368D-02 0.24192617D+00 0.18092355D+05 0.18092355D+05 0.18092355D+05 0.12386478D+01  1  2 15  2  5  2        2 0.197974017534D-01 0.100000000000D+01
  </mgrwgt>
  </event>
  <event>
  4     66 0.46888340E-03 0.79089120E+02 0.75467711E-02 0.11610442E+00
       -2 -1    0    0    0  501 0.00000000E+00 0.00000000E+00 0.14547566E+02 0.14551085E+02 0.32000000E+00 0.0000E+00 0.9000E+01
        2 -1    0    0  501    0 0.00000000E+00 0.00000000E+00 -.22266671E+04 0.22266672E+04 0.32000000E+00 0.0000E+00 0.9000E+01
       25  1    1    2    0    0 -.14142482E+03 0.62330164E+01 -.10306785E+04 0.10478373E+04 0.12500000E+03 0.0000E+00 0.9000E+01
       23  1    1    2    0    0 0.14142482E+03 -.62330164E+01 -.11814411E+04 0.11933810E+04 0.91188000E+02 0.0000E+00 0.9000E+01
#aMCatNLO 1  0  0  2  1 0.16705614D+02 0.00000000D+00  -5  5  0 0.00000000D+00 0.00000000D+00 0.00000000D+00 0.00000000D+00 0.00000000D+00
  <mgrwgt>
 0.2949487687D+00    9    2    0
 0.179990433890551D+03 0.000000000000000D+00 0.000000000000000D+00 0.179990433890551D+03
 0.179990433890551D+03 0.000000000000000D+00 0.000000000000000D+00 -.179990433890551D+03
 0.190143402159471D+03 -.141424822603407D+03 0.623301643431163D+01 0.221287695659537D+02
 0.169837465621630D+03 0.141424822603407D+03 -.623301643431163D+01 -.221287695659537D+02
 0.000000000000000D+00 0.000000000000000D+00 0.000000000000000D+00 -.000000000000000D+00
 0.183520258593540D+03 0.000000000000000D+00 0.000000000000000D+00 0.183520258593540D+03
 0.201097507951375D+03 0.000000000000000D+00 0.000000000000000D+00 -.201097507951375D+03
 0.194481070621288D+03 -.147336366726766D+03 -.446572788477321D+00 0.221287695659537D+02
 0.165887216971940D+03 0.136264851215980D+03 -.120633863935173D+02 -.221287695659537D+02
 0.242494789516862D+02 0.110715155107860D+02 0.125099591819946D+02 -.175772493578355D+02
0.342810577045D-03 0.000000000000D+00 0.000000000000D+00 0.118126503947D-02 0.000000000000D+00  5 -2 2 25 23 21 0 0.22383595D-02 0.34256445D+00 0.31905287D+05 0.31905287D+05 0.31905287D+05 0.12121018D+01  1  2  2  2  5  2        2 0.126667209328D+00 0.100000000000D+01
-.190436803802D-04 0.000000000000D+00 -.131648287995D-05 0.118126503947D-02 0.000000000000D+00  5 -2 2 25 23 21 2 0.22383595D-02 0.34256445D+00 0.31905287D+05 0.31905287D+05 0.31905287D+05 0.12121018D+01  1  2  3  2  5  2        2 -.103380599134D-01 0.100000000000D+01
0.234938178996D-04 0.000000000000D+00 0.000000000000D+00 0.118126503947D-02 0.000000000000D+00  5 -2 2 25 23 21 2 0.22383595D-02 0.34256445D+00 0.31905287D+05 0.31905287D+05 0.31905287D+05 0.12121018D+01  1  2 15  2  5  2        2 0.127538633389D-01 0.100000000000D+01
0.117520128707D-02 0.000000000000D+00 0.000000000000D+00 0.118126503947D-02 0.000000000000D+00  5 -2 2 25 23 21 2 0.22383595D-02 0.38583943D+00 0.35030415D+05 0.35030415D+05 0.35030415D+05 0.12078954D+01  1  2 12  2  5  2        2 0.448559135246D+00 0.100000000000D+01
-.119437051484D-02 0.000000000000D+00 0.000000000000D+00 0.118126503947D-02 0.000000000000D+00  5 -2 2 25 23 21 2 0.22383595D-02 0.34256445D+00 0.31905287D+05 0.31905287D+05 0.31905287D+05 0.12121018D+01  1  2  4  2  5  2        2 -.648376453219D+00 0.100000000000D+01
-.226560409570D-02 0.000000000000D+00 -.326883263634D-03 0.118126503947D-02 0.000000000000D+00  5 -2 2 25 23 21 2 0.22383595D-02 0.38517922D+00 0.31905287D+05 0.31905287D+05 0.31905287D+05 0.12121018D+01  1  2  5  2  5  2        2 -.876140007675D+00 0.100000000000D+01
0.229040340484D-02 0.000000000000D+00 0.324649179039D-03 0.118126503947D-02 0.000000000000D+00  5 -2 2 25 23 21 2 0.22383595D-02 0.34256445D+00 0.31905287D+05 0.31905287D+05 0.31905287D+05 0.12121018D+01  1  2  6  2  5  2        2 0.124336930426D+01 0.100000000000D+01
0.221355157145D-04 0.000000000000D+00 0.000000000000D+00 0.118126503947D-02 0.000000000000D+00  5 -2 21 25 23 -2 2 0.22383595D-02 0.38583943D+00 0.35030415D+05 0.35030415D+05 0.35030415D+05 0.12078954D+01  1  2 12  4  5  2        2 0.174286962180D-02 0.100000000000D+01
-.407067658792D-04 0.000000000000D+00 -.608221401217D-05 0.118126503947D-02 0.000000000000D+00  5 -2 21 25 23 -2 2 0.22383595D-02 0.38517922D+00 0.31905287D+05 0.31905287D+05 0.31905287D+05 0.12121018D+01  1  2  5  4  5  2        2 -.328909225281D-02 0.100000000000D+01
  </mgrwgt>
  </event>
  <event>
  4     66 0.46888340E-03 0.75026904E+02 0.75467711E-02 0.11985378E+00
       -2 -1    0    0    0  501 0.00000000E+00 0.00000000E+00 0.46873428E+02 0.46874520E+02 0.32000000E+00 0.0000E+00 0.9000E+01
        2 -1    0    0  501    0 0.00000000E+00 0.00000000E+00 -.10251540E+04 0.10251540E+04 0.32000000E+00 0.0000E+00 0.9000E+01
       25  1    1    2    0    0 0.65095972E+02 0.49405560E+02 -.92753555E+03 0.93948156E+03 0.12500000E+03 0.0000E+00 0.9000E+01
       23  1    1    2    0    0 -.65095972E+02 -.49405560E+02 -.50744976E+02 0.13254697E+03 0.91188000E+02 0.0000E+00 0.9000E+01
#aMCatNLO 1  0  0  2  1 0.29237535D+02 0.00000000D+00  -5  5  0 0.00000000D+00 0.00000000D+00 0.00000000D+00 0.00000000D+00 0.00000000D+00
  <mgrwgt>
 0.1230109440D+00    9    2    0
 0.219210154672929D+03 0.000000000000000D+00 0.000000000000000D+00 0.219210154672929D+03
 0.219210154672929D+03 0.000000000000000D+00 0.000000000000000D+00 -.219210154672929D+03
 0.227546616853373D+03 0.650959722607634D+02 0.494055601891661D+02 -.171680132395208D+03
 0.210873692492486D+03 -.650959722607634D+02 -.494055601891661D+02 0.171680132395208D+03
 0.000000000000000D+00 0.000000000000000D+00 0.000000000000000D+00 -.000000000000000D+00
 0.224087720128608D+03 0.000000000000000D+00 0.000000000000000D+00 0.224087720128608D+03
 0.268370520462909D+03 0.000000000000000D+00 0.000000000000000D+00 -.268370520462909D+03
 0.224260903605880D+03 0.632930780133280D+02 0.344655088818997D+02 -.171680132395208D+03
 0.215133225983814D+03 -.667959116993720D+02 -.634924554511506D+02 0.171680132395208D+03
 0.530641110018233D+02 0.350283368604409D+01 0.290269465692510D+02 -.442828003343012D+02
0.340117310813D-03 0.000000000000D+00 0.000000000000D+00 0.484330069649D-03 0.000000000000D+00  5 -2 2 25 23 21 0 0.72113844D-02 0.15771608D+00 0.18467690D+05 0.18467690D+05 0.18467690D+05 0.12376554D+01  1  2  2  2  5  2        2 0.946312368066D-01 0.100000000000D+01
-.136430845612D-04 0.000000000000D+00 -.130614002847D-05 0.484330069649D-03 0.000000000000D+00  5 -2 2 25 23 21 2 0.72113844D-02 0.15771608D+00 0.18467690D+05 0.18467690D+05 0.18467690D+05 0.12376554D+01  1  2  3  2  5  2        2 -.581457327521D-02 0.100000000000D+01
0.230408792248D-04 0.000000000000D+00 0.000000000000D+00 0.484330069649D-03 0.000000000000D+00  5 -2 2 25 23 21 2 0.72113844D-02 0.15771608D+00 0.18467690D+05 0.18467690D+05 0.18467690D+05 0.12376554D+01  1  2 15  2  5  2        2 0.981983802684D-02 0.100000000000D+01
0.127616886893D-02 0.000000000000D+00 0.000000000000D+00 0.484330069649D-03 0.000000000000D+00  5 -2 2 25 23 21 2 0.72113844D-02 0.19457244D+00 0.22978259D+05 0.22978259D+05 0.22978259D+05 0.12272437D+01  1  2 12  2  5  2        2 0.391991486065D+00 0.100000000000D+01
-.131194936744D-02 0.000000000000D+00 0.000000000000D+00 0.484330069649D-03 0.000000000000D+00  5 -2 2 25 23 21 2 0.72113844D-02 0.15771608D+00 0.18467690D+05 0.18467690D+05 0.18467690D+05 0.12376554D+01  1  2  4  2  5  2        2 -.559142303643D+00 0.100000000000D+01
-.160281719576D-02 0.000000000000D+00 -.244471625283D-03 0.484330069649D-03 0.000000000000D+00  5 -2 2 25 23 21 2 0.72113844D-02 0.19494219D+00 0.18467690D+05 0.18467690D+05 0.18467690D+05 0.12376554D+01  1  2  5  2  5  2        2 -.498824580289D+00 0.100000000000D+01
0.162342436284D-02 0.000000000000D+00 0.239083555513D-03 0.484330069649D-03 0.000000000000D+00  5 -2 2 25 23 21 2 0.72113844D-02 0.15771608D+00 0.18467690D+05 0.18467690D+05 0.18467690D+05 0.12376554D+01  1  2  6  2  5  2        2 0.691890449856D+00 0.100000000000D+01
0.379070296432D-04 0.000000000000D+00 0.000000000000D+00 0.484330069649D-03 0.000000000000D+00  5 -2 21 25 23 -2 2 0.72113844D-02 0.19457244D+00 0.22978259D+05 0.22978259D+05 0.22978259D+05 0.12272437D+01  1  2 12  4  5  2        2 0.739355600316D-02 0.100000000000D+01
-.448279730117D-04 0.000000000000D+00 -.731152723669D-05 0.484330069649D-03 0.000000000000D+00  5 -2 21 25 23 -2 2 0.72113844D-02 0.19494219D+00 0.18467690D+05 0.18467690D+05 0.18467690D+05 0.12376554D+01  1  2  5  4  5  2        2 -.893416558677D-02 0.100000000000D+01
  </mgrwgt>
  </event>
  <event>
  4     66 0.46888340E-03 0.89949124E+02 0.75467711E-02 0.11148560E+00
       -2 -1    0    0    0  501 0.00000000E+00 0.00000000E+00 0.11777932E+02 0.11782278E+02 0.32000000E+00 0.0000E+00 0.9000E+01
        2 -1    0    0  501    0 0.00000000E+00 0.00000000E+00 -.33425909E+04 0.33425909E+04 0.32000000E+00 0.0000E+00 0.9000E+01
       25  1    1    2    0    0 -.12866505E+03 0.10055840E+03 -.15000586E+04 0.15140897E+04 0.12500000E+03 0.0000E+00 0.9000E+01
       23  1    1    2    0    0 0.12866505E+03 -.10055840E+03 -.18307544E+04 0.18402835E+04 0.91188000E+02 0.0000E+00 0.9000E+01
#aMCatNLO 1  0  0  2  1 0.91834817D+02 0.00000000D+00  -5  5  0 0.00000000D+00 0.00000000D+00 0.00000000D+00 0.00000000D+00 0.00000000D+00
  <mgrwgt>
 0.2607563280D+00    9    2    0
 0.198434180336168D+03 0.000000000000000D+00 0.000000000000000D+00 0.198434180336168D+03
 0.198434180336168D+03 0.000000000000000D+00 0.000000000000000D+00 -.198434180336168D+03
 0.207643466563491D+03 -.128665052591379D+03 0.100558398493041D+03 0.287075241126085D+02
 0.189224894108845D+03 0.128665052591379D+03 -.100558398493041D+03 -.287075241126085D+02
 0.000000000000000D+00 -.000000000000000D+00 -.000000000000000D+00 -.000000000000000D+00
 0.239078463662128D+03 0.000000000000000D+00 0.000000000000000D+00 0.239078463662128D+03
 0.263235493320434D+03 0.000000000000000D+00 0.000000000000000D+00 -.263235493320434D+03
 0.207581904850811D+03 -.942985124075569D+02 0.133225057097143D+03 0.287075241126085D+02
 0.199773136066877D+03 0.160860860833844D+03 -.699551003223738D+02 -.287075241126085D+02
 0.949589160648743D+02 -.665623484262872D+02 -.632699567747687D+02 -.241570296583062D+02
0.133434918045D-02 0.000000000000D+00 0.000000000000D+00 0.112012248203D-02 0.000000000000D+00  5 -2 2 25 23 21 0 0.18123251D-02 0.51424509D+00 0.38550185D+05 0.38550185D+05 0.38550185D+05 0.12036319D+01  1  2  2  2  5  2        2 0.155625104659D+00 0.100000000000D+01
-.741203840052D-04 0.000000000000D+00 -.512425219514D-05 0.112012248203D-02 0.000000000000D+00  5 -2 2 25 23 21 2 0.18123251D-02 0.51424509D+00 0.38550185D+05 0.38550185D+05 0.38550185D+05 0.12036319D+01  1  2  3  2  5  2        2 -.125237728443D-01 0.100000000000D+01
0.916968703673D-04 0.000000000000D+00 0.000000000000D+00 0.112012248203D-02 0.000000000000D+00  5 -2 2 25 23 21 2 0.18123251D-02 0.51424509D+00 0.38550185D+05 0.38550185D+05 0.38550185D+05 0.12036319D+01  1  2 15  2  5  2        2 0.154935891176D-01 0.100000000000D+01
0.386647958841D-03 0.000000000000D+00 0.000000000000D+00 0.112012248203D-02 0.000000000000D+00  5 -2 2 25 23 21 2 0.18123251D-02 0.72073031D+00 0.61286404D+05 0.61286404D+05 0.61286404D+05 0.11836255D+01  1  2 12  2  5  2        2 0.551310044023D-02 0.100000000000D+01
-.522691817828D-03 0.000000000000D+00 0.000000000000D+00 0.112012248203D-02 0.000000000000D+00  5 -2 2 25 23 21 2 0.18123251D-02 0.51424509D+00 0.38550185D+05 0.38550185D+05 0.38550185D+05 0.12036319D+01  1  2  4  2  5  2        2 -.883167792762D-01 0.100000000000D+01
-.112555284731D-02 0.000000000000D+00 -.401401243061D-03 0.112012248203D-02 0.000000000000D+00  5 -2 2 25 23 21 2 0.18123251D-02 0.70465474D+00 0.38550185D+05 0.38550185D+05 0.38550185D+05 0.12036319D+01  1  2  5  2  5  2        2 -.216072815335D-01 0.100000000000D+01
0.122263817596D-02 0.000000000000D+00 0.388423730761D-03 0.112012248203D-02 0.000000000000D+00  5 -2 2 25 23 21 2 0.18123251D-02 0.51424509D+00 0.38550185D+05 0.38550185D+05 0.38550185D+05 0.12036319D+01  1  2  6  2  5  2        2 0.206583424951D+00 0.100000000000D+01
0.162727072037D-04 0.000000000000D+00 0.000000000000D+00 0.112012248203D-02 0.000000000000D+00  5 -2 21 25 23 -2 2 0.18123251D-02 0.72073031D+00 0.61286404D+05 0.61286404D+05 0.61286404D+05 0.11836255D+01  1  2 12  4  5  2        2 0.460350755077D-05 0.100000000000D+01
-.353668166241D-04 0.000000000000D+00 -.160725466454D-04 0.112012248203D-02 0.000000000000D+00  5 -2 21 25 23 -2 2 0.18123251D-02 0.70465474D+00 0.38550185D+05 0.38550185D+05 0.38550185D+05 0.12036319D+01  1  2  5  4  5  2        2 -.156609908940D-04 0.100000000000D+01
  </mgrwgt>
  </event>
  <event>
  4     66 -.46888340E-03 0.14960604E+03 0.75467711E-02 0.11702460E+00
       -2 -1    0    0    0  501 0.00000000E+00 0.00000000E+00 0.55297383E+02 0.55298309E+02 0.32000000E+00 0.0000E+00 0.9000E+01
        2 -1    0    0  501    0 0.00000000E+00 0.00000000E+00 -.61421179E+03 0.61421187E+03 0.32000000E+00 0.0000E+00 0.9000E+01
       25  1    1    2    0    0 -.13024530E+03 -.50539384E+02 -.38666179E+03 0.42970968E+03 0.12500000E+03 0.0000E+00 0.9000E+01
       23  1    1    2    0    0 0.13024530E+03 0.50539384E+02 -.17225261E+03 0.23980050E+03 0.91188000E+02 0.0000E+00 0.9000E+01
#aMCatNLO 1  0  0  1  1 0.70066633D+00 0.00000000D+00  -5  5  0 0.00000000D+00 0.00000000D+00 0.00000000D+00 0.00000000D+00 0.00000000D+00
  <mgrwgt>
 -.9526395008D-01   10    2    0
 0.184294986299255D+03 0.000000000000000D+00 0.000000000000000D+00 0.184294986299255D+03
 0.184294986299255D+03 0.000000000000000D+00 0.000000000000000D+00 -.184294986299255D+03
 0.194210813097888D+03 -.130245295622597D+03 -.505393836158704D+02 -.507422269520466D+02
 0.174379159500621D+03 0.130245295622597D+03 0.505393836158704D+02 0.507422269520466D+02
 0.000000000000000D+00 0.000000000000000D+00 0.000000000000000D+00 0.000000000000000D+00
 0.185325323493446D+03 0.000000000000000D+00 0.000000000000000D+00 0.185325323493446D+03
 0.184414477362332D+03 0.000000000000000D+00 0.000000000000000D+00 -.184414477362332D+03
 0.194433844142742D+03 -.130461232473852D+03 -.508390890307330D+02 -.507422269520466D+02
 0.174156794416458D+03 0.130051643773703D+03 0.502706082430018D+02 0.507422269520466D+02
 0.114916229657742D+01 0.409588700149390D+00 0.568480787731141D+00 0.910846131114144D+00
0.200577197393D-03 0.000000000000D+00 0.000000000000D+00 0.110369798941D-02 0.000000000000D+00  5 -2 2 25 23 21 0 0.85073673D-02 0.94494199D-01 0.31381776D+05 0.31381776D+05 0.31381776D+05 0.12128512D+01  1  2  2  1  5  1       -2 0.829199020419D-01 0.100000000000D+01
-.111219889776D-04 0.000000000000D+00 -.770269251178D-06 0.110369798941D-02 0.000000000000D+00  5 -2 2 25 23 21 2 0.85073673D-02 0.94494199D-01 0.31381776D+05 0.31381776D+05 0.31381776D+05 0.12128512D+01  1  2  3  1  5  1       -2 -.676355079090D-02 0.100000000000D+01
0.137611058871D-04 0.000000000000D+00 0.000000000000D+00 0.110369798941D-02 0.000000000000D+00  5 -2 2 25 23 21 2 0.85073673D-02 0.94494199D-01 0.31381776D+05 0.31381776D+05 0.31381776D+05 0.12128512D+01  1  2 15  1  5  1       -2 0.836846168380D-02 0.100000000000D+01
-.195171983083D-01 0.000000000000D+00 0.000000000000D+00 0.110369798941D-02 0.000000000000D+00  5 -2 2 25 23 21 2 0.85073673D-02 0.94494199D-01 0.31381776D+05 0.31381776D+05 0.31381776D+05 0.12128512D+01  1  2  4  1  5  1       -2 -.118688808558D+02 0.100000000000D+01
-.537770779729D-01 0.000000000000D+00 -.378646312092D-02 0.110369798941D-02 0.000000000000D+00  5 -2 2 25 23 21 2 0.85600770D-02 0.94494199D-01 0.31381776D+05 0.31381776D+05 0.31381776D+05 0.12128512D+01  1  2  5  1  5  1       -2 -.323892596204D+02 0.100000000000D+01
0.537995116564D-01 0.000000000000D+00 0.378639089301D-02 0.110369798941D-02 0.000000000000D+00  5 -2 2 25 23 21 2 0.85073673D-02 0.94494199D-01 0.31381776D+05 0.31381776D+05 0.31381776D+05 0.12128512D+01  1  2  6  1  5  1       -2 0.327167856710D+02 0.100000000000D+01
0.195174238611D-01 0.000000000000D+00 0.000000000000D+00 0.110369798941D-02 0.176326884480D-01  5 -2 2 25 23 21 2 0.85549294D-02 0.94555466D-01 0.31505774D+05 0.31505774D+05 0.31505774D+05 0.12126725D+01  1  2 11  1  5  1       -2 0.117547493105D+02 0.100000000000D+01
0.455481323528D-11 0.000000000000D+00 0.000000000000D+00 0.110369798941D-02 0.000000000000D+00  5 21 2 25 23 2 2 0.85576787D-02 0.94494199D-01 0.31505774D+05 0.31505774D+05 0.31505774D+05 0.12126725D+01  1  2 12  3  5  1       -2 0.441199882073D-07 0.100000000000D+01
-.616537390102D-04 0.000000000000D+00 -.434484648873D-05 0.110369798941D-02 0.000000000000D+00  5 21 2 25 23 2 2 0.85600770D-02 0.94494199D-01 0.31381776D+05 0.31381776D+05 0.31381776D+05 0.12128512D+01  1  2  5  3  5  1       -2 -.597091068648D+00 0.100000000000D+01
0.210547978355D-04 0.000000000000D+00 0.000000000000D+00 0.110369798941D-02 0.182963319369D-04  5 21 2 25 23 2 2 0.85549294D-02 0.94555466D-01 0.31505774D+05 0.31505774D+05 0.31505774D+05 0.12126725D+01  1  2 11  3  5  1       -2 0.203907756282D+00 0.100000000000D+01
  </mgrwgt>
  </event>
  <event>
  5     66 0.46888340E-03 0.19425716E+03 0.75467711E-02 0.11466395E+00
       21 -1    0    0  502  501 0.00000000E+00 0.00000000E+00 0.95360698E+02 0.95363648E+02 0.75000000E+00 0.0000E+00 0.9000E+01
        2 -1    0    0  501    0 0.00000000E+00 0.00000000E+00 -.26709171E+04 0.26709172E+04 0.32000000E+00 0.0000E+00 0.9000E+01
       25  1    1    2    0    0 0.14301749E+03 -.66119900E+02 -.61667929E+02 0.21036582E+03 0.12500000E+03 0.0000E+00 0.9000E+01
       23  1    1    2    0    0 -.15560784E+03 0.52676045E+02 -.39984935E+03 0.44179557E+03 0.91188000E+02 0.0000E+00 0.9000E+01
        2  1    1    2  502    0 0.12590347E+02 0.13443854E+02 -.21140392E+04 0.21141194E+04 0.32000000E+00 0.0000E+00 0.9000E+01
#aMCatNLO 2  0  0  1  2 0.18418851D+02 0.00000000D+00  -5  5  0 0.00000000D+00 0.00000000D+00 0.00000000D+00 0.00000000D+00 0.00000000D+00
  <mgrwgt>
 0.2129181171D-01    1    2    0
 0.230204810086281D+03 0.000000000000000D+00 0.000000000000000D+00 0.230204810086281D+03
 0.230204810086281D+03 0.000000000000000D+00 0.000000000000000D+00 -.230204810086281D+03
 0.238143120164663D+03 0.149497499740327D+03 -.592006104629909D+02 0.123421760536630D+03
 0.222266500007899D+03 -.149497499740327D+03 0.592006104629909D+02 -.123421760536630D+03
 0.000000000000000D+00 0.000000000000000D+00 0.000000000000000D+00 -.000000000000000D+00
 0.230485913963483D+03 0.000000000000000D+00 0.000000000000000D+00 0.230485913963483D+03
 0.110507648882987D+04 0.000000000000000D+00 0.000000000000000D+00 -.110507648882987D+04
 0.235974099710193D+03 0.143017494130482D+03 -.661198996725814D+02 0.123421760536630D+03
 0.224803799504119D+03 -.155607841080803D+03 0.526760452928871D+02 -.123421760536630D+03
 0.874784503579038D+03 0.125903469503211D+02 0.134438543796943D+02 -.874590574866384D+03
0.862304427336D-04 0.000000000000D+00 0.000000000000D+00 0.793762948922D-03 0.112760757129D-07  5 21 2 25 23 2 2 0.14671103D-01 0.41091050D+00 0.41501004D+05 0.41501004D+05 0.41501004D+05 0.12003790D+01  1  2  1  3  5  1       -2 0.212918117131D-01 0.100000000000D+01
  </mgrwgt>
  </event>
  <event>
  4     66 0.46888340E-03 0.88704645E+02 0.75467711E-02 0.12125645E+00
       -2 -1    0    0    0  501 0.00000000E+00 0.00000000E+00 0.29330799E+02 0.29332545E+02 0.32000000E+00 0.0000E+00 0.9000E+01
        2 -1    0    0  501    0 0.00000000E+00 0.00000000E+00 -.57144790E+03 0.57144798E+03 0.32000000E+00 0.0000E+00 0.9000E+01
       25  1    1    2    0    0 0.54656905E+02 0.66542148E+01 -.40330575E+03 0.42580768E+03 0.12500000E+03 0.0000E+00 0.9000E+01
       23  1    1    2    0    0 -.54656905E+02 -.66542148E+01 -.13881135E+03 0.17497285E+03 0.91188000E+02 0.0000E+00 0.9000E+01
#aMCatNLO 1  0  0  2  1 0.35665252D+02 0.00000000D+00  -5  5  0 0.00000000D+00 0.00000000D+00 0.00000000D+00 0.00000000D+00 0.00000000D+00
  <mgrwgt>
 0.2079825092D+00    9    2    0
 0.129466500624509D+03 0.000000000000000D+00 0.000000000000000D+00 0.129466500624509D+03
 0.129466500624509D+03 0.000000000000000D+00 0.000000000000000D+00 -.129466500624509D+03
 0.143581635853970D+03 0.546569049200557D+02 0.665421481909967D+01 -.442609345157015D+02
 0.115351365395048D+03 -.546569049200557D+02 -.665421481909967D+01 0.442609345157015D+02
 0.000000000000000D+00 -.000000000000000D+00 -.000000000000000D+00 -.000000000000000D+00
 0.142236300944022D+03 0.000000000000000D+00 0.000000000000000D+00 0.142236300944022D+03
 0.158227639409509D+03 0.000000000000000D+00 0.000000000000000D+00 -.158227639409509D+03
 0.151181596520068D+03 0.697850085866017D+02 0.200473783503292D+02 -.442609345157015D+02
 0.110196117387741D+03 -.430811541936667D+02 0.359399116180733D+01 0.442609345157015D+02
 0.390862264457217D+02 -.267038543929350D+02 -.236413695121366D+02 -.159913384654876D+02
0.112960311165D-03 0.000000000000D+00 0.000000000000D+00 0.139718241053D-02 0.000000000000D+00  5 -2 2 25 23 21 0 0.45125718D-02 0.87915202D-01 0.14775768D+05 0.14775768D+05 0.14775768D+05 0.12485689D+01  1  2  2  2  5  2        2 0.130417484047D+00 0.100000000000D+01
-.624524030930D-05 0.000000000000D+00 -.433797338008D-06 0.139718241053D-02 0.000000000000D+00  5 -2 2 25 23 21 2 0.45125718D-02 0.87915202D-01 0.14775768D+05 0.14775768D+05 0.14775768D+05 0.12485689D+01  1  2  3  2  5  2        2 -.112404613572D-01 0.100000000000D+01
0.779351620259D-05 0.000000000000D+00 0.000000000000D+00 0.139718241053D-02 0.000000000000D+00  5 -2 2 25 23 21 2 0.45125718D-02 0.87915202D-01 0.14775768D+05 0.14775768D+05 0.14775768D+05 0.12485689D+01  1  2 15  2  5  2        2 0.140271171921D-01 0.100000000000D+01
0.117646696627D-03 0.000000000000D+00 0.000000000000D+00 0.139718241053D-02 0.000000000000D+00  5 -2 2 25 23 21 2 0.45125718D-02 0.11103416D+00 0.19759817D+05 0.19759817D+05 0.19759817D+05 0.12344041D+01  1  2 12  2  5  2        2 0.159487303812D+00 0.100000000000D+01
-.121317307786D-03 0.000000000000D+00 0.000000000000D+00 0.139718241053D-02 0.000000000000D+00  5 -2 2 25 23 21 2 0.45125718D-02 0.87915202D-01 0.14775768D+05 0.14775768D+05 0.14775768D+05 0.12485689D+01  1  2  4  2  5  2        2 -.218352287917D+00 0.100000000000D+01
-.239560676813D-03 0.000000000000D+00 -.719403726923D-04 0.139718241053D-02 0.000000000000D+00  5 -2 2 25 23 21 2 0.45125718D-02 0.11516415D+00 0.14775768D+05 0.14775768D+05 0.14775768D+05 0.12485689D+01  1  2  5  2  5  2        2 -.315218616418D+00 0.100000000000D+01
0.252277625929D-03 0.000000000000D+00 0.693957633423D-04 0.139718241053D-02 0.000000000000D+00  5 -2 2 25 23 21 2 0.45125718D-02 0.87915202D-01 0.14775768D+05 0.14775768D+05 0.14775768D+05 0.12485689D+01  1  2  6  2  5  2        2 0.454060494888D+00 0.100000000000D+01
0.378451155226D-05 0.000000000000D+00 0.000000000000D+00 0.139718241053D-02 0.000000000000D+00  5 -2 21 25 23 -2 2 0.45125718D-02 0.11103416D+00 0.19759817D+05 0.19759817D+05 0.19759817D+05 0.12344041D+01  1  2 12  4  5  2        2 0.658146707303D-02 0.100000000000D+01
-.721235721065D-05 0.000000000000D+00 -.257602565987D-05 0.139718241053D-02 0.000000000000D+00  5 -2 21 25 23 -2 2 0.45125718D-02 0.11516415D+00 0.14775768D+05 0.14775768D+05 0.14775768D+05 0.12485689D+01  1  2  5  4  5  2        2 -.117799921658D-01 0.100000000000D+01
  </mgrwgt>
  </event>
  <event>
  4     66 0.46888340E-03 0.13566087E+03 0.75467711E-02 0.11861852E+00
       -2 -1    0    0    0  501 0.00000000E+00 0.00000000E+00 0.33393357E+02 0.33394890E+02 0.32000000E+00 0.0000E+00 0.9000E+01
        2 -1    0    0  501    0 0.00000000E+00 0.00000000E+00 -.59456465E+03 0.59456473E+03 0.32000000E+00 0.0000E+00 0.9000E+01
       25  1    1    2    0    0 0.16737592E+00 0.81333733E+02 -.39090499E+03 0.41838608E+03 0.12500000E+03 0.0000E+00 0.9000E+01
       23  1    1    2    0    0 -.16737592E+00 -.81333733E+02 -.17026630E+03 0.20957354E+03 0.91188000E+02 0.0000E+00 0.9000E+01
#aMCatNLO 1  0  0  2  1 0.49088056D+02 0.00000000D+00  -5  5  0 0.00000000D+00 0.00000000D+00 0.00000000D+00 0.00000000D+00 0.00000000D+00
  <mgrwgt>
 0.1620761434D+00    4    2    0
 0.140907834599297D+03 0.000000000000000D+00 0.000000000000000D+00 0.140907834599297D+03
 0.140907834599297D+03 0.000000000000000D+00 0.000000000000000D+00 -.140907834599297D+03
 0.153876859133644D+03 0.167375915787427D+00 0.813337326637323D+02 -.379194368777121D+02
 0.127938810064950D+03 -.167375915787427D+00 -.813337326637323D+02 0.379194368777121D+02
 0.000000000000000D+00 0.000000000000000D+00 -.000000000000000D+00 0.000000000000000D+00
 0.232092607557500D+03 0.000000000000000D+00 0.000000000000000D+00 0.232092607557500D+03
 0.149793307462722D+03 0.000000000000000D+00 0.000000000000000D+00 -.149793307462722D+03
 0.170141437873611D+03 -.468677847333007D+01 0.108918590222785D+03 -.379194368777121D+02
 0.115917487197014D+03 -.382061441065428D+01 -.605733580584096D+02 0.379194368777121D+02
 0.958269899495965D+02 0.850739288398435D+01 -.483452321643755D+02 0.822993000947774D+02
0.195779801906D-03 0.000000000000D+00 0.000000000000D+00 0.133493319260D-02 0.000000000000D+00  5 -2 2 25 23 21 0 0.51375641D-02 0.91471609D-01 0.18403872D+05 0.18403872D+05 0.18403872D+05 0.12378226D+01  1  2  2  2  5  2        2 0.179364325713D+00 0.100000000000D+01
-.108576119708D-04 0.000000000000D+00 -.751845989325D-06 0.133493319260D-02 0.000000000000D+00  5 -2 2 25 23 21 2 0.51375641D-02 0.91471609D-01 0.18403872D+05 0.18403872D+05 0.18403872D+05 0.12378226D+01  1  2  3  2  5  2        2 -.152412044031D-01 0.100000000000D+01
0.135087502895D-04 0.000000000000D+00 0.000000000000D+00 0.133493319260D-02 0.000000000000D+00  5 -2 2 25 23 21 2 0.51375641D-02 0.91471609D-01 0.18403872D+05 0.18403872D+05 0.18403872D+05 0.12378226D+01  1  2 15  2  5  2        2 0.189626986990D-01 0.100000000000D+01
-.149669874973D-04 0.000000000000D+00 0.000000000000D+00 0.133493319260D-02 0.000000000000D+00  5 -2 2 25 23 21 2 0.51375641D-02 0.91471609D-01 0.18403872D+05 0.18403872D+05 0.18403872D+05 0.12378226D+01  1  2  4  2  5  2        2 -.210096765624D-01 0.100000000000D+01
  </mgrwgt>
  </event>
  <event>
  4     66 0.46888340E-03 0.75490695E+02 0.75467711E-02 0.11984785E+00
       -2 -1    0    0    0  501 0.00000000E+00 0.00000000E+00 0.17322072E+02 0.17325028E+02 0.32000000E+00 0.0000E+00 0.9000E+01
        2 -1    0    0  501    0 0.00000000E+00 0.00000000E+00 -.11059583E+04 0.11059583E+04 0.32000000E+00 0.0000E+00 0.9000E+01
       25  1    1    2    0    0 0.40487868E+02 -.70213196E+02 -.71058562E+03 0.72603449E+03 0.12500000E+03 0.0000E+00 0.9000E+01
       23  1    1    2    0    0 -.40487868E+02 0.70213196E+02 -.37805060E+03 0.39724887E+03 0.91188000E+02 0.0000E+00 0.9000E+01
#aMCatNLO 1  0  0  1  2 0.30658238D+02 0.00000000D+00  -5  5  0 0.00000000D+00 0.00000000D+00 0.00000000D+00 0.00000000D+00 0.00000000D+00
  <mgrwgt>
 0.1560479568D+00    9    2    0
 0.138416672536413D+03 0.000000000000000D+00 0.000000000000000D+00 0.138416672536413D+03
 0.138416672536413D+03 0.000000000000000D+00 0.000000000000000D+00 -.138416672536413D+03
 0.151619107839279D+03 0.404878684417447D+02 -.702131956189880D+02 -.281814394946867D+02
 0.125214237233547D+03 -.404878684417447D+02 0.702131956189880D+02 0.281814394946867D+02
 0.000000000000000D+00 -.000000000000000D+00 0.000000000000000D+00 0.000000000000000D+00
 0.161609048621608D+03 0.000000000000000D+00 0.000000000000000D+00 0.161609048621608D+03
 0.149778452804247D+03 0.000000000000000D+00 0.000000000000000D+00 -.149778452804247D+03
 0.161004555572718D+03 0.536151078068216D+02 -.814167894112669D+02 -.281814394946867D+02
 0.117521257436441D+03 -.302952716748968D+02 0.615142063883920D+02 0.281814394946867D+02
 0.328616884166959D+02 -.233198361319248D+02 0.199025830228749D+02 0.118305958173607D+02
0.125115774991D-03 0.000000000000D+00 0.000000000000D+00 0.139247871637D-02 0.000000000000D+00  5 -2 2 25 23 21 0 0.26651651D-02 0.17014766D+00 0.18357369D+05 0.18357369D+05 0.18357369D+05 0.12379448D+01  1  2  2  1  5  1       -2 0.138270143246D+00 0.100000000000D+01
-.694701496792D-05 0.000000000000D+00 -.480477519706D-06 0.139247871637D-02 0.000000000000D+00  5 -2 2 25 23 21 2 0.26651651D-02 0.17014766D+00 0.18357369D+05 0.18357369D+05 0.18357369D+05 0.12379448D+01  1  2  3  1  5  1       -2 -.117656820456D-01 0.100000000000D+01
0.864189343886D-05 0.000000000000D+00 0.000000000000D+00 0.139247871637D-02 0.000000000000D+00  5 -2 2 25 23 21 2 0.26651651D-02 0.17014766D+00 0.18357369D+05 0.18357369D+05 0.18357369D+05 0.12379448D+01  1  2 15  1  5  1       -2 0.146361812869D-01 0.100000000000D+01
0.117192230662D-03 0.000000000000D+00 0.000000000000D+00 0.139247871637D-02 0.000000000000D+00  5 -2 2 25 23 21 2 0.32068153D-02 0.17014766D+00 0.22993103D+05 0.22993103D+05 0.22993103D+05 0.12272133D+01  1  2 12  1  5  1       -2 0.149435978347D+00 0.100000000000D+01
-.113922546500D-03 0.000000000000D+00 0.000000000000D+00 0.139247871637D-02 0.000000000000D+00  5 -2 2 25 23 21 2 0.26651651D-02 0.17014766D+00 0.18357369D+05 0.18357369D+05 0.18357369D+05 0.12379448D+01  1  2  4  1  5  1       -2 -.192942791419D+00 0.100000000000D+01
-.256187064209D-03 0.000000000000D+00 -.712587718813D-04 0.139247871637D-02 0.000000000000D+00  5 -2 2 25 23 21 2 0.33783098D-02 0.17014766D+00 0.18357369D+05 0.18357369D+05 0.18357369D+05 0.12379448D+01  1  2  5  1  5  1       -2 -.306216733767D+00 0.100000000000D+01
0.267485990561D-03 0.000000000000D+00 0.693015299078D-04 0.139247871637D-02 0.000000000000D+00  5 -2 2 25 23 21 2 0.26651651D-02 0.17014766D+00 0.18357369D+05 0.18357369D+05 0.18357369D+05 0.12379448D+01  1  2  6  1  5  1       -2 0.453022648017D+00 0.100000000000D+01
0.315777957617D-05 0.000000000000D+00 0.000000000000D+00 0.139247871637D-02 0.000000000000D+00  5 21 2 25 23 2 2 0.32068153D-02 0.17014766D+00 0.22993103D+05 0.22993103D+05 0.22993103D+05 0.12272133D+01  1  2 12  3  5  1       -2 0.776975908425D-01 0.100000000000D+01
-.724240880794D-05 0.000000000000D+00 -.231888504500D-05 0.139247871637D-02 0.000000000000D+00  5 21 2 25 23 2 2 0.33783098D-02 0.17014766D+00 0.18357369D+05 0.18357369D+05 0.18357369D+05 0.12379448D+01  1  2  5  3  5  1       -2 -.166089377732D+00 0.100000000000D+01
  </mgrwgt>
  </event>
  <event>
  4     66 0.46888340E-03 0.71633377E+02 0.75467711E-02 0.12109142E+00
       -2 -1    0    0    0  501 0.00000000E+00 0.00000000E+00 0.23724336E+02 0.23726494E+02 0.32000000E+00 0.0000E+00 0.9000E+01
        2 -1    0    0  501    0 0.00000000E+00 0.00000000E+00 -.80505169E+03 0.80505176E+03 0.32000000E+00 0.0000E+00 0.9000E+01
       25  1    1    2    0    0 -.68876228E+02 -.41000112E+02 -.51698818E+03 0.53789100E+03 0.12500000E+03 0.0000E+00 0.9000E+01
       23  1    1    2    0    0 0.68876228E+02 0.41000112E+02 -.26433917E+03 0.29088725E+03 0.91188000E+02 0.0000E+00 0.9000E+01
#aMCatNLO 1  0  0  1  2 0.13357324D+02 0.00000000D+00  -5  5  0 0.00000000D+00 0.00000000D+00 0.00000000D+00 0.00000000D+00 0.00000000D+00
  <mgrwgt>
 0.1024670043D+00    9    2    0
 0.138203609268709D+03 0.000000000000000D+00 0.000000000000000D+00 0.138203609268709D+03
 0.138203609268709D+03 0.000000000000000D+00 0.000000000000000D+00 -.138203609268709D+03
 0.151426398265825D+03 -.688762278563062D+02 -.410001118732446D+02 -.296649651007334D+02
 0.124980820271593D+03 0.688762278563062D+02 0.410001118732446D+02 0.296649651007334D+02
 0.000000000000000D+00 -.000000000000000D+00 -.000000000000000D+00 0.000000000000000D+00
 0.167365156221478D+03 0.000000000000000D+00 0.000000000000000D+00 0.167365156221478D+03
 0.139902960422938D+03 0.000000000000000D+00 0.000000000000000D+00 -.139902960422938D+03
 0.147889126789360D+03 -.639712795679532D+02 -.356911621908079D+02 -.296649651007334D+02
 0.128840648536665D+03 0.730356551989032D+02 0.455021349673583D+02 0.296649651007334D+02
 0.305383413183904D+02 -.906437563094999D+01 -.981097277655038D+01 0.274621957985398D+02
0.115202154897D-03 0.000000000000D+00 0.000000000000D+00 0.138913578630D-02 0.000000000000D+00  5 -2 2 25 23 21 0 0.36500688D-02 0.12385428D+00 0.18211697D+05 0.18211697D+05 0.18211697D+05 0.12383298D+01  1  2  2  1  5  1       -2 0.122646054181D+00 0.100000000000D+01
-.639570510112D-05 0.000000000000D+00 -.442406608230D-06 0.138913578630D-02 0.000000000000D+00  5 -2 2 25 23 21 2 0.36500688D-02 0.12385428D+00 0.18211697D+05 0.18211697D+05 0.18211697D+05 0.12383298D+01  1  2  3  1  5  1       -2 -.104412876861D-01 0.100000000000D+01
0.794771601035D-05 0.000000000000D+00 0.000000000000D+00 0.138913578630D-02 0.000000000000D+00  5 -2 2 25 23 21 2 0.36500688D-02 0.12385428D+00 0.18211697D+05 0.18211697D+05 0.18211697D+05 0.12383298D+01  1  2 15  1  5  1       -2 0.129750180784D-01 0.100000000000D+01
0.640992553719D-03 0.000000000000D+00 0.000000000000D+00 0.138913578630D-02 0.000000000000D+00  5 -2 2 25 23 21 2 0.44395575D-02 0.12385428D+00 0.20110034D+05 0.20110034D+05 0.20110034D+05 0.12335638D+01  1  2 12  1  5  1       -2 0.778271094515D+00 0.100000000000D+01
-.642316742080D-03 0.000000000000D+00 0.000000000000D+00 0.138913578630D-02 0.000000000000D+00  5 -2 2 25 23 21 2 0.36500688D-02 0.12385428D+00 0.18211697D+05 0.18211697D+05 0.18211697D+05 0.12383298D+01  1  2  4  1  5  1       -2 -.104861212073D+01 0.100000000000D+01
-.807502509413D-03 0.000000000000D+00 -.747377122644D-04 0.138913578630D-02 0.000000000000D+00  5 -2 2 25 23 21 2 0.44719086D-02 0.12385428D+00 0.18211697D+05 0.18211697D+05 0.18211697D+05 0.12383298D+01  1  2  5  1  5  1       -2 -.974789683994D+00 0.100000000000D+01
0.807487850693D-03 0.000000000000D+00 0.732227681808D-04 0.138913578630D-02 0.000000000000D+00  5 -2 2 25 23 21 2 0.36500688D-02 0.12385428D+00 0.18211697D+05 0.18211697D+05 0.18211697D+05 0.12383298D+01  1  2  6  1  5  1       -2 0.131826168011D+01 0.100000000000D+01
0.180470251922D-04 0.000000000000D+00 0.000000000000D+00 0.138913578630D-02 0.000000000000D+00  5 21 2 25 23 2 2 0.44395575D-02 0.12385428D+00 0.20110034D+05 0.20110034D+05 0.20110034D+05 0.12335638D+01  1  2 12  3  5  1       -2 0.400047471263D+00 0.100000000000D+01
-.224957325552D-04 0.000000000000D+00 -.216384845330D-05 0.138913578630D-02 0.000000000000D+00  5 21 2 25 23 2 2 0.44719086D-02 0.12385428D+00 0.18211697D+05 0.18211697D+05 0.18211697D+05 0.12383298D+01  1  2  5  3  5  1       -2 -.495891221432D+00 0.100000000000D+01
  </mgrwgt>
  </event>
  <event>
  5     66 0.46888340E-03 0.15056469E+03 0.75467711E-02 0.10495110E+00
       -2 -1    0    0    0  501 0.00000000E+00 0.00000000E+00 0.25546502E+03 0.25546522E+03 0.32000000E+00 0.0000E+00 0.9000E+01
        2 -1    0    0  502    0 0.00000000E+00 0.00000000E+00 -.72240422E+03 0.72240429E+03 0.32000000E+00 0.0000E+00 0.9000E+01
       25  1    1    2    0    0 -.96547725E+02 -.71738433E+02 -.22949790E+03 0.28768412E+03 0.12500000E+03 0.0000E+00 0.9000E+01
       23  1    1    2    0    0 0.46105992E+02 -.24923247E+03 -.24652527E+03 0.36514729E+03 0.91188000E+02 0.0000E+00 0.9000E+01
       21  1    1    2  502  501 0.50441734E+02 0.32097090E+03 0.90839686E+01 0.32503810E+03 0.75000000E+00 0.0000E+00 0.9000E+01
#aMCatNLO 2  0  0  2  2 0.32491028D+03 0.00000000D+00  -5  5  0 0.00000000D+00 0.00000000D+00 0.00000000D+00 0.00000000D+00 0.00000000D+00
  <mgrwgt>
 0.2696928251D-02    1    2    0
 0.153316752294441D+03 0.000000000000000D+00 0.000000000000000D+00 0.153316752294441D+03
 0.153316752294441D+03 0.000000000000000D+00 0.000000000000000D+00 -.153316752294441D+03
 0.165236109681366D+03 -.737108278195720D+02 0.735773420284099D+02 -.288281207299409D+02
 0.141397394907517D+03 0.737108278195720D+02 -.735773420284099D+02 0.288281207299409D+02
 0.000000000000000D+00 0.000000000000000D+00 0.000000000000000D+00 0.000000000000000D+00
 0.645504155108800D+03 0.000000000000000D+00 0.000000000000000D+00 0.645504155108800D+03
 0.285898733454671D+03 0.000000000000000D+00 0.000000000000000D+00 -.285898733454671D+03
 0.175852001880698D+03 -.965477254103860D+02 -.717384327868229D+02 -.288281207299409D+02
 0.270903853129237D+03 0.461059918290719D+02 -.249232468328075D+03 0.288281207299409D+02
 0.484647033553535D+03 0.504417335813141D+02 0.320970901114898D+03 0.359605421654129D+03
0.823568265572D-04 0.000000000000D+00 0.000000000000D+00 0.128572947923D-02 0.242351075412D-06  5 -2 2 25 23 21 2 0.39302298D-01 0.11113903D+00 0.14735957D+06 0.14735957D+06 0.14735957D+06 0.11484138D+01  1  2  1  2  5  2        2 0.269692825100D-02 0.100000000000D+01
  </mgrwgt>
  </event>
  <event>
  4     66 0.46888340E-03 0.21500051E+03 0.75467711E-02 0.10615390E+00
       -2 -1    0    0    0  501 0.00000000E+00 0.00000000E+00 0.51123438E+02 0.51124440E+02 0.32000000E+00 0.0000E+00 0.9000E+01
        2 -1    0    0  501    0 0.00000000E+00 0.00000000E+00 -.96906387E+03 0.96906393E+03 0.32000000E+00 0.0000E+00 0.9000E+01
       25  1    1    2    0    0 -.18321968E+03 0.27529725E+02 -.60779557E+03 0.64758613E+03 0.12500000E+03 0.0000E+00 0.9000E+01
       23  1    1    2    0    0 0.18321968E+03 -.27529725E+02 -.31014486E+03 0.37260223E+03 0.91188000E+02 0.0000E+00 0.9000E+01
#aMCatNLO 1  0  0  1  1 0.22177878D+03 0.00000000D+00  -5  5  0 0.00000000D+00 0.00000000D+00 0.00000000D+00 0.00000000D+00 0.00000000D+00
  <mgrwgt>
 0.1254337821D+00    5    2    0
 0.222581254725279D+03 0.000000000000000D+00 0.000000000000000D+00 0.222581254725279D+03
 0.222581254725279D+03 0.000000000000000D+00 0.000000000000000D+00 -.222581254725279D+03
 0.230791457180357D+03 -.183219684748883D+03 0.275297253556043D+02 -.575530889683400D+02
 0.214371052270200D+03 0.183219684748883D+03 -.275297253556043D+02 0.575530889683400D+02
 0.000000000000000D+00 -.000000000000000D+00 0.000000000000000D+00 0.000000000000000D+00
 0.779053746971237D+03 0.000000000000000D+00 0.000000000000000D+00 0.779053746971237D+03
 0.271858487269615D+03 0.000000000000000D+00 0.000000000000000D+00 -.271858487269615D+03
 0.210225417654818D+03 -.143483935522517D+03 -.683354112105514D+02 -.575530889683400D+02
 0.287123037513154D+03 0.228404448705100D+03 -.136540972197732D+03 0.575530889683400D+02
 0.553563779072879D+03 -.849205131825827D+02 0.204876383408284D+03 0.507195259701622D+03
0.673484122396D-03 0.000000000000D+00 0.000000000000D+00 0.102422426639D-02 0.000000000000D+00  5 -2 2 25 23 21 0 0.78652255D-02 0.14908683D+00 0.46225220D+05 0.46225220D+05 0.46225220D+05 0.11956728D+01  1  2  2  1  5  1       -2 0.178660289869D+00 0.100000000000D+01
-.373611599515D-04 0.000000000000D+00 -.258635636244D-05 0.102422426639D-02 0.000000000000D+00  5 -2 2 25 23 21 2 0.78652255D-02 0.14908683D+00 0.46225220D+05 0.46225220D+05 0.46225220D+05 0.11956728D+01  1  2  3  1  5  1       -2 -.141692132899D-01 0.100000000000D+01
0.462077904542D-04 0.000000000000D+00 0.000000000000D+00 0.102422426639D-02 0.000000000000D+00  5 -2 2 25 23 21 2 0.78652255D-02 0.14908683D+00 0.46225220D+05 0.46225220D+05 0.46225220D+05 0.11956728D+01  1  2 15  1  5  1       -2 0.175242963401D-01 0.100000000000D+01
-.521921189282D-03 0.000000000000D+00 -.228334120303D-03 0.102422426639D-02 0.000000000000D+00  5 -2 2 25 23 21 2 0.33078376D-01 0.14908683D+00 0.46225220D+05 0.46225220D+05 0.46225220D+05 0.11956728D+01  1  2  5  1  5  1       -2 -.177957523622D-01 0.100000000000D+01
-.892828566579D-04 0.000000000000D+00 -.393818755714D-04 0.102422426639D-02 0.000000000000D+00  5 21 2 25 23 2 2 0.33078376D-01 0.14908683D+00 0.46225220D+05 0.46225220D+05 0.46225220D+05 0.11956728D+01  1  2  5  3  5  1       -2 -.387858384359D-01 0.100000000000D+01
  </mgrwgt>
  </event>
  <event>
  5     66 0.46888340E-03 0.11460427E+03 0.75467711E-02 0.12255932E+00
       -2 -1    0    0    0  501 0.00000000E+00 0.00000000E+00 0.16966370E+03 0.16966401E+03 0.32000000E+00 0.0000E+00 0.9000E+01
        2 -1    0    0  502    0 0.00000000E+00 0.00000000E+00 -.11013119E+03 0.11013166E+03 0.32000000E+00 0.0000E+00 0.9000E+01
       25  1    1    2    0    0 0.42119419E+02 0.31727126E+02 -.71089386E+01 0.13585357E+03 0.12500000E+03 0.0000E+00 0.9000E+01
       23  1    1    2    0    0 -.28340489E+02 -.36233024E+01 0.56593909E+02 0.11106049E+03 0.91188000E+02 0.0000E+00 0.9000E+01
       21  1    1    2  502  501 -.13778930E+02 -.28103824E+02 0.10047541E+02 0.32881597E+02 0.75000000E+00 0.0000E+00 0.9000E+01
#aMCatNLO 2  0  0  2  1 0.31299901D+02 0.00000000D+00  -5  5  0 0.00000000D+00 0.00000000D+00 0.00000000D+00 0.00000000D+00 0.00000000D+00
  <mgrwgt>
 0.7156017400D-01    1    2    0
 0.119935514155013D+03 0.000000000000000D+00 0.000000000000000D+00 0.119935514155013D+03
 0.119935514155013D+03 0.000000000000000D+00 0.000000000000000D+00 -.119935514155013D+03
 0.135172345187714D+03 0.342459386991340D+02 0.156681946855511D+02 -.350469151489435D+02
 0.104698683122313D+03 -.342459386991340D+02 -.156681946855511D+02 0.350469151489435D+02
 0.000000000000000D+00 -.000000000000000D+00 -.000000000000000D+00 0.000000000000000D+00
 0.138465923887373D+03 0.000000000000000D+00 0.000000000000000D+00 0.138465923887373D+03
 0.134936819068006D+03 0.000000000000000D+00 0.000000000000000D+00 -.134936819068006D+03
 0.140121169824093D+03 0.421194187738233D+02 0.317271261473561D+02 -.350469151489435D+02
 0.101783344496739D+03 -.283404885465202D+02 -.362330242033857D+01 0.350469151489435D+02
 0.314982286345477D+02 -.137789302273031D+02 -.281038237270175D+02 0.352910481936706D+01
0.109725711848D-03 0.000000000000D+00 0.000000000000D+00 0.156693045362D-02 0.133655132219D-04  5 -2 2 25 23 21 2 0.26101314D-01 0.16942765D-01 0.17230049D+05 0.17230049D+05 0.17230049D+05 0.12410181D+01  1  2  1  2  5  2        2 0.715601740037D-01 0.100000000000D+01
  </mgrwgt>
  </event>
  <event>
  4     66 0.46888340E-03 0.11640548E+03 0.75467711E-02 0.10317810E+00
       -2 -1    0    0    0  501 0.00000000E+00 0.00000000E+00 0.17688865E+02 0.17691759E+02 0.32000000E+00 0.0000E+00 0.9000E+01
        2 -1    0    0  501    0 0.00000000E+00 0.00000000E+00 -.76599635E+03 0.76599642E+03 0.32000000E+00 0.0000E+00 0.9000E+01
       25  1    1    2    0    0 0.41649663E+02 0.95849019E+01 -.42704271E+03 0.44700900E+03 0.12500000E+03 0.0000E+00 0.9000E+01
       23  1    1    2    0    0 -.41649663E+02 -.95849019E+01 -.32126477E+03 0.33667918E+03 0.91188000E+02 0.0000E+00 0.9000E+01
#aMCatNLO 1  0  0  1  1 0.40561303D+03 0.00000000D+00  -5  5  0 0.00000000D+00 0.00000000D+00 0.00000000D+00 0.00000000D+00 0.00000000D+00
  <mgrwgt>
 0.1664771754D+00    5    2    0
 0.116407759376986D+03 0.000000000000000D+00 0.000000000000000D+00 0.116407759376986D+03
 0.116407759376986D+03 0.000000000000000D+00 0.000000000000000D+00 -.116407759376986D+03
 0.132106344881771D+03 0.416496626012685D+02 0.958490193431619D+01 -.722231355904824D+00
 0.100709173872202D+03 -.416496626012685D+02 -.958490193431619D+01 0.722231355904824D+00
 0.000000000000000D+00 0.000000000000000D+00 0.000000000000000D+00 0.000000000000000D+00
 0.681043922724035D+03 0.000000000000000D+00 0.000000000000000D+00 0.681043922724035D+03
 0.325812807596393D+03 0.000000000000000D+00 0.000000000000000D+00 -.325812807596393D+03
 0.199170036460581D+03 -.104878151995512D+03 -.114209259867946D+03 -.722231355904824D+00
 0.268510402895314D+03 -.204960241734233D+03 -.147557998119780D+03 0.722231355904824D+00
 0.539176290964532D+03 0.309838393729746D+03 0.261767257987726D+03 0.355231115127642D+03
0.812167766387D-04 0.000000000000D+00 0.000000000000D+00 0.173688244424D-02 0.000000000000D+00  5 -2 2 25 23 21 0 0.27215916D-02 0.11784582D+00 0.13550235D+05 0.13550235D+05 0.13550235D+05 0.12528867D+01  1  2  2  1  5  1       -2 0.140015785686D+00 0.100000000000D+01
-.451204314449D-05 0.000000000000D+00 -.311893807161D-06 0.173688244424D-02 0.000000000000D+00  5 -2 2 25 23 21 2 0.27215916D-02 0.11784582D+00 0.13550235D+05 0.13550235D+05 0.13550235D+05 0.12528867D+01  1  2  3  1  5  1       -2 -.122103488922D-01 0.100000000000D+01
0.560462342929D-05 0.000000000000D+00 0.000000000000D+00 0.173688244424D-02 0.000000000000D+00  5 -2 2 25 23 21 2 0.27215916D-02 0.11784582D+00 0.13550235D+05 0.13550235D+05 0.13550235D+05 0.12528867D+01  1  2 15  1  5  1       -2 0.151670552097D-01 0.100000000000D+01
0.230747050132D-03 0.000000000000D+00 -.872826192198D-04 0.173688244424D-02 0.000000000000D+00  5 -2 2 25 23 21 2 0.46975978D-01 0.11784582D+00 0.13550235D+05 0.13550235D+05 0.13550235D+05 0.12528867D+01  1  2  5  1  5  1       -2 0.615304013431D-02 0.100000000000D+01
0.515150269639D-04 0.000000000000D+00 -.273769251734D-04 0.173688244424D-02 0.000000000000D+00  5 21 2 25 23 2 2 0.46975978D-01 0.11784582D+00 0.13550235D+05 0.13550235D+05 0.13550235D+05 0.12528867D+01  1  2  5  3  5  1       -2 0.173516433089D-01 0.100000000000D+01
  </mgrwgt>
  </event>
  <event>
  4     66 0.46888340E-03 0.11308692E+03 0.75467711E-02 0.11813081E+00
       -2 -1    0    0    0  501 0.00000000E+00 0.00000000E+00 0.10299631E+02 0.10304601E+02 0.32000000E+00 0.0000E+00 0.9000E+01
        2 -1    0    0  501    0 0.00000000E+00 0.00000000E+00 -.19694107E+04 0.19694107E+04 0.32000000E+00 0.0000E+00 0.9000E+01
       25  1    1    2    0    0 0.90951749E+02 -.14217655E+02 -.10889281E+04 0.10999380E+04 0.12500000E+03 0.0000E+00 0.9000E+01
       23  1    1    2    0    0 -.90951749E+02 0.14217655E+02 -.87018297E+03 0.87977725E+03 0.91188000E+02 0.0000E+00 0.9000E+01
#aMCatNLO 1  0  0  2  1 0.45086306D+02 0.00000000D+00  -5  5  0 0.00000000D+00 0.00000000D+00 0.00000000D+00 0.00000000D+00 0.00000000D+00
  <mgrwgt>
 0.3389109797D+00    9    2    0
 0.142439984326519D+03 0.000000000000000D+00 0.000000000000000D+00 0.142439984326519D+03
 0.142439984326519D+03 0.000000000000000D+00 0.000000000000000D+00 -.142439984326519D+03
 0.155269508091495D+03 0.909517492100174D+02 -.142176554662285D+02 -.304265207618415D+01
 0.129610460561542D+03 -.909517492100174D+02 0.142176554662285D+02 0.304265207618415D+01
 0.000000000000000D+00 0.000000000000000D+00 -.000000000000000D+00 -.000000000000000D+00
 0.165738608835426D+03 0.000000000000000D+00 0.000000000000000D+00 0.165738608835426D+03
 0.167821460300287D+03 0.000000000000000D+00 0.000000000000000D+00 -.167821460300287D+03
 0.150523887045929D+03 0.833618309783967D+02 0.860162633972368D+01 -.304265207618415D+01
 0.137901790658716D+03 -.975915136555707D+02 0.341802757981568D+02 0.304265207618415D+01
 0.451343914310687D+02 0.142296826771740D+02 -.427819021378805D+02 -.208285146486129D+01
0.199839539159D-03 0.000000000000D+00 0.000000000000D+00 0.140381730005D-02 0.000000000000D+00  5 -2 2 25 23 21 0 0.15849430D-02 0.30298664D+00 0.20279816D+05 0.20279816D+05 0.20279816D+05 0.12331623D+01  1  2  2  2  5  2        2 0.165435360807D+00 0.100000000000D+01
-.111021959054D-04 0.000000000000D+00 -.767436449328D-06 0.140381730005D-02 0.000000000000D+00  5 -2 2 25 23 21 2 0.15849430D-02 0.30298664D+00 0.20279816D+05 0.20279816D+05 0.20279816D+05 0.12331623D+01  1  2  3  2  5  2        2 -.139764312629D-01 0.100000000000D+01
0.137747252198D-04 0.000000000000D+00 0.000000000000D+00 0.140381730005D-02 0.000000000000D+00  5 -2 2 25 23 21 2 0.15849430D-02 0.30298664D+00 0.20279816D+05 0.20279816D+05 0.20279816D+05 0.12331623D+01  1  2 15  2  5  2        2 0.173408487689D-01 0.100000000000D+01
0.123128789629D-03 0.000000000000D+00 0.000000000000D+00 0.140381730005D-02 0.000000000000D+00  5 -2 2 25 23 21 2 0.15849430D-02 0.37776339D+00 0.27796835D+05 0.27796835D+05 0.27796835D+05 0.12183905D+01  1  2 12  2  5  2        2 0.845342183251D-01 0.100000000000D+01
-.112707991561D-03 0.000000000000D+00 0.000000000000D+00 0.140381730005D-02 0.000000000000D+00  5 -2 2 25 23 21 2 0.15849430D-02 0.30298664D+00 0.20279816D+05 0.20279816D+05 0.20279816D+05 0.12331623D+01  1  2  4  2  5  2        2 -.141886840247D+00 0.100000000000D+01
-.350967618371D-03 0.000000000000D+00 -.109109668747D-03 0.140381730005D-02 0.000000000000D+00  5 -2 2 25 23 21 2 0.15849430D-02 0.38307880D+00 0.20279816D+05 0.20279816D+05 0.20279816D+05 0.12331623D+01  1  2  5  2  5  2        2 -.236565631229D+00 0.100000000000D+01
0.369288731596D-03 0.000000000000D+00 0.106175647013D-03 0.140381730005D-02 0.000000000000D+00  5 -2 2 25 23 21 2 0.15849430D-02 0.30298664D+00 0.20279816D+05 0.20279816D+05 0.20279816D+05 0.12331623D+01  1  2  6  2  5  2        2 0.464893487492D+00 0.100000000000D+01
0.379584851062D-05 0.000000000000D+00 0.000000000000D+00 0.140381730005D-02 0.000000000000D+00  5 -2 21 25 23 -2 2 0.15849430D-02 0.37776339D+00 0.27796835D+05 0.27796835D+05 0.27796835D+05 0.12183905D+01  1  2 12  4  5  2        2 0.576100278909D-03 0.100000000000D+01
-.968351300531D-05 0.000000000000D+00 -.352206369962D-05 0.140381730005D-02 0.000000000000D+00  5 -2 21 25 23 -2 2 0.15849430D-02 0.38307880D+00 0.20279816D+05 0.20279816D+05 0.20279816D+05 0.12331623D+01  1  2  5  4  5  2        2 -.144013321469D-02 0.100000000000D+01
  </mgrwgt>
  </event>
  <event>
  5     66 0.46888340E-03 0.11494413E+03 0.75467711E-02 0.12413975E+00
       21 -1    0    0  502  501 0.00000000E+00 0.00000000E+00 0.15021126E+02 0.15039838E+02 0.75000000E+00 0.0000E+00 0.9000E+01
        2 -1    0    0  501    0 0.00000000E+00 0.00000000E+00 -.99031077E+03 0.99031082E+03 0.32000000E+00 0.0000E+00 0.9000E+01
       25  1    1    2    0    0 -.11278841E+02 -.43434429E+02 -.52776821E+03 0.54422242E+03 0.12500000E+03 0.0000E+00 0.9000E+01
       23  1    1    2    0    0 0.41603845E+01 0.33926168E+02 -.36551437E+03 0.37826485E+03 0.91188000E+02 0.0000E+00 0.9000E+01
        2  1    1    2  502    0 0.71184564E+01 0.95082603E+01 -.82007069E+02 0.82863389E+02 0.32000000E+00 0.0000E+00 0.9000E+01
#aMCatNLO 2  0  0  1  2 0.11877686D+02 0.00000000D+00  -5  5  0 0.00000000D+00 0.00000000D+00 0.00000000D+00 0.00000000D+00 0.00000000D+00
  <mgrwgt>
 0.5980537357D-01    1    2    0
 0.114986877874529D+03 0.000000000000000D+00 0.000000000000000D+00 0.114986877874529D+03
 0.114986877874529D+03 0.000000000000000D+00 0.000000000000000D+00 -.114986877874529D+03
 0.130879449251187D+03 -.719994707958678D+01 -.379861711433334D+02 -.310512483075499D+01
 0.990943064978712D+02 0.719994707958678D+01 0.379861711433334D+02 0.310512483075499D+01
 0.000000000000000D+00 0.000000000000000D+00 0.000000000000000D+00 -.000000000000000D+00
 0.118514374867451D+03 0.000000000000000D+00 0.000000000000000D+00 0.118514374867451D+03
 0.125592839997341D+03 0.000000000000000D+00 0.000000000000000D+00 -.125592839997341D+03
 0.132847294458509D+03 -.112788408401543D+02 -.434344286716616D+02 -.310512483075499D+01
 0.974329864337409D+02 0.416038447154738D+01 0.339261683989199D+02 0.310512483075499D+01
 0.138269339725422D+02 0.711845636860695D+01 0.950826027274176D+01 -.707846512989089D+01
0.118397468180D-05 0.000000000000D+00 0.000000000000D+00 0.176393314224D-02 0.597763183941D-06  5 21 2 25 23 2 2 0.23123503D-02 0.15235460D+00 0.14649735D+05 0.14649735D+05 0.14649735D+05 0.12489941D+01  1  2  1  3  5  1       -2 0.598053735694D-01 0.100000000000D+01
  </mgrwgt>
  </event>
  <event>
  4     66 0.46888340E-03 0.68692962E+02 0.75467711E-02 0.11784319E+00
       -2 -1    0    0    0  501 0.00000000E+00 0.00000000E+00 0.90218020E+01 0.90274754E+01 0.32000000E+00 0.0000E+00 0.9000E+01
        2 -1    0    0  501    0 0.00000000E+00 0.00000000E+00 -.20018934E+04 0.20018934E+04 0.32000000E+00 0.0000E+00 0.9000E+01
       25  1    1    2    0    0 -.50834703E+02 -.59566409E+02 -.11884799E+04 0.11975983E+04 0.12500000E+03 0.0000E+00 0.9000E+01
       23  1    1    2    0    0 0.50834703E+02 0.59566409E+02 -.80439169E+03 0.81332255E+03 0.91188000E+02 0.0000E+00 0.9000E+01
#aMCatNLO 1  0  0  2  1 0.63696376D+02 0.00000000D+00  -5  5  0 0.00000000D+00 0.00000000D+00 0.00000000D+00 0.00000000D+00 0.00000000D+00
  <mgrwgt>
 0.2541837428D+00    9    2    0
 0.134411367898474D+03 0.000000000000000D+00 0.000000000000000D+00 0.134411367898474D+03
 0.134411367898474D+03 0.000000000000000D+00 0.000000000000000D+00 -.134411367898474D+03
 0.148007220634534D+03 -.508347025014391D+02 -.595664093267078D+02 -.121989041095073D+02
 0.120815515162415D+03 0.508347025014391D+02 0.595664093267078D+02 0.121989041095073D+02
 0.000000000000000D+00 -.000000000000000D+00 -.000000000000000D+00 -.000000000000000D+00
 0.163639050178746D+03 0.000000000000000D+00 0.000000000000000D+00 0.163639050178746D+03
 0.177900287017064D+03 0.000000000000000D+00 0.000000000000000D+00 -.177900287017064D+03
 0.134713223798986D+03 -.394893395096053D+02 -.285382457403739D+02 -.121989041095073D+02
 0.141552755995253D+03 0.613633477849023D+02 0.883609510644135D+02 0.121989041095073D+02
 0.652733574015709D+02 -.218740082752970D+02 -.598227053240396D+02 -.142612368383173D+02
0.165154457215D-03 0.000000000000D+00 0.000000000000D+00 0.147046629753D-02 0.000000000000D+00  5 -2 2 25 23 21 0 0.13884079D-02 0.30798404D+00 0.17916051D+05 0.17916051D+05 0.17916051D+05 0.12391220D+01  1  2  2  2  5  2        2 0.158983403906D+00 0.100000000000D+01
-.917505281185D-05 0.000000000000D+00 -.634236601872D-06 0.147046629753D-02 0.000000000000D+00  5 -2 2 25 23 21 2 0.13884079D-02 0.30798404D+00 0.17916051D+05 0.17916051D+05 0.17916051D+05 0.12391220D+01  1  2  3  2  5  2        2 -.135612025059D-01 0.100000000000D+01
0.113884008213D-04 0.000000000000D+00 0.000000000000D+00 0.147046629753D-02 0.000000000000D+00  5 -2 2 25 23 21 2 0.13884079D-02 0.30798404D+00 0.17916051D+05 0.17916051D+05 0.17916051D+05 0.12391220D+01  1  2 15  2  5  2        2 0.168326453180D-01 0.100000000000D+01
0.577815934114D-04 0.000000000000D+00 0.000000000000D+00 0.147046629753D-02 0.000000000000D+00  5 -2 2 25 23 21 2 0.13884079D-02 0.43214929D+00 0.28710296D+05 0.28710296D+05 0.28710296D+05 0.12169064D+01  1  2 12  2  5  2        2 0.306743261278D-01 0.100000000000D+01
-.792144700086D-04 0.000000000000D+00 0.000000000000D+00 0.147046629753D-02 0.000000000000D+00  5 -2 2 25 23 21 2 0.13884079D-02 0.30798404D+00 0.17916051D+05 0.17916051D+05 0.17916051D+05 0.12391220D+01  1  2  4  2  5  2        2 -.117083082922D+00 0.100000000000D+01
-.161763253410D-03 0.000000000000D+00 -.645816905433D-04 0.147046629753D-02 0.000000000000D+00  5 -2 2 25 23 21 2 0.13884079D-02 0.44009851D+00 0.17916051D+05 0.17916051D+05 0.17916051D+05 0.12391220D+01  1  2  5  2  5  2        2 -.835115769180D-01 0.100000000000D+01
0.177306288900D-03 0.000000000000D+00 0.606750549739D-04 0.147046629753D-02 0.000000000000D+00  5 -2 2 25 23 21 2 0.13884079D-02 0.30798404D+00 0.17916051D+05 0.17916051D+05 0.17916051D+05 0.12391220D+01  1  2  6  2  5  2        2 0.262067863658D+00 0.100000000000D+01
0.243784088725D-05 0.000000000000D+00 0.000000000000D+00 0.147046629753D-02 0.000000000000D+00  5 -2 21 25 23 -2 2 0.13884079D-02 0.43214929D+00 0.28710296D+05 0.28710296D+05 0.28710296D+05 0.12169064D+01  1  2 12  4  5  2        2 0.204397883678D-03 0.100000000000D+01
-.520863979780D-05 0.000000000000D+00 -.282973717186D-05 0.147046629753D-02 0.000000000000D+00  5 -2 21 25 23 -2 2 0.13884079D-02 0.44009851D+00 0.17916051D+05 0.17916051D+05 0.17916051D+05 0.12391220D+01  1  2  5  4  5  2        2 -.423031770893D-03 0.100000000000D+01
  </mgrwgt>
  </event>
  <event>
  4     66 0.46888340E-03 0.10884128E+03 0.75467711E-02 0.12128615E+00
       -2 -1    0    0    0  501 0.00000000E+00 0.00000000E+00 0.25007920E+02 0.25009967E+02 0.32000000E+00 0.0000E+00 0.9000E+01
        2 -1    0    0  501    0 0.00000000E+00 0.00000000E+00 -.53447073E+03 0.53447083E+03 0.32000000E+00 0.0000E+00 0.9000E+01
       25  1    1    2    0    0 0.46208344E+01 -.11698178E+02 -.19621842E+03 0.23299113E+03 0.12500000E+03 0.0000E+00 0.9000E+01
       23  1    1    2    0    0 -.46208344E+01 0.11698178E+02 -.31324439E+03 0.32648966E+03 0.91188000E+02 0.0000E+00 0.9000E+01
#aMCatNLO 1  0  0  2  2 0.55905274D+02 0.00000000D+00  -5  5  0 0.00000000D+00 0.00000000D+00 0.00000000D+00 0.00000000D+00 0.00000000D+00
  <mgrwgt>
 0.1944004786D+00    7    2    0
 0.115614016794563D+03 0.000000000000000D+00 0.000000000000000D+00 0.115614016794563D+03
 0.115614016794563D+03 0.000000000000000D+00 0.000000000000000D+00 -.115614016794563D+03
 0.131420380198122D+03 0.462083443993012D+01 -.116981782249232D+02 0.385761175692361D+02
 0.998076533910042D+02 -.462083443993012D+01 0.116981782249232D+02 -.385761175692361D+02
 0.000000000000000D+00 -.000000000000000D+00 -.000000000000000D+00 -.000000000000000D+00
 0.146422901993474D+03 0.000000000000000D+00 0.000000000000000D+00 0.146422901993474D+03
 0.147380896927623D+03 0.000000000000000D+00 0.000000000000000D+00 -.147380896927623D+03
 0.133982164215511D+03 0.268660632496412D+02 0.107850881601872D+02 0.385761175692361D+02
 0.103908153297383D+03 0.124540008520606D+02 0.289557247143584D+02 -.385761175692361D+02
 0.559134814082029D+02 -.393200641017018D+02 -.397408128745457D+02 -.957994934148484D+00
0.117401519192D-03 0.000000000000D+00 0.000000000000D+00 0.160967688687D-02 0.000000000000D+00  5 -2 2 25 23 21 0 0.38475372D-02 0.82226431D-01 0.11846423D+05 0.11846423D+05 0.11846423D+05 0.12596802D+01  1  2  2  2  5  2        2 0.183310578038D+00 0.100000000000D+01
-.649340810516D-05 0.000000000000D+00 -.450852746228D-06 0.160967688687D-02 0.000000000000D+00  5 -2 2 25 23 21 2 0.38475372D-02 0.82226431D-01 0.11846423D+05 0.11846423D+05 0.11846423D+05 0.12596802D+01  1  2  3  2  5  2        2 -.160881884832D-01 0.100000000000D+01
0.803042952384D-05 0.000000000000D+00 0.000000000000D+00 0.160967688687D-02 0.000000000000D+00  5 -2 2 25 23 21 2 0.38475372D-02 0.82226431D-01 0.11846423D+05 0.11846423D+05 0.11846423D+05 0.12596802D+01  1  2 15  2  5  2        2 0.198963412877D-01 0.100000000000D+01
-.498434586550D-04 0.000000000000D+00 0.000000000000D+00 0.160967688687D-02 0.000000000000D+00  5 -2 2 25 23 21 2 0.38475372D-02 0.82226431D-01 0.11846423D+05 0.11846423D+05 0.11846423D+05 0.12596802D+01  1  2  4  2  5  2        2 -.123493078598D+00 0.100000000000D+01
-.946146692362D-04 0.000000000000D+00 -.534768203143D-04 0.160967688687D-02 0.000000000000D+00  5 -2 2 25 23 21 2 0.38475372D-02 0.12684359D+00 0.11846423D+05 0.11846423D+05 0.11846423D+05 0.12596802D+01  1  2  5  2  5  2        2 -.141603843837D+00 0.100000000000D+01
0.111786487035D-03 0.000000000000D+00 0.488180211729D-04 0.160967688687D-02 0.000000000000D+00  5 -2 2 25 23 21 2 0.38475372D-02 0.82226431D-01 0.11846423D+05 0.11846423D+05 0.11846423D+05 0.12596802D+01  1  2  6  2  5  2        2 0.276964275797D+00 0.100000000000D+01
-.275032587202D-05 0.000000000000D+00 -.270169326612D-05 0.160967688687D-02 0.000000000000D+00  5 -2 21 25 23 -2 2 0.38475372D-02 0.12684359D+00 0.11846423D+05 0.11846423D+05 0.11846423D+05 0.12596802D+01  1  2  5  4  5  2        2 -.458560559919D-02 0.100000000000D+01
  </mgrwgt>
  </event>
  <event>
  4     66 0.46888340E-03 0.15449324E+03 0.75467711E-02 0.11797173E+00
       -2 -1    0    0    0  501 0.00000000E+00 0.00000000E+00 0.20345936E+02 0.20348452E+02 0.32000000E+00 0.0000E+00 0.9000E+01
        2 -1    0    0  501    0 0.00000000E+00 0.00000000E+00 -.14458506E+04 0.14458506E+04 0.32000000E+00 0.0000E+00 0.9000E+01
       25  1    1    2    0    0 0.31609125E+00 0.10971715E+03 -.10747103E+04 0.10875041E+04 0.12500000E+03 0.0000E+00 0.9000E+01
       23  1    1    2    0    0 -.31609125E+00 -.10971715E+03 -.35079439E+03 0.37869501E+03 0.91188000E+02 0.0000E+00 0.9000E+01
#aMCatNLO 1  0  0  1  2 0.26222900D+02 0.00000000D+00  -5  5  0 0.00000000D+00 0.00000000D+00 0.00000000D+00 0.00000000D+00 0.00000000D+00
  <mgrwgt>
 0.1117141812D+00    4    2    0
 0.171519834402435D+03 0.000000000000000D+00 0.000000000000000D+00 0.171519834402435D+03
 0.171519834402435D+03 0.000000000000000D+00 0.000000000000000D+00 -.171519834402435D+03
 0.182174212482770D+03 0.316091248693348D+00 0.109717147525601D+03 -.743269218983626D+02
 0.160865456322100D+03 -.316091248693348D+00 -.109717147525601D+03 0.743269218983626D+02
 0.000000000000000D+00 0.000000000000000D+00 0.000000000000000D+00 -.000000000000000D+00
 0.179020024955076D+03 0.000000000000000D+00 0.000000000000000D+00 0.179020024955076D+03
 0.196579593050522D+03 0.000000000000000D+00 0.000000000000000D+00 -.196579593050522D+03
 0.177895449782510D+03 -.109640692335324D+02 0.101867997527577D+03 -.743269218983626D+02
 0.166145034550671D+03 -.105605833650512D+02 -.116845641433252D+03 0.743269218983626D+02
 0.315591336724179D+02 0.215246525985836D+02 0.149776439056752D+02 -.175595680954464D+02
0.308479857788D-03 0.000000000000D+00 0.000000000000D+00 0.103122960110D-02 0.000000000000D+00  5 -2 2 25 23 21 0 0.31303402D-02 0.22243875D+00 0.23868163D+05 0.23868163D+05 0.23868163D+05 0.12254608D+01  1  2  2  1  5  1       -2 0.176521692587D+00 0.100000000000D+01
-.169100128517D-04 0.000000000000D+00 -.118464387852D-05 0.103122960110D-02 0.000000000000D+00  5 -2 2 25 23 21 2 0.31303402D-02 0.22243875D+00 0.23868163D+05 0.23868163D+05 0.23868163D+05 0.12254608D+01  1  2  3  1  5  1       -2 -.145316199151D-01 0.100000000000D+01
0.212169492501D-04 0.000000000000D+00 0.000000000000D+00 0.103122960110D-02 0.000000000000D+00  5 -2 2 25 23 21 2 0.31303402D-02 0.22243875D+00 0.23868163D+05 0.23868163D+05 0.23868163D+05 0.12254608D+01  1  2 15  1  5  1       -2 0.182327858036D-01 0.100000000000D+01
-.797215052796D-04 0.000000000000D+00 0.000000000000D+00 0.103122960110D-02 0.000000000000D+00  5 -2 2 25 23 21 2 0.31303402D-02 0.22243875D+00 0.23868163D+05 0.23868163D+05 0.23868163D+05 0.12254608D+01  1  2  4  1  5  1       -2 -.685086773112D-01 0.100000000000D+01
  </mgrwgt>
  </event>
  <event>
  5     66 0.46888340E-03 0.15328954E+03 0.75467711E-02 0.11923608E+00
       -2 -1    0    0    0  501 0.00000000E+00 0.00000000E+00 0.11518503E+02 0.11522947E+02 0.32000000E+00 0.0000E+00 0.9000E+01
        2 -1    0    0  502    0 0.00000000E+00 0.00000000E+00 -.22800145E+04 0.22800145E+04 0.32000000E+00 0.0000E+00 0.9000E+01
       25  1    1    2    0    0 0.10376314E+03 0.12091553E+02 -.92662863E+03 0.94083931E+03 0.12500000E+03 0.0000E+00 0.9000E+01
       23  1    1    2    0    0 -.11017621E+03 -.14690217E+02 -.13185287E+04 0.13263438E+04 0.91188000E+02 0.0000E+00 0.9000E+01
       21  1    1    2  502  501 0.64130616E+01 0.25986636E+01 -.23338612E+02 0.24354337E+02 0.75000000E+00 0.0000E+00 0.9000E+01
#aMCatNLO 2  0  0  2  2 0.69195673D+01 0.00000000D+00  -5  5  0 0.00000000D+00 0.00000000D+00 0.00000000D+00 0.00000000D+00 0.00000000D+00
  <mgrwgt>
 0.1015487265D+00    2    2    0
 0.157591080299360D+03 0.000000000000000D+00 0.000000000000000D+00 0.157591080299360D+03
 0.157591080299360D+03 0.000000000000000D+00 0.000000000000000D+00 -.157591080299360D+03
 0.169187150080267D+03 0.107182307251132D+03 0.134770465234546D+02 0.364638722794422D+02
 0.145995010518452D+03 -.107182307251132D+03 -.134770465234546D+02 -.364638722794422D+02
 0.000000000000000D+00 0.000000000000000D+00 0.000000000000000D+00 0.000000000000000D+00
 0.164881956138147D+03 0.000000000000000D+00 0.000000000000000D+00 0.164881956138147D+03
 0.159279442161549D+03 0.000000000000000D+00 0.000000000000000D+00 -.159279442161549D+03
 0.166935944946464D+03 0.103763144121174D+03 0.120915530700550D+02 0.364638722794422D+02
 0.148322163231287D+03 -.110176205748105D+03 -.146902167086837D+02 -.364638722794422D+02
 0.890329012194550D+01 0.641306162693138D+01 0.259866363862873D+01 0.560251397659849D+01
-.105708488155D-03 0.000000000000D+00 0.000000000000D+00 0.124045694022D-02 0.000000000000D+00  5 -2 2 25 23 21 2 0.16938802D-02 0.34701949D+00 0.23497682D+05 0.23497682D+05 0.23497682D+05 0.12261938D+01  1  2  8  2  5  2        2 -.851099176435D-01 0.100000000000D+01
0.255730951904D-03 0.000000000000D+00 0.000000000000D+00 0.124045694022D-02 0.207180766046D-03  5 -2 2 25 23 21 2 0.17722467D-02 0.35073731D+00 0.24585388D+05 0.24585388D+05 0.24585388D+05 0.12240771D+01  1  2  1  2  5  2        2 0.186658644140D+00 0.100000000000D+01
  </mgrwgt>
  </event>
  <event>
  4     66 0.46888340E-03 0.71038335E+02 0.75467711E-02 0.12380155E+00
       -2 -1    0    0    0  501 0.00000000E+00 0.00000000E+00 0.18988091E+02 0.18990787E+02 0.32000000E+00 0.0000E+00 0.9000E+01
        2 -1    0    0  501    0 0.00000000E+00 0.00000000E+00 -.65818231E+03 0.65818239E+03 0.32000000E+00 0.0000E+00 0.9000E+01
       25  1    1    2    0    0 -.19151080E+02 0.94597164E+01 -.42211950E+03 0.44075631E+03 0.12500000E+03 0.0000E+00 0.9000E+01
       23  1    1    2    0    0 0.19151080E+02 -.94597164E+01 -.21707472E+03 0.23641687E+03 0.91188000E+02 0.0000E+00 0.9000E+01
#aMCatNLO 1  0  0  2  1 0.24466552D+02 0.00000000D+00  -5  5  0 0.00000000D+00 0.00000000D+00 0.00000000D+00 0.00000000D+00 0.00000000D+00
  <mgrwgt>
 0.2149695508D+00    9    2    0
 0.111796979390801D+03 0.000000000000000D+00 0.000000000000000D+00 0.111796979390801D+03
 0.111796979390801D+03 0.000000000000000D+00 0.000000000000000D+00 -.111796979390801D+03
 0.128143012834262D+03 -.191510796653329D+02 0.945971642099922D+01 -.184223139460867D+02
 0.954509459473390D+02 0.191510796653329D+02 -.945971642099922D+01 0.184223139460867D+02
 0.000000000000000D+00 0.000000000000000D+00 -.000000000000000D+00 -.000000000000000D+00
 0.117017070659976D+03 0.000000000000000D+00 0.000000000000000D+00 0.117017070659976D+03
 0.145335022205310D+03 0.000000000000000D+00 0.000000000000000D+00 -.145335022205310D+03
 0.131206549208015D+03 -.304909673150389D+02 0.179186443722842D+02 -.184223139460867D+02
 0.937220407752597D+02 0.108796162439145D+02 -.328966295179383D+01 0.184223139460867D+02
 0.374235028820108D+02 0.196113510711244D+02 -.146289814204904D+02 -.283179515453347D+02
0.781280020156D-04 0.000000000000D+00 0.000000000000D+00 0.179771727514D-02 0.000000000000D+00  5 -2 2 25 23 21 0 0.29214581D-02 0.10125903D+00 0.12151553D+05 0.12151553D+05 0.12151553D+05 0.12583858D+01  1  2  2  2  5  2        2 0.144703883416D+00 0.100000000000D+01
-.433939857544D-05 0.000000000000D+00 -.300032099315D-06 0.179771727514D-02 0.000000000000D+00  5 -2 2 25 23 21 2 0.29214581D-02 0.10125903D+00 0.12151553D+05 0.12151553D+05 0.12151553D+05 0.12583858D+01  1  2  3  2  5  2        2 -.127271345888D-01 0.100000000000D+01
0.539540755706D-05 0.000000000000D+00 0.000000000000D+00 0.179771727514D-02 0.000000000000D+00  5 -2 2 25 23 21 2 0.29214581D-02 0.10125903D+00 0.12151553D+05 0.12151553D+05 0.12151553D+05 0.12583858D+01  1  2 15  2  5  2        2 0.158243307100D-01 0.100000000000D+01
0.163129343496D-03 0.000000000000D+00 0.000000000000D+00 0.179771727514D-02 0.000000000000D+00  5 -2 2 25 23 21 2 0.29214581D-02 0.13348230D+00 0.15161857D+05 0.15161857D+05 0.15161857D+05 0.12472915D+01  1  2 12  2  5  2        2 0.339128724255D+00 0.100000000000D+01
-.166793814476D-03 0.000000000000D+00 0.000000000000D+00 0.179771727514D-02 0.000000000000D+00  5 -2 2 25 23 21 2 0.29214581D-02 0.10125903D+00 0.12151553D+05 0.12151553D+05 0.12151553D+05 0.12583858D+01  1  2  4  2  5  2        2 -.489193902916D+00 0.100000000000D+01
-.239165428449D-03 0.000000000000D+00 -.466218191673D-04 0.179771727514D-02 0.000000000000D+00  5 -2 2 25 23 21 2 0.29214581D-02 0.13501719D+00 0.12151553D+05 0.12151553D+05 0.12151553D+05 0.12583858D+01  1  2  5  2  5  2        2 -.494921035373D+00 0.100000000000D+01
0.244264417174D-03 0.000000000000D+00 0.447564681127D-04 0.179771727514D-02 0.000000000000D+00  5 -2 2 25 23 21 2 0.29214581D-02 0.10125903D+00 0.12151553D+05 0.12151553D+05 0.12151553D+05 0.12583858D+01  1  2  6  2  5  2        2 0.716409442134D+00 0.100000000000D+01
0.594036546380D-05 0.000000000000D+00 0.000000000000D+00 0.179771727514D-02 0.000000000000D+00  5 -2 21 25 23 -2 2 0.29214581D-02 0.13348230D+00 0.15161857D+05 0.15161857D+05 0.15161857D+05 0.12472915D+01  1  2 12  4  5  2        2 0.128057592125D-01 0.100000000000D+01
-.799030354569D-05 0.000000000000D+00 -.174848635312D-05 0.179771727514D-02 0.000000000000D+00  5 -2 21 25 23 -2 2 0.29214581D-02 0.13501719D+00 0.12151553D+05 0.12151553D+05 0.12151553D+05 0.12583858D+01  1  2  5  4  5  2        2 -.170605160180D-01 0.100000000000D+01
  </mgrwgt>
  </event>
  <event>
  5     66 0.46888340E-03 0.12317297E+03 0.75467711E-02 0.11497169E+00
       -2 -1    0    0    0  501 0.00000000E+00 0.00000000E+00 0.43355577E+02 0.43356758E+02 0.32000000E+00 0.0000E+00 0.9000E+01
        2 -1    0    0  502    0 0.00000000E+00 0.00000000E+00 -.13124703E+04 0.13124703E+04 0.32000000E+00 0.0000E+00 0.9000E+01
       25  1    1    2    0    0 -.56454730E+02 -.25555709E+02 -.52192674E+03 0.54025249E+03 0.12500000E+03 0.0000E+00 0.9000E+01
       23  1    1    2    0    0 -.50093393E+02 0.88666421E+02 -.13917998E+03 0.19508306E+03 0.91188000E+02 0.0000E+00 0.9000E+01
       21  1    1    2  502  501 0.10654812E+03 -.63110712E+02 -.60800801E+03 0.62049156E+03 0.75000000E+00 0.0000E+00 0.9000E+01
#aMCatNLO 2  0  0  2  1 0.12383644D+03 0.00000000D+00  -5  5  0 0.00000000D+00 0.00000000D+00 0.00000000D+00 0.00000000D+00 0.00000000D+00
  <mgrwgt>
 0.4797016685D-01    1    2    0
 0.148594087934716D+03 0.000000000000000D+00 0.000000000000000D+00 0.148594087934716D+03
 0.148594087934716D+03 0.000000000000000D+00 0.000000000000000D+00 -.148594087934716D+03
 0.160892270112751D+03 -.856121309397367D+00 -.584879438170991D+02 -.827027814912280D+02
 0.136295905756682D+03 0.856121309397367D+00 0.584879438170991D+02 0.827027814912280D+02
 0.000000000000000D+00 0.000000000000000D+00 -.000000000000000D+00 -.000000000000000D+00
 0.188050506200839D+03 0.000000000000000D+00 0.000000000000000D+00 0.188050506200839D+03
 0.302595700285635D+03 0.000000000000000D+00 0.000000000000000D+00 -.302595700285635D+03
 0.162188103274215D+03 -.564547296935271D+02 -.255557091964308D+02 -.827027814912280D+02
 0.159768844676787D+03 -.500933930270239D+02 0.886664214571091D+02 0.827027814912280D+02
 0.168689258535472D+03 0.106548122720551D+03 -.631107122606783D+02 -.114545194084796D+03
0.153124675226D-03 0.000000000000D+00 0.000000000000D+00 0.101150378948D-02 0.669602370067D-06  5 -2 2 25 23 21 2 0.66701557D-02 0.20191779D+00 0.40010452D+05 0.40010452D+05 0.40010452D+05 0.12019887D+01  1  2  1  2  5  2        2 0.479701668465D-01 0.100000000000D+01
  </mgrwgt>
  </event>
  <event>
  4     66 0.46888340E-03 0.12405884E+03 0.75467711E-02 0.11762137E+00
       -2 -1    0    0    0  501 0.00000000E+00 0.00000000E+00 0.35440348E+03 0.35440362E+03 0.32000000E+00 0.0000E+00 0.9000E+01
        2 -1    0    0  501    0 0.00000000E+00 0.00000000E+00 -.48572909E+02 0.48573963E+02 0.32000000E+00 0.0000E+00 0.9000E+01
       25  1    1    2    0    0 -.10726668E+02 -.59349756E+02 0.10397539E+03 0.17341665E+03 0.12500000E+03 0.0000E+00 0.9000E+01
       23  1    1    2    0    0 0.10726668E+02 0.59349756E+02 0.20185518E+03 0.22956093E+03 0.91188000E+02 0.0000E+00 0.9000E+01
#aMCatNLO 1  0  0  1  1 0.81742105D+02 0.00000000D+00  -5  5  0 0.00000000D+00 0.00000000D+00 0.00000000D+00 0.00000000D+00 0.00000000D+00
  <mgrwgt>
 0.1413263522D+00    3    2    0
 0.131204608581042D+03 0.000000000000000D+00 0.000000000000000D+00 0.131204608581042D+03
 0.131204608581042D+03 0.000000000000000D+00 0.000000000000000D+00 -.131204608581042D+03
 0.145132756256367D+03 -.107266683977923D+02 -.593497556125663D+02 -.424389211972037D+02
 0.117276460905716D+03 0.107266683977923D+02 0.593497556125663D+02 0.424389211972037D+02
 0.000000000000000D+00 0.000000000000000D+00 -.000000000000000D+00 -.000000000000000D+00
 0.156337598189123D+03 0.000000000000000D+00 0.000000000000000D+00 0.156337598189123D+03
 0.225738243515780D+03 0.000000000000000D+00 0.000000000000000D+00 -.225738243515780D+03
 0.136353079248903D+03 -.276674259640266D+02 -.200153373391553D+02 -.424389211972037D+02
 0.138493003085431D+03 -.466639205422672D+01 0.950906058053837D+02 0.424389211972037D+02
 0.107229759370570D+03 0.323338180182533D+02 -.750752684662284D+02 -.694006453266577D+02
0.485388401228D-03 0.000000000000D+00 0.000000000000D+00 0.139193287854D-02 0.000000000000D+00  5 -2 2 25 23 21 0 0.54523704D-01 0.74728474D-02 0.15390596D+05 0.15390596D+05 0.15390596D+05 0.12465518D+01  1  2  2  1  5  1       -2 0.138399574450D+00 0.100000000000D+01
-.268631955615D-04 0.000000000000D+00 -.186401926642D-05 0.139193287854D-02 0.000000000000D+00  5 -2 2 25 23 21 2 0.54523704D-01 0.74728474D-02 0.15390596D+05 0.15390596D+05 0.15390596D+05 0.12465518D+01  1  2  3  1  5  1       -2 -.119021029677D-01 0.100000000000D+01
0.334689695551D-04 0.000000000000D+00 0.000000000000D+00 0.139193287854D-02 0.000000000000D+00  5 -2 2 25 23 21 2 0.54523704D-01 0.74728474D-02 0.15390596D+05 0.15390596D+05 0.15390596D+05 0.12465518D+01  1  2 15  1  5  1       -2 0.148288806876D-01 0.100000000000D+01
  </mgrwgt>
  </event>
  <event>
  4     66 0.46888340E-03 0.97220854E+02 0.75467711E-02 0.11496515E+00
       -2 -1    0    0    0  501 0.00000000E+00 0.00000000E+00 0.30085835E+03 0.30085852E+03 0.32000000E+00 0.0000E+00 0.9000E+01
        2 -1    0    0  501    0 0.00000000E+00 0.00000000E+00 -.20886883E+03 0.20886908E+03 0.32000000E+00 0.0000E+00 0.9000E+01
       25  1    1    2    0    0 -.54472819E+02 -.15466086E+03 -.11029050E+03 0.23382956E+03 0.12500000E+03 0.0000E+00 0.9000E+01
       23  1    1    2    0    0 0.54472819E+02 0.15466086E+03 0.20228002E+03 0.27589804E+03 0.91188000E+02 0.0000E+00 0.9000E+01
#aMCatNLO 1  0  0  1  2 0.62850558D+01 0.00000000D+00  -5  5  0 0.00000000D+00 0.00000000D+00 0.00000000D+00 0.00000000D+00 0.00000000D+00
  <mgrwgt>
 0.1209587120D+00   11    2    0
 0.250679153927993D+03 0.000000000000000D+00 0.000000000000000D+00 0.250679153927993D+03
 0.250679153927993D+03 0.000000000000000D+00 0.000000000000000D+00 -.250679153927993D+03
 0.257969098605742D+03 -.544728189235494D+02 -.154660857591897D+03 -.155034792749627D+03
 0.243389209250244D+03 0.544728189235494D+02 0.154660857591897D+03 0.155034792749627D+03
 0.000000000000000D+00 -.000000000000000D+00 -.000000000000000D+00 0.000000000000000D+00
 0.256702347824230D+03 0.000000000000000D+00 0.000000000000000D+00 0.256702347824230D+03
 0.252343805421550D+03 0.000000000000000D+00 0.000000000000000D+00 -.252343805421550D+03
 0.256436304086935D+03 -.516713448459082D+02 -.153064898695496D+03 -.155034792749627D+03
 0.244961397127202D+03 0.571323974532565D+02 0.156175980665511D+03 0.155034792749627D+03
 0.764845203164264D+01 -.546105260734834D+01 -.311108197001534D+01 0.435854240267981D+01
0.106043936382D-02 0.000000000000D+00 0.000000000000D+00 0.676984194793D-03 0.000000000000D+00  5 -2 2 25 23 21 0 0.46285933D-01 0.32133698D-01 0.38771260D+05 0.38771260D+05 0.38771260D+05 0.12033787D+01  1  2  2  1  5  1       -2 0.770987515563D-01 0.100000000000D+01
-.547371784288D-04 0.000000000000D+00 -.407236637717D-05 0.676984194793D-03 0.000000000000D+00  5 -2 2 25 23 21 2 0.46285933D-01 0.32133698D-01 0.38771260D+05 0.38771260D+05 0.38771260D+05 0.12033787D+01  1  2  3  1  5  1       -2 -.576299911525D-02 0.100000000000D+01
0.725441542533D-04 0.000000000000D+00 0.000000000000D+00 0.676984194793D-03 0.000000000000D+00  5 -2 2 25 23 21 2 0.46285933D-01 0.32133698D-01 0.38771260D+05 0.38771260D+05 0.38771260D+05 0.12033787D+01  1  2 15  1  5  1       -2 0.763780503085D-02 0.100000000000D+01
0.139341320920D-02 0.000000000000D+00 0.000000000000D+00 0.676984194793D-03 0.000000000000D+00  5 -2 2 25 23 21 2 0.47549350D-01 0.32133698D-01 0.40041501D+05 0.40041501D+05 0.40041501D+05 0.12019545D+01  1  2 12  1  5  1       -2 0.138837075646D+00 0.100000000000D+01
-.292182990751D-02 0.000000000000D+00 0.000000000000D+00 0.676984194793D-03 0.000000000000D+00  5 -2 2 25 23 21 2 0.46285933D-01 0.32133698D-01 0.38771260D+05 0.38771260D+05 0.38771260D+05 0.12033787D+01  1  2  4  1  5  1       -2 -.307624610095D+00 0.100000000000D+01
-.337953602876D-01 0.000000000000D+00 -.412776231770D-02 0.676984194793D-03 0.000000000000D+00  5 -2 2 25 23 21 2 0.47655407D-01 0.32133698D-01 0.38771260D+05 0.38771260D+05 0.38771260D+05 0.12033787D+01  1  2  5  1  5  1       -2 -.335987051671D+01 0.100000000000D+01
0.339030586991D-01 0.000000000000D+00 0.412600824734D-02 0.676984194793D-03 0.000000000000D+00  5 -2 2 25 23 21 2 0.46285933D-01 0.32133698D-01 0.38771260D+05 0.38771260D+05 0.38771260D+05 0.12033787D+01  1  2  6  1  5  1       -2 0.356948061437D+01 0.100000000000D+01
0.153409253101D-02 0.000000000000D+00 0.000000000000D+00 0.676984194793D-03 0.132118266921D-03  5 -2 2 25 23 21 2 0.47398068D-01 0.32347084D-01 0.40041501D+05 0.40041501D+05 0.40041501D+05 0.12019545D+01  1  2 11  1  5  1       -2 0.152712108423D+00 0.100000000000D+01
0.438974891137D-04 0.000000000000D+00 0.000000000000D+00 0.676984194793D-03 0.000000000000D+00  5 21 2 25 23 2 2 0.47549350D-01 0.32133698D-01 0.40041501D+05 0.40041501D+05 0.40041501D+05 0.12019545D+01  1  2 12  3  5  1       -2 0.536453531990D-01 0.100000000000D+01
-.175674068690D-03 0.000000000000D+00 -.216117574997D-04 0.676984194793D-03 0.000000000000D+00  5 21 2 25 23 2 2 0.47655407D-01 0.32133698D-01 0.38771260D+05 0.38771260D+05 0.38771260D+05 0.12033787D+01  1  2  5  3  5  1       -2 -.214367615181D+00 0.100000000000D+01
0.751055309949D-05 0.000000000000D+00 0.000000000000D+00 0.676984194793D-03 0.563845939342D-06  5 21 2 25 23 2 2 0.47398068D-01 0.32347084D-01 0.40041501D+05 0.40041501D+05 0.40041501D+05 0.12019545D+01  1  2 11  3  5  1       -2 0.917274487814D-02 0.100000000000D+01
  </mgrwgt>
  </event>
  <event>
  5     66 -.46888340E-03 0.13267329E+03 0.75467711E-02 0.12053055E+00
       -2 -1    0    0    0  501 0.00000000E+00 0.00000000E+00 0.26393751E+02 0.26395690E+02 0.32000000E+00 0.0000E+00 0.9000E+01
        2 -1    0    0  502    0 0.00000000E+00 0.00000000E+00 -.10921520E+04 0.10921520E+04 0.32000000E+00 0.0000E+00 0.9000E+01
       25  1    1    2    0    0 -.83812666E+02 0.28162937E+02 -.27250836E+03 0.31257562E+03 0.12500000E+03 0.0000E+00 0.9000E+01
       23  1    1    2    0    0 0.58173236E+02 -.32959269E+02 -.70261413E+03 0.71165463E+03 0.91188000E+02 0.0000E+00 0.9000E+01
       21  1    1    2  502  501 0.25639430E+02 0.47963318E+01 -.90635760E+02 0.94317489E+02 0.75000000E+00 0.0000E+00 0.9000E+01
#aMCatNLO 2  0  0  2  1 0.26084194D+02 0.00000000D+00  -5  5  0 0.00000000D+00 0.00000000D+00 0.00000000D+00 0.00000000D+00 0.00000000D+00
  <mgrwgt>
 -.4113752640D-01    2    2    0
 0.156127629939318D+03 0.000000000000000D+00 0.000000000000000D+00 0.156127629939318D+03
 0.156127629939318D+03 0.000000000000000D+00 0.000000000000000D+00 -.156127629939318D+03
 0.167832394590586D+03 -.698162982005449D+02 0.307812180821316D+02 0.819811795045855D+02
 0.144422865288050D+03 0.698162982005449D+02 -.307812180821316D+02 -.819811795045855D+02
 0.000000000000000D+00 0.000000000000000D+00 0.000000000000000D+00 -.000000000000000D+00
 0.168412135318845D+03 0.000000000000000D+00 0.000000000000000D+00 0.168412135318845D+03
 0.171159143622578D+03 0.000000000000000D+00 0.000000000000000D+00 -.171159143622578D+03
 0.173676791246718D+03 -.838126659854116D+02 0.281629374393162D+02 0.819811795045855D+02
 0.139666044184716D+03 0.581732355085891D+02 -.329592692835579D+02 -.819811795045855D+02
 0.262284435099889D+02 0.256394304768225D+02 0.479633184424176D+01 -.274700830373313D+01
-.214655712737D-03 0.000000000000D+00 0.000000000000D+00 0.100612686493D-02 0.000000000000D+00  5 -2 2 25 23 21 2 0.37644086D-02 0.17353059D+00 0.21355169D+05 0.21355169D+05 0.21355169D+05 0.12307037D+01  1  2 13  2  5  2        2 -.210574088252D+00 0.100000000000D+01
0.184403041208D-03 0.000000000000D+00 0.000000000000D+00 0.100612686493D-02 0.120332210745D-04  5 -2 2 25 23 21 2 0.40606015D-02 0.16801823D+00 0.21355169D+05 0.21355169D+05 0.21355169D+05 0.12307037D+01  1  2  1  2  5  2        2 0.169436561851D+00 0.100000000000D+01
  </mgrwgt>
  </event>
  <event>
  4     66 0.46888340E-03 0.11931331E+03 0.75467711E-02 0.11626441E+00
       -2 -1    0    0    0  501 0.00000000E+00 0.00000000E+00 0.14694633E+03 0.14694668E+03 0.32000000E+00 0.0000E+00 0.9000E+01
        2 -1    0    0  501    0 0.00000000E+00 0.00000000E+00 -.24547369E+03 0.24547390E+03 0.32000000E+00 0.0000E+00 0.9000E+01
       25  1    1    2    0    0 0.12307739E+03 -.10793402E+02 -.14938250E+03 0.23066138E+03 0.12500000E+03 0.0000E+00 0.9000E+01
       23  1    1    2    0    0 -.12307739E+03 0.10793402E+02 0.50855138E+02 0.16175920E+03 0.91188000E+02 0.0000E+00 0.9000E+01
#aMCatNLO 1  0  0  2  1 0.39668698D+02 0.00000000D+00  -5  5  0 0.00000000D+00 0.00000000D+00 0.00000000D+00 0.00000000D+00 0.00000000D+00
  <mgrwgt>
 0.2022392071D+00    9    2    0
 0.189925164011559D+03 0.000000000000000D+00 0.000000000000000D+00 0.189925164011559D+03
 0.189925164011559D+03 0.000000000000000D+00 0.000000000000000D+00 -.189925164011559D+03
 0.199547044153196D+03 0.123077393424195D+03 -.107934021388099D+02 -.944959286342735D+02
 0.180303283869922D+03 -.123077393424195D+03 0.107934021388099D+02 0.944959286342735D+02
 0.000000000000000D+00 -.000000000000000D+00 0.000000000000000D+00 -.000000000000000D+00
 0.200117021968038D+03 0.000000000000000D+00 0.000000000000000D+00 0.200117021968038D+03
 0.233910510415987D+03 0.000000000000000D+00 0.000000000000000D+00 -.233910510415987D+03
 0.209377429086789D+03 0.136087553525535D+03 -.276514928706314D+02 -.944959286342735D+02
 0.172538631496004D+03 -.111851531168990D+03 -.375266055120082D+01 0.944959286342735D+02
 0.521114718012318D+02 -.242360223565448D+02 0.314041534218322D+02 -.337934884479490D+02
0.638639573197D-03 0.000000000000D+00 0.000000000000D+00 0.910003782254D-03 0.000000000000D+00  5 -2 2 25 23 21 0 0.22607171D-01 0.37765226D-01 0.27111490D+05 0.27111490D+05 0.27111490D+05 0.12195402D+01  1  2  2  2  5  2        2 0.144671536879D+00 0.100000000000D+01
-.346006278076D-04 0.000000000000D+00 -.245254411874D-05 0.910003782254D-03 0.000000000000D+00  5 -2 2 25 23 21 2 0.22607171D-01 0.37765226D-01 0.27111490D+05 0.27111490D+05 0.27111490D+05 0.12195402D+01  1  2  3  2  5  2        2 -.116574489049D-01 0.100000000000D+01
0.437244283645D-04 0.000000000000D+00 0.000000000000D+00 0.910003782254D-03 0.000000000000D+00  5 -2 2 25 23 21 2 0.22607171D-01 0.37765226D-01 0.27111490D+05 0.27111490D+05 0.27111490D+05 0.12195402D+01  1  2 15  2  5  2        2 0.147313884704D-01 0.100000000000D+01
0.118568382867D-02 0.000000000000D+00 0.000000000000D+00 0.910003782254D-03 0.000000000000D+00  5 -2 2 25 23 21 2 0.22607171D-01 0.47355359D-01 0.34386204D+05 0.34386204D+05 0.34386204D+05 0.12087273D+01  1  2 12  2  5  2        2 0.309228869420D+00 0.100000000000D+01
-.122839862582D-02 0.000000000000D+00 0.000000000000D+00 0.910003782254D-03 0.000000000000D+00  5 -2 2 25 23 21 2 0.22607171D-01 0.37765226D-01 0.27111490D+05 0.27111490D+05 0.27111490D+05 0.12195402D+01  1  2  4  2  5  2        2 -.413865155711D+00 0.100000000000D+01
-.193721814949D-02 0.000000000000D+00 -.455168973746D-03 0.910003782254D-03 0.000000000000D+00  5 -2 2 25 23 21 2 0.22607171D-01 0.48539975D-01 0.27111490D+05 0.27111490D+05 0.27111490D+05 0.12195402D+01  1  2  5  2  5  2        2 -.499227974342D+00 0.100000000000D+01
0.200203953596D-02 0.000000000000D+00 0.441198014930D-03 0.910003782254D-03 0.000000000000D+00  5 -2 2 25 23 21 2 0.22607171D-01 0.37765226D-01 0.27111490D+05 0.27111490D+05 0.27111490D+05 0.12195402D+01  1  2  6  2  5  2        2 0.674515899704D+00 0.100000000000D+01
0.372616890533D-04 0.000000000000D+00 0.000000000000D+00 0.910003782254D-03 0.000000000000D+00  5 -2 21 25 23 -2 2 0.22607171D-01 0.47355359D-01 0.34386204D+05 0.34386204D+05 0.34386204D+05 0.12087273D+01  1  2 12  4  5  2        2 0.314922982533D-01 0.100000000000D+01
-.580767445187D-04 0.000000000000D+00 -.154497608424D-04 0.910003782254D-03 0.000000000000D+00  5 -2 21 25 23 -2 2 0.22607171D-01 0.48539975D-01 0.27111490D+05 0.27111490D+05 0.27111490D+05 0.12195402D+01  1  2  5  4  5  2        2 -.476502067076D-01 0.100000000000D+01
  </mgrwgt>
  </event>
  <event>
  4     66 0.46888340E-03 0.30889936E+02 0.75467711E-02 0.12422500E+00
       -2 -1    0    0    0  501 0.00000000E+00 0.00000000E+00 0.14829984E+02 0.14833436E+02 0.32000000E+00 0.0000E+00 0.9000E+01
        2 -1    0    0  501    0 0.00000000E+00 0.00000000E+00 -.10261301E+04 0.10261301E+04 0.32000000E+00 0.0000E+00 0.9000E+01
       25  1    1    2    0    0 -.37335128E+02 -.27498160E+02 -.71956475E+03 0.73181179E+03 0.12500000E+03 0.0000E+00 0.9000E+01
       23  1    1    2    0    0 0.37335128E+02 0.27498160E+02 -.29173536E+03 0.30915179E+03 0.91188000E+02 0.0000E+00 0.9000E+01
#aMCatNLO 1  0  0  2  1 0.53709278D+01 0.00000000D+00  -5  5  0 0.00000000D+00 0.00000000D+00 0.00000000D+00 0.00000000D+00 0.00000000D+00
  <mgrwgt>
 0.2818743065D+00   11    2    0
 0.123366591856573D+03 0.000000000000000D+00 0.000000000000000D+00 0.123366591856573D+03
 0.123366591856573D+03 0.000000000000000D+00 0.000000000000000D+00 -.123366591856573D+03
 0.138179655397508D+03 -.373351282468112D+02 -.274981599602533D+02 -.363119341727828D+02
 0.108553528315638D+03 0.373351282468112D+02 0.274981599602533D+02 0.363119341727828D+02
 0.000000000000000D+00 0.000000000000000D+00 0.000000000000000D+00 -.000000000000000D+00
 0.124680807169327D+03 0.000000000000000D+00 0.000000000000000D+00 0.124680807169327D+03
 0.129008091535460D+03 0.000000000000000D+00 0.000000000000000D+00 -.129008091535460D+03
 0.139213959476880D+03 -.395250184024096D+02 -.295760523084298D+02 -.363119341727828D+02
 0.107577674923724D+03 0.356288755830437D+02 0.258791703753033D+02 0.363119341727828D+02
 0.689726430418281D+01 0.389614281936591D+01 0.369688193312648D+01 -.432728436613320D+01
0.702365973114D-04 0.000000000000D+00 0.000000000000D+00 0.151286724669D-02 0.000000000000D+00  5 -2 2 25 23 21 0 0.22818054D-02 0.15786644D+00 0.13879579D+05 0.13879579D+05 0.13879579D+05 0.12516845D+01  1  2  2  2  5  2        2 0.107323640916D+00 0.100000000000D+01
-.389196217919D-05 0.000000000000D+00 -.269727027397D-06 0.151286724669D-02 0.000000000000D+00  5 -2 2 25 23 21 2 0.22818054D-02 0.15786644D+00 0.13879579D+05 0.13879579D+05 0.13879579D+05 0.12516845D+01  1  2  3  2  5  2        2 -.931730445630D-02 0.100000000000D+01
0.483793939924D-05 0.000000000000D+00 0.000000000000D+00 0.151286724669D-02 0.000000000000D+00  5 -2 2 25 23 21 2 0.22818054D-02 0.15786644D+00 0.13879579D+05 0.13879579D+05 0.13879579D+05 0.12516845D+01  1  2 15  2  5  2        2 0.115819610388D-01 0.100000000000D+01
0.174391665497D-03 0.000000000000D+00 0.000000000000D+00 0.151286724669D-02 0.000000000000D+00  5 -2 2 25 23 21 2 0.22818054D-02 0.16590184D+00 0.14523837D+05 0.14523837D+05 0.14523837D+05 0.12494228D+01  1  2 12  2  5  2        2 0.388546431644D+00 0.100000000000D+01
-.424561113391D-03 0.000000000000D+00 0.000000000000D+00 0.151286724669D-02 0.000000000000D+00  5 -2 2 25 23 21 2 0.22818054D-02 0.15786644D+00 0.13879579D+05 0.13879579D+05 0.13879579D+05 0.12516845D+01  1  2  4  2  5  2        2 -.101639352379D+01 0.100000000000D+01
-.149348006941D-02 0.000000000000D+00 -.191602084644D-03 0.151286724669D-02 0.000000000000D+00  5 -2 2 25 23 21 2 0.22818054D-02 0.16604601D+00 0.13879579D+05 0.13879579D+05 0.13879579D+05 0.12516845D+01  1  2  5  2  5  2        2 -.333046731893D+01 0.100000000000D+01
0.150148699757D-02 0.000000000000D+00 0.191357876727D-03 0.151286724669D-02 0.000000000000D+00  5 -2 2 25 23 21 2 0.22818054D-02 0.15786644D+00 0.13879579D+05 0.13879579D+05 0.13879579D+05 0.12516845D+01  1  2  6  2  5  2        2 0.359453942497D+01 0.100000000000D+01
0.249177832115D-03 0.000000000000D+00 0.000000000000D+00 0.151286724669D-02 0.437146362235D-03  5 -2 2 25 23 21 2 0.23061133D-02 0.16508560D+00 0.14523837D+05 0.14523837D+05 0.14523837D+05 0.12494228D+01  1  2 11  2  5  2        2 0.550540652137D+00 0.100000000000D+01
0.262105562796D-05 0.000000000000D+00 0.000000000000D+00 0.151286724669D-02 0.000000000000D+00  5 -2 21 25 23 -2 2 0.22818054D-02 0.16590184D+00 0.14523837D+05 0.14523837D+05 0.14523837D+05 0.12494228D+01  1  2 12  4  5  2        2 0.463882229235D-02 0.100000000000D+01
-.129613451420D-04 0.000000000000D+00 -.168490606396D-05 0.151286724669D-02 0.000000000000D+00  5 -2 21 25 23 -2 2 0.22818054D-02 0.16604601D+00 0.13879579D+05 0.13879579D+05 0.13879579D+05 0.12516845D+01  1  2  5  4  5  2        2 -.229825172900D-01 0.100000000000D+01
0.218814717767D-05 0.000000000000D+00 0.000000000000D+00 0.151286724669D-02 0.344190093923D-05  5 -2 21 25 23 -2 2 0.23061133D-02 0.16508560D+00 0.14523837D+05 0.14523837D+05 0.14523837D+05 0.12494228D+01  1  2 11  4  5  2        2 0.386403801720D-02 0.100000000000D+01
  </mgrwgt>
  </event>
  <event>
  4     66 0.46888340E-03 0.33592699E+02 0.75467711E-02 0.12326921E+00
       -2 -1    0    0    0  501 0.00000000E+00 0.00000000E+00 0.14065206E+02 0.14068846E+02 0.32000000E+00 0.0000E+00 0.9000E+01
        2 -1    0    0  501    0 0.00000000E+00 0.00000000E+00 -.13304697E+04 0.13304698E+04 0.32000000E+00 0.0000E+00 0.9000E+01
       25  1    1    2    0    0 -.32405203E+02 -.30423483E+02 -.37679138E+03 0.39946518E+03 0.12500000E+03 0.0000E+00 0.9000E+01
       23  1    1    2    0    0 0.32405203E+02 0.30423483E+02 -.93961313E+03 0.94507342E+03 0.91188000E+02 0.0000E+00 0.9000E+01
#aMCatNLO 1  0  0  2  1 0.18162659D+02 0.00000000D+00  -5  5  0 0.00000000D+00 0.00000000D+00 0.00000000D+00 0.00000000D+00 0.00000000D+00
  <mgrwgt>
 0.1914367863D+00    6    2    0
 0.136805714185185D+03 0.000000000000000D+00 0.000000000000000D+00 0.136805714185185D+03
 0.136805714185185D+03 0.000000000000000D+00 0.000000000000000D+00 -.136805714185185D+03
 0.150163615022034D+03 -.324052033400562D+02 -.304234829989321D+02 0.703450478369928D+02
 0.123447813348336D+03 0.324052033400562D+02 0.304234829989321D+02 -.703450478369928D+02
 0.000000000000000D+00 -.000000000000000D+00 0.000000000000000D+00 0.000000000000000D+00
 0.147439915139614D+03 0.000000000000000D+00 0.000000000000000D+00 0.147439915139614D+03
 0.145087985351418D+03 0.000000000000000D+00 0.000000000000000D+00 -.145087985351418D+03
 0.149405293738439D+03 -.234149460838828D+02 -.346447159285396D+02 0.703450478369928D+02
 0.124808301712698D+03 0.398555303751673D+02 0.269252999190920D+02 -.703450478369928D+02
 0.183143050398957D+02 -.164405842912845D+02 0.771941600944760D+01 0.235192978819562D+01
0.125886721106D-03 0.000000000000D+00 0.000000000000D+00 0.114984773790D-02 0.000000000000D+00  5 -2 2 25 23 21 0 0.21641608D-02 0.20468793D+00 0.13702087D+05 0.13702087D+05 0.13702087D+05 0.12523283D+01  1  2  2  2  5  2        2 0.140702507457D+00 0.100000000000D+01
-.678700832412D-05 0.000000000000D+00 -.483438155783D-06 0.114984773790D-02 0.000000000000D+00  5 -2 2 25 23 21 2 0.21641608D-02 0.20468793D+00 0.13702087D+05 0.13702087D+05 0.13702087D+05 0.12523283D+01  1  2  3  2  5  2        2 -.118969795696D-01 0.100000000000D+01
0.860440744460D-05 0.000000000000D+00 0.000000000000D+00 0.114984773790D-02 0.000000000000D+00  5 -2 2 25 23 21 2 0.21641608D-02 0.20468793D+00 0.13702087D+05 0.13702087D+05 0.13702087D+05 0.12523283D+01  1  2 15  2  5  2        2 0.150827072384D-01 0.100000000000D+01
0.182660224401D-03 0.000000000000D+00 0.000000000000D+00 0.114984773790D-02 0.000000000000D+00  5 -2 2 25 23 21 2 0.21641608D-02 0.22451247D+00 0.16010703D+05 0.16010703D+05 0.16010703D+05 0.12446070D+01  1  2 12  2  5  2        2 0.271536717600D+00 0.100000000000D+01
-.129043653487D-03 0.000000000000D+00 0.000000000000D+00 0.114984773790D-02 0.000000000000D+00  5 -2 2 25 23 21 2 0.21641608D-02 0.20468793D+00 0.13702087D+05 0.13702087D+05 0.13702087D+05 0.12523283D+01  1  2  4  2  5  2        2 -.226201241520D+00 0.100000000000D+01
0.277115835078D-05 0.000000000000D+00 0.000000000000D+00 0.114984773790D-02 0.000000000000D+00  5 -2 21 25 23 -2 2 0.21641608D-02 0.22451247D+00 0.16010703D+05 0.16010703D+05 0.16010703D+05 0.12446070D+01  1  2 12  4  5  2        2 0.221307505858D-02 0.100000000000D+01
  </mgrwgt>
  </event>
  <event>
  4     66 0.46888340E-03 0.12321535E+03 0.75467711E-02 0.12254993E+00
       -2 -1    0    0    0  501 0.00000000E+00 0.00000000E+00 0.26654700E+02 0.26656621E+02 0.32000000E+00 0.0000E+00 0.9000E+01
        2 -1    0    0  501    0 0.00000000E+00 0.00000000E+00 -.57798765E+03 0.57798774E+03 0.32000000E+00 0.0000E+00 0.9000E+01
       25  1    1    2    0    0 -.15991623E+02 -.56357180E+02 -.27211762E+03 0.30513090E+03 0.12500000E+03 0.0000E+00 0.9000E+01
       23  1    1    2    0    0 0.15991623E+02 0.56357180E+02 -.27921533E+03 0.29951347E+03 0.91188000E+02 0.0000E+00 0.9000E+01
#aMCatNLO 1  0  0  2  1 0.15723529D+02 0.00000000D+00  -5  5  0 0.00000000D+00 0.00000000D+00 0.00000000D+00 0.00000000D+00 0.00000000D+00
  <mgrwgt>
 0.1910535072D+00    3    2    0
 0.124123708022051D+03 0.000000000000000D+00 0.000000000000000D+00 0.124123708022051D+03
 0.124123708022051D+03 0.000000000000000D+00 0.000000000000000D+00 -.124123708022051D+03
 0.138846416464465D+03 -.159916225479168D+02 -.563571799133286D+02 0.148816546635542D+02
 0.109400999579636D+03 0.159916225479168D+02 0.563571799133286D+02 -.148816546635542D+02
 0.000000000000000D+00 0.000000000000000D+00 -.000000000000000D+00 0.000000000000000D+00
 0.290415587129165D+03 0.000000000000000D+00 0.000000000000000D+00 0.290415587129165D+03
 0.124744670184242D+03 0.000000000000000D+00 0.000000000000000D+00 -.124744670184242D+03
 0.139296835688284D+03 -.245594874352794D+02 -.543504955281904D+02 0.148816546635542D+02
 0.109448031462883D+03 0.925024408847178D+01 0.579360818996132D+02 -.148816546635542D+02
 0.166415390162239D+03 0.153092433468076D+02 -.358558637142276D+01 0.165670916944923D+03
0.142235946123D-03 0.000000000000D+00 0.000000000000D+00 0.159034239944D-02 0.000000000000D+00  5 -2 2 25 23 21 0 0.41008776D-02 0.88921332D-01 0.15182024D+05 0.15182024D+05 0.15182024D+05 0.12472258D+01  1  2  2  2  5  2        2 0.187107974709D+00 0.100000000000D+01
-.790147867632D-05 0.000000000000D+00 -.546223484698D-06 0.159034239944D-02 0.000000000000D+00  5 -2 2 25 23 21 2 0.41008776D-02 0.88921332D-01 0.15182024D+05 0.15182024D+05 0.15182024D+05 0.12472258D+01  1  2  3  2  5  2        2 -.161689370879D-01 0.100000000000D+01
0.982959184759D-05 0.000000000000D+00 0.000000000000D+00 0.159034239944D-02 0.000000000000D+00  5 -2 2 25 23 21 2 0.41008776D-02 0.88921332D-01 0.15182024D+05 0.15182024D+05 0.15182024D+05 0.12472258D+01  1  2 15  2  5  2        2 0.201144695435D-01 0.100000000000D+01
  </mgrwgt>
  </event>
  <event>
  4     66 0.46888340E-03 0.66266397E+02 0.75467711E-02 0.12320296E+00
       -4 -1    0    0    0  501 0.00000000E+00 0.00000000E+00 0.31608379E+02 0.31646361E+02 0.15500000E+01 0.0000E+00 0.9000E+01
        4 -1    0    0  501    0 0.00000000E+00 0.00000000E+00 -.45806251E+03 0.45806513E+03 0.15500000E+01 0.0000E+00 0.9000E+01
       25  1    1    2    0    0 -.28482924E+02 -.44018695E+02 -.24018946E+03 0.27579866E+03 0.12500000E+03 0.0000E+00 0.9000E+01
       23  1    1    2    0    0 0.28482924E+02 0.44018695E+02 -.18626467E+03 0.21391284E+03 0.91188000E+02 0.0000E+00 0.9000E+01
#aMCatNLO 1  0  0  2  1 0.12850834D+02 0.00000000D+00  -5  5  0 0.00000000D+00 0.00000000D+00 0.00000000D+00 0.00000000D+00 0.00000000D+00
  <mgrwgt>
 0.6171578119D-02    9    2    0
 0.120368414446213D+03 0.000000000000000D+00 0.000000000000000D+00 0.120368414446213D+03
 0.120368414446213D+03 0.000000000000000D+00 0.000000000000000D+00 -.120368414446213D+03
 0.135550446812491D+03 -.284829239966273D+02 -.440186954611263D+02 -.334898350772712D-01
 0.105186382079935D+03 0.284829239966273D+02 0.440186954611263D+02 0.334898350772712D-01
 0.000000000000000D+00 0.000000000000000D+00 -.000000000000000D+00 -.000000000000000D+00
 0.122320735227045D+03 0.000000000000000D+00 0.000000000000000D+00 0.122320735227045D+03
 0.143721865893734D+03 0.000000000000000D+00 0.000000000000000D+00 -.143721865893734D+03
 0.134639208119142D+03 -.324978024576069D+02 -.380343013187676D+02 -.334898350772712D-01
 0.106440373613417D+03 0.253382599145949D+02 0.487059878648941D+02 0.334898350772712D-01
 0.249630193882205D+02 0.715954254301194D+01 -.106716865461266D+02 -.214011306666890D+02
0.894901694507D-04 0.000000000000D+00 0.000000000000D+00 0.166632825384D-02 0.000000000000D+00  5 -4 4 25 23 21 0 0.48659509D-02 0.70474279D-01 0.14488554D+05 0.14488554D+05 0.14488554D+05 0.12495438D+01  1  2  2  2  5  2        4 0.677551013838D-02 0.100000000000D+01
-.497167608060D-05 0.000000000000D+00 -.343665813994D-06 0.166632825384D-02 0.000000000000D+00  5 -4 4 25 23 21 2 0.48659509D-02 0.70474279D-01 0.14488554D+05 0.14488554D+05 0.14488554D+05 0.12495438D+01  1  2  3  2  5  2        4 -.587722661691D-03 0.100000000000D+01
0.616191003215D-05 0.000000000000D+00 0.000000000000D+00 0.166632825384D-02 0.000000000000D+00  5 -4 4 25 23 21 2 0.48659509D-02 0.70474279D-01 0.14488554D+05 0.14488554D+05 0.14488554D+05 0.12495438D+01  1  2 15  2  5  2        4 0.728425204397D-03 0.100000000000D+01
0.495577621547D-03 0.000000000000D+00 0.000000000000D+00 0.166632825384D-02 0.000000000000D+00  5 -4 4 25 23 21 2 0.48659509D-02 0.84645781D-01 0.16120163D+05 0.16120163D+05 0.16120163D+05 0.12442725D+01  1  2 12  2  5  2        4 0.393094779077D-01 0.100000000000D+01
-.499790943673D-03 0.000000000000D+00 0.000000000000D+00 0.166632825384D-02 0.000000000000D+00  5 -4 4 25 23 21 2 0.48659509D-02 0.70474279D-01 0.14488554D+05 0.14488554D+05 0.14488554D+05 0.12495438D+01  1  2  4  2  5  2        4 -.590823816643D-01 0.100000000000D+01
-.688997813997D-03 0.000000000000D+00 -.793222921179D-04 0.166632825384D-02 0.000000000000D+00  5 -4 4 25 23 21 2 0.48659509D-02 0.84912628D-01 0.14488554D+05 0.14488554D+05 0.14488554D+05 0.12495438D+01  1  2  5  2  5  2        4 -.541397981757D-01 0.100000000000D+01
0.693067543850D-03 0.000000000000D+00 0.779642979351D-04 0.166632825384D-02 0.000000000000D+00  5 -4 4 25 23 21 2 0.48659509D-02 0.70474279D-01 0.14488554D+05 0.14488554D+05 0.14488554D+05 0.12495438D+01  1  2  6  2  5  2        4 0.819304184344D-01 0.100000000000D+01
0.132530122430D-04 0.000000000000D+00 0.000000000000D+00 0.166632825384D-02 0.000000000000D+00  5 -4 21 25 23 -4 2 0.48659509D-02 0.84645781D-01 0.16120163D+05 0.16120163D+05 0.16120163D+05 0.12442725D+01  1  2 12  4  5  2        4 0.254428382176D-01 0.100000000000D+01
-.178630159325D-04 0.000000000000D+00 -.214959809534D-05 0.166632825384D-02 0.000000000000D+00  5 -4 21 25 23 -4 2 0.48659509D-02 0.84912628D-01 0.14488554D+05 0.14488554D+05 0.14488554D+05 0.12495438D+01  1  2  5  4  5  2        4 -.342051892819D-01 0.100000000000D+01
  </mgrwgt>
  </event>
  <event>
  4     66 0.46888340E-03 0.11577028E+03 0.75467711E-02 0.11276211E+00
       -2 -1    0    0    0  501 0.00000000E+00 0.00000000E+00 0.22147181E+02 0.22149493E+02 0.32000000E+00 0.0000E+00 0.9000E+01
        2 -1    0    0  501    0 0.00000000E+00 0.00000000E+00 -.22768300E+04 0.22768300E+04 0.32000000E+00 0.0000E+00 0.9000E+01
       25  1    1    2    0    0 -.78574812E+01 0.40249972E+02 -.18567171E+03 0.22755392E+03 0.12500000E+03 0.0000E+00 0.9000E+01
       23  1    1    2    0    0 0.78574812E+01 -.40249972E+02 -.20690111E+04 0.20714256E+04 0.91188000E+02 0.0000E+00 0.9000E+01
#aMCatNLO 1  0  0  1  1 0.16953373D+03 0.00000000D+00  -5  5  0 0.00000000D+00 0.00000000D+00 0.00000000D+00 0.00000000D+00 0.00000000D+00
  <mgrwgt>
 0.1001599761D+00    5    2    0
 0.224561904562198D+03 0.000000000000000D+00 0.000000000000000D+00 0.224561904562198D+03
 0.224561904562198D+03 0.000000000000000D+00 0.000000000000000D+00 -.224561904562198D+03
 0.232699692525667D+03 -.785748115939819D+01 0.402499718538094D+02 0.191943602803369D+03
 0.216424116598729D+03 0.785748115939819D+01 -.402499718538094D+02 -.191943602803369D+03
 0.000000000000000D+00 -.000000000000000D+00 0.000000000000000D+00 0.000000000000000D+00
 0.371359924469002D+03 0.000000000000000D+00 0.000000000000000D+00 0.371359924469002D+03
 0.294740004600053D+03 0.000000000000000D+00 0.000000000000000D+00 -.294740004600053D+03
 0.233334102867640D+03 -.544529183753376D+00 -.444652717508502D+02 0.191943602803369D+03
 0.246722020393996D+03 0.151251203113502D+02 -.124440299267260D+03 -.191943602803369D+03
 0.186043805807418D+03 -.145805911275969D+02 0.168905571018111D+03 0.766199198689490D+02
0.384154118479D-03 0.000000000000D+00 0.000000000000D+00 0.361047359426D-03 0.000000000000D+00  5 -2 2 25 23 21 0 0.34074382D-02 0.35028171D+00 0.13402759D+05 0.13402759D+05 0.13402759D+05 0.12534357D+01  1  2  2  1  5  1       -2 0.723949996687D-01 0.100000000000D+01
-.995138280129D-05 0.000000000000D+00 -.147525296506D-05 0.361047359426D-03 0.000000000000D+00  5 -2 2 25 23 21 2 0.34074382D-02 0.35028171D+00 0.13402759D+05 0.13402759D+05 0.13402759D+05 0.12534357D+01  1  2  3  1  5  1       -2 -.294639260753D-02 0.100000000000D+01
0.261488262592D-04 0.000000000000D+00 0.000000000000D+00 0.361047359426D-03 0.000000000000D+00  5 -2 2 25 23 21 2 0.34074382D-02 0.35028171D+00 0.13402759D+05 0.13402759D+05 0.13402759D+05 0.12534357D+01  1  2 15  1  5  1       -2 0.774211081256D-02 0.100000000000D+01
0.668555092601D-04 0.000000000000D+00 -.108390567727D-03 0.361047359426D-03 0.000000000000D+00  5 -2 2 25 23 21 2 0.80777163D-02 0.35028171D+00 0.13402759D+05 0.13402759D+05 0.13402759D+05 0.12534357D+01  1  2  5  1  5  1       -2 0.541883678082D-02 0.100000000000D+01
0.131345717671D-04 0.000000000000D+00 -.102190357818D-04 0.361047359426D-03 0.000000000000D+00  5 21 2 25 23 2 2 0.80777163D-02 0.35028171D+00 0.13402759D+05 0.13402759D+05 0.13402759D+05 0.12534357D+01  1  2  5  3  5  1       -2 0.175504214907D-01 0.100000000000D+01
  </mgrwgt>
  </event>
  <event>
  4     66 0.46888340E-03 0.43547533E+02 0.75467711E-02 0.12167970E+00
       -2 -1    0    0    0  501 0.00000000E+00 0.00000000E+00 0.25892417E+03 0.25892437E+03 0.32000000E+00 0.0000E+00 0.9000E+01
        2 -1    0    0  501    0 0.00000000E+00 0.00000000E+00 -.75600167E+02 0.75600844E+02 0.32000000E+00 0.0000E+00 0.9000E+01
       25  1    1    2    0    0 0.33837478E+02 0.68108902E+02 0.15357037E+03 0.21211472E+03 0.12500000E+03 0.0000E+00 0.9000E+01
       23  1    1    2    0    0 -.33837478E+02 -.68108902E+02 0.29753632E+02 0.12241049E+03 0.91188000E+02 0.0000E+00 0.9000E+01
#aMCatNLO 1  0  0  1  2 0.97045483D+01 0.00000000D+00  -5  5  0 0.00000000D+00 0.00000000D+00 0.00000000D+00 0.00000000D+00 0.00000000D+00
  <mgrwgt>
 0.9386247579D-01   11    2    0
 0.139910173628773D+03 0.000000000000000D+00 0.000000000000000D+00 0.139910173628773D+03
 0.139910173628773D+03 0.000000000000000D+00 0.000000000000000D+00 -.139910173628773D+03
 0.152971676710377D+03 0.338374776132426D+02 0.681089017513714D+02 0.446266342734858D+02
 0.126848670547169D+03 -.338374776132426D+02 -.681089017513714D+02 -.446266342734858D+02
 0.000000000000000D+00 0.000000000000000D+00 -.000000000000000D+00 0.000000000000000D+00
 0.232694661238314D+03 0.000000000000000D+00 0.000000000000000D+00 0.232694661238314D+03
 0.140248275715611D+03 0.000000000000000D+00 0.000000000000000D+00 -.140248275715611D+03
 0.154393025608566D+03 0.309109528141845D+02 0.725615798209156D+02 0.446266342734858D+02
 0.125595554511322D+03 -.362410857030422D+02 -.644518361995351D+02 -.446266342734858D+02
 0.929543568340379D+02 0.533013288885773D+01 -.810974362138051D+01 0.924463855227030D+02
0.270114821360D-03 0.000000000000D+00 0.000000000000D+00 0.130999160982D-02 0.000000000000D+00  5 -2 2 25 23 21 0 0.39834555D-01 0.11630862D-01 0.17563786D+05 0.17563786D+05 0.17563786D+05 0.12400853D+01  1  2  2  1  5  1       -2 0.826049159161D-01 0.100000000000D+01
-.149527733743D-04 0.000000000000D+00 -.103731203689D-05 0.130999160982D-02 0.000000000000D+00  5 -2 2 25 23 21 2 0.39834555D-01 0.11630862D-01 0.17563786D+05 0.17563786D+05 0.17563786D+05 0.12400853D+01  1  2  3  1  5  1       -2 -.703205604678D-02 0.100000000000D+01
0.186443652577D-04 0.000000000000D+00 0.000000000000D+00 0.130999160982D-02 0.000000000000D+00  5 -2 2 25 23 21 2 0.39834555D-01 0.11630862D-01 0.17563786D+05 0.17563786D+05 0.17563786D+05 0.12400853D+01  1  2 15  1  5  1       -2 0.876815411879D-02 0.100000000000D+01
0.954105227698D-02 0.000000000000D+00 0.000000000000D+00 0.130999160982D-02 0.000000000000D+00  5 -2 2 25 23 21 2 0.66271983D-01 0.11630862D-01 0.18893482D+05 0.18893482D+05 0.18893482D+05 0.12365566D+01  1  2 12  1  5  1       -2 0.162269249411D+01 0.100000000000D+01
-.844993825280D-02 0.000000000000D+00 0.000000000000D+00 0.130999160982D-02 0.000000000000D+00  5 -2 2 25 23 21 2 0.39834555D-01 0.11630862D-01 0.17563786D+05 0.17563786D+05 0.17563786D+05 0.12400853D+01  1  2  4  1  5  1       -2 -.397387413680D+01 0.100000000000D+01
-.956593246559D-02 0.000000000000D+00 -.862588641976D-04 0.130999160982D-02 0.000000000000D+00  5 -2 2 25 23 21 2 0.66310456D-01 0.11630862D-01 0.17563786D+05 0.17563786D+05 0.17563786D+05 0.12400853D+01  1  2  5  1  5  1       -2 -.163196162528D+01 0.100000000000D+01
0.849307248772D-02 0.000000000000D+00 0.761541691536D-04 0.130999160982D-02 0.000000000000D+00  5 -2 2 25 23 21 2 0.39834555D-01 0.11630862D-01 0.17563786D+05 0.17563786D+05 0.17563786D+05 0.12400853D+01  1  2  6  1  5  1       -2 0.399415949457D+01 0.100000000000D+01
0.101820007798D-07 0.000000000000D+00 0.000000000000D+00 0.130999160982D-02 0.128762306093D-03  5 -2 2 25 23 21 2 0.66251710D-01 0.11658969D-01 0.18893482D+05 0.18893482D+05 0.18893482D+05 0.12365566D+01  1  2 11  1  5  1       -2 0.172777441185D-05 0.100000000000D+01
0.545669804587D-03 0.000000000000D+00 0.000000000000D+00 0.130999160982D-02 0.000000000000D+00  5 21 2 25 23 2 2 0.66271983D-01 0.11630862D-01 0.18893482D+05 0.18893482D+05 0.18893482D+05 0.12365566D+01  1  2 12  3  5  1       -2 0.113132503517D+01 0.100000000000D+01
-.543617326477D-03 0.000000000000D+00 -.493779599062D-05 0.130999160982D-02 0.000000000000D+00  5 21 2 25 23 2 2 0.66310456D-01 0.11630862D-01 0.17563786D+05 0.17563786D+05 0.17563786D+05 0.12400853D+01  1  2  5  3  5  1       -2 -.113282273807D+01 0.100000000000D+01
0.585089470506D-09 0.000000000000D+00 0.000000000000D+00 0.130999160982D-02 0.739681596562D-05  5 21 2 25 23 2 2 0.66251710D-01 0.11658969D-01 0.18893482D+05 0.18893482D+05 0.18893482D+05 0.12365566D+01  1  2 11  3  5  1       -2 0.121032584589D-05 0.100000000000D+01
  </mgrwgt>
  </event>
  <event>
  4     66 0.46888340E-03 0.44517429E+02 0.75467711E-02 0.12013799E+00
       -4 -1    0    0    0  501 0.00000000E+00 0.00000000E+00 0.16308183E+03 0.16308919E+03 0.15500000E+01 0.0000E+00 0.9000E+01
        4 -1    0    0  501    0 0.00000000E+00 0.00000000E+00 -.11203050E+03 0.11204122E+03 0.15500000E+01 0.0000E+00 0.9000E+01
       25  1    1    2    0    0 0.75743773E+02 0.25099956E+02 0.39139583E+02 0.15337547E+03 0.12500000E+03 0.0000E+00 0.9000E+01
       23  1    1    2    0    0 -.75743773E+02 -.25099956E+02 0.11911745E+02 0.12175495E+03 0.91188000E+02 0.0000E+00 0.9000E+01
#aMCatNLO 1  0  0  1  2 0.27643213D+02 0.00000000D+00  -5  5  0 0.00000000D+00 0.00000000D+00 0.00000000D+00 0.00000000D+00 0.00000000D+00
  <mgrwgt>
 0.2007577917D-01    9    2    0
 0.135176281946053D+03 0.000000000000000D+00 0.000000000000000D+00 0.135176281946053D+03
 0.135176281946053D+03 0.000000000000000D+00 0.000000000000000D+00 -.135176281946053D+03
 0.148695200632760D+03 0.757437733989569D+02 0.250999562842656D+02 0.108690237386825D+02
 0.121657363259347D+03 -.757437733989569D+02 -.250999562842656D+02 -.108690237386825D+02
 0.000000000000000D+00 0.000000000000000D+00 -.000000000000000D+00 0.000000000000000D+00
 0.152605781555234D+03 0.000000000000000D+00 0.000000000000000D+00 0.152605781555234D+03
 0.147303490452422D+03 0.000000000000000D+00 0.000000000000000D+00 -.147303490452422D+03
 0.147019469872353D+03 0.669197553596713D+02 0.373274053092013D+02 0.108690237386825D+02
 0.124742661483321D+03 -.830962603739720D+02 -.149116090604447D+02 -.108690237386825D+02
 0.281471406519816D+02 0.161765050143008D+02 -.224157962487566D+02 0.530229110281235D+01
0.248048643774D-03 0.000000000000D+00 0.000000000000D+00 0.146456779672D-02 0.000000000000D+00  5 -4 4 25 23 21 0 0.25090904D-01 0.17236853D-01 0.18153290D+05 0.18153290D+05 0.18153290D+05 0.12384852D+01  1  2  2  1  5  1       -4 0.179720051097D-01 0.100000000000D+01
-.137803003726D-04 0.000000000000D+00 -.952572104799D-06 0.146456779672D-02 0.000000000000D+00  5 -4 4 25 23 21 2 0.25090904D-01 0.17236853D-01 0.18153290D+05 0.18153290D+05 0.18153290D+05 0.12384852D+01  1  2  3  1  5  1       -4 -.153143996653D-02 0.100000000000D+01
0.170927695155D-04 0.000000000000D+00 0.000000000000D+00 0.146456779672D-02 0.000000000000D+00  5 -4 4 25 23 21 2 0.25090904D-01 0.17236853D-01 0.18153290D+05 0.18153290D+05 0.18153290D+05 0.12384852D+01  1  2 15  1  5  1       -4 0.189956312032D-02 0.100000000000D+01
0.223144920457D-03 0.000000000000D+00 0.000000000000D+00 0.146456779672D-02 0.000000000000D+00  5 -4 4 25 23 21 2 0.29329040D-01 0.17236853D-01 0.22279832D+05 0.22279832D+05 0.22279832D+05 0.12286979D+01  1  2 12  1  5  1       -4 0.186058087291D-01 0.100000000000D+01
-.200544875155D-03 0.000000000000D+00 0.000000000000D+00 0.146456779672D-02 0.000000000000D+00  5 -4 4 25 23 21 2 0.25090904D-01 0.17236853D-01 0.18153290D+05 0.18153290D+05 0.18153290D+05 0.12384852D+01  1  2  4  1  5  1       -4 -.222870640400D-01 0.100000000000D+01
-.583990495092D-03 0.000000000000D+00 -.158425896755D-03 0.146456779672D-02 0.000000000000D+00  5 -4 4 25 23 21 2 0.30696166D-01 0.17236853D-01 0.18153290D+05 0.18153290D+05 0.18153290D+05 0.12384852D+01  1  2  5  1  5  1       -4 -.445084501475D-01 0.100000000000D+01
0.606725822848D-03 0.000000000000D+00 0.155259111827D-03 0.146456779672D-02 0.000000000000D+00  5 -4 4 25 23 21 2 0.25090904D-01 0.17236853D-01 0.18153290D+05 0.18153290D+05 0.18153290D+05 0.12384852D+01  1  2  6  1  5  1       -4 0.674269898849D-01 0.100000000000D+01
0.525573079647D-05 0.000000000000D+00 0.000000000000D+00 0.146456779672D-02 0.000000000000D+00  5 21 4 25 23 4 2 0.29329040D-01 0.17236853D-01 0.22279832D+05 0.22279832D+05 0.22279832D+05 0.12286979D+01  1  2 12  3  5  1       -4 0.107550926851D-01 0.100000000000D+01
-.149661898681D-04 0.000000000000D+00 -.456197689226D-05 0.146456779672D-02 0.000000000000D+00  5 21 4 25 23 4 2 0.30696166D-01 0.17236853D-01 0.18153290D+05 0.18153290D+05 0.18153290D+05 0.12384852D+01  1  2  5  3  5  1       -4 -.282567262069D-01 0.100000000000D+01
  </mgrwgt>
  </event>
  <event>
  5     66 0.46888340E-03 0.11078017E+03 0.75467711E-02 0.11644128E+00
       21 -1    0    0  502  501 0.00000000E+00 0.00000000E+00 0.12433293E+03 0.12433519E+03 0.75000000E+00 0.0000E+00 0.9000E+01
        2 -1    0    0  501    0 0.00000000E+00 0.00000000E+00 -.31446865E+03 0.31446881E+03 0.32000000E+00 0.0000E+00 0.9000E+01
       25  1    1    2    0    0 0.49463403E+02 0.11302495E+02 -.37685964E+00 0.13490558E+03 0.12500000E+03 0.0000E+00 0.9000E+01
       23  1    1    2    0    0 0.47462767E+02 0.53213070E+02 -.12618886E+03 0.17124025E+03 0.91188000E+02 0.0000E+00 0.9000E+01
        2  1    1    2  502    0 -.96926170E+02 -.64515565E+02 -.63569999E+02 0.13265816E+03 0.32000000E+00 0.0000E+00 0.9000E+01
#aMCatNLO 2  0  0  1  2 0.11643428D+03 0.00000000D+00  -5  5  0 0.00000000D+00 0.00000000D+00 0.00000000D+00 0.00000000D+00 0.00000000D+00
  <mgrwgt>
 0.4844151676D-01    1    2    0
 0.126638710845994D+03 0.000000000000000D+00 0.000000000000000D+00 0.126638710845994D+03
 0.126638710845994D+03 0.000000000000000D+00 0.000000000000000D+00 -.126638710845994D+03
 0.141069031178474D+03 -.319701480070023D+01 -.237490978097302D+02 0.608377432785044D+02
 0.112208390513514D+03 0.319701480070023D+01 0.237490978097302D+02 -.608377432785044D+02
 0.000000000000000D+00 -.000000000000000D+00 -.000000000000000D+00 -.000000000000000D+00
 0.193001211131120D+03 0.000000000000000D+00 0.000000000000000D+00 0.193001211131120D+03
 0.202585531439913D+03 0.000000000000000D+00 0.000000000000000D+00 -.202585531439913D+03
 0.147988532119868D+03 0.494634031139366D+02 0.113024945989970D+02 0.608377432785044D+02
 0.130770132298111D+03 0.474627673018203D+02 0.532130704817662D+02 -.608377432785044D+02
 0.116828078153054D+03 -.969261704157569D+02 -.645155650807633D+02 -.958432030879338D+01
0.102312616589D-04 0.000000000000D+00 0.000000000000D+00 0.129426282478D-02 0.928678918244D-07  5 21 2 25 23 2 2 0.19128308D-01 0.48379924D-01 0.33689861D+05 0.33689861D+05 0.33689861D+05 0.12096463D+01  1  2  1  3  5  1       -2 0.484415167568D-01 0.100000000000D+01
  </mgrwgt>
  </event>
  <event>
  4     66 0.46888340E-03 0.12854303E+03 0.75467711E-02 0.11825660E+00
       -2 -1    0    0    0  501 0.00000000E+00 0.00000000E+00 0.18390350E+02 0.18393134E+02 0.32000000E+00 0.0000E+00 0.9000E+01
        2 -1    0    0  501    0 0.00000000E+00 0.00000000E+00 -.91649610E+03 0.91649615E+03 0.32000000E+00 0.0000E+00 0.9000E+01
       25  1    1    2    0    0 -.16411744E+02 -.66977241E+02 -.56301366E+03 0.58083102E+03 0.12500000E+03 0.0000E+00 0.9000E+01
       23  1    1    2    0    0 0.16411744E+02 0.66977241E+02 -.33509209E+03 0.35405826E+03 0.91188000E+02 0.0000E+00 0.9000E+01
#aMCatNLO 1  0  0  1  2 0.65817639D+02 0.00000000D+00  -5  5  0 0.00000000D+00 0.00000000D+00 0.00000000D+00 0.00000000D+00 0.00000000D+00
  <mgrwgt>
 0.1854517270D+00    4    2    0
 0.129830703375356D+03 0.000000000000000D+00 0.000000000000000D+00 0.129830703375356D+03
 0.129830703375356D+03 0.000000000000000D+00 0.000000000000000D+00 -.129830703375356D+03
 0.143906242646808D+03 -.164117438507953D+02 -.669772405718635D+02 -.181303773230615D+02
 0.115755164103905D+03 0.164117438507953D+02 0.669772405718635D+02 0.181303773230615D+02
 0.000000000000000D+00 -.000000000000000D+00 0.000000000000000D+00 -.000000000000000D+00
 0.145743062283139D+03 0.000000000000000D+00 0.000000000000000D+00 0.145743062283139D+03
 0.225664854713054D+03 0.000000000000000D+00 0.000000000000000D+00 -.225664854713054D+03
 0.162288790305638D+03 -.920018634909326D+00 -.101897470246823D+03 -.181303773230615D+02
 0.105584328376481D+03 0.276102618798658D+02 0.417344211863693D+02 0.181303773230615D+02
 0.103534798314074D+03 -.266902432449565D+02 0.601630490604535D+02 -.799217924299154D+02
0.154207447106D-03 0.000000000000D+00 0.000000000000D+00 0.150875513752D-02 0.000000000000D+00  5 -2 2 25 23 21 0 0.28295031D-02 0.14099962D+00 0.16523312D+05 0.16523312D+05 0.16523312D+05 0.12430621D+01  1  2  2  1  5  1       -2 0.201718788172D+00 0.100000000000D+01
-.856604550745D-05 0.000000000000D+00 -.592197200641D-06 0.150875513752D-02 0.000000000000D+00  5 -2 2 25 23 21 2 0.28295031D-02 0.14099962D+00 0.16523312D+05 0.16523312D+05 0.16523312D+05 0.12430621D+01  1  2  3  1  5  1       -2 -.173143827278D-01 0.100000000000D+01
0.106441877927D-04 0.000000000000D+00 0.000000000000D+00 0.150875513752D-02 0.000000000000D+00  5 -2 2 25 23 21 2 0.28295031D-02 0.14099962D+00 0.16523312D+05 0.16523312D+05 0.16523312D+05 0.12430621D+01  1  2 15  1  5  1       -2 0.215148916859D-01 0.100000000000D+01
-.101260402713D-04 0.000000000000D+00 0.000000000000D+00 0.150875513752D-02 0.000000000000D+00  5 -2 2 25 23 21 2 0.28295031D-02 0.14099962D+00 0.16523312D+05 0.16523312D+05 0.16523312D+05 0.12430621D+01  1  2  4  1  5  1       -2 -.204675700850D-01 0.100000000000D+01
  </mgrwgt>
  </event>
  <event>
  4     66 0.46888340E-03 0.60036205E+02 0.75467711E-02 0.12479610E+00
       -4 -1    0    0    0  501 0.00000000E+00 0.00000000E+00 0.18517478E+03 0.18518127E+03 0.15500000E+01 0.0000E+00 0.9000E+01
        4 -1    0    0  501    0 0.00000000E+00 0.00000000E+00 -.65552913E+02 0.65571235E+02 0.15500000E+01 0.0000E+00 0.9000E+01
       25  1    1    2    0    0 -.14987514E+02 0.46913875E+01 0.84909676E+02 0.15192527E+03 0.12500000E+03 0.0000E+00 0.9000E+01
       23  1    1    2    0    0 0.14987514E+02 -.46913875E+01 0.34712194E+02 0.98827235E+02 0.91188000E+02 0.0000E+00 0.9000E+01
#aMCatNLO 1  0  0  1  2 0.15154499D+02 0.00000000D+00  -5  5  0 0.00000000D+00 0.00000000D+00 0.00000000D+00 0.00000000D+00 0.00000000D+00
  <mgrwgt>
 0.1256499824D-01    9    2    0
 0.110190094036679D+03 0.000000000000000D+00 0.000000000000000D+00 0.110190094036679D+03
 0.110190094036679D+03 0.000000000000000D+00 0.000000000000000D+00 -.110190094036679D+03
 0.126774499195564D+03 -.149875139433736D+02 0.469138749575207D+01 0.141470475876788D+02
 0.936056888777929D+02 0.149875139433736D+02 -.469138749575207D+01 -.141470475876788D+02
 0.000000000000000D+00 -.000000000000000D+00 0.000000000000000D+00 0.000000000000000D+00
 0.122416364430961D+03 0.000000000000000D+00 0.000000000000000D+00 0.122416364430961D+03
 0.115248445508876D+03 0.000000000000000D+00 0.000000000000000D+00 -.115248445508876D+03
 0.126010239091061D+03 -.637900668094687D+01 0.357066857922901D+01 0.141470475876788D+02
 0.948903859192083D+02 0.214066903534187D+02 -.552708318745880D+01 -.141470475876788D+02
 0.167641849295681D+02 -.150276836724718D+02 0.195641460822979D+01 0.716791892208526D+01
0.135569684610D-03 0.000000000000D+00 0.000000000000D+00 0.184944201194D-02 0.000000000000D+00  5 -4 4 25 23 21 0 0.28490337D-01 0.10086972D-01 0.11936998D+05 0.11936998D+05 0.11936998D+05 0.12592921D+01  1  2  2  1  5  1       -4 0.186419139511D-01 0.100000000000D+01
-.753098627001D-05 0.000000000000D+00 -.520623285220D-06 0.184944201194D-02 0.000000000000D+00  5 -4 4 25 23 21 2 0.28490337D-01 0.10086972D-01 0.11936998D+05 0.11936998D+05 0.11936998D+05 0.12592921D+01  1  2  3  1  5  1       -4 -.164222532667D-02 0.100000000000D+01
0.937479756948D-05 0.000000000000D+00 0.000000000000D+00 0.184944201194D-02 0.000000000000D+00  5 -4 4 25 23 21 2 0.28490337D-01 0.10086972D-01 0.11936998D+05 0.11936998D+05 0.11936998D+05 0.12592921D+01  1  2 15  1  5  1       -4 0.204429133835D-02 0.100000000000D+01
0.219602531775D-03 0.000000000000D+00 0.000000000000D+00 0.184944201194D-02 0.000000000000D+00  5 -4 4 25 23 21 2 0.32251648D-01 0.10086972D-01 0.13712171D+05 0.13712171D+05 0.13712171D+05 0.12522915D+01  1  2 12  1  5  1       -4 0.380788271454D-01 0.100000000000D+01
-.212575749959D-03 0.000000000000D+00 0.000000000000D+00 0.184944201194D-02 0.000000000000D+00  5 -4 4 25 23 21 2 0.28490337D-01 0.10086972D-01 0.11936998D+05 0.11936998D+05 0.11936998D+05 0.12592921D+01  1  2  4  1  5  1       -4 -.463547891209D-01 0.100000000000D+01
-.552418582341D-03 0.000000000000D+00 -.115026756940D-03 0.184944201194D-02 0.000000000000D+00  5 -4 4 25 23 21 2 0.32962273D-01 0.10086972D-01 0.11936998D+05 0.11936998D+05 0.11936998D+05 0.12592921D+01  1  2  5  1  5  1       -4 -.914944872523D-01 0.100000000000D+01
0.564391829053D-03 0.000000000000D+00 0.113814915820D-03 0.184944201194D-02 0.000000000000D+00  5 -4 4 25 23 21 2 0.28490337D-01 0.10086972D-01 0.11936998D+05 0.11936998D+05 0.11936998D+05 0.12592921D+01  1  2  6  1  5  1       -4 0.123072665731D+00 0.100000000000D+01
0.428297326564D-05 0.000000000000D+00 0.000000000000D+00 0.184944201194D-02 0.000000000000D+00  5 21 4 25 23 4 2 0.32251648D-01 0.10086972D-01 0.13712171D+05 0.13712171D+05 0.13712171D+05 0.12522915D+01  1  2 12  3  5  1       -4 0.186606495041D-01 0.100000000000D+01
-.115554339891D-04 0.000000000000D+00 -.256406823680D-05 0.184944201194D-02 0.000000000000D+00  5 21 4 25 23 4 2 0.32962273D-01 0.10086972D-01 0.11936998D+05 0.11936998D+05 0.11936998D+05 0.12592921D+01  1  2  5  3  5  1       -4 -.484418477282D-01 0.100000000000D+01
  </mgrwgt>
  </event>
  <event>
  5     66 0.46888340E-03 0.11361204E+03 0.75467711E-02 0.11657799E+00
       21 -1    0    0  502  501 0.00000000E+00 0.00000000E+00 0.10492419E+03 0.10492687E+03 0.75000000E+00 0.0000E+00 0.9000E+01
        2 -1    0    0  501    0 0.00000000E+00 0.00000000E+00 -.44175169E+03 0.44175180E+03 0.32000000E+00 0.0000E+00 0.9000E+01
       25  1    1    2    0    0 0.46228921E+02 -.88961660E+02 -.26227502E+03 0.30735074E+03 0.12500000E+03 0.0000E+00 0.9000E+01
       23  1    1    2    0    0 -.56647967E+01 -.14810099E+02 -.87237977E+02 0.12718941E+03 0.91188000E+02 0.0000E+00 0.9000E+01
        2  1    1    2  502    0 -.40564125E+02 0.10377176E+03 0.12685505E+02 0.11213853E+03 0.32000000E+00 0.0000E+00 0.9000E+01
#aMCatNLO 2  0  0  1  2 0.11141825D+03 0.00000000D+00  -5  5  0 0.00000000D+00 0.00000000D+00 0.00000000D+00 0.00000000D+00 0.00000000D+00
  <mgrwgt>
 0.6850965929D-01    2    2    0
 0.116460052700488D+03 0.000000000000000D+00 0.000000000000000D+00 0.116460052700488D+03
 0.116460052700488D+03 0.000000000000000D+00 0.000000000000000D+00 -.116460052700488D+03
 0.132151589168360D+03 0.219141815595862D+02 -.267593238751220D+02 -.253525097779863D+02
 0.100768516232616D+03 -.219141815595862D+02 0.267593238751220D+02 0.253525097779863D+02
 0.000000000000000D+00 -.000000000000000D+00 0.000000000000000D+00 0.000000000000000D+00
 0.318621471216977D+03 0.000000000000000D+00 0.000000000000000D+00 0.318621471216977D+03
 0.145473975013335D+03 0.000000000000000D+00 0.000000000000000D+00 -.145473975013335D+03
 0.162231439422131D+03 0.462289213787426D+02 -.889616603548499D+02 -.253525097779863D+02
 0.959657754145693D+02 -.566479674344716D+01 -.148100990115560D+02 0.253525097779863D+02
 0.205898231393612D+03 -.405641246352955D+02 0.103771759366406D+03 0.173147496203642D+03
-.410672004898D-08 0.000000000000D+00 0.000000000000D+00 0.167552001384D-02 0.000000000000D+00  5 21 2 25 23 2 2 0.15620086D-01 0.54407350D-01 0.33162748D+05 0.33162748D+05 0.33162748D+05 0.12103562D+01  1  2 13  3  5  1       -2 -.249241642565D-04 0.100000000000D+01
0.152479993832D-04 0.000000000000D+00 0.000000000000D+00 0.167552001384D-02 0.257001108954D-06  5 21 2 25 23 2 2 0.16142386D-01 0.67961960D-01 0.33162748D+05 0.33162748D+05 0.33162748D+05 0.12103562D+01  1  2  1  3  5  1       -2 0.685345834518D-01 0.100000000000D+01
  </mgrwgt>
  </event>
  <event>
  4     66 0.46888340E-03 0.62816261E+02 0.75467711E-02 0.11987159E+00
       -2 -1    0    0    0  501 0.00000000E+00 0.00000000E+00 0.82812998E+03 0.82813004E+03 0.32000000E+00 0.0000E+00 0.9000E+01
        2 -1    0    0  501    0 0.00000000E+00 0.00000000E+00 -.16072476E+02 0.16075661E+02 0.32000000E+00 0.0000E+00 0.9000E+01
       25  1    1    2    0    0 0.46451450E+01 0.60949809E+01 0.60503659E+03 0.61786163E+03 0.12500000E+03 0.0000E+00 0.9000E+01
       23  1    1    2    0    0 -.46451450E+01 -.60949809E+01 0.20702092E+03 0.22634407E+03 0.91188000E+02 0.0000E+00 0.9000E+01
#aMCatNLO 1  0  0  1  2 0.73827485D+02 0.00000000D+00  -5  5  0 0.00000000D+00 0.00000000D+00 0.00000000D+00 0.00000000D+00 0.00000000D+00
  <mgrwgt>
 0.1243200907D+00    7    2    0
 0.115375341740689D+03 0.000000000000000D+00 0.000000000000000D+00 0.115375341740689D+03
 0.115375341740689D+03 0.000000000000000D+00 0.000000000000000D+00 -.115375341740689D+03
 0.131214403505786D+03 0.464514498895573D+01 0.609498092303012D+01 0.391598457984542D+02
 0.995362799755910D+02 -.464514498895573D+01 -.609498092303012D+01 -.391598457984542D+02
 0.000000000000000D+00 0.000000000000000D+00 0.000000000000000D+00 0.000000000000000D+00
 0.252712316705504D+03 0.000000000000000D+00 0.000000000000000D+00 0.252712316705504D+03
 0.131492879688781D+03 0.000000000000000D+00 0.000000000000000D+00 -.131492879688781D+03
 0.135520147371804D+03 -.317399676641616D+02 -.141347540974280D+02 0.391598457984542D+02
 0.106753201218975D+03 -.327849790963938D+02 -.217404289099653D+02 -.391598457984542D+02
 0.141931847803507D+03 0.645249467605554D+02 0.358751830073933D+02 0.121219437016723D+03
0.753505883116D-03 0.000000000000D+00 0.000000000000D+00 0.160922026807D-02 0.000000000000D+00  5 -2 2 25 23 21 0 0.12740486D+00 0.24729383D-02 0.11744504D+05 0.11744504D+05 0.11744504D+05 0.12601210D+01  1  2  2  1  5  1       -2 0.139089082358D+00 0.100000000000D+01
-.416618536602D-04 0.000000000000D+00 -.289366099382D-05 0.160922026807D-02 0.000000000000D+00  5 -2 2 25 23 21 2 0.12740486D+00 0.24729383D-02 0.11744504D+05 0.11744504D+05 0.11744504D+05 0.12601210D+01  1  2  3  1  5  1       -2 -.122115129874D-01 0.100000000000D+01
0.516664357999D-04 0.000000000000D+00 0.000000000000D+00 0.160922026807D-02 0.000000000000D+00  5 -2 2 25 23 21 2 0.12740486D+00 0.24729383D-02 0.11744504D+05 0.11744504D+05 0.11744504D+05 0.12601210D+01  1  2 15  1  5  1       -2 0.151439577540D-01 0.100000000000D+01
0.161070764298D-03 0.000000000000D+00 0.000000000000D+00 0.160922026807D-02 0.000000000000D+00  5 -2 2 25 23 21 2 0.27777291D+00 0.24729383D-02 0.22933757D+05 0.22933757D+05 0.22933757D+05 0.12273348D+01  1  2 12  1  5  1       -2 0.488178574834D-02 0.100000000000D+01
-.565674970801D-03 0.000000000000D+00 -.186519795268D-03 0.160922026807D-02 0.000000000000D+00  5 -2 2 25 23 21 2 0.29242445D+00 0.24729383D-02 0.11744504D+05 0.11744504D+05 0.11744504D+05 0.12601210D+01  1  2  5  1  5  1       -2 -.148859290466D-01 0.100000000000D+01
0.135994703583D-04 0.000000000000D+00 0.000000000000D+00 0.160922026807D-02 0.000000000000D+00  5 21 2 25 23 2 2 0.27777291D+00 0.24729383D-02 0.22933757D+05 0.22933757D+05 0.22933757D+05 0.12273348D+01  1  2 12  3  5  1       -2 0.470622105614D-02 0.100000000000D+01
-.393374060701D-04 0.000000000000D+00 -.168613865594D-04 0.160922026807D-02 0.000000000000D+00  5 21 2 25 23 2 2 0.29242445D+00 0.24729383D-02 0.11744504D+05 0.11744504D+05 0.11744504D+05 0.12601210D+01  1  2  5  3  5  1       -2 -.124035142074D-01 0.100000000000D+01
  </mgrwgt>
  </event>
  <event>
  5     66 0.46888340E-03 0.13547169E+03 0.75467711E-02 0.11620096E+00
       21 -1    0    0  502  501 0.00000000E+00 0.00000000E+00 0.52035083E+02 0.52040488E+02 0.75000000E+00 0.0000E+00 0.9000E+01
        2 -1    0    0  501    0 0.00000000E+00 0.00000000E+00 -.82209872E+03 0.82209879E+03 0.32000000E+00 0.0000E+00 0.9000E+01
       25  1    1    2    0    0 0.23735676E+02 0.12864120E+03 -.46694172E+03 0.50077092E+03 0.12500000E+03 0.0000E+00 0.9000E+01
       23  1    1    2    0    0 0.81992209E+01 -.45497676E+02 -.70254476E+02 0.12404922E+03 0.91188000E+02 0.0000E+00 0.9000E+01
        2  1    1    2  502    0 -.31934897E+02 -.83143528E+02 -.23286744E+03 0.24931914E+03 0.32000000E+00 0.0000E+00 0.9000E+01
#aMCatNLO 2  0  0  1  1 0.89065616D+02 0.00000000D+00  -5  5  0 0.00000000D+00 0.00000000D+00 0.00000000D+00 0.00000000D+00 0.00000000D+00
  <mgrwgt>
 0.5808685673D-01    1    2    0
 0.153205551822783D+03 0.000000000000000D+00 0.000000000000000D+00 0.153205551822783D+03
 0.153205551822783D+03 0.000000000000000D+00 0.000000000000000D+00 -.153205551822783D+03
 0.165133560581329D+03 0.537650263440225D+01 0.808425073187162D+02 -.712718391800929D+02
 0.141277543064237D+03 -.537650263440225D+01 -.808425073187162D+02 0.712718391800929D+02
 0.000000000000000D+00 -.000000000000000D+00 -.000000000000000D+00 -.000000000000000D+00
 0.189501748638164D+03 0.000000000000000D+00 0.000000000000000D+00 0.189501748638164D+03
 0.225751223493209D+03 0.000000000000000D+00 0.000000000000000D+00 -.225751223493209D+03
 0.194464950025448D+03 0.237356762075115D+02 0.128641204142604D+03 -.712718391800929D+02
 0.124628215658296D+03 0.819922094197981D+01 -.454976758747322D+02 0.712718391800929D+02
 0.961598064476296D+02 -.319348971494913D+02 -.831435282678719D+02 -.362494748550458D+02
0.765319168318D-05 0.000000000000D+00 0.000000000000D+00 0.108722446736D-02 0.588185005556D-07  5 21 2 25 23 2 2 0.80058074D-02 0.12647698D+00 0.34640040D+05 0.34640040D+05 0.34640040D+05 0.12083974D+01  1  2  1  3  5  1       -2 0.580868567281D-01 0.100000000000D+01
  </mgrwgt>
  </event>
  <event>
  4     66 0.46888340E-03 0.16655905E+03 0.75467711E-02 0.11660985E+00
       -2 -1    0    0    0  501 0.00000000E+00 0.00000000E+00 0.10886708E+02 0.10891410E+02 0.32000000E+00 0.0000E+00 0.9000E+01
        2 -1    0    0  501    0 0.00000000E+00 0.00000000E+00 -.25635269E+04 0.25635269E+04 0.32000000E+00 0.0000E+00 0.9000E+01
       25  1    1    2    0    0 0.11553086E+03 -.50445900E+02 -.12588965E+04 0.12713526E+04 0.12500000E+03 0.0000E+00 0.9000E+01
       23  1    1    2    0    0 -.11553086E+03 0.50445900E+02 -.12937437E+04 0.13030657E+04 0.91188000E+02 0.0000E+00 0.9000E+01
#aMCatNLO 1  0  0  1  1 0.29152966D+02 0.00000000D+00  -5  5  0 0.00000000D+00 0.00000000D+00 0.00000000D+00 0.00000000D+00 0.00000000D+00
  <mgrwgt>
 0.9341018967D-01    4    2    0
 0.167076173286878D+03 0.000000000000000D+00 0.000000000000000D+00 0.167076173286878D+03
 0.167076173286878D+03 0.000000000000000D+00 0.000000000000000D+00 -.167076173286878D+03
 0.178013921788349D+03 0.115530863468493D+03 -.504458997483113D+02 0.131067591446630D+02
 0.156138424785408D+03 -.115530863468493D+03 0.504458997483113D+02 -.131067591446630D+02
 0.000000000000000D+00 0.000000000000000D+00 0.000000000000000D+00 -.000000000000000D+00
 0.178023584868912D+03 0.000000000000000D+00 0.000000000000000D+00 0.178023584868912D+03
 0.188313838141523D+03 0.000000000000000D+00 0.000000000000000D+00 -.188313838141523D+03
 0.177721895399101D+03 0.108107419760183D+03 -.640396030731631D+02 0.131067591446630D+02
 0.157699758887172D+03 -.122079993405510D+03 0.384532272235557D+02 -.131067591446630D+02
 0.309157687241630D+02 0.139725736453271D+02 0.255863758496074D+02 -.102902532726105D+02
0.474470494488D-03 0.000000000000D+00 0.000000000000D+00 0.124309356747D-02 0.000000000000D+00  5 -2 2 25 23 21 0 0.16752415D-02 0.39438911D+00 0.27741917D+05 0.27741917D+05 0.27741917D+05 0.12184815D+01  1  2  2  1  5  1       -2 0.177062103444D+00 0.100000000000D+01
-.263591639333D-04 0.000000000000D+00 -.182209162979D-05 0.124309356747D-02 0.000000000000D+00  5 -2 2 25 23 21 2 0.16752415D-02 0.39438911D+00 0.27741917D+05 0.27741917D+05 0.27741917D+05 0.12184815D+01  1  2  3  1  5  1       -2 -.146044736603D-01 0.100000000000D+01
0.326832887708D-04 0.000000000000D+00 0.000000000000D+00 0.124309356747D-02 0.000000000000D+00  5 -2 2 25 23 21 2 0.16752415D-02 0.39438911D+00 0.27741917D+05 0.27741917D+05 0.27741917D+05 0.12184815D+01  1  2 15  1  5  1       -2 0.181083979443D-01 0.100000000000D+01
-.157304883188D-03 0.000000000000D+00 0.000000000000D+00 0.124309356747D-02 0.000000000000D+00  5 -2 2 25 23 21 2 0.16752415D-02 0.39438911D+00 0.27741917D+05 0.27741917D+05 0.27741917D+05 0.12184815D+01  1  2  4  1  5  1       -2 -.871558380596D-01 0.100000000000D+01
  </mgrwgt>
  </event>
  <event>
  4     66 0.46888340E-03 0.11743563E+03 0.75467711E-02 0.11697796E+00
       -2 -1    0    0    0  501 0.00000000E+00 0.00000000E+00 0.98177311E+01 0.98229447E+01 0.32000000E+00 0.0000E+00 0.9000E+01
        2 -1    0    0  501    0 0.00000000E+00 0.00000000E+00 -.14053540E+04 0.14053540E+04 0.32000000E+00 0.0000E+00 0.9000E+01
       25  1    1    2    0    0 -.39725570E+02 0.22023414E+02 -.77130545E+03 0.78268783E+03 0.12500000E+03 0.0000E+00 0.9000E+01
       23  1    1    2    0    0 0.39725570E+02 -.22023414E+02 -.62423081E+03 0.63248914E+03 0.91188000E+02 0.0000E+00 0.9000E+01
#aMCatNLO 1  0  0  1  2 0.10048200D+03 0.00000000D+00  -5  5  0 0.00000000D+00 0.00000000D+00 0.00000000D+00 0.00000000D+00 0.00000000D+00
  <mgrwgt>
 0.2056128476D+00    3    2    0
 0.117478093415137D+03 0.000000000000000D+00 0.000000000000000D+00 0.117478093415137D+03
 0.117478093415137D+03 0.000000000000000D+00 0.000000000000000D+00 -.117478093415137D+03
 0.133033650292812D+03 -.397255701311126D+02 0.220234144492715D+02 0.313055969179981D+01
 0.101922536537462D+03 0.397255701311126D+02 -.220234144492715D+02 -.313055969179981D+01
 0.000000000000000D+00 -.000000000000000D+00 -.000000000000000D+00 -.000000000000000D+00
 0.137681764389340D+03 0.000000000000000D+00 0.000000000000000D+00 0.137681764389340D+03
 0.382441999731365D+03 0.000000000000000D+00 0.000000000000000D+00 -.382441999731365D+03
 0.138273535744983D+03 0.176396460875534D+01 0.590055820435161D+02 0.313055969179981D+01
 0.117267150208505D+03 0.732450587066960D+02 0.785456205607647D+01 -.313055969179981D+01
 0.264583078167217D+03 -.750090233154513D+02 -.668601440995925D+02 -.244760235342025D+03
0.117456372209D-03 0.000000000000D+00 0.000000000000D+00 0.171594023878D-02 0.000000000000D+00  5 -2 2 25 23 21 0 0.15108240D-02 0.21620871D+00 0.13791127D+05 0.13791127D+05 0.13791127D+05 0.12520042D+01  1  2  2  1  5  1       -2 0.201333668273D+00 0.100000000000D+01
-.652535297462D-05 0.000000000000D+00 -.451063396256D-06 0.171594023878D-02 0.000000000000D+00  5 -2 2 25 23 21 2 0.15108240D-02 0.21620871D+00 0.13791127D+05 0.13791127D+05 0.13791127D+05 0.12520042D+01  1  2  3  1  5  1       -2 -.175329661471D-01 0.100000000000D+01
0.811796173171D-05 0.000000000000D+00 0.000000000000D+00 0.171594023878D-02 0.000000000000D+00  5 -2 2 25 23 21 2 0.15108240D-02 0.21620871D+00 0.13791127D+05 0.13791127D+05 0.13791127D+05 0.12520042D+01  1  2 15  1  5  1       -2 0.218121454546D-01 0.100000000000D+01
  </mgrwgt>
  </event>
  <event>
  4     66 0.46888340E-03 0.48955839E+02 0.75467711E-02 0.12415771E+00
       -2 -1    0    0    0  501 0.00000000E+00 0.00000000E+00 0.56368962E+03 0.56368971E+03 0.32000000E+00 0.0000E+00 0.9000E+01
        2 -1    0    0  501    0 0.00000000E+00 0.00000000E+00 -.36156571E+02 0.36157987E+02 0.32000000E+00 0.0000E+00 0.9000E+01
       25  1    1    2    0    0 0.51668773E+02 -.88473608E+01 0.44778766E+03 0.46785332E+03 0.12500000E+03 0.0000E+00 0.9000E+01
       23  1    1    2    0    0 -.51668773E+02 0.88473608E+01 0.79745388E+02 0.13199438E+03 0.91188000E+02 0.0000E+00 0.9000E+01
#aMCatNLO 1  0  0  1  2 0.11338940D+01 0.00000000D+00  -5  5  0 0.00000000D+00 0.00000000D+00 0.00000000D+00 0.00000000D+00 0.00000000D+00
  <mgrwgt>
 0.8254696969D-01   11    2    0
 0.142763915074041D+03 0.000000000000000D+00 0.000000000000000D+00 0.142763915074041D+03
 0.142763915074041D+03 0.000000000000000D+00 0.000000000000000D+00 -.142763915074041D+03
 0.155564328701338D+03 0.516687726233582D+02 -.884736083202977D+01 0.763369013400556D+02
 0.129963501446744D+03 -.516687726233582D+02 0.884736083202977D+01 -.763369013400556D+02
 0.000000000000000D+00 -.000000000000000D+00 -.000000000000000D+00 0.000000000000000D+00
 0.145996025101191D+03 0.000000000000000D+00 0.000000000000000D+00 0.145996025101191D+03
 0.142864524087074D+03 0.000000000000000D+00 0.000000000000000D+00 -.142864524087074D+03
 0.155712193838163D+03 0.521719409429178D+02 -.848842635244399D+01 0.763369013400556D+02
 0.129817887772784D+03 -.512488445028561D+02 0.914691602168835D+01 -.763369013400556D+02
 0.333046757731839D+01 -.923096440061638D+00 -.658489669244362D+00 0.313150101411656D+01
0.460168971185D-03 0.000000000000D+00 0.000000000000D+00 0.107757911318D-02 0.000000000000D+00  5 -2 2 25 23 21 0 0.86721596D-01 0.55626652D-02 0.14487553D+05 0.14487553D+05 0.14487553D+05 0.12495472D+01  1  2  2  1  5  1       -2 0.715933131989D-01 0.100000000000D+01
-.246595452350D-04 0.000000000000D+00 -.176717001462D-05 0.107757911318D-02 0.000000000000D+00  5 -2 2 25 23 21 2 0.86721596D-01 0.55626652D-02 0.14487553D+05 0.14487553D+05 0.14487553D+05 0.12495472D+01  1  2  3  1  5  1       -2 -.599025792726D-02 0.100000000000D+01
0.315642693940D-04 0.000000000000D+00 0.000000000000D+00 0.107757911318D-02 0.000000000000D+00  5 -2 2 25 23 21 2 0.86721596D-01 0.55626652D-02 0.14487553D+05 0.14487553D+05 0.14487553D+05 0.12495472D+01  1  2 15  1  5  1       -2 0.766754265556D-02 0.100000000000D+01
0.766902298218D-07 0.000000000000D+00 0.000000000000D+00 0.107757911318D-02 0.000000000000D+00  5 -2 2 25 23 21 2 0.88715123D-01 0.55626652D-02 0.14623110D+05 0.14623110D+05 0.14623110D+05 0.12490844D+01  1  2 12  1  5  1       -2 0.177019162172D-04 0.100000000000D+01
-.368527243446D-01 0.000000000000D+00 0.000000000000D+00 0.107757911318D-02 0.000000000000D+00  5 -2 2 25 23 21 2 0.86721596D-01 0.55626652D-02 0.14487553D+05 0.14487553D+05 0.14487553D+05 0.12495472D+01  1  2  4  1  5  1       -2 -.895220581089D+01 0.100000000000D+01
-.502622777795D-01 0.000000000000D+00 -.219261380717D-02 0.107757911318D-02 0.000000000000D+00  5 -2 2 25 23 21 2 0.88715658D-01 0.55626652D-02 0.14487553D+05 0.14487553D+05 0.14487553D+05 0.12495472D+01  1  2  5  1  5  1       -2 -.116070458786D+02 0.100000000000D+01
0.502996916898D-01 0.000000000000D+00 0.219204734619D-02 0.107757911318D-02 0.000000000000D+00  5 -2 2 25 23 21 2 0.86721596D-01 0.55626652D-02 0.14487553D+05 0.14487553D+05 0.14487553D+05 0.12495472D+01  1  2  6  1  5  1       -2 0.122187219599D+02 0.100000000000D+01
0.368629485322D-01 0.000000000000D+00 0.000000000000D+00 0.107757911318D-02 0.697602288931D-02  5 -2 2 25 23 21 2 0.88684933D-01 0.55665854D-02 0.14623110D+05 0.14623110D+05 0.14623110D+05 0.12490844D+01  1  2 11  1  5  1       -2 0.850756639485D+01 0.100000000000D+01
0.392710609137D-08 0.000000000000D+00 0.000000000000D+00 0.107757911318D-02 0.000000000000D+00  5 21 2 25 23 2 2 0.88715123D-01 0.55626652D-02 0.14623110D+05 0.14623110D+05 0.14623110D+05 0.12490844D+01  1  2 12  3  5  1       -2 0.109688460632D-04 0.100000000000D+01
-.206710096024D-03 0.000000000000D+00 -.903537672769D-05 0.107757911318D-02 0.000000000000D+00  5 21 2 25 23 2 2 0.88715658D-01 0.55626652D-02 0.14487553D+05 0.14487553D+05 0.14487553D+05 0.12495472D+01  1  2  5  3  5  1       -2 -.577805174703D+00 0.100000000000D+01
0.150396030219D-03 0.000000000000D+00 0.000000000000D+00 0.107757911318D-02 0.283032913708D-04  5 21 2 25 23 2 2 0.88684933D-01 0.55665854D-02 0.14623110D+05 0.14623110D+05 0.14623110D+05 0.12490844D+01  1  2 11  3  5  1       -2 0.420016210425D+00 0.100000000000D+01
  </mgrwgt>
  </event>
  <event>
  4     66 0.46888340E-03 0.11437484E+03 0.75467711E-02 0.11900449E+00
       -2 -1    0    0    0  501 0.00000000E+00 0.00000000E+00 0.15673077E+02 0.15676343E+02 0.32000000E+00 0.0000E+00 0.9000E+01
        2 -1    0    0  501    0 0.00000000E+00 0.00000000E+00 -.84411558E+03 0.84411564E+03 0.32000000E+00 0.0000E+00 0.9000E+01
       25  1    1    2    0    0 -.20636554E+02 -.30674009E+02 -.42614526E+03 0.44563611E+03 0.12500000E+03 0.0000E+00 0.9000E+01
       23  1    1    2    0    0 0.20636554E+02 0.30674009E+02 -.40229724E+03 0.41415587E+03 0.91188000E+02 0.0000E+00 0.9000E+01
#aMCatNLO 1  0  0  1  2 0.76476261D+02 0.00000000D+00  -5  5  0 0.00000000D+00 0.00000000D+00 0.00000000D+00 0.00000000D+00 0.00000000D+00
  <mgrwgt>
 0.2122699177D+00    3    2    0
 0.115027468137060D+03 0.000000000000000D+00 0.000000000000000D+00 0.115027468137060D+03
 0.115027468137060D+03 0.000000000000000D+00 0.000000000000000D+00 -.115027468137060D+03
 0.130914431430232D+03 -.206365538441805D+02 -.306740092311994D+02 0.121171844840926D+02
 0.991405048438881D+02 0.206365538441805D+02 0.306740092311994D+02 -.121171844840926D+02
 0.000000000000000D+00 0.000000000000000D+00 0.000000000000000D+00 -.000000000000000D+00
 0.134101117045824D+03 0.000000000000000D+00 0.000000000000000D+00 0.134101117045824D+03
 0.234698485345799D+03 0.000000000000000D+00 0.000000000000000D+00 -.234698485345799D+03
 0.149666253839375D+03 -.333296525096514D+02 -.742785005373467D+02 0.121171844840926D+02
 0.927670198949375D+02 0.119549115429095D+02 0.850039038747944D+00 -.121171844840926D+02
 0.126366328657310D+03 0.213747409667419D+02 0.734284614985988D+02 -.100597368299975D+03
0.114162670633D-03 0.000000000000D+00 0.000000000000D+00 0.174977725782D-02 0.000000000000D+00  5 -2 2 25 23 21 0 0.24114985D-02 0.12986419D+00 0.13081604D+05 0.13081604D+05 0.13081604D+05 0.12546551D+01  1  2  2  1  5  1       -2 0.207845116698D+00 0.100000000000D+01
-.634212093960D-05 0.000000000000D+00 -.438414714951D-06 0.174977725782D-02 0.000000000000D+00  5 -2 2 25 23 21 2 0.24114985D-02 0.12986419D+00 0.13081604D+05 0.13081604D+05 0.13081604D+05 0.12546551D+01  1  2  3  1  5  1       -2 -.181760263534D-01 0.100000000000D+01
0.788605702258D-05 0.000000000000D+00 0.000000000000D+00 0.174977725782D-02 0.000000000000D+00  5 -2 2 25 23 21 2 0.24114985D-02 0.12986419D+00 0.13081604D+05 0.13081604D+05 0.13081604D+05 0.12546551D+01  1  2 15  1  5  1       -2 0.226008273308D-01 0.100000000000D+01
  </mgrwgt>
  </event>
  <event>
  4     66 0.46888340E-03 0.11517827E+03 0.75467711E-02 0.11760105E+00
       -2 -1    0    0    0  501 0.00000000E+00 0.00000000E+00 0.57858417E+03 0.57858426E+03 0.32000000E+00 0.0000E+00 0.9000E+01
        2 -1    0    0  501    0 0.00000000E+00 0.00000000E+00 -.53842215E+02 0.53843166E+02 0.32000000E+00 0.0000E+00 0.9000E+01
       25  1    1    2    0    0 -.10429043E+02 0.37932554E+02 0.51639741E+03 0.53276536E+03 0.12500000E+03 0.0000E+00 0.9000E+01
       23  1    1    2    0    0 0.10429043E+02 -.37932554E+02 0.83445400E+01 0.99662060E+02 0.91188000E+02 0.0000E+00 0.9000E+01
#aMCatNLO 1  0  0  2  2 0.93732640D+02 0.00000000D+00  -5  5  0 0.00000000D+00 0.00000000D+00 0.00000000D+00 0.00000000D+00 0.00000000D+00
  <mgrwgt>
 0.6647864302D-01    4    2    0
 0.176500940698135D+03 0.000000000000000D+00 0.000000000000000D+00 0.176500940698135D+03
 0.176500940698135D+03 0.000000000000000D+00 0.000000000000000D+00 -.176500940698135D+03
 0.186854637153076D+03 -.104290427972977D+02 0.379325541202606D+02 0.133199143502702D+03
 0.166147244243195D+03 0.104290427972977D+02 -.379325541202606D+02 -.133199143502702D+03
 0.000000000000000D+00 -.000000000000000D+00 0.000000000000000D+00 0.000000000000000D+00
 0.257567447833933D+03 0.000000000000000D+00 0.000000000000000D+00 0.257567447833933D+03
 0.211922636539765D+03 0.000000000000000D+00 0.000000000000000D+00 -.211922636539765D+03
 0.184739259233475D+03 0.267474501196535D+02 0.679381957197127D+01 0.133199143502702D+03
 0.180495098435593D+03 0.451092319032770D+02 -.669804044666598D+02 -.133199143502702D+03
 0.104255726704629D+03 -.718566820229305D+02 0.601865848946885D+02 0.456448112941680D+02
0.105242722742D-02 0.000000000000D+00 0.000000000000D+00 0.612305592580D-03 0.000000000000D+00  5 -2 2 25 23 21 0 0.89013029D-01 0.82834977D-02 0.13266034D+05 0.13266034D+05 0.13266034D+05 0.12539508D+01  1  2  2  2  5  2        2 0.930219257978D-01 0.100000000000D+01
-.455160354711D-04 0.000000000000D+00 -.404159766373D-05 0.612305592580D-03 0.000000000000D+00  5 -2 2 25 23 21 2 0.89013029D-01 0.82834977D-02 0.13266034D+05 0.13266034D+05 0.13266034D+05 0.12539508D+01  1  2  3  2  5  2        2 -.632584649179D-02 0.100000000000D+01
0.717032057231D-04 0.000000000000D+00 0.000000000000D+00 0.612305592580D-03 0.000000000000D+00  5 -2 2 25 23 21 2 0.89013029D-01 0.82834977D-02 0.13266034D+05 0.13266034D+05 0.13266034D+05 0.12539508D+01  1  2 15  2  5  2        2 0.996535545505D-02 0.100000000000D+01
-.217172677388D-03 0.000000000000D+00 0.000000000000D+00 0.612305592580D-03 0.000000000000D+00  5 -2 2 25 23 21 2 0.89013029D-01 0.82834977D-02 0.13266034D+05 0.13266034D+05 0.13266034D+05 0.12539508D+01  1  2  4  2  5  2        2 -.301827917380D-01 0.100000000000D+01
  </mgrwgt>
  </event>
  <event>
  4     66 0.46888340E-03 0.61489502E+02 0.75467711E-02 0.11601096E+00
       -2 -1    0    0    0  501 0.00000000E+00 0.00000000E+00 0.11645916E+02 0.11650312E+02 0.32000000E+00 0.0000E+00 0.9000E+01
        2 -1    0    0  501    0 0.00000000E+00 0.00000000E+00 -.24950756E+04 0.24950757E+04 0.32000000E+00 0.0000E+00 0.9000E+01
       25  1    1    2    0    0 0.74686075E+02 -.10682059E+03 -.14286194E+04 0.14399886E+04 0.12500000E+03 0.0000E+00 0.9000E+01
       23  1    1    2    0    0 -.74686075E+02 0.10682059E+03 -.10548103E+04 0.10667374E+04 0.91188000E+02 0.0000E+00 0.9000E+01
#aMCatNLO 1  0  0  2  1 0.34908896D+02 0.00000000D+00  -5  5  0 0.00000000D+00 0.00000000D+00 0.00000000D+00 0.00000000D+00 0.00000000D+00
  <mgrwgt>
 0.3331610957D+00    9    2    0
 0.170478671766812D+03 0.000000000000000D+00 0.000000000000000D+00 0.170478671766812D+03
 0.170478671766812D+03 0.000000000000000D+00 0.000000000000000D+00 -.170478671766812D+03
 0.181198119220624D+03 0.746860749728332D+02 -.106820590444161D+03 -.148023670878903D+02
 0.159759224313000D+03 -.746860749728332D+02 0.106820590444161D+03 0.148023670878903D+02
 0.000000000000000D+00 -.000000000000000D+00 -.000000000000000D+00 -.000000000000000D+00
 0.188336108622261D+03 0.000000000000000D+00 0.000000000000000D+00 0.188336108622261D+03
 0.189326593233613D+03 0.000000000000000D+00 0.000000000000000D+00 -.189326593233613D+03
 0.172123509848286D+03 0.766856812146746D+02 -.888915005370579D+02 -.148023670878903D+02
 0.170616247282423D+03 -.728163313715303D+02 0.123585291628591D+03 0.148023670878903D+02
 0.349229447251647D+02 -.386934984314429D+01 -.346937910915331D+02 -.990484611351726D+00
0.347199347125D-03 0.000000000000D+00 0.000000000000D+00 0.122641060112D-02 0.000000000000D+00  5 -2 2 25 23 21 0 0.17920192D-02 0.38385813D+00 0.28842991D+05 0.28842991D+05 0.28842991D+05 0.12166952D+01  1  2  2  2  5  2        2 0.127901830065D+00 0.100000000000D+01
-.192885141347D-04 0.000000000000D+00 -.133333691265D-05 0.122641060112D-02 0.000000000000D+00  5 -2 2 25 23 21 2 0.17920192D-02 0.38385813D+00 0.28842991D+05 0.28842991D+05 0.28842991D+05 0.12166952D+01  1  2  3  2  5  2        2 -.105186553293D-01 0.100000000000D+01
0.238876938601D-04 0.000000000000D+00 0.000000000000D+00 0.122641060112D-02 0.000000000000D+00  5 -2 2 25 23 21 2 0.17920192D-02 0.38385813D+00 0.28842991D+05 0.28842991D+05 0.28842991D+05 0.12166952D+01  1  2 15  2  5  2        2 0.130267379111D-01 0.100000000000D+01
0.320464323565D-03 0.000000000000D+00 0.000000000000D+00 0.122641060112D-02 0.000000000000D+00  5 -2 2 25 23 21 2 0.17920192D-02 0.44432628D+00 0.35413153D+05 0.35413153D+05 0.35413153D+05 0.12074091D+01  1  2 12  2  5  2        2 0.103983526131D+00 0.100000000000D+01
-.263379602294D-03 0.000000000000D+00 0.000000000000D+00 0.122641060112D-02 0.000000000000D+00  5 -2 2 25 23 21 2 0.17920192D-02 0.38385813D+00 0.28842991D+05 0.28842991D+05 0.28842991D+05 0.12166952D+01  1  2  4  2  5  2        2 -.143629480113D+00 0.100000000000D+01
-.107109585939D-02 0.000000000000D+00 -.256072383612D-03 0.122641060112D-02 0.000000000000D+00  5 -2 2 25 23 21 2 0.17920192D-02 0.44352552D+00 0.28842991D+05 0.28842991D+05 0.28842991D+05 0.12166952D+01  1  2  5  2  5  2        2 -.356316561872D+00 0.100000000000D+01
0.109925004005D-02 0.000000000000D+00 0.253422662134D-03 0.122641060112D-02 0.000000000000D+00  5 -2 2 25 23 21 2 0.17920192D-02 0.38385813D+00 0.28842991D+05 0.28842991D+05 0.28842991D+05 0.12166952D+01  1  2  6  2  5  2        2 0.599456869061D+00 0.100000000000D+01
0.716290853882D-05 0.000000000000D+00 0.000000000000D+00 0.122641060112D-02 0.000000000000D+00  5 -2 21 25 23 -2 2 0.17920192D-02 0.44432628D+00 0.35413153D+05 0.35413153D+05 0.35413153D+05 0.12074091D+01  1  2 12  4  5  2        2 0.332102936930D-03 0.100000000000D+01
-.220388638029D-04 0.000000000000D+00 -.566612236006D-05 0.122641060112D-02 0.000000000000D+00  5 -2 21 25 23 -2 2 0.17920192D-02 0.44352552D+00 0.28842991D+05 0.28842991D+05 0.28842991D+05 0.12166952D+01  1  2  5  4  5  2        2 -.107527306994D-02 0.100000000000D+01
  </mgrwgt>
  </event>
  <event>
  4     66 -.46888340E-03 0.45796173E+02 0.75467711E-02 0.12460973E+00
       -2 -1    0    0    0  501 0.00000000E+00 0.00000000E+00 0.63935231E+01 0.64015262E+01 0.32000000E+00 0.0000E+00 0.9000E+01
        2 -1    0    0  501    0 0.00000000E+00 0.00000000E+00 -.21655583E+04 0.21655583E+04 0.32000000E+00 0.0000E+00 0.9000E+01
       25  1    1    2    0    0 0.78700006E+01 -.45328875E+02 -.12489481E+04 0.12560307E+04 0.12500000E+03 0.0000E+00 0.9000E+01
       23  1    1    2    0    0 -.78700006E+01 0.45328875E+02 -.91021665E+03 0.91592917E+03 0.91188000E+02 0.0000E+00 0.9000E+01
#aMCatNLO 1  0  0  1  2 0.10620428D+01 0.00000000D+00  -5  5  0 0.00000000D+00 0.00000000D+00 0.00000000D+00 0.00000000D+00 0.00000000D+00
  <mgrwgt>
 -.3264145031D+00   11    2    0
 0.117704136548152D+03 0.000000000000000D+00 0.000000000000000D+00 0.117704136548152D+03
 0.117704136548152D+03 0.000000000000000D+00 0.000000000000000D+00 -.117704136548152D+03
 0.133229819991337D+03 0.787000056221582D+01 -.453288752744808D+02 -.292251474337764D+01
 0.102178453104967D+03 -.787000056221582D+01 0.453288752744808D+02 0.292251474337764D+01
 0.000000000000000D+00 -.000000000000000D+00 -.000000000000000D+00 0.000000000000000D+00
 0.119692183984184D+03 0.000000000000000D+00 0.000000000000000D+00 0.119692183984184D+03
 0.117847259445895D+03 0.000000000000000D+00 0.000000000000000D+00 -.117847259445895D+03
 0.133050024678548D+03 0.806920911518656D+01 -.447622144089454D+02 -.292251474337764D+01
 0.102360644105022D+03 -.771698132926690D+01 0.457641478051694D+02 0.292251474337764D+01
 0.212877464650926D+01 -.352227785919662D+00 -.100193339622406D+01 0.184492453828813D+01
0.900936584929D-04 0.000000000000D+00 0.000000000000D+00 0.171191691360D-02 0.000000000000D+00  5 -2 2 25 23 21 0 0.98423639D-03 0.33316343D+00 0.13845571D+05 0.13845571D+05 0.13845571D+05 0.12518071D+01  1  2  2  1  5  1       -2 0.116512454816D+00 0.100000000000D+01
-.500520265033D-05 0.000000000000D+00 -.345983370818D-06 0.171191691360D-02 0.000000000000D+00  5 -2 2 25 23 21 2 0.98423639D-03 0.33316343D+00 0.13845571D+05 0.13845571D+05 0.13845571D+05 0.12518071D+01  1  2  3  1  5  1       -2 -.101431918539D-01 0.100000000000D+01
0.622359672362D-05 0.000000000000D+00 0.000000000000D+00 0.171191691360D-02 0.000000000000D+00  5 -2 2 25 23 21 2 0.98423639D-03 0.33316343D+00 0.13845571D+05 0.13845571D+05 0.13845571D+05 0.12518071D+01  1  2 15  1  5  1       -2 0.126123036367D-01 0.100000000000D+01
0.315005557729D-08 0.000000000000D+00 0.000000000000D+00 0.171191691360D-02 0.000000000000D+00  5 -2 2 25 23 21 2 0.10014532D-02 0.33316343D+00 0.13971108D+05 0.13971108D+05 0.13971108D+05 0.12513561D+01  1  2 12  1  5  1       -2 0.622439801490D-05 0.100000000000D+01
-.457140677349D-02 0.000000000000D+00 0.000000000000D+00 0.171191691360D-02 0.000000000000D+00  5 -2 2 25 23 21 2 0.98423639D-03 0.33316343D+00 0.13845571D+05 0.13845571D+05 0.13845571D+05 0.12518071D+01  1  2  4  1  5  1       -2 -.926409162328D+01 0.100000000000D+01
-.865525186645D-02 0.000000000000D+00 -.587986593687D-03 0.171191691360D-02 0.000000000000D+00  5 -2 2 25 23 21 2 0.10022252D-02 0.33316343D+00 0.13845571D+05 0.13845571D+05 0.13845571D+05 0.12518071D+01  1  2  5  1  5  1       -2 -.170931414526D+02 0.100000000000D+01
0.866457666705D-02 0.000000000000D+00 0.587890164450D-03 0.171191691360D-02 0.000000000000D+00  5 -2 2 25 23 21 2 0.98423639D-03 0.33316343D+00 0.13845571D+05 0.13845571D+05 0.13845571D+05 0.12518071D+01  1  2  6  1  5  1       -2 0.175590220030D+02 0.100000000000D+01
0.457204423459D-02 0.000000000000D+00 0.000000000000D+00 0.171191691360D-02 0.126771033933D-01  5 -2 2 25 23 21 2 0.10008603D-02 0.33356854D+00 0.13971108D+05 0.13971108D+05 0.13971108D+05 0.12513561D+01  1  2 11  1  5  1       -2 0.901372270489D+01 0.100000000000D+01
0.222719431063D-09 0.000000000000D+00 0.000000000000D+00 0.171191691360D-02 0.000000000000D+00  5 21 2 25 23 2 2 0.10014532D-02 0.33316343D+00 0.13971108D+05 0.13971108D+05 0.13971108D+05 0.12513561D+01  1  2 12  3  5  1       -2 0.103158497926D-04 0.100000000000D+01
-.285399094397D-04 0.000000000000D+00 -.194363584447D-05 0.171191691360D-02 0.000000000000D+00  5 21 2 25 23 2 2 0.10022252D-02 0.33316343D+00 0.13845571D+05 0.13845571D+05 0.13845571D+05 0.12518071D+01  1  2  5  3  5  1       -2 -.132120964797D+01 0.100000000000D+01
0.142867117431D-04 0.000000000000D+00 0.000000000000D+00 0.171191691360D-02 0.388541069782D-04  5 21 2 25 23 2 2 0.10008603D-02 0.33356854D+00 0.13971108D+05 0.13971108D+05 0.13971108D+05 0.12513561D+01  1  2 11  3  5  1       -2 0.660285405923D+00 0.100000000000D+01
  </mgrwgt>
  </event>
  <event>
  4     66 0.46888340E-03 0.12052655E+03 0.75467711E-02 0.10633133E+00
       -2 -1    0    0    0  501 0.00000000E+00 0.00000000E+00 0.13640915E+03 0.13640953E+03 0.32000000E+00 0.0000E+00 0.9000E+01
        2 -1    0    0  501    0 0.00000000E+00 0.00000000E+00 -.10710494E+03 0.10710541E+03 0.32000000E+00 0.0000E+00 0.9000E+01
       25  1    1    2    0    0 -.52564562E+02 0.48352818E+01 0.25619457E+02 0.13808610E+03 0.12500000E+03 0.0000E+00 0.9000E+01
       23  1    1    2    0    0 0.52564562E+02 -.48352818E+01 0.36847584E+01 0.10542885E+03 0.91188000E+02 0.0000E+00 0.9000E+01
#aMCatNLO 1  0  0  2  2 0.30663467D+03 0.00000000D+00  -5  5  0 0.00000000D+00 0.00000000D+00 0.00000000D+00 0.00000000D+00 0.00000000D+00
  <mgrwgt>
 0.1502894718D+00    3    2    0
 0.120872650111077D+03 0.000000000000000D+00 0.000000000000000D+00 0.120872650111077D+03
 0.120872650111077D+03 0.000000000000000D+00 0.000000000000000D+00 -.120872650111077D+03
 0.135991348694426D+03 -.525645615269812D+02 0.483528177565198D+01 0.906828767492393D+01
 0.105753951527727D+03 0.525645615269812D+02 -.483528177565198D+01 -.906828767492393D+01
 0.000000000000000D+00 0.000000000000000D+00 0.000000000000000D+00 0.000000000000000D+00
 0.424079892774320D+03 0.000000000000000D+00 0.000000000000000D+00 0.424079892774320D+03
 0.297950628395019D+03 0.000000000000000D+00 0.000000000000000D+00 -.297950628395019D+03
 0.270497281393022D+03 -.213396690612067D+03 -.109194312285386D+03 0.906828767492393D+01
 0.119971165448756D+03 -.367463034374283D+02 -.681564709874422D+02 -.906828767492393D+01
 0.331562074327561D+03 0.250142994049495D+03 0.177350783272828D+03 0.126129264379301D+03
0.232321167351D-03 0.000000000000D+00 0.000000000000D+00 0.165104342117D-02 0.000000000000D+00  5 -2 2 25 23 21 0 0.20986089D-01 0.16477748D-01 0.14526649D+05 0.14526649D+05 0.14526649D+05 0.12494132D+01  1  2  2  2  5  2        2 0.147176049909D+00 0.100000000000D+01
-.129066024891D-04 0.000000000000D+00 -.892174454197D-06 0.165104342117D-02 0.000000000000D+00  5 -2 2 25 23 21 2 0.20986089D-01 0.16477748D-01 0.14526649D+05 0.14526649D+05 0.14526649D+05 0.12494132D+01  1  2  3  2  5  2        2 -.127635795913D-01 0.100000000000D+01
0.160549119955D-04 0.000000000000D+00 0.000000000000D+00 0.165104342117D-02 0.000000000000D+00  5 -2 2 25 23 21 2 0.20986089D-01 0.16477748D-01 0.14526649D+05 0.14526649D+05 0.14526649D+05 0.12494132D+01  1  2 15  2  5  2        2 0.158770015005D-01 0.100000000000D+01
  </mgrwgt>
  </event>
  <event>
  4     66 0.46888340E-03 0.65951859E+02 0.75467711E-02 0.12454757E+00
       -2 -1    0    0    0  501 0.00000000E+00 0.00000000E+00 0.77852570E+01 0.77918307E+01 0.32000000E+00 0.0000E+00 0.9000E+01
        2 -1    0    0  501    0 0.00000000E+00 0.00000000E+00 -.16192436E+04 0.16192437E+04 0.32000000E+00 0.0000E+00 0.9000E+01
       25  1    1    2    0    0 -.17211173E+02 -.61031551E+01 -.74910648E+03 0.75968348E+03 0.12500000E+03 0.0000E+00 0.9000E+01
       23  1    1    2    0    0 0.17211173E+02 0.61031551E+01 -.86235190E+03 0.86735202E+03 0.91188000E+02 0.0000E+00 0.9000E+01
#aMCatNLO 1  0  0  1  2 0.17152314D+02 0.00000000D+00  -5  5  0 0.00000000D+00 0.00000000D+00 0.00000000D+00 0.00000000D+00 0.00000000D+00
  <mgrwgt>
 0.3020331428D+00    6    2    0
 0.112301386647408D+03 0.000000000000000D+00 0.000000000000000D+00 0.112301386647408D+03
 0.112301386647408D+03 0.000000000000000D+00 0.000000000000000D+00 -.112301386647408D+03
 0.128574001069682D+03 -.172111727836727D+02 -.610315508584465D+01 0.239332567878949D+02
 0.960287722251338D+02 0.172111727836727D+02 0.610315508584465D+01 -.239332567878949D+02
 0.000000000000000D+00 0.000000000000000D+00 0.000000000000000D+00 -.000000000000000D+00
 0.120016029460389D+03 0.000000000000000D+00 0.000000000000000D+00 0.120016029460389D+03
 0.122584248547197D+03 0.000000000000000D+00 0.000000000000000D+00 -.122584248547197D+03
 0.129504563681478D+03 -.178941694139501D+02 -.159194828697298D+02 0.239332567878949D+02
 0.957521957283049D+02 0.167036306133656D+02 -.119146407773030D+01 -.239332567878949D+02
 0.173435185978028D+02 0.119053880058449D+01 0.171109469474601D+02 -.256821908680716D+01
0.971215850590D-04 0.000000000000D+00 0.000000000000D+00 0.176249489934D-02 0.000000000000D+00  5 -2 2 25 23 21 0 0.11982400D-02 0.24911491D+00 0.12025904D+05 0.12025904D+05 0.12025904D+05 0.12589144D+01  1  2  2  1  5  1       -2 0.179168349170D+00 0.100000000000D+01
-.539193474718D-05 0.000000000000D+00 -.372972459327D-06 0.176249489934D-02 0.000000000000D+00  5 -2 2 25 23 21 2 0.11982400D-02 0.24911491D+00 0.12025904D+05 0.12025904D+05 0.12025904D+05 0.12589144D+01  1  2  3  1  5  1       -2 -.157645847917D-01 0.100000000000D+01
0.664161137397D-05 0.000000000000D+00 0.000000000000D+00 0.176249489934D-02 0.000000000000D+00  5 -2 2 25 23 21 2 0.11982400D-02 0.24911491D+00 0.12025904D+05 0.12025904D+05 0.12025904D+05 0.12589144D+01  1  2 15  1  5  1       -2 0.194183072622D-01 0.100000000000D+01
0.851171858425D-04 0.000000000000D+00 0.000000000000D+00 0.176249489934D-02 0.000000000000D+00  5 -2 2 25 23 21 2 0.13312776D-02 0.24911491D+00 0.14058733D+05 0.14058733D+05 0.14058733D+05 0.12510439D+01  1  2 12  1  5  1       -2 0.212365044931D+00 0.100000000000D+01
-.595525687672D-04 0.000000000000D+00 0.000000000000D+00 0.176249489934D-02 0.000000000000D+00  5 -2 2 25 23 21 2 0.11982400D-02 0.24911491D+00 0.12025904D+05 0.12025904D+05 0.12025904D+05 0.12589144D+01  1  2  4  1  5  1       -2 -.174115890476D+00 0.100000000000D+01
0.144516634233D-05 0.000000000000D+00 0.000000000000D+00 0.176249489934D-02 0.000000000000D+00  5 21 2 25 23 2 2 0.13312776D-02 0.24911491D+00 0.14058733D+05 0.14058733D+05 0.14058733D+05 0.12510439D+01  1  2 12  3  5  1       -2 0.809619166761D-01 0.100000000000D+01
  </mgrwgt>
  </event>
  <event>
  4     66 0.46888340E-03 0.11483224E+03 0.75467711E-02 0.12109083E+00
       -2 -1    0    0    0  501 0.00000000E+00 0.00000000E+00 0.70255740E+02 0.70256468E+02 0.32000000E+00 0.0000E+00 0.9000E+01
        2 -1    0    0  501    0 0.00000000E+00 0.00000000E+00 -.31651733E+03 0.31651749E+03 0.32000000E+00 0.0000E+00 0.9000E+01
       25  1    1    2    0    0 -.17847184E+02 0.33927115E+02 -.25592121E+03 0.28738517E+03 0.12500000E+03 0.0000E+00 0.9000E+01
       23  1    1    2    0    0 0.17847184E+02 -.33927115E+02 0.96596223E+01 0.99388786E+02 0.91188000E+02 0.0000E+00 0.9000E+01
#aMCatNLO 1  0  0  2  2 0.49533171D+02 0.00000000D+00  -5  5  0 0.00000000D+00 0.00000000D+00 0.00000000D+00 0.00000000D+00 0.00000000D+00
  <mgrwgt>
 0.1415098838D+00    4    2    0
 0.149121867245885D+03 0.000000000000000D+00 0.000000000000000D+00 0.149121867245885D+03
 0.149121867245885D+03 0.000000000000000D+00 0.000000000000000D+00 -.149121867245885D+03
 0.161376523103881D+03 -.178471844391234D+02 0.339271152066298D+02 -.945928700825241D+02
 0.136867211387890D+03 0.178471844391234D+02 -.339271152066298D+02 0.945928700825241D+02
 0.000000000000000D+00 -.000000000000000D+00 -.000000000000000D+00 0.000000000000000D+00
 0.213987087475552D+03 0.000000000000000D+00 0.000000000000000D+00 0.213987087475552D+03
 0.160928279880076D+03 0.000000000000000D+00 0.000000000000000D+00 -.160928279880076D+03
 0.168586415299304D+03 -.128821836911838D+02 0.606845754402786D+02 -.945928700825241D+02
 0.133742644160822D+03 0.219190906407752D+02 -.119827341688102D+02 0.945928700825241D+02
 0.725863078955019D+02 -.903690694959138D+01 -.487018412714685D+02 0.530588075954759D+02
0.304331212764D-03 0.000000000000D+00 0.000000000000D+00 0.905255836684D-03 0.000000000000D+00  5 -2 2 25 23 21 0 0.10808644D-01 0.48695042D-01 0.13186442D+05 0.13186442D+05 0.13186442D+05 0.12542534D+01  1  2  2  2  5  2        2 0.174014720617D+00 0.100000000000D+01
-.155038087220D-04 0.000000000000D+00 -.116871198926D-05 0.905255836684D-03 0.000000000000D+00  5 -2 2 25 23 21 2 0.10808644D-01 0.48695042D-01 0.13186442D+05 0.13186442D+05 0.13186442D+05 0.12542534D+01  1  2  3  2  5  2        2 -.139459610176D-01 0.100000000000D+01
0.207645593184D-04 0.000000000000D+00 0.000000000000D+00 0.905255836684D-03 0.000000000000D+00  5 -2 2 25 23 21 2 0.10808644D-01 0.48695042D-01 0.13186442D+05 0.13186442D+05 0.13186442D+05 0.12542534D+01  1  2 15  2  5  2        2 0.186781029097D-01 0.100000000000D+01
-.413965731416D-04 0.000000000000D+00 0.000000000000D+00 0.905255836684D-03 0.000000000000D+00  5 -2 2 25 23 21 2 0.10808644D-01 0.48695042D-01 0.13186442D+05 0.13186442D+05 0.13186442D+05 0.12542534D+01  1  2  4  2  5  2        2 -.372369787094D-01 0.100000000000D+01
  </mgrwgt>
  </event>
  <event>
  4     66 0.46888340E-03 0.11891661E+03 0.75467711E-02 0.12360474E+00
       -2 -1    0    0    0  501 0.00000000E+00 0.00000000E+00 0.91131441E+01 0.91187607E+01 0.32000000E+00 0.0000E+00 0.9000E+01
        2 -1    0    0  501    0 0.00000000E+00 0.00000000E+00 -.15541877E+04 0.15541878E+04 0.32000000E+00 0.0000E+00 0.9000E+01
       25  1    1    2    0    0 -.21531231E+01 -.49015877E+02 -.83847600E+03 0.84916088E+03 0.12500000E+03 0.0000E+00 0.9000E+01
       23  1    1    2    0    0 0.21531231E+01 0.49015877E+02 -.70659859E+03 0.71414565E+03 0.91188000E+02 0.0000E+00 0.9000E+01
#aMCatNLO 1  0  0  1  2 0.10678596D+02 0.00000000D+00  -5  5  0 0.00000000D+00 0.00000000D+00 0.00000000D+00 0.00000000D+00 0.00000000D+00
  <mgrwgt>
 0.1265422169D+00    4    2    0
 0.119029209756692D+03 0.000000000000000D+00 0.000000000000000D+00 0.119029209756692D+03
 0.119029209756692D+03 0.000000000000000D+00 0.000000000000000D+00 -.119029209756692D+03
 0.134382056068412D+03 -.215312310930353D+01 -.490158765076281D+02 0.513272873226447D+01
 0.103676363444972D+03 0.215312310930353D+01 0.490158765076281D+02 -.513272873226447D+01
 0.000000000000000D+00 0.000000000000000D+00 -.000000000000000D+00 -.000000000000000D+00
 0.120814780211009D+03 0.000000000000000D+00 0.000000000000000D+00 0.120814780211009D+03
 0.136261861883492D+03 0.000000000000000D+00 0.000000000000000D+00 -.136261861883492D+03
 0.132519968879147D+03 -.442587496642661D+01 -.434811324400892D+02 0.513272873226447D+01
 0.105777835389199D+03 0.369556950612455D+00 0.533593256989422D+02 -.513272873226447D+01
 0.187788378261545D+02 0.405631801581415D+01 -.987819325885299D+01 -.154470816724825D+02
0.975737366296D-04 0.000000000000D+00 0.000000000000D+00 0.168674836736D-02 0.000000000000D+00  5 -2 2 25 23 21 0 0.14024567D-02 0.23910624D+00 0.14141161D+05 0.14141161D+05 0.14141161D+05 0.12507523D+01  1  2  2  1  5  1       -2 0.155904602772D+00 0.100000000000D+01
-.542075724295D-05 0.000000000000D+00 -.374708840413D-06 0.168674836736D-02 0.000000000000D+00  5 -2 2 25 23 21 2 0.14024567D-02 0.23910624D+00 0.14141161D+05 0.14141161D+05 0.14141161D+05 0.12507523D+01  1  2  3  1  5  1       -2 -.135496650904D-01 0.100000000000D+01
0.671646221205D-05 0.000000000000D+00 0.000000000000D+00 0.168674836736D-02 0.000000000000D+00  5 -2 2 25 23 21 2 0.14024567D-02 0.23910624D+00 0.14141161D+05 0.14141161D+05 0.14141161D+05 0.12507523D+01  1  2 15  1  5  1       -2 0.167883949579D-01 0.100000000000D+01
-.130425905734D-04 0.000000000000D+00 0.000000000000D+00 0.168674836736D-02 0.000000000000D+00  5 -2 2 25 23 21 2 0.14024567D-02 0.23910624D+00 0.14141161D+05 0.14141161D+05 0.14141161D+05 0.12507523D+01  1  2  4  1  5  1       -2 -.326011157224D-01 0.100000000000D+01
  </mgrwgt>
  </event>
  <event>
  5     66 0.46888340E-03 0.12435425E+03 0.75467711E-02 0.11751070E+00
       21 -1    0    0  502  501 0.00000000E+00 0.00000000E+00 0.47107972E+02 0.47113942E+02 0.75000000E+00 0.0000E+00 0.9000E+01
        2 -1    0    0  501    0 0.00000000E+00 0.00000000E+00 -.63961407E+03 0.63961415E+03 0.32000000E+00 0.0000E+00 0.9000E+01
       25  1    1    2    0    0 0.85618262E+02 -.62171934E+02 -.27915864E+03 0.32365164E+03 0.12500000E+03 0.0000E+00 0.9000E+01
       23  1    1    2    0    0 -.65837437E+01 0.36466821E+02 -.19536899E+03 0.21876350E+03 0.91188000E+02 0.0000E+00 0.9000E+01
        2  1    1    2  502    0 -.79034518E+02 0.25705112E+02 -.11797847E+03 0.14431295E+03 0.32000000E+00 0.0000E+00 0.9000E+01
#aMCatNLO 2  0  0  1  2 0.83109614D+02 0.00000000D+00  -5  5  0 0.00000000D+00 0.00000000D+00 0.00000000D+00 0.00000000D+00 0.00000000D+00
  <mgrwgt>
 0.4486985261D-01    1    2    0
 0.124629952704768D+03 0.000000000000000D+00 0.000000000000000D+00 0.124629952704768D+03
 0.124629952704768D+03 0.000000000000000D+00 0.000000000000000D+00 -.124629952704768D+03
 0.139292857763626D+03 0.388051222706463D+02 -.469464722711050D+02 0.822748143821910D+01
 0.109967047645909D+03 -.388051222706463D+02 0.469464722711050D+02 -.822748143821910D+01
 0.000000000000000D+00 -.000000000000000D+00 0.000000000000000D+00 0.000000000000000D+00
 0.182337024752798D+03 0.000000000000000D+00 0.000000000000000D+00 0.182337024752798D+03
 0.165259323763603D+03 0.000000000000000D+00 0.000000000000000D+00 -.165259323763603D+03
 0.163977216714004D+03 0.856182620555233D+02 -.621719338049502D+02 0.822748143821910D+01
 0.987730608065467D+02 -.658374371054050D+01 0.364668214275861D+02 -.822748143821910D+01
 0.848460709958493D+02 -.790345183449828D+02 0.257051123773640D+02 0.170777009891952D+02
0.362465221321D-05 0.000000000000D+00 0.000000000000D+00 0.159526615970D-02 0.131874251779D-06  5 21 2 25 23 2 2 0.72478330D-02 0.98402457D-01 0.29809766D+05 0.29809766D+05 0.29809766D+05 0.12151885D+01  1  2  1  3  5  1       -2 0.448698526132D-01 0.100000000000D+01
  </mgrwgt>
  </event>
  <event>
  4     66 0.46888340E-03 0.11007323E+03 0.75467711E-02 0.11803509E+00
       -4 -1    0    0    0  501 0.00000000E+00 0.00000000E+00 0.29947017E+03 0.29947418E+03 0.15500000E+01 0.0000E+00 0.9000E+01
        4 -1    0    0  501    0 0.00000000E+00 0.00000000E+00 -.40619116E+02 0.40648679E+02 0.15500000E+01 0.0000E+00 0.9000E+01
       25  1    1    2    0    0 -.18183046E+02 -.95390278E+01 0.16003927E+03 0.20410582E+03 0.12500000E+03 0.0000E+00 0.9000E+01
       23  1    1    2    0    0 0.18183046E+02 0.95390278E+01 0.98811780E+02 0.13601704E+03 0.91188000E+02 0.0000E+00 0.9000E+01
#aMCatNLO 1  0  0  2  2 0.95333845D+02 0.00000000D+00  -5  5  0 0.00000000D+00 0.00000000D+00 0.00000000D+00 0.00000000D+00 0.00000000D+00
  <mgrwgt>
 0.2998676718D-01    3    2    0
 0.110317373852293D+03 0.000000000000000D+00 0.000000000000000D+00 0.110317373852293D+03
 0.110317373852293D+03 0.000000000000000D+00 0.000000000000000D+00 -.110317373852293D+03
 0.126882644581515D+03 -.181830463216621D+02 -.953902780211988D+01 0.725184604454196D+01
 0.937521031230717D+02 0.181830463216621D+02 0.953902780211988D+01 -.725184604454196D+01
 0.000000000000000D+00 -.000000000000000D+00 -.000000000000000D+00 0.000000000000000D+00
 0.168813200134869D+03 0.000000000000000D+00 0.000000000000000D+00 0.168813200134869D+03
 0.166890267708003D+03 0.000000000000000D+00 0.000000000000000D+00 -.166890267708003D+03
 0.129508713625574D+03 0.325837655842026D+02 0.576331972486195D+01 0.725184604454196D+01
 0.110841518059864D+03 0.586936390201278D+02 0.217499022833737D+02 -.725184604454196D+01
 0.953532361574341D+02 -.912774046043304D+02 -.275132220082356D+02 0.192293242686687D+01
0.245106495816D-03 0.000000000000D+00 0.000000000000D+00 0.186253280797D-02 0.000000000000D+00  5 -4 4 25 23 21 0 0.46074916D-01 0.62516774D-02 0.12116115D+05 0.12116115D+05 0.12116115D+05 0.12585343D+01  1  2  2  2  5  2        4 0.293537000703D-01 0.100000000000D+01
-.136169462727D-04 0.000000000000D+00 -.941273481955D-06 0.186253280797D-02 0.000000000000D+00  5 -4 4 25 23 21 2 0.46074916D-01 0.62516774D-02 0.12116115D+05 0.12116115D+05 0.12116115D+05 0.12585343D+01  1  2  3  2  5  2        4 -.258296094703D-02 0.100000000000D+01
0.169543722109D-04 0.000000000000D+00 0.000000000000D+00 0.186253280797D-02 0.000000000000D+00  5 -4 4 25 23 21 2 0.46074916D-01 0.62516774D-02 0.12116115D+05 0.12116115D+05 0.12116115D+05 0.12585343D+01  1  2 15  2  5  2        4 0.321602805982D-02 0.100000000000D+01
  </mgrwgt>
  </event>
  <event>
  4     66 0.46888340E-03 0.13013445E+03 0.75467711E-02 0.12095336E+00
       -2 -1    0    0    0  501 0.00000000E+00 0.00000000E+00 0.16053639E+02 0.16056828E+02 0.32000000E+00 0.0000E+00 0.9000E+01
        2 -1    0    0  501    0 0.00000000E+00 0.00000000E+00 -.12835818E+04 0.12835818E+04 0.32000000E+00 0.0000E+00 0.9000E+01
       25  1    1    2    0    0 0.71146416E+02 0.10011663E+02 -.41693252E+03 0.44115731E+03 0.12500000E+03 0.0000E+00 0.9000E+01
       23  1    1    2    0    0 -.71146416E+02 -.10011663E+02 -.85059565E+03 0.85848136E+03 0.91188000E+02 0.0000E+00 0.9000E+01
#aMCatNLO 1  0  0  2  2 0.24510468D+02 0.00000000D+00  -5  5  0 0.00000000D+00 0.00000000D+00 0.00000000D+00 0.00000000D+00 0.00000000D+00
  <mgrwgt>
 0.1714246746D+00    4    2    0
 0.143555762831692D+03 0.000000000000000D+00 0.000000000000000D+00 0.143555762831692D+03
 0.143555762831692D+03 0.000000000000000D+00 0.000000000000000D+00 -.143555762831692D+03
 0.156285569897275D+03 0.711464155994830D+02 0.100116628265928D+02 0.603169421714019D+02
 0.130825955766109D+03 -.711464155994830D+02 -.100116628265928D+02 -.603169421714019D+02
 0.000000000000000D+00 -.000000000000000D+00 0.000000000000000D+00 0.000000000000000D+00
 0.195824585692631D+03 0.000000000000000D+00 0.000000000000000D+00 0.195824585692631D+03
 0.146980346819798D+03 0.000000000000000D+00 0.000000000000000D+00 -.146980346819798D+03
 0.161130675157755D+03 0.818350939823934D+02 0.172579163826486D+01 0.603169421714019D+02
 0.127025170215586D+03 -.624635337393821D+02 -.167426391043798D+02 -.603169421714019D+02
 0.546490871390877D+02 -.193715602430113D+02 0.150168474661150D+02 0.488442388728335D+02
0.196480518942D-03 0.000000000000D+00 0.000000000000D+00 0.119549959543D-02 0.000000000000D+00  5 -2 2 25 23 21 0 0.24700390D-02 0.19747437D+00 0.16934974D+05 0.16934974D+05 0.16934974D+05 0.12418598D+01  1  2  2  2  5  2        2 0.193028144169D+00 0.100000000000D+01
-.107877177980D-04 0.000000000000D+00 -.754536927246D-06 0.119549959543D-02 0.000000000000D+00  5 -2 2 25 23 21 2 0.24700390D-02 0.19747437D+00 0.16934974D+05 0.16934974D+05 0.16934974D+05 0.12418598D+01  1  2  3  2  5  2        2 -.163446591724D-01 0.100000000000D+01
0.135357889099D-04 0.000000000000D+00 0.000000000000D+00 0.119549959543D-02 0.000000000000D+00  5 -2 2 25 23 21 2 0.24700390D-02 0.19747437D+00 0.16934974D+05 0.16934974D+05 0.16934974D+05 0.12418598D+01  1  2 15  2  5  2        2 0.205083095891D-01 0.100000000000D+01
-.170066818406D-04 0.000000000000D+00 0.000000000000D+00 0.119549959543D-02 0.000000000000D+00  5 -2 2 25 23 21 2 0.24700390D-02 0.19747437D+00 0.16934974D+05 0.16934974D+05 0.16934974D+05 0.12418598D+01  1  2  4  2  5  2        2 -.257671199361D-01 0.100000000000D+01
  </mgrwgt>
  </event>
  <event>
  4     66 0.46888340E-03 0.68223863E+02 0.75467711E-02 0.12502127E+00
       -2 -1    0    0    0  501 0.00000000E+00 0.00000000E+00 0.44679392E+02 0.44680538E+02 0.32000000E+00 0.0000E+00 0.9000E+01
        2 -1    0    0  501    0 0.00000000E+00 0.00000000E+00 -.38685443E+03 0.38685456E+03 0.32000000E+00 0.0000E+00 0.9000E+01
       25  1    1    2    0    0 -.62730271E+01 -.28147872E+02 -.76948632E+02 0.14959193E+03 0.12500000E+03 0.0000E+00 0.9000E+01
       23  1    1    2    0    0 0.62730271E+01 0.28147872E+02 -.26522640E+03 0.28194317E+03 0.91188000E+02 0.0000E+00 0.9000E+01
#aMCatNLO 1  0  0  2  1 0.75500898D+01 0.00000000D+00  -5  5  0 0.00000000D+00 0.00000000D+00 0.00000000D+00 0.00000000D+00 0.00000000D+00
  <mgrwgt>
 0.2122433390D+00    8    2    0
 0.131471275998894D+03 0.000000000000000D+00 0.000000000000000D+00 0.131471275998894D+03
 0.131471275998894D+03 0.000000000000000D+00 0.000000000000000D+00 -.131471275998894D+03
 0.145371172764294D+03 -.627302711610557D+01 -.281478717985321D+02 0.683821929662996D+02
 0.117571379233495D+03 0.627302711610557D+01 0.281478717985321D+02 -.683821929662996D+02
 0.000000000000000D+00 0.000000000000000D+00 0.000000000000000D+00 0.000000000000000D+00
 0.135613370770553D+03 0.000000000000000D+00 0.000000000000000D+00 0.135613370770553D+03
 0.135011589279629D+03 0.000000000000000D+00 0.000000000000000D+00 -.135011589279629D+03
 0.145694447573838D+03 -.104282290039512D+02 -.285832079866248D+02 0.683821929662996D+02
 0.117356478116662D+03 0.291923811404175D+01 0.277964988065010D+02 -.683821929662996D+02
 0.757403435968264D+01 0.750899088990948D+01 0.786709180123761D+00 0.601781490923874D+00
0.118167993016D-03 0.000000000000D+00 0.000000000000D+00 0.119305190466D-02 0.000000000000D+00  5 -2 2 25 23 21 0 0.68738510D-02 0.59516164D-01 0.12535371D+05 0.12535371D+05 0.12535371D+05 0.12568085D+01  1  2  2  2  5  2        2 0.109894969274D+00 0.100000000000D+01
-.635892910925D-05 0.000000000000D+00 -.453796207528D-06 0.119305190466D-02 0.000000000000D+00  5 -2 2 25 23 21 2 0.68738510D-02 0.59516164D-01 0.12535371D+05 0.12535371D+05 0.12535371D+05 0.12568085D+01  1  2  3  2  5  2        2 -.934114652354D-02 0.100000000000D+01
0.806814041785D-05 0.000000000000D+00 0.000000000000D+00 0.119305190466D-02 0.000000000000D+00  5 -2 2 25 23 21 2 0.68738510D-02 0.59516164D-01 0.12535371D+05 0.12535371D+05 0.12535371D+05 0.12568085D+01  1  2 15  2  5  2        2 0.118519455903D-01 0.100000000000D+01
0.254281091642D-03 0.000000000000D+00 0.000000000000D+00 0.119305190466D-02 0.000000000000D+00  5 -2 2 25 23 21 2 0.68738510D-02 0.62029524D-01 0.13406739D+05 0.13406739D+05 0.13406739D+05 0.12534208D+01  1  2 12  2  5  2        2 0.356445676466D+00 0.100000000000D+01
-.185993238599D-03 0.000000000000D+00 0.000000000000D+00 0.119305190466D-02 0.000000000000D+00  5 -2 2 25 23 21 2 0.68738510D-02 0.59516164D-01 0.12535371D+05 0.12535371D+05 0.12535371D+05 0.12568085D+01  1  2  4  2  5  2        2 -.273220547720D+00 0.100000000000D+01
0.429459632188D-05 0.000000000000D+00 0.000000000000D+00 0.119305190466D-02 0.175552849257D-03  5 -2 2 25 23 21 2 0.70904165D-02 0.61118840D-01 0.13406739D+05 0.13406739D+05 0.13406739D+05 0.12534208D+01  1  2 11  2  5  2        2 0.583303936162D-02 0.100000000000D+01
0.300391739262D-05 0.000000000000D+00 0.000000000000D+00 0.119305190466D-02 0.000000000000D+00  5 -2 21 25 23 -2 2 0.68738510D-02 0.62029524D-01 0.13406739D+05 0.13406739D+05 0.13406739D+05 0.12534208D+01  1  2 12  4  5  2        2 0.106141252917D-01 0.100000000000D+01
0.475215861290D-07 0.000000000000D+00 0.000000000000D+00 0.119305190466D-02 0.859026101741D-06  5 -2 21 25 23 -2 2 0.70904165D-02 0.61118840D-01 0.13406739D+05 0.13406739D+05 0.13406739D+05 0.12534208D+01  1  2 11  4  5  2        2 0.165277269888D-03 0.100000000000D+01
  </mgrwgt>
  </event>
  <event>
  4     66 0.46888340E-03 0.13284511E+03 0.75467711E-02 0.11621036E+00
       -2 -1    0    0    0  501 0.00000000E+00 0.00000000E+00 0.35149431E+02 0.35150887E+02 0.32000000E+00 0.0000E+00 0.9000E+01
        2 -1    0    0  501    0 0.00000000E+00 0.00000000E+00 -.50832612E+03 0.50832622E+03 0.32000000E+00 0.0000E+00 0.9000E+01
       25  1    1    2    0    0 -.65404327E+02 -.39864810E+02 -.29077641E+03 0.32564221E+03 0.12500000E+03 0.0000E+00 0.9000E+01
       23  1    1    2    0    0 0.65404327E+02 0.39864810E+02 -.18240028E+03 0.21783490E+03 0.91188000E+02 0.0000E+00 0.9000E+01
#aMCatNLO 1  0  0  1  2 0.91216914D+02 0.00000000D+00  -5  5  0 0.00000000D+00 0.00000000D+00 0.00000000D+00 0.00000000D+00 0.00000000D+00
  <mgrwgt>
 0.9949376324D-01    4    2    0
 0.133670479069009D+03 0.000000000000000D+00 0.000000000000000D+00 0.133670479069009D+03
 0.133670479069009D+03 0.000000000000000D+00 0.000000000000000D+00 -.133670479069009D+03
 0.147341688873356D+03 -.654043272195672D+02 -.398648103343775D+02 -.147527678085417D+02
 0.119999269264662D+03 0.654043272195672D+02 0.398648103343775D+02 0.147527678085417D+02
 0.000000000000000D+00 0.000000000000000D+00 0.000000000000000D+00 -.000000000000000D+00
 0.179975031620809D+03 0.000000000000000D+00 0.000000000000000D+00 0.179975031620809D+03
 0.194934716807877D+03 0.000000000000000D+00 0.000000000000000D+00 -.194934716807877D+03
 0.177712253750324D+03 -.891206076869456D+02 -.882978949948197D+02 -.147527678085417D+02
 0.104762016486486D+03 0.490055053869274D+02 0.637534611404050D+01 0.147527678085417D+02
 0.924354781918759D+02 0.401151023000182D+02 0.819225488807792D+02 -.149596851870683D+02
0.137262239492D-03 0.000000000000D+00 0.000000000000D+00 0.147373376130D-02 0.000000000000D+00  5 -2 2 25 23 21 0 0.54077245D-02 0.78204138D-01 0.17647823D+05 0.17647823D+05 0.17647823D+05 0.12398535D+01  1  2  2  1  5  1       -2 0.138488309873D+00 0.100000000000D+01
-.762532427955D-05 0.000000000000D+00 -.527123141628D-06 0.147373376130D-02 0.000000000000D+00  5 -2 2 25 23 21 2 0.54077245D-02 0.78204138D-01 0.17647823D+05 0.17647823D+05 0.17647823D+05 0.12398535D+01  1  2  3  1  5  1       -2 -.118266325841D-01 0.100000000000D+01
0.947569711146D-05 0.000000000000D+00 0.000000000000D+00 0.147373376130D-02 0.000000000000D+00  5 -2 2 25 23 21 2 0.54077245D-02 0.78204138D-01 0.17647823D+05 0.17647823D+05 0.17647823D+05 0.12398535D+01  1  2 15  1  5  1       -2 0.146965013037D-01 0.100000000000D+01
-.269924461192D-04 0.000000000000D+00 0.000000000000D+00 0.147373376130D-02 0.000000000000D+00  5 -2 2 25 23 21 2 0.54077245D-02 0.78204138D-01 0.17647823D+05 0.17647823D+05 0.17647823D+05 0.12398535D+01  1  2  4  1  5  1       -2 -.418644153476D-01 0.100000000000D+01
  </mgrwgt>
  </event>
  <event>
  4     66 0.46888340E-03 0.18683033E+03 0.75467711E-02 0.11405363E+00
       -2 -1    0    0    0  501 0.00000000E+00 0.00000000E+00 0.49995618E+02 0.49996642E+02 0.32000000E+00 0.0000E+00 0.9000E+01
        2 -1    0    0  501    0 0.00000000E+00 0.00000000E+00 -.86216244E+03 0.86216250E+03 0.32000000E+00 0.0000E+00 0.9000E+01
       25  1    1    2    0    0 0.12814677E+02 0.15121806E+03 -.22460637E+03 0.29850317E+03 0.12500000E+03 0.0000E+00 0.9000E+01
       23  1    1    2    0    0 -.12814677E+02 -.15121806E+03 -.58756045E+03 0.61365597E+03 0.91188000E+02 0.0000E+00 0.9000E+01
#aMCatNLO 1  0  0  2  2 0.46046405D+02 0.00000000D+00  -5  5  0 0.00000000D+00 0.00000000D+00 0.00000000D+00 0.00000000D+00 0.00000000D+00
  <mgrwgt>
 0.8919525504D-01    4    2    0
 0.207617046764416D+03 0.000000000000000D+00 0.000000000000000D+00 0.207617046764416D+03
 0.207617046764416D+03 0.000000000000000D+00 0.000000000000000D+00 -.207617046764416D+03
 0.216419007838805D+03 0.128146766609959D+02 0.151218064842748D+03 0.904492558356424D+02
 0.198815085690027D+03 -.128146766609959D+02 -.151218064842748D+03 -.904492558356424D+02
 0.000000000000000D+00 -.000000000000000D+00 0.000000000000000D+00 0.000000000000000D+00
 0.248099489458726D+03 0.000000000000000D+00 0.000000000000000D+00 0.248099489458726D+03
 0.222408460347393D+03 0.000000000000000D+00 0.000000000000000D+00 -.222408460347393D+03
 0.212841291991431D+03 0.348479835064244D+02 0.142411255667858D+03 0.904492558356424D+02
 0.204938104132129D+03 0.790938732696274D+01 -.159501563917606D+03 -.904492558356424D+02
 0.527285536825595D+02 -.427573708333872D+02 0.170903082497478D+02 0.256910291113332D+02
0.542357949245D-03 0.000000000000D+00 0.000000000000D+00 0.928336986848D-03 0.000000000000D+00  5 -2 2 25 23 21 0 0.76917169D-02 0.13264046D+00 0.34905572D+05 0.34905572D+05 0.34905572D+05 0.12080552D+01  1  2  2  2  5  2        2 0.173700357326D+00 0.100000000000D+01
-.297232849401D-04 0.000000000000D+00 -.208279733123D-05 0.928336986848D-03 0.000000000000D+00  5 -2 2 25 23 21 2 0.76917169D-02 0.13264046D+00 0.34905572D+05 0.34905572D+05 0.34905572D+05 0.12080552D+01  1  2  3  2  5  2        2 -.138926500369D-01 0.100000000000D+01
0.372159819100D-04 0.000000000000D+00 0.000000000000D+00 0.928336986848D-03 0.000000000000D+00  5 -2 2 25 23 21 2 0.76917169D-02 0.13264046D+00 0.34905572D+05 0.34905572D+05 0.34905572D+05 0.12080552D+01  1  2 15  2  5  2        2 0.173947332368D-01 0.100000000000D+01
-.188291121127D-03 0.000000000000D+00 0.000000000000D+00 0.928336986848D-03 0.000000000000D+00  5 -2 2 25 23 21 2 0.76917169D-02 0.13264046D+00 0.34905572D+05 0.34905572D+05 0.34905572D+05 0.12080552D+01  1  2  4  2  5  2        2 -.880071854823D-01 0.100000000000D+01
  </mgrwgt>
  </event>
  <event>
  4     66 0.46888340E-03 0.10873004E+03 0.75467711E-02 0.11464678E+00
       -2 -1    0    0    0  501 0.00000000E+00 0.00000000E+00 0.33143620E+02 0.33145165E+02 0.32000000E+00 0.0000E+00 0.9000E+01
        2 -1    0    0  501    0 0.00000000E+00 0.00000000E+00 -.12920743E+04 0.12920744E+04 0.32000000E+00 0.0000E+00 0.9000E+01
       25  1    1    2    0    0 -.12766864E+03 0.92830043E+02 -.90467980E+03 0.92681565E+03 0.12500000E+03 0.0000E+00 0.9000E+01
       23  1    1    2    0    0 0.12766864E+03 -.92830043E+02 -.35425091E+03 0.39840389E+03 0.91188000E+02 0.0000E+00 0.9000E+01
#aMCatNLO 1  0  0  2  1 0.23562827D+02 0.00000000D+00  -5  5  0 0.00000000D+00 0.00000000D+00 0.00000000D+00 0.00000000D+00 0.00000000D+00
  <mgrwgt>
 0.3077504187D+00    9    2    0
 0.206942190279477D+03 0.000000000000000D+00 0.000000000000000D+00 0.206942190279477D+03
 0.206942190279477D+03 0.000000000000000D+00 0.000000000000000D+00 -.206942190279477D+03
 0.215772855314635D+03 -.127668644565195D+03 0.928300432808319D+02 -.775643303973868D+02
 0.198111525244319D+03 0.127668644565195D+03 -.928300432808319D+02 0.775643303973868D+02
 0.000000000000000D+00 -.000000000000000D+00 -.000000000000000D+00 -.000000000000000D+00
 0.217586351102361D+03 0.000000000000000D+00 0.000000000000000D+00 0.217586351102361D+03
 0.220741321601396D+03 0.000000000000000D+00 0.000000000000000D+00 -.220741321601396D+03
 0.220330474158731D+03 -.125921177858690D+03 0.105110177716987D+03 -.775643303973868D+02
 0.194224090749299D+03 0.129240733977017D+03 -.817823539308988D+02 0.775643303973868D+02
 0.237731077957274D+02 -.331955611832666D+01 -.233278237860881D+02 -.315497049903503D+01
0.343584156989D-03 0.000000000000D+00 0.000000000000D+00 0.979472991569D-03 0.000000000000D+00  5 -2 2 25 23 21 0 0.50991403D-02 0.19878079D+00 0.36796068D+05 0.36796068D+05 0.36796068D+05 0.12056998D+01  1  2  2  2  5  2        2 0.115169890846D+00 0.100000000000D+01
-.189544290126D-04 0.000000000000D+00 -.131945363062D-05 0.979472991569D-03 0.000000000000D+00  5 -2 2 25 23 21 2 0.50991403D-02 0.19878079D+00 0.36796068D+05 0.36796068D+05 0.36796068D+05 0.12056998D+01  1  2  3  2  5  2        2 -.923623380062D-02 0.100000000000D+01
0.235637178403D-04 0.000000000000D+00 0.000000000000D+00 0.979472991569D-03 0.000000000000D+00  5 -2 2 25 23 21 2 0.50991403D-02 0.19878079D+00 0.36796068D+05 0.36796068D+05 0.36796068D+05 0.12056998D+01  1  2 15  2  5  2        2 0.114822771522D-01 0.100000000000D+01
0.683225160780D-03 0.000000000000D+00 0.000000000000D+00 0.979472991569D-03 0.000000000000D+00  5 -2 2 25 23 21 2 0.50991403D-02 0.21684876D+00 0.41586037D+05 0.41586037D+05 0.41586037D+05 0.12002891D+01  1  2 12  2  5  2        2 0.285114250917D+00 0.100000000000D+01
-.579206230630D-03 0.000000000000D+00 0.000000000000D+00 0.979472991569D-03 0.000000000000D+00  5 -2 2 25 23 21 2 0.50991403D-02 0.19878079D+00 0.36796068D+05 0.36796068D+05 0.36796068D+05 0.12056998D+01  1  2  4  2  5  2        2 -.282239267736D+00 0.100000000000D+01
-.240421579012D-02 0.000000000000D+00 -.482374017777D-03 0.979472991569D-03 0.000000000000D+00  5 -2 2 25 23 21 2 0.50991403D-02 0.21876936D+00 0.36796068D+05 0.36796068D+05 0.36796068D+05 0.12056998D+01  1  2  5  2  5  2        2 -.996449982525D+00 0.100000000000D+01
0.244142500965D-02 0.000000000000D+00 0.480168217366D-03 0.979472991569D-03 0.000000000000D+00  5 -2 2 25 23 21 2 0.50991403D-02 0.19878079D+00 0.36796068D+05 0.36796068D+05 0.36796068D+05 0.12056998D+01  1  2  6  2  5  2        2 0.118967298782D+01 0.100000000000D+01
0.982803786151D-05 0.000000000000D+00 0.000000000000D+00 0.979472991569D-03 0.000000000000D+00  5 -2 21 25 23 -2 2 0.50991403D-02 0.21684876D+00 0.41586037D+05 0.41586037D+05 0.41586037D+05 0.12002891D+01  1  2 12  4  5  2        2 0.218591641574D-02 0.100000000000D+01
-.361615517560D-04 0.000000000000D+00 -.755000511513D-05 0.979472991569D-03 0.000000000000D+00  5 -2 21 25 23 -2 2 0.50991403D-02 0.21876936D+00 0.36796068D+05 0.36796068D+05 0.36796068D+05 0.12056998D+01  1  2  5  4  5  2        2 -.794942036971D-02 0.100000000000D+01
  </mgrwgt>
  </event>
  <event>
  4     66 0.46888340E-03 0.42856613E+02 0.75467711E-02 0.12539682E+00
       -2 -1    0    0    0  501 0.00000000E+00 0.00000000E+00 0.55083492E+01 0.55176364E+01 0.32000000E+00 0.0000E+00 0.9000E+01
        2 -1    0    0  501    0 0.00000000E+00 0.00000000E+00 -.21933143E+04 0.21933143E+04 0.32000000E+00 0.0000E+00 0.9000E+01
       25  1    1    2    0    0 0.92104952E+01 0.62335555E+01 -.10936843E+04 0.11008606E+04 0.12500000E+03 0.0000E+00 0.9000E+01
       23  1    1    2    0    0 -.92104952E+01 -.62335555E+01 -.10941216E+04 0.10979713E+04 0.91188000E+02 0.0000E+00 0.9000E+01
#aMCatNLO 1  0  0  2  1 0.97124683D+01 0.00000000D+00  -5  5  0 0.00000000D+00 0.00000000D+00 0.00000000D+00 0.00000000D+00 0.00000000D+00
  <mgrwgt>
 0.3481551745D+00   11    2    0
 0.109962616344729D+03 0.000000000000000D+00 0.000000000000000D+00 0.109962616344729D+03
 0.109962616344729D+03 0.000000000000000D+00 0.000000000000000D+00 -.109962616344729D+03
 0.126581329365080D+03 0.921049517405703D+01 0.623355550431689D+01 0.165572494169205D+02
 0.933439033243781D+02 -.921049517405703D+01 -.623355550431689D+01 -.165572494169205D+02
 0.000000000000000D+00 -.000000000000000D+00 0.000000000000000D+00 -.000000000000000D+00
 0.110965408183936D+03 0.000000000000000D+00 0.000000000000000D+00 0.110965408183936D+03
 0.136401518787230D+03 0.000000000000000D+00 0.000000000000000D+00 -.136401518787230D+03
 0.126766994956127D+03 0.129064437020366D+02 0.203769794589016D+01 0.165572494169205D+02
 0.933725971542254D+02 -.648659882722959D+01 -.932588241003134D+01 -.165572494169205D+02
 0.272273348608147D+02 -.641984487480698D+01 0.728818446414118D+01 -.254361106032939D+02
0.123422419363D-03 0.000000000000D+00 0.000000000000D+00 0.184673150357D-02 0.000000000000D+00  5 -2 2 25 23 21 0 0.84815454D-03 0.33743368D+00 0.11811071D+05 0.11811071D+05 0.11811071D+05 0.12598326D+01  1  2  2  2  5  2        2 0.190235713298D+00 0.100000000000D+01
-.685565120727D-05 0.000000000000D+00 -.473974588222D-06 0.184673150357D-02 0.000000000000D+00  5 -2 2 25 23 21 2 0.84815454D-03 0.33743368D+00 0.11811071D+05 0.11811071D+05 0.11811071D+05 0.12598326D+01  1  2  3  2  5  2        2 -.167715199242D-01 0.100000000000D+01
0.845463333215D-05 0.000000000000D+00 0.000000000000D+00 0.184673150357D-02 0.000000000000D+00  5 -2 2 25 23 21 2 0.84815454D-03 0.33743368D+00 0.11811071D+05 0.11811071D+05 0.11811071D+05 0.12598326D+01  1  2 15  2  5  2        2 0.206832359312D-01 0.100000000000D+01
0.862984131967D-03 0.000000000000D+00 0.000000000000D+00 0.184673150357D-02 0.000000000000D+00  5 -2 2 25 23 21 2 0.84815454D-03 0.41985474D+00 0.12914776D+05 0.12914776D+05 0.12914776D+05 0.12553019D+01  1  2 12  2  5  2        2 0.109420262682D+01 0.100000000000D+01
-.856659232019D-03 0.000000000000D+00 0.000000000000D+00 0.184673150357D-02 0.000000000000D+00  5 -2 2 25 23 21 2 0.84815454D-03 0.33743368D+00 0.11811071D+05 0.11811071D+05 0.11811071D+05 0.12598326D+01  1  2  4  2  5  2        2 -.209571300284D+01 0.100000000000D+01
-.100606283499D-02 0.000000000000D+00 -.681491479066D-04 0.184673150357D-02 0.000000000000D+00  5 -2 2 25 23 21 2 0.84815454D-03 0.41958551D+00 0.11811071D+05 0.11811071D+05 0.11811071D+05 0.12598326D+01  1  2  5  2  5  2        2 -.128673605820D+01 0.100000000000D+01
0.998696024728D-03 0.000000000000D+00 0.665626974035D-04 0.184673150357D-02 0.000000000000D+00  5 -2 2 25 23 21 2 0.84815454D-03 0.33743368D+00 0.11811071D+05 0.11811071D+05 0.11811071D+05 0.12598326D+01  1  2  6  2  5  2        2 0.244318880447D+01 0.100000000000D+01
0.831916703527D-09 0.000000000000D+00 0.000000000000D+00 0.184673150357D-02 0.168373234431D-03  5 -2 2 25 23 21 2 0.85588919D-03 0.41856467D+00 0.12914776D+05 0.12914776D+05 0.12914776D+05 0.12553019D+01  1  2 11  2  5  2        2 0.105236102245D-05 0.100000000000D+01
0.264186551190D-04 0.000000000000D+00 0.000000000000D+00 0.184673150357D-02 0.000000000000D+00  5 -2 21 25 23 -2 2 0.84815454D-03 0.41985474D+00 0.12914776D+05 0.12914776D+05 0.12914776D+05 0.12553019D+01  1  2 12  4  5  2        2 0.619611223746D-02 0.100000000000D+01
-.298220752562D-04 0.000000000000D+00 -.208163628202D-05 0.184673150357D-02 0.000000000000D+00  5 -2 21 25 23 -2 2 0.84815454D-03 0.41958551D+00 0.11811071D+05 0.11811071D+05 0.11811071D+05 0.12598326D+01  1  2  5  4  5  2        2 -.713179572715D-02 0.100000000000D+01
0.256976088046D-10 0.000000000000D+00 0.000000000000D+00 0.184673150357D-02 0.515690319898D-05  5 -2 21 25 23 -2 2 0.85588919D-03 0.41856467D+00 0.12914776D+05 0.12914776D+05 0.12914776D+05 0.12553019D+01  1  2 11  4  5  2        2 0.606098034948D-08 0.100000000000D+01
  </mgrwgt>
  </event>
  <event>
  4     66 0.46888340E-03 0.15186949E+03 0.75467711E-02 0.11473375E+00
       -2 -1    0    0    0  501 0.00000000E+00 0.00000000E+00 0.93687219E+03 0.93687224E+03 0.32000000E+00 0.0000E+00 0.9000E+01
        2 -1    0    0  501    0 0.00000000E+00 0.00000000E+00 -.25279164E+02 0.25281189E+02 0.32000000E+00 0.0000E+00 0.9000E+01
       25  1    1    2    0    0 -.34973913E+02 -.10007914E+03 0.56856260E+03 0.59171567E+03 0.12500000E+03 0.0000E+00 0.9000E+01
       23  1    1    2    0    0 0.34973913E+02 0.10007914E+03 0.34303043E+03 0.37043776E+03 0.91188000E+02 0.0000E+00 0.9000E+01
#aMCatNLO 1  0  0  2  2 0.89365470D+02 0.00000000D+00  -5  5  0 0.00000000D+00 0.00000000D+00 0.00000000D+00 0.00000000D+00 0.00000000D+00
  <mgrwgt>
 0.1013020191D+00    7    2    0
 0.153897193557716D+03 0.000000000000000D+00 0.000000000000000D+00 0.153897193557716D+03
 0.153897193557716D+03 0.000000000000000D+00 0.000000000000000D+00 -.153897193557716D+03
 0.165771595694326D+03 -.349739126612434D+02 -.100079141207578D+03 0.248236352567558D+02
 0.142022791421106D+03 0.349739126612434D+02 0.100079141207578D+03 -.248236352567558D+02
 0.000000000000000D+00 0.000000000000000D+00 0.000000000000000D+00 -.000000000000000D+00
 0.199578347316111D+03 0.000000000000000D+00 0.000000000000000D+00 0.199578347316111D+03
 0.211022035780246D+03 0.000000000000000D+00 0.000000000000000D+00 -.211022035780246D+03
 0.199555922850604D+03 -.737075032454479D+02 -.134716581914470D+03 0.248236352567558D+02
 0.120949259521826D+03 0.709248780477074D+01 0.751462293415763D+02 -.248236352567558D+02
 0.900952007239270D+02 0.666150154406772D+02 0.595703525728938D+02 -.114436884641345D+02
0.134559319803D-02 0.000000000000D+00 0.000000000000D+00 0.129236964377D-02 0.000000000000D+00  5 -2 2 25 23 21 0 0.14413434D+00 0.38892621D-02 0.23064343D+05 0.23064343D+05 0.23064343D+05 0.12270678D+01  1  2  2  2  5  2        2 0.101802833787D+00 0.100000000000D+01
-.747391886172D-04 0.000000000000D+00 -.516743218324D-05 0.129236964377D-02 0.000000000000D+00  5 -2 2 25 23 21 2 0.14413434D+00 0.38892621D-02 0.23064343D+05 0.23064343D+05 0.23064343D+05 0.12270678D+01  1  2  3  2  5  2        2 -.851396018527D-02 0.100000000000D+01
0.925238828769D-04 0.000000000000D+00 0.000000000000D+00 0.129236964377D-02 0.000000000000D+00  5 -2 2 25 23 21 2 0.14413434D+00 0.38892621D-02 0.23064343D+05 0.23064343D+05 0.23064343D+05 0.12270678D+01  1  2 15  2  5  2        2 0.105399144622D-01 0.100000000000D+01
-.558737115411D-03 0.000000000000D+00 0.000000000000D+00 0.129236964377D-02 0.000000000000D+00  5 -2 2 25 23 21 2 0.14413434D+00 0.38892621D-02 0.23064343D+05 0.23064343D+05 0.23064343D+05 0.12270678D+01  1  2  4  2  5  2        2 -.636488787564D-01 0.100000000000D+01
-.725700470731D-03 0.000000000000D+00 -.566748161857D-03 0.129236964377D-02 0.000000000000D+00  5 -2 2 25 23 21 2 0.14413434D+00 0.69891454D-02 0.23064343D+05 0.23064343D+05 0.23064343D+05 0.12270678D+01  1  2  5  2  5  2        2 -.384764986495D-01 0.100000000000D+01
0.971334528230D-03 0.000000000000D+00 0.481619890145D-03 0.129236964377D-02 0.000000000000D+00  5 -2 2 25 23 21 2 0.14413434D+00 0.38892621D-02 0.23064343D+05 0.23064343D+05 0.23064343D+05 0.12270678D+01  1  2  6  2  5  2        2 0.110650164297D+00 0.100000000000D+01
-.166146001860D-04 0.000000000000D+00 -.364467451506D-04 0.129236964377D-02 0.000000000000D+00  5 -2 21 25 23 -2 2 0.14413434D+00 0.69891454D-02 0.23064343D+05 0.23064343D+05 0.23064343D+05 0.12270678D+01  1  2  5  4  5  2        2 -.110515558264D-01 0.100000000000D+01
  </mgrwgt>
  </event>
  <event>
  5     66 0.46888340E-03 0.16918694E+03 0.75467711E-02 0.11059530E+00
       21 -1    0    0  502  501 0.00000000E+00 0.00000000E+00 0.98283051E+03 0.98283080E+03 0.75000000E+00 0.0000E+00 0.9000E+01
        4 -1    0    0  501    0 0.00000000E+00 0.00000000E+00 -.24320816E+03 0.24321310E+03 0.15500000E+01 0.0000E+00 0.9000E+01
       25  1    1    2    0    0 -.11038844E+03 -.18418056E+03 0.50790091E+03 0.56541703E+03 0.12500000E+03 0.0000E+00 0.9000E+01
       23  1    1    2    0    0 -.32724014E+01 0.81158615E+02 0.40861770E+03 0.42647521E+03 0.91188000E+02 0.0000E+00 0.9000E+01
        4  1    1    2  502    0 0.11366084E+03 0.10302194E+03 -.17689626E+03 0.23415166E+03 0.15500000E+01 0.0000E+00 0.9000E+01
#aMCatNLO 2  0  0  1  2 0.15340244D+03 0.00000000D+00  -5  5  0 0.00000000D+00 0.00000000D+00 0.00000000D+00 0.00000000D+00 0.00000000D+00
  <mgrwgt>
 0.4854846175D-02    1    2    0
 0.173429777492183D+03 0.000000000000000D+00 0.000000000000000D+00 0.173429777492183D+03
 0.173429777492183D+03 0.000000000000000D+00 0.000000000000000D+00 -.173429777492183D+03
 0.183966821305679D+03 -.422468599656140D+02 -.122417175859697D+03 -.380529791067302D+02
 0.162892733678686D+03 0.422468599656140D+02 0.122417175859697D+03 0.380529791067302D+02
 0.000000000000000D+00 0.000000000000000D+00 0.000000000000000D+00 -.000000000000000D+00
 0.195322520588786D+03 0.000000000000000D+00 0.000000000000000D+00 0.195322520588786D+03
 0.122379248461363D+04 0.000000000000000D+00 0.000000000000000D+00 -.122379248461363D+04
 0.251358537945911D+03 -.110388439384794D+03 -.184180557686197D+03 -.380529791067302D+02
 0.127908990769917D+03 -.327240138827552D+01 0.811586147370418D+02 0.380529791067302D+02
 0.103984747648658D+04 0.113660840773069D+03 0.103021942949155D+03 -.102846996402484D+04
0.418956518878D-03 0.000000000000D+00 0.000000000000D+00 0.117125111960D-02 0.281953038296D-07  5 21 4 25 23 4 2 0.15120466D+00 0.37416935D-01 0.68639116D+05 0.68639116D+05 0.68639116D+05 0.11788900D+01  1  2  1  3  5  1       -4 0.485484617483D-02 0.100000000000D+01
  </mgrwgt>
  </event>
  <event>
  5     66 -.46888340E-03 0.11197028E+03 0.75467711E-02 0.12526564E+00
       -2 -1    0    0    0  501 0.00000000E+00 0.00000000E+00 0.27368923E+02 0.27370794E+02 0.32000000E+00 0.0000E+00 0.9000E+01
        2 -1    0    0  502    0 0.00000000E+00 0.00000000E+00 -.51459866E+03 0.51459876E+03 0.32000000E+00 0.0000E+00 0.9000E+01
       25  1    1    2    0    0 -.22364653E+02 -.18644914E+02 -.34065548E+03 0.36403155E+03 0.12500000E+03 0.0000E+00 0.9000E+01
       23  1    1    2    0    0 0.18829996E+02 0.21864676E+02 -.13553413E+03 0.16588365E+03 0.91188000E+02 0.0000E+00 0.9000E+01
       21  1    1    2  502  501 0.35346575E+01 -.32197615E+01 -.11040124E+02 0.12054356E+02 0.75000000E+00 0.0000E+00 0.9000E+01
#aMCatNLO 2  0  0  2  1 0.47812831D+01 0.00000000D+00  -5  5  0 0.00000000D+00 0.00000000D+00 0.00000000D+00 0.00000000D+00 0.00000000D+00
  <mgrwgt>
 -.2114829416D-01    3    2    0
 0.116222531269147D+03 0.000000000000000D+00 0.000000000000000D+00 0.116222531269147D+03
 0.116222531269147D+03 0.000000000000000D+00 0.000000000000000D+00 -.116222531269147D+03
 0.131946136185031D+03 -.203580273055407D+02 -.204727739190088D+02 -.308415159557158D+02
 0.100498926353263D+03 0.203580273055407D+02 0.204727739190088D+02 0.308415159557158D+02
 0.000000000000000D+00 0.000000000000000D+00 -.000000000000000D+00 -.000000000000000D+00
 0.118412590871543D+03 0.000000000000000D+00 0.000000000000000D+00 0.118412590871543D+03
 0.118886336716957D+03 0.000000000000000D+00 0.000000000000000D+00 -.118886336716957D+03
 0.132000036587466D+03 -.223646533794692D+02 -.186449143699229D+02 -.308415159557158D+02
 0.100494195095916D+03 0.188299959120799D+02 0.218646758832708D+02 0.308415159557158D+02
 0.480469590511768D+01 0.353465746738925D+01 -.321976151334791D+01 -.473745845414568D+00
-.315179185834D-04 0.000000000000D+00 0.000000000000D+00 0.165058905391D-02 0.000000000000D+00  5 -2 2 25 23 21 2 0.41318632D-02 0.79863645D-01 0.13084192D+05 0.13084192D+05 0.13084192D+05 0.12546451D+01  1  2 13  2  5  2        2 -.722877785602D-01 0.100000000000D+01
-.556487401469D-04 0.000000000000D+00 0.000000000000D+00 0.165058905391D-02 0.000000000000D+00  5 -2 2 25 23 21 2 0.41318632D-02 0.77376310D-01 0.12537343D+05 0.12537343D+05 0.12537343D+05 0.12568006D+01  1  2  8  2  5  2        2 -.132350257070D+00 0.100000000000D+01
0.814409626833D-04 0.000000000000D+00 0.000000000000D+00 0.165058905391D-02 0.606440118868D-03  5 -2 2 25 23 21 2 0.42097227D-02 0.79149765D-01 0.13084192D+05 0.13084192D+05 0.13084192D+05 0.12546451D+01  1  2  1  2  5  2        2 0.183489741471D+00 0.100000000000D+01
  </mgrwgt>
  </event>
  <event>
  4     66 0.46888340E-03 0.12132195E+03 0.75467711E-02 0.10793885E+00
       -2 -1    0    0    0  501 0.00000000E+00 0.00000000E+00 0.16983157E+03 0.16983187E+03 0.32000000E+00 0.0000E+00 0.9000E+01
        2 -1    0    0  501    0 0.00000000E+00 0.00000000E+00 -.10463590E+03 0.10463639E+03 0.32000000E+00 0.0000E+00 0.9000E+01
       25  1    1    2    0    0 0.31012689E+02 -.44877472E+02 0.92454509E+02 0.16476835E+03 0.12500000E+03 0.0000E+00 0.9000E+01
       23  1    1    2    0    0 -.31012689E+02 0.44877472E+02 -.27258834E+02 0.10969991E+03 0.91188000E+02 0.0000E+00 0.9000E+01
#aMCatNLO 1  0  0  2  1 0.26498285D+03 0.00000000D+00  -5  5  0 0.00000000D+00 0.00000000D+00 0.00000000D+00 0.00000000D+00 0.00000000D+00
  <mgrwgt>
 0.1400452191D+00    5    2    0
 0.133306368165959D+03 0.000000000000000D+00 0.000000000000000D+00 0.133306368165959D+03
 0.133306368165959D+03 0.000000000000000D+00 0.000000000000000D+00 -.133306368165959D+03
 0.147014919296277D+03 0.310126893854693D+02 -.448774722792646D+02 0.548872669623392D+02
 0.119597817035642D+03 -.310126893854693D+02 0.448774722792646D+02 -.548872669623392D+02
 0.000000000000000D+00 0.000000000000000D+00 0.000000000000000D+00 -.000000000000000D+00
 0.230952164829436D+03 0.000000000000000D+00 0.000000000000000D+00 0.230952164829436D+03
 0.596143695284375D+03 0.000000000000000D+00 0.000000000000000D+00 -.596143695284375D+03
 0.217960487562052D+03 -.735262157176000D+02 -.153176557168326D+03 0.548872669623392D+02
 0.157936121925399D+03 -.110505974584248D+03 -.374751220334921D+02 -.548872669623392D+02
 0.451199250626360D+03 0.184032190301847D+03 0.190651679201818D+03 -.365191530454939D+03
0.273017533844D-03 0.000000000000D+00 0.000000000000D+00 0.129323120919D-02 0.000000000000D+00  5 -2 2 25 23 21 0 0.26127995D-01 0.16097891D-01 0.14719015D+05 0.14719015D+05 0.14719015D+05 0.12487599D+01  1  2  2  2  5  2        2 0.121796409787D+00 0.100000000000D+01
-.150039884249D-04 0.000000000000D+00 -.104845921713D-05 0.129323120919D-02 0.000000000000D+00  5 -2 2 25 23 21 2 0.26127995D-01 0.16097891D-01 0.14719015D+05 0.14719015D+05 0.14719015D+05 0.12487599D+01  1  2  3  2  5  2        2 -.104377893030D-01 0.100000000000D+01
0.188504722249D-04 0.000000000000D+00 0.000000000000D+00 0.129323120919D-02 0.000000000000D+00  5 -2 2 25 23 21 2 0.26127995D-01 0.16097891D-01 0.14719015D+05 0.14719015D+05 0.14719015D+05 0.12487599D+01  1  2 15  2  5  2        2 0.131136636322D-01 0.100000000000D+01
0.162314276278D-03 0.000000000000D+00 -.178953363866D-03 0.129323120919D-02 0.000000000000D+00  5 -2 2 25 23 21 2 0.26127995D-01 0.11314518D+00 0.14719015D+05 0.14719015D+05 0.14719015D+05 0.12487599D+01  1  2  5  2  5  2        2 0.133158145517D-01 0.100000000000D+01
0.216991295152D-04 0.000000000000D+00 -.426479289037D-04 0.129323120919D-02 0.000000000000D+00  5 -2 21 25 23 -2 2 0.26127995D-01 0.11314518D+00 0.14719015D+05 0.14719015D+05 0.14719015D+05 0.12487599D+01  1  2  5  4  5  2        2 0.225712042687D-02 0.100000000000D+01
  </mgrwgt>
  </event>
  <event>
  5     66 0.46888340E-03 0.36242529E+03 0.75467711E-02 0.10452852E+00
       -2 -1    0    0    0  501 0.00000000E+00 0.00000000E+00 0.16616582E+03 0.16616613E+03 0.32000000E+00 0.0000E+00 0.9000E+01
        2 -1    0    0  502    0 0.00000000E+00 0.00000000E+00 -.15795763E+04 0.15795763E+04 0.32000000E+00 0.0000E+00 0.9000E+01
       25  1    1    2    0    0 -.14559121E+03 -.28726032E+03 -.18638587E+03 0.39253024E+03 0.12500000E+03 0.0000E+00 0.9000E+01
       23  1    1    2    0    0 0.12758934E+03 0.34845521E+03 -.53061259E+03 0.65388458E+03 0.91188000E+02 0.0000E+00 0.9000E+01
       21  1    1    2  502  501 0.18001876E+02 -.61194889E+02 -.69641202E+03 0.69932764E+03 0.75000000E+00 0.0000E+00 0.9000E+01
#aMCatNLO 2  0  0  2  1 0.63787788D+02 0.00000000D+00  -5  5  0 0.00000000D+00 0.00000000D+00 0.00000000D+00 0.00000000D+00 0.00000000D+00
  <mgrwgt>
 0.1099024727D-01    2    2    0
 0.379746066512158D+03 0.000000000000000D+00 0.000000000000000D+00 0.379746066512158D+03
 0.379746066512158D+03 0.000000000000000D+00 0.000000000000000D+00 -.379746066512158D+03
 0.384558327454804D+03 -.136740369405579D+03 -.317347540691376D+03 0.113369824057365D+03
 0.374933805569511D+03 0.136740369405579D+03 0.317347540691376D+03 -.113369824057365D+03
 0.000000000000000D+00 0.000000000000000D+00 -.000000000000000D+00 -.000000000000000D+00
 0.384455512107315D+03 0.000000000000000D+00 0.000000000000000D+00 0.384455512107315D+03
 0.682709059953826D+03 0.000000000000000D+00 0.000000000000000D+00 -.682709059953826D+03
 0.363583569821207D+03 -.145591211993450D+03 -.287260324840402D+03 0.113369824057365D+03
 0.398582542029455D+03 0.127589336083329D+03 0.348455213445974D+03 -.113369824057365D+03
 0.304998460210479D+03 0.180018759101205D+02 -.611948886055726D+02 -.298253547846511D+03
-.305360838241D-01 0.000000000000D+00 0.000000000000D+00 0.887594002345D-03 0.000000000000D+00  5 -2 2 25 23 21 2 0.25250818D-01 0.24323320D+00 0.15656423D+06 0.15656423D+06 0.15656423D+06 0.11460995D+01  1  2 13  2  5  2        2 -.682323200682D+00 0.100000000000D+01
0.316627397134D-01 0.000000000000D+00 0.000000000000D+00 0.887594002345D-03 0.182890606832D-05  5 -2 2 25 23 21 2 0.25563968D-01 0.24301148D+00 0.15656423D+06 0.15656423D+06 0.15656423D+06 0.11460995D+01  1  2  1  2  5  2        2 0.693313447955D+00 0.100000000000D+01
  </mgrwgt>
  </event>
  <event>
  4     66 0.46888340E-03 0.86831429E+02 0.75467711E-02 0.11913977E+00
       -2 -1    0    0    0  501 0.00000000E+00 0.00000000E+00 0.39490632E+02 0.39491928E+02 0.32000000E+00 0.0000E+00 0.9000E+01
        2 -1    0    0  501    0 0.00000000E+00 0.00000000E+00 -.45783549E+03 0.45783560E+03 0.32000000E+00 0.0000E+00 0.9000E+01
       25  1    1    2    0    0 0.13839724E+02 -.76079008E+02 -.19746159E+03 0.24616180E+03 0.12500000E+03 0.0000E+00 0.9000E+01
       23  1    1    2    0    0 -.13839724E+02 0.76079008E+02 -.22088327E+03 0.25116573E+03 0.91188000E+02 0.0000E+00 0.9000E+01
#aMCatNLO 1  0  0  2  1 0.44948490D+02 0.00000000D+00  -5  5  0 0.00000000D+00 0.00000000D+00 0.00000000D+00 0.00000000D+00 0.00000000D+00
  <mgrwgt>
 0.1901163362D+00    9    2    0
 0.134463984104728D+03 0.000000000000000D+00 0.000000000000000D+00 0.134463984104728D+03
 0.134463984104728D+03 0.000000000000000D+00 0.000000000000000D+00 -.134463984104728D+03
 0.148054516738185D+03 0.138397238447170D+02 -.760790083209429D+02 0.177647534005218D+02
 0.120873451471270D+03 -.138397238447170D+02 0.760790083209429D+02 -.177647534005218D+02
 0.000000000000000D+00 -.000000000000000D+00 -.000000000000000D+00 -.000000000000000D+00
 0.143068058868972D+03 0.000000000000000D+00 0.000000000000000D+00 0.143068058868972D+03
 0.211281486380504D+03 0.000000000000000D+00 0.000000000000000D+00 -.211281486380504D+03
 0.148909172615908D+03 0.375741860049704D+02 -.694372794098166D+02 0.177647534005218D+02
 0.123749256330094D+03 0.571144894168805D+01 0.815501072093496D+02 -.177647534005218D+02
 0.816911163034737D+02 -.432856349466584D+02 -.121128277995330D+02 -.682134275115329D+02
0.173787153241D-03 0.000000000000D+00 0.000000000000D+00 0.145915765502D-02 0.000000000000D+00  5 -2 2 25 23 21 0 0.60755902D-02 0.70436337D-01 0.17761660D+05 0.17761660D+05 0.17761660D+05 0.12395415D+01  1  2  2  2  5  2        2 0.164861230443D+00 0.100000000000D+01
-.965391250350D-05 0.000000000000D+00 -.667388427655D-06 0.145915765502D-02 0.000000000000D+00  5 -2 2 25 23 21 2 0.60755902D-02 0.70436337D-01 0.17761660D+05 0.17761660D+05 0.17761660D+05 0.12395415D+01  1  2  3  2  5  2        2 -.140710465356D-01 0.100000000000D+01
0.120114216407D-04 0.000000000000D+00 0.000000000000D+00 0.145915765502D-02 0.000000000000D+00  5 -2 2 25 23 21 2 0.60755902D-02 0.70436337D-01 0.17761660D+05 0.17761660D+05 0.17761660D+05 0.12395415D+01  1  2 15  2  5  2        2 0.175072306491D-01 0.100000000000D+01
0.289632043714D-03 0.000000000000D+00 0.000000000000D+00 0.145915765502D-02 0.000000000000D+00  5 -2 2 25 23 21 2 0.60755902D-02 0.11186769D+00 0.24847488D+05 0.24847488D+05 0.24847488D+05 0.12235827D+01  1  2 12  2  5  2        2 0.245559159905D+00 0.100000000000D+01
-.307977031876D-03 0.000000000000D+00 0.000000000000D+00 0.145915765502D-02 0.000000000000D+00  5 -2 2 25 23 21 2 0.60755902D-02 0.70436337D-01 0.17761660D+05 0.17761660D+05 0.17761660D+05 0.12395415D+01  1  2  4  2  5  2        2 -.448891487865D+00 0.100000000000D+01
-.364544415724D-03 0.000000000000D+00 -.748877069405D-04 0.145915765502D-02 0.000000000000D+00  5 -2 2 25 23 21 2 0.60755902D-02 0.11458703D+00 0.17761660D+05 0.17761660D+05 0.17761660D+05 0.12395415D+01  1  2  5  2  5  2        2 -.305737154782D+00 0.100000000000D+01
0.364981412113D-03 0.000000000000D+00 0.668188528256D-04 0.145915765502D-02 0.000000000000D+00  5 -2 2 25 23 21 2 0.60755902D-02 0.70436337D-01 0.17761660D+05 0.17761660D+05 0.17761660D+05 0.12395415D+01  1  2  6  2  5  2        2 0.531978141774D+00 0.100000000000D+01
0.153710811678D-04 0.000000000000D+00 0.000000000000D+00 0.145915765502D-02 0.000000000000D+00  5 -2 21 25 23 -2 2 0.60755902D-02 0.11186769D+00 0.24847488D+05 0.24847488D+05 0.24847488D+05 0.12235827D+01  1  2 12  4  5  2        2 0.164304999665D-01 0.100000000000D+01
-.168451925447D-04 0.000000000000D+00 -.413317177115D-05 0.145915765502D-02 0.000000000000D+00  5 -2 21 25 23 -2 2 0.60755902D-02 0.11458703D+00 0.17761660D+05 0.17761660D+05 0.17761660D+05 0.12395415D+01  1  2  5  4  5  2        2 -.175202373767D-01 0.100000000000D+01
  </mgrwgt>
  </event>
  <event>
  4     66 0.46888340E-03 0.11156884E+03 0.75467711E-02 0.11089302E+00
       -2 -1    0    0    0  501 0.00000000E+00 0.00000000E+00 0.87810917E+01 0.87869204E+01 0.32000000E+00 0.0000E+00 0.9000E+01
        2 -1    0    0  501    0 0.00000000E+00 0.00000000E+00 -.15293399E+04 0.15293399E+04 0.32000000E+00 0.0000E+00 0.9000E+01
       25  1    1    2    0    0 -.22415553E+02 -.15598378E+02 -.10699837E+04 0.10776066E+04 0.12500000E+03 0.0000E+00 0.9000E+01
       23  1    1    2    0    0 0.22415553E+02 0.15598378E+02 -.45057505E+03 0.46052025E+03 0.91188000E+02 0.0000E+00 0.9000E+01
#aMCatNLO 1  0  0  2  1 0.20874979D+03 0.00000000D+00  -5  5  0 0.00000000D+00 0.00000000D+00 0.00000000D+00 0.00000000D+00 0.00000000D+00
  <mgrwgt>
 0.2083228355D+00    3    2    0
 0.115904193492890D+03 0.000000000000000D+00 0.000000000000000D+00 0.115904193492890D+03
 0.115904193492890D+03 0.000000000000000D+00 0.000000000000000D+00 -.115904193492890D+03
 0.131670984226929D+03 -.224155526774149D+02 -.155983775066395D+02 -.310882888659815D+02
 0.100137402758851D+03 0.224155526774149D+02 0.155983775066395D+02 0.310882888659815D+02
 0.000000000000000D+00 0.000000000000000D+00 -.000000000000000D+00 0.000000000000000D+00
 0.293677166487051D+03 0.000000000000000D+00 0.000000000000000D+00 0.293677166487051D+03
 0.235087117431333D+03 0.000000000000000D+00 0.000000000000000D+00 -.235087117431333D+03
 0.190627617963445D+03 -.137096812054190D+03 0.308524091503486D+02 -.310882888659815D+02
 0.121320458343501D+03 -.563842504787379D+02 0.475156486014176D+02 0.310882888659815D+02
 0.216816207611439D+03 0.193481062532928D+03 -.783680577517661D+02 0.585900490557180D+02
0.118069657082D-03 0.000000000000D+00 0.000000000000D+00 0.165463164907D-02 0.000000000000D+00  5 -2 2 25 23 21 0 0.13513881D-02 0.23528351D+00 0.12447605D+05 0.12447605D+05 0.12447605D+05 0.12571644D+01  1  2  2  2  5  2        2 0.204128498050D+00 0.100000000000D+01
-.654783489052D-05 0.000000000000D+00 -.453418571648D-06 0.165463164907D-02 0.000000000000D+00  5 -2 2 25 23 21 2 0.13513881D-02 0.23528351D+00 0.12447605D+05 0.12447605D+05 0.12447605D+05 0.12571644D+01  1  2  3  2  5  2        2 -.178915179052D-01 0.100000000000D+01
0.808285440101D-05 0.000000000000D+00 0.000000000000D+00 0.165463164907D-02 0.000000000000D+00  5 -2 2 25 23 21 2 0.13513881D-02 0.23528351D+00 0.12447605D+05 0.12447605D+05 0.12447605D+05 0.12571644D+01  1  2 15  2  5  2        2 0.220858553489D-01 0.100000000000D+01
  </mgrwgt>
  </event>
  <event>
  4     66 0.46888340E-03 0.77510707E+02 0.75467711E-02 0.12170071E+00
       -2 -1    0    0    0  501 0.00000000E+00 0.00000000E+00 0.10437518E+03 0.10437567E+03 0.32000000E+00 0.0000E+00 0.9000E+01
        2 -1    0    0  501    0 0.00000000E+00 0.00000000E+00 -.14138852E+03 0.14138888E+03 0.32000000E+00 0.0000E+00 0.9000E+01
       25  1    1    2    0    0 -.38671273E+02 0.14633621E+02 0.15730790E+02 0.13259739E+03 0.12500000E+03 0.0000E+00 0.9000E+01
       23  1    1    2    0    0 0.38671273E+02 -.14633621E+02 -.52744130E+02 0.11316715E+03 0.91188000E+02 0.0000E+00 0.9000E+01
#aMCatNLO 1  0  0  1  2 0.39429423D+02 0.00000000D+00  -5  5  0 0.00000000D+00 0.00000000D+00 0.00000000D+00 0.00000000D+00 0.00000000D+00
  <mgrwgt>
 0.1489244162D+00    9    2    0
 0.121480681925794D+03 0.000000000000000D+00 0.000000000000000D+00 0.121480681925794D+03
 0.121480681925794D+03 0.000000000000000D+00 0.000000000000000D+00 -.121480681925794D+03
 0.136523708809001D+03 -.386712733087800D+02 0.146336211127926D+02 0.361125022778776D+02
 0.106437655042587D+03 0.386712733087800D+02 -.146336211127926D+02 -.361125022778776D+02
 0.000000000000000D+00 -.000000000000000D+00 0.000000000000000D+00 0.000000000000000D+00
 0.159969027367159D+03 0.000000000000000D+00 0.000000000000000D+00 0.159969027367159D+03
 0.133603341429942D+03 0.000000000000000D+00 0.000000000000000D+00 -.133603341429942D+03
 0.135817766477258D+03 -.382597093545959D+02 -.731761642907355D+01 0.361125022778776D+02
 0.110322241935298D+03 0.389988420722780D+02 -.321048784125142D+02 -.361125022778776D+02
 0.474323603845445D+02 -.739132717682081D+00 0.394224948415878D+02 0.263656859372167D+02
0.158325397914D-03 0.000000000000D+00 0.000000000000D+00 0.153880829160D-02 0.000000000000D+00  5 -2 2 25 23 21 0 0.16057785D-01 0.21752145D-01 0.13431094D+05 0.13431094D+05 0.13431094D+05 0.12533297D+01  1  2  2  1  5  1       -2 0.114087560670D+00 0.100000000000D+01
-.877213940361D-05 0.000000000000D+00 -.608011216023D-06 0.153880829160D-02 0.000000000000D+00  5 -2 2 25 23 21 2 0.16057785D-01 0.21752145D-01 0.13431094D+05 0.13431094D+05 0.13431094D+05 0.12533297D+01  1  2  3  1  5  1       -2 -.992941980806D-02 0.100000000000D+01
0.109299591987D-04 0.000000000000D+00 0.000000000000D+00 0.153880829160D-02 0.000000000000D+00  5 -2 2 25 23 21 2 0.16057785D-01 0.21752145D-01 0.13431094D+05 0.13431094D+05 0.13431094D+05 0.12533297D+01  1  2 15  1  5  1       -2 0.123719138941D-01 0.100000000000D+01
0.118506615106D-03 0.000000000000D+00 0.000000000000D+00 0.153880829160D-02 0.000000000000D+00  5 -2 2 25 23 21 2 0.21751913D-01 0.21752145D-01 0.18851644D+05 0.18851644D+05 0.18851644D+05 0.12366633D+01  1  2 12  1  5  1       -2 0.794706065713D-01 0.100000000000D+01
-.131547086194D-03 0.000000000000D+00 0.000000000000D+00 0.153880829160D-02 0.000000000000D+00  5 -2 2 25 23 21 2 0.16057785D-01 0.21752145D-01 0.13431094D+05 0.13431094D+05 0.13431094D+05 0.12533297D+01  1  2  4  1  5  1       -2 -.148901674181D+00 0.100000000000D+01
-.199836339116D-03 0.000000000000D+00 -.639304003384D-04 0.153880829160D-02 0.000000000000D+00  5 -2 2 25 23 21 2 0.23096865D-01 0.21752145D-01 0.13431094D+05 0.13431094D+05 0.13431094D+05 0.12533297D+01  1  2  5  1  5  1       -2 -.122899006787D+00 0.100000000000D+01
0.212859674728D-03 0.000000000000D+00 0.599273745884D-04 0.153880829160D-02 0.000000000000D+00  5 -2 2 25 23 21 2 0.16057785D-01 0.21752145D-01 0.13431094D+05 0.13431094D+05 0.13431094D+05 0.12533297D+01  1  2  6  1  5  1       -2 0.240941573468D+00 0.100000000000D+01
0.461953009110D-05 0.000000000000D+00 0.000000000000D+00 0.153880829160D-02 0.000000000000D+00  5 21 2 25 23 2 2 0.21751913D-01 0.21752145D-01 0.18851644D+05 0.18851644D+05 0.18851644D+05 0.12366633D+01  1  2 12  3  5  1       -2 0.428023519675D-01 0.100000000000D+01
-.696246660844D-05 0.000000000000D+00 -.283828590536D-05 0.153880829160D-02 0.000000000000D+00  5 21 2 25 23 2 2 0.23096865D-01 0.21752145D-01 0.13431094D+05 0.13431094D+05 0.13431094D+05 0.12533297D+01  1  2  5  3  5  1       -2 -.590194896448D-01 0.100000000000D+01
  </mgrwgt>
  </event>
  <event>
  4     66 0.46888340E-03 0.11028063E+03 0.75467711E-02 0.11364885E+00
       -2 -1    0    0    0  501 0.00000000E+00 0.00000000E+00 0.63765939E+01 0.63846182E+01 0.32000000E+00 0.0000E+00 0.9000E+01
        2 -1    0    0  501    0 0.00000000E+00 0.00000000E+00 -.19878171E+04 0.19878171E+04 0.32000000E+00 0.0000E+00 0.9000E+01
       25  1    1    2    0    0 -.16276188E+02 -.14190442E+02 -.93343905E+03 0.94201897E+03 0.12500000E+03 0.0000E+00 0.9000E+01
       23  1    1    2    0    0 0.16276188E+02 0.14190442E+02 -.10480015E+04 0.10521828E+04 0.91188000E+02 0.0000E+00 0.9000E+01
#aMCatNLO 1  0  0  1  1 0.16048955D+03 0.00000000D+00  -5  5  0 0.00000000D+00 0.00000000D+00 0.00000000D+00 0.00000000D+00 0.00000000D+00
  <mgrwgt>
 0.2174139657D+00    5    2    0
 0.112621175080579D+03 0.000000000000000D+00 0.000000000000000D+00 0.112621175080579D+03
 0.112621175080579D+03 0.000000000000000D+00 0.000000000000000D+00 -.112621175080579D+03
 0.128847583326564D+03 -.162761880150860D+02 -.141904415054246D+02 0.225924058629105D+02
 0.963947668345942D+02 0.162761880150860D+02 0.141904415054246D+02 -.225924058629105D+02
 0.000000000000000D+00 0.000000000000000D+00 0.000000000000000D+00 0.000000000000000D+00
 0.251251382661047D+03 0.000000000000000D+00 0.000000000000000D+00 0.251251382661047D+03
 0.195286305408637D+03 0.000000000000000D+00 0.000000000000000D+00 -.195286305408637D+03
 0.173132900953337D+03 -.714498663834715D+02 -.934585532930383D+02 0.225924058629105D+02
 0.103437184730368D+03 -.202343297081476D+02 -.382642775906157D+02 -.225924058629105D+02
 0.169967602385979D+03 0.916841960916191D+02 0.131722830883654D+03 0.559650772524092D+02
0.103805554151D-03 0.000000000000D+00 0.000000000000D+00 0.176227370382D-02 0.000000000000D+00  5 -2 2 25 23 21 0 0.98163368D-03 0.30581863D+00 0.12161818D+05 0.12161818D+05 0.12161818D+05 0.12583429D+01  1  2  2  1  5  1       -2 0.165549586661D+00 0.100000000000D+01
-.576388259986D-05 0.000000000000D+00 -.398640660569D-06 0.176227370382D-02 0.000000000000D+00  5 -2 2 25 23 21 2 0.98163368D-03 0.30581863D+00 0.12161818D+05 0.12161818D+05 0.12161818D+05 0.12583429D+01  1  2  3  1  5  1       -2 -.145552827045D-01 0.100000000000D+01
0.716008084333D-05 0.000000000000D+00 0.000000000000D+00 0.176227370382D-02 0.000000000000D+00  5 -2 2 25 23 21 2 0.98163368D-03 0.30581863D+00 0.12161818D+05 0.12161818D+05 0.12161818D+05 0.12583429D+01  1  2 15  1  5  1       -2 0.180810415647D-01 0.100000000000D+01
0.447791461301D-04 0.000000000000D+00 -.384327052215D-04 0.176227370382D-02 0.000000000000D+00  5 -2 2 25 23 21 2 0.47071629D-02 0.30581863D+00 0.12161818D+05 0.12161818D+05 0.12161818D+05 0.12583429D+01  1  2  5  1  5  1       -2 0.116524214229D-01 0.100000000000D+01
0.774463447548D-05 0.000000000000D+00 -.732287019640D-05 0.176227370382D-02 0.000000000000D+00  5 21 2 25 23 2 2 0.47071629D-02 0.30581863D+00 0.12161818D+05 0.12161818D+05 0.12161818D+05 0.12583429D+01  1  2  5  3  5  1       -2 0.366861987182D-01 0.100000000000D+01
  </mgrwgt>
  </event>
  <event>
  5     66 0.46888340E-03 0.14062337E+03 0.75467711E-02 0.11304998E+00
       -2 -1    0    0    0  501 0.00000000E+00 0.00000000E+00 0.13766765E+03 0.13766802E+03 0.32000000E+00 0.0000E+00 0.9000E+01
        2 -1    0    0  502    0 0.00000000E+00 0.00000000E+00 -.89948721E+03 0.89948727E+03 0.32000000E+00 0.0000E+00 0.9000E+01
       25  1    1    2    0    0 -.12181937E+03 0.80031306E+02 0.39069913E+02 0.19595006E+03 0.12500000E+03 0.0000E+00 0.9000E+01
       23  1    1    2    0    0 -.17691138E+02 -.71848436E+02 -.37814445E+03 0.39595915E+03 0.91188000E+02 0.0000E+00 0.9000E+01
       21  1    1    2  502  501 0.13951051E+03 -.81828695E+01 -.42274503E+03 0.44524607E+03 0.75000000E+00 0.0000E+00 0.9000E+01
#aMCatNLO 2  0  0  2  1 0.13975028D+03 0.00000000D+00  -5  5  0 0.00000000D+00 0.00000000D+00 0.00000000D+00 0.00000000D+00 0.00000000D+00
  <mgrwgt>
 0.6252168202D-01    2    2    0
 0.232300901095841D+03 0.000000000000000D+00 0.000000000000000D+00 0.232300901095841D+03
 0.232300901095841D+03 0.000000000000000D+00 0.000000000000000D+00 -.232300901095841D+03
 0.240167582436203D+03 -.474147875533281D+02 0.756671687834975D+02 0.184612527047362D+03
 0.224434219755479D+03 0.474147875533281D+02 -.756671687834975D+02 -.184612527047362D+03
 0.000000000000000D+00 0.000000000000000D+00 -.000000000000000D+00 -.000000000000000D+00
 0.264170559783795D+03 0.000000000000000D+00 0.000000000000000D+00 0.264170559783795D+03
 0.468750230662149D+03 0.000000000000000D+00 0.000000000000000D+00 -.468750230662149D+03
 0.266367705129454D+03 -.121819371448496D+03 0.800313059559325D+02 0.184612527047362D+03
 0.218797190723929D+03 -.176911378886658D+02 -.718484364622803D+02 -.184612527047362D+03
 0.247755894592561D+03 0.139510509337162D+03 -.818286949365224D+01 -.204579670878355D+03
-.337589736138D-07 0.000000000000D+00 0.000000000000D+00 0.450772310991D-03 0.000000000000D+00  5 -2 2 25 23 21 2 0.18624508D-01 0.13866234D+00 0.50444816D+05 0.50444816D+05 0.50444816D+05 0.11919010D+01  1  2 13  2  5  2        2 -.347507355878D-05 0.100000000000D+01
0.754668915681D-03 0.000000000000D+00 0.000000000000D+00 0.450772310991D-03 0.221793756122D-06  5 -2 2 25 23 21 2 0.21179628D-01 0.13838240D+00 0.50444816D+05 0.50444816D+05 0.50444816D+05 0.11919010D+01  1  2  1  2  5  2        2 0.625251570903D-01 0.100000000000D+01
  </mgrwgt>
  </event>
  <event>
  4     66 0.46888340E-03 0.89410314E+02 0.75467711E-02 0.12583266E+00
       -2 -1    0    0    0  501 0.00000000E+00 0.00000000E+00 0.44780315E+02 0.44781458E+02 0.32000000E+00 0.0000E+00 0.9000E+01
        2 -1    0    0  501    0 0.00000000E+00 0.00000000E+00 -.27959994E+03 0.27960012E+03 0.32000000E+00 0.0000E+00 0.9000E+01
       25  1    1    2    0    0 0.12313260E+02 -.26448326E+00 -.17194400E+03 0.21293526E+03 0.12500000E+03 0.0000E+00 0.9000E+01
       23  1    1    2    0    0 -.12313260E+02 0.26448326E+00 -.62875624E+02 0.11144632E+03 0.91188000E+02 0.0000E+00 0.9000E+01
#aMCatNLO 1  0  0  2  1 0.47657187D+01 0.00000000D+00  -5  5  0 0.00000000D+00 0.00000000D+00 0.00000000D+00 0.00000000D+00 0.00000000D+00
  <mgrwgt>
 0.2014761347D+00   11    2    0
 0.111896327925741D+03 0.000000000000000D+00 0.000000000000000D+00 0.111896327925741D+03
 0.111896327925741D+03 0.000000000000000D+00 0.000000000000000D+00 -.111896327925741D+03
 0.128227848341789D+03 0.123132596513967D+02 -.264483260870065D+00 -.258010615232549D+02
 0.955648075096935D+02 -.123132596513967D+02 0.264483260870065D+00 0.258010615232549D+02
 0.000000000000000D+00 0.000000000000000D+00 -.000000000000000D+00 -.000000000000000D+00
 0.112729962553596D+03 0.000000000000000D+00 0.000000000000000D+00 0.112729962553596D+03
 0.118946637371175D+03 0.000000000000000D+00 0.000000000000000D+00 -.118946637371175D+03
 0.128170631667038D+03 0.114707440246254D+02 0.233196863663096D+01 -.258010615232549D+02
 0.956727619982134D+02 -.129416590113719D+02 0.220107489045069D+01 0.258010615232549D+02
 0.783320625951943D+01 0.147091498674646D+01 -.453304352708164D+01 -.621667481757911D+01
0.942228923508D-04 0.000000000000D+00 0.000000000000D+00 0.176129240823D-02 0.000000000000D+00  5 -2 2 25 23 21 0 0.68893812D-02 0.43015477D-01 0.11839751D+05 0.11839751D+05 0.11839751D+05 0.12597090D+01  1  2  2  2  5  2        2 0.122667933134D+00 0.100000000000D+01
-.522962822877D-05 0.000000000000D+00 -.361840716084D-06 0.176129240823D-02 0.000000000000D+00  5 -2 2 25 23 21 2 0.68893812D-02 0.43015477D-01 0.11839751D+05 0.11839751D+05 0.11839751D+05 0.12597090D+01  1  2  3  2  5  2        2 -.108040322965D-01 0.100000000000D+01
0.643507189343D-05 0.000000000000D+00 0.000000000000D+00 0.176129240823D-02 0.000000000000D+00  5 -2 2 25 23 21 2 0.68893812D-02 0.43015477D-01 0.11839751D+05 0.11839751D+05 0.11839751D+05 0.12597090D+01  1  2 15  2  5  2        2 0.132943914032D-01 0.100000000000D+01
0.264793369702D-03 0.000000000000D+00 0.000000000000D+00 0.176129240823D-02 0.000000000000D+00  5 -2 2 25 23 21 2 0.68893812D-02 0.45879965D-01 0.12369962D+05 0.12369962D+05 0.12369962D+05 0.12574815D+01  1  2 12  2  5  2        2 0.510328662888D+00 0.100000000000D+01
-.104100115140D-02 0.000000000000D+00 0.000000000000D+00 0.176129240823D-02 0.000000000000D+00  5 -2 2 25 23 21 2 0.68893812D-02 0.43015477D-01 0.11839751D+05 0.11839751D+05 0.11839751D+05 0.12597090D+01  1  2  4  2  5  2        2 -.215063281144D+01 0.100000000000D+01
-.208211166931D-02 0.000000000000D+00 -.224113439660D-03 0.176129240823D-02 0.000000000000D+00  5 -2 2 25 23 21 2 0.68893812D-02 0.45969579D-01 0.11839751D+05 0.11839751D+05 0.11839751D+05 0.12597090D+01  1  2  5  2  5  2        2 -.401126541035D+01 0.100000000000D+01
0.209287254277D-02 0.000000000000D+00 0.223619997337D-03 0.176129240823D-02 0.000000000000D+00  5 -2 2 25 23 21 2 0.68893812D-02 0.43015477D-01 0.11839751D+05 0.11839751D+05 0.11839751D+05 0.12597090D+01  1  2  6  2  5  2        2 0.432372274956D+01 0.100000000000D+01
0.772528698839D-03 0.000000000000D+00 0.000000000000D+00 0.176129240823D-02 0.655239944672D-03  5 -2 2 25 23 21 2 0.69407075D-02 0.45725775D-01 0.12369962D+05 0.12369962D+05 0.12369962D+05 0.12574815D+01  1  2 11  2  5  2        2 0.147737548972D+01 0.100000000000D+01
0.367048770762D-05 0.000000000000D+00 0.000000000000D+00 0.176129240823D-02 0.000000000000D+00  5 -2 21 25 23 -2 2 0.68893812D-02 0.45879965D-01 0.12369962D+05 0.12369962D+05 0.12369962D+05 0.12574815D+01  1  2 12  4  5  2        2 0.243149867810D-01 0.100000000000D+01
-.231935448712D-04 0.000000000000D+00 -.253317129760D-05 0.176129240823D-02 0.000000000000D+00  5 -2 21 25 23 -2 2 0.68893812D-02 0.45969579D-01 0.11839751D+05 0.11839751D+05 0.11839751D+05 0.12597090D+01  1  2  5  4  5  2        2 -.153470397321D+00 0.100000000000D+01
0.848294749747D-05 0.000000000000D+00 0.000000000000D+00 0.176129240823D-02 0.690303288503D-05  5 -2 21 25 23 -2 2 0.69407075D-02 0.45725775D-01 0.12369962D+05 0.12369962D+05 0.12369962D+05 0.12574815D+01  1  2 11  4  5  2        2 0.559445726154D-01 0.100000000000D+01
  </mgrwgt>
  </event>
  <event>
  4     66 0.46888340E-03 0.52550905E+02 0.75467711E-02 0.11576849E+00
       -2 -1    0    0    0  501 0.00000000E+00 0.00000000E+00 0.25416738E+02 0.25418753E+02 0.32000000E+00 0.0000E+00 0.9000E+01
        2 -1    0    0  501    0 0.00000000E+00 0.00000000E+00 -.95769146E+03 0.95769151E+03 0.32000000E+00 0.0000E+00 0.9000E+01
       25  1    1    2    0    0 -.16547347E+01 0.11061520E+03 -.55299765E+03 0.57764164E+03 0.12500000E+03 0.0000E+00 0.9000E+01
       23  1    1    2    0    0 0.16547347E+01 -.11061520E+03 -.37927707E+03 0.40546863E+03 0.91188000E+02 0.0000E+00 0.9000E+01
#aMCatNLO 1  0  0  2  1 0.64749901D+02 0.00000000D+00  -5  5  0 0.00000000D+00 0.00000000D+00 0.00000000D+00 0.00000000D+00 0.00000000D+00
  <mgrwgt>
 0.2011805299D+00    9    2    0
 0.156020542844871D+03 0.000000000000000D+00 0.000000000000000D+00 0.156020542844871D+03
 0.156020542844871D+03 0.000000000000000D+00 0.000000000000000D+00 -.156020542844871D+03
 0.167733341241022D+03 -.165473474929828D+01 0.110615199405473D+03 -.164624808966913D+02
 0.144307744448720D+03 0.165473474929828D+01 -.110615199405473D+03 0.164624808966913D+02
 0.000000000000000D+00 -.000000000000000D+00 0.000000000000000D+00 -.000000000000000D+00
 0.173250806538397D+03 0.000000000000000D+00 0.000000000000000D+00 0.173250806538397D+03
 0.234713405504298D+03 0.000000000000000D+00 0.000000000000000D+00 -.234713405504298D+03
 0.149967930816998D+03 0.108223123852818D+02 0.804813304493250D+02 -.164624808966913D+02
 0.168720300550700D+03 0.139482507513052D+02 -.140305814197500D+03 0.164624808966913D+02
 0.892759806749966D+02 -.247705631365871D+02 0.598244837481750D+02 -.614625989659001D+02
0.212230599062D-03 0.000000000000D+00 0.000000000000D+00 0.129577689602D-02 0.000000000000D+00  5 -2 2 25 23 21 0 0.39104265D-02 0.14733731D+00 0.24069843D+05 0.24069843D+05 0.24069843D+05 0.12250670D+01  1  2  2  2  5  2        2 0.164076498891D+00 0.100000000000D+01
-.117901344125D-04 0.000000000000D+00 -.815021381998D-06 0.129577689602D-02 0.000000000000D+00  5 -2 2 25 23 21 2 0.39104265D-02 0.14733731D+00 0.24069843D+05 0.24069843D+05 0.24069843D+05 0.12250670D+01  1  2  3  2  5  2        2 -.136797084288D-01 0.100000000000D+01
0.146270331597D-04 0.000000000000D+00 0.000000000000D+00 0.129577689602D-02 0.000000000000D+00  5 -2 2 25 23 21 2 0.39104265D-02 0.14733731D+00 0.24069843D+05 0.24069843D+05 0.24069843D+05 0.12250670D+01  1  2 15  2  5  2        2 0.169712695210D-01 0.100000000000D+01
0.174760607603D-03 0.000000000000D+00 0.000000000000D+00 0.129577689602D-02 0.000000000000D+00  5 -2 2 25 23 21 2 0.39104265D-02 0.22649286D+00 0.36428830D+05 0.36428830D+05 0.36428830D+05 0.12061467D+01  1  2 12  2  5  2        2 0.101648527006D+00 0.100000000000D+01
-.217896164625D-03 0.000000000000D+00 0.000000000000D+00 0.129577689602D-02 0.000000000000D+00  5 -2 2 25 23 21 2 0.39104265D-02 0.14733731D+00 0.24069843D+05 0.24069843D+05 0.24069843D+05 0.12250670D+01  1  2  4  2  5  2        2 -.252817813227D+00 0.100000000000D+01
-.281467792105D-03 0.000000000000D+00 -.868209005937D-04 0.129577689602D-02 0.000000000000D+00  5 -2 2 25 23 21 2 0.39104265D-02 0.23301199D+00 0.24069843D+05 0.24069843D+05 0.24069843D+05 0.12250670D+01  1  2  5  2  5  2        2 -.159938854840D+00 0.100000000000D+01
0.297811860589D-03 0.000000000000D+00 0.784359724237D-04 0.129577689602D-02 0.000000000000D+00  5 -2 2 25 23 21 2 0.39104265D-02 0.14733731D+00 0.24069843D+05 0.24069843D+05 0.24069843D+05 0.12250670D+01  1  2  6  2  5  2        2 0.345541388840D+00 0.100000000000D+01
0.877582914267D-05 0.000000000000D+00 0.000000000000D+00 0.129577689602D-02 0.000000000000D+00  5 -2 21 25 23 -2 2 0.39104265D-02 0.22649286D+00 0.36428830D+05 0.36428830D+05 0.36428830D+05 0.12061467D+01  1  2 12  4  5  2        2 0.258467790129D-02 0.100000000000D+01
-.112983575676D-04 0.000000000000D+00 -.457533114487D-05 0.129577689602D-02 0.000000000000D+00  5 -2 21 25 23 -2 2 0.39104265D-02 0.23301199D+00 0.24069843D+05 0.24069843D+05 0.24069843D+05 0.12250670D+01  1  2  5  4  5  2        2 -.320545571885D-02 0.100000000000D+01
  </mgrwgt>
  </event>
  <event>
  5     66 0.46888340E-03 0.14266565E+03 0.75467711E-02 0.11485204E+00
       21 -1    0    0  502  501 0.00000000E+00 0.00000000E+00 0.79648873E+02 0.79652404E+02 0.75000000E+00 0.0000E+00 0.9000E+01
        2 -1    0    0  501    0 0.00000000E+00 0.00000000E+00 -.10595033E+04 0.10595034E+04 0.32000000E+00 0.0000E+00 0.9000E+01
       25  1    1    2    0    0 0.39503454E+02 -.14129456E+03 -.40745847E+03 0.45074613E+03 0.12500000E+03 0.0000E+00 0.9000E+01
       23  1    1    2    0    0 0.16460048E+02 0.56392346E+02 -.57652241E+03 0.58663820E+03 0.91188000E+02 0.0000E+00 0.9000E+01
        2  1    1    2  502    0 -.55963501E+02 0.84902209E+02 0.41264242E+01 0.10177145E+03 0.32000000E+00 0.0000E+00 0.9000E+01
#aMCatNLO 2  0  0  1  2 0.10168726D+03 0.00000000D+00  -5  5  0 0.00000000D+00 0.00000000D+00 0.00000000D+00 0.00000000D+00 0.00000000D+00
  <mgrwgt>
 0.1897977110D+00    2    2    0
 0.156211056677573D+03 0.000000000000000D+00 0.000000000000000D+00 0.156211056677573D+03
 0.156211056677573D+03 0.000000000000000D+00 0.000000000000000D+00 -.156211056677573D+03
 0.167909570232679D+03 0.712762550685460D+01 -.921771970271212D+02 0.634128147820323D+02
 0.144512543122467D+03 -.712762550685460D+01 0.921771970271212D+02 -.634128147820323D+02
 0.000000000000000D+00 -.000000000000000D+00 0.000000000000000D+00 0.000000000000000D+00
 0.490034826699133D+03 0.000000000000000D+00 0.000000000000000D+00 0.490034826699133D+03
 0.172212684614514D+03 0.000000000000000D+00 0.000000000000000D+00 -.172212684614514D+03
 0.202906035528892D+03 0.395034537921361D+02 -.141294555146206D+03 0.634128147820323D+02
 0.125648184548093D+03 0.164600476994148D+02 0.563923460000053D+02 -.634128147820323D+02
 0.333693291236662D+03 -.559635014915509D+02 0.849022091462010D+02 0.317822142084619D+03
-.110709222683D-04 0.000000000000D+00 0.000000000000D+00 0.112683836857D-02 0.000000000000D+00  5 21 2 25 23 2 2 0.11955625D-01 0.14785505D+00 0.40582557D+05 0.40582557D+05 0.40582557D+05 0.12013631D+01  1  2 13  3  5  1       -2 -.332297935190D-01 0.100000000000D+01
0.890740987419D-04 0.000000000000D+00 0.000000000000D+00 0.112683836857D-02 0.246900872727D-06  5 21 2 25 23 2 2 0.12253943D-01 0.16300072D+00 0.40582557D+05 0.40582557D+05 0.40582557D+05 0.12013631D+01  1  2  1  3  5  1       -2 0.223027504508D+00 0.100000000000D+01
  </mgrwgt>
  </event>
  <event>
  5     66 0.46888340E-03 0.25443518E+03 0.75467711E-02 0.10489106E+00
       -2 -1    0    0    0  502 0.00000000E+00 0.00000000E+00 0.37334485E+03 0.37334499E+03 0.32000000E+00 0.0000E+00 0.9000E+01
        2 -1    0    0  501    0 0.00000000E+00 0.00000000E+00 -.12808744E+04 0.12808744E+04 0.32000000E+00 0.0000E+00 0.9000E+01
       25  1    1    2    0    0 -.20416259E+02 0.36075481E+03 -.68762045E+03 0.78677045E+03 0.12500000E+03 0.0000E+00 0.9000E+01
       23  1    1    2    0    0 0.20127433E+02 -.14201853E+03 -.49072614E+03 0.51932820E+03 0.91188000E+02 0.0000E+00 0.9000E+01
       21  1    1    2  501  502 0.28882547E+00 -.21873628E+03 0.27081705E+03 0.34812078E+03 0.75000000E+00 0.0000E+00 0.9000E+01
#aMCatNLO 2  0  0  1  2 0.21873647D+03 0.00000000D+00  -5  5  0 0.00000000D+00 0.00000000D+00 0.00000000D+00 0.00000000D+00 0.00000000D+00
  <mgrwgt>
 0.5060261333D-01    2    2    0
 0.259589738444041D+03 0.000000000000000D+00 0.000000000000000D+00 0.259589738444041D+03
 0.259589738444041D+03 0.000000000000000D+00 0.000000000000000D+00 -.259589738444041D+03
 0.266629451088129D+03 -.202421936624022D+02 0.228930060492696D+03 0.514543019202594D+02
 0.252550025799953D+03 0.202421936624022D+02 -.228930060492696D+03 -.514543019202594D+02
 0.000000000000000D+00 0.000000000000000D+00 -.000000000000000D+00 0.000000000000000D+00
 0.164642100320624D+04 0.000000000000000D+00 0.000000000000000D+00 0.164642100320624D+04
 0.290452855724902D+03 0.000000000000000D+00 0.000000000000000D+00 -.290452855724902D+03
 0.385789319593792D+03 -.204162587240692D+02 0.360754806352253D+03 0.514543019202594D+02
 0.177587083981855D+03 0.201274332571166D+02 -.142018528007995D+03 -.514543019202594D+02
 0.137349745535550D+04 0.288825466952589D+00 -.218736278344258D+03 0.135596814748134D+04
-.218746980210D-03 0.000000000000D+00 0.000000000000D+00 0.100285451720D-02 0.000000000000D+00  5 -2 2 25 23 21 2 0.53884181D-01 0.17611849D+00 0.14862896D+06 0.14862896D+06 0.14862896D+06 0.11480853D+01  1  2 13  1  5  1       -2 -.202959327111D-02 0.100000000000D+01
0.774991972529D-02 0.000000000000D+00 0.000000000000D+00 0.100285451720D-02 0.510103418586D-06  5 -2 2 25 23 21 2 0.57437663D-01 0.19705755D+00 0.14862896D+06 0.14862896D+06 0.14862896D+06 0.11480853D+01  1  2  1  1  5  1       -2 0.526322065970D-01 0.100000000000D+01
  </mgrwgt>
  </event>
  <event>
  4     66 0.46888340E-03 0.11491841E+03 0.75467711E-02 0.11322132E+00
       -2 -1    0    0    0  501 0.00000000E+00 0.00000000E+00 0.18941760E+02 0.18944463E+02 0.32000000E+00 0.0000E+00 0.9000E+01
        2 -1    0    0  501    0 0.00000000E+00 0.00000000E+00 -.95772171E+03 0.95772177E+03 0.32000000E+00 0.0000E+00 0.9000E+01
       25  1    1    2    0    0 -.23375320E+02 -.30701531E+02 -.76960729E+03 0.78064677E+03 0.12500000E+03 0.0000E+00 0.9000E+01
       23  1    1    2    0    0 0.23375320E+02 0.30701531E+02 -.16917266E+03 0.19601946E+03 0.91188000E+02 0.0000E+00 0.9000E+01
#aMCatNLO 1  0  0  1  2 0.16352565D+03 0.00000000D+00  -5  5  0 0.00000000D+00 0.00000000D+00 0.00000000D+00 0.00000000D+00 0.00000000D+00
  <mgrwgt>
 0.1989725427D+00    3    2    0
 0.134693285829082D+03 0.000000000000000D+00 0.000000000000000D+00 0.134693285829082D+03
 0.134693285829082D+03 0.000000000000000D+00 0.000000000000000D+00 -.134693285829082D+03
 0.148260681952441D+03 -.233753199535332D+02 -.307015309740762D+02 -.697656091919275D+02
 0.121125889705723D+03 0.233753199535332D+02 0.307015309740762D+02 0.697656091919275D+02
 0.000000000000000D+00 -.000000000000000D+00 0.000000000000000D+00 -.000000000000000D+00
 0.220530625350795D+03 0.000000000000000D+00 0.000000000000000D+00 0.220530625350795D+03
 0.263742631059878D+03 0.000000000000000D+00 0.000000000000000D+00 -.263742631059878D+03
 0.186925412750217D+03 0.491857421377800D+01 -.120102778209423D+03 -.697656091919275D+02
 0.128209101066607D+03 0.444223083358465D+02 -.358014042811407D+02 0.697656091919275D+02
 0.169138742593850D+03 -.493408825496245D+02 0.155904182490563D+03 -.432120057090829D+02
0.165785001946D-03 0.000000000000D+00 0.000000000000D+00 0.116434829481D-02 0.000000000000D+00  5 -2 2 25 23 21 0 0.29143290D-02 0.14734201D+00 0.13206240D+05 0.13206240D+05 0.13206240D+05 0.12541779D+01  1  2  2  1  5  1       -2 0.194503816870D+00 0.100000000000D+01
-.892796277323D-05 0.000000000000D+00 -.636658059666D-06 0.116434829481D-02 0.000000000000D+00  5 -2 2 25 23 21 2 0.29143290D-02 0.14734201D+00 0.13206240D+05 0.13206240D+05 0.13206240D+05 0.12541779D+01  1  2  3  1  5  1       -2 -.164760671349D-01 0.100000000000D+01
0.113494519427D-04 0.000000000000D+00 0.000000000000D+00 0.116434829481D-02 0.000000000000D+00  5 -2 2 25 23 21 2 0.29143290D-02 0.14734201D+00 0.13206240D+05 0.13206240D+05 0.13206240D+05 0.12541779D+01  1  2 15  1  5  1       -2 0.209447929950D-01 0.100000000000D+01
  </mgrwgt>
  </event>
  <event>
  4     66 0.46888340E-03 0.48872651E+02 0.75467711E-02 0.12035130E+00
       -2 -1    0    0    0  501 0.00000000E+00 0.00000000E+00 0.44325450E+02 0.44326605E+02 0.32000000E+00 0.0000E+00 0.9000E+01
        2 -1    0    0  501    0 0.00000000E+00 0.00000000E+00 -.37366234E+03 0.37366248E+03 0.32000000E+00 0.0000E+00 0.9000E+01
       25  1    1    2    0    0 0.42214266E+02 -.48302297E+02 -.14050977E+03 0.19870367E+03 0.12500000E+03 0.0000E+00 0.9000E+01
       23  1    1    2    0    0 -.42214266E+02 0.48302297E+02 -.18882713E+03 0.21928541E+03 0.91188000E+02 0.0000E+00 0.9000E+01
#aMCatNLO 1  0  0  1  2 0.40079043D+02 0.00000000D+00  -5  5  0 0.00000000D+00 0.00000000D+00 0.00000000D+00 0.00000000D+00 0.00000000D+00
  <mgrwgt>
 0.1619536678D+00    6    2    0
 0.128697403601131D+03 0.000000000000000D+00 0.000000000000000D+00 0.128697403601131D+03
 0.128697403601131D+03 0.000000000000000D+00 0.000000000000000D+00 -.128697403601131D+03
 0.142896891025631D+03 0.422142658367489D+02 -.483022965415525D+02 0.260646383720781D+02
 0.114497916176632D+03 -.422142658367489D+02 0.483022965415525D+02 -.260646383720781D+02
 0.000000000000000D+00 -.000000000000000D+00 0.000000000000000D+00 -.000000000000000D+00
 0.149983706592411D+03 0.000000000000000D+00 0.000000000000000D+00 0.149983706592411D+03
 0.150596501908380D+03 0.000000000000000D+00 0.000000000000000D+00 -.150596501908380D+03
 0.154570008433397D+03 0.558043534982003D+02 -.668834528435928D+02 0.260646383720781D+02
 0.105926472323016D+03 -.321439461881433D+02 0.345335712718096D+02 -.260646383720781D+02
 0.400837277443787D+02 -.236604073100570D+02 0.323498815717832D+02 -.612795315968602D+00
0.142838769700D-03 0.000000000000D+00 0.000000000000D+00 0.149692376871D-02 0.000000000000D+00  5 -2 2 25 23 21 0 0.68193994D-02 0.57486614D-01 0.15874917D+05 0.15874917D+05 0.15874917D+05 0.12450255D+01  1  2  2  1  5  1       -2 0.140723787787D+00 0.100000000000D+01
-.793114422154D-05 0.000000000000D+00 -.548538485961D-06 0.149692376871D-02 0.000000000000D+00  5 -2 2 25 23 21 2 0.68193994D-02 0.57486614D-01 0.15874917D+05 0.15874917D+05 0.15874917D+05 0.12450255D+01  1  2  3  1  5  1       -2 -.121119419874D-01 0.100000000000D+01
0.987208382192D-05 0.000000000000D+00 0.000000000000D+00 0.149692376871D-02 0.000000000000D+00  5 -2 2 25 23 21 2 0.68193994D-02 0.57486614D-01 0.15874917D+05 0.15874917D+05 0.15874917D+05 0.12450255D+01  1  2 15  1  5  1       -2 0.150760222240D-01 0.100000000000D+01
0.693627760614D-04 0.000000000000D+00 0.000000000000D+00 0.149692376871D-02 0.000000000000D+00  5 -2 2 25 23 21 2 0.84374198D-02 0.57486614D-01 0.21771775D+05 0.21771775D+05 0.21771775D+05 0.12297882D+01  1  2 12  1  5  1       -2 0.752787581250D-01 0.100000000000D+01
-.613438007074D-04 0.000000000000D+00 0.000000000000D+00 0.149692376871D-02 0.000000000000D+00  5 -2 2 25 23 21 2 0.68193994D-02 0.57486614D-01 0.15874917D+05 0.15874917D+05 0.15874917D+05 0.12450255D+01  1  2  4  1  5  1       -2 -.936803738151D-01 0.100000000000D+01
0.208187459144D-05 0.000000000000D+00 0.000000000000D+00 0.149692376871D-02 0.000000000000D+00  5 21 2 25 23 2 2 0.84374198D-02 0.57486614D-01 0.21771775D+05 0.21771775D+05 0.21771775D+05 0.12297882D+01  1  2 12  3  5  1       -2 0.366674154596D-01 0.100000000000D+01
  </mgrwgt>
  </event>
  <event>
  5     66 0.46888340E-03 0.11740932E+03 0.75467711E-02 0.11285025E+00
       -2 -1    0    0    0  501 0.00000000E+00 0.00000000E+00 0.43621163E+02 0.43622336E+02 0.32000000E+00 0.0000E+00 0.9000E+01
       21 -1    0    0  501  502 0.00000000E+00 0.00000000E+00 -.21174087E+04 0.21174088E+04 0.75000000E+00 0.0000E+00 0.9000E+01
       25  1    1    2    0    0 0.53225285E+02 -.11257374E+02 -.14479021E+03 0.19886896E+03 0.12500000E+03 0.0000E+00 0.9000E+01
       23  1    1    2    0    0 0.73572407E+02 -.96678285E+02 -.47591000E+03 0.49956498E+03 0.91188000E+02 0.0000E+00 0.9000E+01
       -2  1    1    2    0  502 -.12679769E+03 0.10793566E+03 -.14530873E+04 0.14625972E+04 0.32000000E+00 0.0000E+00 0.9000E+01
#aMCatNLO 2  0  0  2  2 0.16651655D+03 0.00000000D+00  -5  5  0 0.00000000D+00 0.00000000D+00 0.00000000D+00 0.00000000D+00 0.00000000D+00
  <mgrwgt>
 0.2658682518D-02    1    2    0
 0.136760247024437D+03 0.000000000000000D+00 0.000000000000000D+00 0.136760247024437D+03
 0.136760247024437D+03 0.000000000000000D+00 0.000000000000000D+00 -.136760247024437D+03
 0.150122588814252D+03 -.115299197886059D+02 0.438650461745574D+02 0.696757514926477D+02
 0.123397905234623D+03 0.115299197886059D+02 -.438650461745574D+02 -.696757514926477D+02
 0.000000000000000D+00 -.000000000000000D+00 0.000000000000000D+00 -.000000000000000D+00
 0.179698026348874D+03 0.000000000000000D+00 0.000000000000000D+00 0.179698026348874D+03
 0.514002168242833D+03 0.000000000000000D+00 0.000000000000000D+00 -.514002168242833D+03
 0.153099215339202D+03 0.532252845586199D+02 -.112573742528245D+02 0.696757514926477D+02
 0.167121367570786D+03 0.735724069040807D+02 -.966782847955260D+02 -.696757514926477D+02
 0.373479611681719D+03 -.126797691462701D+03 0.107935659048351D+03 -.334304141893959D+03
0.823836792122D-04 0.000000000000D+00 0.000000000000D+00 0.115583802488D-02 0.177771399127D-06  5 -2 21 25 23 -2 2 0.67110463D-02 0.32575517D+00 0.51698519D+05 0.51698519D+05 0.51698519D+05 0.11908476D+01  1  2  1  4  5  2        2 0.265868251770D-02 0.100000000000D+01
  </mgrwgt>
  </event>
  <event>
  4     66 0.46888340E-03 0.11714188E+03 0.75467711E-02 0.10600521E+00
       -2 -1    0    0    0  501 0.00000000E+00 0.00000000E+00 0.12187909E+02 0.12192110E+02 0.32000000E+00 0.0000E+00 0.9000E+01
        2 -1    0    0  501    0 0.00000000E+00 0.00000000E+00 -.17098947E+04 0.17098947E+04 0.32000000E+00 0.0000E+00 0.9000E+01
       25  1    1    2    0    0 0.23768351E+02 -.37822307E+02 -.42292730E+03 0.44326963E+03 0.12500000E+03 0.0000E+00 0.9000E+01
       23  1    1    2    0    0 -.23768351E+02 0.37822307E+02 -.12747795E+04 0.12788172E+04 0.91188000E+02 0.0000E+00 0.9000E+01
#aMCatNLO 1  0  0  1  2 0.31802363D+03 0.00000000D+00  -5  5  0 0.00000000D+00 0.00000000D+00 0.00000000D+00 0.00000000D+00 0.00000000D+00
  <mgrwgt>
 0.1818099353D+00    3    2    0
 0.144373418977274D+03 0.000000000000000D+00 0.000000000000000D+00 0.144373418977274D+03
 0.144373418977274D+03 0.000000000000000D+00 0.000000000000000D+00 -.144373418977274D+03
 0.157031131019736D+03 0.237683513395016D+02 -.378223073565339D+02 0.838946640148668D+02
 0.131715706934813D+03 -.237683513395016D+02 0.378223073565339D+02 -.838946640148668D+02
 0.000000000000000D+00 0.000000000000000D+00 -.000000000000000D+00 -.000000000000000D+00
 0.317424818023837D+03 0.000000000000000D+00 0.000000000000000D+00 0.317424818023837D+03
 0.461096642082336D+03 0.000000000000000D+00 0.000000000000000D+00 -.461096642082336D+03
 0.185257213033933D+03 -.316998810408258D+02 0.103208710257081D+03 0.838946640148668D+02
 0.244293442612148D+03 -.847010802697334D+02 0.192747106619705D+03 -.838946640148668D+02
 0.348970804460092D+03 0.116400961310559D+03 -.295955816876785D+03 -.143671824058499D+03
0.202782315643D-03 0.000000000000D+00 0.000000000000D+00 0.100769034790D-02 0.000000000000D+00  5 -2 2 25 23 21 0 0.18753884D-02 0.26306105D+00 0.13722221D+05 0.13722221D+05 0.13722221D+05 0.12522548D+01  1  2  2  1  5  1       -2 0.177425480180D+00 0.100000000000D+01
-.106672679950D-04 0.000000000000D+00 -.778737485878D-06 0.100769034790D-02 0.000000000000D+00  5 -2 2 25 23 21 2 0.18753884D-02 0.26306105D+00 0.13722221D+05 0.13722221D+05 0.13722221D+05 0.12522548D+01  1  2  3  1  5  1       -2 -.146360725447D-01 0.100000000000D+01
0.138628081355D-04 0.000000000000D+00 0.000000000000D+00 0.100769034790D-02 0.000000000000D+00  5 -2 2 25 23 21 2 0.18753884D-02 0.26306105D+00 0.13722221D+05 0.13722221D+05 0.13722221D+05 0.12522548D+01  1  2 15  1  5  1       -2 0.190205276214D-01 0.100000000000D+01
  </mgrwgt>
  </event>
  <event>
  4     66 0.46888340E-03 0.10945303E+03 0.75467711E-02 0.11943704E+00
       -2 -1    0    0    0  501 0.00000000E+00 0.00000000E+00 0.94717594E+02 0.94718135E+02 0.32000000E+00 0.0000E+00 0.9000E+01
        2 -1    0    0  501    0 0.00000000E+00 0.00000000E+00 -.13052684E+03 0.13052723E+03 0.32000000E+00 0.0000E+00 0.9000E+01
       25  1    1    2    0    0 0.28487302E+01 -.16747669E+02 -.94502000E+00 0.12615266E+03 0.12500000E+03 0.0000E+00 0.9000E+01
       23  1    1    2    0    0 -.28487302E+01 0.16747669E+02 -.34864226E+02 0.99092711E+02 0.91188000E+02 0.0000E+00 0.9000E+01
#aMCatNLO 1  0  0  2  1 0.77795883D+02 0.00000000D+00  -5  5  0 0.00000000D+00 0.00000000D+00 0.00000000D+00 0.00000000D+00 0.00000000D+00
  <mgrwgt>
 0.2008008534D+00    3    2    0
 0.111190347333391D+03 0.000000000000000D+00 0.000000000000000D+00 0.111190347333391D+03
 0.111190347333391D+03 0.000000000000000D+00 0.000000000000000D+00 -.111190347333391D+03
 0.127625561430894D+03 0.284873021663046D+01 -.167476694417475D+02 0.193567619961038D+02
 0.947551332358886D+02 -.284873021663046D+01 0.167476694417475D+02 -.193567619961038D+02
 0.000000000000000D+00 0.000000000000000D+00 -.000000000000000D+00 0.000000000000000D+00
 0.310184564581552D+03 0.000000000000000D+00 0.000000000000000D+00 0.310184564581552D+03
 0.125662520606043D+03 0.000000000000000D+00 0.000000000000000D+00 -.125662520606043D+03
 0.130086712340475D+03 -.253540178006875D+02 0.167344636586362D+02 0.193567619961038D+02
 0.105509070324574D+03 -.247646474806845D+02 0.427661148216611D+02 -.193567619961038D+02
 0.200251302522545D+03 0.501186652813720D+02 -.595005784802973D+02 0.184522043975509D+03
0.214146593889D-03 0.000000000000D+00 0.000000000000D+00 0.180743591504D-02 0.000000000000D+00  5 -2 2 25 23 21 0 0.14572009D-01 0.20081124D-01 0.11979966D+05 0.11979966D+05 0.11979966D+05 0.12591092D+01  1  2  2  2  5  2        2 0.196787753087D+00 0.100000000000D+01
-.118934456428D-04 0.000000000000D+00 -.822379306627D-06 0.180743591504D-02 0.000000000000D+00  5 -2 2 25 23 21 2 0.14572009D-01 0.20081124D-01 0.11979966D+05 0.11979966D+05 0.11979966D+05 0.12591092D+01  1  2  3  2  5  2        2 -.173269194230D-01 0.100000000000D+01
0.146480951585D-04 0.000000000000D+00 0.000000000000D+00 0.180743591504D-02 0.000000000000D+00  5 -2 2 25 23 21 2 0.14572009D-01 0.20081124D-01 0.11979966D+05 0.11979966D+05 0.11979966D+05 0.12591092D+01  1  2 15  2  5  2        2 0.213400197163D-01 0.100000000000D+01
  </mgrwgt>
  </event>
  <event>
  4     66 0.46888340E-03 0.93710903E+02 0.75467711E-02 0.12200079E+00
       -2 -1    0    0    0  501 0.00000000E+00 0.00000000E+00 0.15221795E+02 0.15225158E+02 0.32000000E+00 0.0000E+00 0.9000E+01
        2 -1    0    0  501    0 0.00000000E+00 0.00000000E+00 -.10303782E+04 0.10303782E+04 0.32000000E+00 0.0000E+00 0.9000E+01
       25  1    1    2    0    0 -.10612550E+01 0.45822672E+02 -.38824404E+03 0.41043791E+03 0.12500000E+03 0.0000E+00 0.9000E+01
       23  1    1    2    0    0 0.10612550E+01 -.45822672E+02 -.62691236E+03 0.63516549E+03 0.91188000E+02 0.0000E+00 0.9000E+01
#aMCatNLO 1  0  0  1  2 0.33005017D+02 0.00000000D+00  -5  5  0 0.00000000D+00 0.00000000D+00 0.00000000D+00 0.00000000D+00 0.00000000D+00
  <mgrwgt>
 0.2056902503D+00    6    2    0
 0.125243720192690D+03 0.000000000000000D+00 0.000000000000000D+00 0.125243720192690D+03
 0.125243720192690D+03 0.000000000000000D+00 0.000000000000000D+00 -.125243720192690D+03
 0.139834768439967D+03 -.106125504491882D+01 0.458226721861454D+02 0.427541684062478D+02
 0.110652671945413D+03 0.106125504491882D+01 -.458226721861454D+02 -.427541684062478D+02
 0.000000000000000D+00 -.000000000000000D+00 -.000000000000000D+00 -.000000000000000D+00
 0.141868004650201D+03 0.000000000000000D+00 0.000000000000000D+00 0.141868004650201D+03
 0.143848910145059D+03 0.000000000000000D+00 0.000000000000000D+00 -.143848910145059D+03
 0.146270111115989D+03 0.796317021019823D+01 0.622785228628412D+02 0.427541684062478D+02
 0.106382395138002D+03 0.790705489172128D+01 -.333394993682808D+02 -.427541684062478D+02
 0.330644085412680D+02 -.158702251019195D+02 -.289390234945604D+02 -.198090549485853D+01
0.107134232257D-03 0.000000000000D+00 0.000000000000D+00 0.145032874259D-02 0.000000000000D+00  5 -2 2 25 23 21 0 0.23420771D-02 0.15851998D+00 0.13829491D+05 0.13829491D+05 0.13829491D+05 0.12518652D+01  1  2  2  1  5  1       -2 0.156702191345D+00 0.100000000000D+01
-.592319568042D-05 0.000000000000D+00 -.411423660957D-06 0.145032874259D-02 0.000000000000D+00  5 -2 2 25 23 21 2 0.23420771D-02 0.15851998D+00 0.13829491D+05 0.13829491D+05 0.13829491D+05 0.12518652D+01  1  2  3  1  5  1       -2 -.135774450339D-01 0.100000000000D+01
0.738626506261D-05 0.000000000000D+00 0.000000000000D+00 0.145032874259D-02 0.000000000000D+00  5 -2 2 25 23 21 2 0.23420771D-02 0.15851998D+00 0.13829491D+05 0.13829491D+05 0.13829491D+05 0.12518652D+01  1  2 15  1  5  1       -2 0.169311657599D-01 0.100000000000D+01
0.593985764429D-04 0.000000000000D+00 0.000000000000D+00 0.145032874259D-02 0.000000000000D+00  5 -2 2 25 23 21 2 0.28042855D-02 0.15851998D+00 0.18265552D+05 0.18265552D+05 0.18265552D+05 0.12381871D+01  1  2 12  1  5  1       -2 0.103309755588D+00 0.100000000000D+01
-.487253156168D-04 0.000000000000D+00 0.000000000000D+00 0.145032874259D-02 0.000000000000D+00  5 -2 2 25 23 21 2 0.23420771D-02 0.15851998D+00 0.13829491D+05 0.13829491D+05 0.13829491D+05 0.12518652D+01  1  2  4  1  5  1       -2 -.111690602547D+00 0.100000000000D+01
0.156732414437D-05 0.000000000000D+00 0.000000000000D+00 0.145032874259D-02 0.000000000000D+00  5 21 2 25 23 2 2 0.28042855D-02 0.15851998D+00 0.18265552D+05 0.18265552D+05 0.18265552D+05 0.12381871D+01  1  2 12  3  5  1       -2 0.540151852255D-01 0.100000000000D+01
  </mgrwgt>
  </event>
  <event>
  4     66 0.46888340E-03 0.77442589E+02 0.75467711E-02 0.12189638E+00
       -4 -1    0    0    0  501 0.00000000E+00 0.00000000E+00 0.51747550E+03 0.51747782E+03 0.15500000E+01 0.0000E+00 0.9000E+01
        4 -1    0    0  501    0 0.00000000E+00 0.00000000E+00 -.33090607E+02 0.33126889E+02 0.15500000E+01 0.0000E+00 0.9000E+01
       25  1    1    2    0    0 0.70753312E+02 -.14606446E+02 0.29287338E+03 0.32652595E+03 0.12500000E+03 0.0000E+00 0.9000E+01
       23  1    1    2    0    0 -.70753312E+02 0.14606446E+02 0.19151151E+03 0.22407876E+03 0.91188000E+02 0.0000E+00 0.9000E+01
#aMCatNLO 1  0  0  1  2 0.10849554D+02 0.00000000D+00  -5  5  0 0.00000000D+00 0.00000000D+00 0.00000000D+00 0.00000000D+00 0.00000000D+00
  <mgrwgt>
 0.1501744317D-01    9    2    0
 0.130897690859885D+03 0.000000000000000D+00 0.000000000000000D+00 0.130897690859885D+03
 0.130897690859885D+03 0.000000000000000D+00 0.000000000000000D+00 -.130897690859885D+03
 0.144858496065808D+03 0.707533123748128D+02 -.146064456120157D+02 0.118154313092328D+02
 0.116936885653962D+03 -.707533123748128D+02 0.146064456120157D+02 -.118154313092328D+02
 0.000000000000000D+00 -.000000000000000D+00 0.000000000000000D+00 0.000000000000000D+00
 0.137005656213292D+03 0.000000000000000D+00 0.000000000000000D+00 0.137005656213292D+03
 0.135918348867358D+03 0.000000000000000D+00 0.000000000000000D+00 -.135918348867358D+03
 0.146259149392125D+03 0.721678359334089D+02 -.204679706022213D+02 0.118154313092328D+02
 0.115760954261884D+03 -.696226472236929D+02 0.992117755934212D+01 -.118154313092328D+02
 0.109039014266414D+02 -.254518870971606D+01 0.105467930428792D+02 0.108730734593401D+01
0.346985018625D-03 0.000000000000D+00 0.000000000000D+00 0.150956498970D-02 0.000000000000D+00  5 -4 4 25 23 21 0 0.79614585D-01 0.50938321D-02 0.16992981D+05 0.16992981D+05 0.16992981D+05 0.12416931D+01  1  2  2  1  5  1       -4 0.190247305819D-01 0.100000000000D+01
-.192765441118D-04 0.000000000000D+00 -.133251383477D-05 0.150956498970D-02 0.000000000000D+00  5 -4 4 25 23 21 2 0.79614585D-01 0.50938321D-02 0.16992981D+05 0.16992981D+05 0.16992981D+05 0.12416931D+01  1  2  3  1  5  1       -4 -.162954166736D-02 0.100000000000D+01
0.240059293897D-04 0.000000000000D+00 0.000000000000D+00 0.150956498970D-02 0.000000000000D+00  5 -4 4 25 23 21 2 0.79614585D-01 0.50938321D-02 0.16992981D+05 0.16992981D+05 0.16992981D+05 0.12416931D+01  1  2 15  1  5  1       -4 0.202934000914D-02 0.100000000000D+01
0.664359209294D-03 0.000000000000D+00 0.000000000000D+00 0.150956498970D-02 0.000000000000D+00  5 -4 4 25 23 21 2 0.84792151D-01 0.50938321D-02 0.18467052D+05 0.18467052D+05 0.18467052D+05 0.12376571D+01  1  2 12  1  5  1       -4 0.489084286755D-01 0.100000000000D+01
-.548265645618D-03 0.000000000000D+00 0.000000000000D+00 0.150956498970D-02 0.000000000000D+00  5 -4 4 25 23 21 2 0.79614585D-01 0.50938321D-02 0.16992981D+05 0.16992981D+05 0.16992981D+05 0.12416931D+01  1  2  4  1  5  1       -4 -.463476082192D-01 0.100000000000D+01
-.280300830515D-02 0.000000000000D+00 -.506897834804D-03 0.150956498970D-02 0.000000000000D+00  5 -4 4 25 23 21 2 0.85984494D-01 0.50938321D-02 0.16992981D+05 0.16992981D+05 0.16992981D+05 0.12416931D+01  1  2  5  1  5  1       -4 -.199699277591D+00 0.100000000000D+01
0.283511964630D-02 0.000000000000D+00 0.505400016842D-03 0.150956498970D-02 0.000000000000D+00  5 -4 4 25 23 21 2 0.79614585D-01 0.50938321D-02 0.16992981D+05 0.16992981D+05 0.16992981D+05 0.12416931D+01  1  2  6  1  5  1       -4 0.239666693821D+00 0.100000000000D+01
0.761231141427D-05 0.000000000000D+00 0.000000000000D+00 0.150956498970D-02 0.000000000000D+00  5 21 4 25 23 4 2 0.84792151D-01 0.50938321D-02 0.18467052D+05 0.18467052D+05 0.18467052D+05 0.12376571D+01  1  2 12  3  5  1       -4 0.134453918691D-01 0.100000000000D+01
-.351532574179D-04 0.000000000000D+00 -.654174217639D-05 0.150956498970D-02 0.000000000000D+00  5 21 4 25 23 4 2 0.85984494D-01 0.50938321D-02 0.16992981D+05 0.16992981D+05 0.16992981D+05 0.12416931D+01  1  2  5  3  5  1       -4 -.603807143139D-01 0.100000000000D+01
  </mgrwgt>
  </event>
  <event>
  4     66 0.46888340E-03 0.28314785E+03 0.75467711E-02 0.10751841E+00
       -2 -1    0    0    0  501 0.00000000E+00 0.00000000E+00 0.25408582E+02 0.25410597E+02 0.32000000E+00 0.0000E+00 0.9000E+01
        2 -1    0    0  501    0 0.00000000E+00 0.00000000E+00 -.38454278E+04 0.38454279E+04 0.32000000E+00 0.0000E+00 0.9000E+01
       25  1    1    2    0    0 -.19515056E+03 -.17366775E+03 -.27655211E+04 0.27806431E+04 0.12500000E+03 0.0000E+00 0.9000E+01
       23  1    1    2    0    0 0.19515056E+03 0.17366775E+03 -.10544981E+04 0.10901953E+04 0.91188000E+02 0.0000E+00 0.9000E+01
#aMCatNLO 1  0  0  2  2 0.71404455D+02 0.00000000D+00  -5  5  0 0.00000000D+00 0.00000000D+00 0.00000000D+00 0.00000000D+00 0.00000000D+00
  <mgrwgt>
 0.9038077371D-01    3    2    0
 0.312587258369597D+03 0.000000000000000D+00 0.000000000000000D+00 0.312587258369597D+03
 0.312587258369597D+03 0.000000000000000D+00 0.000000000000000D+00 -.312587258369597D+03
 0.318433424888129D+03 -.195150563356684D+03 -.173667752663591D+03 -.132403230294166D+03
 0.306741091851065D+03 0.195150563356684D+03 0.173667752663591D+03 0.132403230294166D+03
 0.000000000000000D+00 -.000000000000000D+00 0.000000000000000D+00 0.000000000000000D+00
 0.637509547208665D+03 0.000000000000000D+00 0.000000000000000D+00 0.637509547208665D+03
 0.318567147255188D+03 0.000000000000000D+00 0.000000000000000D+00 -.318567147255188D+03
 0.299005576759977D+03 -.160031115225409D+03 -.175039314729431D+03 -.132403230294166D+03
 0.330233465754105D+03 0.231381178651547D+03 0.172252794849484D+03 0.132403230294166D+03
 0.326837651949771D+03 -.713500634261387D+02 0.278651987994678D+01 0.318942399953477D+03
0.536367990463D-02 0.000000000000D+00 0.000000000000D+00 0.828787829264D-03 0.000000000000D+00  5 -2 2 25 23 21 0 0.39091686D-02 0.59160444D+00 0.80172702D+05 0.80172702D+05 0.80172702D+05 0.11724923D+01  1  2  2  2  5  2        2 0.887107112376D-01 0.100000000000D+01
-.294437418482D-03 0.000000000000D+00 -.205979431231D-04 0.828787829264D-03 0.000000000000D+00  5 -2 2 25 23 21 2 0.39091686D-02 0.59160444D+00 0.80172702D+05 0.80172702D+05 0.80172702D+05 0.11724923D+01  1  2  3  2  5  2        2 -.669462465657D-02 0.100000000000D+01
0.367888718466D-03 0.000000000000D+00 0.000000000000D+00 0.828787829264D-03 0.000000000000D+00  5 -2 2 25 23 21 2 0.39091686D-02 0.59160444D+00 0.80172702D+05 0.80172702D+05 0.80172702D+05 0.11724923D+01  1  2 15  2  5  2        2 0.836468713186D-02 0.100000000000D+01
  </mgrwgt>
  </event>
  <event>
  4     66 0.46888340E-03 0.11656668E+03 0.75467711E-02 0.12211100E+00
       -2 -1    0    0    0  501 0.00000000E+00 0.00000000E+00 0.15912030E+02 0.15915248E+02 0.32000000E+00 0.0000E+00 0.9000E+01
        2 -1    0    0  501    0 0.00000000E+00 0.00000000E+00 -.98079833E+03 0.98079839E+03 0.32000000E+00 0.0000E+00 0.9000E+01
       25  1    1    2    0    0 -.42382538E+02 0.81950578E+01 -.71680992E+03 0.72890665E+03 0.12500000E+03 0.0000E+00 0.9000E+01
       23  1    1    2    0    0 0.42382538E+02 -.81950578E+01 -.24807638E+03 0.26780698E+03 0.91188000E+02 0.0000E+00 0.9000E+01
#aMCatNLO 1  0  0  2  2 0.33274867D+02 0.00000000D+00  -5  5  0 0.00000000D+00 0.00000000D+00 0.00000000D+00 0.00000000D+00 0.00000000D+00
  <mgrwgt>
 0.1463673062D+00    4    2    0
 0.124932470324675D+03 0.000000000000000D+00 0.000000000000000D+00 0.124932470324675D+03
 0.124932470324675D+03 0.000000000000000D+00 0.000000000000000D+00 -.124932470324675D+03
 0.139559869905031D+03 -.423825383424527D+02 0.819505778150963D+01 -.445928106258998D+02
 0.110305070744319D+03 0.423825383424527D+02 -.819505778150963D+01 0.445928106258998D+02
 0.000000000000000D+00 -.000000000000000D+00 -.000000000000000D+00 0.000000000000000D+00
 0.168444973678482D+03 0.000000000000000D+00 0.000000000000000D+00 0.168444973678482D+03
 0.132562346541227D+03 0.000000000000000D+00 0.000000000000000D+00 -.132562346541227D+03
 0.141552706650626D+03 -.412971043895590D+02 0.267992382287019D+02 -.445928106258998D+02
 0.110518127292079D+03 0.432351825025685D+02 0.641913939718486D+01 0.445928106258998D+02
 0.489364862770038D+02 -.193807811300950D+01 -.332183776258868D+02 0.358826271372546D+02
0.127815823042D-03 0.000000000000D+00 0.000000000000D+00 0.144128670232D-02 0.000000000000D+00  5 -2 2 25 23 21 0 0.24482562D-02 0.15089230D+00 0.13587790D+05 0.13587790D+05 0.13587790D+05 0.12527479D+01  1  2  2  2  5  2        2 0.187423237307D+00 0.100000000000D+01
-.705940425656D-05 0.000000000000D+00 -.490846415161D-06 0.144128670232D-02 0.000000000000D+00  5 -2 2 25 23 21 2 0.24482562D-02 0.15089230D+00 0.13587790D+05 0.13587790D+05 0.13587790D+05 0.12527479D+01  1  2  3  2  5  2        2 -.162455439844D-01 0.100000000000D+01
0.881457913911D-05 0.000000000000D+00 0.000000000000D+00 0.144128670232D-02 0.000000000000D+00  5 -2 2 25 23 21 2 0.24482562D-02 0.15089230D+00 0.13587790D+05 0.13587790D+05 0.13587790D+05 0.12527479D+01  1  2 15  2  5  2        2 0.202846625443D-01 0.100000000000D+01
-.195957848979D-04 0.000000000000D+00 0.000000000000D+00 0.144128670232D-02 0.000000000000D+00  5 -2 2 25 23 21 2 0.24482562D-02 0.15089230D+00 0.13587790D+05 0.13587790D+05 0.13587790D+05 0.12527479D+01  1  2  4  2  5  2        2 -.450950496526D-01 0.100000000000D+01
  </mgrwgt>
  </event>
  <event>
  4     66 0.46888340E-03 0.39146550E+02 0.75467711E-02 0.12177551E+00
       -2 -1    0    0    0  501 0.00000000E+00 0.00000000E+00 0.49349524E+02 0.49350561E+02 0.32000000E+00 0.0000E+00 0.9000E+01
        2 -1    0    0  501    0 0.00000000E+00 0.00000000E+00 -.31544026E+03 0.31544043E+03 0.32000000E+00 0.0000E+00 0.9000E+01
       25  1    1    2    0    0 0.42391502E+02 -.31871949E+02 -.10246785E+03 0.17011032E+03 0.12500000E+03 0.0000E+00 0.9000E+01
       23  1    1    2    0    0 -.42391502E+02 0.31871949E+02 -.16362289E+03 0.19468067E+03 0.91188000E+02 0.0000E+00 0.9000E+01
#aMCatNLO 1  0  0  1  2 0.30464569D+02 0.00000000D+00  -5  5  0 0.00000000D+00 0.00000000D+00 0.00000000D+00 0.00000000D+00 0.00000000D+00
  <mgrwgt>
 0.1739004642D+00    9    2    0
 0.124767967193721D+03 0.000000000000000D+00 0.000000000000000D+00 0.124767967193721D+03
 0.124767967193721D+03 0.000000000000000D+00 0.000000000000000D+00 -.124767967193721D+03
 0.139414652597857D+03 0.423915024741951D+02 -.318719486076571D+02 0.316003919107394D+02
 0.110121281789585D+03 -.423915024741951D+02 0.318719486076571D+02 -.316003919107394D+02
 0.000000000000000D+00 -.000000000000000D+00 0.000000000000000D+00 0.000000000000000D+00
 0.141386044416746D+03 0.000000000000000D+00 0.000000000000000D+00 0.141386044416746D+03
 0.140480663405854D+03 0.000000000000000D+00 0.000000000000000D+00 -.140480663405854D+03
 0.146878297911367D+03 0.574591952874300D+02 -.405966809646915D+02 0.316003919107394D+02
 0.104510390219518D+03 -.310953664845667D+02 0.253310823715467D+02 -.316003919107394D+02
 0.304780196917154D+02 -.263638288028633D+02 0.152655985931449D+02 0.905381010891621D+00
0.122795440351D-03 0.000000000000D+00 0.000000000000D+00 0.152050881204D-02 0.000000000000D+00  5 -2 2 25 23 21 0 0.75923267D-02 0.48529364D-01 0.14553521D+05 0.14553521D+05 0.14553521D+05 0.12493214D+01  1  2  2  1  5  1       -2 0.122407690240D+00 0.100000000000D+01
-.681257034436D-05 0.000000000000D+00 -.471566823732D-06 0.152050881204D-02 0.000000000000D+00  5 -2 2 25 23 21 2 0.75923267D-02 0.48529364D-01 0.14553521D+05 0.14553521D+05 0.14553521D+05 0.12493214D+01  1  2  3  1  5  1       -2 -.105995102568D-01 0.100000000000D+01
0.847054271055D-05 0.000000000000D+00 0.000000000000D+00 0.152050881204D-02 0.000000000000D+00  5 -2 2 25 23 21 2 0.75923267D-02 0.48529364D-01 0.14553521D+05 0.14553521D+05 0.14553521D+05 0.12493214D+01  1  2 15  1  5  1       -2 0.131791085894D-01 0.100000000000D+01
0.814801887552D-04 0.000000000000D+00 0.000000000000D+00 0.152050881204D-02 0.000000000000D+00  5 -2 2 25 23 21 2 0.90226955D-02 0.48529364D-01 0.18703528D+05 0.18703528D+05 0.18703528D+05 0.12370433D+01  1  2 12  1  5  1       -2 0.960534184586D-01 0.100000000000D+01
-.691145892326D-04 0.000000000000D+00 0.000000000000D+00 0.152050881204D-02 0.000000000000D+00  5 -2 2 25 23 21 2 0.75923267D-02 0.48529364D-01 0.14553521D+05 0.14553521D+05 0.14553521D+05 0.12493214D+01  1  2  4  1  5  1       -2 -.107533685589D+00 0.100000000000D+01
-.209901966421D-03 0.000000000000D+00 -.683841369895D-04 0.152050881204D-02 0.000000000000D+00  5 -2 2 25 23 21 2 0.96727237D-02 0.48529364D-01 0.14553521D+05 0.14553521D+05 0.14553521D+05 0.12493214D+01  1  2  5  1  5  1       -2 -.224497415196D+00 0.100000000000D+01
0.221881852515D-03 0.000000000000D+00 0.664267278306D-04 0.152050881204D-02 0.000000000000D+00  5 -2 2 25 23 21 2 0.75923267D-02 0.48529364D-01 0.14553521D+05 0.14553521D+05 0.14553521D+05 0.12493214D+01  1  2  6  1  5  1       -2 0.345220504545D+00 0.100000000000D+01
0.207928202439D-05 0.000000000000D+00 0.000000000000D+00 0.152050881204D-02 0.000000000000D+00  5 21 2 25 23 2 2 0.90226955D-02 0.48529364D-01 0.18703528D+05 0.18703528D+05 0.18703528D+05 0.12370433D+01  1  2 12  3  5  1       -2 0.393944499036D-01 0.100000000000D+01
-.585097997470D-05 0.000000000000D+00 -.226052718810D-05 0.152050881204D-02 0.000000000000D+00  5 21 2 25 23 2 2 0.96727237D-02 0.48529364D-01 0.14553521D+05 0.14553521D+05 0.14553521D+05 0.12493214D+01  1  2  5  3  5  1       -2 -.997240965320D-01 0.100000000000D+01
  </mgrwgt>
  </event>
  <event>
  5     66 -.46888340E-03 0.12678459E+03 0.75467711E-02 0.12248330E+00
       -2 -1    0    0    0  502 0.00000000E+00 0.00000000E+00 0.87382136E+01 0.87440709E+01 0.32000000E+00 0.0000E+00 0.9000E+01
        2 -1    0    0  501    0 0.00000000E+00 0.00000000E+00 -.20387550E+04 0.20387550E+04 0.32000000E+00 0.0000E+00 0.9000E+01
       25  1    1    2    0    0 -.21721638E+02 0.60845269E+02 -.12258763E+04 0.12339253E+04 0.12500000E+03 0.0000E+00 0.9000E+01
       23  1    1    2    0    0 0.13107226E+02 -.65528398E+02 -.71344274E+03 0.72234449E+03 0.91188000E+02 0.0000E+00 0.9000E+01
       21  1    1    2  501  502 0.86144121E+01 0.46831295E+01 -.90697731E+02 0.91229276E+02 0.75000000E+00 0.0000E+00 0.9000E+01
#aMCatNLO 2  0  0  1  2 0.98050904D+01 0.00000000D+00  -5  5  0 0.00000000D+00 0.00000000D+00 0.00000000D+00 0.00000000D+00 0.00000000D+00
  <mgrwgt>
 -.1315911295D+00    3    2    0
 0.128391075312771D+03 0.000000000000000D+00 0.000000000000000D+00 0.128391075312771D+03
 0.128391075312771D+03 0.000000000000000D+00 0.000000000000000D+00 -.128391075312771D+03
 0.142624441296724D+03 -.169468048888592D+02 0.634410537615930D+02 -.201188905479487D+02
 0.114157709328817D+03 0.169468048888592D+02 -.634410537615930D+02 0.201188905479487D+02
 0.000000000000000D+00 0.000000000000000D+00 0.000000000000000D+00 -.000000000000000D+00
 0.132499723728791D+03 0.000000000000000D+00 0.000000000000000D+00 0.132499723728791D+03
 0.134470808362413D+03 0.000000000000000D+00 0.000000000000000D+00 -.134470808362413D+03
 0.142139881984995D+03 -.217216377697099D+02 0.608452688910944D+02 -.201188905479487D+02
 0.114829401545205D+03 0.131072256406870D+02 -.655283983808062D+02 0.201188905479487D+02
 0.100012485610031D+02 0.861441212902289D+01 0.468312948971179D+01 -.197108463362211D+01
-.197741476782D-03 0.000000000000D+00 0.000000000000D+00 0.152042793557D-02 0.000000000000D+00  5 -2 2 25 23 21 2 0.13743200D-02 0.29944246D+00 0.17366905D+05 0.17366905D+05 0.17366905D+05 0.12406331D+01  1  2 13  1  5  1       -2 -.317225956499D+00 0.100000000000D+01
-.144129526100D-04 0.000000000000D+00 0.000000000000D+00 0.152042793557D-02 0.000000000000D+00  5 -2 2 25 23 21 2 0.13029555D-02 0.29944246D+00 0.16074332D+05 0.16074332D+05 0.16074332D+05 0.12444122D+01  1  2  8  1  5  1       -2 -.250811566390D-01 0.100000000000D+01
0.141876950934D-03 0.000000000000D+00 0.000000000000D+00 0.152042793557D-02 0.130024748236D-03  5 -2 2 25 23 21 2 0.13446514D-02 0.31362203D+00 0.17366905D+05 0.17366905D+05 0.17366905D+05 0.12406331D+01  1  2  1  1  5  1       -2 0.210715983669D+00 0.100000000000D+01
  </mgrwgt>
  </event>
  <event>
  4     66 0.46888340E-03 0.10881582E+03 0.75467711E-02 0.10639808E+00
       -2 -1    0    0    0  501 0.00000000E+00 0.00000000E+00 0.36333636E+02 0.36335046E+02 0.32000000E+00 0.0000E+00 0.9000E+01
        2 -1    0    0  501    0 0.00000000E+00 0.00000000E+00 -.32678885E+03 0.32678900E+03 0.32000000E+00 0.0000E+00 0.9000E+01
       25  1    1    2    0    0 -.56446305E+01 0.10996774E+02 -.15814631E+03 0.20196051E+03 0.12500000E+03 0.0000E+00 0.9000E+01
       23  1    1    2    0    0 0.56446305E+01 -.10996774E+02 -.13230890E+03 0.16116354E+03 0.91188000E+02 0.0000E+00 0.9000E+01
#aMCatNLO 1  0  0  1  2 0.31253748D+03 0.00000000D+00  -5  5  0 0.00000000D+00 0.00000000D+00 0.00000000D+00 0.00000000D+00 0.00000000D+00
  <mgrwgt>
 0.1184682089D+00    5    2    0
 0.108966560931043D+03 0.000000000000000D+00 0.000000000000000D+00 0.108966560931043D+03
 0.108966560931043D+03 0.000000000000000D+00 0.000000000000000D+00 -.108966560931043D+03
 0.125737184399251D+03 -.564463052877181D+01 0.109967735354988D+02 0.566115347378848D+01
 0.921959374628361D+02 0.564463052877181D+01 -.109967735354988D+02 -.566115347378848D+01
 0.000000000000000D+00 0.000000000000000D+00 0.000000000000000D+00 0.000000000000000D+00
 0.554914050452489D+03 0.000000000000000D+00 0.000000000000000D+00 0.554914050452489D+03
 0.257521968391692D+03 0.000000000000000D+00 0.000000000000000D+00 -.257521968391692D+03
 0.212276247109283D+03 -.113283207751564D+03 -.128728673067283D+03 0.566115347378848D+01
 0.168741497973128D+03 -.774495062016567D+02 -.118861125371926D+03 -.566115347378848D+01
 0.431418273761770D+03 0.190732713953221D+03 0.247589798439210D+03 0.297392082060797D+03
0.682191088256D-04 0.000000000000D+00 0.000000000000D+00 0.189836022225D-02 0.000000000000D+00  5 -2 2 25 23 21 0 0.55899107D-02 0.50275327D-01 0.11840883D+05 0.11840883D+05 0.11840883D+05 0.12597041D+01  1  2  2  1  5  1       -2 0.103368812582D+00 0.100000000000D+01
-.378994165983D-05 0.000000000000D+00 -.261979340394D-06 0.189836022225D-02 0.000000000000D+00  5 -2 2 25 23 21 2 0.55899107D-02 0.50275327D-01 0.11840883D+05 0.11840883D+05 0.11840883D+05 0.12597041D+01  1  2  3  1  5  1       -2 -.911282630066D-02 0.100000000000D+01
0.471948831039D-05 0.000000000000D+00 0.000000000000D+00 0.189836022225D-02 0.000000000000D+00  5 -2 2 25 23 21 2 0.55899107D-02 0.50275327D-01 0.11840883D+05 0.11840883D+05 0.11840883D+05 0.12597041D+01  1  2 15  1  5  1       -2 0.113478995354D-01 0.100000000000D+01
0.101411110161D-03 0.000000000000D+00 -.502885867634D-04 0.189836022225D-02 0.000000000000D+00  5 -2 2 25 23 21 2 0.64031860D-01 0.50275327D-01 0.11840883D+05 0.11840883D+05 0.11840883D+05 0.12597041D+01  1  2  5  1  5  1       -2 0.376351128571D-02 0.100000000000D+01
0.198080664986D-04 0.000000000000D+00 -.143596663526D-04 0.189836022225D-02 0.000000000000D+00  5 21 2 25 23 2 2 0.64031860D-01 0.50275327D-01 0.11840883D+05 0.11840883D+05 0.11840883D+05 0.12597041D+01  1  2  5  3  5  1       -2 0.910081179404D-02 0.100000000000D+01
  </mgrwgt>
  </event>
  <event>
  4     66 0.46888340E-03 0.19511251E+03 0.75467711E-02 0.99112781E-01
       -2 -1    0    0    0  501 0.00000000E+00 0.00000000E+00 0.17441855E+02 0.17444791E+02 0.32000000E+00 0.0000E+00 0.9000E+01
        2 -1    0    0  501    0 0.00000000E+00 0.00000000E+00 -.21825161E+04 0.21825161E+04 0.32000000E+00 0.0000E+00 0.9000E+01
       25  1    1    2    0    0 -.16127648E+03 -.13281140E+02 -.11413784E+04 0.11595500E+04 0.12500000E+03 0.0000E+00 0.9000E+01
       23  1    1    2    0    0 0.16127648E+03 0.13281140E+02 -.10236958E+04 0.10404109E+04 0.91188000E+02 0.0000E+00 0.9000E+01
#aMCatNLO 1  0  0  2  1 0.53342999D+03 0.00000000D+00  -5  5  0 0.00000000D+00 0.00000000D+00 0.00000000D+00 0.00000000D+00 0.00000000D+00
  <mgrwgt>
 0.2424665979D+00    3    2    0
 0.195116335642307D+03 0.000000000000000D+00 0.000000000000000D+00 0.195116335642307D+03
 0.195116335642307D+03 0.000000000000000D+00 0.000000000000000D+00 -.195116335642307D+03
 0.204482220656415D+03 -.161276475200677D+03 -.132811403114716D+02 -.122000961113237D+01
 0.185750450628199D+03 0.161276475200677D+03 0.132811403114716D+02 0.122000961113237D+01
 0.000000000000000D+00 -.000000000000000D+00 -.000000000000000D+00 0.000000000000000D+00
 0.762121031941638D+03 0.000000000000000D+00 0.000000000000000D+00 0.762121031941638D+03
 0.495265274133414D+03 0.000000000000000D+00 0.000000000000000D+00 -.495265274133414D+03
 0.284695696805267D+03 -.111911090577002D+03 0.230002302514239D+03 -.122000961113237D+01
 0.376234781337057D+03 0.217989209235659D+03 0.292773932543702D+03 0.122000961113237D+01
 0.596455827932729D+03 -.106078118658657D+03 -.522776235057941D+03 0.266855757808224D+03
0.797863725752D-03 0.000000000000D+00 0.000000000000D+00 0.115008414714D-02 0.000000000000D+00  5 -2 2 25 23 21 0 0.26835900D-02 0.33577193D+00 0.38068893D+05 0.38068893D+05 0.38068893D+05 0.12041887D+01  1  2  2  2  5  2        2 0.237979044731D+00 0.100000000000D+01
-.443257625211D-04 0.000000000000D+00 -.306400678923D-05 0.115008414714D-02 0.000000000000D+00  5 -2 2 25 23 21 2 0.26835900D-02 0.33577193D+00 0.38068893D+05 0.38068893D+05 0.38068893D+05 0.12041887D+01  1  2  3  2  5  2        2 -.191714643341D-01 0.100000000000D+01
0.547012983806D-04 0.000000000000D+00 0.000000000000D+00 0.115008414714D-02 0.000000000000D+00  5 -2 2 25 23 21 2 0.26835900D-02 0.33577193D+00 0.38068893D+05 0.38068893D+05 0.38068893D+05 0.12041887D+01  1  2 15  2  5  2        2 0.236590174943D-01 0.100000000000D+01
  </mgrwgt>
  </event>
  <event>
  4     66 0.46888340E-03 0.78709925E+02 0.75467711E-02 0.11950465E+00
       -2 -1    0    0    0  501 0.00000000E+00 0.00000000E+00 0.18704519E+02 0.18707256E+02 0.32000000E+00 0.0000E+00 0.9000E+01
        2 -1    0    0  501    0 0.00000000E+00 0.00000000E+00 -.95630244E+03 0.95630249E+03 0.32000000E+00 0.0000E+00 0.9000E+01
       25  1    1    2    0    0 0.69549773E+02 0.67960640E+01 -.38928662E+03 0.41479203E+03 0.12500000E+03 0.0000E+00 0.9000E+01
       23  1    1    2    0    0 -.69549773E+02 -.67960640E+01 -.54831130E+03 0.56021772E+03 0.91188000E+02 0.0000E+00 0.9000E+01
#aMCatNLO 1  0  0  1  2 0.46630597D+02 0.00000000D+00  -5  5  0 0.00000000D+00 0.00000000D+00 0.00000000D+00 0.00000000D+00 0.00000000D+00
  <mgrwgt>
 0.1959836759D+00    9    2    0
 0.133748038856067D+03 0.000000000000000D+00 0.000000000000000D+00 0.133748038856067D+03
 0.133748038856067D+03 0.000000000000000D+00 0.000000000000000D+00 -.133748038856067D+03
 0.147411320797469D+03 0.695497731802237D+02 0.679606403567154D+01 0.349533984536095D+02
 0.120084756914666D+03 -.695497731802237D+02 -.679606403567154D+01 -.349533984536095D+02
 0.000000000000000D+00 0.000000000000000D+00 -.000000000000000D+00 0.000000000000000D+00
 0.163825582429413D+03 0.000000000000000D+00 0.000000000000000D+00 0.163825582429413D+03
 0.155137518812252D+03 0.000000000000000D+00 0.000000000000000D+00 -.155137518812252D+03
 0.137512381033487D+03 0.449013547160256D+02 0.683982592671048D+01 0.349533984536095D+02
 0.134017661816865D+03 -.915318782469886D+02 -.675703603522860D+01 -.349533984536095D+02
 0.474330583913126D+02 0.466305235309631D+02 -.827898914818777D-01 0.868806361716124D+01
0.122668550276D-03 0.000000000000D+00 0.000000000000D+00 0.140723951575D-02 0.000000000000D+00  5 -2 2 25 23 21 0 0.28778330D-02 0.14712367D+00 0.16652946D+05 0.16652946D+05 0.16652946D+05 0.12426799D+01  1  2  2  1  5  1       -2 0.147975300933D+00 0.100000000000D+01
-.680430786345D-05 0.000000000000D+00 -.471079532431D-06 0.140723951575D-02 0.000000000000D+00  5 -2 2 25 23 21 2 0.28778330D-02 0.14712367D+00 0.16652946D+05 0.16652946D+05 0.16652946D+05 0.12426799D+01  1  2  3  1  5  1       -2 -.126753071951D-01 0.100000000000D+01
0.847122888116D-05 0.000000000000D+00 0.000000000000D+00 0.140723951575D-02 0.000000000000D+00  5 -2 2 25 23 21 2 0.28778330D-02 0.14712367D+00 0.16652946D+05 0.16652946D+05 0.16652946D+05 0.12426799D+01  1  2 15  1  5  1       -2 0.157805070763D-01 0.100000000000D+01
0.580884736886D-04 0.000000000000D+00 0.000000000000D+00 0.140723951575D-02 0.000000000000D+00  5 -2 2 25 23 21 2 0.37114946D-02 0.14712367D+00 0.23871143D+05 0.23871143D+05 0.23871143D+05 0.12254549D+01  1  2 12  1  5  1       -2 0.730174182557D-01 0.100000000000D+01
-.603877032157D-04 0.000000000000D+00 0.000000000000D+00 0.140723951575D-02 0.000000000000D+00  5 -2 2 25 23 21 2 0.28778330D-02 0.14712367D+00 0.16652946D+05 0.16652946D+05 0.16652946D+05 0.12426799D+01  1  2  4  1  5  1       -2 -.112492365782D+00 0.100000000000D+01
-.122635756970D-03 0.000000000000D+00 -.508602621808D-04 0.140723951575D-02 0.000000000000D+00  5 -2 2 25 23 21 2 0.41117033D-02 0.14712367D+00 0.16652946D+05 0.16652946D+05 0.16652946D+05 0.12426799D+01  1  2  5  1  5  1       -2 -.134951460149D+00 0.100000000000D+01
0.135161711163D-03 0.000000000000D+00 0.477861234744D-04 0.140723951575D-02 0.000000000000D+00  5 -2 2 25 23 21 2 0.28778330D-02 0.14712367D+00 0.16652946D+05 0.16652946D+05 0.16652946D+05 0.12426799D+01  1  2  6  1  5  1       -2 0.251784052749D+00 0.100000000000D+01
0.199131781237D-05 0.000000000000D+00 0.000000000000D+00 0.140723951575D-02 0.000000000000D+00  5 21 2 25 23 2 2 0.37114946D-02 0.14712367D+00 0.23871143D+05 0.23871143D+05 0.23871143D+05 0.12254549D+01  1  2 12  3  5  1       -2 0.470543381903D-01 0.100000000000D+01
-.389275168767D-05 0.000000000000D+00 -.222783306564D-05 0.140723951575D-02 0.000000000000D+00  5 21 2 25 23 2 2 0.41117033D-02 0.14712367D+00 0.16652946D+05 0.16652946D+05 0.16652946D+05 0.12426799D+01  1  2  5  3  5  1       -2 -.795088081798D-01 0.100000000000D+01
  </mgrwgt>
  </event>
  <event>
  4     66 0.46888340E-03 0.10973954E+03 0.75467711E-02 0.11216451E+00
       -2 -1    0    0    0  501 0.00000000E+00 0.00000000E+00 0.14846900E+02 0.14850349E+02 0.32000000E+00 0.0000E+00 0.9000E+01
        2 -1    0    0  501    0 0.00000000E+00 0.00000000E+00 -.81521630E+03 0.81521636E+03 0.32000000E+00 0.0000E+00 0.9000E+01
       25  1    1    2    0    0 -.18440619E+02 -.31449415E+01 -.48998963E+03 0.50602844E+03 0.12500000E+03 0.0000E+00 0.9000E+01
       23  1    1    2    0    0 0.18440619E+02 0.31449415E+01 -.31037977E+03 0.32403827E+03 0.91188000E+02 0.0000E+00 0.9000E+01
#aMCatNLO 1  0  0  1  2 0.18647338D+03 0.00000000D+00  -5  5  0 0.00000000D+00 0.00000000D+00 0.00000000D+00 0.00000000D+00 0.00000000D+00
  <mgrwgt>
 0.1689199266D+00    3    2    0
 0.110022236140725D+03 0.000000000000000D+00 0.000000000000000D+00 0.110022236140725D+03
 0.110022236140725D+03 0.000000000000000D+00 0.000000000000000D+00 -.110022236140725D+03
 0.126631943669871D+03 -.184406192799473D+02 -.314494152016147D+01 -.779115273987490D+01
 0.934125286115800D+02 0.184406192799473D+02 0.314494152016147D+01 0.779115273987490D+01
 0.000000000000000D+00 -.000000000000000D+00 0.000000000000000D+00 -.000000000000000D+00
 0.214487831350851D+03 0.000000000000000D+00 0.000000000000000D+00 0.214487831350851D+03
 0.267919783057471D+03 0.000000000000000D+00 0.000000000000000D+00 -.267919783057471D+03
 0.153810915984635D+03 0.704993872968655D+02 -.547898914562074D+02 -.779115273987490D+01
 0.134619132014179D+03 0.907588712788112D+02 -.388482249714338D+02 0.779115273987490D+01
 0.193977566409507D+03 -.161258258575677D+03 0.936381164276412D+02 -.534319517066195D+02
0.806538605238D-04 0.000000000000D+00 0.000000000000D+00 0.186880203091D-02 0.000000000000D+00  5 -2 2 25 23 21 0 0.22844086D-02 0.12541816D+00 0.12042767D+05 0.12042767D+05 0.12042767D+05 0.12588431D+01  1  2  2  1  5  1       -2 0.165358065206D+00 0.100000000000D+01
-.448073396937D-05 0.000000000000D+00 -.309732061061D-06 0.186880203091D-02 0.000000000000D+00  5 -2 2 25 23 21 2 0.22844086D-02 0.12541816D+00 0.12042767D+05 0.12042767D+05 0.12042767D+05 0.12588431D+01  1  2  3  1  5  1       -2 -.145576933986D-01 0.100000000000D+01
0.557704454521D-05 0.000000000000D+00 0.000000000000D+00 0.186880203091D-02 0.000000000000D+00  5 -2 2 25 23 21 2 0.22844086D-02 0.12541816D+00 0.12042767D+05 0.12042767D+05 0.12042767D+05 0.12588431D+01  1  2 15  1  5  1       -2 0.181195547681D-01 0.100000000000D+01
  </mgrwgt>
  </event>
  <event>
  4     66 0.46888340E-03 0.34492464E+02 0.75467711E-02 0.12418279E+00
       -2 -1    0    0    0  501 0.00000000E+00 0.00000000E+00 0.71891994E+01 0.71963177E+01 0.32000000E+00 0.0000E+00 0.9000E+01
        2 -1    0    0  501    0 0.00000000E+00 0.00000000E+00 -.17070434E+04 0.17070434E+04 0.32000000E+00 0.0000E+00 0.9000E+01
       25  1    1    2    0    0 -.17217633E+02 0.12463583E+02 -.88874971E+03 0.89774876E+03 0.12500000E+03 0.0000E+00 0.9000E+01
       23  1    1    2    0    0 0.17217633E+02 -.12463583E+02 -.81110446E+03 0.81649096E+03 0.91188000E+02 0.0000E+00 0.9000E+01
#aMCatNLO 1  0  0  1  2 0.20190168D+02 0.00000000D+00  -5  5  0 0.00000000D+00 0.00000000D+00 0.00000000D+00 0.00000000D+00 0.00000000D+00
  <mgrwgt>
 0.2199667574D+00    6    2    0
 0.110807951393081D+03 0.000000000000000D+00 0.000000000000000D+00 0.110807951393081D+03
 0.110807951393081D+03 0.000000000000000D+00 0.000000000000000D+00 -.110807951393081D+03
 0.127299883073302D+03 -.172176329098073D+02 0.124635825047717D+02 0.113345691848548D+02
 0.943160197128589D+02 0.172176329098073D+02 -.124635825047717D+02 -.113345691848548D+02
 0.000000000000000D+00 -.000000000000000D+00 0.000000000000000D+00 -.000000000000000D+00
 0.120631737682419D+03 0.000000000000000D+00 0.000000000000000D+00 0.120631737682419D+03
 0.122149073311873D+03 0.000000000000000D+00 0.000000000000000D+00 -.122149073311873D+03
 0.126014459886097D+03 -.611057115083599D+01 0.942510275747971D+01 0.113345691848548D+02
 0.965192482039946D+02 0.255851776835435D+02 -.147526321095441D+02 -.113345691848548D+02
 0.202471029042006D+02 -.194746065327075D+02 0.532752935206438D+01 -.151733562945328D+01
0.753392731423D-04 0.000000000000D+00 0.000000000000D+00 0.184263157755D-02 0.000000000000D+00  5 -2 2 25 23 21 0 0.11065805D-02 0.26262261D+00 0.12146987D+05 0.12146987D+05 0.12146987D+05 0.12584049D+01  1  2  2  1  5  1       -2 0.140525997453D+00 0.100000000000D+01
-.418536786005D-05 0.000000000000D+00 -.289322646153D-06 0.184263157755D-02 0.000000000000D+00  5 -2 2 25 23 21 2 0.11065805D-02 0.26262261D+00 0.12146987D+05 0.12146987D+05 0.12146987D+05 0.12584049D+01  1  2  3  1  5  1       -2 -.123625964848D-01 0.100000000000D+01
0.520687361783D-05 0.000000000000D+00 0.000000000000D+00 0.184263157755D-02 0.000000000000D+00  5 -2 2 25 23 21 2 0.11065805D-02 0.26262261D+00 0.12146987D+05 0.12146987D+05 0.12146987D+05 0.12584049D+01  1  2 15  1  5  1       -2 0.153798852663D-01 0.100000000000D+01
0.583581074313D-04 0.000000000000D+00 0.000000000000D+00 0.184263157755D-02 0.000000000000D+00  5 -2 2 25 23 21 2 0.12562115D-02 0.26262261D+00 0.14586027D+05 0.14586027D+05 0.14586027D+05 0.12492105D+01  1  2 12  1  5  1       -2 0.142436984416D+00 0.100000000000D+01
-.440479400770D-04 0.000000000000D+00 0.000000000000D+00 0.184263157755D-02 0.000000000000D+00  5 -2 2 25 23 21 2 0.11065805D-02 0.26262261D+00 0.12146987D+05 0.12146987D+05 0.12146987D+05 0.12584049D+01  1  2  4  1  5  1       -2 -.130107299374D+00 0.100000000000D+01
0.115975695426D-05 0.000000000000D+00 0.000000000000D+00 0.184263157755D-02 0.000000000000D+00  5 21 2 25 23 2 2 0.12562115D-02 0.26262261D+00 0.14586027D+05 0.14586027D+05 0.14586027D+05 0.12492105D+01  1  2 12  3  5  1       -2 0.640937861697D-01 0.100000000000D+01
  </mgrwgt>
  </event>
  <event>
  5     66 0.46888340E-03 0.10900754E+03 0.75467711E-02 0.11606585E+00
       21 -1    0    0  502  501 0.00000000E+00 0.00000000E+00 0.40317346E+02 0.40324321E+02 0.75000000E+00 0.0000E+00 0.9000E+01
        2 -1    0    0  501    0 0.00000000E+00 0.00000000E+00 -.14215318E+04 0.14215318E+04 0.32000000E+00 0.0000E+00 0.9000E+01
       25  1    1    2    0    0 -.48969282E+02 -.30642395E+02 -.72014505E+03 0.73319223E+03 0.12500000E+03 0.0000E+00 0.9000E+01
       23  1    1    2    0    0 -.66239111E+02 -.14688446E+02 -.91843023E+02 0.14612927E+03 0.91188000E+02 0.0000E+00 0.9000E+01
        2  1    1    2  502    0 0.11520839E+03 0.45330840E+02 -.56922635E+03 0.58253463E+03 0.32000000E+00 0.0000E+00 0.9000E+01
#aMCatNLO 2  0  0  1  2 0.12380573D+03 0.00000000D+00  -5  5  0 0.00000000D+00 0.00000000D+00 0.00000000D+00 0.00000000D+00 0.00000000D+00
  <mgrwgt>
 0.5234450345D-01    1    2    0
 0.156966395409999D+03 0.000000000000000D+00 0.000000000000000D+00 0.156966395409999D+03
 0.156966395409999D+03 0.000000000000000D+00 0.000000000000000D+00 -.156966395409999D+03
 0.168608614492795D+03 0.122776460570710D+02 -.654367538683442D+01 -.112295612563043D+03
 0.145324176327203D+03 -.122776460570710D+02 0.654367538683442D+01 0.112295612563043D+03
 0.000000000000000D+00 0.000000000000000D+00 0.000000000000000D+00 -.000000000000000D+00
 0.202081040826724D+03 0.000000000000000D+00 0.000000000000000D+00 0.202081040826724D+03
 0.283635823325606D+03 0.000000000000000D+00 0.000000000000000D+00 -.283635823325606D+03
 0.177685822520509D+03 -.489692820018533D+02 -.306423945556432D+02 -.112295612563043D+03
 0.159777740019863D+03 -.662391109951600D+02 -.146884456467208D+02 0.112295612563043D+03
 0.148253301611959D+03 0.115208392997013D+03 0.453308402023640D+02 -.815547824988811D+02
0.996403807194D-05 0.000000000000D+00 0.000000000000D+00 0.744399840890D-03 0.341077445239D-07  5 21 2 25 23 2 2 0.62032030D-02 0.21869756D+00 0.35187800D+05 0.35187800D+05 0.35187800D+05 0.12076947D+01  1  2  1  3  5  1       -2 0.523445034507D-01 0.100000000000D+01
  </mgrwgt>
  </event>
  <event>
  4     66 0.46888340E-03 0.87628740E+02 0.75467711E-02 0.11410539E+00
       -2 -1    0    0    0  501 0.00000000E+00 0.00000000E+00 0.22620965E+03 0.22620987E+03 0.32000000E+00 0.0000E+00 0.9000E+01
        2 -1    0    0  501    0 0.00000000E+00 0.00000000E+00 -.10863607E+03 0.10863654E+03 0.32000000E+00 0.0000E+00 0.9000E+01
       25  1    1    2    0    0 -.58478270E+02 -.79738240E+02 0.12128862E+03 0.20028436E+03 0.12500000E+03 0.0000E+00 0.9000E+01
       23  1    1    2    0    0 0.58478270E+02 0.79738240E+02 -.37150455E+01 0.13456206E+03 0.91188000E+02 0.0000E+00 0.9000E+01
#aMCatNLO 1  0  0  2  1 0.10923785D+03 0.00000000D+00  -5  5  0 0.00000000D+00 0.00000000D+00 0.00000000D+00 0.00000000D+00 0.00000000D+00
  <mgrwgt>
 0.4087606514D-01    7    2    0
 0.156763020869771D+03 0.000000000000000D+00 0.000000000000000D+00 0.156763020869771D+03
 0.156763020869771D+03 0.000000000000000D+00 0.000000000000000D+00 -.156763020869771D+03
 0.168420343839568D+03 -.584782702470766D+02 -.797382404232446D+02 0.544290101154981D+02
 0.145105697899973D+03 0.584782702470766D+02 0.797382404232446D+02 -.544290101154981D+02
 0.000000000000000D+00 0.000000000000000D+00 0.000000000000000D+00 -.000000000000000D+00
 0.177704427657968D+03 0.000000000000000D+00 0.000000000000000D+00 0.177704427657968D+03
 0.421008686636889D+03 0.000000000000000D+00 0.000000000000000D+00 -.421008686636889D+03
 0.209556151925983D+03 -.708816511550597D+02 -.142485280634194D+03 0.544290101154981D+02
 0.122455123715157D+03 0.496982036986956D+02 0.353210615223305D+02 -.544290101154981D+02
 0.266701838653718D+03 0.211834474563640D+02 0.107164219111863D+03 -.243304258978921D+03
0.499855853693D-03 0.000000000000D+00 0.000000000000D+00 0.117206414290D-02 0.000000000000D+00  5 -2 2 25 23 21 0 0.34801538D-01 0.16713296D-01 0.21593366D+05 0.21593366D+05 0.21593366D+05 0.12301778D+01  1  2  2  2  5  2        2 0.128887971530D+00 0.100000000000D+01
-.276285854013D-04 0.000000000000D+00 -.191957809325D-05 0.117206414290D-02 0.000000000000D+00  5 -2 2 25 23 21 2 0.34801538D-01 0.16713296D-01 0.21593366D+05 0.21593366D+05 0.21593366D+05 0.12301778D+01  1  2  3  2  5  2        2 -.107810743250D-01 0.100000000000D+01
0.344374472881D-04 0.000000000000D+00 0.000000000000D+00 0.117206414290D-02 0.000000000000D+00  5 -2 2 25 23 21 2 0.34801538D-01 0.16713296D-01 0.21593366D+05 0.21593366D+05 0.21593366D+05 0.12301778D+01  1  2 15  2  5  2        2 0.134379908845D-01 0.100000000000D+01
0.125543302821D-03 0.000000000000D+00 0.000000000000D+00 0.117206414290D-02 0.000000000000D+00  5 -2 2 25 23 21 2 0.34801538D-01 0.44000208D-01 0.44372556D+05 0.44372556D+05 0.44372556D+05 0.11974517D+01  1  2 12  2  5  2        2 0.160782336861D-01 0.100000000000D+01
-.706964762257D-03 0.000000000000D+00 -.195026311835D-03 0.117206414290D-02 0.000000000000D+00  5 -2 2 25 23 21 2 0.34801538D-01 0.49442960D-01 0.21593366D+05 0.21593366D+05 0.21593366D+05 0.12301778D+01  1  2  5  2  5  2        2 -.839592238857D-01 0.100000000000D+01
0.134940820308D-04 0.000000000000D+00 0.000000000000D+00 0.117206414290D-02 0.000000000000D+00  5 -2 21 25 23 -2 2 0.34801538D-01 0.44000208D-01 0.44372556D+05 0.44372556D+05 0.44372556D+05 0.11974517D+01  1  2 12  4  5  2        2 0.597489814871D-02 0.100000000000D+01
-.770082930265D-04 0.000000000000D+00 -.240037718931D-04 0.117206414290D-02 0.000000000000D+00  5 -2 21 25 23 -2 2 0.34801538D-01 0.49442960D-01 0.21593366D+05 0.21593366D+05 0.21593366D+05 0.12301778D+01  1  2  5  4  5  2        2 -.287627308964D-01 0.100000000000D+01
  </mgrwgt>
  </event>
  <event>
  5     66 0.46888340E-03 0.11723825E+03 0.75467711E-02 0.12026818E+00
       21 -1    0    0  502  501 0.00000000E+00 0.00000000E+00 0.87405814E+02 0.87409031E+02 0.75000000E+00 0.0000E+00 0.9000E+01
        2 -1    0    0  501    0 0.00000000E+00 0.00000000E+00 -.95204277E+03 0.95204283E+03 0.32000000E+00 0.0000E+00 0.9000E+01
       25  1    1    2    0    0 -.16373745E+02 0.72412948E+02 -.62684793E+03 0.64348665E+03 0.12500000E+03 0.0000E+00 0.9000E+01
       23  1    1    2    0    0 0.22587644E+02 -.17222995E+02 -.29866249E+03 0.31356239E+03 0.91188000E+02 0.0000E+00 0.9000E+01
        2  1    1    2  502    0 -.62138983E+01 -.55189953E+02 0.60873470E+02 0.82402823E+02 0.32000000E+00 0.0000E+00 0.9000E+01
#aMCatNLO 2  0  0  1  2 0.55538666D+02 0.00000000D+00  -5  5  0 0.00000000D+00 0.00000000D+00 0.00000000D+00 0.00000000D+00 0.00000000D+00
  <mgrwgt>
 0.2253529696D+00    2    2    0
 0.118626260604216D+03 0.000000000000000D+00 0.000000000000000D+00 0.118626260604216D+03
 0.118626260604216D+03 0.000000000000000D+00 0.000000000000000D+00 -.118626260604216D+03
 0.134031257395753D+03 -.199982910281431D+02 0.402208383794561D+02 -.179368468548428D+02
 0.103221263812679D+03 0.199982910281431D+02 -.402208383794561D+02 0.179368468548428D+02
 0.000000000000000D+00 -.000000000000000D+00 -.000000000000000D+00 0.000000000000000D+00
 0.675307211960828D+03 0.000000000000000D+00 0.000000000000000D+00 0.675307211960828D+03
 0.123226452261396D+03 0.000000000000000D+00 0.000000000000000D+00 -.123226452261396D+03
 0.146487081713833D+03 -.163737454978594D+02 0.724129483746676D+02 -.179368468548428D+02
 0.971792932439872D+02 0.225876438157423D+02 -.172229951855050D+02 0.179368468548428D+02
 0.554867289264405D+03 -.621389831788294D+01 -.551899531891626D+02 0.552080759699432D+03
-.166502327489D-03 0.000000000000D+00 0.000000000000D+00 0.166737765751D-02 0.000000000000D+00  5 21 2 25 23 2 2 0.13171830D-01 0.14100048D+00 0.21968139D+05 0.21968139D+05 0.21968139D+05 0.12293634D+01  1  2 13  3  5  1       -2 -.474390090553D+00 0.100000000000D+01
0.268155433240D-03 0.000000000000D+00 0.000000000000D+00 0.166737765751D-02 0.278727526494D-05  5 21 2 25 23 2 2 0.13447295D-01 0.14646832D+00 0.21968139D+05 0.21968139D+05 0.21968139D+05 0.12293634D+01  1  2  1  3  5  1       -2 0.699743060163D+00 0.100000000000D+01
  </mgrwgt>
  </event>
  <event>
  5     66 0.46888340E-03 0.11275414E+03 0.75467711E-02 0.11636942E+00
       21 -1    0    0  502  501 0.00000000E+00 0.00000000E+00 0.46236746E+02 0.46242828E+02 0.75000000E+00 0.0000E+00 0.9000E+01
        2 -1    0    0  501    0 0.00000000E+00 0.00000000E+00 -.16405931E+04 0.16405931E+04 0.32000000E+00 0.0000E+00 0.9000E+01
       25  1    1    2    0    0 0.12432885E+02 0.65328412E+02 -.98483511E+03 0.99496109E+03 0.12500000E+03 0.0000E+00 0.9000E+01
       23  1    1    2    0    0 -.46384383E+02 0.44877622E+02 -.55165385E+03 0.56285232E+03 0.91188000E+02 0.0000E+00 0.9000E+01
        2  1    1    2  502    0 0.33951499E+02 -.11020603E+03 -.57867350E+02 0.12902251E+03 0.32000000E+00 0.0000E+00 0.9000E+01
#aMCatNLO 2  0  0  1  2 0.11531728D+03 0.00000000D+00  -5  5  0 0.00000000D+00 0.00000000D+00 0.00000000D+00 0.00000000D+00 0.00000000D+00
  <mgrwgt>
 0.1723814483D+00    1    2    0
 0.114767397756762D+03 0.000000000000000D+00 0.000000000000000D+00 0.114767397756762D+03
 0.114767397756762D+03 0.000000000000000D+00 0.000000000000000D+00 -.114767397756762D+03
 0.130690361941008D+03 0.315480991297145D+02 0.328072428864619D+01 -.211878501437772D+02
 0.988444335725162D+02 -.315480991297145D+02 -.328072428864619D+01 0.211878501437772D+02
 0.000000000000000D+00 0.000000000000000D+00 -.000000000000000D+00 0.000000000000000D+00
 0.557003916515278D+03 0.000000000000000D+00 0.000000000000000D+00 0.557003916515278D+03
 0.136194336066333D+03 0.000000000000000D+00 0.000000000000000D+00 -.136194336066333D+03
 0.143165299694305D+03 0.124328845207909D+02 0.653284120833945D+02 -.211878501437772D+02
 0.113708787487622D+03 -.463843833683553D+02 0.448776224161603D+02 0.211878501437772D+02
 0.436324165399683D+03 0.339514988475644D+02 -.110206034499555D+03 0.420809580448945D+03
0.539877516506D-04 0.000000000000D+00 0.000000000000D+00 0.172540360250D-02 0.628431745281D-06  5 21 2 25 23 2 2 0.71138129D-02 0.25239930D+00 0.33970799D+05 0.33970799D+05 0.33970799D+05 0.12092730D+01  1  2  1  3  5  1       -2 0.172381448293D+00 0.100000000000D+01
  </mgrwgt>
  </event>
  <event>
  4     66 0.46888340E-03 0.12445645E+03 0.75467711E-02 0.97484580E-01
       -2 -1    0    0    0  501 0.00000000E+00 0.00000000E+00 0.31421805E+02 0.31423435E+02 0.32000000E+00 0.0000E+00 0.9000E+01
        2 -1    0    0  501    0 0.00000000E+00 0.00000000E+00 -.70314168E+03 0.70314176E+03 0.32000000E+00 0.0000E+00 0.9000E+01
       25  1    1    2    0    0 0.23544168E+02 -.56396405E+02 -.56347346E+03 0.58039833E+03 0.12500000E+03 0.0000E+00 0.9000E+01
       23  1    1    2    0    0 -.23544168E+02 0.56396405E+02 -.10824642E+03 0.15416686E+03 0.91188000E+02 0.0000E+00 0.9000E+01
#aMCatNLO 1  0  0  1  2 0.66021632D+03 0.00000000D+00  -5  5  0 0.00000000D+00 0.00000000D+00 0.00000000D+00 0.00000000D+00 0.00000000D+00
  <mgrwgt>
 0.1914904988D+00    3    2    0
 0.148642545402439D+03 0.000000000000000D+00 0.000000000000000D+00 0.148642545402439D+03
 0.148642545402439D+03 0.000000000000000D+00 0.000000000000000D+00 -.148642545402439D+03
 0.160936718373255D+03 0.235441675110036D+02 -.563964048407818D+02 -.808748725995955D+02
 0.136348372431622D+03 -.235441675110036D+02 0.563964048407818D+02 0.808748725995955D+02
 0.000000000000000D+00 -.000000000000000D+00 0.000000000000000D+00 -.000000000000000D+00
 0.590161015845887D+03 0.000000000000000D+00 0.000000000000000D+00 0.590161015845887D+03
 0.839701444118647D+03 0.000000000000000D+00 0.000000000000000D+00 -.839701444118647D+03
 0.469519981250777D+03 0.421900379113925D+03 -.142419583903532D+03 -.808748725995955D+02
 0.254540798112401D+03 0.223440485403913D+03 0.306121285781039D+01 0.808748725995955D+02
 0.705801680601357D+03 -.645340864517838D+03 0.139358371045721D+03 -.249540428272760D+03
0.227648333735D-03 0.000000000000D+00 0.000000000000D+00 0.102649955300D-02 0.000000000000D+00  5 -2 2 25 23 21 0 0.48342548D-02 0.10817577D+00 0.15489407D+05 0.15489407D+05 0.15489407D+05 0.12462361D+01  1  2  2  1  5  1       -2 0.187123472230D+00 0.100000000000D+01
-.121621723912D-04 0.000000000000D+00 -.874229542726D-06 0.102649955300D-02 0.000000000000D+00  5 -2 2 25 23 21 2 0.48342548D-02 0.10817577D+00 0.15489407D+05 0.15489407D+05 0.15489407D+05 0.12462361D+01  1  2  3  1  5  1       -2 -.155265722821D-01 0.100000000000D+01
0.155829228615D-04 0.000000000000D+00 0.000000000000D+00 0.102649955300D-02 0.000000000000D+00  5 -2 2 25 23 21 2 0.48342548D-02 0.10817577D+00 0.15489407D+05 0.15489407D+05 0.15489407D+05 0.12462361D+01  1  2 15  1  5  1       -2 0.198935988073D-01 0.100000000000D+01
  </mgrwgt>
  </event>
  <event>
  4     66 0.46888340E-03 0.12921043E+03 0.75467711E-02 0.10846130E+00
       -2 -1    0    0    0  501 0.00000000E+00 0.00000000E+00 0.18923229E+02 0.18925934E+02 0.32000000E+00 0.0000E+00 0.9000E+01
        2 -1    0    0  501    0 0.00000000E+00 0.00000000E+00 -.88799352E+03 0.88799357E+03 0.32000000E+00 0.0000E+00 0.9000E+01
       25  1    1    2    0    0 0.70086124E+02 -.36292545E+01 -.44538240E+03 0.46788430E+03 0.12500000E+03 0.0000E+00 0.9000E+01
       23  1    1    2    0    0 -.70086124E+02 0.36292545E+01 -.42368789E+03 0.43903521E+03 0.91188000E+02 0.0000E+00 0.9000E+01
#aMCatNLO 1  0  0  1  2 0.24583602D+03 0.00000000D+00  -5  5  0 0.00000000D+00 0.00000000D+00 0.00000000D+00 0.00000000D+00 0.00000000D+00
  <mgrwgt>
 0.2414693379D+00    3    2    0
 0.129633935898563D+03 0.000000000000000D+00 0.000000000000000D+00 0.129633935898563D+03
 0.129633935898563D+03 0.000000000000000D+00 0.000000000000000D+00 -.129633935898563D+03
 0.143730840010384D+03 0.700861236787541D+02 -.362925447920327D+01 0.104076005737236D+02
 0.115537031786742D+03 -.700861236787541D+02 0.362925447920327D+01 -.104076005737236D+02
 0.000000000000000D+00 0.000000000000000D+00 0.000000000000000D+00 -.000000000000000D+00
 0.205413948971189D+03 0.000000000000000D+00 0.000000000000000D+00 0.205413948971189D+03
 0.743046612040904D+03 0.000000000000000D+00 0.000000000000000D+00 -.743046612040904D+03
 0.178392671924268D+03 0.258107950068251D+02 -.124195129162512D+03 0.104076005737236D+02
 0.178895976967433D+03 -.110555439799648D+03 -.106572490878915D+03 -.104076005737236D+02
 0.591171912120392D+03 0.847446447928230D+02 0.230767620041427D+03 -.537632663069716D+03
0.180863761220D-03 0.000000000000D+00 0.000000000000D+00 0.152666891486D-02 0.000000000000D+00  5 -2 2 25 23 21 0 0.29114785D-02 0.13661460D+00 0.16695334D+05 0.16695334D+05 0.16695334D+05 0.12425556D+01  1  2  2  1  5  1       -2 0.236522752014D+00 0.100000000000D+01
-.100478559158D-04 0.000000000000D+00 -.694564465609D-06 0.152666891486D-02 0.000000000000D+00  5 -2 2 25 23 21 2 0.29114785D-02 0.13661460D+00 0.16695334D+05 0.16695334D+05 0.16695334D+05 0.12425556D+01  1  2  3  1  5  1       -2 -.202874030312D-01 0.100000000000D+01
0.124977792789D-04 0.000000000000D+00 0.000000000000D+00 0.152666891486D-02 0.000000000000D+00  5 -2 2 25 23 21 2 0.29114785D-02 0.13661460D+00 0.16695334D+05 0.16695334D+05 0.16695334D+05 0.12425556D+01  1  2 15  1  5  1       -2 0.252339889575D-01 0.100000000000D+01
  </mgrwgt>
  </event>
  <event>
  4     66 0.46888340E-03 0.11487909E+03 0.75467711E-02 0.11817327E+00
       -2 -1    0    0    0  501 0.00000000E+00 0.00000000E+00 0.16346077E+02 0.16349209E+02 0.32000000E+00 0.0000E+00 0.9000E+01
        2 -1    0    0  501    0 0.00000000E+00 0.00000000E+00 -.80742722E+03 0.80742728E+03 0.32000000E+00 0.0000E+00 0.9000E+01
       25  1    1    2    0    0 0.19860464E+02 0.32949795E+02 -.44482557E+03 0.46365387E+03 0.12500000E+03 0.0000E+00 0.9000E+01
       23  1    1    2    0    0 -.19860464E+02 -.32949795E+02 -.34625557E+03 0.36012262E+03 0.91188000E+02 0.0000E+00 0.9000E+01
#aMCatNLO 1  0  0  2  2 0.86982746D+02 0.00000000D+00  -5  5  0 0.00000000D+00 0.00000000D+00 0.00000000D+00 0.00000000D+00 0.00000000D+00
  <mgrwgt>
 0.2421935452D+00    6    2    0
 0.114889440610357D+03 0.000000000000000D+00 0.000000000000000D+00 0.114889440610357D+03
 0.114889440610357D+03 0.000000000000000D+00 0.000000000000000D+00 -.114889440610357D+03
 0.130795490411728D+03 0.198604636474615D+02 0.329497954383843D+02 0.152750656982906D+01
 0.989833908089856D+02 -.198604636474615D+02 -.329497954383843D+02 -.152750656982906D+01
 0.000000000000000D+00 -.000000000000000D+00 0.000000000000000D+00 -.000000000000000D+00
 0.164569912882348D+03 0.000000000000000D+00 0.000000000000000D+00 0.164569912882348D+03
 0.168179222902270D+03 0.000000000000000D+00 0.000000000000000D+00 -.168179222902270D+03
 0.140618906893148D+03 0.636741854366514D+02 0.958862912422729D+01 0.152750656982906D+01
 0.105072632043662D+03 0.130797705606443D+02 -.505132951443761D+02 -.152750656982906D+01
 0.870575968478077D+02 -.767539559972956D+02 0.409246660201488D+02 -.360931001992186D+01
0.806924546825D-04 0.000000000000D+00 0.000000000000D+00 0.176661527742D-02 0.000000000000D+00  5 -2 2 25 23 21 0 0.25150269D-02 0.12421982D+00 0.13197205D+05 0.13197205D+05 0.13197205D+05 0.12542123D+01  1  2  2  2  5  2        2 0.146143656582D+00 0.100000000000D+01
-.448291410476D-05 0.000000000000D+00 -.309880272792D-06 0.176661527742D-02 0.000000000000D+00  5 -2 2 25 23 21 2 0.25150269D-02 0.12421982D+00 0.13197205D+05 0.13197205D+05 0.13197205D+05 0.12542123D+01  1  2  3  2  5  2        2 -.127717260208D-01 0.100000000000D+01
0.558357177741D-05 0.000000000000D+00 0.000000000000D+00 0.176661527742D-02 0.000000000000D+00  5 -2 2 25 23 21 2 0.25150269D-02 0.12421982D+00 0.13197205D+05 0.13197205D+05 0.13197205D+05 0.12542123D+01  1  2 15  2  5  2        2 0.159074760953D-01 0.100000000000D+01
-.311542266724D-04 0.000000000000D+00 -.290909241657D-04 0.176661527742D-02 0.000000000000D+00  5 -2 2 25 23 21 2 0.25150269D-02 0.23250664D+00 0.13197205D+05 0.13197205D+05 0.13197205D+05 0.12542123D+01  1  2  5  2  5  2        2 -.353876092790D-01 0.100000000000D+01
0.451365706201D-04 0.000000000000D+00 0.241819919404D-04 0.176661527742D-02 0.000000000000D+00  5 -2 2 25 23 21 2 0.25150269D-02 0.12421982D+00 0.13197205D+05 0.13197205D+05 0.13197205D+05 0.12542123D+01  1  2  6  2  5  2        2 0.128593120459D+00 0.100000000000D+01
-.494440762800D-06 0.000000000000D+00 -.198555864188D-05 0.176661527742D-02 0.000000000000D+00  5 -2 21 25 23 -2 2 0.25150269D-02 0.23250664D+00 0.13197205D+05 0.13197205D+05 0.13197205D+05 0.12542123D+01  1  2  5  4  5  2        2 -.291372647737D-03 0.100000000000D+01
  </mgrwgt>
  </event>
  <event>
  4     66 0.46888340E-03 0.24854835E+03 0.75467711E-02 0.10738080E+00
       -2 -1    0    0    0  501 0.00000000E+00 0.00000000E+00 0.18666494E+02 0.18669236E+02 0.32000000E+00 0.0000E+00 0.9000E+01
        2 -1    0    0  501    0 0.00000000E+00 0.00000000E+00 -.35306930E+04 0.35306930E+04 0.32000000E+00 0.0000E+00 0.9000E+01
       25  1    1    2    0    0 -.23452640E+01 0.22328169E+03 -.22489880E+04 0.22635000E+04 0.12500000E+03 0.0000E+00 0.9000E+01
       23  1    1    2    0    0 0.23452640E+01 -.22328169E+03 -.12630384E+04 0.12858622E+04 0.91188000E+02 0.0000E+00 0.9000E+01
#aMCatNLO 1  0  0  1  2 0.13403871D+03 0.00000000D+00  -5  5  0 0.00000000D+00 0.00000000D+00 0.00000000D+00 0.00000000D+00 0.00000000D+00
  <mgrwgt>
 0.1844213358D+00    4    2    0
 0.256730503592047D+03 0.000000000000000D+00 0.000000000000000D+00 0.256730503592047D+03
 0.256730503592047D+03 0.000000000000000D+00 0.000000000000000D+00 -.256730503592047D+03
 0.263848618262612D+03 -.234526399433863D+01 0.223281690339147D+03 -.642719212034280D+02
 0.249612388921483D+03 0.234526399433863D+01 -.223281690339147D+03 0.642719212034280D+02
 0.000000000000000D+00 -.000000000000000D+00 -.000000000000000D+00 -.000000000000000D+00
 0.305275713992350D+03 0.000000000000000D+00 0.000000000000000D+00 0.305275713992350D+03
 0.377787818214033D+03 0.000000000000000D+00 0.000000000000000D+00 -.377787818214033D+03
 0.322532806942689D+03 0.360092961075489D+02 0.288053575386575D+03 -.642719212034280D+02
 0.208135246238539D+03 0.322860302423402D+02 -.172718736038648D+03 0.642719212034280D+02
 0.152395479025154D+03 -.682953263498891D+02 -.115334839347927D+03 -.725121042216830D+02
0.466315529548D-02 0.000000000000D+00 0.000000000000D+00 0.983039867893D-03 0.000000000000D+00  5 -2 2 25 23 21 0 0.28719804D-02 0.54318375D+00 0.61776281D+05 0.61776281D+05 0.61776281D+05 0.11832909D+01  1  2  2  1  5  1       -2 0.205295791854D+00 0.100000000000D+01
-.258733738883D-03 0.000000000000D+00 -.179077441716D-04 0.983039867893D-03 0.000000000000D+00  5 -2 2 25 23 21 2 0.28719804D-02 0.54318375D+00 0.61776281D+05 0.61776281D+05 0.61776281D+05 0.11832909D+01  1  2  3  1  5  1       -2 -.159491026297D-01 0.100000000000D+01
0.320568702112D-03 0.000000000000D+00 0.000000000000D+00 0.983039867893D-03 0.000000000000D+00  5 -2 2 25 23 21 2 0.28719804D-02 0.54318375D+00 0.61776281D+05 0.61776281D+05 0.61776281D+05 0.11832909D+01  1  2 15  1  5  1       -2 0.197607901928D-01 0.100000000000D+01
-.400470069778D-03 0.000000000000D+00 0.000000000000D+00 0.983039867893D-03 0.000000000000D+00  5 -2 2 25 23 21 2 0.28719804D-02 0.54318375D+00 0.61776281D+05 0.61776281D+05 0.61776281D+05 0.11832909D+01  1  2  4  1  5  1       -2 -.246861436417D-01 0.100000000000D+01
  </mgrwgt>
  </event>
  <event>
  5     66 0.46888340E-03 0.10925608E+03 0.75467711E-02 0.12035268E+00
       -2 -1    0    0    0  502 0.00000000E+00 0.00000000E+00 0.60972056E+02 0.60972896E+02 0.32000000E+00 0.0000E+00 0.9000E+01
        2 -1    0    0  501    0 0.00000000E+00 0.00000000E+00 -.38374195E+03 0.38374208E+03 0.32000000E+00 0.0000E+00 0.9000E+01
       25  1    1    2    0    0 0.36060742E+02 -.39283321E+02 -.20616201E+03 0.24692374E+03 0.12500000E+03 0.0000E+00 0.9000E+01
       23  1    1    2    0    0 0.14690519E+02 -.40461782E+01 -.59389562E+02 0.10988428E+03 0.91188000E+02 0.0000E+00 0.9000E+01
       21  1    1    2  501  502 -.50751261E+02 0.43329500E+02 -.57218320E+02 0.87906966E+02 0.75000000E+00 0.0000E+00 0.9000E+01
#aMCatNLO 2  0  0  1  2 0.66731822D+02 0.00000000D+00  -5  5  0 0.00000000D+00 0.00000000D+00 0.00000000D+00 0.00000000D+00 0.00000000D+00
  <mgrwgt>
 0.3805452970D-01    1    2    0
 0.114390978599100D+03 0.000000000000000D+00 0.000000000000000D+00 0.114390978599100D+03
 0.114390978599100D+03 0.000000000000000D+00 0.000000000000000D+00 -.114390978599100D+03
 0.130366339474406D+03 0.668774075351838D+01 -.142057684633065D+02 -.335239128673344D+02
 0.984156177237941D+02 -.668774075351838D+01 0.142057684633065D+02 0.335239128673344D+02
 0.000000000000000D+00 -.000000000000000D+00 0.000000000000000D+00 0.000000000000000D+00
 0.159227221676606D+03 0.000000000000000D+00 0.000000000000000D+00 0.159227221676606D+03
 0.146941671018284D+03 0.000000000000000D+00 0.000000000000000D+00 -.146941671018284D+03
 0.139972887268880D+03 0.360607418746761D+02 -.392833212941305D+02 -.335239128673344D+02
 0.983427018068214D+02 0.146905194782385D+02 -.404617822003108D+01 0.335239128673344D+02
 0.678533036191884D+02 -.507512613529146D+02 0.433294995141616D+02 0.122855506583217D+02
0.425548873230D-04 0.000000000000D+00 0.000000000000D+00 0.166609682695D-02 0.329517997450D-05  5 -2 2 25 23 21 2 0.93802633D-02 0.59036493D-01 0.21768527D+05 0.21768527D+05 0.21768527D+05 0.12297952D+01  1  2  1  1  5  1       -2 0.380545297013D-01 0.100000000000D+01
  </mgrwgt>
  </event>
  <event>
  4     66 0.46888340E-03 0.11496532E+03 0.75467711E-02 0.11374022E+00
       -2 -1    0    0    0  501 0.00000000E+00 0.00000000E+00 0.66667835E+02 0.66668603E+02 0.32000000E+00 0.0000E+00 0.9000E+01
        2 -1    0    0  501    0 0.00000000E+00 0.00000000E+00 -.20315146E+03 0.20315171E+03 0.32000000E+00 0.0000E+00 0.9000E+01
       25  1    1    2    0    0 0.83848118E+01 0.37805585E+02 -.98208867E+02 0.16361402E+03 0.12500000E+03 0.0000E+00 0.9000E+01
       23  1    1    2    0    0 -.83848118E+01 -.37805585E+02 -.38274754E+02 0.10620629E+03 0.91188000E+02 0.0000E+00 0.9000E+01
#aMCatNLO 1  0  0  2  2 0.15394022D+03 0.00000000D+00  -5  5  0 0.00000000D+00 0.00000000D+00 0.00000000D+00 0.00000000D+00 0.00000000D+00
  <mgrwgt>
 0.1342816170D+00    5    2    0
 0.116377856260113D+03 0.000000000000000D+00 0.000000000000000D+00 0.116377856260113D+03
 0.116377856260113D+03 0.000000000000000D+00 0.000000000000000D+00 -.116377856260113D+03
 0.132080475493067D+03 0.838481176795441D+01 0.378055853284895D+02 -.179076703136125D+02
 0.100675237027160D+03 -.838481176795441D+01 -.378055853284895D+02 0.179076703136125D+02
 0.000000000000000D+00 0.000000000000000D+00 0.000000000000000D+00 -.000000000000000D+00
 0.202174347038568D+03 0.000000000000000D+00 0.000000000000000D+00 0.202174347038568D+03
 0.234098189611574D+03 0.000000000000000D+00 0.000000000000000D+00 -.234098189611574D+03
 0.138104931971835D+03 -.541025332617165D+02 -.141493276712676D+02 -.179076703136125D+02
 0.140952074562343D+03 -.642673604575849D+02 -.842689604966268D+02 0.179076703136125D+02
 0.157215530115964D+03 0.118369893719301D+03 0.984182881678945D+02 -.319238425730063D+02
0.120044978048D-03 0.000000000000D+00 0.000000000000D+00 0.170730553905D-02 0.000000000000D+00  5 -2 2 25 23 21 0 0.10256668D-01 0.31254149D-01 0.13217024D+05 0.13217024D+05 0.13217024D+05 0.12541369D+01  1  2  2  2  5  2        2 0.119282325790D+00 0.100000000000D+01
-.666795621262D-05 0.000000000000D+00 -.461004324273D-06 0.170730553905D-02 0.000000000000D+00  5 -2 2 25 23 21 2 0.10256668D-01 0.31254149D-01 0.13217024D+05 0.13217024D+05 0.13217024D+05 0.12541369D+01  1  2  3  2  5  2        2 -.104211273482D-01 0.100000000000D+01
0.829522778947D-05 0.000000000000D+00 0.000000000000D+00 0.170730553905D-02 0.000000000000D+00  5 -2 2 25 23 21 2 0.10256668D-01 0.31254149D-01 0.13217024D+05 0.13217024D+05 0.13217024D+05 0.12541369D+01  1  2 15  2  5  2        2 0.129643360604D-01 0.100000000000D+01
0.213129297885D-04 0.000000000000D+00 -.476266881241D-04 0.170730553905D-02 0.000000000000D+00  5 -2 2 25 23 21 2 0.10256668D-01 0.10160839D+00 0.13217024D+05 0.13217024D+05 0.13217024D+05 0.12541369D+01  1  2  5  2  5  2        2 0.935904322692D-02 0.100000000000D+01
0.487396894116D-05 0.000000000000D+00 -.648520118321D-05 0.170730553905D-02 0.000000000000D+00  5 -2 21 25 23 -2 2 0.10256668D-01 0.10160839D+00 0.13217024D+05 0.13217024D+05 0.13217024D+05 0.12541369D+01  1  2  5  4  5  2        2 0.309703922946D-02 0.100000000000D+01
  </mgrwgt>
  </event>
  <event>
  4     66 0.46888340E-03 0.14819857E+03 0.75467711E-02 0.10939470E+00
       -2 -1    0    0    0  501 0.00000000E+00 0.00000000E+00 0.33309821E+03 0.33309836E+03 0.32000000E+00 0.0000E+00 0.9000E+01
        2 -1    0    0  501    0 0.00000000E+00 0.00000000E+00 -.10395738E+03 0.10395788E+03 0.32000000E+00 0.0000E+00 0.9000E+01
       25  1    1    2    0    0 -.14006511E+02 -.99742483E+02 0.25248650E+03 0.29919755E+03 0.12500000E+03 0.0000E+00 0.9000E+01
       23  1    1    2    0    0 0.14006511E+02 0.99742483E+02 -.23345673E+02 0.13785869E+03 0.91188000E+02 0.0000E+00 0.9000E+01
#aMCatNLO 1  0  0  1  2 0.20594532D+03 0.00000000D+00  -5  5  0 0.00000000D+00 0.00000000D+00 0.00000000D+00 0.00000000D+00 0.00000000D+00
  <mgrwgt>
 0.1537232833D+00    3    2    0
 0.186086431192271D+03 0.000000000000000D+00 0.000000000000000D+00 0.186086431192271D+03
 0.186086431192271D+03 0.000000000000000D+00 0.000000000000000D+00 -.186086431192271D+03
 0.195906798815485D+03 -.140065110305524D+02 -.997424833226736D+02 0.112293047387219D+03
 0.176266063569058D+03 0.140065110305524D+02 0.997424833226736D+02 -.112293047387219D+03
 0.000000000000000D+00 -.000000000000000D+00 0.000000000000000D+00 -.000000000000000D+00
 0.257647739721137D+03 0.000000000000000D+00 0.000000000000000D+00 0.257647739721137D+03
 0.448461038746627D+03 0.000000000000000D+00 0.000000000000000D+00 -.448461038746627D+03
 0.231249241729646D+03 0.922501427725795D+02 -.129349891640723D+03 0.112293047387219D+03
 0.194104860752436D+03 0.106137655972694D+03 0.740710140124765D+02 -.112293047387219D+03
 0.280754675985681D+03 -.198387798745274D+03 0.552788776282461D+02 -.190813299025490D+03
0.115975447921D-02 0.000000000000D+00 0.000000000000D+00 0.799845190807D-03 0.000000000000D+00  5 -2 2 25 23 21 0 0.51245928D-01 0.15993494D-01 0.21962817D+05 0.21962817D+05 0.21962817D+05 0.12293749D+01  1  2  2  1  5  1       -2 0.149967685275D+00 0.100000000000D+01
-.603706598893D-04 0.000000000000D+00 -.445376257055D-05 0.799845190807D-03 0.000000000000D+00  5 -2 2 25 23 21 2 0.51245928D-01 0.15993494D-01 0.21962817D+05 0.21962817D+05 0.21962817D+05 0.12293749D+01  1  2  3  1  5  1       -2 -.117984848491D-01 0.100000000000D+01
0.795873588681D-04 0.000000000000D+00 0.000000000000D+00 0.799845190807D-03 0.000000000000D+00  5 -2 2 25 23 21 2 0.51245928D-01 0.15993494D-01 0.21962817D+05 0.21962817D+05 0.21962817D+05 0.12293749D+01  1  2 15  1  5  1       -2 0.155540828857D-01 0.100000000000D+01
  </mgrwgt>
  </event>
  <event>
  4     66 0.46888340E-03 0.87848620E+02 0.75467711E-02 0.11224846E+00
       -4 -1    0    0    0  501 0.00000000E+00 0.00000000E+00 0.45591026E+02 0.45617367E+02 0.15500000E+01 0.0000E+00 0.9000E+01
        4 -1    0    0  501    0 0.00000000E+00 0.00000000E+00 -.69030350E+03 0.69030524E+03 0.15500000E+01 0.0000E+00 0.9000E+01
       25  1    1    2    0    0 -.12598108E+03 0.49932834E+02 -.26764758E+03 0.32499961E+03 0.12500000E+03 0.0000E+00 0.9000E+01
       23  1    1    2    0    0 0.12598108E+03 -.49932834E+02 -.37706490E+03 0.41092299E+03 0.91188000E+02 0.0000E+00 0.9000E+01
#aMCatNLO 1  0  0  1  2 0.10807043D+03 0.00000000D+00  -5  5  0 0.00000000D+00 0.00000000D+00 0.00000000D+00 0.00000000D+00 0.00000000D+00
  <mgrwgt>
 0.4801266044D-02    7    2    0
 0.177431612467099D+03 0.000000000000000D+00 0.000000000000000D+00 0.177431612467099D+03
 0.177431612467099D+03 0.000000000000000D+00 0.000000000000000D+00 -.177431612467099D+03
 0.187731001277190D+03 -.125981082419886D+03 0.499328339706538D+02 0.354034998906784D+02
 0.167132223657008D+03 0.125981082419886D+03 -.499328339706538D+02 -.354034998906784D+02
 0.000000000000000D+00 -.000000000000000D+00 0.000000000000000D+00 0.000000000000000D+00
 0.299228747653549D+03 0.000000000000000D+00 0.000000000000000D+00 0.299228747653549D+03
 0.211145426958281D+03 0.000000000000000D+00 0.000000000000000D+00 -.211145426958281D+03
 0.155011380133897D+03 -.793885051458668D+02 0.291133202711581D+02 0.354034998906784D+02
 0.215942964709949D+03 0.178056522411473D+03 -.732023202224195D+02 -.354034998906784D+02
 0.139419829767984D+03 -.986680172656063D+02 0.440889999512613D+02 0.880833206952674D+02
0.333050141239D-03 0.000000000000D+00 0.000000000000D+00 0.116468222478D-02 0.000000000000D+00  5 -4 4 25 23 21 0 0.70161641D-02 0.10620270D+00 0.30224155D+05 0.30224155D+05 0.30224155D+05 0.12145592D+01  1  2  2  1  5  1       -4 0.591406123774D-02 0.100000000000D+01
-.184934354238D-04 0.000000000000D+00 -.127900023647D-05 0.116468222478D-02 0.000000000000D+00  5 -4 4 25 23 21 2 0.70161641D-02 0.10620270D+00 0.30224155D+05 0.30224155D+05 0.30224155D+05 0.12145592D+01  1  2  3  1  5  1       -4 -.484430182986D-03 0.100000000000D+01
0.228679370752D-04 0.000000000000D+00 0.000000000000D+00 0.116468222478D-02 0.000000000000D+00  5 -4 4 25 23 21 2 0.70161641D-02 0.10620270D+00 0.30224155D+05 0.30224155D+05 0.30224155D+05 0.12145592D+01  1  2 15  1  5  1       -4 0.599018986358D-03 0.100000000000D+01
0.664183606453D-04 0.000000000000D+00 0.000000000000D+00 0.116468222478D-02 0.000000000000D+00  5 -4 4 25 23 21 2 0.12118529D-01 0.10620270D+00 0.55697353D+05 0.55697353D+05 0.55697353D+05 0.11876682D+01  1  2 12  1  5  1       -4 0.688929216630D-03 0.100000000000D+01
-.176667036597D-03 0.000000000000D+00 -.969289665676D-04 0.116468222478D-02 0.000000000000D+00  5 -4 4 25 23 21 2 0.14032826D-01 0.10620270D+00 0.30224155D+05 0.30224155D+05 0.30224155D+05 0.12145592D+01  1  2  5  1  5  1       -4 -.143027826356D-02 0.100000000000D+01
0.402498393261D-05 0.000000000000D+00 0.000000000000D+00 0.116468222478D-02 0.000000000000D+00  5 21 4 25 23 4 2 0.12118529D-01 0.10620270D+00 0.55697353D+05 0.55697353D+05 0.55697353D+05 0.11876682D+01  1  2 12  3  5  1       -4 0.102571174992D-02 0.100000000000D+01
-.743478282302D-05 0.000000000000D+00 -.727003356788D-05 0.116468222478D-02 0.000000000000D+00  5 21 4 25 23 4 2 0.14032826D-01 0.10620270D+00 0.30224155D+05 0.30224155D+05 0.30224155D+05 0.12145592D+01  1  2  5  3  5  1       -4 -.151174670009D-02 0.100000000000D+01
  </mgrwgt>
  </event>
  <event>
  4     66 0.46888340E-03 0.11788532E+03 0.75467711E-02 0.11895028E+00
       -2 -1    0    0    0  501 0.00000000E+00 0.00000000E+00 0.11175790E+03 0.11175836E+03 0.32000000E+00 0.0000E+00 0.9000E+01
        2 -1    0    0  501    0 0.00000000E+00 0.00000000E+00 -.12687236E+03 0.12687276E+03 0.32000000E+00 0.0000E+00 0.9000E+01
       25  1    1    2    0    0 -.44077399E+02 0.14977085E+02 0.81564032E+01 0.13363629E+03 0.12500000E+03 0.0000E+00 0.9000E+01
       23  1    1    2    0    0 0.44077399E+02 -.14977085E+02 -.23270863E+02 0.10499483E+03 0.91188000E+02 0.0000E+00 0.9000E+01
#aMCatNLO 1  0  0  1  2 0.72015047D+02 0.00000000D+00  -5  5  0 0.00000000D+00 0.00000000D+00 0.00000000D+00 0.00000000D+00 0.00000000D+00
  <mgrwgt>
 0.1552051318D+00    3    2    0
 0.119075987928433D+03 0.000000000000000D+00 0.000000000000000D+00 0.119075987928433D+03
 0.119075987928433D+03 0.000000000000000D+00 0.000000000000000D+00 -.119075987928433D+03
 0.134422802981509D+03 -.440773994160374D+02 0.149770849445477D+02 0.166541210722284D+02
 0.103729172875356D+03 0.440773994160374D+02 -.149770849445477D+02 -.166541210722284D+02
 0.000000000000000D+00 -.000000000000000D+00 0.000000000000000D+00 -.000000000000000D+00
 0.139607619471404D+03 0.000000000000000D+00 0.000000000000000D+00 0.139607619471404D+03
 0.209663302277148D+03 0.000000000000000D+00 0.000000000000000D+00 -.209663302277148D+03
 0.127474180621114D+03 -.151795327202167D+02 -.108115106591028D+02 0.166541210722284D+02
 0.121328011127551D+03 0.689103410283809D+02 -.371381217999917D+02 -.166541210722284D+02
 0.100468729999886D+03 -.537308083081642D+02 0.479496324590945D+02 -.700556828057445D+02
0.208758869759D-03 0.000000000000D+00 0.000000000000D+00 0.166372106138D-02 0.000000000000D+00  5 -2 2 25 23 21 0 0.17193589D-01 0.19518891D-01 0.13896949D+05 0.13896949D+05 0.13896949D+05 0.12516220D+01  1  2  2  1  5  1       -2 0.151977009428D+00 0.100000000000D+01
-.115962908708D-04 0.000000000000D+00 -.801689027346D-06 0.166372106138D-02 0.000000000000D+00  5 -2 2 25 23 21 2 0.17193589D-01 0.19518891D-01 0.13896949D+05 0.13896949D+05 0.13896949D+05 0.12516220D+01  1  2  3  1  5  1       -2 -.132250833520D-01 0.100000000000D+01
0.144268397962D-04 0.000000000000D+00 0.000000000000D+00 0.166372106138D-02 0.000000000000D+00  5 -2 2 25 23 21 2 0.17193589D-01 0.19518891D-01 0.13896949D+05 0.13896949D+05 0.13896949D+05 0.12516220D+01  1  2 15  1  5  1       -2 0.164532056789D-01 0.100000000000D+01
  </mgrwgt>
  </event>
  <event>
  4     66 0.46888340E-03 0.10410072E+03 0.75467711E-02 0.11453717E+00
       -4 -1    0    0    0  501 0.00000000E+00 0.00000000E+00 0.42957104E+03 0.42957384E+03 0.15500000E+01 0.0000E+00 0.9000E+01
        4 -1    0    0  501    0 0.00000000E+00 0.00000000E+00 -.47142116E+02 0.47167591E+02 0.15500000E+01 0.0000E+00 0.9000E+01
       25  1    1    2    0    0 -.86337631E+02 -.55059738E+01 0.15636085E+03 0.21807847E+03 0.12500000E+03 0.0000E+00 0.9000E+01
       23  1    1    2    0    0 0.86337631E+02 0.55059738E+01 0.22606807E+03 0.25866296E+03 0.91188000E+02 0.0000E+00 0.9000E+01
#aMCatNLO 1  0  0  1  2 0.11171630D+03 0.00000000D+00  -5  5  0 0.00000000D+00 0.00000000D+00 0.00000000D+00 0.00000000D+00 0.00000000D+00
  <mgrwgt>
 0.2249754549D-01    7    2    0
 0.142329289946810D+03 0.000000000000000D+00 0.000000000000000D+00 0.142329289946810D+03
 0.142329289946810D+03 0.000000000000000D+00 0.000000000000000D+00 -.142329289946810D+03
 0.155168791673285D+03 -.863376306685025D+02 -.550597375604410D+01 -.311103148954529D+02
 0.129489788220335D+03 0.863376306685025D+02 0.550597375604410D+01 0.311103148954529D+02
 0.000000000000000D+00 0.000000000000000D+00 -.000000000000000D+00 0.000000000000000D+00
 0.326471754147549D+03 0.000000000000000D+00 0.000000000000000D+00 0.326471754147549D+03
 0.170873692679175D+03 0.000000000000000D+00 0.000000000000000D+00 -.170873692679175D+03
 0.195938666741230D+03 -.145594566927647D+03 0.245220617523755D+02 -.311103148954529D+02
 0.109857079248161D+03 0.459426982069359D+02 0.259758215559959D+02 0.311103148954529D+02
 0.191549700837333D+03 0.996518687207112D+02 -.504978833083713D+02 0.155598061468374D+03
0.593056049070D-03 0.000000000000D+00 0.000000000000D+00 0.135104437213D-02 0.000000000000D+00  5 -4 4 25 23 21 0 0.66090027D-01 0.72548080D-02 0.19281429D+05 0.19281429D+05 0.19281429D+05 0.12355793D+01  1  2  2  1  5  1       -4 0.277449898513D-01 0.100000000000D+01
-.329231293470D-04 0.000000000000D+00 -.227749138367D-05 0.135104437213D-02 0.000000000000D+00  5 -4 4 25 23 21 2 0.66090027D-01 0.72548080D-02 0.19281429D+05 0.19281429D+05 0.19281429D+05 0.12355793D+01  1  2  3  1  5  1       -4 -.235142539808D-02 0.100000000000D+01
0.410058987986D-04 0.000000000000D+00 0.000000000000D+00 0.135104437213D-02 0.000000000000D+00  5 -4 4 25 23 21 2 0.66090027D-01 0.72548080D-02 0.19281429D+05 0.19281429D+05 0.19281429D+05 0.12355793D+01  1  2 15  1  5  1       -4 0.292871041782D-02 0.100000000000D+01
0.316617177788D-04 0.000000000000D+00 0.000000000000D+00 0.135104437213D-02 0.000000000000D+00  5 -4 4 25 23 21 2 0.15011644D+00 0.72548080D-02 0.42133597D+05 0.42133597D+05 0.42133597D+05 0.11997152D+01  1  2 12  1  5  1       -4 0.334600100429D-03 0.100000000000D+01
-.318930904206D-03 0.000000000000D+00 -.157119782575D-03 0.135104437213D-02 0.000000000000D+00  5 -4 4 25 23 21 2 0.16816193D+00 0.72548080D-02 0.19281429D+05 0.19281429D+05 0.19281429D+05 0.12355793D+01  1  2  5  1  5  1       -4 -.252852592539D-02 0.100000000000D+01
0.282317622535D-05 0.000000000000D+00 0.000000000000D+00 0.135104437213D-02 0.000000000000D+00  5 21 4 25 23 4 2 0.15011644D+00 0.72548080D-02 0.42133597D+05 0.42133597D+05 0.42133597D+05 0.11997152D+01  1  2 12  3  5  1       -4 0.662002742029D-03 0.100000000000D+01
-.232699739408D-04 0.000000000000D+00 -.161984570750D-04 0.135104437213D-02 0.000000000000D+00  5 21 4 25 23 4 2 0.16816193D+00 0.72548080D-02 0.19281429D+05 0.19281429D+05 0.19281429D+05 0.12355793D+01  1  2  5  3  5  1       -4 -.429280630055D-02 0.100000000000D+01
  </mgrwgt>
  </event>
  <event>
  5     66 -.46888340E-03 0.11376369E+03 0.75467711E-02 0.12361259E+00
       -2 -1    0    0    0  502 0.00000000E+00 0.00000000E+00 0.64148784E+01 0.64228549E+01 0.32000000E+00 0.0000E+00 0.9000E+01
        2 -1    0    0  501    0 0.00000000E+00 0.00000000E+00 -.32653133E+04 0.32653133E+04 0.32000000E+00 0.0000E+00 0.9000E+01
       25  1    1    2    0    0 -.13446125E+01 0.30240676E+02 -.24753678E+04 0.24787067E+04 0.12500000E+03 0.0000E+00 0.9000E+01
       23  1    1    2    0    0 -.17628865E+02 -.36890413E+02 -.58418246E+03 0.59266860E+03 0.91188000E+02 0.0000E+00 0.9000E+01
       21  1    1    2  501  502 0.18973477E+02 0.66497366E+01 -.19934817E+03 0.20036084E+03 0.75000000E+00 0.0000E+00 0.9000E+01
#aMCatNLO 2  0  0  1  2 0.20105020D+02 0.00000000D+00  -5  5  0 0.00000000D+00 0.00000000D+00 0.00000000D+00 0.00000000D+00 0.00000000D+00
  <mgrwgt>
 -.5960577868D-01    2    2    0
 0.134252050107144D+03 0.000000000000000D+00 0.000000000000000D+00 0.134252050107144D+03
 0.134252050107144D+03 0.000000000000000D+00 0.000000000000000D+00 -.134252050107144D+03
 0.147864037131115D+03 0.905182262976140D+01 0.338843707509139D+02 -.707720806717291D+02
 0.120640063083172D+03 -.905182262976140D+01 -.338843707509139D+02 0.707720806717291D+02
 0.000000000000000D+00 0.000000000000000D+00 0.000000000000000D+00 0.000000000000000D+00
 0.146150100825935D+03 0.000000000000000D+00 0.000000000000000D+00 0.146150100825935D+03
 0.143398146385108D+03 0.000000000000000D+00 0.000000000000000D+00 -.143398146385108D+03
 0.146799161728537D+03 -.134461246002213D+01 0.302406762313268D+02 -.707720806717291D+02
 0.122456597101834D+03 -.176288646829849D+02 -.368904128079945D+02 0.707720806717291D+02
 0.202924883806709D+02 0.189734771430070D+02 0.664973657666776D+01 0.275195444082636D+01
-.293901436505D-03 0.000000000000D+00 0.000000000000D+00 0.115723890626D-02 0.000000000000D+00  5 -2 2 25 23 21 2 0.10159769D-02 0.47029311D+00 0.15457037D+05 0.15457037D+05 0.15457037D+05 0.12463393D+01  1  2 13  1  5  1       -2 -.185550952163D+00 0.100000000000D+01
0.254898107392D-03 0.000000000000D+00 0.000000000000D+00 0.115723890626D-02 0.238953646033D-04  5 -2 2 25 23 21 2 0.98747183D-03 0.50233244D+00 0.15457037D+05 0.15457037D+05 0.15457037D+05 0.12463393D+01  1  2  1  1  5  1       -2 0.125945173479D+00 0.100000000000D+01
  </mgrwgt>
  </event>
  <event>
  4     66 0.46888340E-03 0.11657019E+03 0.75467711E-02 0.12349017E+00
       -2 -1    0    0    0  501 0.00000000E+00 0.00000000E+00 0.15706709E+02 0.15709969E+02 0.32000000E+00 0.0000E+00 0.9000E+01
        2 -1    0    0  501    0 0.00000000E+00 0.00000000E+00 -.10266226E+04 0.10266227E+04 0.32000000E+00 0.0000E+00 0.9000E+01
       25  1    1    2    0    0 0.38582091E+02 0.19382072E+02 -.35756530E+03 0.38123770E+03 0.12500000E+03 0.0000E+00 0.9000E+01
       23  1    1    2    0    0 -.38582091E+02 -.19382072E+02 -.65335063E+03 0.66109496E+03 0.91188000E+02 0.0000E+00 0.9000E+01
#aMCatNLO 1  0  0  1  2 0.16395697D+02 0.00000000D+00  -5  5  0 0.00000000D+00 0.00000000D+00 0.00000000D+00 0.00000000D+00 0.00000000D+00
  <mgrwgt>
 0.9768705955D-01    4    2    0
 0.126990504419334D+03 0.000000000000000D+00 0.000000000000000D+00 0.126990504419334D+03
 0.126990504419334D+03 0.000000000000000D+00 0.000000000000000D+00 -.126990504419334D+03
 0.141380849369581D+03 0.385820911131268D+02 0.193820724641336D+02 0.499930203208156D+02
 0.112600159469088D+03 -.385820911131268D+02 -.193820724641336D+02 -.499930203208156D+02
 0.000000000000000D+00 0.000000000000000D+00 -.000000000000000D+00 -.000000000000000D+00
 0.131339250323580D+03 0.000000000000000D+00 0.000000000000000D+00 0.131339250323580D+03
 0.143708772837128D+03 0.000000000000000D+00 0.000000000000000D+00 -.143708772837128D+03
 0.139270183370619D+03 0.295515903545745D+02 0.199646037477255D+02 0.499930203208156D+02
 0.115239485885038D+03 -.459132812751933D+02 -.189091587543019D+02 -.499930203208156D+02
 0.205383539050522D+02 0.163616909206188D+02 -.105544499342362D+01 -.123695225135480D+02
0.118185741610D-03 0.000000000000D+00 0.000000000000D+00 0.138133105476D-02 0.000000000000D+00  5 -2 2 25 23 21 0 0.24166714D-02 0.15794220D+00 0.13588609D+05 0.13588609D+05 0.13588609D+05 0.12527449D+01  1  2  2  1  5  1       -2 0.165907533957D+00 0.100000000000D+01
-.650735352525D-05 0.000000000000D+00 -.453864366803D-06 0.138133105476D-02 0.000000000000D+00  5 -2 2 25 23 21 2 0.24166714D-02 0.15794220D+00 0.13588609D+05 0.13588609D+05 0.13588609D+05 0.12527449D+01  1  2  3  1  5  1       -2 -.143360901248D-01 0.100000000000D+01
0.808021567760D-05 0.000000000000D+00 0.000000000000D+00 0.138133105476D-02 0.000000000000D+00  5 -2 2 25 23 21 2 0.24166714D-02 0.15794220D+00 0.13588609D+05 0.13588609D+05 0.13588609D+05 0.12527449D+01  1  2 15  1  5  1       -2 0.178011997861D-01 0.100000000000D+01
-.325390977678D-04 0.000000000000D+00 0.000000000000D+00 0.138133105476D-02 0.000000000000D+00  5 -2 2 25 23 21 2 0.24166714D-02 0.15794220D+00 0.13588609D+05 0.13588609D+05 0.13588609D+05 0.12527449D+01  1  2  4  1  5  1       -2 -.716855840655D-01 0.100000000000D+01
  </mgrwgt>
  </event>
  <event>
  4     66 0.46888340E-03 0.12118523E+03 0.75467711E-02 0.11487017E+00
       -2 -1    0    0    0  501 0.00000000E+00 0.00000000E+00 0.23960889E+02 0.23963026E+02 0.32000000E+00 0.0000E+00 0.9000E+01
        2 -1    0    0  501    0 0.00000000E+00 0.00000000E+00 -.17094888E+04 0.17094888E+04 0.32000000E+00 0.0000E+00 0.9000E+01
       25  1    1    2    0    0 0.10588792E+03 0.12107142E+03 -.63797583E+03 0.66970792E+03 0.12500000E+03 0.0000E+00 0.9000E+01
       23  1    1    2    0    0 -.10588792E+03 -.12107142E+03 -.10475520E+04 0.10637439E+04 0.91188000E+02 0.0000E+00 0.9000E+01
#aMCatNLO 1  0  0  1  2 0.13640355D+02 0.00000000D+00  -5  5  0 0.00000000D+00 0.00000000D+00 0.00000000D+00 0.00000000D+00 0.00000000D+00
  <mgrwgt>
 0.2566403697D+00    6    2    0
 0.202392560511953D+03 0.000000000000000D+00 0.000000000000000D+00 0.202392560511953D+03
 0.202392560511953D+03 0.000000000000000D+00 0.000000000000000D+00 -.202392560511953D+03
 0.211421732134553D+03 0.105887924626616D+03 0.121071420163916D+03 0.566004192257917D+02
 0.193363388889352D+03 -.105887924626616D+03 -.121071420163916D+03 -.566004192257917D+02
 0.000000000000000D+00 -.000000000000000D+00 0.000000000000000D+00 -.000000000000000D+00
 0.208588925580980D+03 0.000000000000000D+00 0.000000000000000D+00 0.208588925580980D+03
 0.210156035590620D+03 0.000000000000000D+00 0.000000000000000D+00 -.210156035590620D+03
 0.212662278094540D+03 0.112120969616782D+03 0.117581993689580D+03 0.566004192257917D+02
 0.192352602473969D+03 -.100218799949420D+03 -.124245148857698D+03 -.566004192257917D+02
 0.137300806030918D+02 -.119021696673621D+02 0.666315516811731D+01 -.156711000963992D+01
0.399693070451D-03 0.000000000000D+00 0.000000000000D+00 0.105238880249D-02 0.000000000000D+00  5 -2 2 25 23 21 0 0.36864573D-02 0.26299844D+00 0.37752208D+05 0.37752208D+05 0.37752208D+05 0.12045593D+01  1  2  2  1  5  1       -2 0.131079376026D+00 0.100000000000D+01
-.221602071505D-04 0.000000000000D+00 -.153492663213D-05 0.105238880249D-02 0.000000000000D+00  5 -2 2 25 23 21 2 0.36864573D-02 0.26299844D+00 0.37752208D+05 0.37752208D+05 0.37752208D+05 0.12045593D+01  1  2  3  1  5  1       -2 -.105447905104D-01 0.100000000000D+01
0.274566785195D-04 0.000000000000D+00 0.000000000000D+00 0.105238880249D-02 0.000000000000D+00  5 -2 2 25 23 21 2 0.36864573D-02 0.26299844D+00 0.37752208D+05 0.37752208D+05 0.37752208D+05 0.12045593D+01  1  2 15  1  5  1       -2 0.130650819793D-01 0.100000000000D+01
0.624497866989D-03 0.000000000000D+00 0.000000000000D+00 0.105238880249D-02 0.000000000000D+00  5 -2 2 25 23 21 2 0.38676466D-02 0.26299844D+00 0.40495286D+05 0.40495286D+05 0.40495286D+05 0.12014579D+01  1  2 12  1  5  1       -2 0.275185333497D+00 0.100000000000D+01
-.434087358117D-03 0.000000000000D+00 0.000000000000D+00 0.105238880249D-02 0.000000000000D+00  5 -2 2 25 23 21 2 0.36864573D-02 0.26299844D+00 0.37752208D+05 0.37752208D+05 0.37752208D+05 0.12045593D+01  1  2  4  1  5  1       -2 -.206557647385D+00 0.100000000000D+01
0.668109597390D-05 0.000000000000D+00 0.000000000000D+00 0.105238880249D-02 0.000000000000D+00  5 21 2 25 23 2 2 0.38676466D-02 0.26299844D+00 0.40495286D+05 0.40495286D+05 0.40495286D+05 0.12014579D+01  1  2 12  3  5  1       -2 0.544130161328D-01 0.100000000000D+01
  </mgrwgt>
  </event>
  <event>
  4     66 0.46888340E-03 0.54330423E+02 0.75467711E-02 0.11878245E+00
       -2 -1    0    0    0  501 0.00000000E+00 0.00000000E+00 0.86534522E+02 0.86535114E+02 0.32000000E+00 0.0000E+00 0.9000E+01
        2 -1    0    0  501    0 0.00000000E+00 0.00000000E+00 -.22272753E+03 0.22272776E+03 0.32000000E+00 0.0000E+00 0.9000E+01
       25  1    1    2    0    0 -.83836826E+01 0.82140637E+02 -.45948946E+02 0.15669613E+03 0.12500000E+03 0.0000E+00 0.9000E+01
       23  1    1    2    0    0 0.83836826E+01 -.82140637E+02 -.90244062E+02 0.15256675E+03 0.91188000E+02 0.0000E+00 0.9000E+01
#aMCatNLO 1  0  0  1  2 0.45156319D+02 0.00000000D+00  -5  5  0 0.00000000D+00 0.00000000D+00 0.00000000D+00 0.00000000D+00 0.00000000D+00
  <mgrwgt>
 0.1704592525D+00    9    2    0
 0.138829922632596D+03 0.000000000000000D+00 0.000000000000000D+00 0.138829922632596D+03
 0.138829922632596D+03 0.000000000000000D+00 0.000000000000000D+00 -.138829922632596D+03
 0.151993058715559D+03 -.838368261684297D+01 0.821406369085997D+02 0.256811123540405D+02
 0.125666786549634D+03 0.838368261684297D+01 -.821406369085997D+02 -.256811123540405D+02
 0.000000000000000D+00 0.000000000000000D+00 -.000000000000000D+00 0.000000000000000D+00
 0.178841734980604D+03 0.000000000000000D+00 0.000000000000000D+00 0.178841734980604D+03
 0.154003006950891D+03 0.000000000000000D+00 0.000000000000000D+00 -.154003006950891D+03
 0.167383785838831D+03 -.128294876868127D+02 0.107555643625487D+03 0.256811123540405D+02
 0.113924022130901D+03 0.504851900021873D+01 -.630747524659870D+02 -.256811123540405D+02
 0.515369339617630D+02 0.778096868659393D+01 -.444808911595001D+02 0.248387280297133D+02
0.213519282866D-03 0.000000000000D+00 0.000000000000D+00 0.139698860762D-02 0.000000000000D+00  5 -2 2 25 23 21 0 0.13313067D-01 0.34265837D-01 0.18608029D+05 0.18608029D+05 0.18608029D+05 0.12372901D+01  1  2  2  1  5  1       -2 0.128569542461D+00 0.100000000000D+01
-.118577272973D-04 0.000000000000D+00 -.819970267122D-06 0.139698860762D-02 0.000000000000D+00  5 -2 2 25 23 21 2 0.13313067D-01 0.34265837D-01 0.18608029D+05 0.18608029D+05 0.18608029D+05 0.12372901D+01  1  2  3  1  5  1       -2 -.109306392587D-01 0.100000000000D+01
0.147177277258D-04 0.000000000000D+00 0.000000000000D+00 0.139698860762D-02 0.000000000000D+00  5 -2 2 25 23 21 2 0.13313067D-01 0.34265837D-01 0.18608029D+05 0.18608029D+05 0.18608029D+05 0.12372901D+01  1  2 15  1  5  1       -2 0.135670325724D-01 0.100000000000D+01
0.148365446168D-03 0.000000000000D+00 0.000000000000D+00 0.139698860762D-02 0.000000000000D+00  5 -2 2 25 23 21 2 0.17715447D-01 0.34265837D-01 0.25848603D+05 0.25848603D+05 0.25848603D+05 0.12217464D+01  1  2 12  1  5  1       -2 0.842117151879D-01 0.100000000000D+01
-.161216937321D-03 0.000000000000D+00 0.000000000000D+00 0.139698860762D-02 0.000000000000D+00  5 -2 2 25 23 21 2 0.13313067D-01 0.34265837D-01 0.18608029D+05 0.18608029D+05 0.18608029D+05 0.12372901D+01  1  2  4  1  5  1       -2 -.148612304875D+00 0.100000000000D+01
-.267899989149D-03 0.000000000000D+00 -.885451225921D-04 0.139698860762D-02 0.000000000000D+00  5 -2 2 25 23 21 2 0.18920123D-01 0.34265837D-01 0.18608029D+05 0.18608029D+05 0.18608029D+05 0.12372901D+01  1  2  5  1  5  1       -2 -.138514612354D+00 0.100000000000D+01
0.286352538653D-03 0.000000000000D+00 0.833438307930D-04 0.139698860762D-02 0.000000000000D+00  5 -2 2 25 23 21 2 0.13313067D-01 0.34265837D-01 0.18608029D+05 0.18608029D+05 0.18608029D+05 0.12372901D+01  1  2  6  1  5  1       -2 0.263964267548D+00 0.100000000000D+01
0.553575194499D-05 0.000000000000D+00 0.000000000000D+00 0.139698860762D-02 0.000000000000D+00  5 21 2 25 23 2 2 0.17715447D-01 0.34265837D-01 0.25848603D+05 0.25848603D+05 0.25848603D+05 0.12217464D+01  1  2 12  3  5  1       -2 0.445998997235D-01 0.100000000000D+01
-.908870072390D-05 0.000000000000D+00 -.383670001378D-05 0.139698860762D-02 0.000000000000D+00  5 21 2 25 23 2 2 0.18920123D-01 0.34265837D-01 0.18608029D+05 0.18608029D+05 0.18608029D+05 0.12372901D+01  1  2  5  3  5  1       -2 -.663956484647D-01 0.100000000000D+01
  </mgrwgt>
  </event>
  <event>
  4     66 0.46888340E-03 0.30331413E+03 0.75467711E-02 0.99774969E-01
       -2 -1    0    0    0  501 0.00000000E+00 0.00000000E+00 0.22128562E+03 0.22128586E+03 0.32000000E+00 0.0000E+00 0.9000E+01
        2 -1    0    0  501    0 0.00000000E+00 0.00000000E+00 -.19599445E+04 0.19599445E+04 0.32000000E+00 0.0000E+00 0.9000E+01
       25  1    1    2    0    0 -.17085396E+03 0.43230596E+03 -.12196799E+03 0.49656893E+03 0.12500000E+03 0.0000E+00 0.9000E+01
       23  1    1    2    0    0 0.17085396E+03 -.43230596E+03 -.16166909E+04 0.16846614E+04 0.91188000E+02 0.0000E+00 0.9000E+01
#aMCatNLO 1  0  0  1  2 0.16832585D+03 0.00000000D+00  -5  5  0 0.00000000D+00 0.00000000D+00 0.00000000D+00 0.00000000D+00 0.00000000D+00
  <mgrwgt>
 0.4854542240D-01    9    2    0
 0.658564970726491D+03 0.000000000000000D+00 0.000000000000000D+00 0.658564970726491D+03
 0.658564970726491D+03 0.000000000000000D+00 0.000000000000000D+00 -.658564970726491D+03
 0.661339848293976D+03 -.170853957315257D+03 0.432305955555534D+03 0.453504003292619D+03
 0.655790093159007D+03 0.170853957315257D+03 -.432305955555534D+03 -.453504003292619D+03
 0.000000000000000D+00 -.000000000000000D+00 -.000000000000000D+00 0.000000000000000D+00
 0.752115354806616D+03 0.000000000000000D+00 0.000000000000000D+00 0.752115354806616D+03
 0.744236952198557D+03 0.000000000000000D+00 0.000000000000000D+00 -.744236952198557D+03
 0.716725906757964D+03 -.153961628496030D+03 0.518363734617348D+03 0.453504003292619D+03
 0.611116280379536D+03 0.186383694533189D+03 -.353189884071794D+03 -.453504003292619D+03
 0.168510119867673D+03 -.324220660371584D+02 -.165173850545554D+03 0.787840260805879D+01
0.557393288927D-02 0.000000000000D+00 0.000000000000D+00 0.495130783563D-03 0.000000000000D+00  5 -2 2 25 23 21 0 0.34043962D-01 0.30152994D+00 0.22803499D+06 0.22803499D+06 0.22803499D+06 0.11320507D+01  1  2  2  1  5  1       -2 0.338615164743D-01 0.100000000000D+01
-.270762030702D-03 0.000000000000D+00 -.214053699450D-04 0.495130783563D-03 0.000000000000D+00  5 -2 2 25 23 21 2 0.34043962D-01 0.30152994D+00 0.22803499D+06 0.22803499D+06 0.22803499D+06 0.11320507D+01  1  2  3  1  5  1       -2 -.210796883693D-02 0.100000000000D+01
0.381123984014D-03 0.000000000000D+00 0.000000000000D+00 0.495130783563D-03 0.000000000000D+00  5 -2 2 25 23 21 2 0.34043962D-01 0.30152994D+00 0.22803499D+06 0.22803499D+06 0.22803499D+06 0.11320507D+01  1  2 15  1  5  1       -2 0.296717187128D-02 0.100000000000D+01
0.297604163190D-02 0.000000000000D+00 0.000000000000D+00 0.495130783563D-03 0.000000000000D+00  5 -2 2 25 23 21 2 0.40806952D-01 0.30152994D+00 0.32090020D+06 0.32090020D+06 0.32090020D+06 0.11197362D+01  1  2 12  1  5  1       -2 0.157786713886D-01 0.100000000000D+01
-.282611119833D-02 0.000000000000D+00 0.000000000000D+00 0.495130783563D-03 0.000000000000D+00  5 -2 2 25 23 21 2 0.34043962D-01 0.30152994D+00 0.22803499D+06 0.22803499D+06 0.22803499D+06 0.11320507D+01  1  2  4  1  5  1       -2 -.220021777808D-01 0.100000000000D+01
-.626364727878D-02 0.000000000000D+00 -.275442355497D-02 0.495130783563D-03 0.000000000000D+00  5 -2 2 25 23 21 2 0.44657118D-01 0.30152994D+00 0.22803499D+06 0.22803499D+06 0.22803499D+06 0.11320507D+01  1  2  5  1  5  1       -2 -.289005970677D-01 0.100000000000D+01
0.685552084858D-02 0.000000000000D+00 0.265603116752D-02 0.495130783563D-03 0.000000000000D+00  5 -2 2 25 23 21 2 0.34043962D-01 0.30152994D+00 0.22803499D+06 0.22803499D+06 0.22803499D+06 0.11320507D+01  1  2  6  1  5  1       -2 0.533724181057D-01 0.100000000000D+01
0.788985677822D-04 0.000000000000D+00 0.000000000000D+00 0.495130783563D-03 0.000000000000D+00  5 21 2 25 23 2 2 0.40806952D-01 0.30152994D+00 0.32090020D+06 0.32090020D+06 0.32090020D+06 0.11197362D+01  1  2 12  3  5  1       -2 0.492976113888D-02 0.100000000000D+01
-.172400345985D-03 0.000000000000D+00 -.989961775345D-04 0.495130783563D-03 0.000000000000D+00  5 21 2 25 23 2 2 0.44657118D-01 0.30152994D+00 0.22803499D+06 0.22803499D+06 0.22803499D+06 0.11320507D+01  1  2  5  3  5  1       -2 -.935337289615D-02 0.100000000000D+01
  </mgrwgt>
  </event>
  <event>
  4     66 0.46888340E-03 0.16493983E+03 0.75467711E-02 0.11829097E+00
       -2 -1    0    0    0  501 0.00000000E+00 0.00000000E+00 0.15495604E+03 0.15495637E+03 0.32000000E+00 0.0000E+00 0.9000E+01
        2 -1    0    0  501    0 0.00000000E+00 0.00000000E+00 -.17707481E+03 0.17707510E+03 0.32000000E+00 0.0000E+00 0.9000E+01
       25  1    1    2    0    0 -.11086807E+03 0.55371904E+02 0.34931587E+01 0.17605391E+03 0.12500000E+03 0.0000E+00 0.9000E+01
       23  1    1    2    0    0 0.11086807E+03 -.55371904E+02 -.25611927E+02 0.15597756E+03 0.91188000E+02 0.0000E+00 0.9000E+01
#aMCatNLO 1  0  0  2  2 0.59024539D+00 0.00000000D+00  -5  5  0 0.00000000D+00 0.00000000D+00 0.00000000D+00 0.00000000D+00 0.00000000D+00
  <mgrwgt>
 0.1533538332D+00    8    2    0
 0.165646954983468D+03 0.000000000000000D+00 0.000000000000000D+00 0.165646954983468D+03
 0.165646954983468D+03 0.000000000000000D+00 0.000000000000000D+00 -.165646954983468D+03
 0.176679075460312D+03 -.110868068871608D+03 0.553719042697674D+02 0.152551377486683D+02
 0.154614834506624D+03 0.110868068871608D+03 -.553719042697674D+02 -.152551377486683D+02
 0.000000000000000D+00 -.000000000000000D+00 -.000000000000000D+00 0.000000000000000D+00
 0.167589204417087D+03 0.000000000000000D+00 0.000000000000000D+00 0.167589204417087D+03
 0.165692067528928D+03 0.000000000000000D+00 0.000000000000000D+00 -.165692067528928D+03
 0.176505171448578D+03 -.110559628444773D+03 0.554339686339948D+02 0.152551377486683D+02
 0.154789264319376D+03 0.111138275521938D+03 -.553175333037600D+02 -.152551377486683D+02
 0.198683617806169D+01 -.578647077164827D+00 -.116435330234804D+00 0.189713688815976D+01
0.470399796516D-03 0.000000000000D+00 0.000000000000D+00 0.124733353710D-02 0.000000000000D+00  5 -2 2 25 23 21 0 0.23839438D-01 0.27242326D-01 0.27205149D+05 0.27205149D+05 0.27205149D+05 0.12193812D+01  1  2  2  2  5  2        2 0.138506807814D+00 0.100000000000D+01
-.261327405223D-04 0.000000000000D+00 -.180645907773D-05 0.124733353710D-02 0.000000000000D+00  5 -2 2 25 23 21 2 0.23839438D-01 0.27242326D-01 0.27205149D+05 0.27205149D+05 0.27205149D+05 0.12193812D+01  1  2  3  2  5  2        2 -.114411046272D-01 0.100000000000D+01
0.324105916211D-04 0.000000000000D+00 0.000000000000D+00 0.124733353710D-02 0.000000000000D+00  5 -2 2 25 23 21 2 0.23839438D-01 0.27242326D-01 0.27205149D+05 0.27205149D+05 0.27205149D+05 0.12193812D+01  1  2 15  2  5  2        2 0.141895936804D-01 0.100000000000D+01
-.496641805124D-03 0.000000000000D+00 0.000000000000D+00 0.124733353710D-02 0.000000000000D+00  5 -2 2 25 23 21 2 0.23839438D-01 0.27242326D-01 0.27205149D+05 0.27205149D+05 0.27205149D+05 0.12193812D+01  1  2  4  2  5  2        2 -.217433408861D+00 0.100000000000D+01
0.155269902696D-10 0.000000000000D+00 0.000000000000D+00 0.124733353710D-02 0.000000000000D+00  5 -2 2 25 23 21 2 0.23839438D-01 0.27565100D-01 0.27205149D+05 0.27205149D+05 0.27205149D+05 0.12193812D+01  1  2  5  2  5  2        2 0.671046535666D-08 0.100000000000D+01
-.155259132537D-10 0.000000000000D+00 0.000000000000D+00 0.124733353710D-02 0.000000000000D+00  5 -2 2 25 23 21 2 0.23839438D-01 0.27242326D-01 0.27205149D+05 0.27205149D+05 0.27205149D+05 0.12193812D+01  1  2  6  2  5  2        2 -.679735819581D-08 0.100000000000D+01
0.496674168307D-03 0.000000000000D+00 0.000000000000D+00 0.124733353710D-02 0.283861096932D-01  5 -2 2 25 23 21 2 0.24118961D-01 0.27249745D-01 0.27302711D+05 0.27302711D+05 0.27302711D+05 0.12192162D+01  1  2 11  2  5  2        2 0.212969840742D+00 0.100000000000D+01
0.716629912633D-05 0.000000000000D+00 0.000000000000D+00 0.124733353710D-02 0.145702558941D-05  5 -2 21 25 23 -2 2 0.24118961D-01 0.27249745D-01 0.27302711D+05 0.27302711D+05 0.27302711D+05 0.12192162D+01  1  2 11  4  5  2        2 0.165621045205D-01 0.100000000000D+01
  </mgrwgt>
  </event>
  <event>
  4     66 0.46888340E-03 0.15179412E+03 0.75467711E-02 0.10402483E+00
       -2 -1    0    0    0  501 0.00000000E+00 0.00000000E+00 0.37145183E+03 0.37145197E+03 0.32000000E+00 0.0000E+00 0.9000E+01
        2 -1    0    0  501    0 0.00000000E+00 0.00000000E+00 -.62191624E+02 0.62192448E+02 0.32000000E+00 0.0000E+00 0.9000E+01
       25  1    1    2    0    0 0.10481650E+03 0.15157982E+02 0.17787253E+03 0.24182618E+03 0.12500000E+03 0.0000E+00 0.9000E+01
       23  1    1    2    0    0 -.10481650E+03 -.15157982E+02 0.13138767E+03 0.19181824E+03 0.91188000E+02 0.0000E+00 0.9000E+01
#aMCatNLO 1  0  0  1  2 0.35424630D+03 0.00000000D+00  -5  5  0 0.00000000D+00 0.00000000D+00 0.00000000D+00 0.00000000D+00 0.00000000D+00
  <mgrwgt>
 0.1690848086D+00    3    2    0
 0.151991451091173D+03 0.000000000000000D+00 0.000000000000000D+00 0.151991451091173D+03
 0.151991451091173D+03 0.000000000000000D+00 0.000000000000000D+00 -.151991451091173D+03
 0.164014740235928D+03 0.104816502422241D+03 0.151579823108189D+02 0.771825154372337D+01
 0.139968161946419D+03 -.104816502422241D+03 -.151579823108189D+02 -.771825154372337D+01
 0.000000000000000D+00 0.000000000000000D+00 -.000000000000000D+00 -.000000000000000D+00
 0.294352747114940D+03 0.000000000000000D+00 0.000000000000000D+00 0.294352747114940D+03
 0.748072493086472D+03 0.000000000000000D+00 0.000000000000000D+00 -.748072493086472D+03
 0.136889809062021D+03 -.298822809488124D+02 0.464897591243562D+02 0.771825154372337D+01
 0.329903559331317D+03 -.315152801239393D+03 0.337675521698490D+02 -.771825154372337D+01
 0.575631871808074D+03 0.345035082188205D+03 -.802573112942052D+02 -.453719745971532D+03
0.860311961896D-03 0.000000000000D+00 0.000000000000D+00 0.133035188114D-02 0.000000000000D+00  5 -2 2 25 23 21 0 0.57146510D-01 0.95680161D-02 0.23041454D+05 0.23041454D+05 0.23041454D+05 0.12271145D+01  1  2  2  1  5  1       -2 0.165721681024D+00 0.100000000000D+01
-.477950109101D-04 0.000000000000D+00 -.330382445902D-05 0.133035188114D-02 0.000000000000D+00  5 -2 2 25 23 21 2 0.57146510D-01 0.95680161D-02 0.23041454D+05 0.23041454D+05 0.23041454D+05 0.12271145D+01  1  2  3  1  5  1       -2 -.138636033706D-01 0.100000000000D+01
0.593894510971D-04 0.000000000000D+00 0.000000000000D+00 0.133035188114D-02 0.000000000000D+00  5 -2 2 25 23 21 2 0.57146510D-01 0.95680161D-02 0.23041454D+05 0.23041454D+05 0.23041454D+05 0.12271145D+01  1  2 15  1  5  1       -2 0.172267309648D-01 0.100000000000D+01
  </mgrwgt>
  </event>
  <event>
  4     66 0.46888340E-03 0.10365069E+03 0.75467711E-02 0.11498258E+00
       -2 -1    0    0    0  501 0.00000000E+00 0.00000000E+00 0.34197672E+02 0.34199169E+02 0.32000000E+00 0.0000E+00 0.9000E+01
        2 -1    0    0  501    0 0.00000000E+00 0.00000000E+00 -.75039952E+03 0.75039959E+03 0.32000000E+00 0.0000E+00 0.9000E+01
       25  1    1    2    0    0 -.22701807E+02 0.11535329E+03 -.38143225E+03 0.41825508E+03 0.12500000E+03 0.0000E+00 0.9000E+01
       23  1    1    2    0    0 0.22701807E+02 -.11535329E+03 -.33476960E+03 0.36634367E+03 0.91188000E+02 0.0000E+00 0.9000E+01
#aMCatNLO 1  0  0  1  2 0.71522564D+02 0.00000000D+00  -5  5  0 0.00000000D+00 0.00000000D+00 0.00000000D+00 0.00000000D+00 0.00000000D+00
  <mgrwgt>
 0.2084323746D+00    9    2    0
 0.160195288793424D+03 0.000000000000000D+00 0.000000000000000D+00 0.160195288793424D+03
 0.160195288793424D+03 0.000000000000000D+00 0.000000000000000D+00 -.160195288793424D+03
 0.171602847516056D+03 -.227018067047750D+02 0.115353286264730D+03 0.885774172656180D+00
 0.148787730070792D+03 0.227018067047750D+02 -.115353286264730D+03 -.885774172656180D+00
 0.000000000000000D+00 -.000000000000000D+00 -.000000000000000D+00 0.000000000000000D+00
 0.213367366241846D+03 0.000000000000000D+00 0.000000000000000D+00 0.213367366241846D+03
 0.190116316167082D+03 0.000000000000000D+00 0.000000000000000D+00 -.190116316167082D+03
 0.187697658046642D+03 0.850556786653167D+01 0.139757939150436D+03 0.885774172656180D+00
 0.140579053499081D+03 0.478350237850483D+02 -.956987191256825D+02 -.885774172656180D+00
 0.752069708632048D+02 -.563405916515800D+02 -.440592200247539D+02 0.232510500747639D+02
0.241355380415D-03 0.000000000000D+00 0.000000000000D+00 0.128416503452D-02 0.000000000000D+00  5 -2 2 25 23 21 0 0.52613007D-02 0.11544620D+00 0.25661742D+05 0.25661742D+05 0.25661742D+05 0.12220831D+01  1  2  2  1  5  1       -2 0.163761260249D+00 0.100000000000D+01
-.134086322414D-04 0.000000000000D+00 -.926868211124D-06 0.128416503452D-02 0.000000000000D+00  5 -2 2 25 23 21 2 0.52613007D-02 0.11544620D+00 0.25661742D+05 0.25661742D+05 0.25661742D+05 0.12220831D+01  1  2  3  1  5  1       -2 -.135875175457D-01 0.100000000000D+01
0.166347219199D-04 0.000000000000D+00 0.000000000000D+00 0.128416503452D-02 0.000000000000D+00  5 -2 2 25 23 21 2 0.52613007D-02 0.11544620D+00 0.25661742D+05 0.25661742D+05 0.25661742D+05 0.12220831D+01  1  2 15  1  5  1       -2 0.168566466650D-01 0.100000000000D+01
0.868818963527D-04 0.000000000000D+00 0.000000000000D+00 0.128416503452D-02 0.000000000000D+00  5 -2 2 25 23 21 2 0.73667982D-02 0.11544620D+00 0.39958890D+05 0.39958890D+05 0.39958890D+05 0.12020456D+01  1  2 12  1  5  1       -2 0.513444617830D-01 0.100000000000D+01
-.112344982636D-03 0.000000000000D+00 0.000000000000D+00 0.128416503452D-02 0.000000000000D+00  5 -2 2 25 23 21 2 0.52613007D-02 0.11544620D+00 0.25661742D+05 0.25661742D+05 0.25661742D+05 0.12220831D+01  1  2  4  1  5  1       -2 -.113843783263D+00 0.100000000000D+01
-.177020978324D-03 0.000000000000D+00 -.846182599250D-04 0.128416503452D-02 0.000000000000D+00  5 -2 2 25 23 21 2 0.83296753D-02 0.11544620D+00 0.25661742D+05 0.25661742D+05 0.25661742D+05 0.12220831D+01  1  2  5  1  5  1       -2 -.887338790207D-01 0.100000000000D+01
0.202368706716D-03 0.000000000000D+00 0.764106030316D-04 0.128416503452D-02 0.000000000000D+00  5 -2 2 25 23 21 2 0.52613007D-02 0.11544620D+00 0.25661742D+05 0.25661742D+05 0.25661742D+05 0.12220831D+01  1  2  6  1  5  1       -2 0.205068518824D+00 0.100000000000D+01
0.364906952020D-05 0.000000000000D+00 0.000000000000D+00 0.128416503452D-02 0.000000000000D+00  5 21 2 25 23 2 2 0.73667982D-02 0.11544620D+00 0.39958890D+05 0.39958890D+05 0.39958890D+05 0.12020456D+01  1  2 12  3  5  1       -2 0.354711237376D-01 0.100000000000D+01
-.589067261404D-05 0.000000000000D+00 -.446728360489D-05 0.128416503452D-02 0.000000000000D+00  5 21 2 25 23 2 2 0.83296753D-02 0.11544620D+00 0.25661742D+05 0.25661742D+05 0.25661742D+05 0.12220831D+01  1  2  5  3  5  1       -2 -.479044568620D-01 0.100000000000D+01
  </mgrwgt>
  </event>
  <event>
  4     66 0.46888340E-03 0.74242952E+02 0.75467711E-02 0.11667299E+00
       -2 -1    0    0    0  501 0.00000000E+00 0.00000000E+00 0.30673452E+02 0.30675121E+02 0.32000000E+00 0.0000E+00 0.9000E+01
        2 -1    0    0  501    0 0.00000000E+00 0.00000000E+00 -.12718309E+04 0.12718310E+04 0.32000000E+00 0.0000E+00 0.9000E+01
       25  1    1    2    0    0 0.37346204E+02 -.10820495E+03 -.10401280E+04 0.10538474E+04 0.12500000E+03 0.0000E+00 0.9000E+01
       23  1    1    2    0    0 -.37346204E+02 0.10820495E+03 -.20102946E+03 0.24865869E+03 0.91188000E+02 0.0000E+00 0.9000E+01
#aMCatNLO 1  0  0  1  2 0.43174077D+02 0.00000000D+00  -5  5  0 0.00000000D+00 0.00000000D+00 0.00000000D+00 0.00000000D+00 0.00000000D+00
  <mgrwgt>
 0.1505877199D+00    9    2    0
 0.197515968651059D+03 0.000000000000000D+00 0.000000000000000D+00 0.197515968651059D+03
 0.197515968651059D+03 0.000000000000000D+00 0.000000000000000D+00 -.197515968651059D+03
 0.206768066982554D+03 0.373462042703268D+02 -.108204946813314D+03 -.118427125420778D+03
 0.188263870319565D+03 -.373462042703268D+02 0.108204946813314D+03 0.118427125420778D+03
 0.000000000000000D+00 0.000000000000000D+00 -.000000000000000D+00 0.000000000000000D+00
 0.246236786976760D+03 0.000000000000000D+00 0.000000000000000D+00 0.246236786976760D+03
 0.208493433085177D+03 0.000000000000000D+00 0.000000000000000D+00 -.208493433085177D+03
 0.195697893846590D+03 0.265372727149971D+02 -.891260611572875D+02 -.118427125420778D+03
 0.201686343904346D+03 -.478190034279225D+02 0.126690523912540D+03 0.118427125420778D+03
 0.573459823109996D+02 0.212817307129254D+02 -.375644627552527D+02 0.377433538915826D+02
0.348000411808D-03 0.000000000000D+00 0.000000000000D+00 0.777199289813D-03 0.000000000000D+00  5 -2 2 25 23 21 0 0.47191241D-02 0.19566643D+00 0.24939269D+05 0.24939269D+05 0.24939269D+05 0.12234109D+01  1  2  2  1  5  1       -2 0.134040015680D+00 0.100000000000D+01
-.181568389179D-04 0.000000000000D+00 -.133641321195D-05 0.777199289813D-03 0.000000000000D+00  5 -2 2 25 23 21 2 0.47191241D-02 0.19566643D+00 0.24939269D+05 0.24939269D+05 0.24939269D+05 0.12234109D+01  1  2  3  1  5  1       -2 -.104674199576D-01 0.100000000000D+01
0.238000373568D-04 0.000000000000D+00 0.000000000000D+00 0.777199289813D-03 0.000000000000D+00  5 -2 2 25 23 21 2 0.47191241D-02 0.19566643D+00 0.24939269D+05 0.24939269D+05 0.24939269D+05 0.12234109D+01  1  2 15  1  5  1       -2 0.137207245791D-01 0.100000000000D+01
0.451041243801D-03 0.000000000000D+00 0.000000000000D+00 0.777199289813D-03 0.000000000000D+00  5 -2 2 25 23 21 2 0.59908527D-02 0.19566643D+00 0.32802031D+05 0.32802031D+05 0.32802031D+05 0.12108493D+01  1  2 12  1  5  1       -2 0.177844837891D+00 0.100000000000D+01
-.477058108533D-03 0.000000000000D+00 0.000000000000D+00 0.777199289813D-03 0.000000000000D+00  5 -2 2 25 23 21 2 0.47191241D-02 0.19566643D+00 0.24939269D+05 0.24939269D+05 0.24939269D+05 0.12234109D+01  1  2  4  1  5  1       -2 -.275024060564D+00 0.100000000000D+01
-.689083295892D-03 0.000000000000D+00 -.174741768644D-03 0.777199289813D-03 0.000000000000D+00  5 -2 2 25 23 21 2 0.62199749D-02 0.19566643D+00 0.24939269D+05 0.24939269D+05 0.24939269D+05 0.12234109D+01  1  2  5  1  5  1       -2 -.261550624319D+00 0.100000000000D+01
0.716309098421D-03 0.000000000000D+00 0.168284639677D-03 0.777199289813D-03 0.000000000000D+00  5 -2 2 25 23 21 2 0.47191241D-02 0.19566643D+00 0.24939269D+05 0.24939269D+05 0.24939269D+05 0.12234109D+01  1  2  6  1  5  1       -2 0.412952286823D+00 0.100000000000D+01
0.147467028596D-04 0.000000000000D+00 0.000000000000D+00 0.777199289813D-03 0.000000000000D+00  5 21 2 25 23 2 2 0.59908527D-02 0.19566643D+00 0.32802031D+05 0.32802031D+05 0.32802031D+05 0.12108493D+01  1  2 12  3  5  1       -2 0.997267308621D-01 0.100000000000D+01
-.216442268478D-04 0.000000000000D+00 -.636081290108D-05 0.777199289813D-03 0.000000000000D+00  5 21 2 25 23 2 2 0.62199749D-02 0.19566643D+00 0.24939269D+05 0.24939269D+05 0.24939269D+05 0.12234109D+01  1  2  5  3  5  1       -2 -.140654771135D+00 0.100000000000D+01
  </mgrwgt>
  </event>
  <event>
  4     66 0.46888340E-03 0.94248379E+02 0.75467711E-02 0.11921103E+00
       -2 -1    0    0    0  501 0.00000000E+00 0.00000000E+00 0.29826618E+02 0.29828334E+02 0.32000000E+00 0.0000E+00 0.9000E+01
        2 -1    0    0  501    0 0.00000000E+00 0.00000000E+00 -.69332310E+03 0.69332317E+03 0.32000000E+00 0.0000E+00 0.9000E+01
       25  1    1    2    0    0 0.72381577E+02 0.18611064E+02 -.50519501E+03 0.52576845E+03 0.12500000E+03 0.0000E+00 0.9000E+01
       23  1    1    2    0    0 -.72381577E+02 -.18611064E+02 -.15830147E+03 0.19738306E+03 0.91188000E+02 0.0000E+00 0.9000E+01
#aMCatNLO 1  0  0  1  2 0.46234040D+02 0.00000000D+00  -5  5  0 0.00000000D+00 0.00000000D+00 0.00000000D+00 0.00000000D+00 0.00000000D+00
  <mgrwgt>
 0.1810381797D+00    9    2    0
 0.143805877842630D+03 0.000000000000000D+00 0.000000000000000D+00 0.143805877842630D+03
 0.143805877842630D+03 0.000000000000000D+00 0.000000000000000D+00 -.143805877842630D+03
 0.156513544534807D+03 0.723815773503101D+02 0.186110640500880D+02 -.573238622046134D+02
 0.131098211150454D+03 -.723815773503101D+02 -.186110640500880D+02 0.573238622046134D+02
 0.000000000000000D+00 0.000000000000000D+00 0.000000000000000D+00 0.000000000000000D+00
 0.176244268523786D+03 0.000000000000000D+00 0.000000000000000D+00 0.176244268523786D+03
 0.163120474257465D+03 0.000000000000000D+00 0.000000000000000D+00 -.163120474257465D+03
 0.146790113675458D+03 0.481735504389938D+02 0.177657347976942D+02 -.573238622046134D+02
 0.144514037508631D+03 -.943794285203154D+02 -.193792153394075D+02 0.573238622046134D+02
 0.480605915971617D+02 0.462058780813216D+02 0.161348054171327D+01 0.131237942663211D+02
0.153808973359D-03 0.000000000000D+00 0.000000000000D+00 0.121354544656D-02 0.000000000000D+00  5 -2 2 25 23 21 0 0.45888482D-02 0.10666523D+00 0.17363257D+05 0.17363257D+05 0.17363257D+05 0.12406433D+01  1  2  2  1  5  1       -2 0.139452999381D+00 0.100000000000D+01
-.846556531699D-05 0.000000000000D+00 -.590666956530D-06 0.121354544656D-02 0.000000000000D+00  5 -2 2 25 23 21 2 0.45888482D-02 0.10666523D+00 0.17363257D+05 0.17363257D+05 0.17363257D+05 0.12406433D+01  1  2  3  1  5  1       -2 -.118139748571D-01 0.100000000000D+01
0.105873542490D-04 0.000000000000D+00 0.000000000000D+00 0.121354544656D-02 0.000000000000D+00  5 -2 2 25 23 21 2 0.45888482D-02 0.10666523D+00 0.17363257D+05 0.17363257D+05 0.17363257D+05 0.12406433D+01  1  2 15  1  5  1       -2 0.147750011036D-01 0.100000000000D+01
0.860756898731D-04 0.000000000000D+00 0.000000000000D+00 0.121354544656D-02 0.000000000000D+00  5 -2 2 25 23 21 2 0.58754819D-02 0.10666523D+00 0.24653236D+05 0.24653236D+05 0.24653236D+05 0.12239485D+01  1  2 12  1  5  1       -2 0.813411491950D-01 0.100000000000D+01
-.910508698681D-04 0.000000000000D+00 0.000000000000D+00 0.121354544656D-02 0.000000000000D+00  5 -2 2 25 23 21 2 0.45888482D-02 0.10666523D+00 0.17363257D+05 0.17363257D+05 0.17363257D+05 0.12406433D+01  1  2  4  1  5  1       -2 -.127064483831D+00 0.100000000000D+01
-.174733184641D-03 0.000000000000D+00 -.673074794722D-04 0.121354544656D-02 0.000000000000D+00  5 -2 2 25 23 21 2 0.63855358D-02 0.10666523D+00 0.17363257D+05 0.17363257D+05 0.17363257D+05 0.12406433D+01  1  2  5  1  5  1       -2 -.148218983997D+00 0.100000000000D+01
0.190019173510D-03 0.000000000000D+00 0.637935665568D-04 0.121354544656D-02 0.000000000000D+00  5 -2 2 25 23 21 2 0.45888482D-02 0.10666523D+00 0.17363257D+05 0.17363257D+05 0.17363257D+05 0.12406433D+01  1  2  6  1  5  1       -2 0.265178006921D+00 0.100000000000D+01
0.288860106141D-05 0.000000000000D+00 0.000000000000D+00 0.121354544656D-02 0.000000000000D+00  5 21 2 25 23 2 2 0.58754819D-02 0.10666523D+00 0.24653236D+05 0.24653236D+05 0.24653236D+05 0.12239485D+01  1  2 12  3  5  1       -2 0.472311132650D-01 0.100000000000D+01
-.549296524412D-05 0.000000000000D+00 -.278933988662D-05 0.121354544656D-02 0.000000000000D+00  5 21 2 25 23 2 2 0.63855358D-02 0.10666523D+00 0.17363257D+05 0.17363257D+05 0.17363257D+05 0.12406433D+01  1  2  5  3  5  1       -2 -.798426474888D-01 0.100000000000D+01
  </mgrwgt>
  </event>
  <event>
  4     66 0.46888340E-03 0.76349184E+02 0.75467711E-02 0.12368481E+00
       -2 -1    0    0    0  501 0.00000000E+00 0.00000000E+00 0.61887806E+02 0.61888633E+02 0.32000000E+00 0.0000E+00 0.9000E+01
        2 -1    0    0  501    0 0.00000000E+00 0.00000000E+00 -.23325657E+03 0.23325679E+03 0.32000000E+00 0.0000E+00 0.9000E+01
       25  1    1    2    0    0 0.60020916E+01 0.51375465E+02 -.10224445E+03 0.16957120E+03 0.12500000E+03 0.0000E+00 0.9000E+01
       23  1    1    2    0    0 -.60020916E+01 -.51375465E+02 -.69124317E+02 0.12557423E+03 0.91188000E+02 0.0000E+00 0.9000E+01
#aMCatNLO 1  0  0  2  1 0.75045793D+01 0.00000000D+00  -5  5  0 0.00000000D+00 0.00000000D+00 0.00000000D+00 0.00000000D+00 0.00000000D+00
  <mgrwgt>
 0.2080974580D+00   11    2    0
 0.120149455284903D+03 0.000000000000000D+00 0.000000000000000D+00 0.120149455284903D+03
 0.120149455284903D+03 0.000000000000000D+00 0.000000000000000D+00 -.120149455284903D+03
 0.135359155234576D+03 0.600209160569399D+01 0.513754652992878D+02 -.465159837653884D+01
 0.104939755335231D+03 -.600209160569399D+01 -.513754652992878D+02 0.465159837653884D+01
 0.000000000000000D+00 -.000000000000000D+00 -.000000000000000D+00 -.000000000000000D+00
 0.123796862567247D+03 0.000000000000000D+00 0.000000000000000D+00 0.123796862567247D+03
 0.124131228530100D+03 0.000000000000000D+00 0.000000000000000D+00 -.124131228530100D+03
 0.136421457628174D+03 0.962292848798175D+01 0.535870878221069D+02 -.465159837653884D+01
 0.103994609078857D+03 -.321853304101476D+01 -.496752559235645D+02 0.465159837653884D+01
 0.751202439031584D+01 -.640439544696699D+01 -.391183189854241D+01 -.334365962853116D+00
0.834728052523D-04 0.000000000000D+00 0.000000000000D+00 0.166810570285D-02 0.000000000000D+00  5 -2 2 25 23 21 0 0.95212814D-02 0.35885706D-01 0.14413901D+05 0.14413901D+05 0.14413901D+05 0.12498007D+01  1  2  2  2  5  2        2 0.806573975190D-01 0.100000000000D+01
-.463737479367D-05 0.000000000000D+00 -.320557551063D-06 0.166810570285D-02 0.000000000000D+00  5 -2 2 25 23 21 2 0.95212814D-02 0.35885706D-01 0.14413901D+05 0.14413901D+05 0.14413901D+05 0.12498007D+01  1  2  3  2  5  2        2 -.699927279083D-02 0.100000000000D+01
0.576942053862D-05 0.000000000000D+00 0.000000000000D+00 0.166810570285D-02 0.000000000000D+00  5 -2 2 25 23 21 2 0.95212814D-02 0.35885706D-01 0.14413901D+05 0.14413901D+05 0.14413901D+05 0.12498007D+01  1  2 15  2  5  2        2 0.870788969870D-02 0.100000000000D+01
0.204521471648D-03 0.000000000000D+00 0.000000000000D+00 0.166810570285D-02 0.000000000000D+00  5 -2 2 25 23 21 2 0.95212814D-02 0.37602572D-01 0.15343435D+05 0.15343435D+05 0.15343435D+05 0.12467033D+01  1  2 12  2  5  2        2 0.292966152845D+00 0.100000000000D+01
-.165450454928D-03 0.000000000000D+00 0.000000000000D+00 0.166810570285D-02 0.000000000000D+00  5 -2 2 25 23 21 2 0.95212814D-02 0.35885706D-01 0.14413901D+05 0.14413901D+05 0.14413901D+05 0.12498007D+01  1  2  4  2  5  2        2 -.249717333391D+00 0.100000000000D+01
-.131025058236D-02 0.000000000000D+00 -.219630151194D-03 0.166810570285D-02 0.000000000000D+00  5 -2 2 25 23 21 2 0.95212814D-02 0.38115562D-01 0.14413901D+05 0.14413901D+05 0.14413901D+05 0.12498007D+01  1  2  5  2  5  2        2 -.185475803594D+01 0.100000000000D+01
0.132148721133D-02 0.000000000000D+00 0.219231674292D-03 0.166810570285D-02 0.000000000000D+00  5 -2 2 25 23 21 2 0.95212814D-02 0.35885706D-01 0.14413901D+05 0.14413901D+05 0.14413901D+05 0.12498007D+01  1  2  6  2  5  2        2 0.199454430431D+01 0.100000000000D+01
0.371064857814D-05 0.000000000000D+00 0.000000000000D+00 0.166810570285D-02 0.245753380490D-03  5 -2 2 25 23 21 2 0.98103213D-02 0.37074965D-01 0.15343435D+05 0.15343435D+05 0.15343435D+05 0.12467033D+01  1  2 11  2  5  2        2 0.514938007595D-02 0.100000000000D+01
0.238042645381D-05 0.000000000000D+00 0.000000000000D+00 0.166810570285D-02 0.000000000000D+00  5 -2 21 25 23 -2 2 0.95212814D-02 0.37602572D-01 0.15343435D+05 0.15343435D+05 0.15343435D+05 0.12467033D+01  1  2 12  4  5  2        2 0.140754646326D-01 0.100000000000D+01
-.132819562767D-04 0.000000000000D+00 -.227285573046D-05 0.166810570285D-02 0.000000000000D+00  5 -2 21 25 23 -2 2 0.95212814D-02 0.38115562D-01 0.14413901D+05 0.14413901D+05 0.14413901D+05 0.12498007D+01  1  2  5  4  5  2        2 -.767683095898D-01 0.100000000000D+01
0.413279523636D-07 0.000000000000D+00 0.000000000000D+00 0.166810570285D-02 0.145710058144D-05  5 -2 21 25 23 -2 2 0.98103213D-02 0.37074965D-01 0.15343435D+05 0.15343435D+05 0.15343435D+05 0.12467033D+01  1  2 11  4  5  2        2 0.239820623323D-03 0.100000000000D+01
  </mgrwgt>
  </event>
  <event>
  4     66 0.46888340E-03 0.61106382E+02 0.75467711E-02 0.12329892E+00
       -4 -1    0    0    0  501 0.00000000E+00 0.00000000E+00 0.21437092E+03 0.21437652E+03 0.15500000E+01 0.0000E+00 0.9000E+01
        4 -1    0    0  501    0 0.00000000E+00 0.00000000E+00 -.70466317E+02 0.70483362E+02 0.15500000E+01 0.0000E+00 0.9000E+01
       25  1    1    2    0    0 0.10303763E+02 0.15103496E+02 0.14439300E+03 0.19185573E+03 0.12500000E+03 0.0000E+00 0.9000E+01
       23  1    1    2    0    0 -.10303763E+02 -.15103496E+02 -.48839648E+00 0.93004156E+02 0.91188000E+02 0.0000E+00 0.9000E+01
#aMCatNLO 1  0  0  1  2 0.31020223D+02 0.00000000D+00  -5  5  0 0.00000000D+00 0.00000000D+00 0.00000000D+00 0.00000000D+00 0.00000000D+00
  <mgrwgt>
 0.2941550692D-01    9    2    0
 0.122919303028110D+03 0.000000000000000D+00 0.000000000000000D+00 0.122919303028110D+03
 0.122919303028110D+03 0.000000000000000D+00 0.000000000000000D+00 -.122919303028110D+03
 0.137786269558030D+03 0.103037626701032D+02 0.151034956265106D+02 0.550070265822138D+02
 0.108052336498191D+03 -.103037626701032D+02 -.151034956265106D+02 -.550070265822138D+02
 0.000000000000000D+00 0.000000000000000D+00 0.000000000000000D+00 0.000000000000000D+00
 0.139953514924771D+03 0.000000000000000D+00 0.000000000000000D+00 0.139953514924771D+03
 0.138873467332659D+03 0.000000000000000D+00 0.000000000000000D+00 -.138873467332659D+03
 0.136645569903016D+03 -.267800470479936D+01 0.375061215065371D+01 0.550070265822138D+02
 0.111142392798660D+03 -.206725850018150D+02 -.241712926617099D+02 -.550070265822138D+02
 0.310390195557544D+02 0.233505897066144D+02 0.204206805110562D+02 0.108004759211162D+01
0.237751449199D-03 0.000000000000D+00 0.000000000000D+00 0.137974187195D-02 0.000000000000D+00  5 -4 4 25 23 21 0 0.32981884D-01 0.10842714D-01 0.12026733D+05 0.12026733D+05 0.12026733D+05 0.12589109D+01  1  2  2  1  5  1       -4 0.219822976110D-01 0.100000000000D+01
-.129993951920D-04 0.000000000000D+00 -.913028166317D-06 0.137974187195D-02 0.000000000000D+00  5 -4 4 25 23 21 2 0.32981884D-01 0.10842714D-01 0.12026733D+05 0.12026733D+05 0.12026733D+05 0.12589109D+01  1  2  3  1  5  1       -4 -.190485979268D-02 0.100000000000D+01
0.162611713475D-04 0.000000000000D+00 0.000000000000D+00 0.137974187195D-02 0.000000000000D+00  5 -4 4 25 23 21 2 0.32981884D-01 0.10842714D-01 0.12026733D+05 0.12026733D+05 0.12026733D+05 0.12589109D+01  1  2 15  1  5  1       -4 0.238282251015D-02 0.100000000000D+01
0.150354388683D-03 0.000000000000D+00 0.000000000000D+00 0.137974187195D-02 0.000000000000D+00  5 -4 4 25 23 21 2 0.39419727D-01 0.10842714D-01 0.15961898D+05 0.15961898D+05 0.15961898D+05 0.12447570D+01  1  2 12  1  5  1       -4 0.157334971592D-01 0.100000000000D+01
-.130990227757D-03 0.000000000000D+00 0.000000000000D+00 0.137974187195D-02 0.000000000000D+00  5 -4 4 25 23 21 2 0.32981884D-01 0.10842714D-01 0.12026733D+05 0.12026733D+05 0.12026733D+05 0.12589109D+01  1  2  4  1  5  1       -4 -.191945867021D-01 0.100000000000D+01
-.374522616038D-03 0.000000000000D+00 -.128767954371D-03 0.137974187195D-02 0.000000000000D+00  5 -4 4 25 23 21 2 0.42043015D-01 0.10842714D-01 0.12026733D+05 0.12026733D+05 0.12026733D+05 0.12589109D+01  1  2  5  1  5  1       -4 -.342807418913D-01 0.100000000000D+01
0.397707505008D-03 0.000000000000D+00 0.125065389300D-03 0.137974187195D-02 0.000000000000D+00  5 -4 4 25 23 21 2 0.32981884D-01 0.10842714D-01 0.12026733D+05 0.12026733D+05 0.12026733D+05 0.12589109D+01  1  2  6  1  5  1       -4 0.582778678814D-01 0.100000000000D+01
0.393620528734D-05 0.000000000000D+00 0.000000000000D+00 0.137974187195D-02 0.000000000000D+00  5 21 4 25 23 4 2 0.39419727D-01 0.10842714D-01 0.15961898D+05 0.15961898D+05 0.15961898D+05 0.12447570D+01  1  2 12  3  5  1       -4 0.101856983255D-01 0.100000000000D+01
-.103458270846D-04 0.000000000000D+00 -.426392611634D-05 0.137974187195D-02 0.000000000000D+00  5 21 4 25 23 4 2 0.42043015D-01 0.10842714D-01 0.12026733D+05 0.12026733D+05 0.12026733D+05 0.12589109D+01  1  2  5  3  5  1       -4 -.237664881790D-01 0.100000000000D+01
  </mgrwgt>
  </event>
  <event>
  4     66 0.46888340E-03 0.12457573E+03 0.75467711E-02 0.12288792E+00
       -2 -1    0    0    0  501 0.00000000E+00 0.00000000E+00 0.25665100E+02 0.25667095E+02 0.32000000E+00 0.0000E+00 0.9000E+01
        2 -1    0    0  501    0 0.00000000E+00 0.00000000E+00 -.62947250E+03 0.62947258E+03 0.32000000E+00 0.0000E+00 0.9000E+01
       25  1    1    2    0    0 0.57986467E+02 0.20043563E+02 -.27144116E+03 0.30507291E+03 0.12500000E+03 0.0000E+00 0.9000E+01
       23  1    1    2    0    0 -.57986467E+02 -.20043563E+02 -.33236624E+03 0.35006677E+03 0.91188000E+02 0.0000E+00 0.9000E+01
#aMCatNLO 1  0  0  1  2 0.87820051D+01 0.00000000D+00  -5  5  0 0.00000000D+00 0.00000000D+00 0.00000000D+00 0.00000000D+00 0.00000000D+00
  <mgrwgt>
 0.4198980145D-01    6    2    0
 0.127106863924609D+03 0.000000000000000D+00 0.000000000000000D+00 0.127106863924609D+03
 0.127106863924609D+03 0.000000000000000D+00 0.000000000000000D+00 -.127106863924609D+03
 0.141484035287155D+03 0.579864670320155D+02 0.200435625214255D+02 0.250710487162322D+02
 0.112729692562062D+03 -.579864670320155D+02 -.200435625214255D+02 -.250710487162322D+02
 0.000000000000000D+00 0.000000000000000D+00 -.000000000000000D+00 -.000000000000000D+00
 0.129347652468173D+03 0.000000000000000D+00 0.000000000000000D+00 0.129347652468173D+03
 0.136088555897525D+03 0.000000000000000D+00 0.000000000000000D+00 -.136088555897525D+03
 0.141316872233592D+03 0.558545923789405D+02 0.244369679857374D+02 0.250710487162322D+02
 0.113048500883607D+03 -.596884799853812D+02 -.165360237461692D+02 -.250710487162322D+02
 0.110708352485002D+02 0.383388760644067D+01 -.790094423956816D+01 -.674090342935207D+01
0.111212679721D-03 0.000000000000D+00 0.000000000000D+00 0.151962205510D-02 0.000000000000D+00  5 -2 2 25 23 21 0 0.39486366D-02 0.96842083D-01 0.15519112D+05 0.15519112D+05 0.15519112D+05 0.12461416D+01  1  2  2  1  5  1       -2 0.140568217774D+00 0.100000000000D+01
-.617544288583D-05 0.000000000000D+00 -.427085973098D-06 0.151962205510D-02 0.000000000000D+00  5 -2 2 25 23 21 2 0.39486366D-02 0.96842083D-01 0.15519112D+05 0.15519112D+05 0.15519112D+05 0.12461416D+01  1  2  3  1  5  1       -2 -.121209242554D-01 0.100000000000D+01
0.766673143323D-05 0.000000000000D+00 0.000000000000D+00 0.151962205510D-02 0.000000000000D+00  5 -2 2 25 23 21 2 0.39486366D-02 0.96842083D-01 0.15519112D+05 0.15519112D+05 0.15519112D+05 0.12461416D+01  1  2 15  1  5  1       -2 0.150479686569D-01 0.100000000000D+01
-.517507481863D-04 0.000000000000D+00 0.000000000000D+00 0.151962205510D-02 0.000000000000D+00  5 -2 2 25 23 21 2 0.39486366D-02 0.96842083D-01 0.15519112D+05 0.15519112D+05 0.15519112D+05 0.12461416D+01  1  2  4  1  5  1       -2 -.101574398877D+00 0.100000000000D+01
0.253984437466D-07 0.000000000000D+00 0.000000000000D+00 0.151962205510D-02 0.162694325142D-03  5 -2 2 25 23 21 2 0.40182478D-02 0.10368519D+00 0.16652687D+05 0.16652687D+05 0.16652687D+05 0.12426806D+01  1  2 11  1  5  1       -2 0.447434126726D-04 0.100000000000D+01
0.736938299859D-09 0.000000000000D+00 0.000000000000D+00 0.151962205510D-02 0.540661794402D-06  5 21 2 25 23 2 2 0.40182478D-02 0.10368519D+00 0.16652687D+05 0.16652687D+05 0.16652687D+05 0.12426806D+01  1  2 11  3  5  1       -2 0.241947356083D-04 0.100000000000D+01
  </mgrwgt>
  </event>
  <event>
  5     66 0.46888340E-03 0.11013278E+03 0.75467711E-02 0.12194369E+00
       -2 -1    0    0    0  501 0.00000000E+00 0.00000000E+00 0.87126220E+01 0.87184965E+01 0.32000000E+00 0.0000E+00 0.9000E+01
        2 -1    0    0  502    0 0.00000000E+00 0.00000000E+00 -.26295112E+04 0.26295112E+04 0.32000000E+00 0.0000E+00 0.9000E+01
       25  1    1    2    0    0 0.79076055E+01 0.25121735E+02 -.83783171E+03 0.84751437E+03 0.12500000E+03 0.0000E+00 0.9000E+01
       23  1    1    2    0    0 -.30717074E+02 0.14834396E+02 -.15607870E+04 0.15638206E+04 0.91188000E+02 0.0000E+00 0.9000E+01
       21  1    1    2  502  501 0.22809469E+02 -.39956132E+02 -.22217990E+03 0.22689476E+03 0.75000000E+00 0.0000E+00 0.9000E+01
#aMCatNLO 2  0  0  2  1 0.46008307D+02 0.00000000D+00  -5  5  0 0.00000000D+00 0.00000000D+00 0.00000000D+00 0.00000000D+00 0.00000000D+00
  <mgrwgt>
 0.3006434967D-01    1    2    0
 0.121498883131057D+03 0.000000000000000D+00 0.000000000000000D+00 0.121498883131057D+03
 0.121498883131057D+03 0.000000000000000D+00 0.000000000000000D+00 -.121498883131057D+03
 0.136539656485565D+03 0.206553261608648D+02 0.279111392533670D+01 0.508295679446528D+02
 0.106458109776550D+03 -.206553261608648D+02 -.279111392533670D+01 -.508295679446528D+02
 0.000000000000000D+00 0.000000000000000D+00 -.000000000000000D+00 0.000000000000000D+00
 0.169503549013723D+03 0.000000000000000D+00 0.000000000000000D+00 0.169503549013723D+03
 0.135200246187597D+03 0.000000000000000D+00 0.000000000000000D+00 -.135200246187597D+03
 0.137485551153715D+03 0.790760554112589D+01 0.251217350755635D+02 0.508295679446528D+02
 0.109829387168771D+03 -.307170741597243D+02 0.148343964991447D+02 -.508295679446528D+02
 0.573888568788327D+02 0.228094686185984D+02 -.399561315747083D+02 0.343033028261263D+02
0.413468341669D-04 0.000000000000D+00 0.000000000000D+00 0.143124629471D-02 0.588996492398D-05  5 -2 2 25 23 21 2 0.13408336D-02 0.40453366D+00 0.18375441D+05 0.18375441D+05 0.18375441D+05 0.12378972D+01  1  2  1  2  5  2        2 0.300643496698D-01 0.100000000000D+01
  </mgrwgt>
  </event>
  <event>
  4     66 0.46888340E-03 0.11043215E+03 0.75467711E-02 0.12582877E+00
       -2 -1    0    0    0  501 0.00000000E+00 0.00000000E+00 0.93454669E+02 0.93455217E+02 0.32000000E+00 0.0000E+00 0.9000E+01
        2 -1    0    0  501    0 0.00000000E+00 0.00000000E+00 -.13196899E+03 0.13196937E+03 0.32000000E+00 0.0000E+00 0.9000E+01
       25  1    1    2    0    0 0.16792251E+02 0.14730656E+02 -.33898521E+02 0.13142710E+03 0.12500000E+03 0.0000E+00 0.9000E+01
       23  1    1    2    0    0 -.16792251E+02 -.14730656E+02 -.46157946E+01 0.93997494E+02 0.91188000E+02 0.0000E+00 0.9000E+01
#aMCatNLO 1  0  0  1  1 0.16125696D+01 0.00000000D+00  -5  5  0 0.00000000D+00 0.00000000D+00 0.00000000D+00 0.00000000D+00 0.00000000D+00
  <mgrwgt>
 0.1272560065D+00    8    2    0
 0.111055046396657D+03 0.000000000000000D+00 0.000000000000000D+00 0.111055046396657D+03
 0.111055046396657D+03 0.000000000000000D+00 0.000000000000000D+00 -.111055046396657D+03
 0.127510283896382D+03 0.167922514777871D+02 0.147306557487320D+02 -.116146705013569D+02
 0.945998088969316D+02 -.167922514777871D+02 -.147306557487320D+02 0.116146705013569D+02
 0.000000000000000D+00 0.000000000000000D+00 0.000000000000000D+00 -.000000000000000D+00
 0.111142490148633D+03 0.000000000000000D+00 0.000000000000000D+00 0.111142490148633D+03
 0.118749870594722D+03 0.000000000000000D+00 0.000000000000000D+00 -.118749870594722D+03
 0.127375830171257D+03 0.165228234263231D+02 0.138454991598157D+02 -.116146705013569D+02
 0.947401163554864D+02 -.169923937543160D+02 -.153881865953815D+02 0.116146705013569D+02
 0.777641421661165D+01 0.469570327992839D+00 0.154268743556582D+01 -.760738044608891D+01
0.108220744844D-03 0.000000000000D+00 0.000000000000D+00 0.183618020222D-02 0.000000000000D+00  5 -2 2 25 23 21 0 0.14377713D-01 0.20302993D-01 0.12195260D+05 0.12195260D+05 0.12195260D+05 0.12582034D+01  1  2  2  1  5  1       -2 0.100463445985D+00 0.100000000000D+01
-.601203233328D-05 0.000000000000D+00 -.415596155378D-06 0.183618020222D-02 0.000000000000D+00  5 -2 2 25 23 21 2 0.14377713D-01 0.20302993D-01 0.12195260D+05 0.12195260D+05 0.12195260D+05 0.12582034D+01  1  2  3  1  5  1       -2 -.883528504573D-02 0.100000000000D+01
0.746433108917D-05 0.000000000000D+00 0.000000000000D+00 0.183618020222D-02 0.000000000000D+00  5 -2 2 25 23 21 2 0.14377713D-01 0.20302993D-01 0.12195260D+05 0.12195260D+05 0.12195260D+05 0.12582034D+01  1  2 15  1  5  1       -2 0.109695838599D-01 0.100000000000D+01
-.105581075865D-04 0.000000000000D+00 0.000000000000D+00 0.183618020222D-02 0.000000000000D+00  5 -2 2 25 23 21 2 0.14377713D-01 0.20302993D-01 0.12195260D+05 0.12195260D+05 0.12195260D+05 0.12582034D+01  1  2  4  1  5  1       -2 -.155161989987D-01 0.100000000000D+01
0.593952308405D-08 0.000000000000D+00 0.000000000000D+00 0.183618020222D-02 0.000000000000D+00  5 -2 2 25 23 21 2 0.15387001D-01 0.20302993D-01 0.12195260D+05 0.12195260D+05 0.12195260D+05 0.12582034D+01  1  2  5  1  5  1       -2 0.781794824935D-05 0.100000000000D+01
-.592588011583D-08 0.000000000000D+00 0.000000000000D+00 0.183618020222D-02 0.000000000000D+00  5 -2 2 25 23 21 2 0.14377713D-01 0.20302993D-01 0.12195260D+05 0.12195260D+05 0.12195260D+05 0.12582034D+01  1  2  6  1  5  1       -2 -.870867571359D-05 0.100000000000D+01
0.105791096252D-04 0.000000000000D+00 0.000000000000D+00 0.183618020222D-02 0.596808833137D-02  5 -2 2 25 23 21 2 0.14389034D-01 0.21709754D-01 0.12374697D+05 0.12374697D+05 0.12374697D+05 0.12574621D+01  1  2 11  1  5  1       -2 0.143989541372D-01 0.100000000000D+01
0.127101481104D-05 0.000000000000D+00 0.000000000000D+00 0.183618020222D-02 0.910917814165D-06  5 21 2 25 23 2 2 0.14389034D-01 0.21709754D-01 0.12374697D+05 0.12374697D+05 0.12374697D+05 0.12574621D+01  1  2 11  3  5  1       -2 0.257763973077D-01 0.100000000000D+01
  </mgrwgt>
  </event>
  <event>
  4     66 0.46888340E-03 0.10396392E+03 0.75467711E-02 0.11374818E+00
       -2 -1    0    0    0  501 0.00000000E+00 0.00000000E+00 0.27692117E+02 0.27693966E+02 0.32000000E+00 0.0000E+00 0.9000E+01
        2 -1    0    0  501    0 0.00000000E+00 0.00000000E+00 -.18037131E+04 0.18037131E+04 0.32000000E+00 0.0000E+00 0.9000E+01
       25  1    1    2    0    0 -.81238986E+02 -.16476800E+03 -.11891319E+04 0.12097140E+04 0.12500000E+03 0.0000E+00 0.9000E+01
       23  1    1    2    0    0 0.81238986E+02 0.16476800E+03 -.58688911E+03 0.62169313E+03 0.91188000E+02 0.0000E+00 0.9000E+01
#aMCatNLO 1  0  0  2  1 0.31825442D+01 0.00000000D+00  -5  5  0 0.00000000D+00 0.00000000D+00 0.00000000D+00 0.00000000D+00 0.00000000D+00
  <mgrwgt>
 0.3199106689D+00   11    2    0
 0.223495759034024D+03 0.000000000000000D+00 0.000000000000000D+00 0.223495759034024D+03
 0.223495759034024D+03 0.000000000000000D+00 0.000000000000000D+00 -.223495759034024D+03
 0.231672366822460D+03 -.812389857194460D+02 -.164768004538167D+03 -.655653676029244D+02
 0.215319151245588D+03 0.812389857194460D+02 0.164768004538167D+03 0.655653676029244D+02
 0.000000000000000D+00 -.000000000000000D+00 0.000000000000000D+00 -.000000000000000D+00
 0.223898454074411D+03 0.000000000000000D+00 0.000000000000000D+00 0.223898454074411D+03
 0.229879141618978D+03 0.000000000000000D+00 0.000000000000000D+00 -.229879141618978D+03
 0.232705524658870D+03 -.808953687215759D+02 -.166385044692284D+03 -.655653676029244D+02
 0.214297322996766D+03 0.815568809634332D+02 0.163272009353073D+03 0.655653676029244D+02
 0.677474803775375D+01 -.661512241857305D+00 0.311303533921110D+01 -.598068754456743D+01
0.428400826662D-03 0.000000000000D+00 0.000000000000D+00 0.100359752533D-02 0.000000000000D+00  5 -2 2 25 23 21 0 0.42604701D-02 0.27749447D+00 0.45645231D+05 0.45645231D+05 0.45645231D+05 0.11962211D+01  1  2  2  2  5  2        2 0.100993022029D+00 0.100000000000D+01
-.237412777100D-04 0.000000000000D+00 -.164517197491D-05 0.100359752533D-02 0.000000000000D+00  5 -2 2 25 23 21 2 0.42604701D-02 0.27749447D+00 0.45645231D+05 0.45645231D+05 0.45645231D+05 0.11962211D+01  1  2  3  2  5  2        2 -.800881098494D-02 0.100000000000D+01
0.293857346274D-04 0.000000000000D+00 0.000000000000D+00 0.100359752533D-02 0.000000000000D+00  5 -2 2 25 23 21 2 0.42604701D-02 0.27749447D+00 0.45645231D+05 0.45645231D+05 0.45645231D+05 0.11962211D+01  1  2 15  2  5  2        2 0.991289504968D-02 0.100000000000D+01
0.520005700546D-04 0.000000000000D+00 0.000000000000D+00 0.100359752533D-02 0.000000000000D+00  5 -2 2 25 23 21 2 0.42604701D-02 0.28566620D+00 0.46328557D+05 0.46328557D+05 0.46328557D+05 0.11955759D+01  1  2 12  2  5  2        2 0.164408860398D-01 0.100000000000D+01
-.148243555554D-01 0.000000000000D+00 0.000000000000D+00 0.100359752533D-02 0.000000000000D+00  5 -2 2 25 23 21 2 0.42604701D-02 0.27749447D+00 0.45645231D+05 0.45645231D+05 0.45645231D+05 0.11962211D+01  1  2  4  2  5  2        2 -.500080337152D+01 0.100000000000D+01
-.254081765836D-01 0.000000000000D+00 -.173651131879D-02 0.100359752533D-02 0.000000000000D+00  5 -2 2 25 23 21 2 0.42604701D-02 0.28561106D+00 0.45645231D+05 0.45645231D+05 0.45645231D+05 0.11962211D+01  1  2  5  2  5  2        2 -.804594191277D+01 0.100000000000D+01
0.254483848846D-01 0.000000000000D+00 0.173578990400D-02 0.100359752533D-02 0.000000000000D+00  5 -2 2 25 23 21 2 0.42604701D-02 0.27749447D+00 0.45645231D+05 0.45645231D+05 0.45645231D+05 0.11962211D+01  1  2  6  2  5  2        2 0.858468136812D+01 0.100000000000D+01
0.147781978842D-01 0.000000000000D+00 0.000000000000D+00 0.100359752533D-02 0.755718477612D-03  5 -2 2 25 23 21 2 0.42681467D-02 0.28542014D+00 0.46328557D+05 0.46328557D+05 0.46328557D+05 0.11955759D+01  1  2 11  2  5  2        2 0.466866680437D+01 0.100000000000D+01
0.181657688978D-05 0.000000000000D+00 0.000000000000D+00 0.100359752533D-02 0.000000000000D+00  5 -2 21 25 23 -2 2 0.42604701D-02 0.28566620D+00 0.46328557D+05 0.46328557D+05 0.46328557D+05 0.11955759D+01  1  2 12  4  5  2        2 0.204072252982D-03 0.100000000000D+01
-.131074331385D-03 0.000000000000D+00 -.899389332365D-05 0.100359752533D-02 0.000000000000D+00  5 -2 21 25 23 -2 2 0.42604701D-02 0.28561106D+00 0.45645231D+05 0.45645231D+05 0.45645231D+05 0.11962211D+01  1  2  5  4  5  2        2 -.147686334912D-01 0.100000000000D+01
0.759262222893D-04 0.000000000000D+00 0.000000000000D+00 0.100359752533D-02 0.382092714016D-05  5 -2 21 25 23 -2 2 0.42681467D-02 0.28542014D+00 0.46328557D+05 0.46328557D+05 0.46328557D+05 0.11955759D+01  1  2 11  4  5  2        2 0.853434983986D-02 0.100000000000D+01
  </mgrwgt>
  </event>
  <event>
  5     66 -.46888340E-03 0.11567951E+03 0.75467711E-02 0.12377882E+00
       -4 -1    0    0    0  501 0.00000000E+00 0.00000000E+00 0.17644069E+04 0.17644076E+04 0.15500000E+01 0.0000E+00 0.9000E+01
        4 -1    0    0  502    0 0.00000000E+00 0.00000000E+00 -.85594818E+01 0.86986912E+01 0.15500000E+01 0.0000E+00 0.9000E+01
       25  1    1    2    0    0 -.14062466E+02 0.46350110E+02 0.96763817E+03 0.97688009E+03 0.12500000E+03 0.0000E+00 0.9000E+01
       23  1    1    2    0    0 0.47451890E+01 -.34946905E+02 0.66833973E+03 0.67545322E+03 0.91188000E+02 0.0000E+00 0.9000E+01
       21  1    1    2  502  501 0.93172774E+01 -.11403204E+02 0.11986955E+03 0.12077300E+03 0.75000000E+00 0.0000E+00 0.9000E+01
#aMCatNLO 2  0  0  2  1 0.14725649D+02 0.00000000D+00  -5  5  0 0.00000000D+00 0.00000000D+00 0.00000000D+00 0.00000000D+00 0.00000000D+00
  <mgrwgt>
 -.2188807613D-01    2    2    0
 0.115720385928504D+03 0.000000000000000D+00 0.000000000000000D+00 0.115720385928504D+03
 0.115720385928504D+03 0.000000000000000D+00 0.000000000000000D+00 -.115720385928504D+03
 0.131512220265533D+03 -.872157858149524D+01 0.398135182433447D+02 0.304662293427236D+01
 0.999285515914744D+02 0.872157858149524D+01 -.398135182433447D+02 -.304662293427236D+01
 0.000000000000000D+00 0.000000000000000D+00 -.000000000000000D+00 0.000000000000000D+00
 0.124430522647690D+03 0.000000000000000D+00 0.000000000000000D+00 0.124430522647690D+03
 0.122350122225990D+03 0.000000000000000D+00 0.000000000000000D+00 -.122350122225990D+03
 0.134090892767356D+03 -.140624663532505D+02 0.463501095134269D+02 0.304662293427236D+01
 0.978178729194978D+02 0.474518896572974D+01 -.349469052831707D+02 -.304662293427236D+01
 0.148718791868259D+02 0.931727738752072D+01 -.114032042302562D+02 0.208040042169972D+01
-.154035844720D-02 0.000000000000D+00 0.000000000000D+00 0.174937406663D-02 0.000000000000D+00  5 -4 4 25 23 21 2 0.25243657D+00 0.13717770D-02 0.15197014D+05 0.15197014D+05 0.15197014D+05 0.12471770D+01  1  2 13  2  5  2        4 -.510683351173D-01 0.100000000000D+01
0.107565821713D-02 0.000000000000D+00 0.000000000000D+00 0.174937406663D-02 0.671869718247D-04  5 -4 4 25 23 21 2 0.27143717D+00 0.13275024D-02 0.15197014D+05 0.15197014D+05 0.15197014D+05 0.12471770D+01  1  2  1  2  5  2        4 0.291802589825D-01 0.100000000000D+01
  </mgrwgt>
  </event>
  <event>
  4     66 0.46888340E-03 0.58531033E+02 0.75467711E-02 0.12008639E+00
       -2 -1    0    0    0  501 0.00000000E+00 0.00000000E+00 0.17338936E+02 0.17341889E+02 0.32000000E+00 0.0000E+00 0.9000E+01
        2 -1    0    0  501    0 0.00000000E+00 0.00000000E+00 -.84264253E+03 0.84264259E+03 0.32000000E+00 0.0000E+00 0.9000E+01
       25  1    1    2    0    0 -.32838409E+02 0.41487046E+02 -.49417230E+03 0.51247517E+03 0.12500000E+03 0.0000E+00 0.9000E+01
       23  1    1    2    0    0 0.32838409E+02 -.41487046E+02 -.33113130E+03 0.34750932E+03 0.91188000E+02 0.0000E+00 0.9000E+01
#aMCatNLO 1  0  0  1  2 0.52553517D+02 0.00000000D+00  -5  5  0 0.00000000D+00 0.00000000D+00 0.00000000D+00 0.00000000D+00 0.00000000D+00
  <mgrwgt>
 0.1580147567D+00    9    2    0
 0.120879363938369D+03 0.000000000000000D+00 0.000000000000000D+00 0.120879363938369D+03
 0.120879363938369D+03 0.000000000000000D+00 0.000000000000000D+00 -.120879363938369D+03
 0.135997222805758D+03 -.328384090441237D+02 0.414870457854967D+02 -.840883668065321D+01
 0.105761505070980D+03 0.328384090441237D+02 -.414870457854967D+02 0.840883668065321D+01
 0.000000000000000D+00 -.000000000000000D+00 -.000000000000000D+00 0.000000000000000D+00
 0.170698099461674D+03 0.000000000000000D+00 0.000000000000000D+00 0.170698099461674D+03
 0.138394579859436D+03 0.000000000000000D+00 0.000000000000000D+00 -.138394579859436D+03
 0.147148801695638D+03 -.287435198987813D+02 0.716301010048761D+02 -.840883668065321D+01
 0.100256037965577D+03 0.358178575538320D+02 -.195549060464795D+02 0.840883668065321D+01
 0.616878396598946D+02 -.707433765505073D+01 -.520751949583967D+02 0.323035196022381D+02
0.836307881732D-04 0.000000000000D+00 0.000000000000D+00 0.165191489196D-02 0.000000000000D+00  5 -2 2 25 23 21 0 0.26677604D-02 0.12963754D+00 0.14539983D+05 0.14539983D+05 0.14539983D+05 0.12493676D+01  1  2  2  1  5  1       -2 0.132260506355D+00 0.100000000000D+01
-.464612059399D-05 0.000000000000D+00 -.321164247077D-06 0.165191489196D-02 0.000000000000D+00  5 -2 2 25 23 21 2 0.26677604D-02 0.12963754D+00 0.14539983D+05 0.14539983D+05 0.14539983D+05 0.12493676D+01  1  2  3  1  5  1       -2 -.114692484983D-01 0.100000000000D+01
0.577820260059D-05 0.000000000000D+00 0.000000000000D+00 0.165191489196D-02 0.000000000000D+00  5 -2 2 25 23 21 2 0.26677604D-02 0.12963754D+00 0.14539983D+05 0.14539983D+05 0.14539983D+05 0.12493676D+01  1  2 15  1  5  1       -2 0.142638659843D-01 0.100000000000D+01
0.393122552579D-04 0.000000000000D+00 0.000000000000D+00 0.165191489196D-02 0.000000000000D+00  5 -2 2 25 23 21 2 0.38975075D-02 0.12963754D+00 0.22404796D+05 0.22404796D+05 0.22404796D+05 0.12284340D+01  1  2 12  1  5  1       -2 0.544228333986D-01 0.100000000000D+01
-.512842091294D-04 0.000000000000D+00 0.000000000000D+00 0.165191489196D-02 0.000000000000D+00  5 -2 2 25 23 21 2 0.26677604D-02 0.12963754D+00 0.14539983D+05 0.14539983D+05 0.14539983D+05 0.12493676D+01  1  2  4  1  5  1       -2 -.126598379582D+00 0.100000000000D+01
-.693936749781D-04 0.000000000000D+00 -.285677152990D-04 0.165191489196D-02 0.000000000000D+00  5 -2 2 25 23 21 2 0.43235930D-02 0.12963754D+00 0.14539983D+05 0.14539983D+05 0.14539983D+05 0.12493676D+01  1  2  5  1  5  1       -2 -.841485995443D-01 0.100000000000D+01
0.770630149009D-04 0.000000000000D+00 0.255330305246D-04 0.165191489196D-02 0.000000000000D+00  5 -2 2 25 23 21 2 0.26677604D-02 0.12963754D+00 0.14539983D+05 0.14539983D+05 0.14539983D+05 0.12493676D+01  1  2  6  1  5  1       -2 0.190235025123D+00 0.100000000000D+01
0.179932118979D-05 0.000000000000D+00 0.000000000000D+00 0.165191489196D-02 0.000000000000D+00  5 21 2 25 23 2 2 0.38975075D-02 0.12963754D+00 0.22404796D+05 0.22404796D+05 0.22404796D+05 0.12284340D+01  1  2 12  3  5  1       -2 0.464669335367D-01 0.100000000000D+01
-.256881939215D-05 0.000000000000D+00 -.156712801374D-05 0.165191489196D-02 0.000000000000D+00  5 21 2 25 23 2 2 0.43235930D-02 0.12963754D+00 0.14539983D+05 0.14539983D+05 0.14539983D+05 0.12493676D+01  1  2  5  3  5  1       -2 -.574181800335D-01 0.100000000000D+01
  </mgrwgt>
  </event>
  <event>
  4     66 0.46888340E-03 0.15692441E+03 0.75467711E-02 0.11392949E+00
       -2 -1    0    0    0  501 0.00000000E+00 0.00000000E+00 0.86623002E+02 0.86623593E+02 0.32000000E+00 0.0000E+00 0.9000E+01
        2 -1    0    0  501    0 0.00000000E+00 0.00000000E+00 -.28673310E+03 0.28673328E+03 0.32000000E+00 0.0000E+00 0.9000E+01
       25  1    1    2    0    0 0.11183407E+03 0.16849329E+02 -.12463862E+03 0.20964385E+03 0.12500000E+03 0.0000E+00 0.9000E+01
       23  1    1    2    0    0 -.11183407E+03 -.16849329E+02 -.75471481E+02 0.16371302E+03 0.91188000E+02 0.0000E+00 0.9000E+01
#aMCatNLO 1  0  0  2  2 0.97224041D+02 0.00000000D+00  -5  5  0 0.00000000D+00 0.00000000D+00 0.00000000D+00 0.00000000D+00 0.00000000D+00
  <mgrwgt>
 0.1403411409D+00    7    2    0
 0.157600208646600D+03 0.000000000000000D+00 0.000000000000000D+00 0.157600208646600D+03
 0.157600208646600D+03 0.000000000000000D+00 0.000000000000000D+00 -.157600208646600D+03
 0.169195606772613D+03 0.111834066880102D+03 0.168493288839783D+02 -.145394275117359D+02
 0.146004810520588D+03 -.111834066880102D+03 -.168493288839783D+02 0.145394275117359D+02
 0.000000000000000D+00 0.000000000000000D+00 -.000000000000000D+00 -.000000000000000D+00
 0.203585528186741D+03 0.000000000000000D+00 0.000000000000000D+00 0.203585528186741D+03
 0.226055564853504D+03 0.000000000000000D+00 0.000000000000000D+00 -.226055564853504D+03
 0.152737611132467D+03 0.731966740550613D+02 0.462020541681961D+02 -.145394275117359D+02
 0.177116625268831D+03 -.150614065806675D+03 0.126117338789369D+02 0.145394275117359D+02
 0.997868566389458D+02 0.774173917516134D+02 -.588137880471330D+02 -.224700366667629D+02
0.310839468444D-03 0.000000000000D+00 0.000000000000D+00 0.128941960976D-02 0.000000000000D+00  5 -2 2 25 23 21 0 0.13326675D-01 0.44112844D-01 0.24625270D+05 0.24625270D+05 0.24625270D+05 0.12240015D+01  1  2  2  2  5  2        2 0.143870723263D+00 0.100000000000D+01
-.172684716252D-04 0.000000000000D+00 -.119370540474D-05 0.128941960976D-02 0.000000000000D+00  5 -2 2 25 23 21 2 0.13326675D-01 0.44112844D-01 0.24625270D+05 0.24625270D+05 0.24625270D+05 0.12240015D+01  1  2  3  2  5  2        2 -.119744080281D-01 0.100000000000D+01
0.213943118543D-04 0.000000000000D+00 0.000000000000D+00 0.128941960976D-02 0.000000000000D+00  5 -2 2 25 23 21 2 0.13326675D-01 0.44112844D-01 0.24625270D+05 0.24625270D+05 0.24625270D+05 0.12240015D+01  1  2 15  2  5  2        2 0.148353731115D-01 0.100000000000D+01
-.139396944002D-03 0.000000000000D+00 0.000000000000D+00 0.128941960976D-02 0.000000000000D+00  5 -2 2 25 23 21 2 0.13326675D-01 0.44112844D-01 0.24625270D+05 0.24625270D+05 0.24625270D+05 0.12240015D+01  1  2  4  2  5  2        2 -.966614719346D-01 0.100000000000D+01
-.178491528282D-03 0.000000000000D+00 -.126018655514D-03 0.128941960976D-02 0.000000000000D+00  5 -2 2 25 23 21 2 0.13326675D-01 0.78944391D-01 0.24625270D+05 0.24625270D+05 0.24625270D+05 0.12240015D+01  1  2  5  2  5  2        2 -.661379271697D-01 0.100000000000D+01
0.230395322863D-03 0.000000000000D+00 0.107323685903D-03 0.128941960976D-02 0.000000000000D+00  5 -2 2 25 23 21 2 0.13326675D-01 0.44112844D-01 0.24625270D+05 0.24625270D+05 0.24625270D+05 0.12240015D+01  1  2  6  2  5  2        2 0.159762118132D+00 0.100000000000D+01
-.476830266300D-05 0.000000000000D+00 -.805445797230D-05 0.128941960976D-02 0.000000000000D+00  5 -2 21 25 23 -2 2 0.13326675D-01 0.78944391D-01 0.24625270D+05 0.24625270D+05 0.24625270D+05 0.12240015D+01  1  2  5  4  5  2        2 -.335326652106D-02 0.100000000000D+01
  </mgrwgt>
  </event>
  <event>
  4     66 0.46888340E-03 0.58701053E+02 0.75467711E-02 0.12405745E+00
       -2 -1    0    0    0  501 0.00000000E+00 0.00000000E+00 0.79096097E+01 0.79160802E+01 0.32000000E+00 0.0000E+00 0.9000E+01
        2 -1    0    0  501    0 0.00000000E+00 0.00000000E+00 -.15877287E+04 0.15877287E+04 0.32000000E+00 0.0000E+00 0.9000E+01
       25  1    1    2    0    0 -.42169242E+01 0.22319283E+02 -.10366808E+04 0.10444367E+04 0.12500000E+03 0.0000E+00 0.9000E+01
       23  1    1    2    0    0 0.42169242E+01 -.22319283E+02 -.54313830E+03 0.55120813E+03 0.91188000E+02 0.0000E+00 0.9000E+01
#aMCatNLO 1  0  0  1  2 0.21049184D+02 0.00000000D+00  -5  5  0 0.00000000D+00 0.00000000D+00 0.00000000D+00 0.00000000D+00 0.00000000D+00
  <mgrwgt>
 0.1446085192D+00    9    2    0
 0.112087029569421D+03 0.000000000000000D+00 0.000000000000000D+00 0.112087029569421D+03
 0.112087029569421D+03 0.000000000000000D+00 0.000000000000000D+00 -.112087029569421D+03
 0.128390764007027D+03 -.421692420226960D+01 0.223192827165438D+02 -.185271544388088D+02
 0.957832951318139D+02 0.421692420226960D+01 -.223192827165438D+02 0.185271544388088D+02
 0.000000000000000D+00 -.000000000000000D+00 0.000000000000000D+00 0.000000000000000D+00
 0.126931353470027D+03 0.000000000000000D+00 0.000000000000000D+00 0.126931353470027D+03
 0.120298316951115D+03 0.000000000000000D+00 0.000000000000000D+00 -.120298316951115D+03
 0.127282640193164D+03 0.482748114690323D+01 0.144675660952122D+02 -.185271544388088D+02
 0.978774738097812D+02 0.110676426022516D+02 -.282665946129660D+02 0.185271544388088D+02
 0.220695564181962D+02 -.158951237491548D+02 0.137990285177539D+02 0.663303651891161D+01
0.848438028291D-04 0.000000000000D+00 0.000000000000D+00 0.179097717135D-02 0.000000000000D+00  5 -2 2 25 23 21 0 0.12173632D-02 0.24426645D+00 0.12212609D+05 0.12212609D+05 0.12212609D+05 0.12581312D+01  1  2  2  1  5  1       -2 0.158869926396D+00 0.100000000000D+01
-.471239494086D-05 0.000000000000D+00 -.325822542750D-06 0.179097717135D-02 0.000000000000D+00  5 -2 2 25 23 21 2 0.12173632D-02 0.24426645D+00 0.12212609D+05 0.12212609D+05 0.12212609D+05 0.12581312D+01  1  2  3  1  5  1       -2 -.139673850227D-01 0.100000000000D+01
0.586112358975D-05 0.000000000000D+00 0.000000000000D+00 0.179097717135D-02 0.000000000000D+00  5 -2 2 25 23 21 2 0.12173632D-02 0.24426645D+00 0.12212609D+05 0.12212609D+05 0.12212609D+05 0.12581312D+01  1  2 15  1  5  1       -2 0.173721792997D-01 0.100000000000D+01
0.875477505688D-04 0.000000000000D+00 0.000000000000D+00 0.179097717135D-02 0.000000000000D+00  5 -2 2 25 23 21 2 0.14184759D-02 0.24426645D+00 0.14772481D+05 0.14772481D+05 0.14772481D+05 0.12485800D+01  1  2 12  1  5  1       -2 0.206446034199D+00 0.100000000000D+01
-.821183371418D-04 0.000000000000D+00 0.000000000000D+00 0.179097717135D-02 0.000000000000D+00  5 -2 2 25 23 21 2 0.12173632D-02 0.24426645D+00 0.12212609D+05 0.12212609D+05 0.12212609D+05 0.12581312D+01  1  2  4  1  5  1       -2 -.243396074964D+00 0.100000000000D+01
-.211555289507D-03 0.000000000000D+00 -.552639326078D-04 0.179097717135D-02 0.000000000000D+00  5 -2 2 25 23 21 2 0.14909089D-02 0.24426645D+00 0.12212609D+05 0.12212609D+05 0.12212609D+05 0.12581312D+01  1  2  5  1  5  1       -2 -.469170675569D+00 0.100000000000D+01
0.219351731695D-03 0.000000000000D+00 0.541477412182D-04 0.179097717135D-02 0.000000000000D+00  5 -2 2 25 23 21 2 0.12173632D-02 0.24426645D+00 0.12212609D+05 0.12212609D+05 0.12212609D+05 0.12581312D+01  1  2  6  1  5  1       -2 0.650151383838D+00 0.100000000000D+01
0.202814604132D-05 0.000000000000D+00 0.000000000000D+00 0.179097717135D-02 0.000000000000D+00  5 21 2 25 23 2 2 0.14184759D-02 0.24426645D+00 0.14772481D+05 0.14772481D+05 0.14772481D+05 0.12485800D+01  1  2 12  3  5  1       -2 0.106261653669D+00 0.100000000000D+01
-.546523910409D-05 0.000000000000D+00 -.159779841809D-05 0.179097717135D-02 0.000000000000D+00  5 21 2 25 23 2 2 0.14909089D-02 0.24426645D+00 0.12212609D+05 0.12212609D+05 0.12212609D+05 0.12581312D+01  1  2  5  3  5  1       -2 -.267958522662D+00 0.100000000000D+01
  </mgrwgt>
  </event>
  <event>
  5     66 -.46888340E-03 0.10966497E+03 0.75467711E-02 0.12441301E+00
       21 -1    0    0  502  501 0.00000000E+00 0.00000000E+00 0.29724584E+01 0.30656172E+01 0.75000000E+00 0.0000E+00 0.9000E+01
        2 -1    0    0  501    0 0.00000000E+00 0.00000000E+00 -.51163149E+04 0.51163149E+04 0.32000000E+00 0.0000E+00 0.9000E+01
       25  1    1    2    0    0 0.34622074E+01 0.27889447E+02 -.33493145E+04 0.33517640E+04 0.12500000E+03 0.0000E+00 0.9000E+01
       23  1    1    2    0    0 -.71195328E+01 -.95861186E+01 -.13223472E+04 0.13255414E+04 0.91188000E+02 0.0000E+00 0.9000E+01
        2  1    1    2  502    0 0.36573254E+01 -.18303328E+02 -.44168076E+03 0.44207509E+03 0.32000000E+00 0.0000E+00 0.9000E+01
#aMCatNLO 2  0  0  1  2 0.18665151D+02 0.00000000D+00  -5  5  0 0.00000000D+00 0.00000000D+00 0.00000000D+00 0.00000000D+00 0.00000000D+00
  <mgrwgt>
 -.9310914061D-02    2    2    0
 0.114471514607798D+03 0.000000000000000D+00 0.000000000000000D+00 0.114471514607798D+03
 0.114471514607798D+03 0.000000000000000D+00 0.000000000000000D+00 -.114471514607798D+03
 0.130435636077328D+03 0.555628518179152D+01 0.174094953863986D+02 -.324729475758951D+02
 0.985073931382679D+02 -.555628518179152D+01 -.174094953863986D+02 0.324729475758951D+02
 0.000000000000000D+00 0.000000000000000D+00 -.000000000000000D+00 -.000000000000000D+00
 0.122874620721403D+03 0.000000000000000D+00 0.000000000000000D+00 0.122874620721403D+03
 0.125706811651614D+03 0.000000000000000D+00 0.000000000000000D+00 -.125706811651614D+03
 0.132171481231996D+03 0.346220741801925D+01 0.278894468677257D+02 -.324729475758951D+02
 0.975311493132391D+02 -.711953280735558D+01 -.958611864622475D+01 0.324729475758951D+02
 0.188788018277815D+02 0.365732538933633D+01 -.183033282215010D+02 -.283219093021039D+01
-.519220666768D-05 0.000000000000D+00 0.000000000000D+00 0.167148444449D-02 0.000000000000D+00  5 21 2 25 23 2 2 0.48399148D-03 0.71677317D+00 0.14250619D+05 0.14250619D+05 0.14250619D+05 0.12503679D+01  1  2 13  3  5  1       -2 -.163243725559D-01 0.100000000000D+01
0.669503582826D-05 0.000000000000D+00 0.000000000000D+00 0.167148444449D-02 0.521064781349D-06  5 21 2 25 23 2 2 0.46446305D-03 0.78712394D+00 0.14250619D+05 0.14250619D+05 0.14250619D+05 0.12503679D+01  1  2  1  3  5  1       -2 0.701345849496D-02 0.100000000000D+01
  </mgrwgt>
  </event>
  <event>
  4     66 0.46888340E-03 0.34971288E+02 0.75467711E-02 0.12331844E+00
       -2 -1    0    0    0  501 0.00000000E+00 0.00000000E+00 0.11741812E+03 0.11741855E+03 0.32000000E+00 0.0000E+00 0.9000E+01
        2 -1    0    0  501    0 0.00000000E+00 0.00000000E+00 -.10492318E+03 0.10492367E+03 0.32000000E+00 0.0000E+00 0.9000E+01
       25  1    1    2    0    0 0.81916454E+01 -.33006900E+01 -.16163515E+02 0.12634974E+03 0.12500000E+03 0.0000E+00 0.9000E+01
       23  1    1    2    0    0 -.81916454E+01 0.33006900E+01 0.28658454E+02 0.95992479E+02 0.91188000E+02 0.0000E+00 0.9000E+01
#aMCatNLO 1  0  0  1  2 0.33018469D+02 0.00000000D+00  -5  5  0 0.00000000D+00 0.00000000D+00 0.00000000D+00 0.00000000D+00 0.00000000D+00
  <mgrwgt>
 0.1934368856D+00    9    2    0
 0.110995426354353D+03 0.000000000000000D+00 0.000000000000000D+00 0.110995426354353D+03
 0.110995426354353D+03 0.000000000000000D+00 0.000000000000000D+00 -.110995426354353D+03
 0.127459502614270D+03 0.819164539192026D+01 -.330069002279459D+01 -.233007982228826D+02
 0.945313500944371D+02 -.819164539192026D+01 0.330069002279459D+01 0.233007982228826D+02
 0.000000000000000D+00 -.000000000000000D+00 0.000000000000000D+00 0.000000000000000D+00
 0.133772469330920D+03 0.000000000000000D+00 0.000000000000000D+00 0.133772469330920D+03
 0.124860529783516D+03 0.000000000000000D+00 0.000000000000000D+00 -.124860529783516D+03
 0.129919109632288D+03 0.181841198798784D+02 -.195034774852403D+02 -.233007982228826D+02
 0.945138603449952D+02 -.852148819543475D+00 -.860029638321325D+01 0.233007982228826D+02
 0.342000291371520D+02 -.173319710603349D+02 0.281037738684536D+02 0.891193954740423D+01
0.161897690401D-03 0.000000000000D+00 0.000000000000D+00 0.179376009424D-02 0.000000000000D+00  5 -2 2 25 23 21 0 0.18064397D-01 0.16142098D-01 0.11764253D+05 0.11764253D+05 0.11764253D+05 0.12600353D+01  1  2  2  1  5  1       -2 0.133986412934D+00 0.100000000000D+01
-.898849149465D-05 0.000000000000D+00 -.621729759781D-06 0.179376009424D-02 0.000000000000D+00  5 -2 2 25 23 21 2 0.18064397D-01 0.16142098D-01 0.11764253D+05 0.11764253D+05 0.11764253D+05 0.12600353D+01  1  2  3  1  5  1       -2 -.118106095091D-01 0.100000000000D+01
0.110921374051D-04 0.000000000000D+00 0.000000000000D+00 0.179376009424D-02 0.000000000000D+00  5 -2 2 25 23 21 2 0.18064397D-01 0.16142098D-01 0.11764253D+05 0.11764253D+05 0.11764253D+05 0.12600353D+01  1  2 15  1  5  1       -2 0.145747374396D-01 0.100000000000D+01
0.102330655379D-03 0.000000000000D+00 0.000000000000D+00 0.179376009424D-02 0.000000000000D+00  5 -2 2 25 23 21 2 0.22710275D-01 0.16142098D-01 0.15929929D+05 0.15929929D+05 0.15929929D+05 0.12448555D+01  1  2 12  1  5  1       -2 0.901963340627D-01 0.100000000000D+01
-.101811624915D-03 0.000000000000D+00 0.000000000000D+00 0.179376009424D-02 0.000000000000D+00  5 -2 2 25 23 21 2 0.18064397D-01 0.16142098D-01 0.11764253D+05 0.11764253D+05 0.11764253D+05 0.12600353D+01  1  2  4  1  5  1       -2 -.133777435965D+00 0.100000000000D+01
-.221045124045D-03 0.000000000000D+00 -.755324193500D-04 0.179376009424D-02 0.000000000000D+00  5 -2 2 25 23 21 2 0.24338927D-01 0.16142098D-01 0.11764253D+05 0.11764253D+05 0.11764253D+05 0.12600353D+01  1  2  5  1  5  1       -2 -.175245728223D+00 0.100000000000D+01
0.236224467007D-03 0.000000000000D+00 0.722955935713D-04 0.179376009424D-02 0.000000000000D+00  5 -2 2 25 23 21 2 0.18064397D-01 0.16142098D-01 0.11764253D+05 0.11764253D+05 0.11764253D+05 0.12600353D+01  1  2  6  1  5  1       -2 0.310391898125D+00 0.100000000000D+01
0.324333882377D-05 0.000000000000D+00 0.000000000000D+00 0.179376009424D-02 0.000000000000D+00  5 21 2 25 23 2 2 0.22710275D-01 0.16142098D-01 0.15929929D+05 0.15929929D+05 0.15929929D+05 0.12448555D+01  1  2 12  3  5  1       -2 0.393692667145D-01 0.100000000000D+01
-.682888724614D-05 0.000000000000D+00 -.290658900701D-05 0.179376009424D-02 0.000000000000D+00  5 21 2 25 23 2 2 0.24338927D-01 0.16142098D-01 0.11764253D+05 0.11764253D+05 0.11764253D+05 0.12600353D+01  1  2  5  3  5  1       -2 -.742479900033D-01 0.100000000000D+01
  </mgrwgt>
  </event>
  <event>
  4     66 0.46888340E-03 0.11042244E+03 0.75467711E-02 0.11150916E+00
       -2 -1    0    0    0  501 0.00000000E+00 0.00000000E+00 0.15139340E+02 0.15142722E+02 0.32000000E+00 0.0000E+00 0.9000E+01
        2 -1    0    0  501    0 0.00000000E+00 0.00000000E+00 -.80753814E+03 0.80753820E+03 0.32000000E+00 0.0000E+00 0.9000E+01
       25  1    1    2    0    0 0.15467389E+02 -.16051043E+02 -.47682886E+03 0.49344466E+03 0.12500000E+03 0.0000E+00 0.9000E+01
       23  1    1    2    0    0 -.15467389E+02 0.16051043E+02 -.31556994E+03 0.32923626E+03 0.91188000E+02 0.0000E+00 0.9000E+01
#aMCatNLO 1  0  0  1  1 0.19786468D+03 0.00000000D+00  -5  5  0 0.00000000D+00 0.00000000D+00 0.00000000D+00 0.00000000D+00 0.00000000D+00
  <mgrwgt>
 0.1720829482D+00    3    2    0
 0.110575817587689D+03 0.000000000000000D+00 0.000000000000000D+00 0.110575817587689D+03
 0.110575817587689D+03 0.000000000000000D+00 0.000000000000000D+00 -.110575817587689D+03
 0.127102371077116D+03 0.154673886391765D+02 -.160510433346858D+02 -.575644247583182D+01
 0.940492640982632D+02 -.154673886391765D+02 0.160510433346858D+02 0.575644247583182D+01
 0.000000000000000D+00 0.000000000000000D+00 0.000000000000000D+00 -.000000000000000D+00
 0.198118519801730D+03 0.000000000000000D+00 0.000000000000000D+00 0.198118519801730D+03
 0.345127760392458D+03 0.000000000000000D+00 0.000000000000000D+00 -.345127760392458D+03
 0.159637295305711D+03 -.921531342247302D+02 -.365202584205559D+02 -.575644247583182D+01
 0.137109191160109D+03 -.102226901660668D+03 -.450448067915922D+00 0.575644247583182D+01
 0.246499793728368D+03 0.194380035885398D+03 0.369707064884718D+02 -.147009240590728D+03
0.834994206849D-04 0.000000000000D+00 0.000000000000D+00 0.185844235946D-02 0.000000000000D+00  5 -2 2 25 23 21 0 0.23293942D-02 0.12423690D+00 0.12193116D+05 0.12193116D+05 0.12193116D+05 0.12582123D+01  1  2  2  1  5  1       -2 0.168470967571D+00 0.100000000000D+01
-.463884583817D-05 0.000000000000D+00 -.320659761332D-06 0.185844235946D-02 0.000000000000D+00  5 -2 2 25 23 21 2 0.23293942D-02 0.12423690D+00 0.12193116D+05 0.12193116D+05 0.12193116D+05 0.12582123D+01  1  2  3  1  5  1       -2 -.148169705892D-01 0.100000000000D+01
0.576967221155D-05 0.000000000000D+00 0.000000000000D+00 0.185844235946D-02 0.000000000000D+00  5 -2 2 25 23 21 2 0.23293942D-02 0.12423690D+00 0.12193116D+05 0.12193116D+05 0.12193116D+05 0.12582123D+01  1  2 15  1  5  1       -2 0.184289511767D-01 0.100000000000D+01
  </mgrwgt>
  </event>
  <event>
  5     66 0.46888340E-03 0.10874351E+03 0.75467711E-02 0.10935303E+00
       21 -1    0    0  502  501 0.00000000E+00 0.00000000E+00 0.96999224E+03 0.96999253E+03 0.75000000E+00 0.0000E+00 0.9000E+01
        2 -1    0    0  501    0 0.00000000E+00 0.00000000E+00 -.94974936E+02 0.94975475E+02 0.32000000E+00 0.0000E+00 0.9000E+01
       25  1    1    2    0    0 -.10446025E+03 -.56263041E+02 0.19657387E+03 0.26142639E+03 0.12500000E+03 0.0000E+00 0.9000E+01
       23  1    1    2    0    0 -.10943620E+03 -.57202288E+02 0.43021258E+03 0.45677839E+03 0.91188000E+02 0.0000E+00 0.9000E+01
        2  1    1    2  502    0 0.21389645E+03 0.11346533E+03 0.24823086E+03 0.34676323E+03 0.32000000E+00 0.0000E+00 0.9000E+01
#aMCatNLO 2  0  0  1  2 0.24212821D+03 0.00000000D+00  -5  5  0 0.00000000D+00 0.00000000D+00 0.00000000D+00 0.00000000D+00 0.00000000D+00
  <mgrwgt>
 0.1504107583D-01    1    2    0
 0.126817574861403D+03 0.000000000000000D+00 0.000000000000000D+00 0.126817574861403D+03
 0.126817574861403D+03 0.000000000000000D+00 0.000000000000000D+00 -.126817574861403D+03
 0.141227542612302D+03 0.106870188669291D+02 0.481895569438674D+01 -.646744469327961D+02
 0.112407607110505D+03 -.106870188669291D+02 -.481895569438674D+01 0.646744469327961D+02
 0.000000000000000D+00 0.000000000000000D+00 0.000000000000000D+00 -.000000000000000D+00
 0.252886258622331D+03 0.000000000000000D+00 0.000000000000000D+00 0.252886258622331D+03
 0.364295517028643D+03 0.000000000000000D+00 0.000000000000000D+00 -.364295517028643D+03
 0.184079484664701D+03 -.104460245134773D+03 -.562630409304543D+02 -.646744469327961D+02
 0.166572565985551D+03 -.109436203326994D+03 -.572022876318813D+02 0.646744469327961D+02
 0.266529725000722D+03 0.213896448461767D+03 0.113465328562336D+03 -.111409258406312D+03
0.767677608010D-04 0.000000000000D+00 0.000000000000D+00 0.125679222931D-02 0.695124657777D-07  5 21 2 25 23 2 2 0.14922959D+00 0.14611587D-01 0.80649405D+05 0.80649405D+05 0.80649405D+05 0.11722503D+01  1  2  1  3  5  1       -2 0.150410758260D-01 0.100000000000D+01
  </mgrwgt>
  </event>
  <event>
  4     66 0.46888340E-03 0.13065823E+03 0.75467711E-02 0.84584481E-01
       -2 -1    0    0    0  501 0.00000000E+00 0.00000000E+00 0.17904160E+03 0.17904188E+03 0.32000000E+00 0.0000E+00 0.9000E+01
        2 -1    0    0  501    0 0.00000000E+00 0.00000000E+00 -.25165050E+03 0.25165071E+03 0.32000000E+00 0.0000E+00 0.9000E+01
       25  1    1    2    0    0 -.11196741E+02 0.71914534E+02 0.13156889E+03 0.19553117E+03 0.12500000E+03 0.0000E+00 0.9000E+01
       23  1    1    2    0    0 0.11196741E+02 -.71914534E+02 -.20417780E+03 0.23516141E+03 0.91188000E+02 0.0000E+00 0.9000E+01
#aMCatNLO 1  0  0  1  2 0.23432709D+04 0.00000000D+00  -5  5  0 0.00000000D+00 0.00000000D+00 0.00000000D+00 0.00000000D+00 0.00000000D+00
  <mgrwgt>
 0.1113384339D+00    5    2    0
 0.212264017923532D+03 0.000000000000000D+00 0.000000000000000D+00 0.212264017923532D+03
 0.212264017923532D+03 0.000000000000000D+00 0.000000000000000D+00 -.212264017923532D+03
 0.220873282846890D+03 -.111967409462525D+02 0.719145335697281D+02 0.166921957600530D+03
 0.203654753000175D+03 0.111967409462525D+02 -.719145335697281D+02 -.166921957600530D+03
 0.000000000000000D+00 -.000000000000000D+00 -.000000000000000D+00 0.000000000000000D+00
 0.538668762860454D+04 0.000000000000000D+00 0.000000000000000D+00 0.538668762860454D+04
 0.151786159491786D+04 0.000000000000000D+00 0.000000000000000D+00 -.151786159491786D+04
 0.143817519146199D+04 0.107202155921851D+04 0.935750884572526D+03 0.166921957600530D+03
 0.943240893044928D+03 0.760022571784541D+03 0.525253159359383D+03 -.166921957600530D+03
 0.452313313901547D+04 -.183204413100305D+04 -.146100404393191D+04 0.386882603368668D+04
0.688820803209D-03 0.000000000000D+00 0.000000000000D+00 0.488871978003D-03 0.000000000000D+00  5 -2 2 25 23 21 0 0.27544899D-01 0.38715500D-01 0.17071574D+05 0.17071574D+05 0.17071574D+05 0.12414681D+01  1  2  2  1  5  1       -2 0.106687193127D+00 0.100000000000D+01
-.273121524516D-04 0.000000000000D+00 -.264525325500D-05 0.488871978003D-03 0.000000000000D+00  5 -2 2 25 23 21 2 0.27544899D-01 0.38715500D-01 0.17071574D+05 0.17071574D+05 0.17071574D+05 0.12414681D+01  1  2  3  1  5  1       -2 -.651978241037D-02 0.100000000000D+01
0.467906159927D-04 0.000000000000D+00 0.000000000000D+00 0.488871978003D-03 0.000000000000D+00  5 -2 2 25 23 21 2 0.27544899D-01 0.38715500D-01 0.17071574D+05 0.17071574D+05 0.17071574D+05 0.12414681D+01  1  2 15  1  5  1       -2 0.111695566895D-01 0.100000000000D+01
0.499743037802D-02 0.000000000000D+00 -.133896268522D-02 0.488871978003D-03 0.000000000000D+00  5 -2 2 25 23 21 2 0.91001735D+00 0.38715500D-01 0.17071574D+05 0.17071574D+05 0.17071574D+05 0.12414681D+01  1  2  5  1  5  1       -2 0.144478397212D-05 0.100000000000D+01
0.130740524152D-02 0.000000000000D+00 -.457909229713D-03 0.488871978003D-03 0.000000000000D+00  5 21 2 25 23 2 2 0.91001735D+00 0.38715500D-01 0.17071574D+05 0.17071574D+05 0.17071574D+05 0.12414681D+01  1  2  5  3  5  1       -2 0.216634245852D-07 0.100000000000D+01
  </mgrwgt>
  </event>
  <event>
  4     66 0.46888340E-03 0.20583911E+03 0.75467711E-02 0.10638609E+00
       -2 -1    0    0    0  501 0.00000000E+00 0.00000000E+00 0.44560043E+02 0.44561192E+02 0.32000000E+00 0.0000E+00 0.9000E+01
        2 -1    0    0  501    0 0.00000000E+00 0.00000000E+00 -.11337959E+04 0.11337959E+04 0.32000000E+00 0.0000E+00 0.9000E+01
       25  1    1    2    0    0 0.99662541E+02 0.14333810E+03 -.80081218E+03 0.82909806E+03 0.12500000E+03 0.0000E+00 0.9000E+01
       23  1    1    2    0    0 -.99662541E+02 -.14333810E+03 -.28842363E+03 0.34925903E+03 0.91188000E+02 0.0000E+00 0.9000E+01
#aMCatNLO 1  0  0  1  2 0.22763112D+03 0.00000000D+00  -5  5  0 0.00000000D+00 0.00000000D+00 0.00000000D+00 0.00000000D+00 0.00000000D+00
  <mgrwgt>
 0.2121122500D+00    3    2    0
 0.224772543029190D+03 0.000000000000000D+00 0.000000000000000D+00 0.224772543029190D+03
 0.224772543029190D+03 0.000000000000000D+00 0.000000000000000D+00 -.224772543029190D+03
 0.232902704922507D+03 0.996625406126300D+02 0.143338102527578D+03 -.902232582134446D+02
 0.216642381135872D+03 -.996625406126300D+02 -.143338102527578D+03 0.902232582134446D+02
 0.000000000000000D+00 -.000000000000000D+00 -.000000000000000D+00 -.000000000000000D+00
 0.271360919927966D+03 0.000000000000000D+00 0.000000000000000D+00 0.271360919927966D+03
 0.919156157815499D+03 0.000000000000000D+00 0.000000000000000D+00 -.919156157815499D+03
 0.328036110932466D+03 0.229350568877889D+03 0.176750587858812D+03 -.902232582134446D+02
 0.175855453916989D+03 -.891775902926923D+01 -.119958853694074D+03 0.902232582134446D+02
 0.686625512894010D+03 -.220432809848620D+03 -.567917341647389D+02 -.647795237887533D+03
0.794751006789D-03 0.000000000000D+00 0.000000000000D+00 0.926915614937D-03 0.000000000000D+00  5 -2 2 25 23 21 0 0.68554832D-02 0.17443022D+00 0.42369741D+05 0.42369741D+05 0.42369741D+05 0.11994702D+01  1  2  2  1  5  1       -2 0.208046143918D+00 0.100000000000D+01
-.437371650451D-04 0.000000000000D+00 -.305205312882D-05 0.926915614937D-03 0.000000000000D+00  5 -2 2 25 23 21 2 0.68554832D-02 0.17443022D+00 0.42369741D+05 0.42369741D+05 0.42369741D+05 0.11994702D+01  1  2  3  1  5  1       -2 -.164724475896D-01 0.100000000000D+01
0.545333718508D-04 0.000000000000D+00 0.000000000000D+00 0.926915614937D-03 0.000000000000D+00  5 -2 2 25 23 21 2 0.68554832D-02 0.17443022D+00 0.42369741D+05 0.42369741D+05 0.42369741D+05 0.11994702D+01  1  2 15  1  5  1       -2 0.205385536253D-01 0.100000000000D+01
  </mgrwgt>
  </event>
  <event>
  4     66 0.46888340E-03 0.12824969E+03 0.75467711E-02 0.10365843E+00
       -2 -1    0    0    0  501 0.00000000E+00 0.00000000E+00 0.13278262E+02 0.13282117E+02 0.32000000E+00 0.0000E+00 0.9000E+01
        2 -1    0    0  501    0 0.00000000E+00 0.00000000E+00 -.26243717E+04 0.26243717E+04 0.32000000E+00 0.0000E+00 0.9000E+01
       25  1    1    2    0    0 -.44207363E+02 0.52216879E+02 -.23295720E+04 0.23339262E+04 0.12500000E+03 0.0000E+00 0.9000E+01
       23  1    1    2    0    0 0.44207363E+02 -.52216879E+02 -.28152143E+03 0.30372761E+03 0.91188000E+02 0.0000E+00 0.9000E+01
#aMCatNLO 1  0  0  1  2 0.38289015D+03 0.00000000D+00  -5  5  0 0.00000000D+00 0.00000000D+00 0.00000000D+00 0.00000000D+00 0.00000000D+00
  <mgrwgt>
 0.1640699145D+00    5    2    0
 0.186687450102773D+03 0.000000000000000D+00 0.000000000000000D+00 0.186687450102773D+03
 0.186687450102773D+03 0.000000000000000D+00 0.000000000000000D+00 -.186687450102773D+03
 0.196476202174720D+03 -.442073630009123D+02 0.522168789333143D+02 -.135266420932804D+03
 0.176898698030826D+03 0.442073630009123D+02 -.522168789333143D+02 0.135266420932804D+03
 0.000000000000000D+00 -.000000000000000D+00 -.000000000000000D+00 0.000000000000000D+00
 0.791092438875185D+03 0.000000000000000D+00 0.000000000000000D+00 0.791092438875185D+03
 0.337387546741150D+03 0.000000000000000D+00 0.000000000000000D+00 -.337387546741150D+03
 0.238744498976487D+03 0.139066032399855D+03 0.611356671029743D+02 -.135266420932804D+03
 0.296057969954565D+03 0.243371543817305D+03 -.425247840397757D+02 0.135266420932804D+03
 0.593677516685283D+03 -.382437576217160D+03 -.186108830631986D+02 0.453704892134035D+03
0.494657455718D-03 0.000000000000D+00 0.000000000000D+00 0.632014416814D-03 0.000000000000D+00  5 -2 2 25 23 21 0 0.20431075D-02 0.40374979D+00 0.16447983D+05 0.16447983D+05 0.16447983D+05 0.12432857D+01  1  2  2  1  5  1       -2 0.128627572514D+00 0.100000000000D+01
-.227708344514D-04 0.000000000000D+00 -.189961487626D-05 0.632014416814D-03 0.000000000000D+00  5 -2 2 25 23 21 2 0.20431075D-02 0.40374979D+00 0.16447983D+05 0.16447983D+05 0.16447983D+05 0.12432857D+01  1  2  3  1  5  1       -2 -.915272345137D-02 0.100000000000D+01
0.336070320072D-04 0.000000000000D+00 0.000000000000D+00 0.632014416814D-03 0.000000000000D+00  5 -2 2 25 23 21 2 0.20431075D-02 0.40374979D+00 0.16447983D+05 0.16447983D+05 0.16447983D+05 0.12432857D+01  1  2 15  1  5  1       -2 0.135083266553D-01 0.100000000000D+01
0.105918610870D-02 0.000000000000D+00 -.408263557022D-03 0.632014416814D-03 0.000000000000D+00  5 -2 2 25 23 21 2 0.26440245D-01 0.40374979D+00 0.16447983D+05 0.16447983D+05 0.16447983D+05 0.12432857D+01  1  2  5  1  5  1       -2 0.791237229782D-02 0.100000000000D+01
0.230491888454D-03 0.000000000000D+00 -.120404209777D-03 0.632014416814D-03 0.000000000000D+00  5 21 2 25 23 2 2 0.26440245D-01 0.40374979D+00 0.16447983D+05 0.16447983D+05 0.16447983D+05 0.12432857D+01  1  2  5  3  5  1       -2 0.231743664530D-01 0.100000000000D+01
  </mgrwgt>
  </event>
  <event>
  4     66 0.46888340E-03 0.10135354E+03 0.75467711E-02 0.11693644E+00
       -2 -1    0    0    0  501 0.00000000E+00 0.00000000E+00 0.16901839E+02 0.16904868E+02 0.32000000E+00 0.0000E+00 0.9000E+01
        2 -1    0    0  501    0 0.00000000E+00 0.00000000E+00 -.18048570E+04 0.18048570E+04 0.32000000E+00 0.0000E+00 0.9000E+01
       25  1    1    2    0    0 0.13552427E+03 -.33846326E+01 -.86195637E+03 0.88146019E+03 0.12500000E+03 0.0000E+00 0.9000E+01
       23  1    1    2    0    0 -.13552427E+03 0.33846326E+01 -.92599876E+03 0.94030168E+03 0.91188000E+02 0.0000E+00 0.9000E+01
#aMCatNLO 1  0  0  2  1 0.88940199D+01 0.00000000D+00  -5  5  0 0.00000000D+00 0.00000000D+00 0.00000000D+00 0.00000000D+00 0.00000000D+00
  <mgrwgt>
 0.2658193436D+00   11    2    0
 0.174665929043432D+03 0.000000000000000D+00 0.000000000000000D+00 0.174665929043432D+03
 0.174665929043432D+03 0.000000000000000D+00 0.000000000000000D+00 -.174665929043432D+03
 0.185128399738249D+03 0.135524272576431D+03 -.338463261921571D+01 0.164085402856973D+02
 0.164203458348614D+03 -.135524272576431D+03 0.338463261921571D+01 -.164085402856973D+02
 0.000000000000000D+00 0.000000000000000D+00 -.000000000000000D+00 -.000000000000000D+00
 0.175429767650702D+03 0.000000000000000D+00 0.000000000000000D+00 0.175429767650702D+03
 0.202684717963762D+03 0.000000000000000D+00 0.000000000000000D+00 -.202684717963762D+03
 0.181737027263857D+03 0.130857665571716D+03 -.322152844429641D+01 0.164085402856973D+02
 0.167708033747097D+03 -.139746258023836D+03 0.353219667426141D+01 -.164085402856973D+02
 0.286694246035097D+02 0.888859245211908D+01 -.310668229964995D+00 -.272549503130596D+02
0.289244010018D-03 0.000000000000D+00 0.000000000000D+00 0.120777505364D-02 0.000000000000D+00  5 -2 2 25 23 21 0 0.26005181D-02 0.27767054D+00 0.30237968D+05 0.30237968D+05 0.30237968D+05 0.12145384D+01  1  2  2  2  5  2        2 0.141888349876D+00 0.100000000000D+01
-.160687250592D-04 0.000000000000D+00 -.111077315817D-05 0.120777505364D-02 0.000000000000D+00  5 -2 2 25 23 21 2 0.26005181D-02 0.27767054D+00 0.30237968D+05 0.30237968D+05 0.30237968D+05 0.12145384D+01  1  2  3  2  5  2        2 -.116274988932D-01 0.100000000000D+01
0.199569544572D-04 0.000000000000D+00 0.000000000000D+00 0.120777505364D-02 0.000000000000D+00  5 -2 2 25 23 21 2 0.26005181D-02 0.27767054D+00 0.30237968D+05 0.30237968D+05 0.30237968D+05 0.12145384D+01  1  2 15  2  5  2        2 0.144410626860D-01 0.100000000000D+01
0.430364771025D-02 0.000000000000D+00 0.000000000000D+00 0.120777505364D-02 0.000000000000D+00  5 -2 2 25 23 21 2 0.26005181D-02 0.32275930D+00 0.31825166D+05 0.31825166D+05 0.31825166D+05 0.12122156D+01  1  2 12  2  5  2        2 0.218846538763D+01 0.100000000000D+01
-.430622570971D-02 0.000000000000D+00 0.000000000000D+00 0.120777505364D-02 0.000000000000D+00  5 -2 2 25 23 21 2 0.26005181D-02 0.27767054D+00 0.30237968D+05 0.30237968D+05 0.30237968D+05 0.12145384D+01  1  2  4  2  5  2        2 -.311603033154D+01 0.100000000000D+01
-.499530185991D-02 0.000000000000D+00 -.241470326081D-03 0.120777505364D-02 0.000000000000D+00  5 -2 2 25 23 21 2 0.26005181D-02 0.32266651D+00 0.30237968D+05 0.30237968D+05 0.30237968D+05 0.12145384D+01  1  2  5  2  5  2        2 -.255186039328D+01 0.100000000000D+01
0.497801889533D-02 0.000000000000D+00 0.238772476166D-03 0.120777505364D-02 0.000000000000D+00  5 -2 2 25 23 21 2 0.26005181D-02 0.27767054D+00 0.30237968D+05 0.30237968D+05 0.30237968D+05 0.12145384D+01  1  2  6  2  5  2        2 0.360214696453D+01 0.100000000000D+01
0.131197452373D-05 0.000000000000D+00 0.000000000000D+00 0.120777505364D-02 0.121003677584D-03  5 -2 2 25 23 21 2 0.26118905D-02 0.32221267D+00 0.31825166D+05 0.31825166D+05 0.31825166D+05 0.12122156D+01  1  2 11  2  5  2        2 0.665710082755D-03 0.100000000000D+01
0.984200424857D-04 0.000000000000D+00 0.000000000000D+00 0.120777505364D-02 0.000000000000D+00  5 -2 21 25 23 -2 2 0.26005181D-02 0.32275930D+00 0.31825166D+05 0.31825166D+05 0.31825166D+05 0.12122156D+01  1  2 12  4  5  2        2 0.149214088820D-01 0.100000000000D+01
-.112381161069D-03 0.000000000000D+00 -.551363974484D-05 0.120777505364D-02 0.000000000000D+00  5 -2 21 25 23 -2 2 0.26005181D-02 0.32266651D+00 0.30237968D+05 0.30237968D+05 0.30237968D+05 0.12145384D+01  1  2  5  4  5  2        2 -.171958511791D-01 0.100000000000D+01
0.298859875142D-07 0.000000000000D+00 0.000000000000D+00 0.120777505364D-02 0.274268997178D-05  5 -2 21 25 23 -2 2 0.26118905D-02 0.32221267D+00 0.31825166D+05 0.31825166D+05 0.31825166D+05 0.12122156D+01  1  2 11  4  5  2        2 0.453477956078D-05 0.100000000000D+01
  </mgrwgt>
  </event>
  <event>
  4     66 0.46888340E-03 0.11932582E+03 0.75467711E-02 0.11468455E+00
       -2 -1    0    0    0  501 0.00000000E+00 0.00000000E+00 0.70882703E+02 0.70883426E+02 0.32000000E+00 0.0000E+00 0.9000E+01
        2 -1    0    0  501    0 0.00000000E+00 0.00000000E+00 -.20785578E+03 0.20785602E+03 0.32000000E+00 0.0000E+00 0.9000E+01
       25  1    1    2    0    0 -.40410757E+02 0.29496388E+02 -.51643077E+02 0.14420497E+03 0.12500000E+03 0.0000E+00 0.9000E+01
       23  1    1    2    0    0 0.40410757E+02 -.29496388E+02 -.85329998E+02 0.13453448E+03 0.91188000E+02 0.0000E+00 0.9000E+01
#aMCatNLO 1  0  0  1  1 0.13373722D+03 0.00000000D+00  -5  5  0 0.00000000D+00 0.00000000D+00 0.00000000D+00 0.00000000D+00 0.00000000D+00
  <mgrwgt>
 0.1895896179D+00    3    2    0
 0.121381689109109D+03 0.000000000000000D+00 0.000000000000000D+00 0.121381689109109D+03
 0.121381689109109D+03 0.000000000000000D+00 0.000000000000000D+00 -.121381689109109D+03
 0.136436984330428D+03 -.404107572076895D+02 0.294963883690595D+02 0.220677245828428D+02
 0.106326393887790D+03 0.404107572076895D+02 -.294963883690595D+02 -.220677245828428D+02
 0.000000000000000D+00 0.000000000000000D+00 -.000000000000000D+00 -.000000000000000D+00
 0.144344411242890D+03 0.000000000000000D+00 0.000000000000000D+00 0.144344411242890D+03
 0.914521495906533D+03 0.000000000000000D+00 0.000000000000000D+00 -.914521495906533D+03
 0.183321130439938D+03 -.105446400903558D+03 0.798480365068467D+02 0.220677245828428D+02
 0.938425412880796D+02 -.301628016460882D+00 0.202379931821467D+01 -.220677245828428D+02
 0.781702235421406D+03 0.105748028920019D+03 -.818718358250613D+02 -.770177084663643D+03
0.210243639040D-03 0.000000000000D+00 0.000000000000D+00 0.160886265810D-02 0.000000000000D+00  5 -2 2 25 23 21 0 0.10905106D-01 0.31977886D-01 0.14238652D+05 0.14238652D+05 0.14238652D+05 0.12504098D+01  1  2  2  1  5  1       -2 0.185646594576D+00 0.100000000000D+01
-.116760581405D-04 0.000000000000D+00 -.807390932334D-06 0.160886265810D-02 0.000000000000D+00  5 -2 2 25 23 21 2 0.10905106D-01 0.31977886D-01 0.14238652D+05 0.14238652D+05 0.14238652D+05 0.12504098D+01  1  2  3  1  5  1       -2 -.161200022054D-01 0.100000000000D+01
0.145320732619D-04 0.000000000000D+00 0.000000000000D+00 0.160886265810D-02 0.000000000000D+00  5 -2 2 25 23 21 2 0.10905106D-01 0.31977886D-01 0.14238652D+05 0.14238652D+05 0.14238652D+05 0.12504098D+01  1  2 15  1  5  1       -2 0.200630255700D-01 0.100000000000D+01
  </mgrwgt>
  </event>
  <event>
  5     66 0.46888340E-03 0.10899689E+03 0.75467711E-02 0.11444321E+00
       -2 -1    0    0    0  501 0.00000000E+00 0.00000000E+00 0.31716277E+02 0.31717891E+02 0.32000000E+00 0.0000E+00 0.9000E+01
        2 -1    0    0  502    0 0.00000000E+00 0.00000000E+00 -.20016178E+04 0.20016178E+04 0.32000000E+00 0.0000E+00 0.9000E+01
       25  1    1    2    0    0 -.69026963E+02 -.10918383E+02 -.51540301E+03 0.53492915E+03 0.12500000E+03 0.0000E+00 0.9000E+01
       23  1    1    2    0    0 -.74885048E+02 -.26500394E+02 -.19018630E+03 0.22537994E+03 0.91188000E+02 0.0000E+00 0.9000E+01
       21  1    1    2  502  501 0.14391201E+03 0.37418777E+02 -.12643122E+04 0.12730266E+04 0.75000000E+00 0.0000E+00 0.9000E+01
#aMCatNLO 2  0  0  2  2 0.14869711D+03 0.00000000D+00  -5  5  0 0.00000000D+00 0.00000000D+00 0.00000000D+00 0.00000000D+00 0.00000000D+00
  <mgrwgt>
 0.2677970915D-01    1    2    0
 0.120522633151652D+03 0.000000000000000D+00 0.000000000000000D+00 0.120522633151652D+03
 0.120522633151652D+03 0.000000000000000D+00 0.000000000000000D+00 -.120522633151652D+03
 0.135685238848298D+03 0.994247750810465D+01 0.961457929021729D+01 -.509332018176032D+02
 0.105360027455007D+03 -.994247750810465D+01 -.961457929021729D+01 0.509332018176032D+02
 0.000000000000000D+00 0.000000000000000D+00 0.000000000000000D+00 -.000000000000000D+00
 0.164161724088174D+03 0.000000000000000D+00 0.000000000000000D+00 0.164161724088174D+03
 0.386723309903762D+03 0.000000000000000D+00 0.000000000000000D+00 -.386723309903762D+03
 0.151997117586548D+03 -.690269630323774D+02 -.109183827443933D+02 -.509332018176032D+02
 0.131223030310359D+03 -.748850480036252D+02 -.265003939203839D+02 0.509332018176032D+02
 0.267664886095028D+03 0.143912011036003D+03 0.374187766647772D+02 -.222561585815588D+03
0.122844871109D-03 0.000000000000D+00 0.000000000000D+00 0.144147755687D-02 0.976424812036D-06  5 -2 2 25 23 21 2 0.48795393D-02 0.30794044D+00 0.42609545D+05 0.42609545D+05 0.42609545D+05 0.11992230D+01  1  2  1  2  5  2        2 0.267797091473D-01 0.100000000000D+01
  </mgrwgt>
  </event>
  <event>
  4     66 0.46888340E-03 0.16448412E+03 0.75467711E-02 0.10363309E+00
       -2 -1    0    0    0  501 0.00000000E+00 0.00000000E+00 0.23788450E+02 0.23790602E+02 0.32000000E+00 0.0000E+00 0.9000E+01
        2 -1    0    0  501    0 0.00000000E+00 0.00000000E+00 -.11847121E+04 0.11847121E+04 0.32000000E+00 0.0000E+00 0.9000E+01
       25  1    1    2    0    0 -.12254562E+03 -.13816944E+02 -.49743814E+03 0.52752066E+03 0.12500000E+03 0.0000E+00 0.9000E+01
       23  1    1    2    0    0 0.12254562E+03 0.13816944E+02 -.66348550E+03 0.68098208E+03 0.91188000E+02 0.0000E+00 0.9000E+01
#aMCatNLO 1  0  0  2  2 0.35874809D+03 0.00000000D+00  -5  5  0 0.00000000D+00 0.00000000D+00 0.00000000D+00 0.00000000D+00 0.00000000D+00
  <mgrwgt>
 0.1894735951D+00    5    2    0
 0.167880285679258D+03 0.000000000000000D+00 0.000000000000000D+00 0.167880285679258D+03
 0.167880285679258D+03 0.000000000000000D+00 0.000000000000000D+00 -.167880285679258D+03
 0.178765644592045D+03 -.122545615713746D+03 -.138169436751423D+02 0.335234220094881D+02
 0.156994926766471D+03 0.122545615713746D+03 0.138169436751423D+02 -.335234220094881D+02
 0.000000000000000D+00 -.000000000000000D+00 -.000000000000000D+00 -.000000000000000D+00
 0.315314189730157D+03 0.000000000000000D+00 0.000000000000000D+00 0.315314189730157D+03
 0.707740923052397D+03 0.000000000000000D+00 0.000000000000000D+00 -.707740923052397D+03
 0.144147751508022D+03 -.558722460841922D+01 0.632339889835145D+02 0.335234220094881D+02
 0.347212963805292D+03 0.305168400572166D+03 0.134126874113486D+03 -.335234220094881D+02
 0.531694397469240D+03 -.299581175963747D+03 -.197360863097000D+03 -.392426733322240D+03
0.294796825409D-03 0.000000000000D+00 0.000000000000D+00 0.120347437839D-02 0.000000000000D+00  5 -2 2 25 23 21 0 0.36599303D-02 0.18226357D+00 0.27055027D+05 0.27055027D+05 0.27055027D+05 0.12196364D+01  1  2  2  2  5  2        2 0.185742392220D+00 0.100000000000D+01
-.163692843522D-04 0.000000000000D+00 -.113209743136D-05 0.120347437839D-02 0.000000000000D+00  5 -2 2 25 23 21 2 0.36599303D-02 0.18226357D+00 0.27055027D+05 0.27055027D+05 0.27055027D+05 0.12196364D+01  1  2  3  2  5  2        2 -.153418837200D-01 0.100000000000D+01
0.203111575497D-04 0.000000000000D+00 0.000000000000D+00 0.120347437839D-02 0.000000000000D+00  5 -2 2 25 23 21 2 0.36599303D-02 0.18226357D+00 0.27055027D+05 0.27055027D+05 0.27055027D+05 0.12196364D+01  1  2 15  2  5  2        2 0.190363494605D-01 0.100000000000D+01
0.388726346012D-04 0.000000000000D+00 -.116611298721D-03 0.120347437839D-02 0.000000000000D+00  5 -2 2 25 23 21 2 0.36599303D-02 0.82000124D+00 0.27055027D+05 0.27055027D+05 0.27055027D+05 0.12196364D+01  1  2  5  2  5  2        2 0.366822867716D-04 0.100000000000D+01
0.605151569556D-05 0.000000000000D+00 -.212036321271D-04 0.120347437839D-02 0.000000000000D+00  5 -2 21 25 23 -2 2 0.36599303D-02 0.82000124D+00 0.27055027D+05 0.27055027D+05 0.27055027D+05 0.12196364D+01  1  2  5  4  5  2        2 0.548955608400D-07 0.100000000000D+01
  </mgrwgt>
  </event>
  <event>
  4     66 0.46888340E-03 0.11870486E+03 0.75467711E-02 0.12196796E+00
       -2 -1    0    0    0  501 0.00000000E+00 0.00000000E+00 0.43937383E+01 0.44053759E+01 0.32000000E+00 0.0000E+00 0.9000E+01
        2 -1    0    0  501    0 0.00000000E+00 0.00000000E+00 -.33898883E+04 0.33898883E+04 0.32000000E+00 0.0000E+00 0.9000E+01
       25  1    1    2    0    0 -.48522981E+02 0.17992460E+01 -.22957102E+04 0.22996234E+04 0.12500000E+03 0.0000E+00 0.9000E+01
       23  1    1    2    0    0 0.48522981E+02 -.17992460E+01 -.10897844E+04 0.10946702E+04 0.91188000E+02 0.0000E+00 0.9000E+01
#aMCatNLO 1  0  0  2  2 0.31389772D+02 0.00000000D+00  -5  5  0 0.00000000D+00 0.00000000D+00 0.00000000D+00 0.00000000D+00 0.00000000D+00
  <mgrwgt>
 0.2691014927D+00    4    2    0
 0.122123127313451D+03 0.000000000000000D+00 0.000000000000000D+00 0.122123127313451D+03
 0.122123127313451D+03 0.000000000000000D+00 0.000000000000000D+00 -.122123127313451D+03
 0.137087018299550D+03 -.485229812722809D+02 0.179924603126958D+01 -.284628457542478D+02
 0.107159236327352D+03 0.485229812722809D+02 -.179924603126958D+01 0.284628457542478D+02
 0.000000000000000D+00 0.000000000000000D+00 0.000000000000000D+00 0.000000000000000D+00
 0.198538089994899D+03 0.000000000000000D+00 0.000000000000000D+00 0.198538089994899D+03
 0.126394037098234D+03 0.000000000000000D+00 0.000000000000000D+00 -.126394037098234D+03
 0.143808457372496D+03 -.649212531233764D+02 -.556504414334097D+01 -.284628457542478D+02
 0.102446594689980D+03 0.362864958309490D+02 -.729452201679029D+01 0.284628457542478D+02
 0.786770750306577D+02 0.286347572924274D+02 0.128595661601313D+02 0.721440528966644D+02
0.632005038214D-03 0.000000000000D+00 0.000000000000D+00 0.157105871680D-02 0.000000000000D+00  5 -2 2 25 23 21 0 0.67685610D-03 0.52152217D+00 0.14090843D+05 0.14090843D+05 0.14090843D+05 0.12509301D+01  1  2  2  2  5  2        2 0.288234917788D+00 0.100000000000D+01
-.350769839996D-04 0.000000000000D+00 -.242706575749D-05 0.157105871680D-02 0.000000000000D+00  5 -2 2 25 23 21 2 0.67685610D-03 0.52152217D+00 0.14090843D+05 0.14090843D+05 0.14090843D+05 0.12509301D+01  1  2  3  2  5  2        2 -.250330847456D-01 0.100000000000D+01
0.436406445756D-04 0.000000000000D+00 0.000000000000D+00 0.157105871680D-02 0.000000000000D+00  5 -2 2 25 23 21 2 0.67685610D-03 0.52152217D+00 0.14090843D+05 0.14090843D+05 0.14090843D+05 0.12509301D+01  1  2 15  2  5  2        2 0.311446375786D-01 0.100000000000D+01
-.353738940137D-04 0.000000000000D+00 0.000000000000D+00 0.157105871680D-02 0.000000000000D+00  5 -2 2 25 23 21 2 0.67685610D-03 0.52152217D+00 0.14090843D+05 0.14090843D+05 0.14090843D+05 0.12509301D+01  1  2  4  2  5  2        2 -.252449779217D-01 0.100000000000D+01
  </mgrwgt>
  </event>
  <event>
  4     66 0.46888340E-03 0.14532849E+03 0.75467711E-02 0.10840337E+00
       -2 -1    0    0    0  501 0.00000000E+00 0.00000000E+00 0.40406357E+02 0.40407624E+02 0.32000000E+00 0.0000E+00 0.9000E+01
        2 -1    0    0  501    0 0.00000000E+00 0.00000000E+00 -.68525847E+03 0.68525854E+03 0.32000000E+00 0.0000E+00 0.9000E+01
       25  1    1    2    0    0 0.25256564E+02 -.93115350E+02 -.51992516E+03 0.54337421E+03 0.12500000E+03 0.0000E+00 0.9000E+01
       23  1    1    2    0    0 -.25256564E+02 0.93115350E+02 -.12492696E+03 0.18229196E+03 0.91188000E+02 0.0000E+00 0.9000E+01
#aMCatNLO 1  0  0  1  2 0.23789435D+03 0.00000000D+00  -5  5  0 0.00000000D+00 0.00000000D+00 0.00000000D+00 0.00000000D+00 0.00000000D+00
  <mgrwgt>
 0.2179550380D+00    3    2    0
 0.166400976216520D+03 0.000000000000000D+00 0.000000000000000D+00 0.166400976216520D+03
 0.166400976216520D+03 0.000000000000000D+00 0.000000000000000D+00 -.166400976216520D+03
 0.177383106283006D+03 0.252565642959705D+02 -.931153497833173D+02 -.808171020842873D+02
 0.155418846150035D+03 -.252565642959705D+02 0.931153497833173D+02 0.808171020842873D+02
 0.000000000000000D+00 -.000000000000000D+00 0.000000000000000D+00 -.000000000000000D+00
 0.239912971617186D+03 0.000000000000000D+00 0.000000000000000D+00 0.239912971617186D+03
 0.604551797583888D+03 0.000000000000000D+00 0.000000000000000D+00 -.604551797583888D+03
 0.286771465788461D+03 0.521963877980492D+02 -.239493228927241D+03 -.808171020842873D+02
 0.122313932301237D+03 -.913677902955031D+01 0.552828822101783D+01 0.808171020842873D+02
 0.435379371111376D+03 -.430596087684989D+02 0.233964940706223D+03 -.364638825966702D+03
0.364644102588D-03 0.000000000000D+00 0.000000000000D+00 0.100081624245D-02 0.000000000000D+00  5 -2 2 25 23 21 0 0.62164658D-02 0.10542448D+00 0.21120369D+05 0.21120369D+05 0.21120369D+05 0.12312285D+01  1  2  2  1  5  1       -2 0.213253082000D+00 0.100000000000D+01
-.198064204109D-04 0.000000000000D+00 -.140032936693D-05 0.100081624245D-02 0.000000000000D+00  5 -2 2 25 23 21 2 0.62164658D-02 0.10542448D+00 0.21120369D+05 0.21120369D+05 0.21120369D+05 0.12312285D+01  1  2  3  1  5  1       -2 -.175593904335D-01 0.100000000000D+01
0.251100736437D-04 0.000000000000D+00 0.000000000000D+00 0.100081624245D-02 0.000000000000D+00  5 -2 2 25 23 21 2 0.62164658D-02 0.10542448D+00 0.21120369D+05 0.21120369D+05 0.21120369D+05 0.12312285D+01  1  2 15  1  5  1       -2 0.222613464613D-01 0.100000000000D+01
  </mgrwgt>
  </event>
  <event>
  4     66 0.46888340E-03 0.12745350E+03 0.75467711E-02 0.11530696E+00
       -4 -1    0    0    0  501 0.00000000E+00 0.00000000E+00 0.58010845E+02 0.58031549E+02 0.15500000E+01 0.0000E+00 0.9000E+01
        4 -1    0    0  501    0 0.00000000E+00 0.00000000E+00 -.28593086E+03 0.28593506E+03 0.15500000E+01 0.0000E+00 0.9000E+01
       25  1    1    2    0    0 0.54138847E+02 0.39355220E+02 -.10179532E+03 0.17454838E+03 0.12500000E+03 0.0000E+00 0.9000E+01
       23  1    1    2    0    0 -.54138847E+02 -.39355220E+02 -.12612469E+03 0.16941823E+03 0.91188000E+02 0.0000E+00 0.9000E+01
#aMCatNLO 1  0  0  1  2 0.11326185D+03 0.00000000D+00  -5  5  0 0.00000000D+00 0.00000000D+00 0.00000000D+00 0.00000000D+00 0.00000000D+00
  <mgrwgt>
 0.1462857323D-01    3    2    0
 0.128807506310465D+03 0.000000000000000D+00 0.000000000000000D+00 0.128807506310465D+03
 0.128807506310465D+03 0.000000000000000D+00 0.000000000000000D+00 -.128807506310465D+03
 0.142994856227754D+03 0.541388467861867D+02 0.393552202276428D+02 0.185116400432710D+02
 0.114620156393176D+03 -.541388467861867D+02 -.393552202276428D+02 -.185116400432710D+02
 0.000000000000000D+00 0.000000000000000D+00 0.000000000000000D+00 -.000000000000000D+00
 0.180728748562076D+03 0.000000000000000D+00 0.000000000000000D+00 0.180728748562076D+03
 0.220839719341158D+03 0.000000000000000D+00 0.000000000000000D+00 -.220839719341158D+03
 0.126794900386471D+03 0.943977701761941D+01 0.448960541484879D+01 0.185116400432710D+02
 0.154618927179610D+03 -.987466804270082D+02 -.741496701660120D+02 -.185116400432710D+02
 0.120154640337153D+03 0.893069034093889D+02 0.696600647511632D+02 -.401109707790818D+02
0.189750984007D-03 0.000000000000D+00 0.000000000000D+00 0.151988998361D-02 0.000000000000D+00  5 -4 4 25 23 21 0 0.89266611D-02 0.43991278D-01 0.16244394D+05 0.16244394D+05 0.16244394D+05 0.12438959D+01  1  2  2  1  5  1       -4 0.143296409061D-01 0.100000000000D+01
-.105402900018D-04 0.000000000000D+00 -.728693741169D-06 0.151988998361D-02 0.000000000000D+00  5 -4 4 25 23 21 2 0.89266611D-02 0.43991278D-01 0.16244394D+05 0.16244394D+05 0.16244394D+05 0.12438959D+01  1  2  3  1  5  1       -4 -.123160631544D-02 0.100000000000D+01
0.130986021034D-04 0.000000000000D+00 0.000000000000D+00 0.151988998361D-02 0.000000000000D+00  5 -4 4 25 23 21 2 0.89266611D-02 0.43991278D-01 0.16244394D+05 0.16244394D+05 0.16244394D+05 0.12438959D+01  1  2 15  1  5  1       -4 0.153053863519D-02 0.100000000000D+01
  </mgrwgt>
  </event>
  <event>
  4     66 0.46888340E-03 0.38153071E+02 0.75467711E-02 0.11904007E+00
       -2 -1    0    0    0  501 0.00000000E+00 0.00000000E+00 0.32177799E+02 0.32179390E+02 0.32000000E+00 0.0000E+00 0.9000E+01
        2 -1    0    0  501    0 0.00000000E+00 0.00000000E+00 -.51873705E+03 0.51873715E+03 0.32000000E+00 0.0000E+00 0.9000E+01
       25  1    1    2    0    0 0.61353529E+02 -.24504523E+02 -.21957287E+03 0.26115507E+03 0.12500000E+03 0.0000E+00 0.9000E+01
       23  1    1    2    0    0 -.61353529E+02 0.24504523E+02 -.26698638E+03 0.28976147E+03 0.91188000E+02 0.0000E+00 0.9000E+01
#aMCatNLO 1  0  0  2  1 0.56707763D+02 0.00000000D+00  -5  5  0 0.00000000D+00 0.00000000D+00 0.00000000D+00 0.00000000D+00 0.00000000D+00
  <mgrwgt>
 0.1382225056D+00    9    2    0
 0.129198613842693D+03 0.000000000000000D+00 0.000000000000000D+00 0.129198613842693D+03
 0.129198613842693D+03 0.000000000000000D+00 0.000000000000000D+00 -.129198613842693D+03
 0.143343016090112D+03 0.613535294946545D+02 -.245045233203799D+02 0.236112900367503D+02
 0.115054211595274D+03 -.613535294946545D+02 0.245045233203799D+02 -.236112900367503D+02
 0.000000000000000D+00 0.000000000000000D+00 -.000000000000000D+00 -.000000000000000D+00
 0.142005311280766D+03 0.000000000000000D+00 0.000000000000000D+00 0.142005311280766D+03
 0.214881310550233D+03 0.000000000000000D+00 0.000000000000000D+00 -.214881310550233D+03
 0.136929008545723D+03 0.505165876497504D+02 0.389033884643965D+01 0.236112900367503D+02
 0.127617580338925D+03 -.707366282895006D+02 0.490900383845390D+02 -.236112900367503D+02
 0.923400329463516D+02 0.202200406397502D+02 -.529803772309787D+02 -.728759992694669D+02
0.121382024906D-03 0.000000000000D+00 0.000000000000D+00 0.149986528290D-02 0.000000000000D+00  5 -2 2 25 23 21 0 0.49505605D-02 0.79805830D-01 0.16127786D+05 0.16127786D+05 0.16127786D+05 0.12442493D+01  1  2  2  2  5  2        2 0.136313812756D+00 0.100000000000D+01
-.674101982629D-05 0.000000000000D+00 -.466138936260D-06 0.149986528290D-02 0.000000000000D+00  5 -2 2 25 23 21 2 0.49505605D-02 0.79805830D-01 0.16127786D+05 0.16127786D+05 0.16127786D+05 0.12442493D+01  1  2  3  2  5  2        2 -.117199534549D-01 0.100000000000D+01
0.837893025335D-05 0.000000000000D+00 0.000000000000D+00 0.149986528290D-02 0.000000000000D+00  5 -2 2 25 23 21 2 0.49505605D-02 0.79805830D-01 0.16127786D+05 0.16127786D+05 0.16127786D+05 0.12442493D+01  1  2 15  2  5  2        2 0.145676285045D-01 0.100000000000D+01
0.116125331140D-03 0.000000000000D+00 0.000000000000D+00 0.149986528290D-02 0.000000000000D+00  5 -2 2 25 23 21 2 0.49505605D-02 0.13446648D+00 0.25122256D+05 0.25122256D+05 0.25122256D+05 0.12230706D+01  1  2 12  2  5  2        2 0.106579785834D+00 0.100000000000D+01
-.149912439175D-03 0.000000000000D+00 0.000000000000D+00 0.149986528290D-02 0.000000000000D+00  5 -2 2 25 23 21 2 0.49505605D-02 0.79805830D-01 0.16127786D+05 0.16127786D+05 0.16127786D+05 0.12442493D+01  1  2  4  2  5  2        2 -.260638131130D+00 0.100000000000D+01
-.171444116054D-03 0.000000000000D+00 -.481114590583D-04 0.149986528290D-02 0.000000000000D+00  5 -2 2 25 23 21 2 0.49505605D-02 0.14000999D+00 0.16127786D+05 0.16127786D+05 0.16127786D+05 0.12442493D+01  1  2  5  2  5  2        2 -.152994583348D+00 0.100000000000D+01
0.176565222152D-03 0.000000000000D+00 0.413971702102D-04 0.149986528290D-02 0.000000000000D+00  5 -2 2 25 23 21 2 0.49505605D-02 0.79805830D-01 0.16127786D+05 0.16127786D+05 0.16127786D+05 0.12442493D+01  1  2  6  2  5  2        2 0.306976724397D+00 0.100000000000D+01
0.677425992675D-05 0.000000000000D+00 0.000000000000D+00 0.149986528290D-02 0.000000000000D+00  5 -2 21 25 23 -2 2 0.49505605D-02 0.13446648D+00 0.25122256D+05 0.25122256D+05 0.25122256D+05 0.12230706D+01  1  2 12  4  5  2        2 0.626220684775D-02 0.100000000000D+01
-.818369265548D-05 0.000000000000D+00 -.298513428928D-05 0.149986528290D-02 0.000000000000D+00  5 -2 21 25 23 -2 2 0.49505605D-02 0.14000999D+00 0.16127786D+05 0.16127786D+05 0.16127786D+05 0.12442493D+01  1  2  5  4  5  2        2 -.712498475921D-02 0.100000000000D+01
  </mgrwgt>
  </event>
  <event>
  4     66 0.46888340E-03 0.80540151E+02 0.75467711E-02 0.12319564E+00
       -2 -1    0    0    0  501 0.00000000E+00 0.00000000E+00 0.11487709E+02 0.11492165E+02 0.32000000E+00 0.0000E+00 0.9000E+01
        2 -1    0    0  501    0 0.00000000E+00 0.00000000E+00 -.22205569E+04 0.22205569E+04 0.32000000E+00 0.0000E+00 0.9000E+01
       25  1    1    2    0    0 0.47608065E+02 0.28981471E+02 -.46537501E+03 0.48508283E+03 0.12500000E+03 0.0000E+00 0.9000E+01
       23  1    1    2    0    0 -.47608065E+02 -.28981471E+02 -.17436942E+04 0.17469663E+04 0.91188000E+02 0.0000E+00 0.9000E+01
#aMCatNLO 1  0  0  2  1 0.10134674D+02 0.00000000D+00  -5  5  0 0.00000000D+00 0.00000000D+00 0.00000000D+00 0.00000000D+00 0.00000000D+00
  <mgrwgt>
 0.2409998031D+00    9    2    0
 0.159731370335682D+03 0.000000000000000D+00 0.000000000000000D+00 0.159731370335682D+03
 0.159731370335682D+03 0.000000000000000D+00 0.000000000000000D+00 -.159731370335682D+03
 0.171172060790910D+03 0.476080649567295D+02 0.289814714902042D+02 0.102802825139902D+03
 0.148290679880453D+03 -.476080649567295D+02 -.289814714902042D+02 -.102802825139902D+03
 0.000000000000000D+00 0.000000000000000D+00 -.000000000000000D+00 -.000000000000000D+00
 0.161950480657697D+03 0.000000000000000D+00 0.000000000000000D+00 0.161950480657697D+03
 0.171817751140369D+03 0.000000000000000D+00 0.000000000000000D+00 -.171817751140369D+03
 0.171654774802777D+03 0.458947848939049D+02 0.341410248145696D+02 0.102802825139902D+03
 0.147968682257051D+03 -.490886236699828D+02 -.245227599248046D+02 -.102802825139902D+03
 0.141447747382379D+02 0.319383877607792D+01 -.961826488976501D+01 -.986727048267290D+01
0.179576469149D-03 0.000000000000D+00 0.000000000000D+00 0.838003942451D-03 0.000000000000D+00  5 -2 2 25 23 21 0 0.17676844D-02 0.34162449D+00 0.14851721D+05 0.14851721D+05 0.14851721D+05 0.12483147D+01  1  2  2  2  5  2        2 0.940639135234D-01 0.100000000000D+01
-.908853995505D-05 0.000000000000D+00 -.689620925101D-06 0.838003942451D-03 0.000000000000D+00  5 -2 2 25 23 21 2 0.17676844D-02 0.34162449D+00 0.14851721D+05 0.14851721D+05 0.14851721D+05 0.12483147D+01  1  2  3  2  5  2        2 -.741849650963D-02 0.100000000000D+01
0.122232068310D-04 0.000000000000D+00 0.000000000000D+00 0.838003942451D-03 0.000000000000D+00  5 -2 2 25 23 21 2 0.17676844D-02 0.34162449D+00 0.14851721D+05 0.14851721D+05 0.14851721D+05 0.12483147D+01  1  2 15  2  5  2        2 0.997715999056D-02 0.100000000000D+01
0.823688984194D-03 0.000000000000D+00 0.000000000000D+00 0.838003942451D-03 0.000000000000D+00  5 -2 2 25 23 21 2 0.17676844D-02 0.36973330D+00 0.16132297D+05 0.16132297D+05 0.16132297D+05 0.12442356D+01  1  2 12  2  5  2        2 0.536616098260D+00 0.100000000000D+01
-.836525260235D-03 0.000000000000D+00 0.000000000000D+00 0.838003942451D-03 0.000000000000D+00  5 -2 2 25 23 21 2 0.17676844D-02 0.34162449D+00 0.14851721D+05 0.14851721D+05 0.14851721D+05 0.12483147D+01  1  2  4  2  5  2        2 -.682811513616D+00 0.100000000000D+01
-.177439349117D-02 0.000000000000D+00 -.252837606298D-03 0.838003942451D-03 0.000000000000D+00  5 -2 2 25 23 21 2 0.17676844D-02 0.36922286D+00 0.14851721D+05 0.14851721D+05 0.14851721D+05 0.12483147D+01  1  2  5  2  5  2        2 -.116815833558D+01 0.100000000000D+01
0.178939446021D-02 0.000000000000D+00 0.252076523423D-03 0.838003942451D-03 0.000000000000D+00  5 -2 2 25 23 21 2 0.17676844D-02 0.34162449D+00 0.14851721D+05 0.14851721D+05 0.14851721D+05 0.12483147D+01  1  2  6  2  5  2        2 0.146058845789D+01 0.100000000000D+01
0.113395549788D-04 0.000000000000D+00 0.000000000000D+00 0.838003942451D-03 0.000000000000D+00  5 -2 21 25 23 -2 2 0.17676844D-02 0.36973330D+00 0.16132297D+05 0.16132297D+05 0.16132297D+05 0.12442356D+01  1  2 12  4  5  2        2 0.179784121665D-02 0.100000000000D+01
-.225716799192D-04 0.000000000000D+00 -.329013859457D-05 0.838003942451D-03 0.000000000000D+00  5 -2 21 25 23 -2 2 0.17676844D-02 0.36922286D+00 0.14851721D+05 0.14851721D+05 0.14851721D+05 0.12483147D+01  1  2  5  4  5  2        2 -.365532207163D-02 0.100000000000D+01
  </mgrwgt>
  </event>
  <event>
  4     66 0.46888340E-03 0.19228246E+03 0.75467711E-02 0.10957989E+00
       -2 -1    0    0    0  501 0.00000000E+00 0.00000000E+00 0.51484028E+02 0.51485023E+02 0.32000000E+00 0.0000E+00 0.9000E+01
        2 -1    0    0  501    0 0.00000000E+00 0.00000000E+00 -.72709983E+03 0.72709990E+03 0.32000000E+00 0.0000E+00 0.9000E+01
       25  1    1    2    0    0 0.12579634E+02 -.15790661E+03 -.39748919E+03 0.44577506E+03 0.12500000E+03 0.0000E+00 0.9000E+01
       23  1    1    2    0    0 -.12579634E+02 0.15790661E+03 -.27812661E+03 0.33280986E+03 0.91188000E+02 0.0000E+00 0.9000E+01
#aMCatNLO 1  0  0  2  1 0.14769037D+03 0.00000000D+00  -5  5  0 0.00000000D+00 0.00000000D+00 0.00000000D+00 0.00000000D+00 0.00000000D+00
  <mgrwgt>
 0.2233159634D+00    3    2    0
 0.193479824272774D+03 0.000000000000000D+00 0.000000000000000D+00 0.193479824272774D+03
 0.193479824272774D+03 0.000000000000000D+00 0.000000000000000D+00 -.193479824272774D+03
 0.202924928799143D+03 0.125796336343001D+02 -.157906607530404D+03 -.214658529763738D+02
 0.184034719746404D+03 -.125796336343001D+02 0.157906607530404D+03 0.214658529763738D+02
 0.000000000000000D+00 -.000000000000000D+00 -.000000000000000D+00 0.000000000000000D+00
 0.322778370618770D+03 0.000000000000000D+00 0.000000000000000D+00 0.322778370618770D+03
 0.254230579378599D+03 0.000000000000000D+00 0.000000000000000D+00 -.254230579378599D+03
 0.177190454543665D+03 0.612632876360461D+02 -.107505739034762D+03 -.214658529763738D+02
 0.236995753744641D+03 0.413442610404486D+02 0.213732555274124D+03 0.214658529763738D+02
 0.162822741709063D+03 -.102607548676495D+03 -.106226816239361D+03 0.685477912401713D+02
0.577620371726D-03 0.000000000000D+00 0.000000000000D+00 0.114198418533D-02 0.000000000000D+00  5 -2 2 25 23 21 0 0.79207016D-02 0.11186159D+00 0.36972545D+05 0.36972545D+05 0.36972545D+05 0.12054868D+01  1  2  2  2  5  2        2 0.219150069537D+00 0.100000000000D+01
-.320885170728D-04 0.000000000000D+00 -.221821431836D-05 0.114198418533D-02 0.000000000000D+00  5 -2 2 25 23 21 2 0.79207016D-02 0.11186159D+00 0.36972545D+05 0.36972545D+05 0.36972545D+05 0.12054868D+01  1  2  3  2  5  2        2 -.176918687419D-01 0.100000000000D+01
0.396443811663D-04 0.000000000000D+00 0.000000000000D+00 0.114198418533D-02 0.000000000000D+00  5 -2 2 25 23 21 2 0.79207016D-02 0.11186159D+00 0.36972545D+05 0.36972545D+05 0.36972545D+05 0.12054868D+01  1  2 15  2  5  2        2 0.218577625871D-01 0.100000000000D+01
  </mgrwgt>
  </event>
  <event>
  4     66 0.46888340E-03 0.72987708E+02 0.75467711E-02 0.12027966E+00
       -2 -1    0    0    0  501 0.00000000E+00 0.00000000E+00 0.59970235E+01 0.60055550E+01 0.32000000E+00 0.0000E+00 0.9000E+01
        2 -1    0    0  501    0 0.00000000E+00 0.00000000E+00 -.33425587E+04 0.33425587E+04 0.32000000E+00 0.0000E+00 0.9000E+01
       25  1    1    2    0    0 0.56974465E+02 -.11333270E+02 -.99432873E+03 0.10038372E+04 0.12500000E+03 0.0000E+00 0.9000E+01
       23  1    1    2    0    0 -.56974465E+02 0.11333270E+02 -.23422330E+04 0.23447271E+04 0.91188000E+02 0.0000E+00 0.9000E+01
#aMCatNLO 1  0  0  1  2 0.45779675D+02 0.00000000D+00  -5  5  0 0.00000000D+00 0.00000000D+00 0.00000000D+00 0.00000000D+00 0.00000000D+00
  <mgrwgt>
 0.1002983779D+00    7    2    0
 0.141632315918127D+03 0.000000000000000D+00 0.000000000000000D+00 0.141632315918127D+03
 0.141632315918127D+03 0.000000000000000D+00 0.000000000000000D+00 -.141632315918127D+03
 0.154535000959699D+03 0.569744653984168D+02 -.113332702288445D+02 0.698679740660829D+02
 0.128729630876556D+03 -.569744653984168D+02 0.113332702288445D+02 -.698679740660829D+02
 0.000000000000000D+00 0.000000000000000D+00 -.000000000000000D+00 0.000000000000000D+00
 0.272061289005782D+03 0.000000000000000D+00 0.000000000000000D+00 0.272061289005782D+03
 0.147544555658377D+03 0.000000000000000D+00 0.000000000000000D+00 -.147544555658377D+03
 0.151139573903418D+03 0.470447827870870D+02 0.111096990113931D+02 0.698679740660829D+02
 0.135800542284519D+03 -.655675931120510D+02 0.307553714684627D+02 -.698679740660829D+02
 0.132665728476222D+03 0.185228103249639D+02 -.418650704798558D+02 0.124516733347405D+03
0.408547817836D-03 0.000000000000D+00 0.000000000000D+00 0.113439910300D-02 0.000000000000D+00  5 -2 2 25 23 21 0 0.92327644D-03 0.51424046D+00 0.15123846D+05 0.15123846D+05 0.15123846D+05 0.12474156D+01  1  2  2  1  5  1       -2 0.128212162950D+00 0.100000000000D+01
-.221467413446D-04 0.000000000000D+00 -.156893119360D-05 0.113439910300D-02 0.000000000000D+00  5 -2 2 25 23 21 2 0.92327644D-03 0.51424046D+00 0.15123846D+05 0.15123846D+05 0.15123846D+05 0.12474156D+01  1  2  3  1  5  1       -2 -.108148010867D-01 0.100000000000D+01
0.279935790675D-04 0.000000000000D+00 0.000000000000D+00 0.113439910300D-02 0.000000000000D+00  5 -2 2 25 23 21 2 0.92327644D-03 0.51424046D+00 0.15123846D+05 0.15123846D+05 0.15123846D+05 0.12474156D+01  1  2 15  1  5  1       -2 0.136699564332D-01 0.100000000000D+01
0.884281842818D-03 0.000000000000D+00 0.000000000000D+00 0.113439910300D-02 0.000000000000D+00  5 -2 2 25 23 21 2 0.17759520D-02 0.51424046D+00 0.21940898D+05 0.21940898D+05 0.21940898D+05 0.12294221D+01  1  2 12  1  5  1       -2 0.162778507051D+00 0.100000000000D+01
-.100912902733D-02 0.000000000000D+00 -.118689413789D-03 0.113439910300D-02 0.000000000000D+00  5 -2 2 25 23 21 2 0.18862177D-02 0.51424046D+00 0.15123846D+05 0.15123846D+05 0.15123846D+05 0.12474156D+01  1  2  5  1  5  1       -2 -.176812216379D+00 0.100000000000D+01
0.627673276856D-04 0.000000000000D+00 0.000000000000D+00 0.113439910300D-02 0.000000000000D+00  5 21 2 25 23 2 2 0.17759520D-02 0.51424046D+00 0.21940898D+05 0.21940898D+05 0.21940898D+05 0.12294221D+01  1  2 12  3  5  1       -2 0.246310413115D+00 0.100000000000D+01
-.707259664221D-04 0.000000000000D+00 -.916923312314D-05 0.113439910300D-02 0.000000000000D+00  5 21 2 25 23 2 2 0.18862177D-02 0.51424046D+00 0.15123846D+05 0.15123846D+05 0.15123846D+05 0.12474156D+01  1  2  5  3  5  1       -2 -.263045644222D+00 0.100000000000D+01
  </mgrwgt>
  </event>
  <event>
  4     66 0.46888340E-03 0.13573671E+03 0.75467711E-02 0.11146159E+00
       -2 -1    0    0    0  501 0.00000000E+00 0.00000000E+00 0.14788901E+03 0.14788935E+03 0.32000000E+00 0.0000E+00 0.9000E+01
        2 -1    0    0  501    0 0.00000000E+00 0.00000000E+00 -.15380112E+03 0.15380145E+03 0.32000000E+00 0.0000E+00 0.9000E+01
       25  1    1    2    0    0 0.61004034E+02 0.53982320E+02 -.68679093E+02 0.16424799E+03 0.12500000E+03 0.0000E+00 0.9000E+01
       23  1    1    2    0    0 -.61004034E+02 -.53982320E+02 0.62766980E+02 0.13744282E+03 0.91188000E+02 0.0000E+00 0.9000E+01
#aMCatNLO 1  0  0  1  2 0.17492336D+03 0.00000000D+00  -5  5  0 0.00000000D+00 0.00000000D+00 0.00000000D+00 0.00000000D+00 0.00000000D+00
  <mgrwgt>
 0.1406859201D+00    3    2    0
 0.150816434763432D+03 0.000000000000000D+00 0.000000000000000D+00 0.150816434763432D+03
 0.150816434763432D+03 0.000000000000000D+00 0.000000000000000D+00 -.150816434763432D+03
 0.162933397791145D+03 0.610040344386440D+02 0.539823197517740D+02 -.654729642844540D+02
 0.138699471735719D+03 -.610040344386440D+02 -.539823197517740D+02 0.654729642844540D+02
 0.000000000000000D+00 -.000000000000000D+00 0.000000000000000D+00 -.000000000000000D+00
 0.258769148309866D+03 0.000000000000000D+00 0.000000000000000D+00 0.258769148309866D+03
 0.264947329508734D+03 0.000000000000000D+00 0.000000000000000D+00 -.264947329508734D+03
 0.218796470673316D+03 0.162590230677646D+03 0.390461702999910D+02 -.654729642844540D+02
 0.129887581350445D+03 0.104725235572531D+02 -.644914695383656D+02 0.654729642844540D+02
 0.175032425794838D+03 -.173062754234899D+03 0.254452992383746D+02 -.617818119886761D+01
0.372839058165D-03 0.000000000000D+00 0.000000000000D+00 0.113240182364D-02 0.000000000000D+00  5 -2 2 25 23 21 0 0.22752207D-01 0.23661763D-01 0.18424454D+05 0.18424454D+05 0.18424454D+05 0.12377686D+01  1  2  2  1  5  1       -2 0.137698703573D+00 0.100000000000D+01
-.204337887292D-04 0.000000000000D+00 -.143180015413D-05 0.113240182364D-02 0.000000000000D+00  5 -2 2 25 23 21 2 0.22752207D-01 0.23661763D-01 0.18424454D+05 0.18424454D+05 0.18424454D+05 0.12377686D+01  1  2  3  1  5  1       -2 -.115620877155D-01 0.100000000000D+01
0.257131251786D-04 0.000000000000D+00 0.000000000000D+00 0.113240182364D-02 0.000000000000D+00  5 -2 2 25 23 21 2 0.22752207D-01 0.23661763D-01 0.18424454D+05 0.18424454D+05 0.18424454D+05 0.12377686D+01  1  2 15  1  5  1       -2 0.145493042281D-01 0.100000000000D+01
  </mgrwgt>
  </event>
  <event>
  4     66 0.46888340E-03 0.14537023E+03 0.75467711E-02 0.10787064E+00
       -2 -1    0    0    0  501 0.00000000E+00 0.00000000E+00 0.11017011E+02 0.11021658E+02 0.32000000E+00 0.0000E+00 0.9000E+01
        2 -1    0    0  501    0 0.00000000E+00 0.00000000E+00 -.20176626E+04 0.20176627E+04 0.32000000E+00 0.0000E+00 0.9000E+01
       25  1    1    2    0    0 -.89826440E+01 -.96123460E+02 -.13106930E+04 0.13201748E+04 0.12500000E+03 0.0000E+00 0.9000E+01
       23  1    1    2    0    0 0.89826440E+01 0.96123460E+02 -.69595260E+03 0.70850948E+03 0.91188000E+02 0.0000E+00 0.9000E+01
#aMCatNLO 1  0  0  2  2 0.24623174D+03 0.00000000D+00  -5  5  0 0.00000000D+00 0.00000000D+00 0.00000000D+00 0.00000000D+00 0.00000000D+00
  <mgrwgt>
 0.1962646346D+00    5    2    0
 0.149108521649511D+03 0.000000000000000D+00 0.000000000000000D+00 0.149108521649511D+03
 0.149108521649511D+03 0.000000000000000D+00 0.000000000000000D+00 -.149108521649511D+03
 0.161364274330739D+03 -.898264399634926D+01 -.961234596965427D+02 -.330608776817574D+02
 0.136852768968283D+03 0.898264399634926D+01 0.961234596965427D+02 0.330608776817574D+02
 0.000000000000000D+00 -.000000000000000D+00 0.000000000000000D+00 -.000000000000000D+00
 0.263641569520306D+03 0.000000000000000D+00 0.000000000000000D+00 0.263641569520306D+03
 0.409057701349832D+03 0.000000000000000D+00 0.000000000000000D+00 -.409057701349832D+03
 0.240935463906434D+03 0.117808836016527D+03 -.165689330649717D+03 -.330608776817574D+02
 0.145798909890300D+03 0.980650402406041D+02 0.472471907177591D+02 0.330608776817574D+02
 0.285964897073404D+03 -.215873876257131D+03 0.118442139931958D+03 -.145416131829526D+03
0.270982698859D-03 0.000000000000D+00 0.000000000000D+00 0.129818728494D-02 0.000000000000D+00  5 -2 2 25 23 21 0 0.16952842D-02 0.31041000D+00 0.21132505D+05 0.21132505D+05 0.21132505D+05 0.12312012D+01  1  2  2  2  5  2        2 0.192332685220D+00 0.100000000000D+01
-.150427940400D-04 0.000000000000D+00 -.104064491500D-05 0.129818728494D-02 0.000000000000D+00  5 -2 2 25 23 21 2 0.16952842D-02 0.31041000D+00 0.21132505D+05 0.21132505D+05 0.21132505D+05 0.12312012D+01  1  2  3  2  5  2        2 -.161844561853D-01 0.100000000000D+01
0.187038885258D-04 0.000000000000D+00 0.000000000000D+00 0.129818728494D-02 0.000000000000D+00  5 -2 2 25 23 21 2 0.16952842D-02 0.31041000D+00 0.21132505D+05 0.21132505D+05 0.21132505D+05 0.12312012D+01  1  2 15  2  5  2        2 0.201234068309D-01 0.100000000000D+01
-.135994567491D-04 0.000000000000D+00 -.734378798736D-04 0.129818728494D-02 0.000000000000D+00  5 -2 2 25 23 21 2 0.16952842D-02 0.88527128D+00 0.21132505D+05 0.21132505D+05 0.21132505D+05 0.12312012D+01  1  2  5  2  5  2        2 -.700723370918D-05 0.100000000000D+01
0.238909945726D-05 0.000000000000D+00 -.867302533307D-05 0.129818728494D-02 0.000000000000D+00  5 -2 21 25 23 -2 2 0.16952842D-02 0.88527128D+00 0.21132505D+05 0.21132505D+05 0.21132505D+05 0.12312012D+01  1  2  5  4  5  2        2 0.599012611794D-08 0.100000000000D+01
  </mgrwgt>
  </event>
  <event>
  4     66 0.46888340E-03 0.12697742E+03 0.75467711E-02 0.11416973E+00
       -2 -1    0    0    0  501 0.00000000E+00 0.00000000E+00 0.51251952E+02 0.51252951E+02 0.32000000E+00 0.0000E+00 0.9000E+01
        2 -1    0    0  501    0 0.00000000E+00 0.00000000E+00 -.45148514E+03 0.45148525E+03 0.32000000E+00 0.0000E+00 0.9000E+01
       25  1    1    2    0    0 0.27700376E+02 0.59941253E+02 -.35371778E+03 0.38092195E+03 0.12500000E+03 0.0000E+00 0.9000E+01
       23  1    1    2    0    0 -.27700376E+02 -.59941253E+02 -.46515403E+02 0.12181625E+03 0.91188000E+02 0.0000E+00 0.9000E+01
#aMCatNLO 1  0  0  1  2 0.13307218D+03 0.00000000D+00  -5  5  0 0.00000000D+00 0.00000000D+00 0.00000000D+00 0.00000000D+00 0.00000000D+00
  <mgrwgt>
 0.2181524315D+00    3    2    0
 0.152117633055767D+03 0.000000000000000D+00 0.000000000000000D+00 0.152117633055767D+03
 0.152117633055767D+03 0.000000000000000D+00 0.000000000000000D+00 -.152117633055767D+03
 0.164130948851510D+03 0.277003759534582D+02 0.599412525047017D+02 -.833888709067449D+02
 0.140104317260023D+03 -.277003759534582D+02 -.599412525047017D+02 0.833888709067449D+02
 0.000000000000000D+00 0.000000000000000D+00 0.000000000000000D+00 -.000000000000000D+00
 0.183415299574231D+03 0.000000000000000D+00 0.000000000000000D+00 0.183415299574231D+03
 0.420714090505411D+03 0.000000000000000D+00 0.000000000000000D+00 -.420714090505411D+03
 0.150866327024723D+03 -.115219647172608D+02 0.701349897577438D+01 -.833888709067449D+02
 0.181198879133897D+03 -.677079074233648D+02 -.113928565059988D+03 0.833888709067449D+02
 0.272064183921022D+03 0.792298721406256D+02 0.106915066084213D+03 -.237298790931180D+03
0.330700942445D-03 0.000000000000D+00 0.000000000000D+00 0.100082205060D-02 0.000000000000D+00  5 -2 2 25 23 21 0 0.78850013D-02 0.69459337D-01 0.16123266D+05 0.16123266D+05 0.16123266D+05 0.12442630D+01  1  2  2  1  5  1       -2 0.213166029507D+00 0.100000000000D+01
-.176433282837D-04 0.000000000000D+00 -.126997869455D-05 0.100082205060D-02 0.000000000000D+00  5 -2 2 25 23 21 2 0.78850013D-02 0.69459337D-01 0.16123266D+05 0.16123266D+05 0.16123266D+05 0.12442630D+01  1  2  3  1  5  1       -2 -.176070856728D-01 0.100000000000D+01
0.226399943125D-04 0.000000000000D+00 0.000000000000D+00 0.100082205060D-02 0.000000000000D+00  5 -2 2 25 23 21 2 0.78850013D-02 0.69459337D-01 0.16123266D+05 0.16123266D+05 0.16123266D+05 0.12442630D+01  1  2 15  1  5  1       -2 0.225934876391D-01 0.100000000000D+01
  </mgrwgt>
  </event>
  <event>
  4     66 0.46888340E-03 0.89127744E+02 0.75467711E-02 0.11319742E+00
       -2 -1    0    0    0  501 0.00000000E+00 0.00000000E+00 0.16780632E+03 0.16780662E+03 0.32000000E+00 0.0000E+00 0.9000E+01
        2 -1    0    0  501    0 0.00000000E+00 0.00000000E+00 -.27216291E+03 0.27216310E+03 0.32000000E+00 0.0000E+00 0.9000E+01
       25  1    1    2    0    0 0.98275750E+01 0.18010326E+03 -.90514079E+02 0.23738484E+03 0.12500000E+03 0.0000E+00 0.9000E+01
       23  1    1    2    0    0 -.98275750E+01 -.18010326E+03 -.13842515E+02 0.20258488E+03 0.91188000E+02 0.0000E+00 0.9000E+01
#aMCatNLO 1  0  0  1  2 0.23004273D+02 0.00000000D+00  -5  5  0 0.00000000D+00 0.00000000D+00 0.00000000D+00 0.00000000D+00 0.00000000D+00
  <mgrwgt>
 0.1466318535D+00    9    2    0
 0.213707192975994D+03 0.000000000000000D+00 0.000000000000000D+00 0.213707192975994D+03
 0.213707192975994D+03 0.000000000000000D+00 0.000000000000000D+00 -.213707192975994D+03
 0.222258319115231D+03 0.982757497901553D+01 0.180103261130112D+03 -.352135558593376D+02
 0.205156066836757D+03 -.982757497901553D+01 -.180103261130112D+03 0.352135558593376D+02
 0.000000000000000D+00 0.000000000000000D+00 -.000000000000000D+00 0.000000000000000D+00
 0.307760991445895D+03 0.000000000000000D+00 0.000000000000000D+00 0.307760991445895D+03
 0.215427776583914D+03 0.000000000000000D+00 0.000000000000000D+00 -.215427776583914D+03
 0.232240715961201D+03 0.928806583588896D+01 0.192313513479788D+03 -.352135558593376D+02
 0.195792289631723D+03 -.103035172529082D+02 -.169331663758414D+03 0.352135558593376D+02
 0.951557624368850D+02 0.101545141701928D+01 -.229818497213735D+02 0.923332148619811D+02
0.735585735038D-03 0.000000000000D+00 0.000000000000D+00 0.107994934173D-02 0.000000000000D+00  5 -2 2 25 23 21 0 0.25816394D-01 0.41871255D-01 0.44428726D+05 0.44428726D+05 0.44428726D+05 0.11973966D+01  1  2  2  1  5  1       -2 0.119153266560D+00 0.100000000000D+01
-.408564308880D-04 0.000000000000D+00 -.282484290672D-05 0.107994934173D-02 0.000000000000D+00  5 -2 2 25 23 21 2 0.25816394D-01 0.41871255D-01 0.44428726D+05 0.44428726D+05 0.44428726D+05 0.11973966D+01  1  2  3  1  5  1       -2 -.948875217146D-02 0.100000000000D+01
0.504548577138D-04 0.000000000000D+00 0.000000000000D+00 0.107994934173D-02 0.000000000000D+00  5 -2 2 25 23 21 2 0.25816394D-01 0.41871255D-01 0.44428726D+05 0.44428726D+05 0.44428726D+05 0.11973966D+01  1  2 15  1  5  1       -2 0.117179506454D-01 0.100000000000D+01
0.695765699480D-02 0.000000000000D+00 0.000000000000D+00 0.107994934173D-02 0.000000000000D+00  5 -2 2 25 23 21 2 0.37246965D-01 0.41871255D-01 0.49541742D+05 0.49541742D+05 0.49541742D+05 0.11926780D+01  1  2 12  1  5  1       -2 0.821605929763D+00 0.100000000000D+01
-.658707761225D-02 0.000000000000D+00 0.000000000000D+00 0.107994934173D-02 0.000000000000D+00  5 -2 2 25 23 21 2 0.25816394D-01 0.41871255D-01 0.44428726D+05 0.44428726D+05 0.44428726D+05 0.11973966D+01  1  2  4  1  5  1       -2 -.152982396255D+01 0.100000000000D+01
-.726258930669D-02 0.000000000000D+00 -.291120369917D-03 0.107994934173D-02 0.000000000000D+00  5 -2 2 25 23 21 2 0.37330133D-01 0.41871255D-01 0.44428726D+05 0.44428726D+05 0.44428726D+05 0.11973966D+01  1  2  5  1  5  1       -2 -.860228759127D+00 0.100000000000D+01
0.691321126227D-02 0.000000000000D+00 0.272386269342D-03 0.107994934173D-02 0.000000000000D+00  5 -2 2 25 23 21 2 0.25816394D-01 0.41871255D-01 0.44428726D+05 0.44428726D+05 0.44428726D+05 0.11973966D+01  1  2  6  1  5  1       -2 0.160556727425D+01 0.100000000000D+01
0.310774404088D-03 0.000000000000D+00 0.000000000000D+00 0.107994934173D-02 0.000000000000D+00  5 21 2 25 23 2 2 0.37246965D-01 0.41871255D-01 0.49541742D+05 0.49541742D+05 0.49541742D+05 0.11926780D+01  1  2 12  3  5  1       -2 0.459701054566D+00 0.100000000000D+01
-.316946976015D-03 0.000000000000D+00 -.130606098489D-04 0.107994934173D-02 0.000000000000D+00  5 21 2 25 23 2 2 0.37330133D-01 0.41871255D-01 0.44428726D+05 0.44428726D+05 0.44428726D+05 0.11973966D+01  1  2  5  3  5  1       -2 -.471572148449D+00 0.100000000000D+01
  </mgrwgt>
  </event>
  <event>
  4     66 0.46888340E-03 0.55435919E+02 0.75467711E-02 0.12011252E+00
       -2 -1    0    0    0  501 0.00000000E+00 0.00000000E+00 0.90960917E+01 0.91017187E+01 0.32000000E+00 0.0000E+00 0.9000E+01
        2 -1    0    0  501    0 0.00000000E+00 0.00000000E+00 -.14630225E+04 0.14630225E+04 0.32000000E+00 0.0000E+00 0.9000E+01
       25  1    1    2    0    0 -.34686269E+02 -.96775747E+01 -.71701845E+03 0.72872303E+03 0.12500000E+03 0.0000E+00 0.9000E+01
       23  1    1    2    0    0 0.34686269E+02 0.96775747E+01 -.73690792E+03 0.74340119E+03 0.91188000E+02 0.0000E+00 0.9000E+01
#aMCatNLO 1  0  0  2  1 0.62491291D+02 0.00000000D+00  -5  5  0 0.00000000D+00 0.00000000D+00 0.00000000D+00 0.00000000D+00 0.00000000D+00
  <mgrwgt>
 0.1915666294D+00    9    2    0
 0.115377441695941D+03 0.000000000000000D+00 0.000000000000000D+00 0.115377441695941D+03
 0.115377441695941D+03 0.000000000000000D+00 0.000000000000000D+00 -.115377441695941D+03
 0.131216215178334D+03 -.346862691301669D+02 -.967757469708387D+01 0.172018140769774D+02
 0.995386682135486D+02 0.346862691301669D+02 0.967757469708387D+01 -.172018140769774D+02
 0.000000000000000D+00 0.000000000000000D+00 0.000000000000000D+00 -.000000000000000D+00
 0.131521989303724D+03 0.000000000000000D+00 0.000000000000000D+00 0.131521989303724D+03
 0.200968713215567D+03 0.000000000000000D+00 0.000000000000000D+00 -.200968713215567D+03
 0.145692606280516D+03 -.699364280997115D+02 -.203550765639530D+02 0.172018140769774D+02
 0.933742831156795D+02 0.101286831138982D+02 0.223892255480403D+01 -.172018140769774D+02
 0.934238131230954D+02 0.598077449858134D+02 0.181161540091490D+02 -.694467239118431D+02
0.973378695749D-04 0.000000000000D+00 0.000000000000D+00 0.172851176189D-02 0.000000000000D+00  5 -2 2 25 23 21 0 0.13998343D-02 0.22508081D+00 0.13010234D+05 0.13010234D+05 0.13010234D+05 0.12549307D+01  1  2  2  2  5  2        2 0.173378576251D+00 0.100000000000D+01
-.540679546041D-05 0.000000000000D+00 -.373803048817D-06 0.172851176189D-02 0.000000000000D+00  5 -2 2 25 23 21 2 0.13998343D-02 0.22508081D+00 0.13010234D+05 0.13010234D+05 0.13010234D+05 0.12549307D+01  1  2  3  2  5  2        2 -.151667666502D-01 0.100000000000D+01
0.671916990887D-05 0.000000000000D+00 0.000000000000D+00 0.172851176189D-02 0.000000000000D+00  5 -2 2 25 23 21 2 0.13998343D-02 0.22508081D+00 0.13010234D+05 0.13010234D+05 0.13010234D+05 0.12549307D+01  1  2 15  2  5  2        2 0.188481481937D-01 0.100000000000D+01
0.445621261887D-04 0.000000000000D+00 0.000000000000D+00 0.172851176189D-02 0.000000000000D+00  5 -2 2 25 23 21 2 0.13998343D-02 0.39779945D+00 0.22341421D+05 0.22341421D+05 0.22341421D+05 0.12285676D+01  1  2 12  2  5  2        2 0.316823602755D-01 0.100000000000D+01
-.807776679831D-04 0.000000000000D+00 0.000000000000D+00 0.172851176189D-02 0.000000000000D+00  5 -2 2 25 23 21 2 0.13998343D-02 0.22508081D+00 0.13010234D+05 0.13010234D+05 0.13010234D+05 0.12549307D+01  1  2  4  2  5  2        2 -.226591897144D+00 0.100000000000D+01
-.906724941306D-04 0.000000000000D+00 -.316914135269D-04 0.172851176189D-02 0.000000000000D+00  5 -2 2 25 23 21 2 0.13998343D-02 0.40811297D+00 0.13010234D+05 0.13010234D+05 0.13010234D+05 0.12549307D+01  1  2  5  2  5  2        2 -.618723417951D-01 0.100000000000D+01
0.967727175572D-04 0.000000000000D+00 0.268037484086D-04 0.172851176189D-02 0.000000000000D+00  5 -2 2 25 23 21 2 0.13998343D-02 0.22508081D+00 0.13010234D+05 0.13010234D+05 0.13010234D+05 0.12549307D+01  1  2  6  2  5  2        2 0.271460097953D+00 0.100000000000D+01
0.279563460150D-05 0.000000000000D+00 0.000000000000D+00 0.172851176189D-02 0.000000000000D+00  5 -2 21 25 23 -2 2 0.13998343D-02 0.39779945D+00 0.22341421D+05 0.22341421D+05 0.22341421D+05 0.12285676D+01  1  2 12  4  5  2        2 0.398246907848D-03 0.100000000000D+01
-.420525371907D-05 0.000000000000D+00 -.206510295184D-05 0.172851176189D-02 0.000000000000D+00  5 -2 21 25 23 -2 2 0.13998343D-02 0.40811297D+00 0.13010234D+05 0.13010234D+05 0.13010234D+05 0.12549307D+01  1  2  5  4  5  2        2 -.569794546709D-03 0.100000000000D+01
  </mgrwgt>
  </event>
  <event>
  5     66 0.46888340E-03 0.11439350E+03 0.75467711E-02 0.12085832E+00
       -4 -1    0    0    0  501 0.00000000E+00 0.00000000E+00 0.11253459E+04 0.11253469E+04 0.15500000E+01 0.0000E+00 0.9000E+01
       21 -1    0    0  501  502 0.00000000E+00 0.00000000E+00 -.26954797E+02 0.26965229E+02 0.75000000E+00 0.0000E+00 0.9000E+01
       25  1    1    2    0    0 0.53017608E+02 -.45296991E+01 0.55301136E+03 0.56945408E+03 0.12500000E+03 0.0000E+00 0.9000E+01
       23  1    1    2    0    0 -.11065820E+02 0.36222485E+02 0.12545543E+03 0.15965224E+03 0.91188000E+02 0.0000E+00 0.9000E+01
       -4  1    1    2    0  502 -.41951788E+02 -.31692786E+02 0.41992427E+03 0.42320584E+03 0.15500000E+01 0.0000E+00 0.9000E+01
#aMCatNLO 2  0  0  2  2 0.52577421D+02 0.00000000D+00  -5  5  0 0.00000000D+00 0.00000000D+00 0.00000000D+00 0.00000000D+00 0.00000000D+00
  <mgrwgt>
 0.1418903326D-01    1    2    0
 0.130876326651056D+03 0.000000000000000D+00 0.000000000000000D+00 0.130876326651056D+03
 0.130876326651056D+03 0.000000000000000D+00 0.000000000000000D+00 -.130876326651056D+03
 0.144839410814263D+03 0.296400721306890D+02 -.221904297777610D+02 0.631070984548378D+02
 0.116913242487850D+03 -.296400721306890D+02 0.221904297777610D+02 -.631070984548378D+02
 0.000000000000000D+00 -.000000000000000D+00 -.000000000000000D+00 0.000000000000000D+00
 0.213440991408096D+03 0.000000000000000D+00 0.000000000000000D+00 0.213440991408096D+03
 0.142134534741242D+03 0.000000000000000D+00 0.000000000000000D+00 -.142134534741242D+03
 0.149796164191967D+03 0.530176079969586D+02 -.452969905391069D+01 0.631070984548378D+02
 0.117184802694027D+03 -.110658200318133D+02 0.362224845927624D+02 -.631070984548378D+02
 0.885945592633435D+02 -.419517879651453D+02 -.316927855388517D+02 0.713064566668539D+02
0.280691478702D-04 0.000000000000D+00 0.000000000000D+00 0.124420281126D-02 0.823579744813D-07  5 -4 21 25 23 -4 2 0.17312315D+00 0.41475878D-02 0.20617030D+05 0.20617030D+05 0.20617030D+05 0.12323759D+01  1  2  1  4  5  2        4 0.141890332624D-01 0.100000000000D+01
  </mgrwgt>
  </event>
  <event>
  4     66 0.46888340E-03 0.17532036E+03 0.75467711E-02 0.11464106E+00
       -2 -1    0    0    0  501 0.00000000E+00 0.00000000E+00 0.22977928E+03 0.22977950E+03 0.32000000E+00 0.0000E+00 0.9000E+01
        2 -1    0    0  501    0 0.00000000E+00 0.00000000E+00 -.22226390E+03 0.22226413E+03 0.32000000E+00 0.0000E+00 0.9000E+01
       25  1    1    2    0    0 -.11129900E+03 -.80549882E+02 0.14635921E+03 0.23647784E+03 0.12500000E+03 0.0000E+00 0.9000E+01
       23  1    1    2    0    0 0.11129900E+03 0.80549882E+02 -.13884383E+03 0.21556579E+03 0.91188000E+02 0.0000E+00 0.9000E+01
#aMCatNLO 1  0  0  1  2 0.54941950D+02 0.00000000D+00  -5  5  0 0.00000000D+00 0.00000000D+00 0.00000000D+00 0.00000000D+00 0.00000000D+00
  <mgrwgt>
 0.1472743538D+00    4    2    0
 0.225990576988882D+03 0.000000000000000D+00 0.000000000000000D+00 0.225990576988882D+03
 0.225990576988882D+03 0.000000000000000D+00 0.000000000000000D+00 -.225990576988882D+03
 0.234076919297260D+03 -.111299001357523D+03 -.805498815807763D+02 0.142447369304727D+03
 0.217904234680504D+03 0.111299001357523D+03 0.805498815807763D+02 -.142447369304727D+03
 0.000000000000000D+00 0.000000000000000D+00 0.000000000000000D+00 -.000000000000000D+00
 0.231812251176798D+03 0.000000000000000D+00 0.000000000000000D+00 0.231812251176798D+03
 0.409142682363898D+03 0.000000000000000D+00 0.000000000000000D+00 -.409142682363898D+03
 0.251403010573584D+03 -.139695396273076D+03 -.881613121711139D+02 0.142447369304727D+03
 0.203905216271641D+03 0.866267811247807D+02 0.739366867590566D+02 -.142447369304727D+03
 0.185646706695471D+03 0.530686151482953D+02 0.142246254120572D+02 -.177330431187100D+03
0.131719784231D-02 0.000000000000D+00 0.000000000000D+00 0.690473501380D-03 0.000000000000D+00  5 -2 2 25 23 21 0 0.35350693D-01 0.34194481D-01 0.30737229D+05 0.30737229D+05 0.30737229D+05 0.12137934D+01  1  2  2  1  5  1       -2 0.149417587942D+00 0.100000000000D+01
-.674429487870D-04 0.000000000000D+00 -.505838654062D-05 0.690473501380D-03 0.000000000000D+00  5 -2 2 25 23 21 2 0.35350693D-01 0.34194481D-01 0.30737229D+05 0.30737229D+05 0.30737229D+05 0.12137934D+01  1  2  3  1  5  1       -2 -.112713721694D-01 0.100000000000D+01
0.900386594500D-04 0.000000000000D+00 0.000000000000D+00 0.690473501380D-03 0.000000000000D+00  5 -2 2 25 23 21 2 0.35350693D-01 0.34194481D-01 0.30737229D+05 0.30737229D+05 0.30737229D+05 0.12137934D+01  1  2 15  1  5  1       -2 0.150476700463D-01 0.100000000000D+01
-.354198839837D-04 0.000000000000D+00 0.000000000000D+00 0.690473501380D-03 0.000000000000D+00  5 -2 2 25 23 21 2 0.35350693D-01 0.34194481D-01 0.30737229D+05 0.30737229D+05 0.30737229D+05 0.12137934D+01  1  2  4  1  5  1       -2 -.591953201567D-02 0.100000000000D+01
  </mgrwgt>
  </event>
  <event>
  4     66 0.46888340E-03 0.12543063E+03 0.75467711E-02 0.10995683E+00
       -2 -1    0    0    0  501 0.00000000E+00 0.00000000E+00 0.46065915E+02 0.46067026E+02 0.32000000E+00 0.0000E+00 0.9000E+01
        2 -1    0    0  501    0 0.00000000E+00 0.00000000E+00 -.36816781E+03 0.36816795E+03 0.32000000E+00 0.0000E+00 0.9000E+01
       25  1    1    2    0    0 -.53236693E+02 -.33776278E+02 -.12303584E+03 0.18638079E+03 0.12500000E+03 0.0000E+00 0.9000E+01
       23  1    1    2    0    0 0.53236693E+02 0.33776278E+02 -.19906606E+03 0.22785419E+03 0.91188000E+02 0.0000E+00 0.9000E+01
#aMCatNLO 1  0  0  1  2 0.21572466D+03 0.00000000D+00  -5  5  0 0.00000000D+00 0.00000000D+00 0.00000000D+00 0.00000000D+00 0.00000000D+00
  <mgrwgt>
 0.1729656622D+00    3    2    0
 0.130231509593893D+03 0.000000000000000D+00 0.000000000000000D+00 0.130231509593893D+03
 0.130231509593893D+03 0.000000000000000D+00 0.000000000000000D+00 -.130231509593893D+03
 0.144263729366962D+03 -.532366927790595D+02 -.337762781892181D+02 0.348143818629109D+02
 0.116199289820825D+03 0.532366927790595D+02 0.337762781892181D+02 -.348143818629109D+02
 0.000000000000000D+00 0.000000000000000D+00 -.000000000000000D+00 -.000000000000000D+00
 0.242159865847626D+03 0.000000000000000D+00 0.000000000000000D+00 0.242159865847626D+03
 0.328340491607942D+03 0.000000000000000D+00 0.000000000000000D+00 -.328340491607942D+03
 0.216385520406496D+03 -.172158172494283D+03 0.186337301827105D+02 0.348143818629109D+02
 0.121812814548064D+03 -.252460758928903D+02 0.683645003758147D+02 -.348143818629109D+02
 0.232302022501008D+03 0.197404248387174D+03 -.869982305585252D+02 -.861806257603166D+02
0.179542448113D-03 0.000000000000D+00 0.000000000000D+00 0.144227557759D-02 0.000000000000D+00  5 -2 2 25 23 21 0 0.70871600D-02 0.56641298D-01 0.15732843D+05 0.15732843D+05 0.15732843D+05 0.12454678D+01  1  2  2  1  5  1       -2 0.169369484275D+00 0.100000000000D+01
-.995747058266D-05 0.000000000000D+00 -.689490275367D-06 0.144227557759D-02 0.000000000000D+00  5 -2 2 25 23 21 2 0.70871600D-02 0.56641298D-01 0.15732843D+05 0.15732843D+05 0.15732843D+05 0.12454678D+01  1  2  3  1  5  1       -2 -.145707549199D-01 0.100000000000D+01
0.124150533067D-04 0.000000000000D+00 0.000000000000D+00 0.144227557759D-02 0.000000000000D+00  5 -2 2 25 23 21 2 0.70871600D-02 0.56641298D-01 0.15732843D+05 0.15732843D+05 0.15732843D+05 0.12454678D+01  1  2 15  1  5  1       -2 0.181669328116D-01 0.100000000000D+01
  </mgrwgt>
  </event>
  <event>
  4     66 0.46888340E-03 0.49227493E+02 0.75467711E-02 0.12388943E+00
       -2 -1    0    0    0  501 0.00000000E+00 0.00000000E+00 0.80009805E+02 0.80010445E+02 0.32000000E+00 0.0000E+00 0.9000E+01
        2 -1    0    0  501    0 0.00000000E+00 0.00000000E+00 -.16167984E+03 0.16168016E+03 0.32000000E+00 0.0000E+00 0.9000E+01
       25  1    1    2    0    0 0.11751405E+02 -.32247680E+02 -.53818442E+02 0.14035467E+03 0.12500000E+03 0.0000E+00 0.9000E+01
       23  1    1    2    0    0 -.11751405E+02 0.32247680E+02 -.27851591E+02 0.10133593E+03 0.91188000E+02 0.0000E+00 0.9000E+01
#aMCatNLO 1  0  0  2  1 0.17438229D+02 0.00000000D+00  -5  5  0 0.00000000D+00 0.00000000D+00 0.00000000D+00 0.00000000D+00 0.00000000D+00
  <mgrwgt>
 0.1582688064D+00    9    2    0
 0.113736924164263D+03 0.000000000000000D+00 0.000000000000000D+00 0.113736924164263D+03
 0.113736924164263D+03 0.000000000000000D+00 0.000000000000000D+00 -.113736924164263D+03
 0.129804152792327D+03 0.117514054777152D+02 -.322476799736961D+02 -.679041145632588D+01
 0.976696955361990D+02 -.117514054777152D+02 0.322476799736961D+02 0.679041145632588D+01
 0.000000000000000D+00 -.000000000000000D+00 -.000000000000000D+00 -.000000000000000D+00
 0.119539959318523D+03 0.000000000000000D+00 0.000000000000000D+00 0.119539959318523D+03
 0.127970533234715D+03 0.000000000000000D+00 0.000000000000000D+00 -.127970533234715D+03
 0.129088808604516D+03 0.188014382759947D+02 -.252847135230196D+02 -.679041145632588D+01
 0.990524710959552D+02 -.639437406433747D+01 0.375385532325656D+02 0.679041145632588D+01
 0.193692128527675D+02 -.124070642116572D+02 -.122538397095460D+02 -.843057391619221D+01
0.101766524858D-03 0.000000000000D+00 0.000000000000D+00 0.178610229013D-02 0.000000000000D+00  5 -2 2 25 23 21 0 0.12309274D-01 0.24873895D-01 0.12889036D+05 0.12889036D+05 0.12889036D+05 0.12554025D+01  1  2  2  2  5  2        2 0.970017888419D-01 0.100000000000D+01
-.565367300692D-05 0.000000000000D+00 -.390810251198D-06 0.178610229013D-02 0.000000000000D+00  5 -2 2 25 23 21 2 0.12309274D-01 0.24873895D-01 0.12889036D+05 0.12889036D+05 0.12889036D+05 0.12554025D+01  1  2  3  2  5  2        2 -.849320278138D-02 0.100000000000D+01
0.702809777124D-05 0.000000000000D+00 0.000000000000D+00 0.178610229013D-02 0.000000000000D+00  5 -2 2 25 23 21 2 0.12309274D-01 0.24873895D-01 0.12889036D+05 0.12889036D+05 0.12889036D+05 0.12554025D+01  1  2 15  2  5  2        2 0.105579256999D-01 0.100000000000D+01
0.203165046759D-03 0.000000000000D+00 0.000000000000D+00 0.178610229013D-02 0.000000000000D+00  5 -2 2 25 23 21 2 0.12309274D-01 0.28562280D-01 0.15026808D+05 0.15026808D+05 0.15026808D+05 0.12477341D+01  1  2 12  2  5  2        2 0.260848954103D+00 0.100000000000D+01
-.197526890060D-03 0.000000000000D+00 0.000000000000D+00 0.178610229013D-02 0.000000000000D+00  5 -2 2 25 23 21 2 0.12309274D-01 0.24873895D-01 0.12889036D+05 0.12889036D+05 0.12889036D+05 0.12554025D+01  1  2  4  2  5  2        2 -.296733810038D+00 0.100000000000D+01
-.488802487930D-03 0.000000000000D+00 -.106311291187D-03 0.178610229013D-02 0.000000000000D+00  5 -2 2 25 23 21 2 0.12309274D-01 0.29289317D-01 0.12889036D+05 0.12889036D+05 0.12889036D+05 0.12554025D+01  1  2  5  2  5  2        2 -.614675305476D+00 0.100000000000D+01
0.500876054650D-03 0.000000000000D+00 0.104907610015D-03 0.178610229013D-02 0.000000000000D+00  5 -2 2 25 23 21 2 0.12309274D-01 0.24873895D-01 0.12889036D+05 0.12889036D+05 0.12889036D+05 0.12554025D+01  1  2  6  2  5  2        2 0.752438617386D+00 0.100000000000D+01
0.433662748666D-05 0.000000000000D+00 0.000000000000D+00 0.178610229013D-02 0.000000000000D+00  5 -2 21 25 23 -2 2 0.12309274D-01 0.28562280D-01 0.15026808D+05 0.15026808D+05 0.15026808D+05 0.12477341D+01  1  2 12  4  5  2        2 0.292408080737D-01 0.100000000000D+01
-.110837958568D-04 0.000000000000D+00 -.259764336074D-05 0.178610229013D-02 0.000000000000D+00  5 -2 21 25 23 -2 2 0.12309274D-01 0.29289317D-01 0.12889036D+05 0.12889036D+05 0.12889036D+05 0.12554025D+01  1  2  5  4  5  2        2 -.719169694070D-01 0.100000000000D+01
  </mgrwgt>
  </event>
  <event>
  4     66 0.46888340E-03 0.12773196E+03 0.75467711E-02 0.11419507E+00
       -4 -1    0    0    0  501 0.00000000E+00 0.00000000E+00 0.48287483E+02 0.48312354E+02 0.15500000E+01 0.0000E+00 0.9000E+01
        4 -1    0    0  501    0 0.00000000E+00 0.00000000E+00 -.33830046E+03 0.33830401E+03 0.15500000E+01 0.0000E+00 0.9000E+01
       25  1    1    2    0    0 0.43950118E+02 -.51170300E+02 -.15360194E+03 0.20920939E+03 0.12500000E+03 0.0000E+00 0.9000E+01
       23  1    1    2    0    0 -.43950118E+02 0.51170300E+02 -.13641103E+03 0.17740697E+03 0.91188000E+02 0.0000E+00 0.9000E+01
#aMCatNLO 1  0  0  2  1 0.13164119D+03 0.00000000D+00  -5  5  0 0.00000000D+00 0.00000000D+00 0.00000000D+00 0.00000000D+00 0.00000000D+00
  <mgrwgt>
 0.1056334621D-01    5    2    0
 0.127832591762297D+03 0.000000000000000D+00 0.000000000000000D+00 0.127832591762297D+03
 0.127832591762297D+03 0.000000000000000D+00 0.000000000000000D+00 -.127832591762297D+03
 0.142128141424609D+03 0.439501179655155D+02 -.511702999806374D+02 0.503945587563733D+01
 0.113537042099984D+03 -.439501179655155D+02 0.511702999806374D+02 -.503945587563733D+01
 0.000000000000000D+00 -.000000000000000D+00 -.000000000000000D+00 -.000000000000000D+00
 0.204217489240677D+03 0.000000000000000D+00 0.000000000000000D+00 0.204217489240677D+03
 0.215469507628725D+03 0.000000000000000D+00 0.000000000000000D+00 -.215469507628725D+03
 0.136648288574591D+03 0.526496681409592D+02 0.158231191453850D+02 0.503945587563733D+01
 0.150917510807594D+03 -.356974990043263D+02 0.114721995160797D+03 -.503945587563733D+01
 0.132121197487217D+03 -.169521691366329D+02 -.130545114306182D+03 -.112520183880483D+02
0.133486552486D-03 0.000000000000D+00 0.000000000000D+00 0.155510328285D-02 0.000000000000D+00  5 -4 4 25 23 21 0 0.74310298D-02 0.52048410D-01 0.16315453D+05 0.16315453D+05 0.16315453D+05 0.12436820D+01  1  2  2  2  5  2        4 0.972885848659D-02 0.100000000000D+01
-.741591399029D-05 0.000000000000D+00 -.512623509362D-06 0.155510328285D-02 0.000000000000D+00  5 -4 4 25 23 21 2 0.74310298D-02 0.52048410D-01 0.16315453D+05 0.16315453D+05 0.16315453D+05 0.12436820D+01  1  2  3  2  5  2        4 -.836002776328D-03 0.100000000000D+01
0.922173296092D-05 0.000000000000D+00 0.000000000000D+00 0.155510328285D-02 0.000000000000D+00  5 -4 4 25 23 21 2 0.74310298D-02 0.52048410D-01 0.16315453D+05 0.16315453D+05 0.16315453D+05 0.12436820D+01  1  2 15  2  5  2        4 0.103957440283D-02 0.100000000000D+01
-.869507322632D-05 0.000000000000D+00 -.487208253544D-04 0.155510328285D-02 0.000000000000D+00  5 -4 4 25 23 21 2 0.74310298D-02 0.12938737D+00 0.16315453D+05 0.16315453D+05 0.16315453D+05 0.12436820D+01  1  2  5  2  5  2        4 -.128987921105D-03 0.100000000000D+01
0.214894991337D-05 0.000000000000D+00 -.487940886769D-05 0.155510328285D-02 0.000000000000D+00  5 -4 21 25 23 -4 2 0.74310298D-02 0.12938737D+00 0.16315453D+05 0.16315453D+05 0.16315453D+05 0.12436820D+01  1  2  5  4  5  2        4 0.759904018129D-03 0.100000000000D+01
  </mgrwgt>
  </event>
  <event>
  4     66 0.46888340E-03 0.12293389E+03 0.75467711E-02 0.10613141E+00
       -2 -1    0    0    0  501 0.00000000E+00 0.00000000E+00 0.48441567E+02 0.48442624E+02 0.32000000E+00 0.0000E+00 0.9000E+01
        2 -1    0    0  501    0 0.00000000E+00 0.00000000E+00 -.35597356E+03 0.35597370E+03 0.32000000E+00 0.0000E+00 0.9000E+01
       25  1    1    2    0    0 -.36641419E+02 0.44955505E+02 -.24069483E+03 0.27734922E+03 0.12500000E+03 0.0000E+00 0.9000E+01
       23  1    1    2    0    0 0.36641419E+02 -.44955505E+02 -.66837161E+02 0.12706710E+03 0.91188000E+02 0.0000E+00 0.9000E+01
#aMCatNLO 1  0  0  1  1 0.31034517D+03 0.00000000D+00  -5  5  0 0.00000000D+00 0.00000000D+00 0.00000000D+00 0.00000000D+00 0.00000000D+00
  <mgrwgt>
 0.1856877916D+00    5    2    0
 0.131317020284735D+03 0.000000000000000D+00 0.000000000000000D+00 0.131317020284735D+03
 0.131317020284735D+03 0.000000000000000D+00 0.000000000000000D+00 -.131317020284735D+03
 0.145233245005929D+03 -.366414190542922D+02 0.449555050718901D+02 -.458705180739358D+02
 0.117400795563541D+03 0.366414190542922D+02 -.449555050718901D+02 0.458705180739358D+02
 0.000000000000000D+00 -.000000000000000D+00 -.000000000000000D+00 0.000000000000000D+00
 0.363209841679575D+03 0.000000000000000D+00 0.000000000000000D+00 0.363209841679575D+03
 0.353836511448578D+03 0.000000000000000D+00 0.000000000000000D+00 -.353836511448578D+03
 0.190736630855221D+03 0.117095133938467D+03 0.702857562352572D+02 -.458705180739358D+02
 0.215823035710998D+03 0.189121408707770D+03 -.198322903248277D+02 0.458705180739358D+02
 0.310486686561934D+03 -.306216542646236D+03 -.504534659104295D+02 0.937333023099633D+01
0.168412714195D-03 0.000000000000D+00 0.000000000000D+00 0.137013090763D-02 0.000000000000D+00  5 -2 2 25 23 21 0 0.74526412D-02 0.54765255D-01 0.15112742D+05 0.15112742D+05 0.15112742D+05 0.12474520D+01  1  2  2  1  5  1       -2 0.152225154736D+00 0.100000000000D+01
-.930675728742D-05 0.000000000000D+00 -.646749166596D-06 0.137013090763D-02 0.000000000000D+00  5 -2 2 25 23 21 2 0.74526412D-02 0.54765255D-01 0.15112742D+05 0.15112742D+05 0.15112742D+05 0.12474520D+01  1  2  3  1  5  1       -2 -.130905412485D-01 0.100000000000D+01
0.116316511133D-04 0.000000000000D+00 0.000000000000D+00 0.137013090763D-02 0.000000000000D+00  5 -2 2 25 23 21 2 0.74526412D-02 0.54765255D-01 0.15112742D+05 0.15112742D+05 0.15112742D+05 0.12474520D+01  1  2 15  1  5  1       -2 0.163606510823D-01 0.100000000000D+01
0.186103814457D-03 0.000000000000D+00 -.838757546353D-04 0.137013090763D-02 0.000000000000D+00  5 -2 2 25 23 21 2 0.53952880D-01 0.54765255D-01 0.15112742D+05 0.15112742D+05 0.15112742D+05 0.12474520D+01  1  2  5  1  5  1       -2 0.876815199391D-02 0.100000000000D+01
0.365299651665D-04 0.000000000000D+00 -.202672867575D-04 0.137013090763D-02 0.000000000000D+00  5 21 2 25 23 2 2 0.53952880D-01 0.54765255D-01 0.15112742D+05 0.15112742D+05 0.15112742D+05 0.12474520D+01  1  2  5  3  5  1       -2 0.214243749945D-01 0.100000000000D+01
  </mgrwgt>
  </event>
  <event>
  5     66 0.46888340E-03 0.21353081E+03 0.75467711E-02 0.10953701E+00
       -2 -1    0    0    0  502 0.00000000E+00 0.00000000E+00 0.60992800E+02 0.60993639E+02 0.32000000E+00 0.0000E+00 0.9000E+01
        2 -1    0    0  501    0 0.00000000E+00 0.00000000E+00 -.27255866E+04 0.27255866E+04 0.32000000E+00 0.0000E+00 0.9000E+01
       25  1    1    2    0    0 0.64641153E+02 -.10658456E+03 -.15130225E+03 0.23249972E+03 0.12500000E+03 0.0000E+00 0.9000E+01
       23  1    1    2    0    0 -.12544723E+03 0.21216101E+03 -.22335579E+04 0.22489654E+04 0.91188000E+02 0.0000E+00 0.9000E+01
       21  1    1    2  501  502 0.60806080E+02 -.10557644E+03 -.27973372E+03 0.30511519E+03 0.75000000E+00 0.0000E+00 0.9000E+01
#aMCatNLO 2  0  0  1  2 0.12183499D+03 0.00000000D+00  -5  5  0 0.00000000D+00 0.00000000D+00 0.00000000D+00 0.00000000D+00 0.00000000D+00
  <mgrwgt>
 0.9916900775D-02    2    2    0
 0.337367566762153D+03 0.000000000000000D+00 0.000000000000000D+00 0.337367566762153D+03
 0.337367566762153D+03 0.000000000000000D+00 0.000000000000000D+00 -.337367566762153D+03
 0.342784320902270D+03 0.940509194720728D+02 -.157648183583516D+03 0.261108340379441D+03
 0.331950812622036D+03 -.940509194720728D+02 0.157648183583516D+03 -.261108340379441D+03
 0.000000000000000D+00 0.000000000000000D+00 -.000000000000000D+00 0.000000000000000D+00
 0.432893693870914D+03 0.000000000000000D+00 0.000000000000000D+00 0.432893693870914D+03
 0.384023758346287D+03 0.000000000000000D+00 0.000000000000000D+00 -.384023758346287D+03
 0.315184570173452D+03 0.646411532425152D+02 -.106584563456417D+03 0.261108340379441D+03
 0.370462033721772D+03 -.125447233017894D+03 0.212161008193587D+03 -.261108340379441D+03
 0.131270848321978D+03 0.608060797753788D+02 -.105576444737170D+03 0.488699355246271D+02
-.467142393328D-03 0.000000000000D+00 0.000000000000D+00 0.419325886528D-03 0.000000000000D+00  5 -2 2 25 23 21 2 0.97754680D-02 0.36837553D+00 0.78727638D+05 0.78727638D+05 0.78727638D+05 0.11732360D+01  1  2 13  1  5  1       -2 -.202536519881D-01 0.100000000000D+01
0.994269115375D-03 0.000000000000D+00 0.000000000000D+00 0.419325886528D-03 0.211787864590D-06  5 -2 2 25 23 21 2 0.93835485D-02 0.41931996D+00 0.78727638D+05 0.78727638D+05 0.78727638D+05 0.11732360D+01  1  2  1  1  5  1       -2 0.301705527629D-01 0.100000000000D+01
  </mgrwgt>
  </event>
  <event>
  5     66 0.46888340E-03 0.11656355E+03 0.75467711E-02 0.11985829E+00
       -2 -1    0    0    0  502 0.00000000E+00 0.00000000E+00 0.51564799E+02 0.51565791E+02 0.32000000E+00 0.0000E+00 0.9000E+01
        2 -1    0    0  501    0 0.00000000E+00 0.00000000E+00 -.50861039E+03 0.50861049E+03 0.32000000E+00 0.0000E+00 0.9000E+01
       25  1    1    2    0    0 0.77013590E+02 0.16166748E+02 -.31390143E+03 0.34691723E+03 0.12500000E+03 0.0000E+00 0.9000E+01
       23  1    1    2    0    0 -.15006843E+02 -.12739434E+02 -.10463591E+03 0.14018354E+03 0.91188000E+02 0.0000E+00 0.9000E+01
       21  1    1    2  501  502 -.62006747E+02 -.34273138E+01 -.38508249E+02 0.73075515E+02 0.75000000E+00 0.0000E+00 0.9000E+01
#aMCatNLO 2  0  0  1  2 0.62101394D+02 0.00000000D+00  -5  5  0 0.00000000D+00 0.00000000D+00 0.00000000D+00 0.00000000D+00 0.00000000D+00
  <mgrwgt>
 0.2251774156D-01    2    2    0
 0.120661786863248D+03 0.000000000000000D+00 0.000000000000000D+00 0.120661786863248D+03
 0.120661786863248D+03 0.000000000000000D+00 0.000000000000000D+00 -.120661786863248D+03
 0.135806906221303D+03 0.407691093440450D+02 0.141633980803552D+02 -.309159126585711D+02
 0.105516667505194D+03 -.407691093440450D+02 -.141633980803552D+02 0.309159126585711D+02
 0.000000000000000D+00 -.000000000000000D+00 -.000000000000000D+00 0.000000000000000D+00
 0.187406129142703D+03 0.000000000000000D+00 0.000000000000000D+00 0.187406129142703D+03
 0.139942415628818D+03 0.000000000000000D+00 0.000000000000000D+00 -.139942415628818D+03
 0.150908086160200D+03 0.770135901855309D+02 0.161667479647895D+02 -.309159126585711D+02
 0.982778893166422D+02 -.150068433077444D+02 -.127394341694827D+02 0.309159126585711D+02
 0.781625692946791D+02 -.620067468777866D+02 -.342731379530687D+01 0.474637135138847D+02
-.324914137235D-04 0.000000000000D+00 0.000000000000D+00 0.157983453814D-02 0.000000000000D+00  5 -2 2 25 23 21 2 0.81579192D-02 0.67466393D-01 0.22966987D+05 0.22966987D+05 0.22966987D+05 0.12272667D+01  1  2 13  1  5  1       -2 -.312083830575D-01 0.100000000000D+01
0.629905604418D-04 0.000000000000D+00 0.000000000000D+00 0.157983453814D-02 0.361508475129D-05  5 -2 2 25 23 21 2 0.79330344D-02 0.78246893D-01 0.22966987D+05 0.22966987D+05 0.22966987D+05 0.12272667D+01  1  2  1  1  5  1       -2 0.537261246220D-01 0.100000000000D+01
  </mgrwgt>
  </event>
  <event>
  4     66 0.46888340E-03 0.96845212E+02 0.75467711E-02 0.12081033E+00
       -2 -1    0    0    0  501 0.00000000E+00 0.00000000E+00 0.17231763E+03 0.17231793E+03 0.32000000E+00 0.0000E+00 0.9000E+01
        2 -1    0    0  501    0 0.00000000E+00 0.00000000E+00 -.18616665E+03 0.18616692E+03 0.32000000E+00 0.0000E+00 0.9000E+01
       25  1    1    2    0    0 0.78044234E+02 -.25939566E+02 0.10874229E+03 0.18496932E+03 0.12500000E+03 0.0000E+00 0.9000E+01
       23  1    1    2    0    0 -.78044234E+02 0.25939566E+02 -.12259130E+03 0.17351554E+03 0.91188000E+02 0.0000E+00 0.9000E+01
#aMCatNLO 1  0  0  1  2 0.15038361D+02 0.00000000D+00  -5  5  0 0.00000000D+00 0.00000000D+00 0.00000000D+00 0.00000000D+00 0.00000000D+00
  <mgrwgt>
 0.1688479113D+00    6    2    0
 0.179108622518146D+03 0.000000000000000D+00 0.000000000000000D+00 0.179108622518146D+03
 0.179108622518146D+03 0.000000000000000D+00 0.000000000000000D+00 -.179108622518146D+03
 0.189311577229692D+03 0.780442337373934D+02 -.259395656239652D+02 0.115974608379493D+03
 0.168905667806600D+03 -.780442337373934D+02 0.259395656239652D+02 -.115974608379493D+03
 0.000000000000000D+00 -.000000000000000D+00 -.000000000000000D+00 -.000000000000000D+00
 0.186229487581511D+03 0.000000000000000D+00 0.000000000000000D+00 0.186229487581511D+03
 0.187386052115703D+03 0.000000000000000D+00 0.000000000000000D+00 -.187386052115703D+03
 0.189181612294669D+03 0.798920573268097D+02 -.182162514728856D+02 0.115974608379493D+03
 0.169351157407880D+03 -.763928461874671D+02 0.328418396864423D+02 -.115974608379493D+03
 0.150827699946654D+02 -.349921113934262D+01 -.146255882135567D+02 -.115656453419206D+01
0.407554320597D-03 0.000000000000D+00 0.000000000000D+00 0.762071685796D-03 0.000000000000D+00  5 -2 2 25 23 21 0 0.26510449D-01 0.28641067D-01 0.18553899D+05 0.18553899D+05 0.18553899D+05 0.12374307D+01  1  2  2  1  5  1       -2 0.935213530879D-01 0.100000000000D+01
-.205785154676D-04 0.000000000000D+00 -.156511590261D-05 0.762071685796D-03 0.000000000000D+00  5 -2 2 25 23 21 2 0.26510449D-01 0.28641067D-01 0.18553899D+05 0.18553899D+05 0.18553899D+05 0.12374307D+01  1  2  3  1  5  1       -2 -.723071215053D-02 0.100000000000D+01
0.276670951864D-04 0.000000000000D+00 0.000000000000D+00 0.762071685796D-03 0.000000000000D+00  5 -2 2 25 23 21 2 0.26510449D-01 0.28641067D-01 0.18553899D+05 0.18553899D+05 0.18553899D+05 0.12374307D+01  1  2 15  1  5  1       -2 0.972143989927D-02 0.100000000000D+01
0.692099796941D-03 0.000000000000D+00 0.000000000000D+00 0.762071685796D-03 0.000000000000D+00  5 -2 2 25 23 21 2 0.28151407D-01 0.28641067D-01 0.20723234D+05 0.20723234D+05 0.20723234D+05 0.12321312D+01  1  2 12  1  5  1       -2 0.217262639422D+00 0.100000000000D+01
-.500535033341D-03 0.000000000000D+00 0.000000000000D+00 0.762071685796D-03 0.000000000000D+00  5 -2 2 25 23 21 2 0.26510449D-01 0.28641067D-01 0.18553899D+05 0.18553899D+05 0.18553899D+05 0.12374307D+01  1  2  4  1  5  1       -2 -.175873947421D+00 0.100000000000D+01
0.754491425924D-05 0.000000000000D+00 0.000000000000D+00 0.762071685796D-03 0.000000000000D+00  5 21 2 25 23 2 2 0.28151407D-01 0.28641067D-01 0.20723234D+05 0.20723234D+05 0.20723234D+05 0.12321312D+01  1  2 12  3  5  1       -2 0.314471384170D-01 0.100000000000D+01
  </mgrwgt>
  </event>
  <event>
  4     66 0.46888340E-03 0.12271521E+03 0.75467711E-02 0.11182976E+00
       -4 -1    0    0    0  501 0.00000000E+00 0.00000000E+00 0.15671437E+03 0.15672204E+03 0.15500000E+01 0.0000E+00 0.9000E+01
        4 -1    0    0  501    0 0.00000000E+00 0.00000000E+00 -.10455120E+03 0.10456269E+03 0.15500000E+01 0.0000E+00 0.9000E+01
       25  1    1    2    0    0 -.12207397E+02 0.56228453E+02 0.65930184E+02 0.15258587E+03 0.12500000E+03 0.0000E+00 0.9000E+01
       23  1    1    2    0    0 0.12207397E+02 -.56228453E+02 -.13767017E+02 0.10869886E+03 0.91188000E+02 0.0000E+00 0.9000E+01
#aMCatNLO 1  0  0  2  2 0.18014952D+03 0.00000000D+00  -5  5  0 0.00000000D+00 0.00000000D+00 0.00000000D+00 0.00000000D+00 0.00000000D+00
  <mgrwgt>
 0.2844800700D-01    3    2    0
 0.128012415714642D+03 0.000000000000000D+00 0.000000000000000D+00 0.128012415714642D+03
 0.128012415714642D+03 0.000000000000000D+00 0.000000000000000D+00 -.128012415714642D+03
 0.142287883869806D+03 -.122073968848977D+02 0.562284529401948D+02 0.361964423306262D+02
 0.113736947559478D+03 0.122073968848977D+02 -.562284529401948D+02 -.361964423306262D+02
 0.000000000000000D+00 -.000000000000000D+00 0.000000000000000D+00 0.000000000000000D+00
 0.422986714655544D+03 0.000000000000000D+00 0.000000000000000D+00 0.422986714655544D+03
 0.186975897353629D+03 0.000000000000000D+00 0.000000000000000D+00 -.186975897353629D+03
 0.133506987133204D+03 0.831833113376546D+01 -.286310765277901D+02 0.361964423306262D+02
 0.179546623821712D+03 0.340347020723347D+02 -.146469093665621D+03 -.361964423306262D+02
 0.296909001054257D+03 -.423530332061002D+02 0.175100170193412D+03 0.236010817301915D+03
0.322637938936D-03 0.000000000000D+00 0.000000000000D+00 0.145880373820D-02 0.000000000000D+00  5 -4 4 25 23 21 0 0.24111377D-01 0.16086274D-01 0.15059023D+05 0.15059023D+05 0.15059023D+05 0.12476281D+01  1  2  2  2  5  2        4 0.278558315649D-01 0.100000000000D+01
-.178854072301D-04 0.000000000000D+00 -.123901463804D-05 0.145880373820D-02 0.000000000000D+00  5 -4 4 25 23 21 2 0.24111377D-01 0.16086274D-01 0.15059023D+05 0.15059023D+05 0.15059023D+05 0.12476281D+01  1  2  3  2  5  2        4 -.240364239432D-02 0.100000000000D+01
0.222917610612D-04 0.000000000000D+00 0.000000000000D+00 0.145880373820D-02 0.000000000000D+00  5 -4 4 25 23 21 2 0.24111377D-01 0.16086274D-01 0.15059023D+05 0.15059023D+05 0.15059023D+05 0.12476281D+01  1  2 15  2  5  2        4 0.299581783302D-02 0.100000000000D+01
  </mgrwgt>
  </event>
  <event>
  4     66 0.46888340E-03 0.13336223E+03 0.75467711E-02 0.11784962E+00
       -2 -1    0    0    0  501 0.00000000E+00 0.00000000E+00 0.63462491E+01 0.63543117E+01 0.32000000E+00 0.0000E+00 0.9000E+01
        2 -1    0    0  501    0 0.00000000E+00 0.00000000E+00 -.28055020E+04 0.28055020E+04 0.32000000E+00 0.0000E+00 0.9000E+01
       25  1    1    2    0    0 0.71805508E+02 -.29104904E+02 -.14854730E+04 0.14927351E+04 0.12500000E+03 0.0000E+00 0.9000E+01
       23  1    1    2    0    0 -.71805508E+02 0.29104904E+02 -.13136828E+04 0.13191213E+04 0.91188000E+02 0.0000E+00 0.9000E+01
#aMCatNLO 1  0  0  2  1 0.64382317D+02 0.00000000D+00  -5  5  0 0.00000000D+00 0.00000000D+00 0.00000000D+00 0.00000000D+00 0.00000000D+00
  <mgrwgt>
 0.1804626833D+00    4    2    0
 0.133475749849231D+03 0.000000000000000D+00 0.000000000000000D+00 0.133475749849231D+03
 0.133475749849231D+03 0.000000000000000D+00 0.000000000000000D+00 -.133475749849231D+03
 0.147166904729906D+03 0.718055075761083D+02 -.291049038156813D+02 0.547462358510757D+01
 0.119784594968557D+03 -.718055075761083D+02 0.291049038156813D+02 -.547462358510757D+01
 0.000000000000000D+00 -.000000000000000D+00 0.000000000000000D+00 0.000000000000000D+00
 0.190791369513264D+03 0.000000000000000D+00 0.000000000000000D+00 0.190791369513264D+03
 0.156676422994006D+03 0.000000000000000D+00 0.000000000000000D+00 -.156676422994006D+03
 0.166010551975878D+03 0.901031128364314D+02 -.615301626937756D+02 0.547462358510757D+01
 0.108594957599702D+03 -.584622773628653D+02 0.545931261514329D+01 -.547462358510757D+01
 0.728622829316896D+02 -.316408354735661D+02 0.560708500786323D+02 0.341149465192581D+02
0.414280122270D-03 0.000000000000D+00 0.000000000000D+00 0.148812875120D-02 0.000000000000D+00  5 -2 2 25 23 21 0 0.97696762D-03 0.43161632D+00 0.17785485D+05 0.17785485D+05 0.17785485D+05 0.12394765D+01  1  2  2  2  5  2        2 0.247591703419D+00 0.100000000000D+01
-.230155420905D-04 0.000000000000D+00 -.159094475198D-05 0.148812875120D-02 0.000000000000D+00  5 -2 2 25 23 21 2 0.97696762D-03 0.43161632D+00 0.17785485D+05 0.17785485D+05 0.17785485D+05 0.12394765D+01  1  2  3  2  5  2        2 -.211319619261D-01 0.100000000000D+01
0.286991220818D-04 0.000000000000D+00 0.000000000000D+00 0.148812875120D-02 0.000000000000D+00  5 -2 2 25 23 21 2 0.97696762D-03 0.43161632D+00 0.17785485D+05 0.17785485D+05 0.17785485D+05 0.12394765D+01  1  2 15  2  5  2        2 0.263504006449D-01 0.100000000000D+01
-.787960904532D-04 0.000000000000D+00 0.000000000000D+00 0.148812875120D-02 0.000000000000D+00  5 -2 2 25 23 21 2 0.97696762D-03 0.43161632D+00 0.17785485D+05 0.17785485D+05 0.17785485D+05 0.12394765D+01  1  2  4  2  5  2        2 -.723474588100D-01 0.100000000000D+01
  </mgrwgt>
  </event>
  <event>
  5     66 0.46888340E-03 0.11045732E+03 0.75467711E-02 0.12424573E+00
       21 -1    0    0  502  501 0.00000000E+00 0.00000000E+00 0.13619827E+02 0.13640461E+02 0.75000000E+00 0.0000E+00 0.9000E+01
        2 -1    0    0  501    0 0.00000000E+00 0.00000000E+00 -.11919600E+04 0.11919600E+04 0.32000000E+00 0.0000E+00 0.9000E+01
       25  1    1    2    0    0 0.12692293E+01 -.31531151E+02 -.77663000E+03 0.78725788E+03 0.12500000E+03 0.0000E+00 0.9000E+01
       23  1    1    2    0    0 -.93548265E+01 0.14238379E+02 -.27555375E+03 0.29074966E+03 0.91188000E+02 0.0000E+00 0.9000E+01
        2  1    1    2  502    0 0.80855972E+01 0.17292771E+02 -.12615639E+03 0.12759292E+03 0.32000000E+00 0.0000E+00 0.9000E+01
#aMCatNLO 2  0  0  1  2 0.19089705D+02 0.00000000D+00  -5  5  0 0.00000000D+00 0.00000000D+00 0.00000000D+00 0.00000000D+00 0.00000000D+00
  <mgrwgt>
 0.8005438840D-01    1    2    0
 0.116881576419011D+03 0.000000000000000D+00 0.000000000000000D+00 0.116881576419011D+03
 0.116881576419011D+03 0.000000000000000D+00 0.000000000000000D+00 -.116881576419011D+03
 0.132516522661084D+03 0.587699886013398D+01 -.216764543292703D+02 -.378314814710531D+02
 0.101246630176938D+03 -.587699886013398D+01 0.216764543292703D+02 0.378314814710531D+02
 0.000000000000000D+00 0.000000000000000D+00 0.000000000000000D+00 -.000000000000000D+00
 0.123792994139662D+03 0.000000000000000D+00 0.000000000000000D+00 0.123792994139662D+03
 0.131238689550079D+03 0.000000000000000D+00 0.000000000000000D+00 -.131238689550079D+03
 0.134357900430782D+03 0.126922927407170D+01 -.315311508658193D+02 -.378314814710531D+02
 0.100183414592235D+03 -.935482645879847D+01 0.142383793667237D+02 0.378314814710531D+02
 0.204903686667248D+02 0.808559718472677D+01 0.172927714990957D+02 -.744569541041682D+01
0.176368125406D-05 0.000000000000D+00 0.000000000000D+00 0.159473641948D-02 0.398451849957D-06  5 21 2 25 23 2 2 0.20969277D-02 0.18337823D+00 0.14493426D+05 0.14493426D+05 0.14493426D+05 0.12495270D+01  1  2  1  3  5  1       -2 0.800543883982D-01 0.100000000000D+01
  </mgrwgt>
  </event>
  <event>
  4     66 0.46888340E-03 0.57542415E+02 0.75467711E-02 0.12385368E+00
       -2 -1    0    0    0  501 0.00000000E+00 0.00000000E+00 0.95165597E+01 0.95219383E+01 0.32000000E+00 0.0000E+00 0.9000E+01
        2 -1    0    0  501    0 0.00000000E+00 0.00000000E+00 -.13959700E+04 0.13959700E+04 0.32000000E+00 0.0000E+00 0.9000E+01
       25  1    1    2    0    0 0.53910479E+01 -.35775686E+02 -.88701802E+03 0.89651265E+03 0.12500000E+03 0.0000E+00 0.9000E+01
       23  1    1    2    0    0 -.53910479E+01 0.35775686E+02 -.49943541E+03 0.50897932E+03 0.91188000E+02 0.0000E+00 0.9000E+01
#aMCatNLO 1  0  0  2  1 0.16753018D+02 0.00000000D+00  -5  5  0 0.00000000D+00 0.00000000D+00 0.00000000D+00 0.00000000D+00 0.00000000D+00
  <mgrwgt>
 0.3594802613D+00    9    2    0
 0.115276351972849D+03 0.000000000000000D+00 0.000000000000000D+00 0.115276351972849D+03
 0.115276351972849D+03 0.000000000000000D+00 0.000000000000000D+00 -.115276351972849D+03
 0.131129015010195D+03 0.539104787484090D+01 -.357756857786311D+02 -.161510212501780D+02
 0.994236889355041D+02 -.539104787484090D+01 0.357756857786311D+02 0.161510212501780D+02
 0.000000000000000D+00 0.000000000000000D+00 -.000000000000000D+00 -.000000000000000D+00
 0.123925021696665D+03 0.000000000000000D+00 0.000000000000000D+00 0.123925021696665D+03
 0.123988695155065D+03 0.000000000000000D+00 0.000000000000000D+00 -.123988695155065D+03
 0.128921834513432D+03 0.179758293897810D+01 -.270509264621830D+02 -.161510212501780D+02
 0.102238743652866D+03 -.817768318756756D+01 0.425415017362642D+02 0.161510212501780D+02
 0.167531386854324D+02 0.638010024858946D+01 -.154905752740812D+02 -.636734584007095D-01
0.719219674642D-04 0.000000000000D+00 0.000000000000D+00 0.173384582101D-02 0.000000000000D+00  5 -2 2 25 23 21 0 0.14645027D-02 0.21476503D+00 0.13022649D+05 0.13022649D+05 0.13022649D+05 0.12548826D+01  1  2  2  2  5  2        2 0.130151233328D+00 0.100000000000D+01
-.399516833365D-05 0.000000000000D+00 -.276199292552D-06 0.173384582101D-02 0.000000000000D+00  5 -2 2 25 23 21 2 0.14645027D-02 0.21476503D+00 0.13022649D+05 0.13022649D+05 0.13022649D+05 0.12548826D+01  1  2  3  2  5  2        2 -.113848684570D-01 0.100000000000D+01
0.496123780804D-05 0.000000000000D+00 0.000000000000D+00 0.173384582101D-02 0.000000000000D+00  5 -2 2 25 23 21 2 0.14645027D-02 0.21476503D+00 0.13022649D+05 0.13022649D+05 0.13022649D+05 0.12548826D+01  1  2 15  2  5  2        2 0.141378372853D-01 0.100000000000D+01
0.103383235199D-03 0.000000000000D+00 0.000000000000D+00 0.173384582101D-02 0.000000000000D+00  5 -2 2 25 23 21 2 0.14645027D-02 0.23846667D+00 0.15081576D+05 0.15081576D+05 0.15081576D+05 0.12475541D+01  1  2 12  2  5  2        2 0.243225905028D+00 0.100000000000D+01
-.813025876602D-04 0.000000000000D+00 0.000000000000D+00 0.173384582101D-02 0.000000000000D+00  5 -2 2 25 23 21 2 0.14645027D-02 0.21476503D+00 0.13022649D+05 0.13022649D+05 0.13022649D+05 0.12548826D+01  1  2  4  2  5  2        2 -.231684672190D+00 0.100000000000D+01
-.371055916650D-03 0.000000000000D+00 -.814352403247D-04 0.173384582101D-02 0.000000000000D+00  5 -2 2 25 23 21 2 0.14645027D-02 0.24166019D+00 0.13022649D+05 0.13022649D+05 0.13022649D+05 0.12548826D+01  1  2  5  2  5  2        2 -.858359809414D+00 0.100000000000D+01
0.378589603111D-03 0.000000000000D+00 0.808716726648D-04 0.173384582101D-02 0.000000000000D+00  5 -2 2 25 23 21 2 0.14645027D-02 0.21476503D+00 0.13022649D+05 0.13022649D+05 0.13022649D+05 0.12548826D+01  1  2  6  2  5  2        2 0.107885137012D+01 0.100000000000D+01
0.174670706082D-05 0.000000000000D+00 0.000000000000D+00 0.173384582101D-02 0.000000000000D+00  5 -2 21 25 23 -2 2 0.14645027D-02 0.23846667D+00 0.15081576D+05 0.15081576D+05 0.15081576D+05 0.12475541D+01  1  2 12  4  5  2        2 0.204466941494D-02 0.100000000000D+01
-.657571828575D-05 0.000000000000D+00 -.152329231941D-05 0.173384582101D-02 0.000000000000D+00  5 -2 21 25 23 -2 2 0.14645027D-02 0.24166019D+00 0.13022649D+05 0.13022649D+05 0.13022649D+05 0.12548826D+01  1  2  5  4  5  2        2 -.750140385837D-02 0.100000000000D+01
  </mgrwgt>
  </event>
  <event>
  5     66 0.46888340E-03 0.14570688E+03 0.75467711E-02 0.11518007E+00
       -2 -1    0    0    0  501 0.00000000E+00 0.00000000E+00 0.21270614E+03 0.21270638E+03 0.32000000E+00 0.0000E+00 0.9000E+01
        2 -1    0    0  502    0 0.00000000E+00 0.00000000E+00 -.23262076E+04 0.23262077E+04 0.32000000E+00 0.0000E+00 0.9000E+01
       25  1    1    2    0    0 0.12165286E+02 -.54542718E+02 -.65951527E+01 0.13708172E+03 0.12500000E+03 0.0000E+00 0.9000E+01
       23  1    1    2    0    0 0.15539619E+02 0.14033175E+03 0.98348020E+02 0.19473588E+03 0.91188000E+02 0.0000E+00 0.9000E+01
       21  1    1    2  502  501 -.27704905E+02 -.85789031E+02 -.22052544E+04 0.22070964E+04 0.75000000E+00 0.0000E+00 0.9000E+01
#aMCatNLO 2  0  0  2  1 0.90151647D+02 0.00000000D+00  -5  5  0 0.00000000D+00 0.00000000D+00 0.00000000D+00 0.00000000D+00 0.00000000D+00
  <mgrwgt>
 0.2011843012D+00    2    2    0
 0.152935454858424D+03 0.000000000000000D+00 0.000000000000000D+00 0.152935454858424D+03
 0.152935454858424D+03 0.000000000000000D+00 0.000000000000000D+00 -.152935454858424D+03
 0.164884529490540D+03 -.155636099661804D+01 -.970321900333572D+02 -.463059380975651D+02
 0.140986380226307D+03 0.155636099661804D+01 0.970321900333572D+02 0.463059380975651D+02
 0.000000000000000D+00 -.000000000000000D+00 -.000000000000000D+00 -.000000000000000D+00
 0.160133248821203D+03 0.000000000000000D+00 0.000000000000000D+00 0.160133248821203D+03
 0.308991851911472D+04 0.000000000000000D+00 0.000000000000000D+00 -.308991851911472D+04
 0.144541143382119D+03 0.121652862167580D+02 -.545427175558661D+02 -.463059380975651D+02
 0.174338666178877D+03 0.155396190894073D+02 0.140331748070387D+03 0.463059380975651D+02
 0.293117195837492D+04 -.277049053061653D+02 -.857890305145209D+02 -.292978527029352D+04
-.198599486535D-01 0.000000000000D+00 0.000000000000D+00 0.122612465663D-02 0.000000000000D+00  5 -2 2 25 23 21 2 0.31253127D-01 0.34408748D+00 0.39036115D+05 0.39036115D+05 0.39036115D+05 0.12030775D+01  1  2 13  2  5  2        2 -.158339355922D+00 0.100000000000D+01
0.547205136133D-01 0.000000000000D+00 0.000000000000D+00 0.122612465663D-02 0.109117904944D-04  5 -2 2 25 23 21 2 0.32724032D-01 0.35787801D+00 0.39036115D+05 0.39036115D+05 0.39036115D+05 0.12030775D+01  1  2  1  2  5  2        2 0.359523657101D+00 0.100000000000D+01
  </mgrwgt>
  </event>
  <event>
  4     66 0.46888340E-03 0.11374467E+03 0.75467711E-02 0.11096120E+00
       -2 -1    0    0    0  501 0.00000000E+00 0.00000000E+00 0.13547572E+02 0.13551350E+02 0.32000000E+00 0.0000E+00 0.9000E+01
        2 -1    0    0  501    0 0.00000000E+00 0.00000000E+00 -.95827019E+03 0.95827024E+03 0.32000000E+00 0.0000E+00 0.9000E+01
       25  1    1    2    0    0 0.20333821E+02 -.28502279E+02 -.51013351E+03 0.52639058E+03 0.12500000E+03 0.0000E+00 0.9000E+01
       23  1    1    2    0    0 -.20333821E+02 0.28502279E+02 -.43458911E+03 0.44543102E+03 0.91188000E+02 0.0000E+00 0.9000E+01
#aMCatNLO 1  0  0  1  1 0.20538357D+03 0.00000000D+00  -5  5  0 0.00000000D+00 0.00000000D+00 0.00000000D+00 0.00000000D+00 0.00000000D+00
  <mgrwgt>
 0.1644036976D+00    3    2    0
 0.113947778399359D+03 0.000000000000000D+00 0.000000000000000D+00 0.113947778399359D+03
 0.113947778399359D+03 0.000000000000000D+00 0.000000000000000D+00 -.113947778399359D+03
 0.129985275485044D+03 0.203338207622382D+02 -.285022787763972D+02 0.673258350742041D+01
 0.979102813136735D+02 -.203338207622382D+02 0.285022787763972D+02 -.673258350742041D+01
 0.000000000000000D+00 0.000000000000000D+00 0.000000000000000D+00 -.000000000000000D+00
 0.252799513380647D+03 0.000000000000000D+00 0.000000000000000D+00 0.252799513380647D+03
 0.259480567751866D+03 0.000000000000000D+00 0.000000000000000D+00 -.259480567751866D+03
 0.182121617045304D+03 -.589807734819772D+02 -.118402804333257D+03 0.673258350742041D+01
 0.124666252933300D+03 -.768963893071347D+02 -.356095620202035D+02 -.673258350742041D+01
 0.205492211153909D+03 0.135877162789112D+03 0.154012366353461D+03 -.668105437121857D+01
0.844112263758D-04 0.000000000000D+00 0.000000000000D+00 0.178175492929D-02 0.000000000000D+00  5 -2 2 25 23 21 0 0.20845366D-02 0.14742648D+00 0.12937849D+05 0.12937849D+05 0.12937849D+05 0.12552119D+01  1  2  2  1  5  1       -2 0.160966280393D+00 0.100000000000D+01
-.468949442783D-05 0.000000000000D+00 -.324161335269D-06 0.178175492929D-02 0.000000000000D+00  5 -2 2 25 23 21 2 0.20845366D-02 0.14742648D+00 0.12937849D+05 0.12937849D+05 0.12937849D+05 0.12552119D+01  1  2  3  1  5  1       -2 -.140894751669D-01 0.100000000000D+01
0.583359302596D-05 0.000000000000D+00 0.000000000000D+00 0.178175492929D-02 0.000000000000D+00  5 -2 2 25 23 21 2 0.20845366D-02 0.14742648D+00 0.12937849D+05 0.12937849D+05 0.12937849D+05 0.12552119D+01  1  2 15  1  5  1       -2 0.175268923629D-01 0.100000000000D+01
  </mgrwgt>
  </event>
  <event>
  5     66 0.46888340E-03 0.13869997E+03 0.75467711E-02 0.11493361E+00
       -2 -1    0    0    0  502 0.00000000E+00 0.00000000E+00 0.23049318E+03 0.23049340E+03 0.32000000E+00 0.0000E+00 0.9000E+01
        2 -1    0    0  501    0 0.00000000E+00 0.00000000E+00 -.25569043E+03 0.25569063E+03 0.32000000E+00 0.0000E+00 0.9000E+01
       25  1    1    2    0    0 -.78428056E+02 0.50928640E+02 -.67080811E+02 0.16991033E+03 0.12500000E+03 0.0000E+00 0.9000E+01
       23  1    1    2    0    0 -.10300148E+02 -.10616684E+03 -.75293997E+02 0.15925429E+03 0.91188000E+02 0.0000E+00 0.9000E+01
       21  1    1    2  501  502 0.88728204E+02 0.55238205E+02 0.11717755E+03 0.15701941E+03 0.75000000E+00 0.0000E+00 0.9000E+01
#aMCatNLO 2  0  0  1  2 0.10451772D+03 0.00000000D+00  -5  5  0 0.00000000D+00 0.00000000D+00 0.00000000D+00 0.00000000D+00 0.00000000D+00
  <mgrwgt>
 0.4022600620D-01    2    2    0
 0.138883774128448D+03 0.000000000000000D+00 0.000000000000000D+00 0.138883774128448D+03
 0.138883774128448D+03 0.000000000000000D+00 0.000000000000000D+00 -.138883774128448D+03
 0.152041806270561D+03 -.308151075129643D+02 0.805703283680566D+02 0.711070950346634D+01
 0.125725741986336D+03 0.308151075129643D+02 -.805703283680566D+02 -.711070950346634D+01
 0.000000000000000D+00 0.000000000000000D+00 0.000000000000000D+00 0.000000000000000D+00
 0.366217706417256D+03 0.000000000000000D+00 0.000000000000000D+00 0.366217706417256D+03
 0.160927731051807D+03 0.000000000000000D+00 0.000000000000000D+00 -.160927731051807D+03
 0.156269794014544D+03 -.784280560744333D+02 0.509286398020873D+02 0.711070950346634D+01
 0.140510873030416D+03 -.103001481058644D+02 -.106166844424821D+03 -.711070950346634D+01
 0.230364770424104D+03 0.887282041802977D+02 0.552382046227338D+02 0.205289975365448D+03
-.369312189784D-04 0.000000000000D+00 0.000000000000D+00 0.143277182299D-02 0.000000000000D+00  5 -2 2 25 23 21 2 0.34718657D-01 0.33948498D-01 0.40191526D+05 0.40191526D+05 0.40191526D+05 0.12017897D+01  1  2 13  1  5  1       -2 -.632526005914D-02 0.100000000000D+01
0.331532508919D-03 0.000000000000D+00 0.000000000000D+00 0.143277182299D-02 0.156057461754D-05  5 -2 2 25 23 21 2 0.35460395D-01 0.39336883D-01 0.40191526D+05 0.40191526D+05 0.40191526D+05 0.12017897D+01  1  2  1  1  5  1       -2 0.465512662579D-01 0.100000000000D+01
  </mgrwgt>
  </event>
  <event>
  4     66 0.46888340E-03 0.13712072E+03 0.75467711E-02 0.11336298E+00
       -2 -1    0    0    0  501 0.00000000E+00 0.00000000E+00 0.38372399E+02 0.38373733E+02 0.32000000E+00 0.0000E+00 0.9000E+01
        2 -1    0    0  501    0 0.00000000E+00 0.00000000E+00 -.49208205E+03 0.49208215E+03 0.32000000E+00 0.0000E+00 0.9000E+01
       25  1    1    2    0    0 -.50048737E+02 0.67117092E+02 -.26606224E+03 0.30565290E+03 0.12500000E+03 0.0000E+00 0.9000E+01
       23  1    1    2    0    0 0.50048737E+02 -.67117092E+02 -.18764741E+03 0.22480298E+03 0.91188000E+02 0.0000E+00 0.9000E+01
#aMCatNLO 1  0  0  1  2 0.13502449D+03 0.00000000D+00  -5  5  0 0.00000000D+00 0.00000000D+00 0.00000000D+00 0.00000000D+00 0.00000000D+00
  <mgrwgt>
 0.1555164788D+00    5    2    0
 0.137414518559807D+03 0.000000000000000D+00 0.000000000000000D+00 0.137414518559807D+03
 0.137414518559807D+03 0.000000000000000D+00 0.000000000000000D+00 -.137414518559807D+03
 0.150713238252258D+03 -.500487367503393D+02 0.671170916997513D+02 -.893868759629796D+01
 0.124115798867355D+03 0.500487367503393D+02 -.671170916997513D+02 0.893868759629796D+01
 0.000000000000000D+00 0.000000000000000D+00 0.000000000000000D+00 0.000000000000000D+00
 0.236928623376099D+03 0.000000000000000D+00 0.000000000000000D+00 0.236928623376099D+03
 0.207477303727601D+03 0.000000000000000D+00 0.000000000000000D+00 -.207477303727601D+03
 0.188133140120334D+03 -.128157142580195D+03 0.571395229352925D+02 -.893868759629796D+01
 0.118073675384680D+03 -.577902163814264D+01 -.742485302737255D+02 0.893868759629796D+01
 0.138199111598686D+03 0.133936164218337D+03 0.171090073384331D+02 0.294513196484978D+02
0.159143046122D-03 0.000000000000D+00 0.000000000000D+00 0.144482826419D-02 0.000000000000D+00  5 -2 2 25 23 21 0 0.59035566D-02 0.75705041D-01 0.18802091D+05 0.18802091D+05 0.18802091D+05 0.12367901D+01  1  2  2  1  5  1       -2 0.146047150765D+00 0.100000000000D+01
-.884123109442D-05 0.000000000000D+00 -.611151200436D-06 0.144482826419D-02 0.000000000000D+00  5 -2 2 25 23 21 2 0.59035566D-02 0.75705041D-01 0.18802091D+05 0.18802091D+05 0.18802091D+05 0.12367901D+01  1  2  3  1  5  1       -2 -.124110966706D-01 0.100000000000D+01
0.109871697589D-04 0.000000000000D+00 0.000000000000D+00 0.144482826419D-02 0.000000000000D+00  5 -2 2 25 23 21 2 0.59035566D-02 0.75705041D-01 0.18802091D+05 0.18802091D+05 0.18802091D+05 0.12367901D+01  1  2 15  1  5  1       -2 0.154235111104D-01 0.100000000000D+01
-.750949167702D-05 0.000000000000D+00 -.449703240384D-04 0.144482826419D-02 0.000000000000D+00  5 -2 2 25 23 21 2 0.15328027D-01 0.75705041D-01 0.18802091D+05 0.18802091D+05 0.18802091D+05 0.12367901D+01  1  2  5  1  5  1       -2 -.235923826951D-02 0.100000000000D+01
0.191810276549D-05 0.000000000000D+00 -.475290335371D-05 0.144482826419D-02 0.000000000000D+00  5 21 2 25 23 2 2 0.15328027D-01 0.75705041D-01 0.18802091D+05 0.18802091D+05 0.18802091D+05 0.12367901D+01  1  2  5  3  5  1       -2 0.881615189821D-02 0.100000000000D+01
  </mgrwgt>
  </event>
  <event>
  5     66 0.46888340E-03 0.11801307E+03 0.75467711E-02 0.12098054E+00
       -2 -1    0    0    0  501 0.00000000E+00 0.00000000E+00 0.17623503E+03 0.17623532E+03 0.32000000E+00 0.0000E+00 0.9000E+01
       21 -1    0    0  501  502 0.00000000E+00 0.00000000E+00 -.13126645E+03 0.13126860E+03 0.75000000E+00 0.0000E+00 0.9000E+01
       25  1    1    2    0    0 0.64979726E+02 -.14372023E+02 -.29114958E+02 0.14457386E+03 0.12500000E+03 0.0000E+00 0.9000E+01
       23  1    1    2    0    0 -.32792147E+02 -.17409826E+02 0.61075849E+02 0.11586172E+03 0.91188000E+02 0.0000E+00 0.9000E+01
       -2  1    1    2    0  502 -.32187579E+02 0.31781849E+02 0.13007682E+02 0.47068337E+02 0.32000000E+00 0.0000E+00 0.9000E+01
#aMCatNLO 2  0  0  2  2 0.45234126D+02 0.00000000D+00  -5  5  0 0.00000000D+00 0.00000000D+00 0.00000000D+00 0.00000000D+00 0.00000000D+00
  <mgrwgt>
 0.2505181608D-01    1    2    0
 0.127239011875946D+03 0.000000000000000D+00 0.000000000000000D+00 0.127239011875946D+03
 0.127239011875946D+03 0.000000000000000D+00 0.000000000000000D+00 -.127239011875946D+03
 0.141601251389262D+03 0.467270698293595D+02 0.365055524629158D+01 -.472140740305359D+02
 0.112876772362630D+03 -.467270698293595D+02 -.365055524629158D+01 0.472140740305359D+02
 0.000000000000000D+00 -.000000000000000D+00 0.000000000000000D+00 0.000000000000000D+00
 0.155785348064880D+03 0.000000000000000D+00 0.000000000000000D+00 0.155785348064880D+03
 0.148498884764184D+03 0.000000000000000D+00 0.000000000000000D+00 -.148498884764184D+03
 0.149275210885418D+03 0.649797257031890D+02 -.143720230261212D+02 -.472140740305359D+02
 0.109191790363988D+03 -.327921469959774D+02 -.174098261831173D+02 0.472140740305359D+02
 0.458172315796590D+02 -.321875787072116D+02 0.317818492092384D+02 0.728646330069587D+01
0.740656942882D-05 0.000000000000D+00 0.000000000000D+00 0.139906152299D-02 0.160559342336D-06  5 -2 21 25 23 -2 2 0.27113168D-01 0.20194952D-01 0.20349375D+05 0.20349375D+05 0.20349375D+05 0.12329989D+01  1  2  1  4  5  2        2 0.250518160756D-01 0.100000000000D+01
  </mgrwgt>
  </event>
  <event>
  4     66 0.46888340E-03 0.94536025E+02 0.75467711E-02 0.12563051E+00
       -2 -1    0    0    0  501 0.00000000E+00 0.00000000E+00 0.45401102E+03 0.45401113E+03 0.32000000E+00 0.0000E+00 0.9000E+01
        2 -1    0    0  501    0 0.00000000E+00 0.00000000E+00 -.29289058E+02 0.29290806E+02 0.32000000E+00 0.0000E+00 0.9000E+01
       25  1    1    2    0    0 0.64565723E+01 -.22555469E+02 0.30875075E+03 0.33391985E+03 0.12500000E+03 0.0000E+00 0.9000E+01
       23  1    1    2    0    0 -.64565723E+01 0.22555469E+02 0.11597120E+03 0.14938209E+03 0.91188000E+02 0.0000E+00 0.9000E+01
#aMCatNLO 1  0  0  1  2 0.33135579D+01 0.00000000D+00  -5  5  0 0.00000000D+00 0.00000000D+00 0.00000000D+00 0.00000000D+00 0.00000000D+00
  <mgrwgt>
 0.1285082744D+00   11    2    0
 0.115316974632165D+03 0.000000000000000D+00 0.000000000000000D+00 0.115316974632165D+03
 0.115316974632165D+03 0.000000000000000D+00 0.000000000000000D+00 -.115316974632165D+03
 0.131164053258959D+03 0.645657228543848D+01 -.225554692153050D+02 0.320713633966424D+02
 0.994698960053702D+02 -.645657228543848D+01 0.225554692153050D+02 -.320713633966424D+02
 0.000000000000000D+00 0.000000000000000D+00 0.000000000000000D+00 0.000000000000000D+00
 0.118746172564552D+03 0.000000000000000D+00 0.000000000000000D+00 0.118746172564552D+03
 0.116132117665936D+03 0.000000000000000D+00 0.000000000000000D+00 -.116132117665936D+03
 0.131488453004888D+03 0.623415781848127D+01 -.244290032500982D+02 0.320713633966424D+02
 0.991692982617750D+02 -.662478020067290D+01 0.211385503501579D+02 -.320713633966424D+02
 0.422053896382565D+01 0.390622382191635D+00 0.329045289994034D+01 0.261405489861548D+01
0.327353196601D-03 0.000000000000D+00 0.000000000000D+00 0.165893129767D-02 0.000000000000D+00  5 -2 2 25 23 21 0 0.69847992D-01 0.45061521D-02 0.12247901D+05 0.12247901D+05 0.12247901D+05 0.12579847D+01  1  2  2  1  5  1       -2 0.106433376522D+00 0.100000000000D+01
-.181488830813D-04 0.000000000000D+00 -.125712246902D-05 0.165893129767D-02 0.000000000000D+00  5 -2 2 25 23 21 2 0.69847992D-01 0.45061521D-02 0.12247901D+05 0.12247901D+05 0.12247901D+05 0.12579847D+01  1  2  3  1  5  1       -2 -.933817156208D-02 0.100000000000D+01
0.224298997564D-04 0.000000000000D+00 0.000000000000D+00 0.165893129767D-02 0.000000000000D+00  5 -2 2 25 23 21 2 0.69847992D-01 0.45061521D-02 0.12247901D+05 0.12247901D+05 0.12247901D+05 0.12579847D+01  1  2 15  1  5  1       -2 0.115408893819D-01 0.100000000000D+01
0.215078167274D-04 0.000000000000D+00 0.000000000000D+00 0.165893129767D-02 0.000000000000D+00  5 -2 2 25 23 21 2 0.72167281D-01 0.45061521D-02 0.12619258D+05 0.12619258D+05 0.12619258D+05 0.12564710D+01  1  2 12  1  5  1       -2 0.103117586686D-01 0.100000000000D+01
-.295003845531D-02 0.000000000000D+00 0.000000000000D+00 0.165893129767D-02 0.000000000000D+00  5 -2 2 25 23 21 2 0.69847992D-01 0.45061521D-02 0.12247901D+05 0.12247901D+05 0.12247901D+05 0.12579847D+01  1  2  4  1  5  1       -2 -.151788763458D+01 0.100000000000D+01
-.901596209642D-02 0.000000000000D+00 -.105547602235D-02 0.165893129767D-02 0.000000000000D+00  5 -2 2 25 23 21 2 0.72294535D-01 0.45061521D-02 0.12247901D+05 0.12247901D+05 0.12247901D+05 0.12579847D+01  1  2  5  1  5  1       -2 -.431200631878D+01 0.100000000000D+01
0.904756210486D-02 0.000000000000D+00 0.105485083901D-02 0.165893129767D-02 0.000000000000D+00  5 -2 2 25 23 21 2 0.69847992D-01 0.45061521D-02 0.12247901D+05 0.12247901D+05 0.12247901D+05 0.12579847D+01  1  2  6  1  5  1       -2 0.465525546533D+01 0.100000000000D+01
0.292983950451D-02 0.000000000000D+00 0.000000000000D+00 0.165893129767D-02 0.127278288401D-02  5 -2 2 25 23 21 2 0.71925072D-01 0.45380048D-02 0.12619258D+05 0.12619258D+05 0.12619258D+05 0.12564710D+01  1  2 11  1  5  1       -2 0.140182027147D+01 0.100000000000D+01
0.532846778630D-06 0.000000000000D+00 0.000000000000D+00 0.165893129767D-02 0.000000000000D+00  5 21 2 25 23 2 2 0.72167281D-01 0.45061521D-02 0.12619258D+05 0.12619258D+05 0.12619258D+05 0.12564710D+01  1  2 12  3  5  1       -2 0.313542608050D-02 0.100000000000D+01
-.548583600456D-04 0.000000000000D+00 -.647471524434D-05 0.165893129767D-02 0.000000000000D+00  5 21 2 25 23 2 2 0.72294535D-01 0.45061521D-02 0.12247901D+05 0.12247901D+05 0.12247901D+05 0.12579847D+01  1  2  5  3  5  1       -2 -.322264050899D+00 0.100000000000D+01
0.172828146407D-04 0.000000000000D+00 0.000000000000D+00 0.165893129767D-02 0.671661102554D-05  5 21 2 25 23 2 2 0.71925072D-01 0.45380048D-02 0.12619258D+05 0.12619258D+05 0.12619258D+05 0.12564710D+01  1  2 11  3  5  1       -2 0.101507262775D+00 0.100000000000D+01
  </mgrwgt>
  </event>
  <event>
  4     66 0.46888340E-03 0.12431383E+03 0.75467711E-02 0.11307969E+00
       -2 -1    0    0    0  501 0.00000000E+00 0.00000000E+00 0.17207613E+02 0.17210588E+02 0.32000000E+00 0.0000E+00 0.9000E+01
        2 -1    0    0  501    0 0.00000000E+00 0.00000000E+00 -.10534707E+04 0.10534707E+04 0.32000000E+00 0.0000E+00 0.9000E+01
       25  1    1    2    0    0 0.33913398E+02 0.50495336E+02 -.77478247E+03 0.78715486E+03 0.12500000E+03 0.0000E+00 0.9000E+01
       23  1    1    2    0    0 -.33913398E+02 -.50495336E+02 -.26148058E+03 0.28352644E+03 0.91188000E+02 0.0000E+00 0.9000E+01
#aMCatNLO 1  0  0  1  2 0.15644224D+03 0.00000000D+00  -5  5  0 0.00000000D+00 0.00000000D+00 0.00000000D+00 0.00000000D+00 0.00000000D+00
  <mgrwgt>
 0.2083276505D+00    5    2    0
 0.134645217193770D+03 0.000000000000000D+00 0.000000000000000D+00 0.134645217193770D+03
 0.134645217193770D+03 0.000000000000000D+00 0.000000000000000D+00 -.134645217193770D+03
 0.148217456907046D+03 0.339133975116109D+02 0.504953359428520D+02 -.514151441623003D+02
 0.121072977480494D+03 -.339133975116109D+02 -.504953359428520D+02 0.514151441623003D+02
 0.000000000000000D+00 -.000000000000000D+00 -.000000000000000D+00 0.000000000000000D+00
 0.268830730416232D+03 0.000000000000000D+00 0.000000000000000D+00 0.268830730416232D+03
 0.209809409763807D+03 0.000000000000000D+00 0.000000000000000D+00 -.209809409763807D+03
 0.202129110109899D+03 0.118390623078368D+03 0.925814261701846D+02 -.514151441623003D+02
 0.109305494435073D+03 0.216365520810018D+02 -.228206558738315D+02 0.514151441623003D+02
 0.167205535635067D+03 -.140027175159370D+03 -.697607702963531D+02 0.590213206524247D+02
0.148506729773D-03 0.000000000000D+00 0.000000000000D+00 0.130759459092D-02 0.000000000000D+00  5 -2 2 25 23 21 0 0.26475577D-02 0.16207264D+00 0.15453927D+05 0.15453927D+05 0.15453927D+05 0.12463492D+01  1  2  2  1  5  1       -2 0.176778567708D+00 0.100000000000D+01
-.818643990688D-05 0.000000000000D+00 -.570304945049D-06 0.130759459092D-02 0.000000000000D+00  5 -2 2 25 23 21 2 0.26475577D-02 0.16207264D+00 0.15453927D+05 0.15453927D+05 0.15453927D+05 0.12463492D+01  1  2  3  1  5  1       -2 -.151376348674D-01 0.100000000000D+01
0.102782146710D-04 0.000000000000D+00 0.000000000000D+00 0.130759459092D-02 0.000000000000D+00  5 -2 2 25 23 21 2 0.26475577D-02 0.16207264D+00 0.15453927D+05 0.15453927D+05 0.15453927D+05 0.12463492D+01  1  2 15  1  5  1       -2 0.190055582827D-01 0.100000000000D+01
0.171001378434D-04 0.000000000000D+00 -.443865356351D-04 0.130759459092D-02 0.000000000000D+00  5 -2 2 25 23 21 2 0.84867549D-02 0.16207264D+00 0.15453927D+05 0.15453927D+05 0.15453927D+05 0.12463492D+01  1  2  5  1  5  1       -2 0.552636769561D-02 0.100000000000D+01
0.420537463433D-05 0.000000000000D+00 -.595634511507D-05 0.130759459092D-02 0.000000000000D+00  5 21 2 25 23 2 2 0.84867549D-02 0.16207264D+00 0.15453927D+05 0.15453927D+05 0.15453927D+05 0.12463492D+01  1  2  5  3  5  1       -2 0.221547916457D-01 0.100000000000D+01
  </mgrwgt>
  </event>
  <event>
  4     66 0.46888340E-03 0.15513734E+03 0.75467711E-02 0.10718577E+00
       -2 -1    0    0    0  501 0.00000000E+00 0.00000000E+00 0.10642590E+03 0.10642638E+03 0.32000000E+00 0.0000E+00 0.9000E+01
        2 -1    0    0  501    0 0.00000000E+00 0.00000000E+00 -.22615329E+03 0.22615352E+03 0.32000000E+00 0.0000E+00 0.9000E+01
       25  1    1    2    0    0 -.88957965E+02 0.65747286E+02 -.65524540E+02 0.17931729E+03 0.12500000E+03 0.0000E+00 0.9000E+01
       23  1    1    2    0    0 0.88957965E+02 -.65747286E+02 -.54202852E+02 0.15326260E+03 0.91188000E+02 0.0000E+00 0.9000E+01
#aMCatNLO 1  0  0  1  2 0.25508394D+03 0.00000000D+00  -5  5  0 0.00000000D+00 0.00000000D+00 0.00000000D+00 0.00000000D+00 0.00000000D+00
  <mgrwgt>
 0.1936868565D+00    3    2    0
 0.155140853353047D+03 0.000000000000000D+00 0.000000000000000D+00 0.155140853353047D+03
 0.155140853353047D+03 0.000000000000000D+00 0.000000000000000D+00 -.155140853353047D+03
 0.166920066400440D+03 -.889579653771946D+02 0.657472860126157D+02 -.104083862946371D+01
 0.143361640305653D+03 0.889579653771946D+02 -.657472860126157D+02 0.104083862946371D+01
 0.000000000000000D+00 0.000000000000000D+00 -.000000000000000D+00 -.000000000000000D+00
 0.292981931705818D+03 0.000000000000000D+00 0.000000000000000D+00 0.292981931705818D+03
 0.377374602597774D+03 0.000000000000000D+00 0.000000000000000D+00 -.377374602597774D+03
 0.290424063785173D+03 -.252775899481210D+03 0.694578873988169D+02 -.104083862946371D+01
 0.111250619865931D+03 -.224262451981576D+01 -.636815229620371D+02 0.104083862946371D+01
 0.268681850652489D+03 0.255018524001026D+03 -.577636443677979D+01 -.843926708919562D+02
0.446081723466D-03 0.000000000000D+00 0.000000000000D+00 0.131319916107D-02 0.000000000000D+00  5 -2 2 25 23 21 0 0.16373269D-01 0.34792868D-01 0.24067595D+05 0.24067595D+05 0.24067595D+05 0.12250714D+01  1  2  2  1  5  1       -2 0.189869246491D+00 0.100000000000D+01
-.247823179549D-04 0.000000000000D+00 -.171307127413D-05 0.131319916107D-02 0.000000000000D+00  5 -2 2 25 23 21 2 0.16373269D-01 0.34792868D-01 0.24067595D+05 0.24067595D+05 0.24067595D+05 0.12250714D+01  1  2  3  1  5  1       -2 -.158308751262D-01 0.100000000000D+01
0.307585652103D-04 0.000000000000D+00 0.000000000000D+00 0.131319916107D-02 0.000000000000D+00  5 -2 2 25 23 21 2 0.16373269D-01 0.34792868D-01 0.24067595D+05 0.24067595D+05 0.24067595D+05 0.12250714D+01  1  2 15  1  5  1       -2 0.196484850930D-01 0.100000000000D+01
  </mgrwgt>
  </event>
  <event>
  4     66 0.46888340E-03 0.11925309E+03 0.75467711E-02 0.11193277E+00
       -2 -1    0    0    0  501 0.00000000E+00 0.00000000E+00 0.10749589E+02 0.10754350E+02 0.32000000E+00 0.0000E+00 0.9000E+01
        2 -1    0    0  501    0 0.00000000E+00 0.00000000E+00 -.13599572E+04 0.13599572E+04 0.32000000E+00 0.0000E+00 0.9000E+01
       25  1    1    2    0    0 -.48158649E+02 0.12912944E+02 -.87149010E+03 0.88181971E+03 0.12500000E+03 0.0000E+00 0.9000E+01
       23  1    1    2    0    0 0.48158649E+02 -.12912944E+02 -.47771748E+03 0.48889185E+03 0.91188000E+02 0.0000E+00 0.9000E+01
#aMCatNLO 1  0  0  1  2 0.18161473D+03 0.00000000D+00  -5  5  0 0.00000000D+00 0.00000000D+00 0.00000000D+00 0.00000000D+00 0.00000000D+00
  <mgrwgt>
 0.1526616109D+00    3    2    0
 0.120922576128985D+03 0.000000000000000D+00 0.000000000000000D+00 0.120922576128985D+03
 0.120922576128985D+03 0.000000000000000D+00 0.000000000000000D+00 -.120922576128985D+03
 0.136035032565992D+03 -.481586490120525D+02 0.129129435542377D+02 -.198627918311992D+02
 0.105810119691977D+03 0.481586490120525D+02 -.129129435542377D+02 0.198627918311992D+02
 0.000000000000000D+00 -.000000000000000D+00 0.000000000000000D+00 -.000000000000000D+00
 0.229459238156451D+03 0.000000000000000D+00 0.000000000000000D+00 0.229459238156451D+03
 0.256620277547033D+03 0.000000000000000D+00 0.000000000000000D+00 -.256620277547033D+03
 0.132785798361204D+03 0.364817375042143D+02 -.167815546290040D+02 -.198627918311992D+02
 0.169659214952006D+03 0.134892370045599D+03 -.433418490408809D+02 0.198627918311992D+02
 0.183634502390274D+03 -.171374107549813D+03 0.601234036698849D+02 -.271610393905826D+02
0.939353922459D-04 0.000000000000D+00 0.000000000000D+00 0.162371220526D-02 0.000000000000D+00  5 -2 2 25 23 21 0 0.16541520D-02 0.20922455D+00 0.14221300D+05 0.14221300D+05 0.14221300D+05 0.12504706D+01  1  2  2  1  5  1       -2 0.149476740519D+00 0.100000000000D+01
-.521740653779D-05 0.000000000000D+00 -.360736639981D-06 0.162371220526D-02 0.000000000000D+00  5 -2 2 25 23 21 2 0.16541520D-02 0.20922455D+00 0.14221300D+05 0.14221300D+05 0.14221300D+05 0.12504706D+01  1  2  3  1  5  1       -2 -.129821308140D-01 0.100000000000D+01
0.649737848805D-05 0.000000000000D+00 0.000000000000D+00 0.162371220526D-02 0.000000000000D+00  5 -2 2 25 23 21 2 0.16541520D-02 0.20922455D+00 0.14221300D+05 0.14221300D+05 0.14221300D+05 0.12504706D+01  1  2 15  1  5  1       -2 0.161670011468D-01 0.100000000000D+01
  </mgrwgt>
  </event>
  <event>
  4     66 0.46888340E-03 0.74589445E+02 0.75467711E-02 0.11550588E+00
       -2 -1    0    0    0  501 0.00000000E+00 0.00000000E+00 0.37397269E+02 0.37398638E+02 0.32000000E+00 0.0000E+00 0.9000E+01
        2 -1    0    0  501    0 0.00000000E+00 0.00000000E+00 -.53309799E+03 0.53309808E+03 0.32000000E+00 0.0000E+00 0.9000E+01
       25  1    1    2    0    0 -.13155462E+02 -.67336306E+02 -.38883191E+03 0.41415275E+03 0.12500000E+03 0.0000E+00 0.9000E+01
       23  1    1    2    0    0 0.13155462E+02 0.67336306E+02 -.10686880E+03 0.15634397E+03 0.91188000E+02 0.0000E+00 0.9000E+01
#aMCatNLO 1  0  0  1  2 0.10866775D+03 0.00000000D+00  -5  5  0 0.00000000D+00 0.00000000D+00 0.00000000D+00 0.00000000D+00 0.00000000D+00
  <mgrwgt>
 0.7809019486D-01    7    2    0
 0.141197828685896D+03 0.000000000000000D+00 0.000000000000000D+00 0.141197828685896D+03
 0.141197828685896D+03 0.000000000000000D+00 0.000000000000000D+00 -.141197828685896D+03
 0.154140217255237D+03 -.131554620621847D+02 -.673363062056260D+02 -.585402618716737D+02
 0.128255440116556D+03 0.131554620621847D+02 0.673363062056260D+02 0.585402618716737D+02
 0.000000000000000D+00 -.000000000000000D+00 -.000000000000000D+00 0.000000000000000D+00
 0.382542640520203D+03 0.000000000000000D+00 0.000000000000000D+00 0.382542640520203D+03
 0.164057156926041D+03 0.000000000000000D+00 0.000000000000000D+00 -.164057156926041D+03
 0.156709470051454D+03 0.440805859559386D+02 -.596891756148838D+02 -.585402618716737D+02
 0.145872730742243D+03 0.636300605291747D+02 0.740800605240605D+02 0.585402618716737D+02
 0.244017596652547D+03 -.107710646485113D+03 -.143908849091767D+02 0.218485483594162D+03
0.173164410600D-03 0.000000000000D+00 0.000000000000D+00 0.121916620262D-02 0.000000000000D+00  5 -2 2 25 23 21 0 0.57535387D-02 0.82015187D-01 0.16474663D+05 0.16474663D+05 0.16474663D+05 0.12432064D+01  1  2  2  1  5  1       -2 0.150616170597D+00 0.100000000000D+01
-.951385183112D-05 0.000000000000D+00 -.664996931939D-06 0.121916620262D-02 0.000000000000D+00  5 -2 2 25 23 21 2 0.57535387D-02 0.82015187D-01 0.16474663D+05 0.16474663D+05 0.16474663D+05 0.12432064D+01  1  2  3  1  5  1       -2 -.127895657280D-01 0.100000000000D+01
0.119401117243D-04 0.000000000000D+00 0.000000000000D+00 0.121916620262D-02 0.000000000000D+00  5 -2 2 25 23 21 2 0.57535387D-02 0.82015187D-01 0.16474663D+05 0.16474663D+05 0.16474663D+05 0.12432064D+01  1  2 15  1  5  1       -2 0.160512110561D-01 0.100000000000D+01
0.800976339285D-05 0.000000000000D+00 0.000000000000D+00 0.121916620262D-02 0.000000000000D+00  5 -2 2 25 23 21 2 0.15221431D-01 0.82015187D-01 0.37566856D+05 0.37566856D+05 0.37566856D+05 0.12047779D+01  1  2 12  1  5  1       -2 0.222977737520D-02 0.100000000000D+01
-.138945575322D-03 0.000000000000D+00 -.510744896900D-04 0.121916620262D-02 0.000000000000D+00  5 -2 2 25 23 21 2 0.17923379D-01 0.82015187D-01 0.16474663D+05 0.16474663D+05 0.16474663D+05 0.12432064D+01  1  2  5  1  5  1       -2 -.311354862200D-01 0.100000000000D+01
0.866043437005D-06 0.000000000000D+00 0.000000000000D+00 0.121916620262D-02 0.000000000000D+00  5 21 2 25 23 2 2 0.15221431D-01 0.82015187D-01 0.37566856D+05 0.37566856D+05 0.37566856D+05 0.12047779D+01  1  2 12  3  5  1       -2 0.348347999083D-02 0.100000000000D+01
-.157320979113D-04 0.000000000000D+00 -.665035556631D-05 0.121916620262D-02 0.000000000000D+00  5 21 2 25 23 2 2 0.17923379D-01 0.82015187D-01 0.16474663D+05 0.16474663D+05 0.16474663D+05 0.12432064D+01  1  2  5  3  5  1       -2 -.503653922150D-01 0.100000000000D+01
  </mgrwgt>
  </event>
  <event>
  4     66 0.46888340E-03 0.11750701E+03 0.75467711E-02 0.11544714E+00
       -2 -1    0    0    0  501 0.00000000E+00 0.00000000E+00 0.14625589E+02 0.14629089E+02 0.32000000E+00 0.0000E+00 0.9000E+01
        2 -1    0    0  501    0 0.00000000E+00 0.00000000E+00 -.94433219E+03 0.94433224E+03 0.32000000E+00 0.0000E+00 0.9000E+01
       25  1    1    2    0    0 -.34763484E+02 -.29514891E+02 -.53559160E+03 0.55187226E+03 0.12500000E+03 0.0000E+00 0.9000E+01
       23  1    1    2    0    0 0.34763484E+02 0.29514891E+02 -.39411499E+03 0.40708907E+03 0.91188000E+02 0.0000E+00 0.9000E+01
#aMCatNLO 1  0  0  2  2 0.12349925D+03 0.00000000D+00  -5  5  0 0.00000000D+00 0.00000000D+00 0.00000000D+00 0.00000000D+00 0.00000000D+00
  <mgrwgt>
 0.1890413495D+00    3    2    0
 0.117529224551341D+03 0.000000000000000D+00 0.000000000000000D+00 0.117529224551341D+03
 0.117529224551341D+03 0.000000000000000D+00 0.000000000000000D+00 -.117529224551341D+03
 0.133078013977767D+03 -.347634840829524D+02 -.295148912974031D+02 -.226476718089124D+01
 0.101980435124914D+03 0.347634840829524D+02 0.295148912974031D+02 0.226476718089124D+01
 0.000000000000000D+00 0.000000000000000D+00 0.000000000000000D+00 0.000000000000000D+00
 0.254950000887815D+03 0.000000000000000D+00 0.000000000000000D+00 0.254950000887815D+03
 0.163969966908313D+03 0.000000000000000D+00 0.000000000000000D+00 -.163969966908313D+03
 0.174192773807838D+03 -.966792125834088D+02 -.732538267310105D+02 -.226476718089124D+01
 0.913341339931088D+02 -.418981981863951D+01 0.199723002552043D+01 0.226476718089124D+01
 0.153393059995183D+03 0.100869032402048D+03 0.712565967054900D+02 0.909800339795020D+02
0.106105311741D-03 0.000000000000D+00 0.000000000000D+00 0.171542943183D-02 0.000000000000D+00  5 -2 2 25 23 21 0 0.22503640D-02 0.14528215D+00 0.13807898D+05 0.13807898D+05 0.13807898D+05 0.12519434D+01  1  2  2  2  5  2        2 0.185118397136D+00 0.100000000000D+01
-.589473928513D-05 0.000000000000D+00 -.407472335256D-06 0.171542943183D-02 0.000000000000D+00  5 -2 2 25 23 21 2 0.22503640D-02 0.14528215D+00 0.13807898D+05 0.13807898D+05 0.13807898D+05 0.12519434D+01  1  2  3  2  5  2        2 -.161193098152D-01 0.100000000000D+01
0.732934050587D-05 0.000000000000D+00 0.000000000000D+00 0.171542943183D-02 0.000000000000D+00  5 -2 2 25 23 21 2 0.22503640D-02 0.14528215D+00 0.13807898D+05 0.13807898D+05 0.13807898D+05 0.12519434D+01  1  2 15  2  5  2        2 0.200422622004D-01 0.100000000000D+01
  </mgrwgt>
  </event>
  <event>
  4     66 0.46888340E-03 0.11351472E+03 0.75467711E-02 0.11843282E+00
       -2 -1    0    0    0  501 0.00000000E+00 0.00000000E+00 0.12545887E+03 0.12545928E+03 0.32000000E+00 0.0000E+00 0.9000E+01
        2 -1    0    0  501    0 0.00000000E+00 0.00000000E+00 -.13029720E+03 0.13029759E+03 0.32000000E+00 0.0000E+00 0.9000E+01
       25  1    1    2    0    0 -.27230960E+02 -.20811238E+02 0.55686696E+02 0.14106963E+03 0.12500000E+03 0.0000E+00 0.9000E+01
       23  1    1    2    0    0 0.27230960E+02 0.20811238E+02 -.60525020E+02 0.11468724E+03 0.91188000E+02 0.0000E+00 0.9000E+01
#aMCatNLO 1  0  0  2  2 0.85157524D+02 0.00000000D+00  -5  5  0 0.00000000D+00 0.00000000D+00 0.00000000D+00 0.00000000D+00 0.00000000D+00
  <mgrwgt>
 0.1018190386D+00    4    2    0
 0.127855549511038D+03 0.000000000000000D+00 0.000000000000000D+00 0.127855549511038D+03
 0.127855549511038D+03 0.000000000000000D+00 0.000000000000000D+00 -.127855549511038D+03
 0.142148532263752D+03 -.272309604234280D+02 -.208112380121640D+02 0.583658495317045D+02
 0.113562566758324D+03 0.272309604234280D+02 0.208112380121640D+02 -.583658495317045D+02
 0.000000000000000D+00 0.000000000000000D+00 -.000000000000000D+00 0.000000000000000D+00
 0.196899677892309D+03 0.000000000000000D+00 0.000000000000000D+00 0.196899677892309D+03
 0.163933971420279D+03 0.000000000000000D+00 0.000000000000000D+00 -.163933971420279D+03
 0.145503580211469D+03 -.394177793293652D+02 0.242065721559087D+02 0.583658495317045D+02
 0.124014452830429D+03 0.171656489295316D+02 0.579922518281648D+02 -.583658495317045D+02
 0.913156162706902D+02 0.222521303998335D+02 -.821988239840735D+02 0.329657064720302D+02
0.252653367425D-03 0.000000000000D+00 0.000000000000D+00 0.130667195688D-02 0.000000000000D+00  5 -2 2 25 23 21 0 0.19301427D-01 0.20045784D-01 0.12885591D+05 0.12885591D+05 0.12885591D+05 0.12554160D+01  1  2  2  2  5  2        2 0.146818798595D+00 0.100000000000D+01
-.137947527283D-04 0.000000000000D+00 -.970255456070D-06 0.130667195688D-02 0.000000000000D+00  5 -2 2 25 23 21 2 0.19301427D-01 0.20045784D-01 0.12885591D+05 0.12885591D+05 0.12885591D+05 0.12554160D+01  1  2  3  2  5  2        2 -.126341443013D-01 0.100000000000D+01
0.172571806006D-04 0.000000000000D+00 0.000000000000D+00 0.130667195688D-02 0.000000000000D+00  5 -2 2 25 23 21 2 0.19301427D-01 0.20045784D-01 0.12885591D+05 0.12885591D+05 0.12885591D+05 0.12554160D+01  1  2 15  2  5  2        2 0.158052640911D-01 0.100000000000D+01
-.525959937962D-04 0.000000000000D+00 0.000000000000D+00 0.130667195688D-02 0.000000000000D+00  5 -2 2 25 23 21 2 0.19301427D-01 0.20045784D-01 0.12885591D+05 0.12885591D+05 0.12885591D+05 0.12554160D+01  1  2  4  2  5  2        2 -.481708797817D-01 0.100000000000D+01
  </mgrwgt>
  </event>
  <event>
  4     66 0.46888340E-03 0.36722666E+02 0.75467711E-02 0.12046492E+00
       -2 -1    0    0    0  501 0.00000000E+00 0.00000000E+00 0.50681506E+01 0.50782429E+01 0.32000000E+00 0.0000E+00 0.9000E+01
        2 -1    0    0  501    0 0.00000000E+00 0.00000000E+00 -.31697222E+04 0.31697222E+04 0.32000000E+00 0.0000E+00 0.9000E+01
       25  1    1    2    0    0 0.30546649E+02 -.56782938E+02 -.19208937E+04 0.19260361E+04 0.12500000E+03 0.0000E+00 0.9000E+01
       23  1    1    2    0    0 -.30546649E+02 0.56782938E+02 -.12437603E+04 0.12487644E+04 0.91188000E+02 0.0000E+00 0.9000E+01
#aMCatNLO 1  0  0  2  1 0.38099448D+02 0.00000000D+00  -5  5  0 0.00000000D+00 0.00000000D+00 0.00000000D+00 0.00000000D+00 0.00000000D+00
  <mgrwgt>
 0.2101255145D+00    9    2    0
 0.126809603045336D+03 0.000000000000000D+00 0.000000000000000D+00 0.126809603045336D+03
 0.126809603045336D+03 0.000000000000000D+00 0.000000000000000D+00 -.126809603045336D+03
 0.141220476670945D+03 0.305466494459455D+02 -.567829375153321D+02 -.126816105414620D+02
 0.112398729419727D+03 -.305466494459455D+02 0.567829375153321D+02 0.126816105414620D+02
 0.000000000000000D+00 -.000000000000000D+00 -.000000000000000D+00 -.000000000000000D+00
 0.135252076738108D+03 0.000000000000000D+00 0.000000000000000D+00 0.135252076738108D+03
 0.179929415310321D+03 0.000000000000000D+00 0.000000000000000D+00 -.179929415310321D+03
 0.135758815608325D+03 0.359178541939691D+02 -.368040829195712D+02 -.126816105414620D+02
 0.120706132563821D+03 -.260262611845335D+02 0.735970758749555D+02 0.126816105414620D+02
 0.587165438762824D+02 -.989159300943555D+01 -.367929929553844D+02 -.446773385722126D+02
0.271526598101D-03 0.000000000000D+00 0.000000000000D+00 0.155835114796D-02 0.000000000000D+00  5 -2 2 25 23 21 0 0.78049305D-03 0.48765034D+00 0.15917726D+05 0.15917726D+05 0.15917726D+05 0.12448931D+01  1  2  2  2  5  2        2 0.137834253474D+00 0.100000000000D+01
-.150843353674D-04 0.000000000000D+00 -.104273363130D-05 0.155835114796D-02 0.000000000000D+00  5 -2 2 25 23 21 2 0.78049305D-03 0.48765034D+00 0.15917726D+05 0.15917726D+05 0.15917726D+05 0.12448931D+01  1  2  3  2  5  2        2 -.118668407317D-01 0.100000000000D+01
0.187924743274D-04 0.000000000000D+00 0.000000000000D+00 0.155835114796D-02 0.000000000000D+00  5 -2 2 25 23 21 2 0.78049305D-03 0.48765034D+00 0.15917726D+05 0.15917726D+05 0.15917726D+05 0.12448931D+01  1  2 15  2  5  2        2 0.147840322007D-01 0.100000000000D+01
0.248650170661D-03 0.000000000000D+00 0.000000000000D+00 0.155835114796D-02 0.000000000000D+00  5 -2 2 25 23 21 2 0.78049305D-03 0.70288959D+00 0.21506627D+05 0.21506627D+05 0.21506627D+05 0.12303686D+01  1  2 12  2  5  2        2 0.177843076424D-01 0.100000000000D+01
-.263451221506D-03 0.000000000000D+00 0.000000000000D+00 0.155835114796D-02 0.000000000000D+00  5 -2 2 25 23 21 2 0.78049305D-03 0.48765034D+00 0.15917726D+05 0.15917726D+05 0.15917726D+05 0.12448931D+01  1  2  4  2  5  2        2 -.207256972882D+00 0.100000000000D+01
-.355707085862D-03 0.000000000000D+00 -.783097560418D-04 0.155835114796D-02 0.000000000000D+00  5 -2 2 25 23 21 2 0.78049305D-03 0.69818656D+00 0.15917726D+05 0.15917726D+05 0.15917726D+05 0.12448931D+01  1  2  5  2  5  2        2 -.281708927561D-01 0.100000000000D+01
0.364847923932D-03 0.000000000000D+00 0.735237702793D-04 0.155835114796D-02 0.000000000000D+00  5 -2 2 25 23 21 2 0.78049305D-03 0.48765034D+00 0.15917726D+05 0.15917726D+05 0.15917726D+05 0.12448931D+01  1  2  6  2  5  2        2 0.287025719009D+00 0.100000000000D+01
0.110852802501D-04 0.000000000000D+00 0.000000000000D+00 0.155835114796D-02 0.000000000000D+00  5 -2 21 25 23 -2 2 0.78049305D-03 0.70288959D+00 0.21506627D+05 0.21506627D+05 0.21506627D+05 0.12303686D+01  1  2 12  4  5  2        2 0.194646967684D-04 0.100000000000D+01
-.133503173768D-04 0.000000000000D+00 -.344469756813D-05 0.155835114796D-02 0.000000000000D+00  5 -2 21 25 23 -2 2 0.78049305D-03 0.69818656D+00 0.15917726D+05 0.15917726D+05 0.15917726D+05 0.12448931D+01  1  2  5  4  5  2        2 -.275561703095D-04 0.100000000000D+01
  </mgrwgt>
  </event>
  <event>
  4     66 0.46888340E-03 0.12823117E+03 0.75467711E-02 0.97713971E-01
       -2 -1    0    0    0  501 0.00000000E+00 0.00000000E+00 0.30284279E+03 0.30284296E+03 0.32000000E+00 0.0000E+00 0.9000E+01
        2 -1    0    0  501    0 0.00000000E+00 0.00000000E+00 -.75079400E+02 0.75080082E+02 0.32000000E+00 0.0000E+00 0.9000E+01
       25  1    1    2    0    0 -.30575239E+02 -.61166618E+02 0.22200923E+03 0.26379784E+03 0.12500000E+03 0.0000E+00 0.9000E+01
       23  1    1    2    0    0 0.30575239E+02 0.61166618E+02 0.57541593E+01 0.11412520E+03 0.91188000E+02 0.0000E+00 0.9000E+01
#aMCatNLO 1  0  0  1  1 0.64744581D+03 0.00000000D+00  -5  5  0 0.00000000D+00 0.00000000D+00 0.00000000D+00 0.00000000D+00 0.00000000D+00
  <mgrwgt>
 0.1463648543D+00    5    2    0
 0.150789309503228D+03 0.000000000000000D+00 0.000000000000000D+00 0.150789309503228D+03
 0.150789309503228D+03 0.000000000000000D+00 0.000000000000000D+00 -.150789309503228D+03
 0.162908452233044D+03 -.305752391929398D+02 -.611666184828725D+02 0.789807782984638D+02
 0.138670166773412D+03 0.305752391929398D+02 0.611666184828725D+02 -.789807782984638D+02
 0.000000000000000D+00 0.000000000000000D+00 0.000000000000000D+00 0.000000000000000D+00
 0.796797094683910D+03 0.000000000000000D+00 0.000000000000000D+00 0.796797094683910D+03
 0.595467191407197D+03 0.000000000000000D+00 0.000000000000000D+00 -.595467191407197D+03
 0.525352640878815D+03 -.338992367252479D+03 -.373117419698243D+03 0.789807782984638D+02
 0.188885236111109D+03 -.116205826378074D+03 -.872961834899290D+02 -.789807782984638D+02
 0.678026409101182D+03 0.455198193630553D+03 0.460413603188172D+03 0.201329903276713D+03
0.625598223259D-03 0.000000000000D+00 0.000000000000D+00 0.103748340886D-02 0.000000000000D+00  5 -2 2 25 23 21 0 0.46591264D-01 0.11550742D-01 0.16443232D+05 0.16443232D+05 0.16443232D+05 0.12432998D+01  1  2  2  1  5  1       -2 0.142565099209D+00 0.100000000000D+01
-.336457790037D-04 0.000000000000D+00 -.240246190111D-05 0.103748340886D-02 0.000000000000D+00  5 -2 2 25 23 21 2 0.46591264D-01 0.11550742D-01 0.16443232D+05 0.16443232D+05 0.16443232D+05 0.12432998D+01  1  2  3  1  5  1       -2 -.118522298198D-01 0.100000000000D+01
0.427363066275D-04 0.000000000000D+00 0.000000000000D+00 0.103748340886D-02 0.000000000000D+00  5 -2 2 25 23 21 2 0.46591264D-01 0.11550742D-01 0.16443232D+05 0.16443232D+05 0.16443232D+05 0.12432998D+01  1  2 15  1  5  1       -2 0.150545043924D-01 0.100000000000D+01
0.124283598843D-02 0.000000000000D+00 -.432226107094D-03 0.103748340886D-02 0.000000000000D+00  5 -2 2 25 23 21 2 0.52021627D+00 0.11550742D-01 0.16443232D+05 0.16443232D+05 0.16443232D+05 0.12432998D+01  1  2  5  1  5  1       -2 0.168052368744D-03 0.100000000000D+01
0.275423217133D-03 0.000000000000D+00 -.122520035699D-03 0.103748340886D-02 0.000000000000D+00  5 21 2 25 23 2 2 0.52021627D+00 0.11550742D-01 0.16443232D+05 0.16443232D+05 0.16443232D+05 0.12432998D+01  1  2  5  3  5  1       -2 0.429428102013D-03 0.100000000000D+01
  </mgrwgt>
  </event>
  <event>
  4     66 0.46888340E-03 0.11552026E+03 0.75467711E-02 0.10161666E+00
       -2 -1    0    0    0  501 0.00000000E+00 0.00000000E+00 0.54783718E+03 0.54783728E+03 0.32000000E+00 0.0000E+00 0.9000E+01
        2 -1    0    0  501    0 0.00000000E+00 0.00000000E+00 -.24632703E+02 0.24634781E+02 0.32000000E+00 0.0000E+00 0.9000E+01
       25  1    1    2    0    0 0.40310543E+02 0.33353466E+00 0.32696255E+03 0.35235573E+03 0.12500000E+03 0.0000E+00 0.9000E+01
       23  1    1    2    0    0 -.40310543E+02 -.33353466E+00 0.19624193E+03 0.22011633E+03 0.91188000E+02 0.0000E+00 0.9000E+01
#aMCatNLO 1  0  0  2  1 0.46377073D+03 0.00000000D+00  -5  5  0 0.00000000D+00 0.00000000D+00 0.00000000D+00 0.00000000D+00 0.00000000D+00
  <mgrwgt>
 0.1795752600D+00    5    2    0
 0.116169411009282D+03 0.000000000000000D+00 0.000000000000000D+00 0.116169411009282D+03
 0.116169411009282D+03 0.000000000000000D+00 0.000000000000000D+00 -.116169411009282D+03
 0.131900205786695D+03 0.403105430146908D+02 0.333534659566898D+00 0.121496157578804D+02
 0.100438616231868D+03 -.403105430146908D+02 -.333534659566898D+00 -.121496157578804D+02
 0.000000000000000D+00 0.000000000000000D+00 0.000000000000000D+00 -.000000000000000D+00
 0.451311946954543D+03 0.000000000000000D+00 0.000000000000000D+00 0.451311946954543D+03
 0.539479575486039D+03 0.000000000000000D+00 0.000000000000000D+00 -.539479575486039D+03
 0.275073277920444D+03 -.182702331557210D+02 -.244046908694352D+03 0.121496157578804D+02
 0.243641111108795D+03 -.898382353560041D+02 -.206947379745150D+03 -.121496157578804D+02
 0.472077133411343D+03 0.108108468511725D+03 0.450994288439502D+03 -.881676285314957D+02
0.458765247438D-03 0.000000000000D+00 0.000000000000D+00 0.172754629515D-02 0.000000000000D+00  5 -2 2 25 23 21 0 0.84282810D-01 0.37898136D-02 0.13344930D+05 0.13344930D+05 0.13344930D+05 0.12536528D+01  1  2  2  2  5  2        2 0.125204237018D+00 0.100000000000D+01
-.254859851236D-04 0.000000000000D+00 -.176177934583D-05 0.172754629515D-02 0.000000000000D+00  5 -2 2 25 23 21 2 0.84282810D-01 0.37898136D-02 0.13344930D+05 0.13344930D+05 0.13344930D+05 0.12536528D+01  1  2  3  2  5  2        2 -.109316193616D-01 0.100000000000D+01
0.317059376687D-04 0.000000000000D+00 0.000000000000D+00 0.172754629515D-02 0.000000000000D+00  5 -2 2 25 23 21 2 0.84282810D-01 0.37898136D-02 0.13344930D+05 0.13344930D+05 0.13344930D+05 0.12536528D+01  1  2 15  2  5  2        2 0.135995230483D-01 0.100000000000D+01
0.238468440814D-02 0.000000000000D+00 -.721399703504D-03 0.172754629515D-02 0.000000000000D+00  5 -2 2 25 23 21 2 0.84282810D-01 0.70853868D-01 0.13344930D+05 0.13344930D+05 0.13344930D+05 0.12536528D+01  1  2  5  2  5  2        2 0.337846642051D-01 0.100000000000D+01
0.579409430967D-03 0.000000000000D+00 -.229472111013D-03 0.172754629515D-02 0.000000000000D+00  5 -2 21 25 23 -2 2 0.84282810D-01 0.70853868D-01 0.13344930D+05 0.13344930D+05 0.13344930D+05 0.12536528D+01  1  2  5  4  5  2        2 0.179184551331D-01 0.100000000000D+01
  </mgrwgt>
  </event>
  <event>
  4     66 0.46888340E-03 0.49128907E+02 0.75467711E-02 0.12539483E+00
       -2 -1    0    0    0  501 0.00000000E+00 0.00000000E+00 0.64163861E+02 0.64164659E+02 0.32000000E+00 0.0000E+00 0.9000E+01
        2 -1    0    0  501    0 0.00000000E+00 0.00000000E+00 -.18998416E+03 0.18998443E+03 0.32000000E+00 0.0000E+00 0.9000E+01
       25  1    1    2    0    0 0.15242383E+02 -.12259577E+02 -.84491443E+02 0.15213951E+03 0.12500000E+03 0.0000E+00 0.9000E+01
       23  1    1    2    0    0 -.15242383E+02 0.12259577E+02 -.41328853E+02 0.10200957E+03 0.91188000E+02 0.0000E+00 0.9000E+01
#aMCatNLO 1  0  0  1  2 0.74015749D+01 0.00000000D+00  -5  5  0 0.00000000D+00 0.00000000D+00 0.00000000D+00 0.00000000D+00 0.00000000D+00
  <mgrwgt>
 0.8796842825D-01   11    2    0
 0.110409477387639D+03 0.000000000000000D+00 0.000000000000000D+00 0.110409477387639D+03
 0.110409477387639D+03 0.000000000000000D+00 0.000000000000000D+00 -.110409477387639D+03
 0.126960929375624D+03 0.152423827369154D+02 -.122595769577641D+02 -.105569943279453D+02
 0.938580253996547D+02 -.152423827369154D+02 0.122595769577641D+02 0.105569943279453D+02
 0.000000000000000D+00 0.000000000000000D+00 0.000000000000000D+00 0.000000000000000D+00
 0.114846145577578D+03 0.000000000000000D+00 0.000000000000000D+00 0.114846145577578D+03
 0.113602199129023D+03 0.000000000000000D+00 0.000000000000000D+00 -.113602199129023D+03
 0.127364317587634D+03 0.146214298357830D+02 -.164752254880047D+02 -.105569943279453D+02
 0.935786481276896D+02 -.157000225017250D+02 0.915266112182710D+01 0.105569943279453D+02
 0.750537899127770D+01 0.107859266594199D+01 0.732256436617761D+01 0.124394644855588D+01
0.813275066568D-04 0.000000000000D+00 0.000000000000D+00 0.185390135240D-02 0.000000000000D+00  5 -2 2 25 23 21 0 0.98714453D-02 0.29228414D-01 0.12076216D+05 0.12076216D+05 0.12076216D+05 0.12587020D+01  1  2  2  1  5  1       -2 0.918695122730D-01 0.100000000000D+01
-.451807349442D-05 0.000000000000D+00 -.312319039586D-06 0.185390135240D-02 0.000000000000D+00  5 -2 2 25 23 21 2 0.98714453D-02 0.29228414D-01 0.12076216D+05 0.12076216D+05 0.12076216D+05 0.12587020D+01  1  2  3  1  5  1       -2 -.808598770713D-02 0.100000000000D+01
0.561703646221D-05 0.000000000000D+00 0.000000000000D+00 0.185390135240D-02 0.000000000000D+00  5 -2 2 25 23 21 2 0.98714453D-02 0.29228414D-01 0.12076216D+05 0.12076216D+05 0.12076216D+05 0.12587020D+01  1  2 15  1  5  1       -2 0.100527996811D-01 0.100000000000D+01
0.165662607030D-03 0.000000000000D+00 0.000000000000D+00 0.185390135240D-02 0.000000000000D+00  5 -2 2 25 23 21 2 0.10405924D-01 0.29228414D-01 0.12917330D+05 0.12917330D+05 0.12917330D+05 0.12552919D+01  1  2 12  1  5  1       -2 0.272286797793D+00 0.100000000000D+01
-.145588868419D-03 0.000000000000D+00 0.000000000000D+00 0.185390135240D-02 0.000000000000D+00  5 -2 2 25 23 21 2 0.98714453D-02 0.29228414D-01 0.12076216D+05 0.12076216D+05 0.12076216D+05 0.12587020D+01  1  2  4  1  5  1       -2 -.260560126297D+00 0.100000000000D+01
-.856033808267D-03 0.000000000000D+00 -.145473152961D-03 0.185390135240D-02 0.000000000000D+00  5 -2 2 25 23 21 2 0.10558173D-01 0.29228414D-01 0.12076216D+05 0.12076216D+05 0.12076216D+05 0.12587020D+01  1  2  5  1  5  1       -2 -.137892507127D+01 0.100000000000D+01
0.864190682300D-03 0.000000000000D+00 0.145144777601D-03 0.185390135240D-02 0.000000000000D+00  5 -2 2 25 23 21 2 0.98714453D-02 0.29228414D-01 0.12076216D+05 0.12076216D+05 0.12076216D+05 0.12587020D+01  1  2  6  1  5  1       -2 0.154664045247D+01 0.100000000000D+01
0.363749473740D-05 0.000000000000D+00 0.000000000000D+00 0.185390135240D-02 0.284733389041D-03  5 -2 2 25 23 21 2 0.10268117D-01 0.30073615D-01 0.12917330D+05 0.12917330D+05 0.12917330D+05 0.12552919D+01  1  2 11  1  5  1       -2 0.592023862340D-02 0.100000000000D+01
0.193078243705D-05 0.000000000000D+00 0.000000000000D+00 0.185390135240D-02 0.000000000000D+00  5 21 2 25 23 2 2 0.10405924D-01 0.29228414D-01 0.12917330D+05 0.12917330D+05 0.12917330D+05 0.12552919D+01  1  2 12  3  5  1       -2 0.500123105979D-01 0.100000000000D+01
-.955926163943D-05 0.000000000000D+00 -.166297977143D-05 0.185390135240D-02 0.000000000000D+00  5 21 2 25 23 2 2 0.10558173D-01 0.29228414D-01 0.12076216D+05 0.12076216D+05 0.12076216D+05 0.12587020D+01  1  2  5  3  5  1       -2 -.242315154385D+00 0.100000000000D+01
0.417202352602D-07 0.000000000000D+00 0.000000000000D+00 0.185390135240D-02 0.202166003819D-05  5 21 2 25 23 2 2 0.10268117D-01 0.30073615D-01 0.12917330D+05 0.12917330D+05 0.12917330D+05 0.12552919D+01  1  2 11  3  5  1       -2 0.107265647252D-02 0.100000000000D+01
  </mgrwgt>
  </event>
  <event>
  4     66 -.46888340E-03 0.39342951E+02 0.75467711E-02 0.12435721E+00
       -4 -1    0    0    0  501 0.00000000E+00 0.00000000E+00 0.36652274E+03 0.36652602E+03 0.15500000E+01 0.0000E+00 0.9000E+01
        4 -1    0    0  501    0 0.00000000E+00 0.00000000E+00 -.99065401E+02 0.99077526E+02 0.15500000E+01 0.0000E+00 0.9000E+01
       25  1    1    2    0    0 0.46023617E+02 0.11506764E+02 -.41502774E+02 0.13999307E+03 0.12500000E+03 0.0000E+00 0.9000E+01
       23  1    1    2    0    0 -.46023617E+02 -.11506764E+02 0.30896012E+03 0.32561048E+03 0.91188000E+02 0.0000E+00 0.9000E+01
#aMCatNLO 1  0  0  2  1 0.28281723D+01 0.00000000D+00  -5  5  0 0.00000000D+00 0.00000000D+00 0.00000000D+00 0.00000000D+00 0.00000000D+00
  <mgrwgt>
 -.2955652744D-01   11    2    0
 0.190560510680935D+03 0.000000000000000D+00 0.000000000000000D+00 0.190560510680935D+03
 0.190560510680935D+03 0.000000000000000D+00 0.000000000000000D+00 -.190560510680935D+03
 0.200150310569013D+03 0.460236173072007D+02 0.115067635436333D+02 -.148944848395584D+03
 0.180970710792858D+03 -.460236173072007D+02 -.115067635436333D+02 0.148944848395584D+03
 0.000000000000000D+00 0.000000000000000D+00 0.000000000000000D+00 -.000000000000000D+00
 0.191663948352330D+03 0.000000000000000D+00 0.000000000000000D+00 0.191663948352330D+03
 0.192386605944570D+03 0.000000000000000D+00 0.000000000000000D+00 -.192386605944570D+03
 0.199807661071220D+03 0.446531138481220D+02 0.109376863565663D+02 -.148944848395584D+03
 0.181323853608694D+03 -.472650626312719D+02 -.120222516354289D+02 0.148944848395584D+03
 0.291903961698625D+01 0.261194878314991D+01 0.108456527886254D+01 -.722657592240454D+00
0.454440666461D-03 0.000000000000D+00 0.000000000000D+00 0.534678264137D-03 0.000000000000D+00  5 -4 4 25 23 21 0 0.56389299D-01 0.15242016D-01 0.13981857D+05 0.13981857D+05 0.13981857D+05 0.12513177D+01  1  2  2  2  5  2        4 0.820591870270D-02 0.100000000000D+01
-.182561975955D-04 0.000000000000D+00 -.174517181619D-05 0.534678264137D-03 0.000000000000D+00  5 -4 4 25 23 21 2 0.56389299D-01 0.15242016D-01 0.13981857D+05 0.13981857D+05 0.13981857D+05 0.12513177D+01  1  2  3  2  5  2        4 -.516173256013D-03 0.100000000000D+01
0.308603413719D-04 0.000000000000D+00 0.000000000000D+00 0.534678264137D-03 0.000000000000D+00  5 -4 4 25 23 21 2 0.56389299D-01 0.15242016D-01 0.13981857D+05 0.13981857D+05 0.13981857D+05 0.12513177D+01  1  2 15  2  5  2        4 0.872541108532D-03 0.100000000000D+01
0.264631990068D-05 0.000000000000D+00 0.000000000000D+00 0.534678264137D-03 0.000000000000D+00  5 -4 4 25 23 21 2 0.56389299D-01 0.15431866D-01 0.14331077D+05 0.14331077D+05 0.14331077D+05 0.12500875D+01  1  2 12  2  5  2        4 0.732437533503D-04 0.100000000000D+01
-.681061445498D-02 0.000000000000D+00 0.000000000000D+00 0.534678264137D-03 0.000000000000D+00  5 -4 4 25 23 21 2 0.56389299D-01 0.15242016D-01 0.13981857D+05 0.13981857D+05 0.13981857D+05 0.12513177D+01  1  2  4  2  5  2        4 -.192562389856D+00 0.100000000000D+01
-.383656974595D-01 0.000000000000D+00 -.475786075467D-02 0.534678264137D-03 0.000000000000D+00  5 -4 4 25 23 21 2 0.56389299D-01 0.15473996D-01 0.13981857D+05 0.13981857D+05 0.13981857D+05 0.12513177D+01  1  2  5  2  5  2        4 -.105653028326D+01 0.100000000000D+01
0.384337236386D-01 0.000000000000D+00 0.475731801715D-02 0.534678264137D-03 0.000000000000D+00  5 -4 4 25 23 21 2 0.56389299D-01 0.15242016D-01 0.13981857D+05 0.13981857D+05 0.13981857D+05 0.12513177D+01  1  2  6  2  5  2        4 0.108666989210D+01 0.100000000000D+01
0.680894201107D-02 0.000000000000D+00 0.000000000000D+00 0.534678264137D-03 0.557190496823D-03  5 -4 4 25 23 21 2 0.56715820D-01 0.15388076D-01 0.14331077D+05 0.14331077D+05 0.14331077D+05 0.12500875D+01  1  2 11  2  5  2        4 0.187138879039D+00 0.100000000000D+01
0.193867422149D-06 0.000000000000D+00 0.000000000000D+00 0.534678264137D-03 0.000000000000D+00  5 -4 21 25 23 -4 2 0.56389299D-01 0.15431866D-01 0.14331077D+05 0.14331077D+05 0.14331077D+05 0.12500875D+01  1  2 12  4  5  2        4 0.139307631682D-03 0.100000000000D+01
-.105839590028D-03 0.000000000000D+00 -.131750647691D-04 0.534678264137D-03 0.000000000000D+00  5 -4 21 25 23 -4 2 0.56389299D-01 0.15473996D-01 0.13981857D+05 0.13981857D+05 0.13981857D+05 0.12513177D+01  1  2  5  4  5  2        4 -.757601152419D-01 0.100000000000D+01
0.178130936995D-04 0.000000000000D+00 0.000000000000D+00 0.534678264137D-03 0.990920862186D-06  5 -4 21 25 23 -4 2 0.56715820D-01 0.15388076D-01 0.14331077D+05 0.14331077D+05 0.14331077D+05 0.12500875D+01  1  2 11  4  5  2        4 0.127126518370D-01 0.100000000000D+01
  </mgrwgt>
  </event>
  <event>
  4     66 0.46888340E-03 0.93547699E+02 0.75467711E-02 0.11969402E+00
       -4 -1    0    0    0  501 0.00000000E+00 0.00000000E+00 0.17458405E+04 0.17458412E+04 0.15500000E+01 0.0000E+00 0.9000E+01
        4 -1    0    0  501    0 0.00000000E+00 0.00000000E+00 -.12059769E+02 0.12158969E+02 0.15500000E+01 0.0000E+00 0.9000E+01
       25  1    1    2    0    0 -.69149980E+02 0.67437778E+01 0.13474764E+04 0.13550442E+04 0.12500000E+03 0.0000E+00 0.9000E+01
       23  1    1    2    0    0 0.69149980E+02 -.67437778E+01 0.38630439E+03 0.40295599E+03 0.91188000E+02 0.0000E+00 0.9000E+01
#aMCatNLO 1  0  0  2  1 0.45046040D+02 0.00000000D+00  -5  5  0 0.00000000D+00 0.00000000D+00 0.00000000D+00 0.00000000D+00 0.00000000D+00
  <mgrwgt>
 0.2650351300D-01    9    2    0
 0.145403685490281D+03 0.000000000000000D+00 0.000000000000000D+00 0.145403685490281D+03
 0.145403685490281D+03 0.000000000000000D+00 0.000000000000000D+00 -.145403685490281D+03
 0.157971710556758D+03 -.691499802910716D+02 0.674377778720176D+01 0.671033756463066D+02
 0.132835660423804D+03 0.691499802910716D+02 -.674377778720176D+01 -.671033756463066D+02
 0.000000000000000D+00 0.000000000000000D+00 -.000000000000000D+00 -.000000000000000D+00
 0.164137316997796D+03 0.000000000000000D+00 0.000000000000000D+00 0.164137316997796D+03
 0.176978895582752D+03 0.000000000000000D+00 0.000000000000000D+00 -.176978895582752D+03
 0.170204635816437D+03 -.926588157593371D+02 0.160030900876583D+02 0.671033756463066D+02
 0.124070869065882D+03 0.507465414105983D+02 0.504696439720015D+00 -.671033756463066D+02
 0.468407076982301D+02 0.419122743487389D+02 -.165077865273784D+02 -.128415785849554D+02
0.195642468490D-02 0.000000000000D+00 0.000000000000D+00 0.114092628687D-02 0.000000000000D+00  5 -4 4 25 23 21 0 0.26859853D+00 0.18630327D-02 0.16596100D+05 0.16596100D+05 0.16596100D+05 0.12428471D+01  1  2  2  2  5  2        4 0.212511054682D-01 0.100000000000D+01
-.106753753993D-03 0.000000000000D+00 -.751318592845D-05 0.114092628687D-02 0.000000000000D+00  5 -4 4 25 23 21 2 0.26859853D+00 0.18630327D-02 0.16596100D+05 0.16596100D+05 0.16596100D+05 0.12428471D+01  1  2  3  2  5  2        4 -.179117052108D-02 0.100000000000D+01
0.135021803747D-03 0.000000000000D+00 0.000000000000D+00 0.114092628687D-02 0.000000000000D+00  5 -4 4 25 23 21 2 0.26859853D+00 0.18630327D-02 0.16596100D+05 0.16596100D+05 0.16596100D+05 0.12428471D+01  1  2 15  2  5  2        4 0.226546669817D-02 0.100000000000D+01
0.148096263391D-02 0.000000000000D+00 0.000000000000D+00 0.114092628687D-02 0.000000000000D+00  5 -4 4 25 23 21 2 0.26859853D+00 0.23664006D-02 0.23381952D+05 0.23381952D+05 0.23381952D+05 0.12264255D+01  1  2 12  2  5  2        4 0.170658303222D-01 0.100000000000D+01
-.156421630888D-02 0.000000000000D+00 0.000000000000D+00 0.114092628687D-02 0.000000000000D+00  5 -4 4 25 23 21 2 0.26859853D+00 0.18630327D-02 0.16596100D+05 0.16596100D+05 0.16596100D+05 0.12428471D+01  1  2  4  2  5  2        4 -.262452423102D-01 0.100000000000D+01
-.288743015271D-02 0.000000000000D+00 -.115443408241D-02 0.114092628687D-02 0.000000000000D+00  5 -4 4 25 23 21 2 0.26859853D+00 0.26051919D-02 0.16596100D+05 0.16596100D+05 0.16596100D+05 0.12428471D+01  1  2  5  2  5  2        4 -.288623086291D-01 0.100000000000D+01
0.315734633823D-02 0.000000000000D+00 0.109244658075D-02 0.114092628687D-02 0.000000000000D+00  5 -4 4 25 23 21 2 0.26859853D+00 0.18630327D-02 0.16596100D+05 0.16596100D+05 0.16596100D+05 0.12428471D+01  1  2  6  2  5  2        4 0.529756141997D-01 0.100000000000D+01
0.485032602085D-04 0.000000000000D+00 0.000000000000D+00 0.114092628687D-02 0.000000000000D+00  5 -4 21 25 23 -4 2 0.26859853D+00 0.23664006D-02 0.23381952D+05 0.23381952D+05 0.23381952D+05 0.12264255D+01  1  2 12  4  5  2        4 0.161727442382D-01 0.100000000000D+01
-.902840607389D-04 0.000000000000D+00 -.483512091036D-04 0.114092628687D-02 0.000000000000D+00  5 -4 21 25 23 -4 2 0.26859853D+00 0.26051919D-02 0.16596100D+05 0.16596100D+05 0.16596100D+05 0.12428471D+01  1  2  5  4  5  2        4 -.263285264641D-01 0.100000000000D+01
  </mgrwgt>
  </event>
  <event>
  4     66 0.46888340E-03 0.12656355E+03 0.75467711E-02 0.11239458E+00
       -2 -1    0    0    0  501 0.00000000E+00 0.00000000E+00 0.12278287E+02 0.12282457E+02 0.32000000E+00 0.0000E+00 0.9000E+01
        2 -1    0    0  501    0 0.00000000E+00 0.00000000E+00 -.15559020E+04 0.15559020E+04 0.32000000E+00 0.0000E+00 0.9000E+01
       25  1    1    2    0    0 -.60057876E+02 0.25489988E+02 -.11591603E+04 0.11677047E+04 0.12500000E+03 0.0000E+00 0.9000E+01
       23  1    1    2    0    0 0.60057876E+02 -.25489988E+02 -.38446345E+03 0.40047982E+03 0.91188000E+02 0.0000E+00 0.9000E+01
#aMCatNLO 1  0  0  2  1 0.16546004D+03 0.00000000D+00  -5  5  0 0.00000000D+00 0.00000000D+00 0.00000000D+00 0.00000000D+00 0.00000000D+00
  <mgrwgt>
 0.2237918329D+00    3    2    0
 0.138228458375598D+03 0.000000000000000D+00 0.000000000000000D+00 0.138228458375598D+03
 0.138228458375598D+03 0.000000000000000D+00 0.000000000000000D+00 -.138228458375598D+03
 0.151448870333274D+03 -.600578759386798D+02 0.254899878069153D+02 -.552727092203959D+02
 0.125008046417921D+03 0.600578759386798D+02 -.254899878069153D+02 0.552727092203959D+02
 0.000000000000000D+00 -.000000000000000D+00 0.000000000000000D+00 0.000000000000000D+00
 0.810088323944015D+03 0.000000000000000D+00 0.000000000000000D+00 0.810088323944015D+03
 0.171640212111851D+03 0.000000000000000D+00 0.000000000000000D+00 -.171640212111851D+03
 0.141308850355107D+03 -.662475269593040D+01 -.352736651885989D+02 -.552727092203959D+02
 0.180879682722186D+03 0.115887442759859D+03 -.889788542503031D+02 0.552727092203959D+02
 0.659540002978572D+03 -.109262690063929D+03 0.124252519438902D+03 0.638448111832163D+03
0.210378259320D-03 0.000000000000D+00 0.000000000000D+00 0.125793123126D-02 0.000000000000D+00  5 -2 2 25 23 21 0 0.18892905D-02 0.23936986D+00 0.16018332D+05 0.16018332D+05 0.16018332D+05 0.12445836D+01  1  2  2  2  5  2        2 0.219050640333D+00 0.100000000000D+01
-.115772261309D-04 0.000000000000D+00 -.807907909656D-06 0.125793123126D-02 0.000000000000D+00  5 -2 2 25 23 21 2 0.18892905D-02 0.23936986D+00 0.16018332D+05 0.16018332D+05 0.16018332D+05 0.12445836D+01  1  2  3  2  5  2        2 -.186722360399D-01 0.100000000000D+01
0.145168771614D-04 0.000000000000D+00 0.000000000000D+00 0.125793123126D-02 0.000000000000D+00  5 -2 2 25 23 21 2 0.18892905D-02 0.23936986D+00 0.16018332D+05 0.16018332D+05 0.16018332D+05 0.12445836D+01  1  2 15  2  5  2        2 0.234134285584D-01 0.100000000000D+01
  </mgrwgt>
  </event>
  <event>
  4     66 0.46888340E-03 0.85036318E+02 0.75467711E-02 0.12178547E+00
       -2 -1    0    0    0  501 0.00000000E+00 0.00000000E+00 0.51228955E+02 0.51229954E+02 0.32000000E+00 0.0000E+00 0.9000E+01
        2 -1    0    0  501    0 0.00000000E+00 0.00000000E+00 -.31085666E+03 0.31085682E+03 0.32000000E+00 0.0000E+00 0.9000E+01
       25  1    1    2    0    0 -.12211921E+02 0.56445780E+02 -.18602662E+03 0.23144364E+03 0.12500000E+03 0.0000E+00 0.9000E+01
       23  1    1    2    0    0 0.12211921E+02 -.56445780E+02 -.73601081E+02 0.13064313E+03 0.91188000E+02 0.0000E+00 0.9000E+01
#aMCatNLO 1  0  0  2  1 0.26392914D+02 0.00000000D+00  -5  5  0 0.00000000D+00 0.00000000D+00 0.00000000D+00 0.00000000D+00 0.00000000D+00
  <mgrwgt>
 0.2508237778D+00    9    2    0
 0.126194580923111D+03 0.000000000000000D+00 0.000000000000000D+00 0.126194580923111D+03
 0.126194580923111D+03 0.000000000000000D+00 0.000000000000000D+00 -.126194580923111D+03
 0.140675687406704D+03 -.122119205766537D+02 0.564457795316502D+02 -.287991665893757D+02
 0.111713474439518D+03 0.122119205766537D+02 -.564457795316502D+02 0.287991665893757D+02
 0.000000000000000D+00 0.000000000000000D+00 -.000000000000000D+00 -.000000000000000D+00
 0.139890100091813D+03 0.000000000000000D+00 0.000000000000000D+00 0.139890100091813D+03
 0.140270955473883D+03 0.000000000000000D+00 0.000000000000000D+00 -.140270955473883D+03
 0.145547968373550D+03 -.250561127308957D+02 0.640469383830481D+02 -.287991665893757D+02
 0.108217425134112D+03 0.234259399329210D+01 -.506051382351339D+02 0.287991665893757D+02
 0.263956620580349D+02 0.227135187376036D+02 -.134418001479142D+02 -.380855382070296D+00
0.132465442262D-03 0.000000000000D+00 0.000000000000D+00 0.151573807214D-02 0.000000000000D+00  5 -2 2 25 23 21 0 0.78814672D-02 0.47824190D-01 0.15083987D+05 0.15083987D+05 0.15083987D+05 0.12475462D+01  1  2  2  2  5  2        2 0.126793134080D+00 0.100000000000D+01
-.735260515248D-05 0.000000000000D+00 -.508702177238D-06 0.151573807214D-02 0.000000000000D+00  5 -2 2 25 23 21 2 0.78814672D-02 0.47824190D-01 0.15083987D+05 0.15083987D+05 0.15083987D+05 0.12475462D+01  1  2  3  2  5  2        2 -.109533673737D-01 0.100000000000D+01
0.914772286878D-05 0.000000000000D+00 0.000000000000D+00 0.151573807214D-02 0.000000000000D+00  5 -2 2 25 23 21 2 0.78814672D-02 0.47824190D-01 0.15083987D+05 0.15083987D+05 0.15083987D+05 0.12475462D+01  1  2 15  2  5  2        2 0.136276009845D-01 0.100000000000D+01
0.139300786731D-03 0.000000000000D+00 0.000000000000D+00 0.151573807214D-02 0.000000000000D+00  5 -2 2 25 23 21 2 0.78814672D-02 0.55481177D-01 0.18683914D+05 0.18683914D+05 0.18683914D+05 0.12370939D+01  1  2 12  2  5  2        2 0.175699841174D+00 0.100000000000D+01
-.113984128378D-03 0.000000000000D+00 0.000000000000D+00 0.151573807214D-02 0.000000000000D+00  5 -2 2 25 23 21 2 0.78814672D-02 0.47824190D-01 0.15083987D+05 0.15083987D+05 0.15083987D+05 0.12475462D+01  1  2  4  2  5  2        2 -.169805124443D+00 0.100000000000D+01
-.396598686329D-03 0.000000000000D+00 -.113977408518D-03 0.151573807214D-02 0.000000000000D+00  5 -2 2 25 23 21 2 0.78814672D-02 0.58310765D-01 0.15083987D+05 0.15083987D+05 0.15083987D+05 0.12475462D+01  1  2  5  2  5  2        2 -.479003330823D+00 0.100000000000D+01
0.413251059676D-03 0.000000000000D+00 0.111773568700D-03 0.151573807214D-02 0.000000000000D+00  5 -2 2 25 23 21 2 0.78814672D-02 0.47824190D-01 0.15083987D+05 0.15083987D+05 0.15083987D+05 0.12475462D+01  1  2  6  2  5  2        2 0.615630865567D+00 0.100000000000D+01
0.315202495016D-05 0.000000000000D+00 0.000000000000D+00 0.151573807214D-02 0.000000000000D+00  5 -2 21 25 23 -2 2 0.78814672D-02 0.55481177D-01 0.18683914D+05 0.18683914D+05 0.18683914D+05 0.12370939D+01  1  2 12  4  5  2        2 0.111613057474D-01 0.100000000000D+01
-.998032722449D-05 0.000000000000D+00 -.323980564320D-05 0.151573807214D-02 0.000000000000D+00  5 -2 21 25 23 -2 2 0.78814672D-02 0.58310765D-01 0.15083987D+05 0.15083987D+05 0.15083987D+05 0.12475462D+01  1  2  5  4  5  2        2 -.323271471091D-01 0.100000000000D+01
  </mgrwgt>
  </event>
  <event>
  4     66 0.46888340E-03 0.60209008E+02 0.75467711E-02 0.12180511E+00
       -2 -1    0    0    0  501 0.00000000E+00 0.00000000E+00 0.27911246E+02 0.27913081E+02 0.32000000E+00 0.0000E+00 0.9000E+01
        2 -1    0    0  501    0 0.00000000E+00 0.00000000E+00 -.68492284E+03 0.68492291E+03 0.32000000E+00 0.0000E+00 0.9000E+01
       25  1    1    2    0    0 -.73375938E+02 0.20046538E+02 -.25886730E+03 0.29736034E+03 0.12500000E+03 0.0000E+00 0.9000E+01
       23  1    1    2    0    0 0.73375938E+02 -.20046538E+02 -.39814429E+03 0.41547565E+03 0.91188000E+02 0.0000E+00 0.9000E+01
#aMCatNLO 1  0  0  2  1 0.79437187D+01 0.00000000D+00  -5  5  0 0.00000000D+00 0.00000000D+00 0.00000000D+00 0.00000000D+00 0.00000000D+00
  <mgrwgt>
 0.1679669617D+00   11    2    0
 0.138266881608726D+03 0.000000000000000D+00 0.000000000000000D+00 0.138266881608726D+03
 0.138266881608726D+03 0.000000000000000D+00 0.000000000000000D+00 -.138266881608726D+03
 0.151483619722277D+03 -.733759377357703D+02 0.200465382239043D+02 0.391968762887742D+02
 0.125050143495174D+03 0.733759377357703D+02 -.200465382239043D+02 -.391968762887742D+02
 0.000000000000000D+00 0.000000000000000D+00 0.000000000000000D+00 -.000000000000000D+00
 0.139148448579323D+03 0.000000000000000D+00 0.000000000000000D+00 0.139148448579323D+03
 0.157456818331476D+03 0.000000000000000D+00 0.000000000000000D+00 -.157456818331476D+03
 0.153625529262204D+03 -.777527863725745D+02 0.198472250351445D+02 0.391968762887742D+02
 0.123022306200550D+03 0.698172913730071D+02 -.202085920697390D+02 -.391968762887742D+02
 0.199574314480444D+02 0.793549499956746D+01 0.361367034594510D+00 -.183083697521526D+02
0.106433782392D-03 0.000000000000D+00 0.000000000000D+00 0.134909430069D-02 0.000000000000D+00  5 -2 2 25 23 21 0 0.42941848D-02 0.10537289D+00 0.17565903D+05 0.17565903D+05 0.17565903D+05 0.12400794D+01  1  2  2  2  5  2        2 0.108128430911D+00 0.100000000000D+01
-.590010692880D-05 0.000000000000D+00 -.408733749045D-06 0.134909430069D-02 0.000000000000D+00  5 -2 2 25 23 21 2 0.42941848D-02 0.10537289D+00 0.17565903D+05 0.17565903D+05 0.17565903D+05 0.12400794D+01  1  2  3  2  5  2        2 -.921763018572D-02 0.100000000000D+01
0.735124733031D-05 0.000000000000D+00 0.000000000000D+00 0.134909430069D-02 0.000000000000D+00  5 -2 2 25 23 21 2 0.42941848D-02 0.10537289D+00 0.17565903D+05 0.17565903D+05 0.17565903D+05 0.12400794D+01  1  2 15  2  5  2        2 0.114847205504D-01 0.100000000000D+01
0.134214571010D-02 0.000000000000D+00 0.000000000000D+00 0.134909430069D-02 0.000000000000D+00  5 -2 2 25 23 21 2 0.42941848D-02 0.12030475D+00 0.18645289D+05 0.18645289D+05 0.18645289D+05 0.12371937D+01  1  2 12  2  5  2        2 0.178232716738D+01 0.100000000000D+01
-.136036195001D-02 0.000000000000D+00 0.000000000000D+00 0.134909430069D-02 0.000000000000D+00  5 -2 2 25 23 21 2 0.42941848D-02 0.10537289D+00 0.17565903D+05 0.17565903D+05 0.17565903D+05 0.12400794D+01  1  2  4  2  5  2        2 -.212526883415D+01 0.100000000000D+01
-.172218958440D-02 0.000000000000D+00 -.123002535669D-03 0.134909430069D-02 0.000000000000D+00  5 -2 2 25 23 21 2 0.42941848D-02 0.12035216D+00 0.17565903D+05 0.17565903D+05 0.17565903D+05 0.12400794D+01  1  2  5  2  5  2        2 -.229270739845D+01 0.100000000000D+01
0.172436279713D-02 0.000000000000D+00 0.121923942492D-03 0.134909430069D-02 0.000000000000D+00  5 -2 2 25 23 21 2 0.42941848D-02 0.10537289D+00 0.17565903D+05 0.17565903D+05 0.17565903D+05 0.12400794D+01  1  2  6  2  5  2        2 0.269394076443D+01 0.100000000000D+01
0.793456759877D-05 0.000000000000D+00 0.000000000000D+00 0.134909430069D-02 0.175828356368D-03  5 -2 2 25 23 21 2 0.43215638D-02 0.11999750D+00 0.18645289D+05 0.18645289D+05 0.18645289D+05 0.12371937D+01  1  2 11  2  5  2        2 0.104704188311D-01 0.100000000000D+01
0.276636882062D-04 0.000000000000D+00 0.000000000000D+00 0.134909430069D-02 0.000000000000D+00  5 -2 21 25 23 -2 2 0.42941848D-02 0.12030475D+00 0.18645289D+05 0.18645289D+05 0.18645289D+05 0.12371937D+01  1  2 12  4  5  2        2 0.428875124625D-01 0.100000000000D+01
-.348982659648D-04 0.000000000000D+00 -.254150414871D-05 0.134909430069D-02 0.000000000000D+00  5 -2 21 25 23 -2 2 0.42941848D-02 0.12035216D+00 0.17565903D+05 0.17565903D+05 0.17565903D+05 0.12400794D+01  1  2  5  4  5  2        2 -.543324165579D-01 0.100000000000D+01
0.164510405351D-06 0.000000000000D+00 0.000000000000D+00 0.134909430069D-02 0.360667686427D-05  5 -2 21 25 23 -2 2 0.43215638D-02 0.11999750D+00 0.18645289D+05 0.18645289D+05 0.18645289D+05 0.12371937D+01  1  2 11  4  5  2        2 0.254226509222D-03 0.100000000000D+01
  </mgrwgt>
  </event>
  <event>
  4     66 0.46888340E-03 0.57526327E+02 0.75467711E-02 0.12391976E+00
       -2 -1    0    0    0  501 0.00000000E+00 0.00000000E+00 0.77836279E+01 0.77902031E+01 0.32000000E+00 0.0000E+00 0.9000E+01
        2 -1    0    0  501    0 0.00000000E+00 0.00000000E+00 -.16289164E+04 0.16289165E+04 0.32000000E+00 0.0000E+00 0.9000E+01
       25  1    1    2    0    0 -.25384964E+02 0.12610015E+02 -.10232022E+04 0.10311988E+04 0.12500000E+03 0.0000E+00 0.9000E+01
       23  1    1    2    0    0 0.25384964E+02 -.12610015E+02 -.59793065E+03 0.60550782E+03 0.91188000E+02 0.0000E+00 0.9000E+01
#aMCatNLO 1  0  0  1  2 0.20207259D+02 0.00000000D+00  -5  5  0 0.00000000D+00 0.00000000D+00 0.00000000D+00 0.00000000D+00 0.00000000D+00
  <mgrwgt>
 0.1272806612D+00    9    2    0
 0.112624535143014D+03 0.000000000000000D+00 0.000000000000000D+00 0.112624535143014D+03
 0.112624535143014D+03 0.000000000000000D+00 0.000000000000000D+00 -.112624535143014D+03
 0.128850459287157D+03 -.253849644197406D+02 0.126100146127390D+02 -.131921177748844D+02
 0.963986109988697D+02 0.253849644197406D+02 -.126100146127390D+02 0.131921177748844D+02
 0.000000000000000D+00 -.000000000000000D+00 -.000000000000000D+00 0.000000000000000D+00
 0.220747855418998D+03 0.000000000000000D+00 0.000000000000000D+00 0.220747855418998D+03
 0.114024932943630D+03 0.000000000000000D+00 0.000000000000000D+00 -.114024932943630D+03
 0.127672048650405D+03 -.147193865866606D+02 0.168659329334989D+02 -.131921177748844D+02
 0.984816092554852D+02 0.334876068504644D+02 -.937679228693788D+01 0.131921177748844D+02
 0.108619130456738D+03 -.187682202638038D+02 -.748914064656101D+01 0.106722922475368D+03
0.586644185763D-04 0.000000000000D+00 0.000000000000D+00 0.179687415522D-02 0.000000000000D+00  5 -2 2 25 23 21 0 0.11979894D-02 0.25060304D+00 0.12506512D+05 0.12506512D+05 0.12506512D+05 0.12569252D+01  1  2  2  1  5  1       -2 0.107160636579D+00 0.100000000000D+01
-.325893700826D-05 0.000000000000D+00 -.225286814029D-06 0.179687415522D-02 0.000000000000D+00  5 -2 2 25 23 21 2 0.11979894D-02 0.25060304D+00 0.12506512D+05 0.12506512D+05 0.12506512D+05 0.12569252D+01  1  2  3  1  5  1       -2 -.940492580361D-02 0.100000000000D+01
0.406256620507D-05 0.000000000000D+00 0.000000000000D+00 0.179687415522D-02 0.000000000000D+00  5 -2 2 25 23 21 2 0.11979894D-02 0.25060304D+00 0.12506512D+05 0.12506512D+05 0.12506512D+05 0.12569252D+01  1  2 15  1  5  1       -2 0.117241093136D-01 0.100000000000D+01
0.507478694946D-03 0.000000000000D+00 0.000000000000D+00 0.179687415522D-02 0.000000000000D+00  5 -2 2 25 23 21 2 0.23485493D-02 0.25060304D+00 0.14980530D+05 0.14980530D+05 0.14980530D+05 0.12478868D+01  1  2 12  1  5  1       -2 0.549730629517D+00 0.100000000000D+01
-.419213954277D-03 0.000000000000D+00 0.000000000000D+00 0.179687415522D-02 0.000000000000D+00  5 -2 2 25 23 21 2 0.11979894D-02 0.25060304D+00 0.12506512D+05 0.12506512D+05 0.12506512D+05 0.12569252D+01  1  2  4  1  5  1       -2 -.120980433982D+01 0.100000000000D+01
-.510740216160D-03 0.000000000000D+00 -.172292907106D-04 0.179687415522D-02 0.000000000000D+00  5 -2 2 25 23 21 2 0.23771657D-02 0.25060304D+00 0.12506512D+05 0.12506512D+05 0.12506512D+05 0.12569252D+01  1  2  5  1  5  1       -2 -.549873884686D+00 0.100000000000D+01
0.422728394162D-03 0.000000000000D+00 0.138485033279D-04 0.179687415522D-02 0.000000000000D+00  5 -2 2 25 23 21 2 0.11979894D-02 0.25060304D+00 0.12506512D+05 0.12506512D+05 0.12506512D+05 0.12569252D+01  1  2  6  1  5  1       -2 0.121994661820D+01 0.100000000000D+01
0.370055086926D-04 0.000000000000D+00 0.000000000000D+00 0.179687415522D-02 0.000000000000D+00  5 21 2 25 23 2 2 0.23485493D-02 0.25060304D+00 0.14980530D+05 0.14980530D+05 0.14980530D+05 0.12478868D+01  1  2 12  3  5  1       -2 0.820833536324D+00 0.100000000000D+01
-.368572814099D-04 0.000000000000D+00 -.127798882888D-05 0.179687415522D-02 0.000000000000D+00  5 21 2 25 23 2 2 0.23771657D-02 0.25060304D+00 0.12506512D+05 0.12506512D+05 0.12506512D+05 0.12569252D+01  1  2  5  3  5  1       -2 -.813031718392D+00 0.100000000000D+01
  </mgrwgt>
  </event>
  <event>
  4     66 0.46888340E-03 0.16564387E+03 0.75467711E-02 0.11404193E+00
       -2 -1    0    0    0  501 0.00000000E+00 0.00000000E+00 0.10277697E+02 0.10282678E+02 0.32000000E+00 0.0000E+00 0.9000E+01
        2 -1    0    0  501    0 0.00000000E+00 0.00000000E+00 -.26722027E+04 0.26722027E+04 0.32000000E+00 0.0000E+00 0.9000E+01
       25  1    1    2    0    0 0.11373016E+03 0.51526013E+02 -.13731865E+04 0.13845056E+04 0.12500000E+03 0.0000E+00 0.9000E+01
       23  1    1    2    0    0 -.11373016E+03 -.51526013E+02 -.12887385E+04 0.12979799E+04 0.91188000E+02 0.0000E+00 0.9000E+01
#aMCatNLO 1  0  0  1  2 0.81696003D+02 0.00000000D+00  -5  5  0 0.00000000D+00 0.00000000D+00 0.00000000D+00 0.00000000D+00 0.00000000D+00
  <mgrwgt>
 0.1202417672D+00    4    2    0
 0.165743164056195D+03 0.000000000000000D+00 0.000000000000000D+00 0.165743164056195D+03
 0.165743164056195D+03 0.000000000000000D+00 0.000000000000000D+00 -.165743164056195D+03
 0.176768880708862D+03 0.113730162293935D+03 0.515260126398418D+02 0.572340747263724D+01
 0.154717447403529D+03 -.113730162293935D+03 -.515260126398418D+02 -.572340747263724D+01
 0.000000000000000D+00 0.000000000000000D+00 -.000000000000000D+00 -.000000000000000D+00
 0.203103632009447D+03 0.000000000000000D+00 0.000000000000000D+00 0.203103632009447D+03
 0.222199533828333D+03 0.000000000000000D+00 0.000000000000000D+00 -.222199533828333D+03
 0.174689635990680D+03 0.873260237214833D+02 0.850463233211954D+02 0.572340747263724D+01
 0.166715435094028D+03 -.137878555256237D+03 -.208693929462802D+02 -.572340747263724D+01
 0.838980947530722D+02 0.505525315347534D+02 -.641769303749152D+02 -.190959018188856D+02
0.449106599939D-03 0.000000000000D+00 0.000000000000D+00 0.125467157570D-02 0.000000000000D+00  5 -2 2 25 23 21 0 0.15815688D-02 0.41110849D+00 0.27437893D+05 0.27437893D+05 0.27437893D+05 0.12189887D+01  1  2  2  1  5  1       -2 0.158907295218D+00 0.100000000000D+01
-.249503557701D-04 0.000000000000D+00 -.172468759625D-05 0.125467157570D-02 0.000000000000D+00  5 -2 2 25 23 21 2 0.15815688D-02 0.41110849D+00 0.27437893D+05 0.27437893D+05 0.27437893D+05 0.12189887D+01  1  2  3  1  5  1       -2 -.131180863885D-01 0.100000000000D+01
0.309311400119D-04 0.000000000000D+00 0.000000000000D+00 0.125467157570D-02 0.000000000000D+00  5 -2 2 25 23 21 2 0.15815688D-02 0.41110849D+00 0.27437893D+05 0.27437893D+05 0.27437893D+05 0.12189887D+01  1  2 15  1  5  1       -2 0.162625884180D-01 0.100000000000D+01
-.795218977166D-04 0.000000000000D+00 0.000000000000D+00 0.125467157570D-02 0.000000000000D+00  5 -2 2 25 23 21 2 0.15815688D-02 0.41110849D+00 0.27437893D+05 0.27437893D+05 0.27437893D+05 0.12189887D+01  1  2  4  1  5  1       -2 -.418100300307D-01 0.100000000000D+01
  </mgrwgt>
  </event>
  <event>
  4     66 0.46888340E-03 0.17247267E+03 0.75467711E-02 0.97527286E-01
       -2 -1    0    0    0  501 0.00000000E+00 0.00000000E+00 0.42535766E+03 0.42535778E+03 0.32000000E+00 0.0000E+00 0.9000E+01
        2 -1    0    0  501    0 0.00000000E+00 0.00000000E+00 -.87062125E+02 0.87062713E+02 0.32000000E+00 0.0000E+00 0.9000E+01
       25  1    1    2    0    0 0.13742005E+02 -.13304179E+03 0.29096593E+03 0.34376610E+03 0.12500000E+03 0.0000E+00 0.9000E+01
       23  1    1    2    0    0 -.13742005E+02 0.13304179E+03 0.47329605E+02 0.16865439E+03 0.91188000E+02 0.0000E+00 0.9000E+01
#aMCatNLO 1  0  0  1  2 0.64403211D+03 0.00000000D+00  -5  5  0 0.00000000D+00 0.00000000D+00 0.00000000D+00 0.00000000D+00 0.00000000D+00
  <mgrwgt>
 0.1769827607D+00    3    2    0
 0.192438881392109D+03 0.000000000000000D+00 0.000000000000000D+00 0.192438881392109D+03
 0.192438881392109D+03 0.000000000000000D+00 0.000000000000000D+00 -.192438881392109D+03
 0.201935076499772D+03 0.137420054516502D+02 -.133041790486794D+03 0.852280141221402D+02
 0.182942686284445D+03 -.137420054516502D+02 0.133041790486794D+03 -.852280141221402D+02
 0.000000000000000D+00 -.000000000000000D+00 0.000000000000000D+00 -.000000000000000D+00
 0.476163955643906D+03 0.000000000000000D+00 0.000000000000000D+00 0.476163955643906D+03
 0.140152920072574D+04 0.000000000000000D+00 0.000000000000000D+00 -.140152920072574D+04
 0.610852734287424D+03 0.170328245612656D+03 -.566780854776988D+03 0.852280141221402D+02
 0.139419384295928D+03 0.483621057724210D+02 -.389846855509823D+02 -.852280141221402D+02
 0.112742103778630D+04 -.218690351385077D+03 0.605765540327970D+03 -.925365245081837D+03
0.178486112849D-02 0.000000000000D+00 0.000000000000D+00 0.956281826525D-03 0.000000000000D+00  5 -2 2 25 23 21 0 0.65439694D-01 0.13394228D-01 0.29746821D+05 0.29746821D+05 0.29746821D+05 0.12152849D+01  1  2  2  1  5  1       -2 0.173433587465D+00 0.100000000000D+01
-.977123214833D-04 0.000000000000D+00 -.685433669814D-05 0.956281826525D-03 0.000000000000D+00  5 -2 2 25 23 21 2 0.65439694D-01 0.13394228D-01 0.29746821D+05 0.29746821D+05 0.29746821D+05 0.12152849D+01  1  2  3  1  5  1       -2 -.140227859265D-01 0.100000000000D+01
0.122443352899D-03 0.000000000000D+00 0.000000000000D+00 0.956281826525D-03 0.000000000000D+00  5 -2 2 25 23 21 2 0.65439694D-01 0.13394228D-01 0.29746821D+05 0.29746821D+05 0.29746821D+05 0.12152849D+01  1  2 15  1  5  1       -2 0.175719591936D-01 0.100000000000D+01
  </mgrwgt>
  </event>
  <event>
  4     66 0.46888340E-03 0.63489487E+02 0.75467711E-02 0.12186935E+00
       -2 -1    0    0    0  501 0.00000000E+00 0.00000000E+00 0.20087665E+02 0.20090214E+02 0.32000000E+00 0.0000E+00 0.9000E+01
        2 -1    0    0  501    0 0.00000000E+00 0.00000000E+00 -.83914155E+03 0.83914161E+03 0.32000000E+00 0.0000E+00 0.9000E+01
       25  1    1    2    0    0 0.67913736E+02 -.18841512E+02 -.41794511E+03 0.44189409E+03 0.12500000E+03 0.0000E+00 0.9000E+01
       23  1    1    2    0    0 -.67913736E+02 0.18841512E+02 -.40110878E+03 0.41733773E+03 0.91188000E+02 0.0000E+00 0.9000E+01
#aMCatNLO 1  0  0  1  2 0.13088157D+02 0.00000000D+00  -5  5  0 0.00000000D+00 0.00000000D+00 0.00000000D+00 0.00000000D+00 0.00000000D+00
  <mgrwgt>
 0.1105703428D+00    9    2    0
 0.129836495235516D+03 0.000000000000000D+00 0.000000000000000D+00 0.129836495235516D+03
 0.129836495235516D+03 0.000000000000000D+00 0.000000000000000D+00 -.129836495235516D+03
 0.143911406612977D+03 0.679137358002510D+02 -.188415117644193D+02 0.108726665271421D+02
 0.115761583858055D+03 -.679137358002510D+02 0.188415117644193D+02 -.108726665271421D+02
 0.000000000000000D+00 0.000000000000000D+00 -.000000000000000D+00 0.000000000000000D+00
 0.162726099283653D+03 0.000000000000000D+00 0.000000000000000D+00 0.162726099283653D+03
 0.131309949365007D+03 0.000000000000000D+00 0.000000000000000D+00 -.131309949365007D+03
 0.140546756373598D+03 0.611213897186174D+02 -.165635614707065D+02 0.108726665271421D+02
 0.119455862543502D+03 -.735303026922790D+02 0.207251407856124D+02 -.108726665271421D+02
 0.340334297315603D+02 0.124089129736616D+02 -.416157931490591D+01 0.314161499186468D+02
0.931078516010D-04 0.000000000000D+00 0.000000000000D+00 0.152353616060D-02 0.000000000000D+00  5 -2 2 25 23 21 0 0.30906107D-02 0.12909890D+00 0.16737885D+05 0.16737885D+05 0.16737885D+05 0.12424313D+01  1  2  2  1  5  1       -2 0.119933205772D+00 0.100000000000D+01
-.517257867329D-05 0.000000000000D+00 -.357558666008D-06 0.152353616060D-02 0.000000000000D+00  5 -2 2 25 23 21 2 0.30906107D-02 0.12909890D+00 0.16737885D+05 0.16737885D+05 0.16737885D+05 0.12424313D+01  1  2  3  1  5  1       -2 -.102850165532D-01 0.100000000000D+01
0.644366541389D-05 0.000000000000D+00 0.000000000000D+00 0.152353616060D-02 0.000000000000D+00  5 -2 2 25 23 21 2 0.30906107D-02 0.12909890D+00 0.16737885D+05 0.16737885D+05 0.16737885D+05 0.12424313D+01  1  2 15  1  5  1       -2 0.128124113003D-01 0.100000000000D+01
0.572281441666D-03 0.000000000000D+00 0.000000000000D+00 0.152353616060D-02 0.000000000000D+00  5 -2 2 25 23 21 2 0.38880230D-02 0.12909890D+00 0.18519638D+05 0.18519638D+05 0.18519638D+05 0.12375198D+01  1  2 12  1  5  1       -2 0.806913606261D+00 0.100000000000D+01
-.568038572442D-03 0.000000000000D+00 0.000000000000D+00 0.152353616060D-02 0.000000000000D+00  5 -2 2 25 23 21 2 0.30906107D-02 0.12909890D+00 0.16737885D+05 0.16737885D+05 0.16737885D+05 0.12424313D+01  1  2  4  1  5  1       -2 -.112947264593D+01 0.100000000000D+01
-.676860797872D-03 0.000000000000D+00 -.531245368807D-04 0.152353616060D-02 0.000000000000D+00  5 -2 2 25 23 21 2 0.39151097D-02 0.12909890D+00 0.16737885D+05 0.16737885D+05 0.16737885D+05 0.12424313D+01  1  2  5  1  5  1       -2 -.949330300606D+00 0.100000000000D+01
0.671998060679D-03 0.000000000000D+00 0.516730077884D-04 0.152353616060D-02 0.000000000000D+00  5 -2 2 25 23 21 2 0.30906107D-02 0.12909890D+00 0.16737885D+05 0.16737885D+05 0.16737885D+05 0.12424313D+01  1  2  6  1  5  1       -2 0.133618290109D+01 0.100000000000D+01
0.181772617616D-04 0.000000000000D+00 0.000000000000D+00 0.152353616060D-02 0.000000000000D+00  5 21 2 25 23 2 2 0.38880230D-02 0.12909890D+00 0.18519638D+05 0.18519638D+05 0.18519638D+05 0.12375198D+01  1  2 12  3  5  1       -2 0.479686634748D+00 0.100000000000D+01
-.211700919042D-04 0.000000000000D+00 -.172531984283D-05 0.152353616060D-02 0.000000000000D+00  5 21 2 25 23 2 2 0.39151097D-02 0.12909890D+00 0.16737885D+05 0.16737885D+05 0.16737885D+05 0.12424313D+01  1  2  5  3  5  1       -2 -.555870453301D+00 0.100000000000D+01
  </mgrwgt>
  </event>
  <event>
  4     66 0.46888340E-03 0.60486559E+02 0.75467711E-02 0.11879661E+00
       -2 -1    0    0    0  501 0.00000000E+00 0.00000000E+00 0.17908674E+02 0.17911532E+02 0.32000000E+00 0.0000E+00 0.9000E+01
        2 -1    0    0  501    0 0.00000000E+00 0.00000000E+00 -.12403884E+04 0.12403885E+04 0.32000000E+00 0.0000E+00 0.9000E+01
       25  1    1    2    0    0 0.12129770E+02 -.87807394E+02 -.87419261E+03 0.88752183E+03 0.12500000E+03 0.0000E+00 0.9000E+01
       23  1    1    2    0    0 -.12129770E+02 0.87807394E+02 -.34828713E+03 0.37077816E+03 0.91188000E+02 0.0000E+00 0.9000E+01
#aMCatNLO 1  0  0  1  2 0.38230731D+02 0.00000000D+00  -5  5  0 0.00000000D+00 0.00000000D+00 0.00000000D+00 0.00000000D+00 0.00000000D+00
  <mgrwgt>
 0.1807492911D+00    9    2    0
 0.149048770368509D+03 0.000000000000000D+00 0.000000000000000D+00 0.149048770368509D+03
 0.149048770368509D+03 0.000000000000000D+00 0.000000000000000D+00 -.149048770368509D+03
 0.161309436186025D+03 0.121297704036282D+02 -.878073937008353D+02 -.503831765977012D+02
 0.136788104550993D+03 -.121297704036282D+02 0.878073937008353D+02 0.503831765977012D+02
 0.000000000000000D+00 0.000000000000000D+00 -.000000000000000D+00 0.000000000000000D+00
 0.177812992994336D+03 0.000000000000000D+00 0.000000000000000D+00 0.177812992994336D+03
 0.163535741445095D+03 0.000000000000000D+00 0.000000000000000D+00 -.163535741445095D+03
 0.159458792184938D+03 -.813902191634892D+01 -.848374813584735D+02 -.503831765977012D+02
 0.141080277810451D+03 -.296877952833825D+02 0.903801071597661D+02 0.503831765977012D+02
 0.408096644440426D+02 0.378268171997314D+02 -.554262580129264D+01 0.142772515492411D+02
0.168929431267D-03 0.000000000000D+00 0.000000000000D+00 0.122617939421D-02 0.000000000000D+00  5 -2 2 25 23 21 0 0.27554037D-02 0.19082921D+00 0.19657510D+05 0.19657510D+05 0.19657510D+05 0.12346527D+01  1  2  2  1  5  1       -2 0.149816326760D+00 0.100000000000D+01
-.934227729583D-05 0.000000000000D+00 -.648733496207D-06 0.122617939421D-02 0.000000000000D+00  5 -2 2 25 23 21 2 0.27554037D-02 0.19082921D+00 0.19657510D+05 0.19657510D+05 0.19657510D+05 0.12346527D+01  1  2  3  1  5  1       -2 -.126297930573D-01 0.100000000000D+01
0.116699971557D-04 0.000000000000D+00 0.000000000000D+00 0.122617939421D-02 0.000000000000D+00  5 -2 2 25 23 21 2 0.27554037D-02 0.19082921D+00 0.19657510D+05 0.19657510D+05 0.19657510D+05 0.12346527D+01  1  2 15  1  5  1       -2 0.157766296577D-01 0.100000000000D+01
0.132637270226D-03 0.000000000000D+00 0.000000000000D+00 0.122617939421D-02 0.000000000000D+00  5 -2 2 25 23 21 2 0.34007064D-02 0.19082921D+00 0.25808048D+05 0.25808048D+05 0.25808048D+05 0.12218193D+01  1  2 12  1  5  1       -2 0.129463050212D+00 0.100000000000D+01
-.132239026133D-03 0.000000000000D+00 0.000000000000D+00 0.122617939421D-02 0.000000000000D+00  5 -2 2 25 23 21 2 0.27554037D-02 0.19082921D+00 0.19657510D+05 0.19657510D+05 0.19657510D+05 0.12346527D+01  1  2  4  1  5  1       -2 -.178773491866D+00 0.100000000000D+01
-.271688675561D-03 0.000000000000D+00 -.853877075880D-04 0.122617939421D-02 0.000000000000D+00  5 -2 2 25 23 21 2 0.36258816D-02 0.19082921D+00 0.19657510D+05 0.19657510D+05 0.19657510D+05 0.12346527D+01  1  2  5  1  5  1       -2 -.245075353903D+00 0.100000000000D+01
0.287353297941D-03 0.000000000000D+00 0.822679742118D-04 0.122617939421D-02 0.000000000000D+00  5 -2 2 25 23 21 2 0.27554037D-02 0.19082921D+00 0.19657510D+05 0.19657510D+05 0.19657510D+05 0.12346527D+01  1  2  6  1  5  1       -2 0.388471950940D+00 0.100000000000D+01
0.394568715405D-05 0.000000000000D+00 0.000000000000D+00 0.122617939421D-02 0.000000000000D+00  5 21 2 25 23 2 2 0.34007064D-02 0.19082921D+00 0.25808048D+05 0.25808048D+05 0.25808048D+05 0.12218193D+01  1  2 12  3  5  1       -2 0.734309473620D-01 0.100000000000D+01
-.818279975109D-05 0.000000000000D+00 -.309501576883D-05 0.122617939421D-02 0.000000000000D+00  5 21 2 25 23 2 2 0.36258816D-02 0.19082921D+00 0.19657510D+05 0.19657510D+05 0.19657510D+05 0.12346527D+01  1  2  5  3  5  1       -2 -.139730974976D+00 0.100000000000D+01
  </mgrwgt>
  </event>
  <event>
  4     66 0.46888340E-03 0.11570453E+03 0.75467711E-02 0.10064260E+00
       -2 -1    0    0    0  501 0.00000000E+00 0.00000000E+00 0.19694235E+02 0.19696834E+02 0.32000000E+00 0.0000E+00 0.9000E+01
        2 -1    0    0  501    0 0.00000000E+00 0.00000000E+00 -.79008333E+03 0.79008340E+03 0.32000000E+00 0.0000E+00 0.9000E+01
       25  1    1    2    0    0 0.14067918E+02 -.38326978E+02 -.28032368E+03 0.30963403E+03 0.12500000E+03 0.0000E+00 0.9000E+01
       23  1    1    2    0    0 -.14067918E+02 0.38326978E+02 -.49006542E+03 0.50014621E+03 0.91188000E+02 0.0000E+00 0.9000E+01
#aMCatNLO 1  0  0  2  2 0.50455305D+03 0.00000000D+00  -5  5  0 0.00000000D+00 0.00000000D+00 0.00000000D+00 0.00000000D+00 0.00000000D+00
  <mgrwgt>
 0.2443117111D+00    3    2    0
 0.124744400384002D+03 0.000000000000000D+00 0.000000000000000D+00 0.124744400384002D+03
 0.124744400384002D+03 0.000000000000000D+00 0.000000000000000D+00 -.124744400384002D+03
 0.139393852851404D+03 0.140679184858046D+02 -.383269781509452D+02 0.462469742583523D+02
 0.110094947916600D+03 -.140679184858046D+02 0.383269781509452D+02 -.462469742583523D+02
 0.000000000000000D+00 -.000000000000000D+00 0.000000000000000D+00 0.000000000000000D+00
 0.874708075839849D+03 0.000000000000000D+00 0.000000000000000D+00 0.874708075839849D+03
 0.388707928278373D+03 0.000000000000000D+00 0.000000000000000D+00 -.388707928278373D+03
 0.388825980425667D+03 0.249851973885813D+03 -.266450467388015D+03 0.462469742583523D+02
 0.174040293669689D+03 0.112762910882420D+03 -.843831486607506D+02 -.462469742583523D+02
 0.700549730022865D+03 -.362614884768233D+03 0.350833616048766D+03 0.486000147561476D+03
0.168569458108D-03 0.000000000000D+00 0.000000000000D+00 0.143159704106D-02 0.000000000000D+00  5 -2 2 25 23 21 0 0.30300872D-02 0.12155149D+00 0.13387539D+05 0.13387539D+05 0.13387539D+05 0.12534927D+01  1  2  2  2  5  2        2 0.239066960859D+00 0.100000000000D+01
-.930053282211D-05 0.000000000000D+00 -.647351104493D-06 0.143159704106D-02 0.000000000000D+00  5 -2 2 25 23 21 2 0.30300872D-02 0.12155149D+00 0.13387539D+05 0.13387539D+05 0.13387539D+05 0.12534927D+01  1  2  3  2  5  2        2 -.207248853203D-01 0.100000000000D+01
0.116541753587D-04 0.000000000000D+00 0.000000000000D+00 0.143159704106D-02 0.000000000000D+00  5 -2 2 25 23 21 2 0.30300872D-02 0.12155149D+00 0.13387539D+05 0.13387539D+05 0.13387539D+05 0.12534927D+01  1  2 15  2  5  2        2 0.259696355500D-01 0.100000000000D+01
  </mgrwgt>
  </event>
  <event>
  4     66 0.46888340E-03 0.11175840E+03 0.75467711E-02 0.12085877E+00
       -2 -1    0    0    0  501 0.00000000E+00 0.00000000E+00 0.22770274E+02 0.22772522E+02 0.32000000E+00 0.0000E+00 0.9000E+01
        2 -1    0    0  501    0 0.00000000E+00 0.00000000E+00 -.60092338E+03 0.60092347E+03 0.32000000E+00 0.0000E+00 0.9000E+01
       25  1    1    2    0    0 0.21822025E+02 0.17634919E+02 -.23646988E+03 0.26894274E+03 0.12500000E+03 0.0000E+00 0.9000E+01
       23  1    1    2    0    0 -.21822025E+02 -.17634919E+02 -.34168323E+03 0.35475325E+03 0.91188000E+02 0.0000E+00 0.9000E+01
#aMCatNLO 1  0  0  2  2 0.56486222D+02 0.00000000D+00  -5  5  0 0.00000000D+00 0.00000000D+00 0.00000000D+00 0.00000000D+00 0.00000000D+00
  <mgrwgt>
 0.1207796988D+00    4    2    0
 0.116978278532865D+03 0.000000000000000D+00 0.000000000000000D+00 0.116978278532865D+03
 0.116978278532865D+03 0.000000000000000D+00 0.000000000000000D+00 -.116978278532865D+03
 0.132600299876653D+03 0.218220247099051D+02 0.176349188065398D+02 0.342147395668200D+02
 0.101356257189077D+03 -.218220247099051D+02 -.176349188065398D+02 -.342147395668200D+02
 0.000000000000000D+00 0.000000000000000D+00 0.000000000000000D+00 0.000000000000000D+00
 0.161721096452677D+03 0.000000000000000D+00 0.000000000000000D+00 0.161721096452677D+03
 0.139615514135864D+03 0.000000000000000D+00 0.000000000000000D+00 -.139615514135864D+03
 0.129655000887546D+03 -.384115301336056D+01 -.128043165737886D+00 0.342147395668200D+02
 0.111023963447679D+03 -.426046412336718D+02 -.320197635431067D+02 -.342147395668200D+02
 0.606576462533150D+02 0.464457942470323D+02 0.321478067088446D+02 0.221055823168131D+02
0.122804821160D-03 0.000000000000D+00 0.000000000000D+00 0.161741636612D-02 0.000000000000D+00  5 -2 2 25 23 21 0 0.35032985D-02 0.92449931D-01 0.12489939D+05 0.12489939D+05 0.12489939D+05 0.12569924D+01  1  2  2  2  5  2        2 0.193614458591D+00 0.100000000000D+01
-.680520445204D-05 0.000000000000D+00 -.471602848505D-06 0.161741636612D-02 0.000000000000D+00  5 -2 2 25 23 21 2 0.35032985D-02 0.92449931D-01 0.12489939D+05 0.12489939D+05 0.12489939D+05 0.12569924D+01  1  2  3  2  5  2        2 -.169523082381D-01 0.100000000000D+01
0.839590410983D-05 0.000000000000D+00 0.000000000000D+00 0.161741636612D-02 0.000000000000D+00  5 -2 2 25 23 21 2 0.35032985D-02 0.92449931D-01 0.12489939D+05 0.12489939D+05 0.12489939D+05 0.12569924D+01  1  2 15  2  5  2        2 0.209148682321D-01 0.100000000000D+01
-.308289263663D-04 0.000000000000D+00 0.000000000000D+00 0.161741636612D-02 0.000000000000D+00  5 -2 2 25 23 21 2 0.35032985D-02 0.92449931D-01 0.12489939D+05 0.12489939D+05 0.12489939D+05 0.12569924D+01  1  2  4  2  5  2        2 -.767973197708D-01 0.100000000000D+01
  </mgrwgt>
  </event>
  <event>
  5     66 0.46888340E-03 0.10939389E+03 0.75467711E-02 0.12056322E+00
       -2 -1    0    0    0  502 0.00000000E+00 0.00000000E+00 0.53810249E+02 0.53811201E+02 0.32000000E+00 0.0000E+00 0.9000E+01
        2 -1    0    0  501    0 0.00000000E+00 0.00000000E+00 -.58836359E+03 0.58836367E+03 0.32000000E+00 0.0000E+00 0.9000E+01
       25  1    1    2    0    0 -.29311328E+02 0.44532643E+02 -.21690817E+03 0.25596184E+03 0.12500000E+03 0.0000E+00 0.9000E+01
       23  1    1    2    0    0 -.23738389E+01 0.11045094E+02 -.30811919E+03 0.32152810E+03 0.91188000E+02 0.0000E+00 0.9000E+01
       21  1    1    2  501  502 0.31685166E+02 -.55577736E+02 -.95259796E+01 0.64684939E+02 0.75000000E+00 0.0000E+00 0.9000E+01
#aMCatNLO 2  0  0  1  2 0.63975265D+02 0.00000000D+00  -5  5  0 0.00000000D+00 0.00000000D+00 0.00000000D+00 0.00000000D+00 0.00000000D+00
  <mgrwgt>
 0.4793770073D-01    2    2    0
 0.115918143506375D+03 0.000000000000000D+00 0.000000000000000D+00 0.115918143506375D+03
 0.115918143506375D+03 0.000000000000000D+00 0.000000000000000D+00 -.115918143506375D+03
 0.131683036807134D+03 -.110131828339243D+02 0.124365682681020D+02 0.379402656333386D+02
 0.100153250205617D+03 0.110131828339243D+02 -.124365682681020D+02 -.379402656333386D+02
 0.000000000000000D+00 0.000000000000000D+00 -.000000000000000D+00 0.000000000000000D+00
 0.246679884443997D+03 0.000000000000000D+00 0.000000000000000D+00 0.246679884443997D+03
 0.128343808950190D+03 0.000000000000000D+00 0.000000000000000D+00 -.128343808950190D+03
 0.141091367396924D+03 -.293113275554386D+02 0.445326427976514D+02 0.379402656333386D+02
 0.994099809138811D+02 -.237383892412105D+01 0.110450936497717D+02 -.379402656333386D+02
 0.134522345083382D+03 0.316851664795597D+02 -.555777364474230D+02 0.118336075493807D+03
-.485594391398D-04 0.000000000000D+00 0.000000000000D+00 0.160936556352D-02 0.000000000000D+00  5 -2 2 25 23 21 2 0.82594714D-02 0.81753425D-01 0.21280230D+05 0.21280230D+05 0.21280230D+05 0.12308705D+01  1  2 13  1  5  1       -2 -.372084660965D-01 0.100000000000D+01
0.125035615095D-03 0.000000000000D+00 0.000000000000D+00 0.160936556352D-02 0.424076501243D-05  5 -2 2 25 23 21 2 0.82785159D-02 0.90516856D-01 0.21280230D+05 0.21280230D+05 0.21280230D+05 0.12308705D+01  1  2  1  1  5  1       -2 0.851461668303D-01 0.100000000000D+01
  </mgrwgt>
  </event>
  <event>
  4     66 0.46888340E-03 0.13515570E+03 0.75467711E-02 0.12190750E+00
       -2 -1    0    0    0  501 0.00000000E+00 0.00000000E+00 0.74312396E+01 0.74381262E+01 0.32000000E+00 0.0000E+00 0.9000E+01
        2 -1    0    0  501    0 0.00000000E+00 0.00000000E+00 -.27163980E+04 0.27163980E+04 0.32000000E+00 0.0000E+00 0.9000E+01
       25  1    1    2    0    0 0.78237116E+02 0.18939570E+02 -.10580956E+04 0.10684901E+04 0.12500000E+03 0.0000E+00 0.9000E+01
       23  1    1    2    0    0 -.78237116E+02 -.18939570E+02 -.16508711E+04 0.16553460E+04 0.91188000E+02 0.0000E+00 0.9000E+01
#aMCatNLO 1  0  0  1  2 0.13158741D+01 0.00000000D+00  -5  5  0 0.00000000D+00 0.00000000D+00 0.00000000D+00 0.00000000D+00 0.00000000D+00
  <mgrwgt>
 0.2307455435D+00    8    2    0
 0.142111254646913D+03 0.000000000000000D+00 0.000000000000000D+00 0.142111254646913D+03
 0.142111254646913D+03 0.000000000000000D+00 0.000000000000000D+00 -.142111254646913D+03
 0.154970455478968D+03 0.782371155171473D+02 0.189395696005576D+02 0.437159985618658D+02
 0.129252053814858D+03 -.782371155171473D+02 -.189395696005576D+02 -.437159985618658D+02
 0.000000000000000D+00 -.000000000000000D+00 -.000000000000000D+00 -.000000000000000D+00
 0.142219056923997D+03 0.000000000000000D+00 0.000000000000000D+00 0.142219056923997D+03
 0.146185832106317D+03 0.000000000000000D+00 0.000000000000000D+00 -.146185832106317D+03
 0.155087782639801D+03 0.782930899257462D+02 0.196551230916542D+02 0.437159985618658D+02
 0.129137772710073D+03 -.781904687393824D+02 -.183432566512369D+02 -.437159985618658D+02
 0.417933368043987D+01 -.102621186363768D+00 -.131186644041728D+01 -.396677518232068D+01
0.357349022056D-03 0.000000000000D+00 0.000000000000D+00 0.129964182871D-02 0.000000000000D+00  5 -2 2 25 23 21 0 0.11437988D-02 0.41790791D+00 0.18267062D+05 0.18267062D+05 0.18267062D+05 0.12381831D+01  1  2  2  1  5  1       -2 0.190949944398D+00 0.100000000000D+01
-.197919363287D-04 0.000000000000D+00 -.137231433685D-05 0.129964182871D-02 0.000000000000D+00  5 -2 2 25 23 21 2 0.11437988D-02 0.41790791D+00 0.18267062D+05 0.18267062D+05 0.18267062D+05 0.12381831D+01  1  2  3  1  5  1       -2 -.162138046829D-01 0.100000000000D+01
0.246664423155D-04 0.000000000000D+00 0.000000000000D+00 0.129964182871D-02 0.000000000000D+00  5 -2 2 25 23 21 2 0.11437988D-02 0.41790791D+00 0.18267062D+05 0.18267062D+05 0.18267062D+05 0.12381831D+01  1  2 15  1  5  1       -2 0.202070616682D-01 0.100000000000D+01
-.746415312864D-04 0.000000000000D+00 0.000000000000D+00 0.129964182871D-02 0.000000000000D+00  5 -2 2 25 23 21 2 0.11437988D-02 0.41790791D+00 0.18267062D+05 0.18267062D+05 0.18267062D+05 0.12381831D+01  1  2  4  1  5  1       -2 -.611472869262D-01 0.100000000000D+01
0.136412070649D-07 0.000000000000D+00 0.000000000000D+00 0.129964182871D-02 0.000000000000D+00  5 -2 2 25 23 21 2 0.12017079D-02 0.41790791D+00 0.18267062D+05 0.18267062D+05 0.18267062D+05 0.12381831D+01  1  2  5  1  5  1       -2 0.104107019902D-04 0.100000000000D+01
-.136245867936D-07 0.000000000000D+00 0.000000000000D+00 0.129964182871D-02 0.000000000000D+00  5 -2 2 25 23 21 2 0.11437988D-02 0.41790791D+00 0.18267062D+05 0.18267062D+05 0.18267062D+05 0.12381831D+01  1  2  6  1  5  1       -2 -.111614339036D-04 0.100000000000D+01
0.746697636273D-04 0.000000000000D+00 0.000000000000D+00 0.129964182871D-02 0.613483591004D-02  5 -2 2 25 23 21 2 0.11446665D-02 0.42989006D+00 0.18445458D+05 0.18445458D+05 0.18445458D+05 0.12377136D+01  1  2 11  1  5  1       -2 0.552845300659D-01 0.100000000000D+01
0.245908050251D-05 0.000000000000D+00 0.000000000000D+00 0.129964182871D-02 0.883570242616D-06  5 21 2 25 23 2 2 0.11446665D-02 0.42989006D+00 0.18445458D+05 0.18445458D+05 0.18445458D+05 0.12377136D+01  1  2 11  3  5  1       -2 0.416658497308D-01 0.100000000000D+01
  </mgrwgt>
  </event>
  <event>
  4     66 0.46888340E-03 0.11632719E+03 0.75467711E-02 0.12399813E+00
       -2 -1    0    0    0  501 0.00000000E+00 0.00000000E+00 0.34223906E+01 0.34373184E+01 0.32000000E+00 0.0000E+00 0.9000E+01
        2 -1    0    0  501    0 0.00000000E+00 0.00000000E+00 -.40049244E+04 0.40049245E+04 0.32000000E+00 0.0000E+00 0.9000E+01
       25  1    1    2    0    0 -.36684330E+02 0.21515948E+02 -.25091641E+04 0.25126357E+04 0.12500000E+03 0.0000E+00 0.9000E+01
       23  1    1    2    0    0 0.36684330E+02 -.21515948E+02 -.14923380E+04 0.14957261E+04 0.91188000E+02 0.0000E+00 0.9000E+01
#aMCatNLO 1  0  0  1  2 0.10900773D+02 0.00000000D+00  -5  5  0 0.00000000D+00 0.00000000D+00 0.00000000D+00 0.00000000D+00 0.00000000D+00
  <mgrwgt>
 0.1300731080D+00    4    2    0
 0.117202215736421D+03 0.000000000000000D+00 0.000000000000000D+00 0.117202215736421D+03
 0.117202215736421D+03 0.000000000000000D+00 0.000000000000000D+00 -.117202215736421D+03
 0.132794388226656D+03 -.366843297148490D+02 0.215159476878712D+02 -.141659271831006D+02
 0.101610043246186D+03 0.366843297148490D+02 -.215159476878712D+02 0.141659271831006D+02
 0.000000000000000D+00 -.000000000000000D+00 0.000000000000000D+00 -.000000000000000D+00
 0.118332417702545D+03 0.000000000000000D+00 0.000000000000000D+00 0.118332417702545D+03
 0.146930872054422D+03 0.000000000000000D+00 0.000000000000000D+00 -.146930872054422D+03
 0.131189313184246D+03 -.305554920668244D+02 0.212443946807533D+02 -.141659271831006D+02
 0.103468446865284D+03 0.414455811264989D+02 -.217269064720209D+02 0.141659271831006D+02
 0.306055297074361D+02 -.108900890596745D+02 0.482511791267540D+00 -.285984543518772D+02
0.538212630622D-03 0.000000000000D+00 0.000000000000D+00 0.170340476005D-02 0.000000000000D+00  5 -2 2 25 23 21 0 0.52767091D-03 0.61614337D+00 0.13532015D+05 0.13532015D+05 0.13532015D+05 0.12529541D+01  1  2  2  1  5  1       -2 0.132947596611D+00 0.100000000000D+01
-.298986600216D-04 0.000000000000D+00 -.206687821623D-05 0.170340476005D-02 0.000000000000D+00  5 -2 2 25 23 21 2 0.52767091D-03 0.61614337D+00 0.13532015D+05 0.13532015D+05 0.13532015D+05 0.12529541D+01  1  2  3  1  5  1       -2 -.115944106307D-01 0.100000000000D+01
0.372685113000D-04 0.000000000000D+00 0.000000000000D+00 0.170340476005D-02 0.000000000000D+00  5 -2 2 25 23 21 2 0.52767091D-03 0.61614337D+00 0.13532015D+05 0.13532015D+05 0.13532015D+05 0.12529541D+01  1  2 15  1  5  1       -2 0.144523675408D-01 0.100000000000D+01
-.147823329627D-04 0.000000000000D+00 0.000000000000D+00 0.170340476005D-02 0.000000000000D+00  5 -2 2 25 23 21 2 0.52767091D-03 0.61614337D+00 0.13532015D+05 0.13532015D+05 0.13532015D+05 0.12529541D+01  1  2  4  1  5  1       -2 -.573244547835D-02 0.100000000000D+01
  </mgrwgt>
  </event>
  <event>
  5     66 0.46888340E-03 0.11977835E+03 0.75467711E-02 0.11787852E+00
       -4 -1    0    0    0  501 0.00000000E+00 0.00000000E+00 0.13687712E+03 0.13688589E+03 0.15500000E+01 0.0000E+00 0.9000E+01
       21 -1    0    0  501  502 0.00000000E+00 0.00000000E+00 -.58956119E+03 0.58956167E+03 0.75000000E+00 0.0000E+00 0.9000E+01
       25  1    1    2    0    0 0.89901381E+02 -.47372330E+02 0.15143676E+02 0.16180459E+03 0.12500000E+03 0.0000E+00 0.9000E+01
       23  1    1    2    0    0 -.14849367E+02 0.90136080E+01 -.36788567E+01 0.92900668E+02 0.91188000E+02 0.0000E+00 0.9000E+01
       -4  1    1    2    0  502 -.75052014E+02 0.38358722E+02 -.46414890E+03 0.47174230E+03 0.15500000E+01 0.0000E+00 0.9000E+01
#aMCatNLO 2  0  0  2  1 0.84286395D+02 0.00000000D+00  -5  5  0 0.00000000D+00 0.00000000D+00 0.00000000D+00 0.00000000D+00 0.00000000D+00
  <mgrwgt>
 0.2895917427D-01    2    2    0
 0.120040756139531D+03 0.000000000000000D+00 0.000000000000000D+00 0.120040756139531D+03
 0.120040756139531D+03 0.000000000000000D+00 0.000000000000000D+00 -.120040756139531D+03
 0.135264228756414D+03 0.448954446974234D+02 -.243700134148410D+02 0.786848604551256D+01
 0.104817283522649D+03 -.448954446974234D+02 0.243700134148410D+02 -.786848604551256D+01
 0.000000000000000D+00 -.000000000000000D+00 0.000000000000000D+00 -.000000000000000D+00
 0.130851849141122D+03 0.000000000000000D+00 0.000000000000000D+00 0.130851849141122D+03
 0.616722919082708D+03 0.000000000000000D+00 0.000000000000000D+00 -.616722919082708D+03
 0.161286419185480D+03 0.899013807513469D+02 -.473723303208438D+02 0.786848604551256D+01
 0.931606850960196D+02 -.148493670456782D+02 0.901360800423600D+01 -.786848604551256D+01
 0.493127663942331D+03 -.750520137056688D+02 0.383587223166078D+02 -.485871069941587D+03
-.453420309015D-04 0.000000000000D+00 0.000000000000D+00 0.166643370700D-02 0.000000000000D+00  5 -4 21 25 23 -4 2 0.19318664D-01 0.86930248D-01 0.28596258D+05 0.28596258D+05 0.28596258D+05 0.12170888D+01  1  2 13  4  5  2        4 -.771953651953D-02 0.100000000000D+01
0.277637494771D-03 0.000000000000D+00 0.000000000000D+00 0.166643370700D-02 0.105845678348D-05  5 -4 21 25 23 -4 2 0.21058539D-01 0.90701612D-01 0.28596258D+05 0.28596258D+05 0.28596258D+05 0.12170888D+01  1  2  1  4  5  2        4 0.366787107924D-01 0.100000000000D+01
  </mgrwgt>
  </event>
  <event>
  4     66 0.46888340E-03 0.29038572E+03 0.75467711E-02 0.10298215E+00
       -2 -1    0    0    0  501 0.00000000E+00 0.00000000E+00 0.22794030E+03 0.22794053E+03 0.32000000E+00 0.0000E+00 0.9000E+01
        2 -1    0    0  501    0 0.00000000E+00 0.00000000E+00 -.37718339E+03 0.37718353E+03 0.32000000E+00 0.0000E+00 0.9000E+01
       25  1    1    2    0    0 0.22531870E+03 -.14705383E+03 -.11813253E+03 0.31933311E+03 0.12500000E+03 0.0000E+00 0.9000E+01
       23  1    1    2    0    0 -.22531870E+03 0.14705383E+03 -.31110565E+02 0.28579094E+03 0.91188000E+02 0.0000E+00 0.9000E+01
#aMCatNLO 1  0  0  1  1 0.25335176D+03 0.00000000D+00  -5  5  0 0.00000000D+00 0.00000000D+00 0.00000000D+00 0.00000000D+00 0.00000000D+00
  <mgrwgt>
 0.2525831575D+00    3    2    0
 0.293215629680743D+03 0.000000000000000D+00 0.000000000000000D+00 0.293215629680743D+03
 0.293215629680743D+03 0.000000000000000D+00 0.000000000000000D+00 -.293215629680743D+03
 0.299448029931676D+03 0.225318697880065D+03 -.147053826970510D+03 -.406297795824880D+02
 0.286983229429809D+03 -.225318697880065D+03 0.147053826970510D+03 0.406297795824880D+02
 0.000000000000000D+00 -.000000000000000D+00 0.000000000000000D+00 -.000000000000000D+00
 0.355296502977288D+03 0.000000000000000D+00 0.000000000000000D+00 0.355296502977288D+03
 0.766551709790683D+03 0.000000000000000D+00 0.000000000000000D+00 -.766551709790683D+03
 0.442103420737496D+03 0.359713429922171D+03 -.220875313180313D+03 -.406297795824880D+02
 0.196714813762962D+03 -.137655908136316D+03 0.989016611389388D+02 0.406297795824880D+02
 0.483029978267512D+03 -.222057521785855D+03 0.121973652041375D+03 -.411255206813394D+03
0.379382602880D-02 0.000000000000D+00 0.000000000000D+00 0.993849452965D-03 0.000000000000D+00  5 -2 2 25 23 21 0 0.35067766D-01 0.58028242D-01 0.84323866D+05 0.84323866D+05 0.84323866D+05 0.11704359D+01  1  2  2  1  5  1       -2 0.248140331934D+00 0.100000000000D+01
-.210744009988D-03 0.000000000000D+00 -.145692908879D-04 0.993849452965D-03 0.000000000000D+00  5 -2 2 25 23 21 2 0.35067766D-01 0.58028242D-01 0.84323866D+05 0.84323866D+05 0.84323866D+05 0.11704359D+01  1  2  3  1  5  1       -2 -.188829775526D-01 0.100000000000D+01
0.260328291904D-03 0.000000000000D+00 0.000000000000D+00 0.993849452965D-03 0.000000000000D+00  5 -2 2 25 23 21 2 0.35067766D-01 0.58028242D-01 0.84323866D+05 0.84323866D+05 0.84323866D+05 0.11704359D+01  1  2 15  1  5  1       -2 0.233258031515D-01 0.100000000000D+01
  </mgrwgt>
  </event>
  <event>
  4     66 0.46888340E-03 0.87342483E+02 0.75467711E-02 0.12070483E+00
       -2 -1    0    0    0  501 0.00000000E+00 0.00000000E+00 0.34475628E+02 0.34477113E+02 0.32000000E+00 0.0000E+00 0.9000E+01
        2 -1    0    0  501    0 0.00000000E+00 0.00000000E+00 -.63081421E+03 0.63081429E+03 0.32000000E+00 0.0000E+00 0.9000E+01
       25  1    1    2    0    0 0.80730628E+02 -.13873371E+02 -.19519213E+03 0.24583505E+03 0.12500000E+03 0.0000E+00 0.9000E+01
       23  1    1    2    0    0 -.80730628E+02 0.13873371E+02 -.40114645E+03 0.41945636E+03 0.91188000E+02 0.0000E+00 0.9000E+01
#aMCatNLO 1  0  0  1  2 0.16882364D+02 0.00000000D+00  -5  5  0 0.00000000D+00 0.00000000D+00 0.00000000D+00 0.00000000D+00 0.00000000D+00
  <mgrwgt>
 0.1656855330D+00    9    2    0
 0.147472834782417D+03 0.000000000000000D+00 0.000000000000000D+00 0.147472834782417D+03
 0.147472834782417D+03 0.000000000000000D+00 0.000000000000000D+00 -.147472834782417D+03
 0.159864521473028D+03 0.807306280541972D+02 -.138733710828616D+02 0.567605540368702D+02
 0.135081148091806D+03 -.807306280541972D+02 0.138733710828616D+02 -.567605540368702D+02
 0.000000000000000D+00 0.000000000000000D+00 0.000000000000000D+00 0.000000000000000D+00
 0.194122905431442D+03 0.000000000000000D+00 0.000000000000000D+00 0.194122905431442D+03
 0.149249568793321D+03 0.000000000000000D+00 0.000000000000000D+00 -.149249568793321D+03
 0.155887573639146D+03 0.720322233640250D+02 -.162952114979489D+02 0.567605540368702D+02
 0.139540864774999D+03 -.882959726448531D+02 0.117670012442160D+02 -.567605540368702D+02
 0.479440358106184D+02 0.162637492808281D+02 0.452821025373289D+01 0.448733366381219D+02
0.183082830581D-03 0.000000000000D+00 0.000000000000D+00 0.119915293198D-02 0.000000000000D+00  5 -2 2 25 23 21 0 0.53040632D-02 0.97048461D-01 0.18499511D+05 0.18499511D+05 0.18499511D+05 0.12375723D+01  1  2  2  1  5  1       -2 0.149432294386D+00 0.100000000000D+01
-.100903417343D-04 0.000000000000D+00 -.703086276247D-06 0.119915293198D-02 0.000000000000D+00  5 -2 2 25 23 21 2 0.53040632D-02 0.97048461D-01 0.18499511D+05 0.18499511D+05 0.18499511D+05 0.12375723D+01  1  2  3  1  5  1       -2 -.126137407256D-01 0.100000000000D+01
0.126232021971D-04 0.000000000000D+00 0.000000000000D+00 0.119915293198D-02 0.000000000000D+00  5 -2 2 25 23 21 2 0.53040632D-02 0.97048461D-01 0.18499511D+05 0.18499511D+05 0.18499511D+05 0.12375723D+01  1  2 15  1  5  1       -2 0.157800205220D-01 0.100000000000D+01
0.109935268444D-02 0.000000000000D+00 0.000000000000D+00 0.119915293198D-02 0.000000000000D+00  5 -2 2 25 23 21 2 0.70066447D-02 0.97048461D-01 0.20958950D+05 0.20958950D+05 0.20958950D+05 0.12315931D+01  1  2 12  1  5  1       -2 0.894652752582D+00 0.100000000000D+01
-.107782687637D-02 0.000000000000D+00 0.000000000000D+00 0.119915293198D-02 0.000000000000D+00  5 -2 2 25 23 21 2 0.53040632D-02 0.97048461D-01 0.18499511D+05 0.18499511D+05 0.18499511D+05 0.12375723D+01  1  2  4  1  5  1       -2 -.134737049781D+01 0.100000000000D+01
-.122924794187D-02 0.000000000000D+00 -.895475463657D-04 0.119915293198D-02 0.000000000000D+00  5 -2 2 25 23 21 2 0.70550861D-02 0.97048461D-01 0.18499511D+05 0.18499511D+05 0.18499511D+05 0.12375723D+01  1  2  5  1  5  1       -2 -.996499701233D+00 0.100000000000D+01
0.120879614336D-02 0.000000000000D+00 0.860233586781D-04 0.119915293198D-02 0.000000000000D+00  5 -2 2 25 23 21 2 0.53040632D-02 0.97048461D-01 0.18499511D+05 0.18499511D+05 0.18499511D+05 0.12375723D+01  1  2  6  1  5  1       -2 0.151109264125D+01 0.100000000000D+01
0.402540569820D-04 0.000000000000D+00 0.000000000000D+00 0.119915293198D-02 0.000000000000D+00  5 21 2 25 23 2 2 0.70066447D-02 0.97048461D-01 0.20958950D+05 0.20958950D+05 0.20958950D+05 0.12315931D+01  1  2 12  3  5  1       -2 0.550288933770D+00 0.100000000000D+01
-.439610452240D-04 0.000000000000D+00 -.333763751719D-05 0.119915293198D-02 0.000000000000D+00  5 21 2 25 23 2 2 0.70550861D-02 0.97048461D-01 0.18499511D+05 0.18499511D+05 0.18499511D+05 0.12375723D+01  1  2  5  3  5  1       -2 -.599077169728D+00 0.100000000000D+01
  </mgrwgt>
  </event>
  <event>
  4     66 0.46888340E-03 0.14821446E+03 0.75467711E-02 0.11169121E+00
       -2 -1    0    0    0  501 0.00000000E+00 0.00000000E+00 0.20057221E+03 0.20057247E+03 0.32000000E+00 0.0000E+00 0.9000E+01
        2 -1    0    0  501    0 0.00000000E+00 0.00000000E+00 -.11032703E+03 0.11032750E+03 0.32000000E+00 0.0000E+00 0.9000E+01
       25  1    1    2    0    0 -.96425795E+02 0.29180245E+02 0.62067832E+02 0.17212448E+03 0.12500000E+03 0.0000E+00 0.9000E+01
       23  1    1    2    0    0 0.96425795E+02 -.29180245E+02 0.28177346E+02 0.13877548E+03 0.91188000E+02 0.0000E+00 0.9000E+01
#aMCatNLO 1  0  0  2  1 0.15455248D+03 0.00000000D+00  -5  5  0 0.00000000D+00 0.00000000D+00 0.00000000D+00 0.00000000D+00 0.00000000D+00
  <mgrwgt>
 0.1428698214D+00    3    2    0
 0.148757012571511D+03 0.000000000000000D+00 0.000000000000000D+00 0.148757012571511D+03
 0.148757012571511D+03 0.000000000000000D+00 0.000000000000000D+00 -.148757012571511D+03
 0.161041725287972D+03 -.964257954788279D+02 0.291802451780637D+02 0.126497644780473D+02
 0.136472299855050D+03 0.964257954788279D+02 -.291802451780637D+02 -.126497644780473D+02
 0.000000000000000D+00 0.000000000000000D+00 -.000000000000000D+00 0.000000000000000D+00
 0.248528491352690D+03 0.000000000000000D+00 0.000000000000000D+00 0.248528491352690D+03
 0.241448740474184D+03 0.000000000000000D+00 0.000000000000000D+00 -.241448740474184D+03
 0.221065506589801D+03 -.146322091758003D+03 0.108049928857069D+03 0.126497644780473D+02
 0.114197173645424D+03 0.636928941504245D+02 0.225597388725108D+02 -.126497644780473D+02
 0.154714551591649D+03 0.826291976075785D+02 -.130609667729580D+03 0.707975087850597D+01
0.443453101554D-03 0.000000000000D+00 0.000000000000D+00 0.134731171519D-02 0.000000000000D+00  5 -2 2 25 23 21 0 0.30857319D-01 0.16973445D-01 0.21967525D+05 0.21967525D+05 0.21967525D+05 0.12293648D+01  1  2  2  2  5  2        2 0.140012903925D+00 0.100000000000D+01
-.246358834968D-04 0.000000000000D+00 -.170297667385D-05 0.134731171519D-02 0.000000000000D+00  5 -2 2 25 23 21 2 0.30857319D-01 0.16973445D-01 0.21967525D+05 0.21967525D+05 0.21967525D+05 0.12293648D+01  1  2  3  2  5  2        2 -.117557416849D-01 0.100000000000D+01
0.306229737491D-04 0.000000000000D+00 0.000000000000D+00 0.134731171519D-02 0.000000000000D+00  5 -2 2 25 23 21 2 0.30857319D-01 0.16973445D-01 0.21967525D+05 0.21967525D+05 0.21967525D+05 0.12293648D+01  1  2 15  2  5  2        2 0.146126591752D-01 0.100000000000D+01
  </mgrwgt>
  </event>
  <event>
  4     66 0.46888340E-03 0.13469484E+03 0.75467711E-02 0.97168890E-01
       -2 -1    0    0    0  501 0.00000000E+00 0.00000000E+00 0.20981175E+04 0.20981175E+04 0.32000000E+00 0.0000E+00 0.9000E+01
        2 -1    0    0  501    0 0.00000000E+00 0.00000000E+00 -.11302129E+02 0.11306658E+02 0.32000000E+00 0.0000E+00 0.9000E+01
       25  1    1    2    0    0 -.42660124E+02 0.67355452E+02 0.16331752E+04 0.16398911E+04 0.12500000E+03 0.0000E+00 0.9000E+01
       23  1    1    2    0    0 0.42660124E+02 -.67355452E+02 0.45364018E+03 0.46953308E+03 0.91188000E+02 0.0000E+00 0.9000E+01
#aMCatNLO 1  0  0  2  2 0.67478425D+03 0.00000000D+00  -5  5  0 0.00000000D+00 0.00000000D+00 0.00000000D+00 0.00000000D+00 0.00000000D+00
  <mgrwgt>
 0.6712809950D-01    5    2    0
 0.154006482753773D+03 0.000000000000000D+00 0.000000000000000D+00 0.154006482753773D+03
 0.154006482753773D+03 0.000000000000000D+00 0.000000000000000D+00 -.154006482753773D+03
 0.165872458336903D+03 -.426601243860472D+02 0.673554517912999D+02 0.743776131378546D+02
 0.142140507170643D+03 0.426601243860472D+02 -.673554517912999D+02 -.743776131378546D+02
 0.000000000000000D+00 0.000000000000000D+00 0.000000000000000D+00 -.000000000000000D+00
 0.442041121317368D+03 0.000000000000000D+00 0.000000000000000D+00 0.442041121317368D+03
 0.197052106332906D+04 0.000000000000000D+00 0.000000000000000D+00 -.197052106332906D+04
 0.277840072045190D+03 -.109354074437121D+03 -.209951810427995D+03 0.743776131378546D+02
 0.463918497195411D+03 -.484359484032113D+02 -.446124478438749D+03 -.743776131378546D+02
 0.167080361540582D+04 0.157790022840333D+03 0.656076288866744D+03 -.152847994201169D+04
0.322142042871D-02 0.000000000000D+00 0.000000000000D+00 0.106416085540D-02 0.000000000000D+00  5 -2 2 25 23 21 0 0.32278765D+00 0.17391393D-02 0.18142699D+05 0.18142699D+05 0.18142699D+05 0.12385134D+01  1  2  2  2  5  2        2 0.577203767988D-01 0.100000000000D+01
-.175061592382D-03 0.000000000000D+00 -.123711026657D-04 0.106416085540D-02 0.000000000000D+00  5 -2 2 25 23 21 2 0.32278765D+00 0.17391393D-02 0.18142699D+05 0.18142699D+05 0.18142699D+05 0.12385134D+01  1  2  3  2  5  2        2 -.481142853270D-02 0.100000000000D+01
0.221621097613D-03 0.000000000000D+00 0.000000000000D+00 0.106416085540D-02 0.000000000000D+00  5 -2 2 25 23 21 2 0.32278765D+00 0.17391393D-02 0.18142699D+05 0.18142699D+05 0.18142699D+05 0.12385134D+01  1  2 15  2  5  2        2 0.609107947663D-02 0.100000000000D+01
0.169269035598D+00 0.000000000000D+00 -.421827786750D-01 0.106416085540D-02 0.000000000000D+00  5 -2 2 25 23 21 2 0.32278765D+00 0.28452792D+00 0.18142699D+05 0.18142699D+05 0.18142699D+05 0.12385134D+01  1  2  5  2  5  2        2 0.734544447423D-02 0.100000000000D+01
0.471696606439D-01 0.000000000000D+00 -.155302522943D-01 0.106416085540D-02 0.000000000000D+00  5 -2 21 25 23 -2 2 0.32278765D+00 0.28452792D+00 0.18142699D+05 0.18142699D+05 0.18142699D+05 0.12385134D+01  1  2  5  4  5  2        2 0.782627285731D-03 0.100000000000D+01
  </mgrwgt>
  </event>
  <event>
  4     66 0.46888340E-03 0.68658157E+02 0.75467711E-02 0.12101866E+00
       -2 -1    0    0    0  501 0.00000000E+00 0.00000000E+00 0.14686923E+03 0.14686958E+03 0.32000000E+00 0.0000E+00 0.9000E+01
        2 -1    0    0  501    0 0.00000000E+00 0.00000000E+00 -.95042523E+02 0.95043062E+02 0.32000000E+00 0.0000E+00 0.9000E+01
       25  1    1    2    0    0 -.12102174E+01 -.32526237E+02 -.56919077E+01 0.12929354E+03 0.12500000E+03 0.0000E+00 0.9000E+01
       23  1    1    2    0    0 0.12102174E+01 0.32526237E+02 0.57518618E+02 0.11261911E+03 0.91188000E+02 0.0000E+00 0.9000E+01
#aMCatNLO 1  0  0  2  1 0.52848930D+02 0.00000000D+00  -5  5  0 0.00000000D+00 0.00000000D+00 0.00000000D+00 0.00000000D+00 0.00000000D+00
  <mgrwgt>
 0.1615855876D+00    9    2    0
 0.118147915360930D+03 0.000000000000000D+00 0.000000000000000D+00 0.118147915360930D+03
 0.118147915360930D+03 0.000000000000000D+00 0.000000000000000D+00 -.118147915360930D+03
 0.133615282334079D+03 -.121021740826989D+01 -.325262370566554D+02 -.341851276138402D+02
 0.102680548387782D+03 0.121021740826989D+01 0.325262370566554D+02 0.341851276138402D+02
 0.000000000000000D+00 0.000000000000000D+00 0.000000000000000D+00 -.000000000000000D+00
 0.140757597509622D+03 0.000000000000000D+00 0.000000000000000D+00 0.140757597509622D+03
 0.156527787230760D+03 0.000000000000000D+00 0.000000000000000D+00 -.156527787230760D+03
 0.143915309965613D+03 -.107321499295213D+02 -.616669640116507D+02 -.341851276138402D+02
 0.982183906847819D+02 -.568252232751479D+01 0.114318377670089D+02 0.341851276138402D+02
 0.551516840899868D+02 0.164146722570361D+02 0.502351262446418D+02 -.157701897211383D+02
0.192984619347D-03 0.000000000000D+00 0.000000000000D+00 0.159902759886D-02 0.000000000000D+00  5 -2 2 25 23 21 0 0.22595335D-01 0.14621995D-01 0.12767992D+05 0.12767992D+05 0.12767992D+05 0.12558788D+01  1  2  2  2  5  2        2 0.123213642486D+00 0.100000000000D+01
-.106954505737D-04 0.000000000000D+00 -.741111752311D-06 0.159902759886D-02 0.000000000000D+00  5 -2 2 25 23 21 2 0.22595335D-01 0.14621995D-01 0.12767992D+05 0.12767992D+05 0.12767992D+05 0.12558788D+01  1  2  3  2  5  2        2 -.107703708158D-01 0.100000000000D+01
0.133095769549D-04 0.000000000000D+00 0.000000000000D+00 0.159902759886D-02 0.000000000000D+00  5 -2 2 25 23 21 2 0.22595335D-01 0.14621995D-01 0.12767992D+05 0.12767992D+05 0.12767992D+05 0.12558788D+01  1  2 15  2  5  2        2 0.134028088128D-01 0.100000000000D+01
0.877357498183D-04 0.000000000000D+00 0.000000000000D+00 0.159902759886D-02 0.000000000000D+00  5 -2 2 25 23 21 2 0.22595335D-01 0.20400741D-01 0.20266724D+05 0.20266724D+05 0.20266724D+05 0.12331931D+01  1  2 12  2  5  2        2 0.590330722972D-01 0.100000000000D+01
-.119675401417D-03 0.000000000000D+00 0.000000000000D+00 0.159902759886D-02 0.000000000000D+00  5 -2 2 25 23 21 2 0.22595335D-01 0.14621995D-01 0.12767992D+05 0.12767992D+05 0.12767992D+05 0.12558788D+01  1  2  4  2  5  2        2 -.120513712061D+00 0.100000000000D+01
-.187085951933D-03 0.000000000000D+00 -.924709040254D-04 0.159902759886D-02 0.000000000000D+00  5 -2 2 25 23 21 2 0.22595335D-01 0.22889978D-01 0.12767992D+05 0.12767992D+05 0.12767992D+05 0.12558788D+01  1  2  5  2  5  2        2 -.113183503832D+00 0.100000000000D+01
0.215127925570D-03 0.000000000000D+00 0.839026407924D-04 0.159902759886D-02 0.000000000000D+00  5 -2 2 25 23 21 2 0.22595335D-01 0.14621995D-01 0.12767992D+05 0.12767992D+05 0.12767992D+05 0.12558788D+01  1  2  6  2  5  2        2 0.216634868749D+00 0.100000000000D+01
0.365680993601D-05 0.000000000000D+00 0.000000000000D+00 0.159902759886D-02 0.000000000000D+00  5 -2 21 25 23 -2 2 0.22595335D-01 0.20400741D-01 0.20266724D+05 0.20266724D+05 0.20266724D+05 0.12331931D+01  1  2 12  4  5  2        2 0.166903178708D-01 0.100000000000D+01
-.603087617280D-05 0.000000000000D+00 -.479046931858D-05 0.159902759886D-02 0.000000000000D+00  5 -2 21 25 23 -2 2 0.22595335D-01 0.22889978D-01 0.12767992D+05 0.12767992D+05 0.12767992D+05 0.12558788D+01  1  2  5  4  5  2        2 -.229215358985D-01 0.100000000000D+01
  </mgrwgt>
  </event>
  <event>
  4     66 0.46888340E-03 0.12612367E+03 0.75467711E-02 0.11761267E+00
       -2 -1    0    0    0  501 0.00000000E+00 0.00000000E+00 0.10808002E+02 0.10812738E+02 0.32000000E+00 0.0000E+00 0.9000E+01
        2 -1    0    0  501    0 0.00000000E+00 0.00000000E+00 -.14769054E+04 0.14769054E+04 0.32000000E+00 0.0000E+00 0.9000E+01
       25  1    1    2    0    0 -.10744300E+01 0.64388185E+02 -.77212125E+03 0.78482050E+03 0.12500000E+03 0.0000E+00 0.9000E+01
       23  1    1    2    0    0 0.10744300E+01 -.64388185E+02 -.69397613E+03 0.70289765E+03 0.91188000E+02 0.0000E+00 0.9000E+01
#aMCatNLO 1  0  0  1  2 0.78999070D+02 0.00000000D+00  -5  5  0 0.00000000D+00 0.00000000D+00 0.00000000D+00 0.00000000D+00 0.00000000D+00
  <mgrwgt>
 0.2157203070D+00    3    2    0
 0.126356421300821D+03 0.000000000000000D+00 0.000000000000000D+00 0.126356421300821D+03
 0.126356421300821D+03 0.000000000000000D+00 0.000000000000000D+00 -.126356421300821D+03
 0.140818980031013D+03 -.107443001483812D+01 0.643881848308459D+02 0.761527355429624D+01
 0.111893862570629D+03 0.107443001483812D+01 -.643881848308459D+02 -.761527355429624D+01
 0.000000000000000D+00 -.000000000000000D+00 -.000000000000000D+00 -.000000000000000D+00
 0.146687049799989D+03 0.000000000000000D+00 0.000000000000000D+00 0.146687049799989D+03
 0.241487251496131D+03 0.000000000000000D+00 0.000000000000000D+00 -.241487251496131D+03
 0.153436186621989D+03 0.416502820033954D+02 0.782618999438985D+02 0.761527355429624D+01
 0.111336610127498D+03 0.334866311945325D+02 -.538631836286817D+02 -.761527355429624D+01
 0.123401504546632D+03 -.751369131979279D+02 -.243987163152168D+02 -.948002016961419D+02
0.153610561630D-03 0.000000000000D+00 0.000000000000D+00 0.157211588851D-02 0.000000000000D+00  5 -2 2 25 23 21 0 0.16631365D-02 0.22721658D+00 0.15907180D+05 0.15907180D+05 0.15907180D+05 0.12449257D+01  1  2  2  1  5  1       -2 0.211260194530D+00 0.100000000000D+01
-.853388481934D-05 0.000000000000D+00 -.589905003250D-06 0.157211588851D-02 0.000000000000D+00  5 -2 2 25 23 21 2 0.16631365D-02 0.22721658D+00 0.15907180D+05 0.15907180D+05 0.15907180D+05 0.12449257D+01  1  2  3  1  5  1       -2 -.181898977894D-01 0.100000000000D+01
0.106263697047D-04 0.000000000000D+00 0.000000000000D+00 0.157211588851D-02 0.000000000000D+00  5 -2 2 25 23 21 2 0.16631365D-02 0.22721658D+00 0.15907180D+05 0.15907180D+05 0.15907180D+05 0.12449257D+01  1  2 15  1  5  1       -2 0.226500102699D-01 0.100000000000D+01
  </mgrwgt>
  </event>
  <event>
  4     66 0.46888340E-03 0.11414630E+03 0.75467711E-02 0.11228017E+00
       -2 -1    0    0    0  501 0.00000000E+00 0.00000000E+00 0.44695282E+02 0.44696428E+02 0.32000000E+00 0.0000E+00 0.9000E+01
        2 -1    0    0  501    0 0.00000000E+00 0.00000000E+00 -.31123725E+03 0.31123741E+03 0.32000000E+00 0.0000E+00 0.9000E+01
       25  1    1    2    0    0 -.62799628E+01 0.35722856E+02 -.10638884E+03 0.16810457E+03 0.12500000E+03 0.0000E+00 0.9000E+01
       23  1    1    2    0    0 0.62799628E+01 -.35722856E+02 -.16015313E+03 0.18782927E+03 0.91188000E+02 0.0000E+00 0.9000E+01
#aMCatNLO 1  0  0  1  2 0.18042493D+03 0.00000000D+00  -5  5  0 0.00000000D+00 0.00000000D+00 0.00000000D+00 0.00000000D+00 0.00000000D+00
  <mgrwgt>
 0.1905382450D+00    3    2    0
 0.117945198009676D+03 0.000000000000000D+00 0.000000000000000D+00 0.117945198009676D+03
 0.117945198009676D+03 0.000000000000000D+00 0.000000000000000D+00 -.117945198009676D+03
 0.133439149394200D+03 -.627996276538443D+01 0.357228562304106D+02 0.294184670140105D+02
 0.102451246625152D+03 0.627996276538443D+01 -.357228562304106D+02 -.294184670140105D+02
 0.000000000000000D+00 -.000000000000000D+00 -.000000000000000D+00 -.000000000000000D+00
 0.172798714242054D+03 0.000000000000000D+00 0.000000000000000D+00 0.172798714242054D+03
 0.483282824304436D+03 0.000000000000000D+00 0.000000000000000D+00 -.483282824304436D+03
 0.186761390468488D+03 0.596707782256954D+02 0.121773433039430D+03 0.294184670140105D+02
 0.110219136081455D+03 0.500830410874007D+02 0.214301051916599D+02 -.294184670140105D+02
 0.359101011996547D+03 -.109753819313096D+03 -.143203538231090D+03 -.310484110062382D+03
0.159320426137D-03 0.000000000000D+00 0.000000000000D+00 0.162972294753D-02 0.000000000000D+00  5 -2 2 25 23 21 0 0.68762981D-02 0.47882754D-01 0.13029379D+05 0.13029379D+05 0.13029379D+05 0.12548566D+01  1  2  2  1  5  1       -2 0.186580566075D+00 0.100000000000D+01
-.883959988126D-05 0.000000000000D+00 -.611832386398D-06 0.162972294753D-02 0.000000000000D+00  5 -2 2 25 23 21 2 0.68762981D-02 0.47882754D-01 0.13029379D+05 0.13029379D+05 0.13029379D+05 0.12548566D+01  1  2  3  1  5  1       -2 -.163010561645D-01 0.100000000000D+01
0.109857367870D-04 0.000000000000D+00 0.000000000000D+00 0.162972294753D-02 0.000000000000D+00  5 -2 2 25 23 21 2 0.68762981D-02 0.47882754D-01 0.13029379D+05 0.13029379D+05 0.13029379D+05 0.12548566D+01  1  2 15  1  5  1       -2 0.202587350988D-01 0.100000000000D+01
  </mgrwgt>
  </event>
  <event>
  4     66 0.46888340E-03 0.63170763E+02 0.75467711E-02 0.12547148E+00
       -2 -1    0    0    0  501 0.00000000E+00 0.00000000E+00 0.51961678E+01 0.52060119E+01 0.32000000E+00 0.0000E+00 0.9000E+01
        2 -1    0    0  501    0 0.00000000E+00 0.00000000E+00 -.24492050E+04 0.24492050E+04 0.32000000E+00 0.0000E+00 0.9000E+01
       25  1    1    2    0    0 -.73357825E+00 -.78266130E+01 -.10588711E+04 0.10662526E+04 0.12500000E+03 0.0000E+00 0.9000E+01
       23  1    1    2    0    0 0.73357825E+00 0.78266130E+01 -.13851378E+04 0.13881584E+04 0.91188000E+02 0.0000E+00 0.9000E+01
#aMCatNLO 1  0  0  2  1 0.94642272D+01 0.00000000D+00  -5  5  0 0.00000000D+00 0.00000000D+00 0.00000000D+00 0.00000000D+00 0.00000000D+00
  <mgrwgt>
 0.5475569029D+00   11    2    0
 0.112865347757338D+03 0.000000000000000D+00 0.000000000000000D+00 0.112865347757338D+03
 0.112865347757338D+03 0.000000000000000D+00 0.000000000000000D+00 -.112865347757338D+03
 0.129056651822861D+03 -.733578250334997D+00 -.782661297476135D+01 0.311259597767048D+02
 0.966740436918158D+02 0.733578250334997D+00 0.782661297476135D+01 -.311259597767048D+02
 0.000000000000000D+00 0.000000000000000D+00 -.000000000000000D+00 -.000000000000000D+00
 0.117375071211244D+03 0.000000000000000D+00 0.000000000000000D+00 0.117375071211244D+03
 0.118041610242572D+03 0.000000000000000D+00 0.000000000000000D+00 -.118041610242572D+03
 0.129072475934520D+03 -.572814975664433D+01 -.575038887481506D+01 0.311259597767048D+02
 0.968565361326549D+02 -.301106819072588D+01 0.938324804883876D+01 -.311259597767048D+02
 0.948766938664127D+01 0.873921794737021D+01 -.363285917402370D+01 -.666539031328385D+00
0.115024818517D-03 0.000000000000D+00 0.000000000000D+00 0.171024516767D-02 0.000000000000D+00  5 -2 2 25 23 21 0 0.80016928D-03 0.37680153D+00 0.11747648D+05 0.11747648D+05 0.11747648D+05 0.12601073D+01  1  2  2  2  5  2        2 0.141839922187D+00 0.100000000000D+01
-.637752900189D-05 0.000000000000D+00 -.441725589835D-06 0.171024516767D-02 0.000000000000D+00  5 -2 2 25 23 21 2 0.80016928D-03 0.37680153D+00 0.11747648D+05 0.11747648D+05 0.11747648D+05 0.12601073D+01  1  2  3  2  5  2        2 -.124874696661D-01 0.100000000000D+01
0.787759758893D-05 0.000000000000D+00 0.000000000000D+00 0.171024516767D-02 0.000000000000D+00  5 -2 2 25 23 21 2 0.80016928D-03 0.37680153D+00 0.11747648D+05 0.11747648D+05 0.11747648D+05 0.12601073D+01  1  2 15  2  5  2        2 0.154246669681D-01 0.100000000000D+01
0.247737780376D-03 0.000000000000D+00 0.000000000000D+00 0.171024516767D-02 0.000000000000D+00  5 -2 2 25 23 21 2 0.80016928D-03 0.40129163D+00 0.12819493D+05 0.12819493D+05 0.12819493D+05 0.12556756D+01  1  2 12  2  5  2        2 0.396903601958D+00 0.100000000000D+01
-.200532088048D-03 0.000000000000D+00 0.000000000000D+00 0.171024516767D-02 0.000000000000D+00  5 -2 2 25 23 21 2 0.80016928D-03 0.37680153D+00 0.11747648D+05 0.11747648D+05 0.11747648D+05 0.12601073D+01  1  2  4  2  5  2        2 -.392650251508D+00 0.100000000000D+01
-.112948553231D-02 0.000000000000D+00 -.192196589918D-03 0.171024516767D-02 0.000000000000D+00  5 -2 2 25 23 21 2 0.80016928D-03 0.40066164D+00 0.11747648D+05 0.11747648D+05 0.11747648D+05 0.12601073D+01  1  2  5  2  5  2        2 -.182964918531D+01 0.100000000000D+01
0.113949933482D-02 0.000000000000D+00 0.191834887062D-03 0.171024516767D-02 0.000000000000D+00  5 -2 2 25 23 21 2 0.80016928D-03 0.37680153D+00 0.11747648D+05 0.11747648D+05 0.11747648D+05 0.12601073D+01  1  2  6  2  5  2        2 0.223118756087D+01 0.100000000000D+01
0.271243636861D-08 0.000000000000D+00 0.000000000000D+00 0.171024516767D-02 0.160863040719D-03  5 -2 2 25 23 21 2 0.83214138D-03 0.39408251D+00 0.12819493D+05 0.12819493D+05 0.12819493D+05 0.12556756D+01  1  2 11  2  5  2        2 0.435530888584D-05 0.100000000000D+01
0.282255458388D-05 0.000000000000D+00 0.000000000000D+00 0.171024516767D-02 0.000000000000D+00  5 -2 21 25 23 -2 2 0.80016928D-03 0.40129163D+00 0.12819493D+05 0.12819493D+05 0.12819493D+05 0.12556756D+01  1  2 12  4  5  2        2 0.936742967883D-03 0.100000000000D+01
-.116345634053D-04 0.000000000000D+00 -.202253626869D-05 0.171024516767D-02 0.000000000000D+00  5 -2 21 25 23 -2 2 0.80016928D-03 0.40066164D+00 0.11747648D+05 0.11747648D+05 0.11747648D+05 0.12601073D+01  1  2  5  4  5  2        2 -.395305468727D-02 0.100000000000D+01
0.397943949043D-10 0.000000000000D+00 0.000000000000D+00 0.171024516767D-02 0.129915439607D-05  5 -2 21 25 23 -2 2 0.83214138D-03 0.39408251D+00 0.12819493D+05 0.12819493D+05 0.12819493D+05 0.12556756D+01  1  2 11  4  5  2        2 0.138129526054D-07 0.100000000000D+01
  </mgrwgt>
  </event>
  <event>
  4     66 0.46888340E-03 0.56853224E+02 0.75467711E-02 0.11810100E+00
       -2 -1    0    0    0  501 0.00000000E+00 0.00000000E+00 0.13136477E+02 0.13140374E+02 0.32000000E+00 0.0000E+00 0.9000E+01
        2 -1    0    0  501    0 0.00000000E+00 0.00000000E+00 -.10858655E+04 0.10858655E+04 0.32000000E+00 0.0000E+00 0.9000E+01
       25  1    1    2    0    0 0.36384984E+02 -.24215532E+02 -.71964968E+03 0.73173145E+03 0.12500000E+03 0.0000E+00 0.9000E+01
       23  1    1    2    0    0 -.36384984E+02 0.24215532E+02 -.35307931E+03 0.36727443E+03 0.91188000E+02 0.0000E+00 0.9000E+01
#aMCatNLO 1  0  0  2  1 0.85342283D+02 0.00000000D+00  -5  5  0 0.00000000D+00 0.00000000D+00 0.00000000D+00 0.00000000D+00 0.00000000D+00
  <mgrwgt>
 0.2654835437D+00    8    2    0
 0.119442930878837D+03 0.000000000000000D+00 0.000000000000000D+00 0.119442930878837D+03
 0.119442930878837D+03 0.000000000000000D+00 0.000000000000000D+00 -.119442930878837D+03
 0.134742598682984D+03 0.363849836560391D+02 -.242155316567491D+02 -.249060010996256D+02
 0.104143263074689D+03 -.363849836560391D+02 0.242155316567491D+02 0.249060010996256D+02
 0.000000000000000D+00 0.000000000000000D+00 0.000000000000000D+00 -.000000000000000D+00
 0.148433430056622D+03 0.000000000000000D+00 0.000000000000000D+00 0.148433430056622D+03
 0.211144883466167D+03 0.000000000000000D+00 0.000000000000000D+00 -.211144883466167D+03
 0.141522168750174D+03 0.601419594091122D+01 -.612131097409893D+02 -.249060010996256D+02
 0.112150376637216D+03 -.601629278248046D+02 -.475066949411564D+01 0.249060010996256D+02
 0.105905768135399D+03 0.541487318838934D+02 0.659637792351049D+02 -.627114534095440D+02
0.827524387566D-04 0.000000000000D+00 0.000000000000D+00 0.162748715406D-02 0.000000000000D+00  5 -2 2 25 23 21 0 0.20212998D-02 0.16705653D+00 0.13635470D+05 0.13635470D+05 0.13635470D+05 0.12525724D+01  1  2  2  2  5  2        2 0.139114327392D+00 0.100000000000D+01
-.459449668650D-05 0.000000000000D+00 -.317791154043D-06 0.162748715406D-02 0.000000000000D+00  5 -2 2 25 23 21 2 0.20212998D-02 0.16705653D+00 0.13635470D+05 0.13635470D+05 0.13635470D+05 0.12525724D+01  1  2  3  2  5  2        2 -.121181044185D-01 0.100000000000D+01
0.573009545806D-05 0.000000000000D+00 0.000000000000D+00 0.162748715406D-02 0.000000000000D+00  5 -2 2 25 23 21 2 0.20212998D-02 0.16705653D+00 0.13635470D+05 0.13635470D+05 0.13635470D+05 0.12525724D+01  1  2 15  2  5  2        2 0.151132756919D-01 0.100000000000D+01
0.795986052763D-05 0.000000000000D+00 0.000000000000D+00 0.162748715406D-02 0.000000000000D+00  5 -2 2 25 23 21 2 0.20212998D-02 0.30263395D+00 0.27889926D+05 0.27889926D+05 0.27889926D+05 0.12182368D+01  1  2 12  2  5  2        2 0.691038058188D-02 0.100000000000D+01
-.479257505386D-04 0.000000000000D+00 -.277953654773D-04 0.162748715406D-02 0.000000000000D+00  5 -2 2 25 23 21 2 0.20212998D-02 0.32503355D+00 0.13635470D+05 0.13635470D+05 0.13635470D+05 0.12525724D+01  1  2  5  2  5  2        2 -.368450234592D-01 0.100000000000D+01
0.582368922687D-04 0.000000000000D+00 0.226013758216D-04 0.162748715406D-02 0.000000000000D+00  5 -2 2 25 23 21 2 0.20212998D-02 0.16705653D+00 0.13635470D+05 0.13635470D+05 0.13635470D+05 0.12525724D+01  1  2  6  2  5  2        2 0.153601316896D+00 0.100000000000D+01
0.518006205120D-06 0.000000000000D+00 0.000000000000D+00 0.162748715406D-02 0.000000000000D+00  5 -2 21 25 23 -2 2 0.20212998D-02 0.30263395D+00 0.27889926D+05 0.27889926D+05 0.27889926D+05 0.12182368D+01  1  2 12  4  5  2        2 0.151181515858D-03 0.100000000000D+01
-.183014038534D-05 0.000000000000D+00 -.200528162949D-05 0.162748715406D-02 0.000000000000D+00  5 -2 21 25 23 -2 2 0.20212998D-02 0.32503355D+00 0.13635470D+05 0.13635470D+05 0.13635470D+05 0.12525724D+01  1  2  5  4  5  2        2 -.443810532377D-03 0.100000000000D+01
  </mgrwgt>
  </event>
  <event>
  4     66 0.46888340E-03 0.11957645E+03 0.75467711E-02 0.11689570E+00
       -2 -1    0    0    0  501 0.00000000E+00 0.00000000E+00 0.22375834E+02 0.22378122E+02 0.32000000E+00 0.0000E+00 0.9000E+01
        2 -1    0    0  501    0 0.00000000E+00 0.00000000E+00 -.64701685E+03 0.64701693E+03 0.32000000E+00 0.0000E+00 0.9000E+01
       25  1    1    2    0    0 0.26134767E+01 0.50548285E+02 -.31474440E+03 0.34241933E+03 0.12500000E+03 0.0000E+00 0.9000E+01
       23  1    1    2    0    0 -.26134767E+01 -.50548285E+02 -.30989662E+03 0.32697572E+03 0.91188000E+02 0.0000E+00 0.9000E+01
#aMCatNLO 1  0  0  1  1 0.98833966D+02 0.00000000D+00  -5  5  0 0.00000000D+00 0.00000000D+00 0.00000000D+00 0.00000000D+00 0.00000000D+00
  <mgrwgt>
 0.1909182071D+00    3    2    0
 0.120325949506424D+03 0.000000000000000D+00 0.000000000000000D+00 0.120325949506424D+03
 0.120325949506424D+03 0.000000000000000D+00 0.000000000000000D+00 -.120325949506424D+03
 0.135513339853195D+03 0.261347670401487D+01 0.505482854403773D+02 0.133005961040605D+02
 0.105138559159652D+03 -.261347670401487D+01 -.505482854403773D+02 -.133005961040605D+02
 0.000000000000000D+00 0.000000000000000D+00 0.000000000000000D+00 -.000000000000000D+00
 0.134870776446300D+03 0.000000000000000D+00 0.000000000000000D+00 0.134870776446300D+03
 0.639638336897283D+03 0.000000000000000D+00 0.000000000000000D+00 -.639638336897283D+03
 0.125711520476252D+03 -.830853227308188D+00 -.888935679659717D+00 0.133005961040605D+02
 0.134445142708384D+03 -.577246132117778D+01 -.977241929485722D+02 -.133005961040605D+02
 0.514352450158947D+03 0.660331454848597D+01 0.986131286282319D+02 -.504767560450984D+03
0.125055943699D-03 0.000000000000D+00 0.000000000000D+00 0.165180795199D-02 0.000000000000D+00  5 -2 2 25 23 21 0 0.34426181D-02 0.99541236D-01 0.14298528D+05 0.14298528D+05 0.14298528D+05 0.12502007D+01  1  2  2  1  5  1       -2 0.186943710621D+00 0.100000000000D+01
-.694722262967D-05 0.000000000000D+00 -.480247751791D-06 0.165180795199D-02 0.000000000000D+00  5 -2 2 25 23 21 2 0.34426181D-02 0.99541236D-01 0.14298528D+05 0.14298528D+05 0.14298528D+05 0.12502007D+01  1  2  3  1  5  1       -2 -.162321946486D-01 0.100000000000D+01
0.864826875873D-05 0.000000000000D+00 0.000000000000D+00 0.165180795199D-02 0.000000000000D+00  5 -2 2 25 23 21 2 0.34426181D-02 0.99541236D-01 0.14298528D+05 0.14298528D+05 0.14298528D+05 0.12502007D+01  1  2 15  1  5  1       -2 0.202066911265D-01 0.100000000000D+01
  </mgrwgt>
  </event>
  <event>
  4     66 0.46888340E-03 0.59648876E+02 0.75467711E-02 0.12344851E+00
       -2 -1    0    0    0  501 0.00000000E+00 0.00000000E+00 0.15989769E+03 0.15989801E+03 0.32000000E+00 0.0000E+00 0.9000E+01
        2 -1    0    0  501    0 0.00000000E+00 0.00000000E+00 -.79754998E+02 0.79755640E+02 0.32000000E+00 0.0000E+00 0.9000E+01
       25  1    1    2    0    0 0.13317989E+02 0.10520380E+02 0.74997285E+02 0.14675708E+03 0.12500000E+03 0.0000E+00 0.9000E+01
       23  1    1    2    0    0 -.13317989E+02 -.10520380E+02 0.51454119E+01 0.92896576E+02 0.91188000E+02 0.0000E+00 0.9000E+01
#aMCatNLO 1  0  0  2  1 0.29860403D+02 0.00000000D+00  -5  5  0 0.00000000D+00 0.00000000D+00 0.00000000D+00 0.00000000D+00 0.00000000D+00
  <mgrwgt>
 0.1562341218D+00    9    2    0
 0.112928098874974D+03 0.000000000000000D+00 0.000000000000000D+00 0.112928098874974D+03
 0.112928098874974D+03 0.000000000000000D+00 0.000000000000000D+00 -.112928098874974D+03
 0.129110405866817D+03 0.133179889433161D+02 0.105203799781116D+02 0.275036302824928D+02
 0.967457918831315D+02 -.133179889433161D+02 -.105203799781116D+02 -.275036302824928D+02
 0.000000000000000D+00 -.000000000000000D+00 -.000000000000000D+00 -.000000000000000D+00
 0.117980817003187D+03 0.000000000000000D+00 0.000000000000000D+00 0.117980817003187D+03
 0.168679587255224D+03 0.000000000000000D+00 0.000000000000000D+00 -.168679587255224D+03
 0.132175502755130D+03 0.303386425276135D+02 0.129800084528866D+02 0.275036302824928D+02
 0.956460627388740D+02 -.785223103656046D+00 -.870928925975318D+01 -.275036302824928D+02
 0.588388387644066D+02 -.295534194239574D+02 -.427071919313346D+01 -.506987702520376D+02
0.186899256105D-03 0.000000000000D+00 0.000000000000D+00 0.173075057080D-02 0.000000000000D+00  5 -2 2 25 23 21 0 0.24599719D-01 0.12270074D-01 0.11979400D+05 0.11979400D+05 0.11979400D+05 0.12591116D+01  1  2  2  2  5  2        2 0.126441195475D+00 0.100000000000D+01
-.103709401084D-04 0.000000000000D+00 -.717742355149D-06 0.173075057080D-02 0.000000000000D+00  5 -2 2 25 23 21 2 0.24599719D-01 0.12270074D-01 0.11979400D+05 0.11979400D+05 0.11979400D+05 0.12591116D+01  1  2  3  2  5  2        2 -.111231443383D-01 0.100000000000D+01
0.127854762472D-04 0.000000000000D+00 0.000000000000D+00 0.173075057080D-02 0.000000000000D+00  5 -2 2 25 23 21 2 0.24599719D-01 0.12270074D-01 0.11979400D+05 0.11979400D+05 0.11979400D+05 0.12591116D+01  1  2 15  2  5  2        2 0.137128067702D-01 0.100000000000D+01
0.456396487965D-03 0.000000000000D+00 0.000000000000D+00 0.173075057080D-02 0.000000000000D+00  5 -2 2 25 23 21 2 0.24599719D-01 0.18494058D-01 0.15718770D+05 0.15718770D+05 0.15718770D+05 0.12455118D+01  1  2 12  2  5  2        2 0.299873441542D+00 0.100000000000D+01
-.460949675870D-03 0.000000000000D+00 0.000000000000D+00 0.173075057080D-02 0.000000000000D+00  5 -2 2 25 23 21 2 0.24599719D-01 0.12270074D-01 0.11979400D+05 0.11979400D+05 0.11979400D+05 0.12591116D+01  1  2  4  2  5  2        2 -.494382353364D+00 0.100000000000D+01
-.544761200109D-03 0.000000000000D+00 -.909158802491D-04 0.173075057080D-02 0.000000000000D+00  5 -2 2 25 23 21 2 0.24599719D-01 0.19031587D-01 0.11979400D+05 0.11979400D+05 0.11979400D+05 0.12591116D+01  1  2  5  2  5  2        2 -.351045738670D+00 0.100000000000D+01
0.539921160877D-03 0.000000000000D+00 0.828096897534D-04 0.173075057080D-02 0.000000000000D+00  5 -2 2 25 23 21 2 0.24599719D-01 0.12270074D-01 0.11979400D+05 0.11979400D+05 0.11979400D+05 0.12591116D+01  1  2  6  2  5  2        2 0.579081639750D+00 0.100000000000D+01
0.221341365064D-04 0.000000000000D+00 0.000000000000D+00 0.173075057080D-02 0.000000000000D+00  5 -2 21 25 23 -2 2 0.24599719D-01 0.18494058D-01 0.15718770D+05 0.15718770D+05 0.15718770D+05 0.12455118D+01  1  2 12  4  5  2        2 0.106280570885D+00 0.100000000000D+01
-.242752156500D-04 0.000000000000D+00 -.463648876625D-05 0.173075057080D-02 0.000000000000D+00  5 -2 21 25 23 -2 2 0.24599719D-01 0.19031587D-01 0.11979400D+05 0.11979400D+05 0.11979400D+05 0.12591116D+01  1  2  5  4  5  2        2 -.112604296220D+00 0.100000000000D+01
  </mgrwgt>
  </event>
  <event>
  4     66 0.46888340E-03 0.12017333E+03 0.75467711E-02 0.11890768E+00
       -2 -1    0    0    0  501 0.00000000E+00 0.00000000E+00 0.25877117E+02 0.25879095E+02 0.32000000E+00 0.0000E+00 0.9000E+01
        2 -1    0    0  501    0 0.00000000E+00 0.00000000E+00 -.56910076E+03 0.56910085E+03 0.32000000E+00 0.0000E+00 0.9000E+01
       25  1    1    2    0    0 -.48906189E+02 -.17633251E+02 -.34642106E+03 0.37193454E+03 0.12500000E+03 0.0000E+00 0.9000E+01
       23  1    1    2    0    0 0.48906189E+02 0.17633251E+02 -.19680258E+03 0.22304540E+03 0.91188000E+02 0.0000E+00 0.9000E+01
#aMCatNLO 1  0  0  2  1 0.69294564D+02 0.00000000D+00  -5  5  0 0.00000000D+00 0.00000000D+00 0.00000000D+00 0.00000000D+00 0.00000000D+00
  <mgrwgt>
 0.8586986810D-01    4    2    0
 0.121356095865805D+03 0.000000000000000D+00 0.000000000000000D+00 0.121356095865805D+03
 0.121356095865805D+03 0.000000000000000D+00 0.000000000000000D+00 -.121356095865805D+03
 0.136414566154934D+03 -.489061892859361D+02 -.176332510950811D+02 -.167686303729603D+02
 0.106297625576675D+03 0.489061892859361D+02 0.176332510950811D+02 0.167686303729603D+02
 0.000000000000000D+00 0.000000000000000D+00 0.000000000000000D+00 0.000000000000000D+00
 0.169031929699553D+03 0.000000000000000D+00 0.000000000000000D+00 0.169031929699553D+03
 0.154235114084615D+03 0.000000000000000D+00 0.000000000000000D+00 -.154235114084615D+03
 0.156397745506524D+03 -.894784135175292D+02 -.234025927906378D+02 -.167686303729603D+02
 0.960125248839382D+02 0.208739909735051D+02 0.136470922486039D+02 0.167686303729603D+02
 0.708567733937066D+02 0.686044225440241D+02 0.975550054203390D+01 0.147968156149377D+02
0.106232592073D-03 0.000000000000D+00 0.000000000000D+00 0.162656411939D-02 0.000000000000D+00  5 -2 2 25 23 21 0 0.39812540D-02 0.87554122D-01 0.14441630D+05 0.14441630D+05 0.14441630D+05 0.12497051D+01  1  2  2  2  5  2        2 0.148286615792D+00 0.100000000000D+01
-.590112235074D-05 0.000000000000D+00 -.407961125243D-06 0.162656411939D-02 0.000000000000D+00  5 -2 2 25 23 21 2 0.39812540D-02 0.87554122D-01 0.14441630D+05 0.14441630D+05 0.14441630D+05 0.12497051D+01  1  2  3  2  5  2        2 -.128645284970D-01 0.100000000000D+01
0.733209683710D-05 0.000000000000D+00 0.000000000000D+00 0.162656411939D-02 0.000000000000D+00  5 -2 2 25 23 21 2 0.39812540D-02 0.87554122D-01 0.14441630D+05 0.14441630D+05 0.14441630D+05 0.12497051D+01  1  2 15  2  5  2        2 0.159840727064D-01 0.100000000000D+01
-.300623281316D-04 0.000000000000D+00 0.000000000000D+00 0.162656411939D-02 0.000000000000D+00  5 -2 2 25 23 21 2 0.39812540D-02 0.87554122D-01 0.14441630D+05 0.14441630D+05 0.14441630D+05 0.12497051D+01  1  2  4  2  5  2        2 -.655362919034D-01 0.100000000000D+01
  </mgrwgt>
  </event>
  <event>
  4     66 0.46888340E-03 0.10370753E+03 0.75467711E-02 0.11982183E+00
       -2 -1    0    0    0  501 0.00000000E+00 0.00000000E+00 0.58442087E+01 0.58529630E+01 0.32000000E+00 0.0000E+00 0.9000E+01
        2 -1    0    0  501    0 0.00000000E+00 0.00000000E+00 -.38491298E+04 0.38491298E+04 0.32000000E+00 0.0000E+00 0.9000E+01
       25  1    1    2    0    0 0.70528990E+02 -.74934592E+02 -.22065510E+04 0.22124832E+04 0.12500000E+03 0.0000E+00 0.9000E+01
       23  1    1    2    0    0 -.70528990E+02 0.74934592E+02 -.16367346E+04 0.16424996E+04 0.91188000E+02 0.0000E+00 0.9000E+01
#aMCatNLO 1  0  0  2  1 0.42650281D+01 0.00000000D+00  -5  5  0 0.00000000D+00 0.00000000D+00 0.00000000D+00 0.00000000D+00 0.00000000D+00
  <mgrwgt>
 0.5245185620D+00   11    2    0
 0.150040052634276D+03 0.000000000000000D+00 0.000000000000000D+00 0.150040052634276D+03
 0.150040052634276D+03 0.000000000000000D+00 0.000000000000000D+00 -.150040052634276D+03
 0.162219714877227D+03 0.705289902654839D+02 -.749345915428154D+02 -.100351590566113D+02
 0.137860390391326D+03 -.705289902654839D+02 0.749345915428154D+02 0.100351590566113D+02
 0.000000000000000D+00 0.000000000000000D+00 0.000000000000000D+00 -.000000000000000D+00
 0.150950242213728D+03 0.000000000000000D+00 0.000000000000000D+00 0.150950242213728D+03
 0.155136139309582D+03 0.000000000000000D+00 0.000000000000000D+00 -.155136139309582D+03
 0.161754930845680D+03 0.684267739788769D+02 -.758731167044218D+02 -.100351590566113D+02
 0.138355482239672D+03 -.723213080092646D+02 0.741344192147592D+02 0.100351590566113D+02
 0.597596843795935D+01 0.389453403038769D+01 0.173869748966253D+01 -.418589709585410D+01
0.731870534429D-03 0.000000000000D+00 0.000000000000D+00 0.134139210778D-02 0.000000000000D+00  5 -2 2 25 23 21 0 0.89978346D-03 0.59217449D+00 0.22410642D+05 0.22410642D+05 0.22410642D+05 0.12284217D+01  1  2  2  2  5  2        2 0.108899856210D+00 0.100000000000D+01
-.406592223792D-04 0.000000000000D+00 -.281057555815D-05 0.134139210778D-02 0.000000000000D+00  5 -2 2 25 23 21 2 0.89978346D-03 0.59217449D+00 0.22410642D+05 0.22410642D+05 0.22410642D+05 0.12284217D+01  1  2  3  2  5  2        2 -.912950145377D-02 0.100000000000D+01
0.505077557307D-04 0.000000000000D+00 0.000000000000D+00 0.134139210778D-02 0.000000000000D+00  5 -2 2 25 23 21 2 0.89978346D-03 0.59217449D+00 0.22410642D+05 0.22410642D+05 0.22410642D+05 0.12284217D+01  1  2 15  2  5  2        2 0.113408619838D-01 0.100000000000D+01
0.219692338738D-03 0.000000000000D+00 0.000000000000D+00 0.134139210778D-02 0.000000000000D+00  5 -2 2 25 23 21 2 0.89978346D-03 0.61404660D+00 0.23058338D+05 0.23058338D+05 0.23058338D+05 0.12270801D+01  1  2 12  2  5  2        2 0.386859787625D-01 0.100000000000D+01
-.447214277022D-02 0.000000000000D+00 0.000000000000D+00 0.134139210778D-02 0.000000000000D+00  5 -2 2 25 23 21 2 0.89978346D-03 0.59217449D+00 0.22410642D+05 0.22410642D+05 0.22410642D+05 0.12284217D+01  1  2  4  2  5  2        2 -.100416170141D+01 0.100000000000D+01
-.129979392605D-01 0.000000000000D+00 -.139905239421D-02 0.134139210778D-02 0.000000000000D+00  5 -2 2 25 23 21 2 0.89978346D-03 0.61303000D+00 0.22410642D+05 0.22410642D+05 0.22410642D+05 0.12284217D+01  1  2  5  2  5  2        2 -.232210224646D+01 0.100000000000D+01
0.131381236467D-01 0.000000000000D+00 0.142198184935D-02 0.134139210778D-02 0.000000000000D+00  5 -2 2 25 23 21 2 0.89978346D-03 0.59217449D+00 0.22410642D+05 0.22410642D+05 0.22410642D+05 0.12284217D+01  1  2  6  2  5  2        2 0.294999539869D+01 0.100000000000D+01
0.422003354650D-02 0.000000000000D+00 0.000000000000D+00 0.134139210778D-02 0.592514650217D-03  5 -2 2 25 23 21 2 0.90524183D-03 0.61228760D+00 0.23058338D+05 0.23058338D+05 0.23058338D+05 0.12270801D+01  1  2 11  2  5  2        2 0.751378895063D+00 0.100000000000D+01
0.497445648943D-05 0.000000000000D+00 0.000000000000D+00 0.134139210778D-02 0.000000000000D+00  5 -2 21 25 23 -2 2 0.89978346D-03 0.61404660D+00 0.23058338D+05 0.23058338D+05 0.23058338D+05 0.12270801D+01  1  2 12  4  5  2        2 0.397475354786D-04 0.100000000000D+01
-.795404700385D-04 0.000000000000D+00 -.862621957347D-05 0.134139210778D-02 0.000000000000D+00  5 -2 21 25 23 -2 2 0.89978346D-03 0.61303000D+00 0.22410642D+05 0.22410642D+05 0.22410642D+05 0.12284217D+01  1  2  5  4  5  2        2 -.651205190305D-03 0.100000000000D+01
0.271996708237D-04 0.000000000000D+00 0.000000000000D+00 0.134139210778D-02 0.354583675402D-05  5 -2 21 25 23 -2 2 0.90524183D-03 0.61228760D+00 0.23058338D+05 0.23058338D+05 0.23058338D+05 0.12270801D+01  1  2 11  4  5  2        2 0.222478237088D-03 0.100000000000D+01
  </mgrwgt>
  </event>
  <event>
  4     66 0.46888340E-03 0.11171963E+03 0.75467711E-02 0.10915993E+00
       -2 -1    0    0    0  501 0.00000000E+00 0.00000000E+00 0.12640569E+03 0.12640609E+03 0.32000000E+00 0.0000E+00 0.9000E+01
        2 -1    0    0  501    0 0.00000000E+00 0.00000000E+00 -.10925056E+03 0.10925102E+03 0.32000000E+00 0.0000E+00 0.9000E+01
       25  1    1    2    0    0 -.24296933E+02 -.13724887E+02 0.45905386E+02 0.13605520E+03 0.12500000E+03 0.0000E+00 0.9000E+01
       23  1    1    2    0    0 0.24296933E+02 0.13724887E+02 -.28750253E+02 0.99601917E+02 0.91188000E+02 0.0000E+00 0.9000E+01
#aMCatNLO 1  0  0  1  1 0.24416079D+03 0.00000000D+00  -5  5  0 0.00000000D+00 0.00000000D+00 0.00000000D+00 0.00000000D+00 0.00000000D+00
  <mgrwgt>
 0.1492908446D+00    3    2    0
 0.117515934108269D+03 0.000000000000000D+00 0.000000000000000D+00 0.117515934108269D+03
 0.117515934108269D+03 0.000000000000000D+00 0.000000000000000D+00 -.117515934108269D+03
 0.133066482022192D+03 -.242969332086870D+02 -.137248866705212D+02 0.360967472259785D+02
 0.101965386194347D+03 0.242969332086870D+02 0.137248866705212D+02 -.360967472259785D+02
 0.000000000000000D+00 0.000000000000000D+00 -.000000000000000D+00 -.000000000000000D+00
 0.225670064842330D+03 0.000000000000000D+00 0.000000000000000D+00 0.225670064842330D+03
 0.434549695315898D+03 0.000000000000000D+00 0.000000000000000D+00 -.434549695315898D+03
 0.182315514745843D+03 -.480780166821717D+02 0.118319381627248D+03 0.360967472259785D+02
 0.156586346239598D+03 0.480108248088513D+01 0.121975435770415D+03 -.360967472259785D+02
 0.321317899172787D+03 0.432769342012866D+02 -.240294817397663D+03 -.208879630473568D+03
0.208930983551D-03 0.000000000000D+00 0.000000000000D+00 0.159664464686D-02 0.000000000000D+00  5 -2 2 25 23 21 0 0.19447096D-01 0.16807845D-01 0.12481276D+05 0.12481276D+05 0.12481276D+05 0.12570275D+01  1  2  2  1  5  1       -2 0.146283816667D+00 0.100000000000D+01
-.115711695669D-04 0.000000000000D+00 -.802349989628D-06 0.159664464686D-02 0.000000000000D+00  5 -2 2 25 23 21 2 0.19447096D-01 0.16807845D-01 0.12481276D+05 0.12481276D+05 0.12481276D+05 0.12570275D+01  1  2  3  1  5  1       -2 -.128014825578D-01 0.100000000000D+01
0.142892008513D-04 0.000000000000D+00 0.000000000000D+00 0.159664464686D-02 0.000000000000D+00  5 -2 2 25 23 21 2 0.19447096D-01 0.16807845D-01 0.12481276D+05 0.12481276D+05 0.12481276D+05 0.12570275D+01  1  2 15  1  5  1       -2 0.158085104885D-01 0.100000000000D+01
  </mgrwgt>
  </event>
  <event>
  4     66 0.46888340E-03 0.10437168E+03 0.75467711E-02 0.12638349E+00
       -2 -1    0    0    0  501 0.00000000E+00 0.00000000E+00 0.61638294E+01 0.61721304E+01 0.32000000E+00 0.0000E+00 0.9000E+01
        2 -1    0    0  501    0 0.00000000E+00 0.00000000E+00 -.20216946E+04 0.20216946E+04 0.32000000E+00 0.0000E+00 0.9000E+01
       25  1    1    2    0    0 -.92360134E-01 -.21073663E+01 -.90463482E+03 0.91323251E+03 0.12500000E+03 0.0000E+00 0.9000E+01
       23  1    1    2    0    0 0.92360134E-01 0.21073663E+01 -.11108959E+04 0.11146342E+04 0.91188000E+02 0.0000E+00 0.9000E+01
#aMCatNLO 1  0  0  2  1 0.28074135D+00 0.00000000D+00  -5  5  0 0.00000000D+00 0.00000000D+00 0.00000000D+00 0.00000000D+00 0.00000000D+00
  <mgrwgt>
 0.4710932737D+00    9    2    0
 0.111668360078544D+03 0.000000000000000D+00 0.000000000000000D+00 0.111668360078544D+03
 0.111668360078544D+03 0.000000000000000D+00 0.000000000000000D+00 -.111668360078544D+03
 0.128033220838697D+03 -.923601341918592D-01 -.210736631903442D+01 0.276234703673095D+02
 0.953034993183913D+02 0.923601341918592D-01 0.210736631903442D+01 -.276234703673095D+02
 0.000000000000000D+00 0.000000000000000D+00 0.000000000000000D+00 -.000000000000000D+00
 0.111765445021062D+03 0.000000000000000D+00 0.000000000000000D+00 0.111765445021062D+03
 0.111871588441117D+03 0.000000000000000D+00 0.000000000000000D+00 -.111871588441117D+03
 0.128035967398049D+03 -.110348278156356D+00 -.226730140875674D+01 0.276234703673095D+02
 0.953009292093671D+02 0.789707064194789D-01 0.198831905455106D+01 -.276234703673095D+02
 0.300136854763147D+00 0.313775717368771D-01 0.278982354205684D+00 -.106143420054497D+00
0.517911020343D-04 0.000000000000D+00 0.000000000000D+00 0.175583102344D-02 0.000000000000D+00  5 -2 2 25 23 21 0 0.94892193D-03 0.31103057D+00 0.11688874D+05 0.11688874D+05 0.11688874D+05 0.12603634D+01  1  2  2  2  5  2        2 0.832335410674D-01 0.100000000000D+01
-.287362526770D-05 0.000000000000D+00 -.198891468722D-06 0.175583102344D-02 0.000000000000D+00  5 -2 2 25 23 21 2 0.94892193D-03 0.31103057D+00 0.11688874D+05 0.11688874D+05 0.11688874D+05 0.12603634D+01  1  2  3  2  5  2        2 -.733609430005D-02 0.100000000000D+01
0.354528008114D-05 0.000000000000D+00 0.000000000000D+00 0.175583102344D-02 0.000000000000D+00  5 -2 2 25 23 21 2 0.94892193D-03 0.31103057D+00 0.11688874D+05 0.11688874D+05 0.11688874D+05 0.12603634D+01  1  2 15  2  5  2        2 0.905076569575D-02 0.100000000000D+01
-.442292694739D-02 0.000000000000D+00 0.000000000000D+00 0.175583102344D-02 0.000000000000D+00  5 -2 2 25 23 21 2 0.94892193D-03 0.31103057D+00 0.11688874D+05 0.11688874D+05 0.11688874D+05 0.12603634D+01  1  2  4  2  5  2        2 -.112913153754D+02 0.100000000000D+01
-.335199083545D-01 0.000000000000D+00 -.257506341599D-02 0.175583102344D-02 0.000000000000D+00  5 -2 2 25 23 21 2 0.94892193D-03 0.31171896D+00 0.11688874D+05 0.11688874D+05 0.11688874D+05 0.12603634D+01  1  2  5  2  5  2        2 -.851271158997D+02 0.100000000000D+01
0.335255257061D-01 0.000000000000D+00 0.257505712293D-02 0.175583102344D-02 0.000000000000D+00  5 -2 2 25 23 21 2 0.94892193D-03 0.31103057D+00 0.11688874D+05 0.11688874D+05 0.11688874D+05 0.12603634D+01  1  2  6  2  5  2        2 0.855875053730D+02 0.100000000000D+01
0.442293621071D-02 0.000000000000D+00 0.000000000000D+00 0.175583102344D-02 0.188699079105D+00  5 -2 2 25 23 21 2 0.94974693D-03 0.31159663D+00 0.11719260D+05 0.11719260D+05 0.11719260D+05 0.12602308D+01  1  2 11  2  5  2        2 0.112273736522D+02 0.100000000000D+01
-.138442649528D-04 0.000000000000D+00 -.106390447328D-05 0.175583102344D-02 0.000000000000D+00  5 -2 21 25 23 -2 2 0.94892193D-03 0.31171896D+00 0.11688874D+05 0.11688874D+05 0.11688874D+05 0.12603634D+01  1  2  5  4  5  2        2 -.120439006917D-01 0.100000000000D+01
0.200156540766D-05 0.000000000000D+00 0.000000000000D+00 0.175583102344D-02 0.641861930543D-04  5 -2 21 25 23 -2 2 0.94974693D-03 0.31159663D+00 0.11719260D+05 0.11719260D+05 0.11719260D+05 0.12602308D+01  1  2 11  4  5  2        2 0.174121182555D-02 0.100000000000D+01
  </mgrwgt>
  </event>
  <event>
  4     66 0.46888340E-03 0.13382885E+03 0.75467711E-02 0.11021098E+00
       -2 -1    0    0    0  501 0.00000000E+00 0.00000000E+00 0.88987063E+02 0.88987638E+02 0.32000000E+00 0.0000E+00 0.9000E+01
        2 -1    0    0  501    0 0.00000000E+00 0.00000000E+00 -.62874985E+03 0.62874994E+03 0.32000000E+00 0.0000E+00 0.9000E+01
       25  1    1    2    0    0 -.43628147E+02 -.19038327E+03 -.39514467E+03 0.45816320E+03 0.12500000E+03 0.0000E+00 0.9000E+01
       23  1    1    2    0    0 0.43628147E+02 0.19038327E+03 -.14461812E+03 0.25957438E+03 0.91188000E+02 0.0000E+00 0.9000E+01
#aMCatNLO 1  0  0  1  2 0.82612389D+02 0.00000000D+00  -5  5  0 0.00000000D+00 0.00000000D+00 0.00000000D+00 0.00000000D+00 0.00000000D+00
  <mgrwgt>
 0.2220908105D+00    9    2    0
 0.236539295804321D+03 0.000000000000000D+00 0.000000000000000D+00 0.236539295804321D+03
 0.236539295804321D+03 0.000000000000000D+00 0.000000000000000D+00 -.236539295804321D+03
 0.244265019167900D+03 -.436281467807902D+02 -.190383270438129D+03 -.767541186833040D+02
 0.228813572440742D+03 0.436281467807902D+02 0.190383270438129D+03 0.767541186833040D+02
 0.000000000000000D+00 -.000000000000000D+00 0.000000000000000D+00 0.000000000000000D+00
 0.289364308337000D+03 0.000000000000000D+00 0.000000000000000D+00 0.289364308337000D+03
 0.274765656362308D+03 0.000000000000000D+00 0.000000000000000D+00 -.274765656362308D+03
 0.272762571945921D+03 -.209245388346405D+02 -.229009584066389D+03 -.767541186833040D+02
 0.207475036562774D+03 0.627863613527591D+02 0.157788838470769D+03 0.767541186833040D+02
 0.838923561906132D+02 -.418618225181185D+02 0.712207455956206D+02 0.145986519746912D+02
0.850982065972D-03 0.000000000000D+00 0.000000000000D+00 0.965223943401D-03 0.000000000000D+00  5 -2 2 25 23 21 0 0.13690368D-01 0.96730797D-01 0.50052610D+05 0.50052610D+05 0.50052610D+05 0.11922365D+01  1  2  2  1  5  1       -2 0.161178057580D+00 0.100000000000D+01
-.470984490821D-04 0.000000000000D+00 -.326799520205D-05 0.965223943401D-03 0.000000000000D+00  5 -2 2 25 23 21 2 0.13690368D-01 0.96730797D-01 0.50052610D+05 0.50052610D+05 0.50052610D+05 0.11922365D+01  1  2  3  1  5  1       -2 -.126799331612D-01 0.100000000000D+01
0.582515077519D-04 0.000000000000D+00 0.000000000000D+00 0.965223943401D-03 0.000000000000D+00  5 -2 2 25 23 21 2 0.13690368D-01 0.96730797D-01 0.50052610D+05 0.50052610D+05 0.50052610D+05 0.11922365D+01  1  2 15  1  5  1       -2 0.156825806205D-01 0.100000000000D+01
0.398147542718D-03 0.000000000000D+00 0.000000000000D+00 0.965223943401D-03 0.000000000000D+00  5 -2 2 25 23 21 2 0.17644935D-01 0.96730797D-01 0.72121435D+05 0.72121435D+05 0.72121435D+05 0.11768399D+01  1  2 12  1  5  1       -2 0.686287542628D-01 0.100000000000D+01
-.417590110397D-03 0.000000000000D+00 0.000000000000D+00 0.965223943401D-03 0.000000000000D+00  5 -2 2 25 23 21 2 0.13690368D-01 0.96730797D-01 0.50052610D+05 0.50052610D+05 0.50052610D+05 0.11922365D+01  1  2  4  1  5  1       -2 -.112424395958D+00 0.100000000000D+01
-.855470877771D-03 0.000000000000D+00 -.354903333188D-03 0.965223943401D-03 0.000000000000D+00  5 -2 2 25 23 21 2 0.19398976D-01 0.96730797D-01 0.50052610D+05 0.50052610D+05 0.50052610D+05 0.11922365D+01  1  2  5  1  5  1       -2 -.128753704183D+00 0.100000000000D+01
0.941892250938D-03 0.000000000000D+00 0.334387613952D-03 0.965223943401D-03 0.000000000000D+00  5 -2 2 25 23 21 2 0.13690368D-01 0.96730797D-01 0.50052610D+05 0.50052610D+05 0.50052610D+05 0.11922365D+01  1  2  6  1  5  1       -2 0.253578005639D+00 0.100000000000D+01
0.136234944517D-04 0.000000000000D+00 0.000000000000D+00 0.965223943401D-03 0.000000000000D+00  5 21 2 25 23 2 2 0.17644935D-01 0.96730797D-01 0.72121435D+05 0.72121435D+05 0.72121435D+05 0.11768399D+01  1  2 12  3  5  1       -2 0.325707694514D-01 0.100000000000D+01
-.268677158239D-04 0.000000000000D+00 -.152848095069D-04 0.965223943401D-03 0.000000000000D+00  5 21 2 25 23 2 2 0.19398976D-01 0.96730797D-01 0.50052610D+05 0.50052610D+05 0.50052610D+05 0.11922365D+01  1  2  5  3  5  1       -2 -.556893237020D-01 0.100000000000D+01
  </mgrwgt>
  </event>
  <event>
  4     66 0.46888340E-03 0.11820209E+03 0.75467711E-02 0.10941312E+00
       -2 -1    0    0    0  501 0.00000000E+00 0.00000000E+00 0.80586711E+02 0.80587346E+02 0.32000000E+00 0.0000E+00 0.9000E+01
        2 -1    0    0  501    0 0.00000000E+00 0.00000000E+00 -.93396850E+03 0.93396856E+03 0.32000000E+00 0.0000E+00 0.9000E+01
       25  1    1    2    0    0 0.63763443E+02 -.22395461E+03 -.26048319E+03 0.37107673E+03 0.12500000E+03 0.0000E+00 0.9000E+01
       23  1    1    2    0    0 -.63763443E+02 0.22395461E+03 -.59289860E+03 0.64347917E+03 0.91188000E+02 0.0000E+00 0.9000E+01
#aMCatNLO 1  0  0  1  2 0.49375504D+02 0.00000000D+00  -5  5  0 0.00000000D+00 0.00000000D+00 0.00000000D+00 0.00000000D+00 0.00000000D+00
  <mgrwgt>
 0.1999667590D+00    9    2    0
 0.274346131070906D+03 0.000000000000000D+00 0.000000000000000D+00 0.274346131070906D+03
 0.274346131070906D+03 0.000000000000000D+00 0.000000000000000D+00 -.274346131070906D+03
 0.281007195168535D+03 0.637634428779691D+02 -.223954614859604D+03 0.954913481521845D+02
 0.267685066973276D+03 -.637634428779691D+02 0.223954614859604D+03 -.954913481521845D+02
 0.000000000000000D+00 0.000000000000000D+00 0.000000000000000D+00 0.000000000000000D+00
 0.322017996135110D+03 0.000000000000000D+00 0.000000000000000D+00 0.322017996135110D+03
 0.288544072604631D+03 0.000000000000000D+00 0.000000000000000D+00 -.288544072604631D+03
 0.302108060704759D+03 0.629509892384590D+02 -.250125679858682D+03 0.954913481521845D+02
 0.248801313791845D+03 -.644830626025149D+02 0.200773951164055D+03 -.954913481521845D+02
 0.596526942431374D+02 0.153207336405592D+01 0.493517286946268D+02 0.334739235304787D+02
0.121323343869D-02 0.000000000000D+00 0.000000000000D+00 0.909934953553D-03 0.000000000000D+00  5 -2 2 25 23 21 0 0.12398009D-01 0.14368751D+00 0.66141081D+05 0.66141081D+05 0.66141081D+05 0.11804330D+01  1  2  2  1  5  1       -2 0.164374279911D+00 0.100000000000D+01
-.670596742516D-04 0.000000000000D+00 -.465913585629D-05 0.909934953553D-03 0.000000000000D+00  5 -2 2 25 23 21 2 0.12398009D-01 0.14368751D+00 0.66141081D+05 0.66141081D+05 0.66141081D+05 0.11804330D+01  1  2  3  1  5  1       -2 -.126599969382D-01 0.100000000000D+01
0.830942589157D-04 0.000000000000D+00 0.000000000000D+00 0.909934953553D-03 0.000000000000D+00  5 -2 2 25 23 21 2 0.12398009D-01 0.14368751D+00 0.66141081D+05 0.66141081D+05 0.66141081D+05 0.11804330D+01  1  2 15  1  5  1       -2 0.156871186029D-01 0.100000000000D+01
0.172696138447D-02 0.000000000000D+00 0.000000000000D+00 0.909934953553D-03 0.000000000000D+00  5 -2 2 25 23 21 2 0.14833004D-01 0.14368751D+00 0.80015861D+05 0.80015861D+05 0.80015861D+05 0.11725723D+01  1  2 12  1  5  1       -2 0.239567425194D+00 0.100000000000D+01
-.174020174573D-02 0.000000000000D+00 0.000000000000D+00 0.909934953553D-03 0.000000000000D+00  5 -2 2 25 23 21 2 0.12398009D-01 0.14368751D+00 0.66141081D+05 0.66141081D+05 0.66141081D+05 0.11804330D+01  1  2  4  1  5  1       -2 -.328527524459D+00 0.100000000000D+01
-.332511832986D-02 0.000000000000D+00 -.760176032431D-03 0.909934953553D-03 0.000000000000D+00  5 -2 2 25 23 21 2 0.15284545D-01 0.14368751D+00 0.66141081D+05 0.66141081D+05 0.66141081D+05 0.11804330D+01  1  2  5  1  5  1       -2 -.445110247899D+00 0.100000000000D+01
0.342527714079D-02 0.000000000000D+00 0.743823338897D-03 0.909934953553D-03 0.000000000000D+00  5 -2 2 25 23 21 2 0.12398009D-01 0.14368751D+00 0.66141081D+05 0.66141081D+05 0.66141081D+05 0.11804330D+01  1  2  6  1  5  1       -2 0.646647908733D+00 0.100000000000D+01
0.454117066725D-04 0.000000000000D+00 0.000000000000D+00 0.909934953553D-03 0.000000000000D+00  5 21 2 25 23 2 2 0.14833004D-01 0.14368751D+00 0.80015861D+05 0.80015861D+05 0.80015861D+05 0.11725723D+01  1  2 12  3  5  1       -2 0.898308790456D-01 0.100000000000D+01
-.890537083489D-04 0.000000000000D+00 -.225227071823D-04 0.909934953553D-03 0.000000000000D+00  5 21 2 25 23 2 2 0.15284545D-01 0.14368751D+00 0.66141081D+05 0.66141081D+05 0.66141081D+05 0.11804330D+01  1  2  5  3  5  1       -2 -.169843083158D+00 0.100000000000D+01
  </mgrwgt>
  </event>
  <event>
  5     66 0.46888340E-03 0.13620593E+03 0.75467711E-02 0.11702679E+00
       21 -1    0    0  502  501 0.00000000E+00 0.00000000E+00 0.43200799E+03 0.43200864E+03 0.75000000E+00 0.0000E+00 0.9000E+01
        2 -1    0    0  501    0 0.00000000E+00 0.00000000E+00 -.39896057E+03 0.39896070E+03 0.32000000E+00 0.0000E+00 0.9000E+01
       25  1    1    2    0    0 -.40736695E+02 -.63449865E+02 -.16080400E+03 0.21718262E+03 0.12500000E+03 0.0000E+00 0.9000E+01
       23  1    1    2    0    0 -.23392136E+02 0.98198155E+02 -.18407495E+03 0.22888623E+03 0.91188000E+02 0.0000E+00 0.9000E+01
        2  1    1    2  502    0 0.64128830E+02 -.34748290E+02 0.37792636E+03 0.38490049E+03 0.32000000E+00 0.0000E+00 0.9000E+01
#aMCatNLO 2  0  0  1  2 0.72937991D+02 0.00000000D+00  -5  5  0 0.00000000D+00 0.00000000D+00 0.00000000D+00 0.00000000D+00 0.00000000D+00
  <mgrwgt>
 0.1873149448D+00    2    2    0
 0.136671120946697D+03 0.000000000000000D+00 0.000000000000000D+00 0.136671120946697D+03
 0.136671120946697D+03 0.000000000000000D+00 0.000000000000000D+00 -.136671120946697D+03
 0.150042176597237D+03 -.655920952133847D+01 -.819689795218490D+02 0.112124004851077D+02
 0.123300065296157D+03 0.655920952133847D+01 0.819689795218490D+02 -.112124004851077D+02
 0.000000000000000D+00 0.000000000000000D+00 -.000000000000000D+00 0.000000000000000D+00
 0.120780664461138D+04 0.000000000000000D+00 0.000000000000000D+00 0.120780664461138D+04
 0.142700341654556D+03 0.000000000000000D+00 0.000000000000000D+00 -.142700341654556D+03
 0.146410660728762D+03 -.407366946380624D+02 -.634498649357068D+02 0.112124004851077D+02
 0.136495563499976D+03 -.233921355784746D+02 0.981981546650228D+02 -.112124004851077D+02
 0.106760076203720D+04 0.641288302165370D+02 -.347482897293160D+02 0.106510630295682D+04
-.655086719049D-03 0.000000000000D+00 0.000000000000D+00 0.144919649731D-02 0.000000000000D+00  5 21 2 25 23 2 2 0.64517805D-01 0.58785297D-01 0.31497899D+05 0.31497899D+05 0.31497899D+05 0.12126838D+01  1  2 13  3  5  1       -2 -.224623487241D+00 0.100000000000D+01
0.134249065426D-02 0.000000000000D+00 0.000000000000D+00 0.144919649731D-02 0.260316132589D-05  5 21 2 25 23 2 2 0.66462816D-01 0.61378599D-01 0.31497899D+05 0.31497899D+05 0.31497899D+05 0.12126838D+01  1  2  1  3  5  1       -2 0.411938432043D+00 0.100000000000D+01
  </mgrwgt>
  </event>
  <event>
  4     66 0.46888340E-03 0.10990884E+03 0.75467711E-02 0.12343133E+00
       -2 -1    0    0    0  501 0.00000000E+00 0.00000000E+00 0.12219539E+02 0.12223728E+02 0.32000000E+00 0.0000E+00 0.9000E+01
        2 -1    0    0  501    0 0.00000000E+00 0.00000000E+00 -.10391307E+04 0.10391307E+04 0.32000000E+00 0.0000E+00 0.9000E+01
       25  1    1    2    0    0 -.18938752E+02 0.52538722E+01 -.70221352E+03 0.71352303E+03 0.12500000E+03 0.0000E+00 0.9000E+01
       23  1    1    2    0    0 0.18938752E+02 -.52538722E+01 -.32469759E+03 0.33783141E+03 0.91188000E+02 0.0000E+00 0.9000E+01
#aMCatNLO 1  0  0  1  2 0.29204833D+02 0.00000000D+00  -5  5  0 0.00000000D+00 0.00000000D+00 0.00000000D+00 0.00000000D+00 0.00000000D+00
  <mgrwgt>
 0.8273497785D-01    4    2    0
 0.112693946166141D+03 0.000000000000000D+00 0.000000000000000D+00 0.112693946166141D+03
 0.112693946166141D+03 0.000000000000000D+00 0.000000000000000D+00 -.112693946166141D+03
 0.128909876357333D+03 -.189387522855180D+02 0.525387218793749D+01 -.246267478844318D+02
 0.964780159749503D+02 0.189387522855180D+02 -.525387218793749D+01 0.246267478844318D+02
 0.000000000000000D+00 -.000000000000000D+00 -.000000000000000D+00 -.000000000000000D+00
 0.124986684618053D+03 0.000000000000000D+00 0.000000000000000D+00 0.124986684618053D+03
 0.132421882955786D+03 0.000000000000000D+00 0.000000000000000D+00 -.132421882955786D+03
 0.128919459549021D+03 -.817913629306686D+01 0.179402360226325D+02 -.246267478844318D+02
 0.983526775031378D+02 0.270693377287841D+02 0.433267487793518D+01 0.246267478844318D+02
 0.301364305216796D+02 -.188902014357172D+02 -.222729109005676D+02 -.743519833773261D+01
0.882592648939D-04 0.000000000000D+00 0.000000000000D+00 0.175087648339D-02 0.000000000000D+00  5 -2 2 25 23 21 0 0.18802551D-02 0.15986658D+00 0.12079953D+05 0.12079953D+05 0.12079953D+05 0.12586862D+01  1  2  2  1  5  1       -2 0.174465063781D+00 0.100000000000D+01
-.489955916088D-05 0.000000000000D+00 -.338938816391D-06 0.175087648339D-02 0.000000000000D+00  5 -2 2 25 23 21 2 0.18802551D-02 0.15986658D+00 0.12079953D+05 0.12079953D+05 0.12079953D+05 0.12586862D+01  1  2  3  1  5  1       -2 -.153440549793D-01 0.100000000000D+01
0.603610600925D-05 0.000000000000D+00 0.000000000000D+00 0.175087648339D-02 0.000000000000D+00  5 -2 2 25 23 21 2 0.18802551D-02 0.15986658D+00 0.12079953D+05 0.12079953D+05 0.12079953D+05 0.12586862D+01  1  2 15  1  5  1       -2 0.189034032299D-01 0.100000000000D+01
-.304271733125D-04 0.000000000000D+00 0.000000000000D+00 0.175087648339D-02 0.000000000000D+00  5 -2 2 25 23 21 2 0.18802551D-02 0.15986658D+00 0.12079953D+05 0.12079953D+05 0.12079953D+05 0.12586862D+01  1  2  4  1  5  1       -2 -.952894341799D-01 0.100000000000D+01
  </mgrwgt>
  </event>
  <event>
  4     66 0.46888340E-03 0.12184720E+03 0.75467711E-02 0.11536229E+00
       -2 -1    0    0    0  501 0.00000000E+00 0.00000000E+00 0.77368701E+02 0.77369362E+02 0.32000000E+00 0.0000E+00 0.9000E+01
        2 -1    0    0  501    0 0.00000000E+00 0.00000000E+00 -.19589216E+03 0.19589242E+03 0.32000000E+00 0.0000E+00 0.9000E+01
       25  1    1    2    0    0 -.11137875E+02 -.54566422E+02 -.47033823E+02 0.14470220E+03 0.12500000E+03 0.0000E+00 0.9000E+01
       23  1    1    2    0    0 0.11137875E+02 0.54566422E+02 -.71489636E+02 0.12855958E+03 0.91188000E+02 0.0000E+00 0.9000E+01
#aMCatNLO 1  0  0  2  2 0.11951740D+03 0.00000000D+00  -5  5  0 0.00000000D+00 0.00000000D+00 0.00000000D+00 0.00000000D+00 0.00000000D+00
  <mgrwgt>
 0.1240101505D+00    5    2    0
 0.123109901876455D+03 0.000000000000000D+00 0.000000000000000D+00 0.123109901876455D+03
 0.123109901876455D+03 0.000000000000000D+00 0.000000000000000D+00 -.123109901876455D+03
 0.137953851356927D+03 -.111378746400523D+02 -.545664215279389D+02 0.174561878526489D+02
 0.108265952395983D+03 0.111378746400523D+02 0.545664215279389D+02 -.174561878526489D+02
 0.000000000000000D+00 -.000000000000000D+00 0.000000000000000D+00 -.000000000000000D+00
 0.192894959483276D+03 0.000000000000000D+00 0.000000000000000D+00 0.192894959483276D+03
 0.200562490211530D+03 0.000000000000000D+00 0.000000000000000D+00 -.200562490211530D+03
 0.156233794255959D+03 0.533006637250282D+02 -.750887422969506D+02 0.174561878526489D+02
 0.117460560267069D+03 0.605807617332579D+02 0.388199006660899D+02 -.174561878526489D+02
 0.119763095171778D+03 -.113881425458286D+03 0.362688416308607D+02 -.766753072825443D+01
0.151494969652D-03 0.000000000000D+00 0.000000000000D+00 0.159825946583D-02 0.000000000000D+00  5 -2 2 25 23 21 0 0.11902948D-01 0.30137326D-01 0.14846739D+05 0.14846739D+05 0.14846739D+05 0.12483313D+01  1  2  2  2  5  2        2 0.124312839757D+00 0.100000000000D+01
-.841529952603D-05 0.000000000000D+00 -.581780573007D-06 0.159825946583D-02 0.000000000000D+00  5 -2 2 25 23 21 2 0.11902948D-01 0.30137326D-01 0.14846739D+05 0.14846739D+05 0.14846739D+05 0.12483313D+01  1  2  3  2  5  2        2 -.107608626230D-01 0.100000000000D+01
0.104639275164D-04 0.000000000000D+00 0.000000000000D+00 0.159825946583D-02 0.000000000000D+00  5 -2 2 25 23 21 2 0.11902948D-01 0.30137326D-01 0.14846739D+05 0.14846739D+05 0.14846739D+05 0.12483313D+01  1  2 15  2  5  2        2 0.133804965769D-01 0.100000000000D+01
-.110273480592D-04 0.000000000000D+00 -.565374970934D-04 0.159825946583D-02 0.000000000000D+00  5 -2 2 25 23 21 2 0.11902948D-01 0.73595367D-01 0.14846739D+05 0.14846739D+05 0.14846739D+05 0.12483313D+01  1  2  5  2  5  2        2 -.545114841092D-02 0.100000000000D+01
0.245206687105D-05 0.000000000000D+00 -.553642599273D-05 0.159825946583D-02 0.000000000000D+00  5 -2 21 25 23 -2 2 0.11902948D-01 0.73595367D-01 0.14846739D+05 0.14846739D+05 0.14846739D+05 0.12483313D+01  1  2  5  4  5  2        2 0.252882519115D-02 0.100000000000D+01
  </mgrwgt>
  </event>
  <event>
  4     66 0.46888340E-03 0.19167142E+03 0.75467711E-02 0.11471701E+00
       -2 -1    0    0    0  501 0.00000000E+00 0.00000000E+00 0.27719845E+02 0.27721692E+02 0.32000000E+00 0.0000E+00 0.9000E+01
        2 -1    0    0  501    0 0.00000000E+00 0.00000000E+00 -.13266835E+04 0.13266836E+04 0.32000000E+00 0.0000E+00 0.9000E+01
       25  1    1    2    0    0 -.15098479E+03 0.45412583E+02 -.70372480E+03 0.73192370E+03 0.12500000E+03 0.0000E+00 0.9000E+01
       23  1    1    2    0    0 0.15098479E+03 -.45412583E+02 -.59523888E+03 0.62248155E+03 0.91188000E+02 0.0000E+00 0.9000E+01
#aMCatNLO 1  0  0  2  2 0.22167730D+02 0.00000000D+00  -5  5  0 0.00000000D+00 0.00000000D+00 0.00000000D+00 0.00000000D+00 0.00000000D+00
  <mgrwgt>
 0.1037889983D+00    4    2    0
 0.191772622856804D+03 0.000000000000000D+00 0.000000000000000D+00 0.191772622856804D+03
 0.191772622856804D+03 0.000000000000000D+00 0.000000000000000D+00 -.191772622856804D+03
 0.201301809748952D+03 -.150984792709084D+03 0.454125833096563D+02 -.622159593207567D+01
 0.182243435964655D+03 0.150984792709084D+03 -.454125833096563D+02 0.622159593207567D+01
 0.000000000000000D+00 0.000000000000000D+00 0.000000000000000D+00 0.000000000000000D+00
 0.217946270104301D+03 0.000000000000000D+00 0.000000000000000D+00 0.217946270104301D+03
 0.196844496635450D+03 0.000000000000000D+00 0.000000000000000D+00 -.196844496635450D+03
 0.205860102529436D+03 -.159202139151191D+03 0.370047624931244D+02 -.622159593207567D+01
 0.178325222211048D+03 0.143707791862379D+03 -.528582617451330D+02 0.622159593207567D+01
 0.306054419992666D+02 0.154943472888126D+02 0.158534992520086D+02 0.211017734688509D+02
0.459441257980D-03 0.000000000000D+00 0.000000000000D+00 0.115832149320D-02 0.000000000000D+00  5 -2 2 25 23 21 0 0.42647366D-02 0.20410530D+00 0.36737935D+05 0.36737935D+05 0.36737935D+05 0.12057702D+01  1  2  2  2  5  2        2 0.193084170687D+00 0.100000000000D+01
-.255245056856D-04 0.000000000000D+00 -.176437540430D-05 0.115832149320D-02 0.000000000000D+00  5 -2 2 25 23 21 2 0.42647366D-02 0.20410530D+00 0.36737935D+05 0.36737935D+05 0.36737935D+05 0.12057702D+01  1  2  3  2  5  2        2 -.155956371358D-01 0.100000000000D+01
0.314932567505D-04 0.000000000000D+00 0.000000000000D+00 0.115832149320D-02 0.000000000000D+00  5 -2 2 25 23 21 2 0.42647366D-02 0.20410530D+00 0.36737935D+05 0.36737935D+05 0.36737935D+05 0.12057702D+01  1  2 15  2  5  2        2 0.192425824248D-01 0.100000000000D+01
-.152113157776D-03 0.000000000000D+00 0.000000000000D+00 0.115832149320D-02 0.000000000000D+00  5 -2 2 25 23 21 2 0.42647366D-02 0.20410530D+00 0.36737935D+05 0.36737935D+05 0.36737935D+05 0.12057702D+01  1  2  4  2  5  2        2 -.929421177232D-01 0.100000000000D+01
  </mgrwgt>
  </event>
  <event>
  4     66 0.46888340E-03 0.16028480E+03 0.75467711E-02 0.11095222E+00
       -2 -1    0    0    0  501 0.00000000E+00 0.00000000E+00 0.29292807E+03 0.29292824E+03 0.32000000E+00 0.0000E+00 0.9000E+01
        2 -1    0    0  501    0 0.00000000E+00 0.00000000E+00 -.98889953E+02 0.98890471E+02 0.32000000E+00 0.0000E+00 0.9000E+01
       25  1    1    2    0    0 -.11187041E+03 0.36552536E+02 0.16887960E+03 0.24082441E+03 0.12500000E+03 0.0000E+00 0.9000E+01
       23  1    1    2    0    0 0.11187041E+03 -.36552536E+02 0.25158511E+02 0.15099430E+03 0.91188000E+02 0.0000E+00 0.9000E+01
#aMCatNLO 1  0  0  1  2 0.15571830D+03 0.00000000D+00  -5  5  0 0.00000000D+00 0.00000000D+00 0.00000000D+00 0.00000000D+00 0.00000000D+00
  <mgrwgt>
 0.1564264801D+00    3    2    0
 0.170199232436402D+03 0.000000000000000D+00 0.000000000000000D+00 0.170199232436402D+03
 0.170199232436402D+03 0.000000000000000D+00 0.000000000000000D+00 -.170199232436402D+03
 0.180936279471457D+03 -.111870412336718D+03 0.365525364781929D+02 0.571126969210544D+02
 0.159462185401346D+03 0.111870412336718D+03 -.365525364781929D+02 -.571126969210544D+02
 0.000000000000000D+00 -.000000000000000D+00 0.000000000000000D+00 -.000000000000000D+00
 0.236752014717248D+03 0.000000000000000D+00 0.000000000000000D+00 0.236752014717248D+03
 0.309407263537975D+03 0.000000000000000D+00 0.000000000000000D+00 -.309407263537975D+03
 0.179725316598979D+03 -.107964519900262D+03 -.419284118434379D+02 0.571126969210544D+02
 0.194599814557864D+03 0.115704832476664D+03 -.113597394661611D+03 -.571126969210544D+02
 0.171834147098381D+03 -.774031257640236D+01 0.155525806505049D+03 -.726552488207268D+02
0.865642096940D-03 0.000000000000D+00 0.000000000000D+00 0.111617285820D-02 0.000000000000D+00  5 -2 2 25 23 21 0 0.45065910D-01 0.15213892D-01 0.25691216D+05 0.25691216D+05 0.25691216D+05 0.12220298D+01  1  2  2  1  5  1       -2 0.153272022212D+00 0.100000000000D+01
-.478806058695D-04 0.000000000000D+00 -.332429358105D-05 0.111617285820D-02 0.000000000000D+00  5 -2 2 25 23 21 2 0.45065910D-01 0.15213892D-01 0.25691216D+05 0.25691216D+05 0.25691216D+05 0.12220298D+01  1  2  3  1  5  1       -2 -.126604090603D-01 0.100000000000D+01
0.598105010480D-04 0.000000000000D+00 0.000000000000D+00 0.111617285820D-02 0.000000000000D+00  5 -2 2 25 23 21 2 0.45065910D-01 0.15213892D-01 0.25691216D+05 0.25691216D+05 0.25691216D+05 0.12220298D+01  1  2 15  1  5  1       -2 0.158148669094D-01 0.100000000000D+01
  </mgrwgt>
  </event>
  <event>
  4     66 0.46888340E-03 0.12008490E+03 0.75467711E-02 0.10181981E+00
       -2 -1    0    0    0  501 0.00000000E+00 0.00000000E+00 0.21609875E+03 0.21609899E+03 0.32000000E+00 0.0000E+00 0.9000E+01
        2 -1    0    0  501    0 0.00000000E+00 0.00000000E+00 -.66814981E+02 0.66815747E+02 0.32000000E+00 0.0000E+00 0.9000E+01
       25  1    1    2    0    0 0.48767273E+02 0.17423987E+02 0.89096857E+02 0.16200337E+03 0.12500000E+03 0.0000E+00 0.9000E+01
       23  1    1    2    0    0 -.48767273E+02 -.17423987E+02 0.60186914E+02 0.12091136E+03 0.91188000E+02 0.0000E+00 0.9000E+01
#aMCatNLO 1  0  0  1  2 0.45360141D+03 0.00000000D+00  -5  5  0 0.00000000D+00 0.00000000D+00 0.00000000D+00 0.00000000D+00 0.00000000D+00
  <mgrwgt>
 0.1336134024D+00    5    2    0
 0.120161457383846D+03 0.000000000000000D+00 0.000000000000000D+00 0.120161457383846D+03
 0.120161457383846D+03 0.000000000000000D+00 0.000000000000000D+00 -.120161457383846D+03
 0.135369638141528D+03 0.487672726298920D+02 0.174239870433656D+02 0.425402472050399D+01
 0.104953276626165D+03 -.487672726298920D+02 -.174239870433656D+02 -.425402472050399D+01
 0.000000000000000D+00 -.000000000000000D+00 0.000000000000000D+00 0.000000000000000D+00
 0.645611303308973D+03 0.000000000000000D+00 0.000000000000000D+00 0.645611303308973D+03
 0.388917136551162D+03 0.000000000000000D+00 0.000000000000000D+00 -.388917136551162D+03
 0.356688840625875D+03 0.313500109413689D+03 -.115332188474480D+03 0.425402472050399D+01
 0.156642770217995D+03 0.919742582262761D+02 -.880019614268414D+02 -.425402472050399D+01
 0.521196829016265D+03 -.405474367639965D+03 0.203334149901321D+03 0.256694166757811D+03
0.261163535403D-03 0.000000000000D+00 0.000000000000D+00 0.166821141265D-02 0.000000000000D+00  5 -2 2 25 23 21 0 0.33246039D-01 0.10279305D-01 0.14420384D+05 0.14420384D+05 0.14420384D+05 0.12497783D+01  1  2  2  1  5  1       -2 0.128923843031D+00 0.100000000000D+01
-.145090781354D-04 0.000000000000D+00 -.100293674188D-05 0.166821141265D-02 0.000000000000D+00  5 -2 2 25 23 21 2 0.33246039D-01 0.10279305D-01 0.14420384D+05 0.14420384D+05 0.14420384D+05 0.12497783D+01  1  2  3  1  5  1       -2 -.111873313727D-01 0.100000000000D+01
0.180589506731D-04 0.000000000000D+00 0.000000000000D+00 0.166821141265D-02 0.000000000000D+00  5 -2 2 25 23 21 2 0.33246039D-01 0.10279305D-01 0.14420384D+05 0.14420384D+05 0.14420384D+05 0.12497783D+01  1  2 15  1  5  1       -2 0.139244866928D-01 0.100000000000D+01
0.449350268840D-03 0.000000000000D+00 -.187631535819D-03 0.166821141265D-02 0.000000000000D+00  5 -2 2 25 23 21 2 0.38189577D+00 0.10279305D-01 0.14420384D+05 0.14420384D+05 0.14420384D+05 0.12497783D+01  1  2  5  1  5  1       -2 0.548283085831D-03 0.100000000000D+01
0.941907088341D-04 0.000000000000D+00 -.536194995266D-04 0.166821141265D-02 0.000000000000D+00  5 21 2 25 23 2 2 0.38189577D+00 0.10279305D-01 0.14420384D+05 0.14420384D+05 0.14420384D+05 0.12497783D+01  1  2  5  3  5  1       -2 0.140412099844D-02 0.100000000000D+01
  </mgrwgt>
  </event>
  <event>
  4     66 0.46888340E-03 0.10832533E+03 0.75467711E-02 0.12194101E+00
       -2 -1    0    0    0  501 0.00000000E+00 0.00000000E+00 0.31382804E+03 0.31382820E+03 0.32000000E+00 0.0000E+00 0.9000E+01
        2 -1    0    0  501    0 0.00000000E+00 0.00000000E+00 -.46514003E+02 0.46515104E+02 0.32000000E+00 0.0000E+00 0.9000E+01
       25  1    1    2    0    0 -.67221531E+01 0.19124235E+01 0.22940237E+03 0.26134133E+03 0.12500000E+03 0.0000E+00 0.9000E+01
       23  1    1    2    0    0 0.67221531E+01 -.19124235E+01 0.37911664E+02 0.99001971E+02 0.91188000E+02 0.0000E+00 0.9000E+01
#aMCatNLO 1  0  0  1  2 0.49035454D+02 0.00000000D+00  -5  5  0 0.00000000D+00 0.00000000D+00 0.00000000D+00 0.00000000D+00 0.00000000D+00
  <mgrwgt>
 0.1597574678D+00    3    2    0
 0.120820635719832D+03 0.000000000000000D+00 0.000000000000000D+00 0.120820635719832D+03
 0.120820635719832D+03 0.000000000000000D+00 0.000000000000000D+00 -.120820635719832D+03
 0.135945843041515D+03 -.672215307163034D+01 0.191242345576084D+01 0.529851633466914D+02
 0.105695428398149D+03 0.672215307163034D+01 -.191242345576084D+01 -.529851633466914D+02
 0.000000000000000D+00 0.000000000000000D+00 0.000000000000000D+00 -.000000000000000D+00
 0.125263963668021D+03 0.000000000000000D+00 0.000000000000000D+00 0.125263963668021D+03
 0.426760050524906D+03 0.000000000000000D+00 0.000000000000000D+00 -.426760050524906D+03
 0.139027909325730D+03 -.199248386246619D+02 -.223457566976179D+02 0.529851633466914D+02
 0.107538470867557D+03 -.351613366306848D+01 -.207239147296133D+02 -.529851633466914D+02
 0.305457633999640D+03 0.234409722877304D+02 0.430696714272312D+02 -.301496086856885D+03
0.411815143255D-03 0.000000000000D+00 0.000000000000D+00 0.141989176112D-02 0.000000000000D+00  5 -2 2 25 23 21 0 0.48281334D-01 0.71560977D-02 0.11734377D+05 0.11734377D+05 0.11734377D+05 0.12601650D+01  1  2  2  1  5  1       -2 0.156328852898D+00 0.100000000000D+01
-.225471044160D-04 0.000000000000D+00 -.158147858352D-05 0.141989176112D-02 0.000000000000D+00  5 -2 2 25 23 21 2 0.48281334D-01 0.71560977D-02 0.11734377D+05 0.11734377D+05 0.11734377D+05 0.12601650D+01  1  2  3  1  5  1       -2 -.135919711653D-01 0.100000000000D+01
0.282346781241D-04 0.000000000000D+00 0.000000000000D+00 0.141989176112D-02 0.000000000000D+00  5 -2 2 25 23 21 2 0.48281334D-01 0.71560977D-02 0.11734377D+05 0.11734377D+05 0.11734377D+05 0.12601650D+01  1  2 15  1  5  1       -2 0.170205860515D-01 0.100000000000D+01
  </mgrwgt>
  </event>
  <event>
  4     66 0.46888340E-03 0.80618184E+02 0.75467711E-02 0.12110244E+00
       -2 -1    0    0    0  501 0.00000000E+00 0.00000000E+00 0.59124151E+02 0.59125017E+02 0.32000000E+00 0.0000E+00 0.9000E+01
        2 -1    0    0  501    0 0.00000000E+00 0.00000000E+00 -.29095979E+03 0.29095996E+03 0.32000000E+00 0.0000E+00 0.9000E+01
       25  1    1    2    0    0 -.38773773E+02 -.58323142E+02 -.97741959E+02 0.17344591E+03 0.12500000E+03 0.0000E+00 0.9000E+01
       23  1    1    2    0    0 0.38773773E+02 0.58323142E+02 -.13409368E+03 0.17663907E+03 0.91188000E+02 0.0000E+00 0.9000E+01
#aMCatNLO 1  0  0  2  1 0.24117793D+02 0.00000000D+00  -5  5  0 0.00000000D+00 0.00000000D+00 0.00000000D+00 0.00000000D+00 0.00000000D+00
  <mgrwgt>
 0.1929308966D+00    9    2    0
 0.131159951158359D+03 0.000000000000000D+00 0.000000000000000D+00 0.131159951158359D+03
 0.131159951158359D+03 0.000000000000000D+00 0.000000000000000D+00 -.131159951158359D+03
 0.145092841098167D+03 -.387737732065867D+02 -.583231415790716D+02 0.228459669440708D+02
 0.117227061218551D+03 0.387737732065867D+02 0.583231415790716D+02 -.228459669440708D+02
 0.000000000000000D+00 0.000000000000000D+00 0.000000000000000D+00 -.000000000000000D+00
 0.133740168868245D+03 0.000000000000000D+00 0.000000000000000D+00 0.133740168868245D+03
 0.203451918624547D+03 0.000000000000000D+00 0.000000000000000D+00 -.203451918624547D+03
 0.151694302213436D+03 -.499471606262698D+02 -.661022258610492D+02 0.228459669440708D+02
 0.111731966602720D+03 0.301539661201487D+02 0.523218992251490D+02 -.228459669440708D+02
 0.737658186766371D+02 0.197931945061210D+02 0.137803266359002D+02 -.697117497563019D+02
0.189288363434D-03 0.000000000000D+00 0.000000000000D+00 0.148026727163D-02 0.000000000000D+00  5 -2 2 25 23 21 0 0.90961034D-02 0.44763124D-01 0.16674847D+05 0.16674847D+05 0.16674847D+05 0.12426157D+01  1  2  2  2  5  2        2 0.156223593074D+00 0.100000000000D+01
-.105129128932D-04 0.000000000000D+00 -.726917156358D-06 0.148026727163D-02 0.000000000000D+00  5 -2 2 25 23 21 2 0.90961034D-02 0.44763124D-01 0.16674847D+05 0.16674847D+05 0.16674847D+05 0.12426157D+01  1  2  3  2  5  2        2 -.133973656591D-01 0.100000000000D+01
0.130493116921D-04 0.000000000000D+00 0.000000000000D+00 0.148026727163D-02 0.000000000000D+00  5 -2 2 25 23 21 2 0.90961034D-02 0.44763124D-01 0.16674847D+05 0.16674847D+05 0.16674847D+05 0.12426157D+01  1  2 15  2  5  2        2 0.166296821931D-01 0.100000000000D+01
0.106499871043D-02 0.000000000000D+00 0.000000000000D+00 0.148026727163D-02 0.000000000000D+00  5 -2 2 25 23 21 2 0.90961034D-02 0.69676227D-01 0.20086433D+05 0.20086433D+05 0.20086433D+05 0.12336199D+01  1  2 12  2  5  2        2 0.839522794825D+00 0.100000000000D+01
-.999783189972D-03 0.000000000000D+00 0.000000000000D+00 0.148026727163D-02 0.000000000000D+00  5 -2 2 25 23 21 2 0.90961034D-02 0.44763124D-01 0.16674847D+05 0.16674847D+05 0.16674847D+05 0.12426157D+01  1  2  4  2  5  2        2 -.127409606756D+01 0.100000000000D+01
-.113368344224D-02 0.000000000000D+00 -.878723280034D-04 0.148026727163D-02 0.000000000000D+00  5 -2 2 25 23 21 2 0.90961034D-02 0.70105803D-01 0.16674847D+05 0.16674847D+05 0.16674847D+05 0.12426157D+01  1  2  5  2  5  2        2 -.896275786692D+00 0.100000000000D+01
0.107160522306D-02 0.000000000000D+00 0.797151222979D-04 0.148026727163D-02 0.000000000000D+00  5 -2 2 25 23 21 2 0.90961034D-02 0.44763124D-01 0.16674847D+05 0.16674847D+05 0.16674847D+05 0.12426157D+01  1  2  6  2  5  2        2 0.136562408168D+01 0.100000000000D+01
0.546416173511D-04 0.000000000000D+00 0.000000000000D+00 0.148026727163D-02 0.000000000000D+00  5 -2 21 25 23 -2 2 0.90961034D-02 0.69676227D-01 0.20086433D+05 0.20086433D+05 0.20086433D+05 0.12336199D+01  1  2 12  4  5  2        2 0.945763094644D-01 0.100000000000D+01
-.552917364186D-04 0.000000000000D+00 -.455569001817D-05 0.148026727163D-02 0.000000000000D+00  5 -2 21 25 23 -2 2 0.90961034D-02 0.70105803D-01 0.16674847D+05 0.16674847D+05 0.16674847D+05 0.12426157D+01  1  2  5  4  5  2        2 -.958763447471D-01 0.100000000000D+01
  </mgrwgt>
  </event>
  <event>
  4     66 0.46888340E-03 0.11946302E+03 0.75467711E-02 0.12395893E+00
       -4 -1    0    0    0  501 0.00000000E+00 0.00000000E+00 0.22253040E+02 0.22306956E+02 0.15500000E+01 0.0000E+00 0.9000E+01
        4 -1    0    0  501    0 0.00000000E+00 0.00000000E+00 -.66211062E+03 0.66211244E+03 0.15500000E+01 0.0000E+00 0.9000E+01
       25  1    1    2    0    0 -.28201431E+02 -.41712934E+02 -.29821888E+03 0.32725340E+03 0.12500000E+03 0.0000E+00 0.9000E+01
       23  1    1    2    0    0 0.28201431E+02 0.41712934E+02 -.34163871E+03 0.35716599E+03 0.91188000E+02 0.0000E+00 0.9000E+01
#aMCatNLO 1  0  0  1  1 0.53237658D+01 0.00000000D+00  -5  5  0 0.00000000D+00 0.00000000D+00 0.00000000D+00 0.00000000D+00 0.00000000D+00
  <mgrwgt>
 0.7132280397D-02    6    2    0
 0.121462112762701D+03 0.000000000000000D+00 0.000000000000000D+00 0.121462112762701D+03
 0.121462112762701D+03 0.000000000000000D+00 0.000000000000000D+00 -.121462112762701D+03
 0.136507439428229D+03 -.282014306461027D+02 -.417129341842190D+02 0.217713447105979D+02
 0.106416786097174D+03 0.282014306461027D+02 0.417129341842190D+02 -.217713447105979D+02
 0.000000000000000D+00 0.000000000000000D+00 0.000000000000000D+00 -.000000000000000D+00
 0.121849203858692D+03 0.000000000000000D+00 0.000000000000000D+00 0.121849203858692D+03
 0.141287573913371D+03 0.000000000000000D+00 0.000000000000000D+00 -.141287573913371D+03
 0.137222378153310D+03 -.311927513636906D+02 -.419285329805998D+02 0.217713447105979D+02
 0.105760176424765D+03 0.258827598144251D+02 0.415458164834744D+02 -.217713447105979D+02
 0.201542231939881D+02 0.530999154926554D+01 0.382716497125353D+00 -.194383700546791D+02
0.108037574912D-03 0.000000000000D+00 0.000000000000D+00 0.160873907883D-02 0.000000000000D+00  5 -4 4 25 23 21 0 0.34278316D-02 0.10186746D+00 0.14271414D+05 0.14271414D+05 0.14271414D+05 0.12502953D+01  1  2  2  1  5  1       -4 0.626040196255D-02 0.100000000000D+01
-.600007764529D-05 0.000000000000D+00 -.414892734608D-06 0.160873907883D-02 0.000000000000D+00  5 -4 4 25 23 21 2 0.34278316D-02 0.10186746D+00 0.14271414D+05 0.14271414D+05 0.14271414D+05 0.12502953D+01  1  2  3  1  5  1       -4 -.543512386786D-03 0.100000000000D+01
0.743946849717D-05 0.000000000000D+00 0.000000000000D+00 0.160873907883D-02 0.000000000000D+00  5 -4 4 25 23 21 2 0.34278316D-02 0.10186746D+00 0.14271414D+05 0.14271414D+05 0.14271414D+05 0.12502953D+01  1  2 15  1  5  1       -4 0.673898492378D-03 0.100000000000D+01
-.604851599997D-05 0.000000000000D+00 0.000000000000D+00 0.160873907883D-02 0.000000000000D+00  5 -4 4 25 23 21 2 0.34278316D-02 0.10186746D+00 0.14271414D+05 0.14271414D+05 0.14271414D+05 0.12502953D+01  1  2  4  1  5  1       -4 -.547900137631D-03 0.100000000000D+01
0.286843930701D-05 0.000000000000D+00 0.000000000000D+00 0.160873907883D-02 0.476846260485D-03  5 -4 4 25 23 21 2 0.34387558D-02 0.11849461D+00 0.14920999D+05 0.14920999D+05 0.14920999D+05 0.12480841D+01  1  2 11  1  5  1       -4 0.181426276014D-03 0.100000000000D+01
0.610013689778D-06 0.000000000000D+00 0.000000000000D+00 0.160873907883D-02 0.306897152929D-06  5 21 4 25 23 4 2 0.34387558D-02 0.11849461D+00 0.14920999D+05 0.14920999D+05 0.14920999D+05 0.12480841D+01  1  2 11  3  5  1       -4 0.110796619070D-02 0.100000000000D+01
  </mgrwgt>
  </event>
  <event>
  4     66 0.46888340E-03 0.96682340E+02 0.75467711E-02 0.11504158E+00
       -2 -1    0    0    0  501 0.00000000E+00 0.00000000E+00 0.92686339E+02 0.92686892E+02 0.32000000E+00 0.0000E+00 0.9000E+01
        2 -1    0    0  501    0 0.00000000E+00 0.00000000E+00 -.31680517E+03 0.31680534E+03 0.32000000E+00 0.0000E+00 0.9000E+01
       25  1    1    2    0    0 -.12202962E+03 -.38587526E+02 -.78920908E+02 0.19553449E+03 0.12500000E+03 0.0000E+00 0.9000E+01
       23  1    1    2    0    0 0.12202962E+03 0.38587526E+02 -.14519793E+03 0.21395774E+03 0.91188000E+02 0.0000E+00 0.9000E+01
#aMCatNLO 1  0  0  1  2 0.57471910D+02 0.00000000D+00  -5  5  0 0.00000000D+00 0.00000000D+00 0.00000000D+00 0.00000000D+00 0.00000000D+00
  <mgrwgt>
 0.3874515093D-01    7    2    0
 0.171358273811253D+03 0.000000000000000D+00 0.000000000000000D+00 0.171358273811253D+03
 0.171358273811253D+03 0.000000000000000D+00 0.000000000000000D+00 -.171358273811253D+03
 0.182022697088607D+03 -.122029621192131D+03 -.385875264515950D+02 0.335713659159616D+02
 0.160693850533898D+03 0.122029621192131D+03 0.385875264515950D+02 -.335713659159616D+02
 0.000000000000000D+00 -.000000000000000D+00 -.000000000000000D+00 0.000000000000000D+00
 0.952332749363957D+04 0.000000000000000D+00 0.000000000000000D+00 0.952332749363957D+04
 0.173839329043262D+03 0.000000000000000D+00 0.000000000000000D+00 -.173839329043262D+03
 0.163107200044400D+03 -.944423325329654D+02 -.305379750899300D+02 0.335713659159616D+02
 0.184394817929751D+03 0.149613614317608D+03 0.466361162266392D+02 -.335713659159616D+02
 0.934966480470868D+04 -.551712817846430D+02 -.160981411367092D+02 0.934948816459631D+04
0.101686462728D-03 0.000000000000D+00 0.000000000000D+00 0.119000646892D-02 0.000000000000D+00  5 -2 2 25 23 21 0 0.14259492D-01 0.48739312D-01 0.28232063D+05 0.28232063D+05 0.28232063D+05 0.12176767D+01  1  2  2  1  5  1       -2 0.380374359697D-01 0.100000000000D+01
-.564659585548D-05 0.000000000000D+00 -.390502791536D-06 0.119000646892D-02 0.000000000000D+00  5 -2 2 25 23 21 2 0.14259492D-01 0.48739312D-01 0.28232063D+05 0.28232063D+05 0.28232063D+05 0.12176767D+01  1  2  3  1  5  1       -2 -.313183449835D-02 0.100000000000D+01
0.700318763195D-05 0.000000000000D+00 0.000000000000D+00 0.119000646892D-02 0.000000000000D+00  5 -2 2 25 23 21 2 0.14259492D-01 0.48739312D-01 0.28232063D+05 0.28232063D+05 0.28232063D+05 0.12176767D+01  1  2 15  1  5  1       -2 0.388425614043D-02 0.100000000000D+01
0.279400408164D+00 0.000000000000D+00 0.000000000000D+00 0.119000646892D-02 0.000000000000D+00  5 -2 2 25 23 21 2 0.78176976D+00 0.48739312D-01 0.39680610D+05 0.39680610D+05 0.39680610D+05 0.12023540D+01  1  2 12  1  5  1       -2 0.623238597110D-03 0.100000000000D+01
-.319694783068D+00 0.000000000000D+00 -.332665182591D-03 0.119000646892D-02 0.000000000000D+00  5 -2 2 25 23 21 2 0.79254171D+00 0.48739312D-01 0.28232063D+05 0.28232063D+05 0.28232063D+05 0.12176767D+01  1  2  5  1  5  1       -2 -.675532667355D-03 0.100000000000D+01
0.991470284720D-01 0.000000000000D+00 0.000000000000D+00 0.119000646892D-02 0.000000000000D+00  5 21 2 25 23 2 2 0.78176976D+00 0.48739312D-01 0.39680610D+05 0.39680610D+05 0.39680610D+05 0.12023540D+01  1  2 12  3  5  1       -2 0.130037853950D-03 0.100000000000D+01
-.113641212034D+00 0.000000000000D+00 -.118137766335D-03 0.119000646892D-02 0.000000000000D+00  5 21 2 25 23 2 2 0.79254171D+00 0.48739312D-01 0.28232063D+05 0.28232063D+05 0.28232063D+05 0.12176767D+01  1  2  5  3  5  1       -2 -.122450467180D-03 0.100000000000D+01
  </mgrwgt>
  </event>
  <event>
  5     66 0.46888340E-03 0.12757573E+03 0.75467711E-02 0.12149769E+00
       -2 -1    0    0    0  501 0.00000000E+00 0.00000000E+00 0.25879649E+02 0.25881627E+02 0.32000000E+00 0.0000E+00 0.9000E+01
        2 -1    0    0  502    0 0.00000000E+00 0.00000000E+00 -.81038838E+03 0.81038845E+03 0.32000000E+00 0.0000E+00 0.9000E+01
       25  1    1    2    0    0 0.73338471E+02 0.30016182E+02 -.53430759E+03 0.55442682E+03 0.12500000E+03 0.0000E+00 0.9000E+01
       23  1    1    2    0    0 -.54244860E+02 -.19891665E+02 -.21366626E+03 0.23938819E+03 0.91188000E+02 0.0000E+00 0.9000E+01
       21  1    1    2  502  501 -.19093611E+02 -.10124518E+02 -.36534885E+02 0.42455061E+02 0.75000000E+00 0.0000E+00 0.9000E+01
#aMCatNLO 2  0  0  2  2 0.21611845D+02 0.00000000D+00  -5  5  0 0.00000000D+00 0.00000000D+00 0.00000000D+00 0.00000000D+00 0.00000000D+00
  <mgrwgt>
 0.1052599340D+00    1    2    0
 0.132486153279341D+03 0.000000000000000D+00 0.000000000000000D+00 0.132486153279341D+03
 0.132486153279341D+03 0.000000000000000D+00 0.000000000000000D+00 -.132486153279341D+03
 0.146279573336960D+03 0.626020367006685D+02 0.243231146980451D+02 -.355258309960082D+02
 0.118692733221723D+03 -.626020367006685D+02 -.243231146980451D+02 0.355258309960082D+02
 0.000000000000000D+00 -.000000000000000D+00 -.000000000000000D+00 0.000000000000000D+00
 0.150086726776243D+03 0.000000000000000D+00 0.000000000000000D+00 0.150086726776243D+03
 0.139730515105823D+03 0.000000000000000D+00 0.000000000000000D+00 -.139730515105823D+03
 0.152205739764954D+03 0.733384710950381D+02 0.300161824168611D+02 -.355258309960082D+02
 0.113646465601247D+03 -.542448597947766D+02 -.198916645242037D+02 0.355258309960082D+02
 0.239650365158653D+02 -.190936113002615D+02 -.101245178926574D+02 0.103562116704202D+02
0.741512556524D-04 0.000000000000D+00 0.000000000000D+00 0.141644685403D-02 0.248648018039D-04  5 -2 2 25 23 21 2 0.39814778D-02 0.12467017D+00 0.19260529D+05 0.19260529D+05 0.19260529D+05 0.12356314D+01  1  2  1  2  5  2        2 0.105259933995D+00 0.100000000000D+01
  </mgrwgt>
  </event>
  <event>
  4     66 0.46888340E-03 0.85059993E+02 0.75467711E-02 0.12076424E+00
       -2 -1    0    0    0  501 0.00000000E+00 0.00000000E+00 0.51822733E+01 0.51921437E+01 0.32000000E+00 0.0000E+00 0.9000E+01
        2 -1    0    0  501    0 0.00000000E+00 0.00000000E+00 -.31174224E+04 0.31174224E+04 0.32000000E+00 0.0000E+00 0.9000E+01
       25  1    1    2    0    0 -.87985731E+01 0.35176312E+02 -.10492136E+04 0.10572554E+04 0.12500000E+03 0.0000E+00 0.9000E+01
       23  1    1    2    0    0 0.87985731E+01 -.35176312E+02 -.20630265E+04 0.20653591E+04 0.91188000E+02 0.0000E+00 0.9000E+01
#aMCatNLO 1  0  0  1  2 0.54390517D+02 0.00000000D+00  -5  5  0 0.00000000D+00 0.00000000D+00 0.00000000D+00 0.00000000D+00 0.00000000D+00
  <mgrwgt>
 0.1850720894D+00    9    2    0
 0.127164346123173D+03 0.000000000000000D+00 0.000000000000000D+00 0.127164346123173D+03
 0.127164346123173D+03 0.000000000000000D+00 0.000000000000000D+00 -.127164346123173D+03
 0.141535018561735D+03 -.879857306239946D+01 0.351763115735604D+02 0.556091152187847D+02
 0.112793673684612D+03 0.879857306239946D+01 -.351763115735604D+02 -.556091152187847D+02
 0.000000000000000D+00 -.000000000000000D+00 -.000000000000000D+00 0.000000000000000D+00
 0.187563225086987D+03 0.000000000000000D+00 0.000000000000000D+00 0.187563225086987D+03
 0.142896875491952D+03 0.000000000000000D+00 0.000000000000000D+00 -.142896875491952D+03
 0.150942344037424D+03 0.317849897846561D+01 0.636876335903587D+02 0.556091152187847D+02
 0.109137282348777D+03 0.178867398349947D+02 -.135420049156610D+02 -.556091152187847D+02
 0.703804741927386D+02 -.210652388134603D+02 -.501456286746978D+02 0.446663495950358D+02
0.318733758875D-03 0.000000000000D+00 0.000000000000D+00 0.133555140968D-02 0.000000000000D+00  5 -2 2 25 23 21 0 0.79803334D-03 0.47960420D+00 0.13028591D+05 0.13028591D+05 0.13028591D+05 0.12548596D+01  1  2  2  1  5  1       -2 0.168442118702D+00 0.100000000000D+01
-.174561716381D-04 0.000000000000D+00 -.122402155860D-05 0.133555140968D-02 0.000000000000D+00  5 -2 2 25 23 21 2 0.79803334D-03 0.47960420D+00 0.13028591D+05 0.13028591D+05 0.13028591D+05 0.12548596D+01  1  2  3  1  5  1       -2 -.145265315987D-01 0.100000000000D+01
0.218344630393D-04 0.000000000000D+00 0.000000000000D+00 0.133555140968D-02 0.000000000000D+00  5 -2 2 25 23 21 2 0.79803334D-03 0.47960420D+00 0.13028591D+05 0.13028591D+05 0.13028591D+05 0.12548596D+01  1  2 15  1  5  1       -2 0.181700216897D-01 0.100000000000D+01
0.144912089718D-03 0.000000000000D+00 0.000000000000D+00 0.133555140968D-02 0.000000000000D+00  5 -2 2 25 23 21 2 0.12077557D-02 0.47960420D+00 0.20825834D+05 0.20825834D+05 0.20825834D+05 0.12318962D+01  1  2 12  1  5  1       -2 0.641263323612D-01 0.100000000000D+01
-.212077607043D-03 0.000000000000D+00 0.000000000000D+00 0.133555140968D-02 0.000000000000D+00  5 -2 2 25 23 21 2 0.79803334D-03 0.47960420D+00 0.13028591D+05 0.13028591D+05 0.13028591D+05 0.12548596D+01  1  2  4  1  5  1       -2 -.176484977575D+00 0.100000000000D+01
-.226968127231D-03 0.000000000000D+00 -.100471189488D-03 0.133555140968D-02 0.000000000000D+00  5 -2 2 25 23 21 2 0.14077527D-02 0.47960420D+00 0.13028591D+05 0.13028591D+05 0.13028591D+05 0.12548596D+01  1  2  5  1  5  1       -2 -.840819717820D-01 0.100000000000D+01
0.255916215910D-03 0.000000000000D+00 0.862076188275D-04 0.133555140968D-02 0.000000000000D+00  5 -2 2 25 23 21 2 0.79803334D-03 0.47960420D+00 0.13028591D+05 0.13028591D+05 0.13028591D+05 0.12548596D+01  1  2  6  1  5  1       -2 0.212966226164D+00 0.100000000000D+01
0.707949586887D-05 0.000000000000D+00 0.000000000000D+00 0.133555140968D-02 0.000000000000D+00  5 21 2 25 23 2 2 0.12077557D-02 0.47960420D+00 0.20825834D+05 0.20825834D+05 0.20825834D+05 0.12318962D+01  1  2 12  3  5  1       -2 0.709856211903D-01 0.100000000000D+01
-.902676749855D-05 0.000000000000D+00 -.628533656751D-05 0.133555140968D-02 0.000000000000D+00  5 21 2 25 23 2 2 0.14077527D-02 0.47960420D+00 0.13028591D+05 0.13028591D+05 0.13028591D+05 0.12548596D+01  1  2  5  3  5  1       -2 -.745247497511D-01 0.100000000000D+01
  </mgrwgt>
  </event>
  <event>
  4     66 0.46888340E-03 0.17632634E+03 0.75467711E-02 0.11263697E+00
       -2 -1    0    0    0  501 0.00000000E+00 0.00000000E+00 0.90333324E+02 0.90333890E+02 0.32000000E+00 0.0000E+00 0.9000E+01
        2 -1    0    0  501    0 0.00000000E+00 0.00000000E+00 -.34793076E+03 0.34793091E+03 0.32000000E+00 0.0000E+00 0.9000E+01
       25  1    1    2    0    0 -.13298386E+03 0.39288123E+02 -.11357103E+03 0.21852149E+03 0.12500000E+03 0.0000E+00 0.9000E+01
       23  1    1    2    0    0 0.13298386E+03 -.39288123E+02 -.14402641E+03 0.21974331E+03 0.91188000E+02 0.0000E+00 0.9000E+01
#aMCatNLO 1  0  0  1  2 0.95427967D+02 0.00000000D+00  -5  5  0 0.00000000D+00 0.00000000D+00 0.00000000D+00 0.00000000D+00 0.00000000D+00
  <mgrwgt>
 0.2092983010D+00    3    2    0
 0.177284795358079D+03 0.000000000000000D+00 0.000000000000000D+00 0.177284795358079D+03
 0.177284795358079D+03 0.000000000000000D+00 0.000000000000000D+00 -.177284795358079D+03
 0.187592713531823D+03 -.132983860067351D+03 0.392881226896099D+02 0.183783173154100D+02
 0.166976877184336D+03 0.132983860067351D+03 -.392881226896099D+02 -.183783173154100D+02
 0.000000000000000D+00 -.000000000000000D+00 -.000000000000000D+00 -.000000000000000D+00
 0.200961398676952D+03 0.000000000000000D+00 0.000000000000000D+00 0.200961398676952D+03
 0.314674635228563D+03 0.000000000000000D+00 0.000000000000000D+00 -.314674635228563D+03
 0.177516407411917D+03 -.999816115619774D+02 0.745183849969772D+02 0.183783173154100D+02
 0.189670318355951D+03 0.165221234322866D+03 -.487437203448094D+01 -.183783173154100D+02
 0.148449308137646D+03 -.652396227608888D+02 -.696440129624963D+02 -.113713236551610D+03
0.580737051539D-03 0.000000000000D+00 0.000000000000D+00 0.119568634965D-02 0.000000000000D+00  5 -2 2 25 23 21 0 0.13897489D-01 0.53527865D-01 0.31090978D+05 0.31090978D+05 0.31090978D+05 0.12132736D+01  1  2  2  1  5  1       -2 0.205377860495D+00 0.100000000000D+01
-.322620167580D-04 0.000000000000D+00 -.223018318949D-05 0.119568634965D-02 0.000000000000D+00  5 -2 2 25 23 21 2 0.13897489D-01 0.53527865D-01 0.31090978D+05 0.31090978D+05 0.31090978D+05 0.12132736D+01  1  2  3  1  5  1       -2 -.167951195996D-01 0.100000000000D+01
0.397928542746D-04 0.000000000000D+00 0.000000000000D+00 0.119568634965D-02 0.000000000000D+00  5 -2 2 25 23 21 2 0.13897489D-01 0.53527865D-01 0.31090978D+05 0.31090978D+05 0.31090978D+05 0.12132736D+01  1  2 15  1  5  1       -2 0.207155600893D-01 0.100000000000D+01
  </mgrwgt>
  </event>
  <event>
  4     66 0.46888340E-03 0.62617701E+02 0.75467711E-02 0.12195573E+00
       -2 -1    0    0    0  501 0.00000000E+00 0.00000000E+00 0.41990588E+02 0.41991807E+02 0.32000000E+00 0.0000E+00 0.9000E+01
        2 -1    0    0  501    0 0.00000000E+00 0.00000000E+00 -.38765315E+03 0.38765329E+03 0.32000000E+00 0.0000E+00 0.9000E+01
       25  1    1    2    0    0 -.41164580E+02 0.22220342E+02 -.27341875E+03 0.30425495E+03 0.12500000E+03 0.0000E+00 0.9000E+01
       23  1    1    2    0    0 0.41164580E+02 -.22220342E+02 -.72243822E+02 0.12539014E+03 0.91188000E+02 0.0000E+00 0.9000E+01
#aMCatNLO 1  0  0  2  1 0.32602364D+02 0.00000000D+00  -5  5  0 0.00000000D+00 0.00000000D+00 0.00000000D+00 0.00000000D+00 0.00000000D+00
  <mgrwgt>
 0.2233642367D+00    9    2    0
 0.127585555950767D+03 0.000000000000000D+00 0.000000000000000D+00 0.127585555950767D+03
 0.127585555950767D+03 0.000000000000000D+00 0.000000000000000D+00 -.127585555950767D+03
 0.141908785178260D+03 -.411645800277833D+02 0.222203416702220D+02 -.482165643525584D+02
 0.113262326723274D+03 0.411645800277833D+02 -.222203416702220D+02 0.482165643525584D+02
 0.000000000000000D+00 -.000000000000000D+00 0.000000000000000D+00 -.000000000000000D+00
 0.143901252284040D+03 0.000000000000000D+00 0.000000000000000D+00 0.143901252284040D+03
 0.146014989322399D+03 0.000000000000000D+00 0.000000000000000D+00 -.146014989322399D+03
 0.138978889721501D+03 -.366186131671772D+02 0.493678842662260D+01 -.482165643525584D+02
 0.118266538795203D+03 0.449117097311295D+02 -.364667534291104D+02 0.482165643525584D+02
 0.326708130897361D+02 -.829309656395230D+01 0.315299650024878D+02 -.211373703835926D+01
0.119873395145D-03 0.000000000000D+00 0.000000000000D+00 0.138862478034D-02 0.000000000000D+00  5 -2 2 25 23 21 0 0.64601944D-02 0.59639051D-01 0.13918457D+05 0.13918457D+05 0.13918457D+05 0.12515447D+01  1  2  2  2  5  2        2 0.122718127786D+00 0.100000000000D+01
-.660998829910D-05 0.000000000000D+00 -.460345400746D-06 0.138862478034D-02 0.000000000000D+00  5 -2 2 25 23 21 2 0.64601944D-02 0.59639051D-01 0.13918457D+05 0.13918457D+05 0.13918457D+05 0.12515447D+01  1  2  3  2  5  2        2 -.105993524592D-01 0.100000000000D+01
0.827355253061D-05 0.000000000000D+00 0.000000000000D+00 0.138862478034D-02 0.000000000000D+00  5 -2 2 25 23 21 2 0.64601944D-02 0.59639051D-01 0.13918457D+05 0.13918457D+05 0.13918457D+05 0.12515447D+01  1  2 15  2  5  2        2 0.132669371553D-01 0.100000000000D+01
0.104308221665D-03 0.000000000000D+00 0.000000000000D+00 0.138862478034D-02 0.000000000000D+00  5 -2 2 25 23 21 2 0.64601944D-02 0.71569387D-01 0.18352197D+05 0.18352197D+05 0.18352197D+05 0.12379584D+01  1  2 12  2  5  2        2 0.135915653658D+00 0.100000000000D+01
-.920311213352D-04 0.000000000000D+00 0.000000000000D+00 0.138862478034D-02 0.000000000000D+00  5 -2 2 25 23 21 2 0.64601944D-02 0.59639051D-01 0.13918457D+05 0.13918457D+05 0.13918457D+05 0.12515447D+01  1  2  4  2  5  2        2 -.147575191983D+00 0.100000000000D+01
-.264127290858D-03 0.000000000000D+00 -.868877876119D-04 0.138862478034D-02 0.000000000000D+00  5 -2 2 25 23 21 2 0.64601944D-02 0.75751249D-01 0.13918457D+05 0.13918457D+05 0.13918457D+05 0.12515447D+01  1  2  5  2  5  2        2 -.327658656217D+00 0.100000000000D+01
0.279307767546D-03 0.000000000000D+00 0.844610895993D-04 0.138862478034D-02 0.000000000000D+00  5 -2 2 25 23 21 2 0.64601944D-02 0.59639051D-01 0.13918457D+05 0.13918457D+05 0.13918457D+05 0.12515447D+01  1  2  6  2  5  2        2 0.447879986899D+00 0.100000000000D+01
0.277912250734D-05 0.000000000000D+00 0.000000000000D+00 0.138862478034D-02 0.000000000000D+00  5 -2 21 25 23 -2 2 0.64601944D-02 0.71569387D-01 0.18352197D+05 0.18352197D+05 0.18352197D+05 0.12379584D+01  1  2 12  4  5  2        2 0.774077194213D-02 0.100000000000D+01
-.729650447948D-05 0.000000000000D+00 -.284549944682D-05 0.138862478034D-02 0.000000000000D+00  5 -2 21 25 23 -2 2 0.64601944D-02 0.75751249D-01 0.13918457D+05 0.13918457D+05 0.13918457D+05 0.12515447D+01  1  2  5  4  5  2        2 -.183240400838D-01 0.100000000000D+01
  </mgrwgt>
  </event>
  <event>
  4     66 0.46888340E-03 0.63347039E+02 0.75467711E-02 0.12388018E+00
       -2 -1    0    0    0  501 0.00000000E+00 0.00000000E+00 0.93800976E+01 0.93855544E+01 0.32000000E+00 0.0000E+00 0.9000E+01
        2 -1    0    0  501    0 0.00000000E+00 0.00000000E+00 -.14357063E+04 0.14357063E+04 0.32000000E+00 0.0000E+00 0.9000E+01
       25  1    1    2    0    0 0.33488340E+01 -.31397264E+02 -.98060276E+03 0.98904184E+03 0.12500000E+03 0.0000E+00 0.9000E+01
       23  1    1    2    0    0 -.33488340E+01 0.31397264E+02 -.44572344E+03 0.45605004E+03 0.91188000E+02 0.0000E+00 0.9000E+01
#aMCatNLO 1  0  0  2  1 0.19072718D+02 0.00000000D+00  -5  5  0 0.00000000D+00 0.00000000D+00 0.00000000D+00 0.00000000D+00 0.00000000D+00
  <mgrwgt>
 0.3298265028D+00    9    2    0
 0.116064782166977D+03 0.000000000000000D+00 0.000000000000000D+00 0.116064782166977D+03
 0.116064782166977D+03 0.000000000000000D+00 0.000000000000000D+00 -.116064782166977D+03
 0.131809757773540D+03 0.334883396313823D+01 -.313972640256575D+02 -.274191423481779D+02
 0.100319806560415D+03 -.334883396313823D+01 0.313972640256575D+02 0.274191423481779D+02
 0.000000000000000D+00 -.000000000000000D+00 0.000000000000000D+00 -.000000000000000D+00
 0.125573508720415D+03 0.000000000000000D+00 0.000000000000000D+00 0.125573508720415D+03
 0.126430233547751D+03 0.000000000000000D+00 0.000000000000000D+00 -.126430233547751D+03
 0.133458694624826D+03 0.134655507483316D+02 -.353990500846714D+02 -.274191423481779D+02
 0.994530981149104D+02 0.427003620284971D+01 0.283835305127939D+02 0.274191423481779D+02
 0.190919495284291D+02 -.177355869511813D+02 0.701551957187753D+01 -.856724827336422D+00
0.724330598348D-04 0.000000000000D+00 0.000000000000D+00 0.167222025556D-02 0.000000000000D+00  5 -2 2 25 23 21 0 0.14435144D-02 0.22087831D+00 0.12704262D+05 0.12704262D+05 0.12704262D+05 0.12561316D+01  1  2  2  2  5  2        2 0.127467443298D+00 0.100000000000D+01
-.401985796963D-05 0.000000000000D+00 -.278162021828D-06 0.167222025556D-02 0.000000000000D+00  5 -2 2 25 23 21 2 0.14435144D-02 0.22087831D+00 0.12704262D+05 0.12704262D+05 0.12704262D+05 0.12561316D+01  1  2  3  2  5  2        2 -.111620368303D-01 0.100000000000D+01
0.499976345748D-05 0.000000000000D+00 0.000000000000D+00 0.167222025556D-02 0.000000000000D+00  5 -2 2 25 23 21 2 0.14435144D-02 0.22087831D+00 0.12704262D+05 0.12704262D+05 0.12704262D+05 0.12561316D+01  1  2 15  2  5  2        2 0.138829640940D-01 0.100000000000D+01
0.942109091762D-04 0.000000000000D+00 0.000000000000D+00 0.167222025556D-02 0.000000000000D+00  5 -2 2 25 23 21 2 0.14435144D-02 0.24890112D+00 0.15040950D+05 0.15040950D+05 0.15040950D+05 0.12476876D+01  1  2 12  2  5  2        2 0.208870983744D+00 0.100000000000D+01
-.768103541859D-04 0.000000000000D+00 0.000000000000D+00 0.167222025556D-02 0.000000000000D+00  5 -2 2 25 23 21 2 0.14435144D-02 0.22087831D+00 0.12704262D+05 0.12704262D+05 0.12704262D+05 0.12561316D+01  1  2  4  2  5  2        2 -.213281167855D+00 0.100000000000D+01
-.314273940839D-03 0.000000000000D+00 -.728297259714D-04 0.167222025556D-02 0.000000000000D+00  5 -2 2 25 23 21 2 0.14435144D-02 0.25231312D+00 0.12704262D+05 0.12704262D+05 0.12704262D+05 0.12561316D+01  1  2  5  2  5  2        2 -.685036495395D+00 0.100000000000D+01
0.321752113723D-03 0.000000000000D+00 0.721897346009D-04 0.167222025556D-02 0.000000000000D+00  5 -2 2 25 23 21 2 0.14435144D-02 0.22087831D+00 0.12704262D+05 0.12704262D+05 0.12704262D+05 0.12561316D+01  1  2  6  2  5  2        2 0.893416874613D+00 0.100000000000D+01
0.178056385301D-05 0.000000000000D+00 0.000000000000D+00 0.167222025556D-02 0.000000000000D+00  5 -2 21 25 23 -2 2 0.14435144D-02 0.24890112D+00 0.15040950D+05 0.15040950D+05 0.15040950D+05 0.12476876D+01  1  2 12  4  5  2        2 0.185351676982D-02 0.100000000000D+01
-.609237882780D-05 0.000000000000D+00 -.150615377675D-05 0.167222025556D-02 0.000000000000D+00  5 -2 21 25 23 -2 2 0.14435144D-02 0.25231312D+00 0.12704262D+05 0.12704262D+05 0.12704262D+05 0.12561316D+01  1  2  5  4  5  2        2 -.618557962760D-02 0.100000000000D+01
  </mgrwgt>
  </event>
  <event>
  5     66 0.46888340E-03 0.12209171E+03 0.75467711E-02 0.11482621E+00
       21 -1    0    0  502  501 0.00000000E+00 0.00000000E+00 0.24015619E+03 0.24015736E+03 0.75000000E+00 0.0000E+00 0.9000E+01
        2 -1    0    0  501    0 0.00000000E+00 0.00000000E+00 -.20152052E+03 0.20152077E+03 0.32000000E+00 0.0000E+00 0.9000E+01
       25  1    1    2    0    0 0.89595164E+01 -.40811450E+01 0.15436838E+02 0.12633378E+03 0.12500000E+03 0.0000E+00 0.9000E+01
       23  1    1    2    0    0 0.11823455E+03 0.17031945E+02 0.85734449E+02 0.17301776E+03 0.91188000E+02 0.0000E+00 0.9000E+01
        2  1    1    2  502    0 -.12719407E+03 -.12950800E+02 -.62535613E+02 0.14232660E+03 0.32000000E+00 0.0000E+00 0.9000E+01
#aMCatNLO 2  0  0  1  1 0.12785169D+03 0.00000000D+00  -5  5  0 0.00000000D+00 0.00000000D+00 0.00000000D+00 0.00000000D+00 0.00000000D+00
  <mgrwgt>
 0.2757223431D-01    1    2    0
 0.125528542204740D+03 0.000000000000000D+00 0.000000000000000D+00 0.125528542204740D+03
 0.125528542204740D+03 0.000000000000000D+00 0.000000000000000D+00 -.125528542204740D+03
 0.140086483625102D+03 -.552053290923119D+02 -.106143588553178D+02 -.289642869814871D+02
 0.110970600784378D+03 0.552053290923119D+02 0.106143588553178D+02 0.289642869814871D+02
 0.000000000000000D+00 -.000000000000000D+00 -.000000000000000D+00 -.000000000000000D+00
 0.168931752466866D+03 0.000000000000000D+00 0.000000000000000D+00 0.168931752466866D+03
 0.286486336003918D+03 0.000000000000000D+00 0.000000000000000D+00 -.286486336003918D+03
 0.128688999528112D+03 0.895951643953039D+01 -.408114498276024D+01 -.289642869814871D+02
 0.153047959679717D+03 0.118234553153128D+03 0.170319446470005D+02 0.289642869814871D+02
 0.173681129262955D+03 -.127194069592659D+03 -.129507996642403D+02 -.117554583537052D+03
0.130031549469D-04 0.000000000000D+00 0.000000000000D+00 0.152330355998D-02 0.696671101042D-07  5 21 2 25 23 2 2 0.36947187D-01 0.31003242D-01 0.40707306D+05 0.40707306D+05 0.40707306D+05 0.12012280D+01  1  2  1  3  5  1       -2 0.275722343104D-01 0.100000000000D+01
  </mgrwgt>
  </event>
  <event>
  4     66 0.46888340E-03 0.17321745E+03 0.75467711E-02 0.10943761E+00
       -2 -1    0    0    0  501 0.00000000E+00 0.00000000E+00 0.67608518E+02 0.67609275E+02 0.32000000E+00 0.0000E+00 0.9000E+01
        2 -1    0    0  501    0 0.00000000E+00 0.00000000E+00 -.44404871E+03 0.44404882E+03 0.32000000E+00 0.0000E+00 0.9000E+01
       25  1    1    2    0    0 -.12653607E+03 -.46196169E+02 -.19352751E+03 0.26687705E+03 0.12500000E+03 0.0000E+00 0.9000E+01
       23  1    1    2    0    0 0.12653607E+03 0.46196169E+02 -.18291268E+03 0.24478105E+03 0.91188000E+02 0.0000E+00 0.9000E+01
#aMCatNLO 1  0  0  2  1 0.17618764D+03 0.00000000D+00  -5  5  0 0.00000000D+00 0.00000000D+00 0.00000000D+00 0.00000000D+00 0.00000000D+00
  <mgrwgt>
 0.2093164934D+00    3    2    0
 0.173267706888302D+03 0.000000000000000D+00 0.000000000000000D+00 0.173267706888302D+03
 0.173267706888302D+03 0.000000000000000D+00 0.000000000000000D+00 -.173267706888302D+03
 0.183814606808770D+03 -.126536066720626D+03 -.461961689347455D+02 0.416502951832238D+01
 0.162720806967833D+03 0.126536066720626D+03 0.461961689347455D+02 -.416502951832238D+01
 0.000000000000000D+00 0.000000000000000D+00 0.000000000000000D+00 0.000000000000000D+00
 0.354475912378863D+03 0.000000000000000D+00 0.000000000000000D+00 0.354475912378863D+03
 0.242849627499345D+03 0.000000000000000D+00 0.000000000000000D+00 -.242849627499345D+03
 0.272734712406974D+03 -.235269958697190D+03 -.582230402456705D+02 0.416502951832238D+01
 0.116018266589040D+03 0.601502831083675D+02 0.388533500411512D+02 -.416502951832238D+01
 0.208572560882195D+03 0.175119675588822D+03 0.193696902045193D+02 0.111626284879518D+03
0.474354584942D-03 0.000000000000D+00 0.000000000000D+00 0.122207841804D-02 0.000000000000D+00  5 -2 2 25 23 21 0 0.10401378D-01 0.68315253D-01 0.30004286D+05 0.30004286D+05 0.30004286D+05 0.12148919D+01  1  2  2  2  5  2        2 0.205284701969D+00 0.100000000000D+01
-.263530298007D-04 0.000000000000D+00 -.182164650661D-05 0.122207841804D-02 0.000000000000D+00  5 -2 2 25 23 21 2 0.10401378D-01 0.68315253D-01 0.30004286D+05 0.30004286D+05 0.30004286D+05 0.12148919D+01  1  2  3  2  5  2        2 -.168329138450D-01 0.100000000000D+01
0.326650635189D-04 0.000000000000D+00 0.000000000000D+00 0.122207841804D-02 0.000000000000D+00  5 -2 2 25 23 21 2 0.10401378D-01 0.68315253D-01 0.30004286D+05 0.30004286D+05 0.30004286D+05 0.12148919D+01  1  2 15  2  5  2        2 0.208647052773D-01 0.100000000000D+01
  </mgrwgt>
  </event>
  <event>
  4     66 0.46888340E-03 0.11053282E+03 0.75467711E-02 0.12361822E+00
       -2 -1    0    0    0  501 0.00000000E+00 0.00000000E+00 0.45540606E+01 0.45652895E+01 0.32000000E+00 0.0000E+00 0.9000E+01
        2 -1    0    0  501    0 0.00000000E+00 0.00000000E+00 -.50529532E+04 0.50529532E+04 0.32000000E+00 0.0000E+00 0.9000E+01
       25  1    1    2    0    0 0.16073262E+02 -.16197778E+02 -.44472184E+04 0.44490332E+04 0.12500000E+03 0.0000E+00 0.9000E+01
       23  1    1    2    0    0 -.16073262E+02 0.16197778E+02 -.60118075E+03 0.60848522E+03 0.91188000E+02 0.0000E+00 0.9000E+01
#aMCatNLO 1  0  0  1  1 0.25699907D+02 0.00000000D+00  -5  5  0 0.00000000D+00 0.00000000D+00 0.00000000D+00 0.00000000D+00 0.00000000D+00
  <mgrwgt>
 0.2318327282D-01    4    2    0
 0.151788918552863D+03 0.000000000000000D+00 0.000000000000000D+00 0.151788918552863D+03
 0.151788918552863D+03 0.000000000000000D+00 0.000000000000000D+00 -.151788918552863D+03
 0.163828250418605D+03 0.160732618449526D+02 -.161977778302792D+02 -.103411691226116D+03
 0.139749586687121D+03 -.160732618449526D+02 0.161977778302792D+02 0.103411691226116D+03
 0.000000000000000D+00 0.000000000000000D+00 -.000000000000000D+00 -.000000000000000D+00
 0.158815753741160D+03 0.000000000000000D+00 0.000000000000000D+00 0.158815753741160D+03
 0.177798264769673D+03 0.000000000000000D+00 0.000000000000000D+00 -.177798264769673D+03
 0.162624621473154D+03 0.107589596112742D+02 -.346906545400256D+01 -.103411691226116D+03
 0.142039108549505D+03 -.206604792397436D+02 0.271849908750538D+02 0.103411691226116D+03
 0.319502884881725D+02 0.990151962846941D+01 -.237159254210513D+02 -.189825110285129D+02
0.151529944799D-02 0.000000000000D+00 0.000000000000D+00 0.822004790401D-03 0.000000000000D+00  5 -2 2 25 23 21 0 0.70148925D-03 0.77737827D+00 0.12217504D+05 0.12217504D+05 0.12217504D+05 0.12581108D+01  1  2  2  1  5  1       -2 0.262743718256D-01 0.100000000000D+01
-.738862096935D-04 0.000000000000D+00 -.581914886778D-05 0.822004790401D-03 0.000000000000D+00  5 -2 2 25 23 21 2 0.70148925D-03 0.77737827D+00 0.12217504D+05 0.12217504D+05 0.12217504D+05 0.12581108D+01  1  2  3  1  5  1       -2 -.202784647135D-02 0.100000000000D+01
0.103684403200D-03 0.000000000000D+00 0.000000000000D+00 0.822004790401D-03 0.000000000000D+00  5 -2 2 25 23 21 2 0.70148925D-03 0.77737827D+00 0.12217504D+05 0.12217504D+05 0.12217504D+05 0.12581108D+01  1  2 15  1  5  1       -2 0.284567380076D-02 0.100000000000D+01
-.142424860382D-03 0.000000000000D+00 0.000000000000D+00 0.822004790401D-03 0.000000000000D+00  5 -2 2 25 23 21 2 0.70148925D-03 0.77737827D+00 0.12217504D+05 0.12217504D+05 0.12217504D+05 0.12581108D+01  1  2  4  1  5  1       -2 -.390892633086D-02 0.100000000000D+01
  </mgrwgt>
  </event>
  <event>
  4     66 0.46888340E-03 0.17574566E+03 0.75467711E-02 0.11083997E+00
       -2 -1    0    0    0  501 0.00000000E+00 0.00000000E+00 0.16266457E+02 0.16269605E+02 0.32000000E+00 0.0000E+00 0.9000E+01
        2 -1    0    0  501    0 0.00000000E+00 0.00000000E+00 -.19978934E+04 0.19978935E+04 0.32000000E+00 0.0000E+00 0.9000E+01
       25  1    1    2    0    0 -.43362189E+02 0.13093607E+03 -.82238518E+03 0.84318854E+03 0.12500000E+03 0.0000E+00 0.9000E+01
       23  1    1    2    0    0 0.43362189E+02 -.13093607E+03 -.11592418E+04 0.11709745E+04 0.91188000E+02 0.0000E+00 0.9000E+01
#aMCatNLO 1  0  0  1  2 0.13845554D+03 0.00000000D+00  -5  5  0 0.00000000D+00 0.00000000D+00 0.00000000D+00 0.00000000D+00 0.00000000D+00
  <mgrwgt>
 0.2148232524D+00    3    2    0
 0.180282676938685D+03 0.000000000000000D+00 0.000000000000000D+00 0.180282676938685D+03
 0.180282676938685D+03 0.000000000000000D+00 0.000000000000000D+00 -.180282676938685D+03
 0.190419186974098D+03 -.433621892631171D+02 0.130936073215431D+03 0.401239584426716D+02
 0.170146166903273D+03 0.433621892631171D+02 -.130936073215431D+03 -.401239584426716D+02
 0.000000000000000D+00 -.000000000000000D+00 0.000000000000000D+00 -.000000000000000D+00
 0.213289139466543D+03 0.000000000000000D+00 0.000000000000000D+00 0.213289139466543D+03
 0.430701408976041D+03 0.000000000000000D+00 0.000000000000000D+00 -.430701408976041D+03
 0.152110686620433D+03 -.360316280207474D+02 0.678561030800081D+02 0.401239584426716D+02
 0.234124101428771D+03 0.520140710081392D+02 -.205386094714030D+03 -.401239584426716D+02
 0.257755760393381D+03 -.159824429873918D+02 0.137529991634021D+03 -.217412269509498D+03
0.510791337748D-03 0.000000000000D+00 0.000000000000D+00 0.114433014521D-02 0.000000000000D+00  5 -2 2 25 23 21 0 0.25027760D-02 0.30736846D+00 0.30886538D+05 0.30886538D+05 0.30886538D+05 0.12135732D+01  1  2  2  1  5  1       -2 0.210743098498D+00 0.100000000000D+01
-.283548819590D-04 0.000000000000D+00 -.196157323140D-05 0.114433014521D-02 0.000000000000D+00  5 -2 2 25 23 21 2 0.25027760D-02 0.30736846D+00 0.30886538D+05 0.30886538D+05 0.30886538D+05 0.12135732D+01  1  2  3  1  5  1       -2 -.172293790057D-01 0.100000000000D+01
0.350697080380D-04 0.000000000000D+00 0.000000000000D+00 0.114433014521D-02 0.000000000000D+00  5 -2 2 25 23 21 2 0.25027760D-02 0.30736846D+00 0.30886538D+05 0.30886538D+05 0.30886538D+05 0.12135732D+01  1  2 15  1  5  1       -2 0.213095329502D-01 0.100000000000D+01
  </mgrwgt>
  </event>
  <event>
  4     66 0.46888340E-03 0.22858889E+03 0.75467711E-02 0.10366744E+00
       -2 -1    0    0    0  501 0.00000000E+00 0.00000000E+00 0.29197034E+03 0.29197051E+03 0.32000000E+00 0.0000E+00 0.9000E+01
        2 -1    0    0  501    0 0.00000000E+00 0.00000000E+00 -.46910400E+03 0.46910411E+03 0.32000000E+00 0.0000E+00 0.9000E+01
       25  1    1    2    0    0 -.27081907E+02 -.34191250E+03 -.17808855E+03 0.40617499E+03 0.12500000E+03 0.0000E+00 0.9000E+01
       23  1    1    2    0    0 0.27081907E+02 0.34191250E+03 0.95489157E+00 0.35489963E+03 0.91188000E+02 0.0000E+00 0.9000E+01
#aMCatNLO 1  0  0  1  2 0.11362269D+03 0.00000000D+00  -5  5  0 0.00000000D+00 0.00000000D+00 0.00000000D+00 0.00000000D+00 0.00000000D+00
  <mgrwgt>
 0.2626526210D+00    9    2    0
 0.370087233545518D+03 0.000000000000000D+00 0.000000000000000D+00 0.370087233545518D+03
 0.370087233545518D+03 0.000000000000000D+00 0.000000000000000D+00 -.370087233545518D+03
 0.375025088727640D+03 -.270819072119240D+02 -.341912498791749D+03 -.859140887568611D+02
 0.365149378363396D+03 0.270819072119240D+02 0.341912498791749D+03 0.859140887568611D+02
 0.000000000000000D+00 -.000000000000000D+00 -.000000000000000D+00 0.000000000000000D+00
 0.436022501947750D+03 0.000000000000000D+00 0.000000000000000D+00 0.436022501947750D+03
 0.426817148646549D+03 0.000000000000000D+00 0.000000000000000D+00 -.426817148646549D+03
 0.352311745237459D+03 0.226061512237824D+02 -.317184957260256D+03 -.859140887568611D+02
 0.396532935782772D+03 0.791162791389133D+02 0.367807696418653D+03 0.859140887568611D+02
 0.113994969574067D+03 -.101722430362696D+03 -.506227391583969D+02 0.920535330120151D+01
0.543373840210D-02 0.000000000000D+00 0.000000000000D+00 0.923799384930D-03 0.000000000000D+00  5 -2 2 25 23 21 0 0.44918535D-01 0.72169868D-01 0.12958194D+06 0.12958194D+06 0.12958194D+06 0.11533725D+01  1  2  2  1  5  1       -2 0.173195035120D+00 0.100000000000D+01
-.301592643938D-03 0.000000000000D+00 -.208669862003D-04 0.923799384930D-03 0.000000000000D+00  5 -2 2 25 23 21 2 0.44918535D-01 0.72169868D-01 0.12958194D+06 0.12958194D+06 0.12958194D+06 0.11533725D+01  1  2  3  1  5  1       -2 -.127878241984D-01 0.100000000000D+01
0.371361955545D-03 0.000000000000D+00 0.000000000000D+00 0.923799384930D-03 0.000000000000D+00  5 -2 2 25 23 21 2 0.44918535D-01 0.72169868D-01 0.12958194D+06 0.12958194D+06 0.12958194D+06 0.11533725D+01  1  2 15  1  5  1       -2 0.157461115081D-01 0.100000000000D+01
0.286729830804D-02 0.000000000000D+00 0.000000000000D+00 0.923799384930D-03 0.000000000000D+00  5 -2 2 25 23 21 2 0.55819101D-01 0.72169868D-01 0.17741463D+06 0.17741463D+06 0.17741463D+06 0.11413691D+01  1  2 12  1  5  1       -2 0.765707560704D-01 0.100000000000D+01
-.266709275117D-02 0.000000000000D+00 0.000000000000D+00 0.923799384930D-03 0.000000000000D+00  5 -2 2 25 23 21 2 0.44918535D-01 0.72169868D-01 0.12958194D+06 0.12958194D+06 0.12958194D+06 0.11533725D+01  1  2  4  1  5  1       -2 -.113087351128D+00 0.100000000000D+01
-.686302496085D-02 0.000000000000D+00 -.250499048844D-02 0.923799384930D-03 0.000000000000D+00  5 -2 2 25 23 21 2 0.60157871D-01 0.72169868D-01 0.12958194D+06 0.12958194D+06 0.12958194D+06 0.11533725D+01  1  2  5  1  5  1       -2 -.160887133354D+00 0.100000000000D+01
0.738082836851D-02 0.000000000000D+00 0.240178149582D-02 0.923799384930D-03 0.000000000000D+00  5 -2 2 25 23 21 2 0.44918535D-01 0.72169868D-01 0.12958194D+06 0.12958194D+06 0.12958194D+06 0.11533725D+01  1  2  6  1  5  1       -2 0.312954369120D+00 0.100000000000D+01
0.873903709245D-04 0.000000000000D+00 0.000000000000D+00 0.923799384930D-03 0.000000000000D+00  5 21 2 25 23 2 2 0.55819101D-01 0.72169868D-01 0.17741463D+06 0.17741463D+06 0.17741463D+06 0.11413691D+01  1  2 12  3  5  1       -2 0.269742843174D-01 0.100000000000D+01
-.206350431788D-03 0.000000000000D+00 -.949851841972D-04 0.923799384930D-03 0.000000000000D+00  5 21 2 25 23 2 2 0.60157871D-01 0.72169868D-01 0.12958194D+06 0.12958194D+06 0.12958194D+06 0.11533725D+01  1  2  5  3  5  1       -2 -.560256264238D-01 0.100000000000D+01
  </mgrwgt>
  </event>
  <event>
  4     66 0.46888340E-03 0.11948634E+03 0.75467711E-02 0.11078722E+00
       -2 -1    0    0    0  501 0.00000000E+00 0.00000000E+00 0.96000961E+02 0.96001494E+02 0.32000000E+00 0.0000E+00 0.9000E+01
        2 -1    0    0  501    0 0.00000000E+00 0.00000000E+00 -.14916966E+03 0.14917000E+03 0.32000000E+00 0.0000E+00 0.9000E+01
       25  1    1    2    0    0 -.76182908E+01 0.49827011E+02 -.23271879E+02 0.13677481E+03 0.12500000E+03 0.0000E+00 0.9000E+01
       23  1    1    2    0    0 0.76182908E+01 -.49827011E+02 -.29896817E+02 0.10839668E+03 0.91188000E+02 0.0000E+00 0.9000E+01
#aMCatNLO 1  0  0  1  1 0.20364974D+03 0.00000000D+00  -5  5  0 0.00000000D+00 0.00000000D+00 0.00000000D+00 0.00000000D+00 0.00000000D+00
  <mgrwgt>
 0.1625033277D+00    3    2    0
 0.119668449826255D+03 0.000000000000000D+00 0.000000000000000D+00 0.119668449826255D+03
 0.119668449826255D+03 0.000000000000000D+00 0.000000000000000D+00 -.119668449826255D+03
 0.134939284926511D+03 -.761829076122949D+01 0.498270109080816D+02 0.654532247650719D+01
 0.104397614725999D+03 0.761829076122949D+01 -.498270109080816D+02 -.654532247650719D+01
 0.000000000000000D+00 0.000000000000000D+00 -.000000000000000D+00 -.000000000000000D+00
 0.189413175833289D+03 0.000000000000000D+00 0.000000000000000D+00 0.189413175833289D+03
 0.478262752937959D+03 0.000000000000000D+00 0.000000000000000D+00 -.478262752937959D+03
 0.218934267399060D+03 -.561627481642627D+02 0.170616874645738D+03 0.654532247650719D+01
 0.953194005252551D+02 -.197789365133471D+02 0.183436418568811D+02 -.654532247650719D+01
 0.353422260846932D+03 0.759416846776098D+02 -.188960516502619D+03 -.288849577104670D+03
0.204033841807D-03 0.000000000000D+00 0.000000000000D+00 0.167434478910D-02 0.000000000000D+00  5 -2 2 25 23 21 0 0.14769446D-01 0.22949245D-01 0.14276985D+05 0.14276985D+05 0.14276985D+05 0.12502758D+01  1  2  2  1  5  1       -2 0.159166414720D+00 0.100000000000D+01
-.113351814680D-04 0.000000000000D+00 -.783543675882D-06 0.167434478910D-02 0.000000000000D+00  5 -2 2 25 23 21 2 0.14769446D-01 0.22949245D-01 0.14276985D+05 0.14276985D+05 0.14276985D+05 0.12502758D+01  1  2  3  1  5  1       -2 -.138225885725D-01 0.100000000000D+01
0.140716091527D-04 0.000000000000D+00 0.000000000000D+00 0.167434478910D-02 0.000000000000D+00  5 -2 2 25 23 21 2 0.14769446D-01 0.22949245D-01 0.14276985D+05 0.14276985D+05 0.14276985D+05 0.12502758D+01  1  2 15  1  5  1       -2 0.171595015412D-01 0.100000000000D+01
  </mgrwgt>
  </event>
  <event>
  4     66 0.46888340E-03 0.16608230E+03 0.75467711E-02 0.11494013E+00
       -2 -1    0    0    0  501 0.00000000E+00 0.00000000E+00 0.54011629E+03 0.54011638E+03 0.32000000E+00 0.0000E+00 0.9000E+01
        2 -1    0    0  501    0 0.00000000E+00 0.00000000E+00 -.52955780E+02 0.52956747E+02 0.32000000E+00 0.0000E+00 0.9000E+01
       25  1    1    2    0    0 -.99207167E+02 -.76760747E+02 0.20328313E+03 0.26959841E+03 0.12500000E+03 0.0000E+00 0.9000E+01
       23  1    1    2    0    0 0.99207167E+02 0.76760747E+02 0.28387738E+03 0.32347472E+03 0.91188000E+02 0.0000E+00 0.9000E+01
#aMCatNLO 1  0  0  2  1 0.62739024D+02 0.00000000D+00  -5  5  0 0.00000000D+00 0.00000000D+00 0.00000000D+00 0.00000000D+00 0.00000000D+00
  <mgrwgt>
 0.1507311662D+00    3    2    0
 0.169123015050119D+03 0.000000000000000D+00 0.000000000000000D+00 0.169123015050119D+03
 0.169123015050119D+03 0.000000000000000D+00 0.000000000000000D+00 -.169123015050119D+03
 0.179928387479521D+03 -.992071670074933D+02 -.767607465268624D+02 -.318582866451859D+02
 0.158317642620716D+03 0.992071670074933D+02 0.767607465268624D+02 0.318582866451859D+02
 0.000000000000000D+00 0.000000000000000D+00 -.000000000000000D+00 0.000000000000000D+00
 0.485436189644461D+03 0.000000000000000D+00 0.000000000000000D+00 0.485436189644461D+03
 0.175147295246411D+03 0.000000000000000D+00 0.000000000000000D+00 -.175147295246411D+03
 0.173897990294878D+03 -.107468056123480D+03 -.452899272871037D+02 -.318582866451859D+02
 0.170117361131489D+03 0.915390978124501D+02 0.105973149231574D+03 0.318582866451859D+02
 0.316568133464505D+03 0.159289583110298D+02 -.606832219444702D+02 0.310288894398050D+03
0.138456522156D-02 0.000000000000D+00 0.000000000000D+00 0.120263573286D-02 0.000000000000D+00  5 -2 2 25 23 21 0 0.83094895D-01 0.81471248D-02 0.27583329D+05 0.27583329D+05 0.27583329D+05 0.12187453D+01  1  2  2  2  5  2        2 0.147804143315D+00 0.100000000000D+01
-.768895052587D-04 0.000000000000D+00 -.531709501519D-05 0.120263573286D-02 0.000000000000D+00  5 -2 2 25 23 21 2 0.83094895D-01 0.81471248D-02 0.27583329D+05 0.27583329D+05 0.27583329D+05 0.12187453D+01  1  2  3  2  5  2        2 -.121917527403D-01 0.100000000000D+01
0.953493074101D-04 0.000000000000D+00 0.000000000000D+00 0.120263573286D-02 0.000000000000D+00  5 -2 2 25 23 21 2 0.83094895D-01 0.81471248D-02 0.27583329D+05 0.27583329D+05 0.27583329D+05 0.12187453D+01  1  2 15  2  5  2        2 0.151187756508D-01 0.100000000000D+01
  </mgrwgt>
  </event>
  <event>
  5     66 0.46888340E-03 0.12301107E+03 0.75467711E-02 0.11714433E+00
       -2 -1    0    0    0  502 0.00000000E+00 0.00000000E+00 0.21553298E+02 0.21555673E+02 0.32000000E+00 0.0000E+00 0.9000E+01
        2 -1    0    0  501    0 0.00000000E+00 0.00000000E+00 -.14548280E+04 0.14548280E+04 0.32000000E+00 0.0000E+00 0.9000E+01
       25  1    1    2    0    0 0.57260334E+00 0.11190709E+03 -.70949727E+03 0.72906440E+03 0.12500000E+03 0.0000E+00 0.9000E+01
       23  1    1    2    0    0 -.98653980E+01 -.21874329E+02 -.32525472E+03 0.33864686E+03 0.91188000E+02 0.0000E+00 0.9000E+01
       21  1    1    2  501  502 0.92927947E+01 -.90032760E+02 -.39852273E+03 0.40867246E+03 0.75000000E+00 0.0000E+00 0.9000E+01
#aMCatNLO 2  0  0  1  1 0.90511071D+02 0.00000000D+00  -5  5  0 0.00000000D+00 0.00000000D+00 0.00000000D+00 0.00000000D+00 0.00000000D+00
  <mgrwgt>
 0.1621453249D-01    1    2    0
 0.123595514162520D+03 0.000000000000000D+00 0.000000000000000D+00 0.123595514162520D+03
 0.123595514162520D+03 0.000000000000000D+00 0.000000000000000D+00 -.123595514162520D+03
 0.138381141103616D+03 0.615410825333030D+01 0.578309681494623D+02 -.119183173158391D+02
 0.108809887221423D+03 -.615410825333030D+01 -.578309681494623D+02 0.119183173158391D+02
 0.000000000000000D+00 0.000000000000000D+00 -.000000000000000D+00 -.000000000000000D+00
 0.172151026342967D+03 0.000000000000000D+00 0.000000000000000D+00 0.172151026342967D+03
 0.182151527550282D+03 0.000000000000000D+00 0.000000000000000D+00 -.182151527550282D+03
 0.168198010667131D+03 0.572603340038515D+00 0.111907089275677D+03 -.119183173158391D+02
 0.950426745968447D+02 -.986539804196735D+01 -.218743293463873D+02 0.119183173158391D+02
 0.910618686292725D+02 0.929279470192883D+01 -.900327599292900D+02 -.100005012073156D+02
0.211245568784D-04 0.000000000000D+00 0.000000000000D+00 0.160428445044D-02 0.171661450583D-05  5 -2 2 25 23 21 2 0.33160484D-02 0.22381792D+00 0.31077940D+05 0.31077940D+05 0.31077940D+05 0.12132926D+01  1  2  1  1  5  1       -2 0.162145324936D-01 0.100000000000D+01
  </mgrwgt>
  </event>
  <event>
  4     66 0.46888340E-03 0.90023454E+02 0.75467711E-02 0.11811519E+00
       -2 -1    0    0    0  501 0.00000000E+00 0.00000000E+00 0.23678856E+02 0.23681018E+02 0.32000000E+00 0.0000E+00 0.9000E+01
        2 -1    0    0  501    0 0.00000000E+00 0.00000000E+00 -.86216061E+03 0.86216067E+03 0.32000000E+00 0.0000E+00 0.9000E+01
       25  1    1    2    0    0 -.20980981E+02 0.88116099E+02 -.51913219E+03 0.54159752E+03 0.12500000E+03 0.0000E+00 0.9000E+01
       23  1    1    2    0    0 0.20980981E+02 -.88116099E+02 -.31934956E+03 0.34424416E+03 0.91188000E+02 0.0000E+00 0.9000E+01
#aMCatNLO 1  0  0  1  2 0.46949049D+02 0.00000000D+00  -5  5  0 0.00000000D+00 0.00000000D+00 0.00000000D+00 0.00000000D+00 0.00000000D+00
  <mgrwgt>
 0.1618087233D+00    9    2    0
 0.142884432765703D+03 0.000000000000000D+00 0.000000000000000D+00 0.142884432765703D+03
 0.142884432765703D+03 0.000000000000000D+00 0.000000000000000D+00 -.142884432765703D+03
 0.155674049721362D+03 -.209809809592364D+02 0.881160986361377D+02 -.201186817605876D+02
 0.130094815810044D+03 0.209809809592364D+02 -.881160986361377D+02 0.201186817605876D+02
 0.000000000000000D+00 0.000000000000000D+00 0.000000000000000D+00 0.000000000000000D+00
 0.187054034434426D+03 0.000000000000000D+00 0.000000000000000D+00 0.187054034434426D+03
 0.157841320989305D+03 0.000000000000000D+00 0.000000000000000D+00 -.157841320989305D+03
 0.145612708817430D+03 -.301453205799205D+02 0.653035930137044D+02 -.201186817605876D+02
 0.143987114624259D+03 0.126441396503966D+02 -.108868738444684D+03 0.201186817605876D+02
 0.552955319820427D+02 0.175011809295239D+02 0.435651454309794D+02 0.292127134451216D+02
0.132806330683D-03 0.000000000000D+00 0.000000000000D+00 0.137815445828D-02 0.000000000000D+00  5 -2 2 25 23 21 0 0.36430719D-02 0.13264026D+00 0.20007863D+05 0.20007863D+05 0.20007863D+05 0.12338073D+01  1  2  2  1  5  1       -2 0.130376938905D+00 0.100000000000D+01
-.737721513566D-05 0.000000000000D+00 -.510011278531D-06 0.137815445828D-02 0.000000000000D+00  5 -2 2 25 23 21 2 0.36430719D-02 0.13264026D+00 0.20007863D+05 0.20007863D+05 0.20007863D+05 0.12338073D+01  1  2  3  1  5  1       -2 -.110247585740D-01 0.100000000000D+01
0.917053252541D-05 0.000000000000D+00 0.000000000000D+00 0.137815445828D-02 0.000000000000D+00  5 -2 2 25 23 21 2 0.36430719D-02 0.13264026D+00 0.20007863D+05 0.20007863D+05 0.20007863D+05 0.12338073D+01  1  2 15  1  5  1       -2 0.137047524341D-01 0.100000000000D+01
0.956444047121D-04 0.000000000000D+00 0.000000000000D+00 0.137815445828D-02 0.000000000000D+00  5 -2 2 25 23 21 2 0.49145784D-02 0.13264026D+00 0.27845571D+05 0.27845571D+05 0.27845571D+05 0.12183100D+01  1  2 12  1  5  1       -2 0.898335899677D-01 0.100000000000D+01
-.104686730922D-03 0.000000000000D+00 0.000000000000D+00 0.137815445828D-02 0.000000000000D+00  5 -2 2 25 23 21 2 0.36430719D-02 0.13264026D+00 0.20007863D+05 0.20007863D+05 0.20007863D+05 0.12338073D+01  1  2  4  1  5  1       -2 -.156447373851D+00 0.100000000000D+01
-.164310723489D-03 0.000000000000D+00 -.536126942357D-04 0.137815445828D-02 0.000000000000D+00  5 -2 2 25 23 21 2 0.52753344D-02 0.13264026D+00 0.20007863D+05 0.20007863D+05 0.20007863D+05 0.12338073D+01  1  2  5  1  5  1       -2 -.141236594344D+00 0.100000000000D+01
0.175471314721D-03 0.000000000000D+00 0.501373812231D-04 0.137815445828D-02 0.000000000000D+00  5 -2 2 25 23 21 2 0.36430719D-02 0.13264026D+00 0.20007863D+05 0.20007863D+05 0.20007863D+05 0.12338073D+01  1  2  6  1  5  1       -2 0.262230238088D+00 0.100000000000D+01
0.369162477465D-05 0.000000000000D+00 0.000000000000D+00 0.137815445828D-02 0.000000000000D+00  5 21 2 25 23 2 2 0.49145784D-02 0.13264026D+00 0.27845571D+05 0.27845571D+05 0.27845571D+05 0.12183100D+01  1  2 12  3  5  1       -2 0.618340184181D-01 0.100000000000D+01
-.574847999037D-05 0.000000000000D+00 -.241196737237D-05 0.137815445828D-02 0.000000000000D+00  5 21 2 25 23 2 2 0.52753344D-02 0.13264026D+00 0.20007863D+05 0.20007863D+05 0.20007863D+05 0.12338073D+01  1  2  5  3  5  1       -2 -.874620877904D-01 0.100000000000D+01
  </mgrwgt>
  </event>
  <event>
  4     66 0.46888340E-03 0.66376787E+02 0.75467711E-02 0.11903399E+00
       -2 -1    0    0    0  501 0.00000000E+00 0.00000000E+00 0.21473678E+02 0.21476062E+02 0.32000000E+00 0.0000E+00 0.9000E+01
        2 -1    0    0  501    0 0.00000000E+00 0.00000000E+00 -.76936113E+03 0.76936120E+03 0.32000000E+00 0.0000E+00 0.9000E+01
       25  1    1    2    0    0 0.38448299E+02 -.56812192E+02 -.39397213E+03 0.41898083E+03 0.12500000E+03 0.0000E+00 0.9000E+01
       23  1    1    2    0    0 -.38448299E+02 0.56812192E+02 -.35391533E+03 0.37185643E+03 0.91188000E+02 0.0000E+00 0.9000E+01
#aMCatNLO 1  0  0  1  2 0.54667573D+02 0.00000000D+00  -5  5  0 0.00000000D+00 0.00000000D+00 0.00000000D+00 0.00000000D+00 0.00000000D+00
  <mgrwgt>
 0.1832659419D+00    9    2    0
 0.128537862936556D+03 0.000000000000000D+00 0.000000000000000D+00 0.128537862936556D+03
 0.128537862936556D+03 0.000000000000000D+00 0.000000000000000D+00 -.128537862936556D+03
 0.142754974706199D+03 0.384482992280038D+02 -.568121919926783D+02 0.693440198058822D+01
 0.114320751166914D+03 -.384482992280038D+02 0.568121919926783D+02 -.693440198058822D+01
 0.000000000000000D+00 -.000000000000000D+00 0.000000000000000D+00 0.000000000000000D+00
 0.160579037222986D+03 0.000000000000000D+00 0.000000000000000D+00 0.160579037222986D+03
 0.157027792789961D+03 0.000000000000000D+00 0.000000000000000D+00 -.157027792789961D+03
 0.160528969246591D+03 0.570635728260749D+02 -.827055783660805D+02 0.693440198058822D+01
 0.102295063788580D+03 -.251526311207156D+02 0.383182456329426D+02 -.693440198058822D+01
 0.547827969777760D+02 -.319109417053593D+02 0.443873327331379D+02 0.355124443302526D+01
0.103330450672D-03 0.000000000000D+00 0.000000000000D+00 0.154447428336D-02 0.000000000000D+00  5 -2 2 25 23 21 0 0.33038313D-02 0.11836344D+00 0.16473299D+05 0.16473299D+05 0.16473299D+05 0.12432104D+01  1  2  2  1  5  1       -2 0.134337694361D+00 0.100000000000D+01
-.574056539815D-05 0.000000000000D+00 -.396816138114D-06 0.154447428336D-02 0.000000000000D+00  5 -2 2 25 23 21 2 0.33038313D-02 0.11836344D+00 0.16473299D+05 0.16473299D+05 0.16473299D+05 0.12432104D+01  1  2  3  1  5  1       -2 -.115348916575D-01 0.100000000000D+01
0.713962355732D-05 0.000000000000D+00 0.000000000000D+00 0.154447428336D-02 0.000000000000D+00  5 -2 2 25 23 21 2 0.33038313D-02 0.11836344D+00 0.16473299D+05 0.16473299D+05 0.16473299D+05 0.12432104D+01  1  2 15  1  5  1       -2 0.143461102691D-01 0.100000000000D+01
0.334021376260D-04 0.000000000000D+00 0.000000000000D+00 0.154447428336D-02 0.000000000000D+00  5 -2 2 25 23 21 2 0.44133273D-02 0.11836344D+00 0.25139126D+05 0.25139126D+05 0.25139126D+05 0.12230393D+01  1  2 12  1  5  1       -2 0.428081703136D-01 0.100000000000D+01
-.375929879622D-04 0.000000000000D+00 0.000000000000D+00 0.154447428336D-02 0.000000000000D+00  5 -2 2 25 23 21 2 0.33038313D-02 0.11836344D+00 0.16473299D+05 0.16473299D+05 0.16473299D+05 0.12432104D+01  1  2  4  1  5  1       -2 -.755380373099D-01 0.100000000000D+01
-.742756879563D-04 0.000000000000D+00 -.379168326598D-04 0.154447428336D-02 0.000000000000D+00  5 -2 2 25 23 21 2 0.50673586D-02 0.11836344D+00 0.16473299D+05 0.16473299D+05 0.16473299D+05 0.12432104D+01  1  2  5  1  5  1       -2 -.790510011844D-01 0.100000000000D+01
0.857517636478D-04 0.000000000000D+00 0.346943292915D-04 0.154447428336D-02 0.000000000000D+00  5 -2 2 25 23 21 2 0.33038313D-02 0.11836344D+00 0.16473299D+05 0.16473299D+05 0.16473299D+05 0.12432104D+01  1  2  6  1  5  1       -2 0.172306599527D+00 0.100000000000D+01
0.125845707431D-05 0.000000000000D+00 0.000000000000D+00 0.154447428336D-02 0.000000000000D+00  5 21 2 25 23 2 2 0.44133273D-02 0.11836344D+00 0.25139126D+05 0.25139126D+05 0.25139126D+05 0.12230393D+01  1  2 12  3  5  1       -2 0.293780184201D-01 0.100000000000D+01
-.230068022893D-05 0.000000000000D+00 -.189659193626D-05 0.154447428336D-02 0.000000000000D+00  5 21 2 25 23 2 2 0.50673586D-02 0.11836344D+00 0.16473299D+05 0.16473299D+05 0.16473299D+05 0.12432104D+01  1  2  5  3  5  1       -2 -.437867208404D-01 0.100000000000D+01
  </mgrwgt>
  </event>
  <event>
  4     66 0.46888340E-03 0.10935197E+03 0.75467711E-02 0.11600875E+00
       -2 -1    0    0    0  501 0.00000000E+00 0.00000000E+00 0.11092941E+02 0.11097555E+02 0.32000000E+00 0.0000E+00 0.9000E+01
        2 -1    0    0  501    0 0.00000000E+00 0.00000000E+00 -.13209731E+04 0.13209731E+04 0.32000000E+00 0.0000E+00 0.9000E+01
       25  1    1    2    0    0 0.11230474E+02 0.11869214E+02 -.10196631E+04 0.10274263E+04 0.12500000E+03 0.0000E+00 0.9000E+01
       23  1    1    2    0    0 -.11230474E+02 -.11869214E+02 -.29021702E+03 0.30464434E+03 0.91188000E+02 0.0000E+00 0.9000E+01
#aMCatNLO 1  0  0  2  2 0.12483596D+03 0.00000000D+00  -5  5  0 0.00000000D+00 0.00000000D+00 0.00000000D+00 0.00000000D+00 0.00000000D+00
  <mgrwgt>
 0.1561459370D+00    5    2    0
 0.121064342734095D+03 0.000000000000000D+00 0.000000000000000D+00 0.121064342734095D+03
 0.121064342734095D+03 0.000000000000000D+00 0.000000000000000D+00 -.121064342734095D+03
 0.136159102452187D+03 0.112304744097189D+02 0.118692139692289D+02 -.514519133256539D+02
 0.105969583016002D+03 -.112304744097189D+02 -.118692139692289D+02 0.514519133256539D+02
 0.000000000000000D+00 -.000000000000000D+00 0.000000000000000D+00 -.000000000000000D+00
 0.162917040607245D+03 0.000000000000000D+00 0.000000000000000D+00 0.162917040607245D+03
 0.282075412774617D+03 0.000000000000000D+00 0.000000000000000D+00 -.282075412774617D+03
 0.158029574646337D+03 0.818463472588875D+02 0.149081132583155D+01 -.514519133256539D+02
 0.114386130826014D+03 0.416628293833576D+02 -.196429336976050D+02 0.514519133256539D+02
 0.172576747909512D+03 -.123509176642245D+03 0.181521223717735D+02 -.119158372167372D+03
0.100095367500D-03 0.000000000000D+00 0.000000000000D+00 0.143076614223D-02 0.000000000000D+00  5 -2 2 25 23 21 0 0.17069642D-02 0.20322698D+00 0.11957853D+05 0.11957853D+05 0.11957853D+05 0.12592032D+01  1  2  2  2  5  2        2 0.158791190950D+00 0.100000000000D+01
-.549085416673D-05 0.000000000000D+00 -.384392566915D-06 0.143076614223D-02 0.000000000000D+00  5 -2 2 25 23 21 2 0.17069642D-02 0.20322698D+00 0.11957853D+05 0.11957853D+05 0.11957853D+05 0.12592032D+01  1  2  3  2  5  2        2 -.138116001107D-01 0.100000000000D+01
0.686291405682D-05 0.000000000000D+00 0.000000000000D+00 0.143076614223D-02 0.000000000000D+00  5 -2 2 25 23 21 2 0.17069642D-02 0.20322698D+00 0.11957853D+05 0.11957853D+05 0.11957853D+05 0.12592032D+01  1  2 15  2  5  2        2 0.172628559545D-01 0.100000000000D+01
-.290791315830D-04 0.000000000000D+00 -.307374278239D-04 0.143076614223D-02 0.000000000000D+00  5 -2 2 25 23 21 2 0.17069642D-02 0.51340002D+00 0.11957853D+05 0.11957853D+05 0.11957853D+05 0.12592032D+01  1  2  5  2  5  2        2 -.607391745459D-02 0.100000000000D+01
-.108291032669D-05 0.000000000000D+00 -.314084495687D-05 0.143076614223D-02 0.000000000000D+00  5 -2 21 25 23 -2 2 0.17069642D-02 0.51340002D+00 0.11957853D+05 0.11957853D+05 0.11957853D+05 0.12592032D+01  1  2  5  4  5  2        2 -.225923220044D-04 0.100000000000D+01
  </mgrwgt>
  </event>
  <event>
  4     66 0.46888340E-03 0.11178248E+03 0.75467711E-02 0.11666347E+00
       -2 -1    0    0    0  501 0.00000000E+00 0.00000000E+00 0.28685498E+03 0.28685516E+03 0.32000000E+00 0.0000E+00 0.9000E+01
        2 -1    0    0  501    0 0.00000000E+00 0.00000000E+00 -.61301639E+02 0.61302474E+02 0.32000000E+00 0.0000E+00 0.9000E+01
       25  1    1    2    0    0 -.20019212E+02 -.19791150E+02 0.21743382E+03 0.25237853E+03 0.12500000E+03 0.0000E+00 0.9000E+01
       23  1    1    2    0    0 0.20019212E+02 0.19791150E+02 0.81195259E+01 0.95779103E+02 0.91188000E+02 0.0000E+00 0.9000E+01
#aMCatNLO 1  0  0  1  2 0.11304521D+03 0.00000000D+00  -5  5  0 0.00000000D+00 0.00000000D+00 0.00000000D+00 0.00000000D+00 0.00000000D+00
  <mgrwgt>
 0.1402084209D+00    3    2    0
 0.132607907110018D+03 0.000000000000000D+00 0.000000000000000D+00 0.132607907110018D+03
 0.132607907110018D+03 0.000000000000000D+00 0.000000000000000D+00 -.132607907110018D+03
 0.146388662751413D+03 -.200192119317546D+02 -.197911495350192D+02 0.707967664223519D+02
 0.118827151468623D+03 0.200192119317546D+02 0.197911495350192D+02 -.707967664223519D+02
 0.000000000000000D+00 0.000000000000000D+00 0.000000000000000D+00 -.000000000000000D+00
 0.198384211750419D+03 0.000000000000000D+00 0.000000000000000D+00 0.198384211750419D+03
 0.203060731133184D+03 0.000000000000000D+00 0.000000000000000D+00 -.203060731133184D+03
 0.169714346741486D+03 -.819022664856197D+02 -.381810960888590D+02 0.707967664223519D+02
 0.118588700225523D+03 -.264593651811635D+02 0.597899117976076D+01 -.707967664223519D+02
 0.113141895916595D+03 0.108361631666783D+03 0.322021049090982D+02 -.467651938276417D+01
0.426504162451D-03 0.000000000000D+00 0.000000000000D+00 0.116461406953D-02 0.000000000000D+00  5 -2 2 25 23 21 0 0.44131614D-01 0.94310993D-02 0.12495322D+05 0.12495322D+05 0.12495322D+05 0.12569706D+01  1  2  2  1  5  1       -2 0.136999045041D+00 0.100000000000D+01
-.228538207820D-04 0.000000000000D+00 -.163788828493D-05 0.116461406953D-02 0.000000000000D+00  5 -2 2 25 23 21 2 0.44131614D-01 0.94310993D-02 0.12495322D+05 0.12495322D+05 0.12495322D+05 0.12569706D+01  1  2  3  1  5  1       -2 -.115985393230D-01 0.100000000000D+01
0.291775912188D-04 0.000000000000D+00 0.000000000000D+00 0.116461406953D-02 0.000000000000D+00  5 -2 2 25 23 21 2 0.44131614D-01 0.94310993D-02 0.12495322D+05 0.12495322D+05 0.12495322D+05 0.12569706D+01  1  2 15  1  5  1       -2 0.148079151547D-01 0.100000000000D+01
  </mgrwgt>
  </event>
  <event>
  4     66 0.46888340E-03 0.15665930E+03 0.75467711E-02 0.11448733E+00
       -2 -1    0    0    0  501 0.00000000E+00 0.00000000E+00 0.13904768E+03 0.13904805E+03 0.32000000E+00 0.0000E+00 0.9000E+01
        2 -1    0    0  501    0 0.00000000E+00 0.00000000E+00 -.29526596E+03 0.29526614E+03 0.32000000E+00 0.0000E+00 0.9000E+01
       25  1    1    2    0    0 0.14367236E+03 -.90747045E+02 -.63315869E+02 0.22025139E+03 0.12500000E+03 0.0000E+00 0.9000E+01
       23  1    1    2    0    0 -.14367236E+03 0.90747045E+02 -.92902413E+02 0.21406280E+03 0.91188000E+02 0.0000E+00 0.9000E+01
#aMCatNLO 1  0  0  1  2 0.78722297D+01 0.00000000D+00  -5  5  0 0.00000000D+00 0.00000000D+00 0.00000000D+00 0.00000000D+00 0.00000000D+00
  <mgrwgt>
 0.1005407483D+00   11    2    0
 0.202623210209893D+03 0.000000000000000D+00 0.000000000000000D+00 0.202623210209893D+03
 0.202623210209893D+03 0.000000000000000D+00 0.000000000000000D+00 -.202623210209893D+03
 0.211642103761658D+03 0.143672360588746D+03 -.907470450881641D+02 0.170471902460366D+02
 0.193604316658127D+03 -.143672360588746D+03 0.907470450881641D+02 -.170471902460366D+02
 0.000000000000000D+00 -.000000000000000D+00 0.000000000000000D+00 0.000000000000000D+00
 0.217128175007217D+03 0.000000000000000D+00 0.000000000000000D+00 0.217128175007217D+03
 0.203732377146500D+03 0.000000000000000D+00 0.000000000000000D+00 -.203732377146500D+03
 0.214487643612105D+03 0.147810777484309D+03 -.907816976403998D+02 0.170471902460366D+02
 0.190835231715547D+03 -.139938823720884D+03 0.907157827517193D+02 -.170471902460366D+02
 0.155376768260654D+02 -.787195376342540D+01 0.659148886804956D-01 0.133957978607170D+02
0.558487081666D-03 0.000000000000D+00 0.000000000000D+00 0.112399018410D-02 0.000000000000D+00  5 -2 2 25 23 21 0 0.21391993D-01 0.45425574D-01 0.40764978D+05 0.40764978D+05 0.40764978D+05 0.12011657D+01  1  2  2  1  5  1       -2 0.114960810911D+00 0.100000000000D+01
-.310265822984D-04 0.000000000000D+00 -.214473744662D-05 0.112399018410D-02 0.000000000000D+00  5 -2 2 25 23 21 2 0.21391993D-01 0.45425574D-01 0.40764978D+05 0.40764978D+05 0.40764978D+05 0.12011657D+01  1  2  3  1  5  1       -2 -.921459941436D-02 0.100000000000D+01
0.383098064361D-04 0.000000000000D+00 0.000000000000D+00 0.112399018410D-02 0.000000000000D+00  5 -2 2 25 23 21 2 0.21391993D-01 0.45425574D-01 0.40764978D+05 0.40764978D+05 0.40764978D+05 0.12011657D+01  1  2 15  1  5  1       -2 0.113776476105D-01 0.100000000000D+01
0.553675721713D-02 0.000000000000D+00 0.000000000000D+00 0.112399018410D-02 0.000000000000D+00  5 -2 2 25 23 21 2 0.22979454D-01 0.45425574D-01 0.42385268D+05 0.42385268D+05 0.42385268D+05 0.11994541D+01  1  2 12  1  5  1       -2 0.144933833929D+01 0.100000000000D+01
-.567646896661D-02 0.000000000000D+00 0.000000000000D+00 0.112399018410D-02 0.000000000000D+00  5 -2 2 25 23 21 2 0.21391993D-01 0.45425574D-01 0.40764978D+05 0.40764978D+05 0.40764978D+05 0.12011657D+01  1  2  4  1  5  1       -2 -.168585721470D+01 0.100000000000D+01
-.103178608101D-01 0.000000000000D+00 -.908344451622D-03 0.112399018410D-02 0.000000000000D+00  5 -2 2 25 23 21 2 0.23020225D-01 0.45425574D-01 0.40764978D+05 0.40764978D+05 0.40764978D+05 0.12011657D+01  1  2  5  1  5  1       -2 -.269884005135D+01 0.100000000000D+01
0.103590478583D-01 0.000000000000D+00 0.905905939734D-03 0.112399018410D-02 0.000000000000D+00  5 -2 2 25 23 21 2 0.21391993D-01 0.45425574D-01 0.40764978D+05 0.40764978D+05 0.40764978D+05 0.12011657D+01  1  2  6  1  5  1       -2 0.307653854395D+01 0.100000000000D+01
0.451616990997D-04 0.000000000000D+00 0.000000000000D+00 0.112399018410D-02 0.139495709309D-03  5 -2 2 25 23 21 2 0.22923358D-01 0.45674236D-01 0.42385268D+05 0.42385268D+05 0.42385268D+05 0.11994541D+01  1  2 11  1  5  1       -2 0.118028390447D-01 0.100000000000D+01
0.772016208663D-04 0.000000000000D+00 0.000000000000D+00 0.112399018410D-02 0.000000000000D+00  5 21 2 25 23 2 2 0.22979454D-01 0.45425574D-01 0.42385268D+05 0.42385268D+05 0.42385268D+05 0.11994541D+01  1  2 12  3  5  1       -2 0.271970975886D+00 0.100000000000D+01
-.125880672786D-03 0.000000000000D+00 -.112290120788D-04 0.112399018410D-02 0.000000000000D+00  5 21 2 25 23 2 2 0.23020225D-01 0.45425574D-01 0.40764978D+05 0.40764978D+05 0.40764978D+05 0.12011657D+01  1  2  5  3  5  1       -2 -.443442807666D+00 0.100000000000D+01
0.541776282379D-06 0.000000000000D+00 0.000000000000D+00 0.112399018410D-02 0.163716162005D-05  5 21 2 25 23 2 2 0.22923358D-01 0.45674236D-01 0.42385268D+05 0.42385268D+05 0.42385268D+05 0.11994541D+01  1  2 11  3  5  1       -2 0.190626471716D-02 0.100000000000D+01
  </mgrwgt>
  </event>
  <event>
  4     66 0.46888340E-03 0.50102093E+02 0.75467711E-02 0.12294093E+00
       -2 -1    0    0    0  501 0.00000000E+00 0.00000000E+00 0.10047156E+02 0.10052250E+02 0.32000000E+00 0.0000E+00 0.9000E+01
        2 -1    0    0  501    0 0.00000000E+00 0.00000000E+00 -.13613495E+04 0.13613495E+04 0.32000000E+00 0.0000E+00 0.9000E+01
       25  1    1    2    0    0 0.36352117E+02 -.24775707E+02 -.79203005E+03 0.80303917E+03 0.12500000E+03 0.0000E+00 0.9000E+01
       23  1    1    2    0    0 -.36352117E+02 0.24775707E+02 -.55927226E+03 0.56836258E+03 0.91188000E+02 0.0000E+00 0.9000E+01
#aMCatNLO 1  0  0  1  2 0.22539692D+02 0.00000000D+00  -5  5  0 0.00000000D+00 0.00000000D+00 0.00000000D+00 0.00000000D+00 0.00000000D+00
  <mgrwgt>
 0.1176035260D+00    9    2    0
 0.116966701953223D+03 0.000000000000000D+00 0.000000000000000D+00 0.116966701953223D+03
 0.116966701953223D+03 0.000000000000000D+00 0.000000000000000D+00 -.116966701953223D+03
 0.132590269459904D+03 0.363521165496285D+02 -.247757071234939D+02 -.445729899637210D+01
 0.101343134446542D+03 -.363521165496285D+02 0.247757071234939D+02 0.445729899637210D+01
 0.000000000000000D+00 0.000000000000000D+00 0.000000000000000D+00 0.000000000000000D+00
 0.147597850243422D+03 0.000000000000000D+00 0.000000000000000D+00 0.147597850243422D+03
 0.121729436138148D+03 0.000000000000000D+00 0.000000000000000D+00 -.121729436138148D+03
 0.132957934701929D+03 0.285631452494274D+02 -.348868402025656D+02 -.445729899637210D+01
 0.102058820386979D+03 -.423182348052715D+02 0.170308826372711D+02 0.445729899637210D+01
 0.343105312926631D+02 0.137550895558441D+02 0.178559575652944D+02 0.258684141052738D+02
0.661522595391D-04 0.000000000000D+00 0.000000000000D+00 0.172449505149D-02 0.000000000000D+00  5 -2 2 25 23 21 0 0.15461111D-02 0.20943877D+00 0.13660980D+05 0.13660980D+05 0.13660980D+05 0.12524788D+01  1  2  2  1  5  1       -2 0.115667464485D+00 0.100000000000D+01
-.367512308407D-05 0.000000000000D+00 -.254042094920D-06 0.172449505149D-02 0.000000000000D+00  5 -2 2 25 23 21 2 0.15461111D-02 0.20943877D+00 0.13660980D+05 0.13660980D+05 0.13660980D+05 0.12524788D+01  1  2  3  1  5  1       -2 -.100804329325D-01 0.100000000000D+01
0.456694805211D-05 0.000000000000D+00 0.000000000000D+00 0.172449505149D-02 0.000000000000D+00  5 -2 2 25 23 21 2 0.15461111D-02 0.20943877D+00 0.13660980D+05 0.13660980D+05 0.13660980D+05 0.12524788D+01  1  2 15  1  5  1       -2 0.125266045496D-01 0.100000000000D+01
0.119326035555D-03 0.000000000000D+00 0.000000000000D+00 0.172449505149D-02 0.000000000000D+00  5 -2 2 25 23 21 2 0.19765996D-02 0.20943877D+00 0.16561674D+05 0.16561674D+05 0.16561674D+05 0.12429486D+01  1  2 12  1  5  1       -2 0.227401714171D+00 0.100000000000D+01
-.121320758840D-03 0.000000000000D+00 0.000000000000D+00 0.172449505149D-02 0.000000000000D+00  5 -2 2 25 23 21 2 0.15461111D-02 0.20943877D+00 0.13660980D+05 0.13660980D+05 0.13660980D+05 0.12524788D+01  1  2  4  1  5  1       -2 -.332768656947D+00 0.100000000000D+01
-.177049343397D-03 0.000000000000D+00 -.334825608794D-04 0.172449505149D-02 0.000000000000D+00  5 -2 2 25 23 21 2 0.20344602D-02 0.20943877D+00 0.13660980D+05 0.13660980D+05 0.13660980D+05 0.12524788D+01  1  2  5  1  5  1       -2 -.326902741315D+00 0.100000000000D+01
0.180615876878D-03 0.000000000000D+00 0.322596344759D-04 0.172449505149D-02 0.000000000000D+00  5 -2 2 25 23 21 2 0.15461111D-02 0.20943877D+00 0.13660980D+05 0.13660980D+05 0.13660980D+05 0.12524788D+01  1  2  6  1  5  1       -2 0.495408233073D+00 0.100000000000D+01
0.398617547018D-05 0.000000000000D+00 0.000000000000D+00 0.172449505149D-02 0.000000000000D+00  5 21 2 25 23 2 2 0.19765996D-02 0.20943877D+00 0.16561674D+05 0.16561674D+05 0.16561674D+05 0.12429486D+01  1  2 12  3  5  1       -2 0.159818514439D+00 0.100000000000D+01
-.576394940486D-05 0.000000000000D+00 -.121348218295D-05 0.172449505149D-02 0.000000000000D+00  5 21 2 25 23 2 2 0.20344602D-02 0.20943877D+00 0.13660980D+05 0.13660980D+05 0.13660980D+05 0.12524788D+01  1  2  5  3  5  1       -2 -.223467173552D+00 0.100000000000D+01
  </mgrwgt>
  </event>
  <event>
  4     66 0.46888340E-03 0.12420568E+03 0.75467711E-02 0.11939505E+00
       -2 -1    0    0    0  501 0.00000000E+00 0.00000000E+00 0.10519605E+02 0.10524471E+02 0.32000000E+00 0.0000E+00 0.9000E+01
        2 -1    0    0  501    0 0.00000000E+00 0.00000000E+00 -.21232367E+04 0.21232368E+04 0.32000000E+00 0.0000E+00 0.9000E+01
       25  1    1    2    0    0 0.27662477E+02 0.53927592E+02 -.17333886E+04 0.17389464E+04 0.12500000E+03 0.0000E+00 0.9000E+01
       23  1    1    2    0    0 -.27662477E+02 -.53927592E+02 -.37932852E+03 0.39481486E+03 0.91188000E+02 0.0000E+00 0.9000E+01
#aMCatNLO 1  0  0  1  2 0.57231995D+02 0.00000000D+00  -5  5  0 0.00000000D+00 0.00000000D+00 0.00000000D+00 0.00000000D+00 0.00000000D+00
  <mgrwgt>
 0.2302445457D+00    3    2    0
 0.149468488372920D+03 0.000000000000000D+00 0.000000000000000D+00 0.149468488372920D+03
 0.149468488372920D+03 0.000000000000000D+00 0.000000000000000D+00 -.149468488372920D+03
 0.161694725380419D+03 0.276624772998492D+02 0.539275923844567D+02 -.827453101093977D+02
 0.137242251365420D+03 -.276624772998492D+02 -.539275923844567D+02 0.827453101093977D+02
 0.000000000000000D+00 -.000000000000000D+00 -.000000000000000D+00 -.000000000000000D+00
 0.155871973873533D+03 0.000000000000000D+00 0.000000000000000D+00 0.155871973873533D+03
 0.374169965571053D+03 0.000000000000000D+00 0.000000000000000D+00 -.374169965571053D+03
 0.175053193368223D+03 0.532554943037561D+02 0.730457835181106D+02 -.827453101093977D+02
 0.129313061870984D+03 -.740413482963756D+01 -.387944463650795D+02 0.827453101093977D+02
 0.225675684205379D+03 -.458513594741186D+02 -.342513371530311D+02 -.218297991697520D+03
0.336962150653D-03 0.000000000000D+00 0.000000000000D+00 0.100980850196D-02 0.000000000000D+00  5 -2 2 25 23 21 0 0.16187769D-02 0.32665218D+00 0.15427051D+05 0.15427051D+05 0.15427051D+05 0.12464351D+01  1  2  2  1  5  1       -2 0.224945253606D+00 0.100000000000D+01
-.179398907360D-04 0.000000000000D+00 -.129402338268D-05 0.100980850196D-02 0.000000000000D+00  5 -2 2 25 23 21 2 0.16187769D-02 0.32665218D+00 0.15427051D+05 0.15427051D+05 0.15427051D+05 0.12464351D+01  1  2  3  1  5  1       -2 -.186060772864D-01 0.100000000000D+01
0.230494427981D-04 0.000000000000D+00 0.000000000000D+00 0.100980850196D-02 0.000000000000D+00  5 -2 2 25 23 21 2 0.16187769D-02 0.32665218D+00 0.15427051D+05 0.15427051D+05 0.15427051D+05 0.12464351D+01  1  2 15  1  5  1       -2 0.239053693482D-01 0.100000000000D+01
  </mgrwgt>
  </event>
  <event>
  5     66 0.46888340E-03 0.15009039E+03 0.75467711E-02 0.11104733E+00
       -2 -1    0    0    0  501 0.00000000E+00 0.00000000E+00 0.87531927E+02 0.87532512E+02 0.32000000E+00 0.0000E+00 0.9000E+01
       21 -1    0    0  501  502 0.00000000E+00 0.00000000E+00 -.98179565E+03 0.98179594E+03 0.75000000E+00 0.0000E+00 0.9000E+01
       25  1    1    2    0    0 0.17049770E+03 -.78897136E+02 -.22310127E+03 0.31732224E+03 0.12500000E+03 0.0000E+00 0.9000E+01
       23  1    1    2    0    0 -.59068567E+02 -.44269458E+02 -.90825099E+02 0.14836890E+03 0.91188000E+02 0.0000E+00 0.9000E+01
       -2  1    1    2    0  502 -.11142913E+03 0.12316659E+03 -.58033735E+03 0.60363731E+03 0.32000000E+00 0.0000E+00 0.9000E+01
#aMCatNLO 2  0  0  2  2 0.16609173D+03 0.00000000D+00  -5  5  0 0.00000000D+00 0.00000000D+00 0.00000000D+00 0.00000000D+00 0.00000000D+00
  <mgrwgt>
 0.7349472353D-02    1    2    0
 0.150608769447770D+03 0.000000000000000D+00 0.000000000000000D+00 0.150608769447770D+03
 0.150608769447770D+03 0.000000000000000D+00 0.000000000000000D+00 -.150608769447770D+03
 0.162742439822348D+03 0.103359923486311D+03 -.468735802289996D+01 -.124441396247232D+02
 0.138475099073193D+03 -.103359923486311D+03 0.468735802289996D+01 0.124441396247232D+02
 0.000000000000000D+00 -.000000000000000D+00 0.000000000000000D+00 -.000000000000000D+00
 0.198391833709056D+03 0.000000000000000D+00 0.000000000000000D+00 0.198391833709056D+03
 0.433177414276683D+03 0.000000000000000D+00 0.000000000000000D+00 -.433177414276683D+03
 0.225995752792100D+03 0.170497699853345D+03 -.788971356500819D+02 -.124441396247232D+02
 0.117978762498811D+03 -.590685666456419D+02 -.442694576449804D+02 0.124441396247232D+02
 0.287594732694827D+03 -.111429133207703D+03 0.123166593295062D+03 -.234785580567627D+03
0.570829004111D-04 0.000000000000D+00 0.000000000000D+00 0.133489199945D-02 0.978895562905D-07  5 -2 21 25 23 -2 2 0.13466512D-01 0.15104549D+00 0.64786856D+05 0.64786856D+05 0.64786856D+05 0.11812967D+01  1  2  1  4  5  2        2 0.734947235342D-02 0.100000000000D+01
  </mgrwgt>
  </event>
  <event>
  5     66 0.46888340E-03 0.17262418E+03 0.75467711E-02 0.11228135E+00
       -2 -1    0    0    0  501 0.00000000E+00 0.00000000E+00 0.24825167E+02 0.24827229E+02 0.32000000E+00 0.0000E+00 0.9000E+01
        2 -1    0    0  502    0 0.00000000E+00 0.00000000E+00 -.23158146E+04 0.23158146E+04 0.32000000E+00 0.0000E+00 0.9000E+01
       25  1    1    2    0    0 0.11282080E+03 -.45824541E+02 -.98596401E+03 0.10012884E+04 0.12500000E+03 0.0000E+00 0.9000E+01
       23  1    1    2    0    0 -.15439443E+03 -.54929737E+02 -.93435555E+03 0.95299027E+03 0.91188000E+02 0.0000E+00 0.9000E+01
       21  1    1    2  502  501 0.41573638E+02 0.10075428E+03 -.37066989E+03 0.38636320E+03 0.75000000E+00 0.0000E+00 0.9000E+01
#aMCatNLO 2  0  0  2  2 0.10899446D+03 0.00000000D+00  -5  5  0 0.00000000D+00 0.00000000D+00 0.00000000D+00 0.00000000D+00 0.00000000D+00
  <mgrwgt>
 0.1538009324D-01    1    2    0
 0.172987073914046D+03 0.000000000000000D+00 0.000000000000000D+00 0.172987073914046D+03
 0.172987073914046D+03 0.000000000000000D+00 0.000000000000000D+00 -.172987073914046D+03
 0.183551083829076D+03 0.133845918787431D+03 0.513013053526946D+01 -.111782001891201D+02
 0.162423063999016D+03 -.133845918787431D+03 -.513013053526946D+01 0.111782001891201D+02
 0.000000000000000D+00 0.000000000000000D+00 0.000000000000000D+00 0.000000000000000D+00
 0.265181601164685D+03 0.000000000000000D+00 0.000000000000000D+00 0.265181601164685D+03
 0.216803642813260D+03 0.000000000000000D+00 0.000000000000000D+00 -.216803642813260D+03
 0.174866728411622D+03 0.112820795825729D+03 -.458245411888097D+02 -.111782001891201D+02
 0.187869956883667D+03 -.154394433914627D+03 -.549297366841025D+02 0.111782001891201D+02
 0.119248558682656D+03 0.415736380888976D+02 0.100754277872912D+03 0.483779583514251D+02
0.729918218091D-04 0.000000000000D+00 0.000000000000D+00 0.121942906197D-02 0.861403717785D-06  5 -2 2 25 23 21 2 0.38193973D-02 0.35627751D+00 0.55469825D+05 0.55469825D+05 0.55469825D+05 0.11878422D+01  1  2  1  2  5  2        2 0.153800932407D-01 0.100000000000D+01
  </mgrwgt>
  </event>
  <event>
  4     66 0.46888340E-03 0.17622574E+03 0.75467711E-02 0.11179923E+00
       -2 -1    0    0    0  501 0.00000000E+00 0.00000000E+00 0.44449285E+02 0.44450437E+02 0.32000000E+00 0.0000E+00 0.9000E+01
        2 -1    0    0  501    0 0.00000000E+00 0.00000000E+00 -.74323276E+03 0.74323283E+03 0.32000000E+00 0.0000E+00 0.9000E+01
       25  1    1    2    0    0 0.41527590E+02 0.13216800E+03 -.46500657E+03 0.50104793E+03 0.12500000E+03 0.0000E+00 0.9000E+01
       23  1    1    2    0    0 -.41527590E+02 -.13216800E+03 -.23377691E+03 0.28663534E+03 0.91188000E+02 0.0000E+00 0.9000E+01
#aMCatNLO 1  0  0  1  2 0.11501786D+03 0.00000000D+00  -5  5  0 0.00000000D+00 0.00000000D+00 0.00000000D+00 0.00000000D+00 0.00000000D+00
  <mgrwgt>
 0.1694712052D+00    4    2    0
 0.181759857552868D+03 0.000000000000000D+00 0.000000000000000D+00 0.181759857552868D+03
 0.181759857552868D+03 0.000000000000000D+00 0.000000000000000D+00 -.181759857552868D+03
 0.191813987153340D+03 0.415275903465276D+02 0.132168002309870D+03 -.444374174889926D+02
 0.171705727952395D+03 -.415275903465276D+02 -.132168002309870D+03 0.444374174889926D+02
 0.000000000000000D+00 0.000000000000000D+00 0.000000000000000D+00 -.000000000000000D+00
 0.226781520452445D+03 0.000000000000000D+00 0.000000000000000D+00 0.226781520452445D+03
 0.282151971800689D+03 0.000000000000000D+00 0.000000000000000D+00 -.282151971800689D+03
 0.157533450535200D+03 0.300942273251017D+02 0.794445809740373D+02 -.444374174889926D+02
 0.223748192186779D+03 -.544699157779457D+02 -.191849801576401D+03 0.444374174889926D+02
 0.127651849531154D+03 0.243756884528439D+02 0.112405220602364D+03 -.553704513482441D+02
0.448304569693D-03 0.000000000000D+00 0.000000000000D+00 0.112862427612D-02 0.000000000000D+00  5 -2 2 25 23 21 0 0.68384455D-02 0.11434360D+00 0.31055513D+05 0.31055513D+05 0.31055513D+05 0.12133254D+01  1  2  2  1  5  1       -2 0.207209255281D+00 0.100000000000D+01
-.248768575840D-04 0.000000000000D+00 -.172160758893D-05 0.112862427612D-02 0.000000000000D+00  5 -2 2 25 23 21 2 0.68384455D-02 0.11434360D+00 0.31055513D+05 0.31055513D+05 0.31055513D+05 0.12133254D+01  1  2  3  1  5  1       -2 -.169272377264D-01 0.100000000000D+01
0.308056406242D-04 0.000000000000D+00 0.000000000000D+00 0.112862427612D-02 0.000000000000D+00  5 -2 2 25 23 21 2 0.68384455D-02 0.11434360D+00 0.31055513D+05 0.31055513D+05 0.31055513D+05 0.12133254D+01  1  2 15  1  5  1       -2 0.209614257106D-01 0.100000000000D+01
-.613899346666D-04 0.000000000000D+00 0.000000000000D+00 0.112862427612D-02 0.000000000000D+00  5 -2 2 25 23 21 2 0.68384455D-02 0.11434360D+00 0.31055513D+05 0.31055513D+05 0.31055513D+05 0.12133254D+01  1  2  4  1  5  1       -2 -.417722380972D-01 0.100000000000D+01
  </mgrwgt>
  </event>
  <event>
  5     66 0.46888340E-03 0.18637501E+03 0.75467711E-02 0.10514677E+00
       -2 -1    0    0    0  501 0.00000000E+00 0.00000000E+00 0.57209634E+03 0.57209643E+03 0.32000000E+00 0.0000E+00 0.9000E+01
       21 -1    0    0  501  502 0.00000000E+00 0.00000000E+00 -.32361706E+03 0.32361793E+03 0.75000000E+00 0.0000E+00 0.9000E+01
       25  1    1    2    0    0 -.12479040E+03 0.23894701E+03 0.13488436E+01 0.29714498E+03 0.12500000E+03 0.0000E+00 0.9000E+01
       23  1    1    2    0    0 -.11858829E+03 -.86785037E+02 -.55342613E+02 0.18158437E+03 0.91188000E+02 0.0000E+00 0.9000E+01
       -2  1    1    2    0  502 0.24337870E+03 -.15216197E+03 0.30247305E+03 0.41698502E+03 0.32000000E+00 0.0000E+00 0.9000E+01
#aMCatNLO 2  0  0  2  2 0.28703041D+03 0.00000000D+00  -5  5  0 0.00000000D+00 0.00000000D+00 0.00000000D+00 0.00000000D+00 0.00000000D+00
  <mgrwgt>
 0.6286042420D-02    1    2    0
 0.189657586229832D+03 0.000000000000000D+00 0.000000000000000D+00 0.189657586229832D+03
 0.189657586229832D+03 0.000000000000000D+00 0.000000000000000D+00 -.189657586229832D+03
 0.199293041369420D+03 0.171108077107403D+02 0.150229431161227D+03 0.350863878268128D+02
 0.180022131090245D+03 -.171108077107403D+02 -.150229431161227D+03 -.350863878268128D+02
 0.000000000000000D+00 0.000000000000000D+00 -.000000000000000D+00 0.000000000000000D+00
 0.640709129682503D+03 0.000000000000000D+00 0.000000000000000D+00 0.640709129682503D+03
 0.288961859279640D+03 0.000000000000000D+00 0.000000000000000D+00 -.288961859279640D+03
 0.299206236397997D+03 -.124790404118280D+03 0.238947007365058D+03 0.350863878268128D+02
 0.176468500170610D+03 -.118588291907236D+03 -.867850368453877D+02 -.350863878268128D+02
 0.453996252393535D+03 0.243378696025516D+03 -.152161970519671D+03 0.351747270402863D+03
0.139500350610D-03 0.000000000000D+00 0.000000000000D+00 0.113033061837D-02 0.220552718260D-07  5 -2 21 25 23 -2 2 0.88014881D-01 0.49787305D-01 0.14330677D+06 0.14330677D+06 0.14330677D+06 0.11494839D+01  1  2  1  4  5  2        2 0.628604242035D-02 0.100000000000D+01
  </mgrwgt>
  </event>
  <event>
  4     66 0.46888340E-03 0.25178226E+03 0.75467711E-02 0.95097446E-01
       -4 -1    0    0    0  501 0.00000000E+00 0.00000000E+00 0.52655073E+02 0.52677882E+02 0.15500000E+01 0.0000E+00 0.9000E+01
        4 -1    0    0  501    0 0.00000000E+00 0.00000000E+00 -.12641773E+04 0.12641782E+04 0.15500000E+01 0.0000E+00 0.9000E+01
       25  1    1    2    0    0 -.15071778E+03 0.16959071E+03 -.47839783E+03 0.54402788E+03 0.12500000E+03 0.0000E+00 0.9000E+01
       23  1    1    2    0    0 0.15071778E+03 -.16959071E+03 -.73312435E+03 0.77282820E+03 0.91188000E+02 0.0000E+00 0.9000E+01
#aMCatNLO 1  0  0  1  2 0.76061893D+03 0.00000000D+00  -5  5  0 0.00000000D+00 0.00000000D+00 0.00000000D+00 0.00000000D+00 0.00000000D+00
  <mgrwgt>
 0.5299401161D-02    3    2    0
 0.258032922217539D+03 0.000000000000000D+00 0.000000000000000D+00 0.258032922217539D+03
 0.258032922217539D+03 0.000000000000000D+00 0.000000000000000D+00 -.258032922217539D+03
 0.265115108274632D+03 -.150717780929993D+03 0.169590710462651D+03 0.564283800208868D+02
 0.250950736160446D+03 0.150717780929993D+03 -.169590710462651D+03 -.564283800208868D+02
 0.000000000000000D+00 0.000000000000000D+00 0.000000000000000D+00 -.000000000000000D+00
 0.692485752125822D+03 0.000000000000000D+00 0.000000000000000D+00 0.692485752125822D+03
 0.108059347186604D+04 0.000000000000000D+00 0.000000000000000D+00 -.108059347186604D+04
 0.271002189493124D+03 -.206796062402027D+03 -.108942247146378D+03 0.564283800208868D+02
 0.648163249963033D+03 0.566697668121630D+02 -.636714003863834D+03 -.564283800208868D+02
 0.853913784535706D+03 0.150126295589864D+03 0.745656251010212D+03 -.388107719740220D+03
0.168776428321D-02 0.000000000000D+00 0.000000000000D+00 0.996148515371D-03 0.000000000000D+00  5 -4 4 25 23 21 0 0.81026081D-02 0.19449064D+00 0.63394306D+05 0.63394306D+05 0.63394306D+05 0.11822061D+01  1  2  2  1  5  1       -4 0.520418166998D-02 0.100000000000D+01
-.936961255149D-04 0.000000000000D+00 -.648145924605D-05 0.996148515371D-03 0.000000000000D+00  5 -4 4 25 23 21 2 0.81026081D-02 0.19449064D+00 0.63394306D+05 0.63394306D+05 0.63394306D+05 0.11822061D+01  1  2  3  1  5  1       -4 -.403783571072D-03 0.100000000000D+01
0.115791371533D-03 0.000000000000D+00 0.000000000000D+00 0.996148515371D-03 0.000000000000D+00  5 -4 4 25 23 21 2 0.81026081D-02 0.19449064D+00 0.63394306D+05 0.63394306D+05 0.63394306D+05 0.11822061D+01  1  2 15  1  5  1       -4 0.499003061653D-03 0.100000000000D+01
  </mgrwgt>
  </event>
  <event>
  4     66 0.46888340E-03 0.19934311E+03 0.75467711E-02 0.10444652E+00
       -2 -1    0    0    0  501 0.00000000E+00 0.00000000E+00 0.39555900E+02 0.39557194E+02 0.32000000E+00 0.0000E+00 0.9000E+01
        2 -1    0    0  501    0 0.00000000E+00 0.00000000E+00 -.10727614E+04 0.10727615E+04 0.32000000E+00 0.0000E+00 0.9000E+01
       25  1    1    2    0    0 0.16039142E+03 -.46110516E+02 -.67892404E+03 0.71022140E+03 0.12500000E+03 0.0000E+00 0.9000E+01
       23  1    1    2    0    0 -.16039142E+03 0.46110516E+02 -.35428147E+03 0.40209725E+03 0.91188000E+02 0.0000E+00 0.9000E+01
#aMCatNLO 1  0  0  2  2 0.29959483D+03 0.00000000D+00  -5  5  0 0.00000000D+00 0.00000000D+00 0.00000000D+00 0.00000000D+00 0.00000000D+00
  <mgrwgt>
 0.1724484505D+00    5    2    0
 0.205997061048447D+03 0.000000000000000D+00 0.000000000000000D+00 0.205997061048447D+03
 0.205997061048447D+03 0.000000000000000D+00 0.000000000000000D+00 -.205997061048447D+03
 0.214868241805585D+03 0.160391419493393D+03 -.461105162906686D+02 -.518823108286981D+02
 0.197125880291309D+03 -.160391419493393D+03 0.461105162906686D+02 0.518823108286981D+02
 0.000000000000000D+00 0.000000000000000D+00 0.000000000000000D+00 -.000000000000000D+00
 0.375649935832094D+03 0.000000000000000D+00 0.000000000000000D+00 0.375649935832094D+03
 0.440235011195223D+03 0.000000000000000D+00 0.000000000000000D+00 -.440235011195223D+03
 0.151339192860628D+03 0.415472221103242D+02 -.534846282000368D+02 -.518823108286981D+02
 0.358068521117374D+03 -.340566988804619D+03 0.349308807620401D+02 0.518823108286981D+02
 0.306477233049315D+03 0.299019766694295D+03 0.185537474379967D+02 -.645850753631282D+02
0.493664411361D-03 0.000000000000D+00 0.000000000000D+00 0.105930138802D-02 0.000000000000D+00  5 -2 2 25 23 21 0 0.60856263D-02 0.16504032D+00 0.39737674D+05 0.39737674D+05 0.39737674D+05 0.12022906D+01  1  2  2  2  5  2        2 0.168349573851D+00 0.100000000000D+01
-.273898505888D-04 0.000000000000D+00 -.189580132445D-05 0.105930138802D-02 0.000000000000D+00  5 -2 2 25 23 21 2 0.60856263D-02 0.16504032D+00 0.39737674D+05 0.39737674D+05 0.39737674D+05 0.12022906D+01  1  2  3  2  5  2        2 -.135017086865D-01 0.100000000000D+01
0.338478032198D-04 0.000000000000D+00 0.000000000000D+00 0.105930138802D-02 0.000000000000D+00  5 -2 2 25 23 21 2 0.60856263D-02 0.16504032D+00 0.39737674D+05 0.39737674D+05 0.39737674D+05 0.12022906D+01  1  2 15  2  5  2        2 0.166851285761D-01 0.100000000000D+01
0.192790553367D-04 0.000000000000D+00 -.161342723796D-03 0.105930138802D-02 0.000000000000D+00  5 -2 2 25 23 21 2 0.60856263D-02 0.46258971D+00 0.39737674D+05 0.39737674D+05 0.39737674D+05 0.12022906D+01  1  2  5  2  5  2        2 0.853319547964D-03 0.100000000000D+01
0.112218000267D-04 0.000000000000D+00 -.186778846395D-04 0.105930138802D-02 0.000000000000D+00  5 -2 21 25 23 -2 2 0.60856263D-02 0.46258971D+00 0.39737674D+05 0.39737674D+05 0.39737674D+05 0.12022906D+01  1  2  5  4  5  2        2 0.621371670083D-04 0.100000000000D+01
  </mgrwgt>
  </event>
  <event>
  5     66 0.46888340E-03 0.19318335E+03 0.75467711E-02 0.11033679E+00
       21 -1    0    0  502  501 0.00000000E+00 0.00000000E+00 0.83264433E+02 0.83267811E+02 0.75000000E+00 0.0000E+00 0.9000E+01
        2 -1    0    0  501    0 0.00000000E+00 0.00000000E+00 -.13919154E+04 0.13919154E+04 0.32000000E+00 0.0000E+00 0.9000E+01
       25  1    1    2    0    0 -.15541311E+03 0.86837375E+02 -.46021964E+03 0.50903937E+03 0.12500000E+03 0.0000E+00 0.9000E+01
       23  1    1    2    0    0 0.50690048E+02 -.15748728E+03 -.81340155E+03 0.83505033E+03 0.91188000E+02 0.0000E+00 0.9000E+01
        2  1    1    2  502    0 0.10472306E+03 0.70649904E+02 -.35029768E+02 0.13109354E+03 0.32000000E+00 0.0000E+00 0.9000E+01
#aMCatNLO 2  0  0  1  2 0.12632628D+03 0.00000000D+00  -5  5  0 0.00000000D+00 0.00000000D+00 0.00000000D+00 0.00000000D+00 0.00000000D+00
  <mgrwgt>
 0.1091325372D+00    2    2    0
 0.205248547333779D+03 0.000000000000000D+00 0.000000000000000D+00 0.205248547333779D+03
 0.205248547333779D+03 0.000000000000000D+00 0.000000000000000D+00 -.205248547333779D+03
 0.214152080088279D+03 -.100253327620601D+03 0.124050126225262D+03 0.692600165364537D+02
 0.196345014579278D+03 0.100253327620601D+03 -.124050126225262D+03 -.692600165364537D+02
 0.000000000000000D+00 0.000000000000000D+00 0.000000000000000D+00 0.000000000000000D+00
 0.507494767694016D+03 0.000000000000000D+00 0.000000000000000D+00 0.507494767694016D+03
 0.228375720916460D+03 0.000000000000000D+00 0.000000000000000D+00 -.228375720916460D+03
 0.228289100618806D+03 -.155413107090487D+03 0.868373751053902D+02 0.692600165364537D+02
 0.201206176232086D+03 0.506900478687037D+02 -.157487279379561D+03 -.692600165364537D+02
 0.306375211759584D+03 0.104723059221783D+03 0.706499042741705D+02 0.279119046777556D+03
-.200778263728D-04 0.000000000000D+00 0.000000000000D+00 0.100993232730D-02 0.000000000000D+00  5 21 2 25 23 2 2 0.12654986D-01 0.19245536D+00 0.70959761D+05 0.70959761D+05 0.70959761D+05 0.11775113D+01  1  2 13  3  5  1       -2 -.347989551613D-01 0.100000000000D+01
0.101572966026D-03 0.000000000000D+00 0.000000000000D+00 0.100993232730D-02 0.849773586011D-07  5 21 2 25 23 2 2 0.12810171D-01 0.21414102D+00 0.70959761D+05 0.70959761D+05 0.70959761D+05 0.11775113D+01  1  2  1  3  5  1       -2 0.143931492368D+00 0.100000000000D+01
  </mgrwgt>
  </event>
  <event>
  4     66 0.46888340E-03 0.11360514E+03 0.75467711E-02 0.12147841E+00
       -2 -1    0    0    0  501 0.00000000E+00 0.00000000E+00 0.12835351E+03 0.12835391E+03 0.32000000E+00 0.0000E+00 0.9000E+01
        2 -1    0    0  501    0 0.00000000E+00 0.00000000E+00 -.10159138E+03 0.10159189E+03 0.32000000E+00 0.0000E+00 0.9000E+01
       25  1    1    2    0    0 -.30058425E+02 -.17066003E+02 0.26777357E+02 0.13242652E+03 0.12500000E+03 0.0000E+00 0.9000E+01
       23  1    1    2    0    0 0.30058425E+02 0.17066003E+02 -.15226970E-01 0.97519275E+02 0.91188000E+02 0.0000E+00 0.9000E+01
#aMCatNLO 1  0  0  2  2 0.46022724D+02 0.00000000D+00  -5  5  0 0.00000000D+00 0.00000000D+00 0.00000000D+00 0.00000000D+00 0.00000000D+00
  <mgrwgt>
 0.1392382650D+00    4    2    0
 0.114191570043582D+03 0.000000000000000D+00 0.000000000000000D+00 0.114191570043582D+03
 0.114191570043582D+03 0.000000000000000D+00 0.000000000000000D+00 -.114191570043582D+03
 0.130194828106349D+03 -.300584247404889D+02 -.170660033843238D+02 0.114427224141972D+02
 0.981883119808145D+02 0.300584247404889D+02 0.170660033843238D+02 -.114427224141972D+02
 0.000000000000000D+00 0.000000000000000D+00 -.000000000000000D+00 0.000000000000000D+00
 0.176556533972883D+03 0.000000000000000D+00 0.000000000000000D+00 0.176556533972883D+03
 0.125302243769806D+03 0.000000000000000D+00 0.000000000000000D+00 -.125302243769806D+03
 0.132495879720300D+03 -.419489179691262D+02 0.628574003816297D+01 0.114427224141972D+02
 0.100478259981636D+03 0.210659348720047D+02 0.347263570887784D+02 -.114427224141972D+02
 0.688846380407528D+02 0.208829830971215D+02 -.410120971269414D+02 0.512542902030765D+02
0.224046849564D-03 0.000000000000D+00 0.000000000000D+00 0.176819045570D-02 0.000000000000D+00  5 -2 2 25 23 21 0 0.19746764D-01 0.15629513D-01 0.12906128D+05 0.12906128D+05 0.12906128D+05 0.12553357D+01  1  2  2  2  5  2        2 0.166474307749D+00 0.100000000000D+01
-.124466460112D-04 0.000000000000D+00 -.860398895217D-06 0.176819045570D-02 0.000000000000D+00  5 -2 2 25 23 21 2 0.19746764D-01 0.15629513D-01 0.12906128D+05 0.12906128D+05 0.12906128D+05 0.12553357D+01  1  2  3  2  5  2        2 -.145740572268D-01 0.100000000000D+01
0.154575449398D-04 0.000000000000D+00 0.000000000000D+00 0.176819045570D-02 0.000000000000D+00  5 -2 2 25 23 21 2 0.19746764D-01 0.15629513D-01 0.12906128D+05 0.12906128D+05 0.12906128D+05 0.12553357D+01  1  2 15  2  5  2        2 0.180995863733D-01 0.100000000000D+01
-.262712290926D-04 0.000000000000D+00 0.000000000000D+00 0.176819045570D-02 0.000000000000D+00  5 -2 2 25 23 21 2 0.19746764D-01 0.15629513D-01 0.12906128D+05 0.12906128D+05 0.12906128D+05 0.12553357D+01  1  2  4  2  5  2        2 -.307615719021D-01 0.100000000000D+01
  </mgrwgt>
  </event>
  <event>
  4     66 0.46888340E-03 0.12119792E+03 0.75467711E-02 0.11388877E+00
       -2 -1    0    0    0  501 0.00000000E+00 0.00000000E+00 0.38681402E+02 0.38682725E+02 0.32000000E+00 0.0000E+00 0.9000E+01
        2 -1    0    0  501    0 0.00000000E+00 0.00000000E+00 -.40037355E+03 0.40037368E+03 0.32000000E+00 0.0000E+00 0.9000E+01
       25  1    1    2    0    0 -.40172543E+02 -.36501062E+02 -.25166162E+03 0.28619002E+03 0.12500000E+03 0.0000E+00 0.9000E+01
       23  1    1    2    0    0 0.40172543E+02 0.36501062E+02 -.11003053E+03 0.15286638E+03 0.91188000E+02 0.0000E+00 0.9000E+01
#aMCatNLO 1  0  0  2  2 0.14466295D+03 0.00000000D+00  -5  5  0 0.00000000D+00 0.00000000D+00 0.00000000D+00 0.00000000D+00 0.00000000D+00
  <mgrwgt>
 0.1475954127D+00    3    2    0
 0.124448097187199D+03 0.000000000000000D+00 0.000000000000000D+00 0.124448097187199D+03
 0.124448097187199D+03 0.000000000000000D+00 0.000000000000000D+00 -.124448097187199D+03
 0.139132429091857D+03 -.401725433447005D+02 -.365010622570581D+02 -.280476744191962D+02
 0.109763765282541D+03 0.401725433447005D+02 0.365010622570581D+02 0.280476744191962D+02
 0.000000000000000D+00 -.000000000000000D+00 0.000000000000000D+00 0.000000000000000D+00
 0.219268228991358D+03 0.000000000000000D+00 0.000000000000000D+00 0.219268228991358D+03
 0.213396928628294D+03 0.000000000000000D+00 0.000000000000000D+00 -.213396928628294D+03
 0.169719729898356D+03 -.358852148207684D+01 -.111266514235049D+03 -.280476744191962D+02
 0.118163379750070D+03 0.671708705839240D+02 -.186744497812312D+02 0.280476744191962D+02
 0.144782047971227D+03 -.635823491018471D+02 0.129940964016280D+03 0.587130036306387D+01
0.128753587710D-03 0.000000000000D+00 0.000000000000D+00 0.154125725495D-02 0.000000000000D+00  5 -2 2 25 23 21 0 0.59510965D-02 0.61596043D-01 0.14688937D+05 0.14688937D+05 0.14688937D+05 0.12488614D+01  1  2  2  2  5  2        2 0.144519288106D+00 0.100000000000D+01
-.714688631831D-05 0.000000000000D+00 -.494447678405D-06 0.154125725495D-02 0.000000000000D+00  5 -2 2 25 23 21 2 0.59510965D-02 0.61596043D-01 0.14688937D+05 0.14688937D+05 0.14688937D+05 0.12488614D+01  1  2  3  2  5  2        2 -.125115703024D-01 0.100000000000D+01
0.890403689650D-05 0.000000000000D+00 0.000000000000D+00 0.154125725495D-02 0.000000000000D+00  5 -2 2 25 23 21 2 0.59510965D-02 0.61596043D-01 0.14688937D+05 0.14688937D+05 0.14688937D+05 0.12488614D+01  1  2 15  2  5  2        2 0.155876949267D-01 0.100000000000D+01
  </mgrwgt>
  </event>
  <event>
  4     66 0.46888340E-03 0.10871559E+03 0.75467711E-02 0.12575138E+00
       -2 -1    0    0    0  501 0.00000000E+00 0.00000000E+00 0.81365464E+01 0.81428366E+01 0.32000000E+00 0.0000E+00 0.9000E+01
        2 -1    0    0  501    0 0.00000000E+00 0.00000000E+00 -.15409261E+04 0.15409261E+04 0.32000000E+00 0.0000E+00 0.9000E+01
       25  1    1    2    0    0 -.29955224E+01 0.11069521E+02 -.69412436E+03 0.70538297E+03 0.12500000E+03 0.0000E+00 0.9000E+01
       23  1    1    2    0    0 0.29955224E+01 -.11069521E+02 -.83866516E+03 0.84368597E+03 0.91188000E+02 0.0000E+00 0.9000E+01
#aMCatNLO 1  0  0  2  2 0.58253962D+01 0.00000000D+00  -5  5  0 0.00000000D+00 0.00000000D+00 0.00000000D+00 0.00000000D+00 0.00000000D+00
  <mgrwgt>
 0.2333756208D+00    6    2    0
 0.111994259582468D+03 0.000000000000000D+00 0.000000000000000D+00 0.111994259582468D+03
 0.111994259582468D+03 0.000000000000000D+00 0.000000000000000D+00 -.111994259582468D+03
 0.128311499151826D+03 -.299552244650637D+01 0.110695214045187D+02 0.265957394282718D+02
 0.956770200131105D+02 0.299552244650637D+01 -.110695214045187D+02 -.265957394282718D+02
 0.000000000000000D+00 -.000000000000000D+00 -.000000000000000D+00 0.000000000000000D+00
 0.155386531107953D+03 0.000000000000000D+00 0.000000000000000D+00 0.155386531107953D+03
 0.112227814370989D+03 0.000000000000000D+00 0.000000000000000D+00 -.112227814370989D+03
 0.128395421831451D+03 0.778078709299241D-01 0.123711332332565D+02 0.265957394282718D+02
 0.956688367171981D+02 0.528634117610107D+01 -.100993176034441D+02 -.265957394282718D+02
 0.435500869302926D+02 -.536414904703100D+01 -.227181562981236D+01 0.431587167369631D+02
0.123659263812D-03 0.000000000000D+00 0.000000000000D+00 0.175487795656D-02 0.000000000000D+00  5 -2 2 25 23 21 0 0.12522628D-02 0.23706604D+00 0.11819079D+05 0.11819079D+05 0.11819079D+05 0.12597981D+01  1  2  2  2  5  2        2 0.234768317366D+00 0.100000000000D+01
-.686258495481D-05 0.000000000000D+00 -.474884133269D-06 0.175487795656D-02 0.000000000000D+00  5 -2 2 25 23 21 2 0.12522628D-02 0.23706604D+00 0.11819079D+05 0.11819079D+05 0.11819079D+05 0.12597981D+01  1  2  3  2  5  2        2 -.206777101813D-01 0.100000000000D+01
0.846399244707D-05 0.000000000000D+00 0.000000000000D+00 0.175487795656D-02 0.000000000000D+00  5 -2 2 25 23 21 2 0.12522628D-02 0.23706604D+00 0.11819079D+05 0.11819079D+05 0.11819079D+05 0.12597981D+01  1  2 15  2  5  2        2 0.255029240366D-01 0.100000000000D+01
-.280691526201D-05 0.000000000000D+00 0.000000000000D+00 0.175487795656D-02 0.000000000000D+00  5 -2 2 25 23 21 2 0.12522628D-02 0.23706604D+00 0.11819079D+05 0.11819079D+05 0.11819079D+05 0.12597981D+01  1  2  4  2  5  2        2 -.845753905756D-02 0.100000000000D+01
0.811097657151D-06 0.000000000000D+00 0.000000000000D+00 0.175487795656D-02 0.459448472968D-03  5 -2 2 25 23 21 2 0.17374531D-02 0.23756042D+00 0.12469501D+05 0.12469501D+05 0.12469501D+05 0.12570753D+01  1  2 11  2  5  2        2 0.151823741852D-02 0.100000000000D+01
0.761833178503D-06 0.000000000000D+00 0.000000000000D+00 0.175487795656D-02 0.213091032436D-06  5 -2 21 25 23 -2 2 0.17374531D-02 0.23756042D+00 0.12469501D+05 0.12469501D+05 0.12469501D+05 0.12570753D+01  1  2 11  4  5  2        2 0.721391262437D-03 0.100000000000D+01
  </mgrwgt>
  </event>
  <event>
  5     66 0.46888340E-03 0.11478491E+03 0.75467711E-02 0.12187536E+00
       21 -1    0    0  502  501 0.00000000E+00 0.00000000E+00 0.11174284E+03 0.11174535E+03 0.75000000E+00 0.0000E+00 0.9000E+01
        2 -1    0    0  501    0 0.00000000E+00 0.00000000E+00 -.19137863E+03 0.19137890E+03 0.32000000E+00 0.0000E+00 0.9000E+01
       25  1    1    2    0    0 -.27044623E+01 0.30802812E+02 0.76052354E+01 0.12899212E+03 0.12500000E+03 0.0000E+00 0.9000E+01
       23  1    1    2    0    0 0.41712256E+02 -.28487800E+02 -.85825697E+02 0.13502877E+03 0.91188000E+02 0.0000E+00 0.9000E+01
        2  1    1    2  502    0 -.39007794E+02 -.23150118E+01 -.14153314E+01 0.39103361E+02 0.32000000E+00 0.0000E+00 0.9000E+01
#aMCatNLO 2  0  0  1  2 0.39076429D+02 0.00000000D+00  -5  5  0 0.00000000D+00 0.00000000D+00 0.00000000D+00 0.00000000D+00 0.00000000D+00
  <mgrwgt>
 0.1955839421D-01    2    2    0
 0.124560850802782D+03 0.000000000000000D+00 0.000000000000000D+00 0.124560850802782D+03
 0.124560850802782D+03 0.000000000000000D+00 0.000000000000000D+00 -.124560850802782D+03
 0.139231890316581D+03 -.242316719926809D+02 0.295252277901351D+02 0.479750589109396D+02
 0.109889811288983D+03 0.242316719926809D+02 -.295252277901351D+02 -.479750589109396D+02
 0.000000000000000D+00 -.000000000000000D+00 -.000000000000000D+00 0.000000000000000D+00
 0.151658268805344D+03 0.000000000000000D+00 0.000000000000000D+00 0.151658268805344D+03
 0.141010619202464D+03 0.000000000000000D+00 0.000000000000000D+00 -.141010619202464D+03
 0.137414459301980D+03 -.270446225214292D+01 0.308028120741300D+02 0.479750589109396D+02
 0.114753321122591D+03 0.417122562652123D+02 -.284878002734802D+02 -.479750589109396D+02
 0.405011075832364D+02 -.390077940130694D+02 -.231501180064973D+01 0.106476496028792D+02
-.338647372386D-05 0.000000000000D+00 0.000000000000D+00 0.142079285963D-02 0.000000000000D+00  5 21 2 25 23 2 2 0.17957863D-01 0.26008248D-01 0.18507930D+05 0.18507930D+05 0.18507930D+05 0.12375504D+01  1  2 13  3  5  1       -2 -.367314998911D-01 0.100000000000D+01
0.548636958895D-05 0.000000000000D+00 0.000000000000D+00 0.142079285963D-02 0.260306050269D-06  5 21 2 25 23 2 2 0.17191345D-01 0.29442952D-01 0.18507930D+05 0.18507930D+05 0.18507930D+05 0.12375504D+01  1  2  1  3  5  1       -2 0.562898940990D-01 0.100000000000D+01
  </mgrwgt>
  </event>
  <event>
  5     66 0.46888340E-03 0.11235175E+03 0.75467711E-02 0.12247209E+00
       -2 -1    0    0    0  502 0.00000000E+00 0.00000000E+00 0.12505177E+03 0.12505218E+03 0.32000000E+00 0.0000E+00 0.9000E+01
        2 -1    0    0  501    0 0.00000000E+00 0.00000000E+00 -.15271777E+03 0.15271811E+03 0.32000000E+00 0.0000E+00 0.9000E+01
       25  1    1    2    0    0 0.32208765E+02 -.72930487E+01 0.26891596E+02 0.13205586E+03 0.12500000E+03 0.0000E+00 0.9000E+01
       23  1    1    2    0    0 -.23998201E+02 -.27868281E+02 -.46234087E+02 0.10865264E+03 0.91188000E+02 0.0000E+00 0.9000E+01
       21  1    1    2  501  502 -.82105648E+01 0.35161330E+02 -.83235101E+01 0.37061784E+02 0.75000000E+00 0.0000E+00 0.9000E+01
#aMCatNLO 2  0  0  1  2 0.36107236D+02 0.00000000D+00  -5  5  0 0.00000000D+00 0.00000000D+00 0.00000000D+00 0.00000000D+00 0.00000000D+00
  <mgrwgt>
 0.4999823971D-01    1    2    0
 0.118598820300097D+03 0.000000000000000D+00 0.000000000000000D+00 0.118598820300097D+03
 0.118598820300097D+03 0.000000000000000D+00 0.000000000000000D+00 -.118598820300097D+03
 0.134007381358090D+03 0.275855861160974D+02 0.125054831131547D+02 0.376248134771533D+02
 0.103190259242104D+03 -.275855861160974D+02 -.125054831131547D+02 -.376248134771533D+02
 0.000000000000000D+00 -.000000000000000D+00 0.000000000000000D+00 -.000000000000000D+00
 0.135535416373193D+03 0.000000000000000D+00 0.000000000000000D+00 0.135535416373193D+03
 0.140897963543113D+03 0.000000000000000D+00 0.000000000000000D+00 -.140897963543113D+03
 0.134652217622694D+03 0.322087653032217D+02 -.729304868767006D+01 0.376248134771533D+02
 0.105277883015412D+03 -.239982005169238D+02 -.278682810909760D+02 -.376248134771533D+02
 0.365032792782006D+02 -.821056478629784D+01 0.351613297786460D+02 -.536254716992004D+01
0.657062377299D-04 0.000000000000D+00 0.000000000000D+00 0.156997541494D-02 0.101405674452D-04  5 -2 2 25 23 21 2 0.19238254D-01 0.23494443D-01 0.17387196D+05 0.17387196D+05 0.17387196D+05 0.12405763D+01  1  2  1  1  5  1       -2 0.499982397088D-01 0.100000000000D+01
  </mgrwgt>
  </event>
  <event>
  4     66 0.46888340E-03 0.11305575E+03 0.75467711E-02 0.11723573E+00
       -4 -1    0    0    0  501 0.00000000E+00 0.00000000E+00 0.17547812E+04 0.17547819E+04 0.15500000E+01 0.0000E+00 0.9000E+01
        4 -1    0    0  501    0 0.00000000E+00 0.00000000E+00 -.87566176E+01 0.88927416E+01 0.15500000E+01 0.0000E+00 0.9000E+01
       25  1    1    2    0    0 0.32264678E+02 -.56340576E+01 0.13414539E+04 0.13476633E+04 0.12500000E+03 0.0000E+00 0.9000E+01
       23  1    1    2    0    0 -.32264678E+02 0.56340576E+01 0.40457072E+03 0.41601139E+03 0.91188000E+02 0.0000E+00 0.9000E+01
#aMCatNLO 1  0  0  1  2 0.10223681D+03 0.00000000D+00  -5  5  0 0.00000000D+00 0.00000000D+00 0.00000000D+00 0.00000000D+00 0.00000000D+00
  <mgrwgt>
 0.4298879639D-01    6    2    0
 0.124445113571162D+03 0.000000000000000D+00 0.000000000000000D+00 0.124445113571162D+03
 0.124445113571162D+03 0.000000000000000D+00 0.000000000000000D+00 -.124445113571162D+03
 0.139129797537922D+03 0.322646781710716D+02 -.563405761994324D+01 0.515688714264275D+02
 0.109760429604403D+03 -.322646781710716D+02 0.563405761994324D+01 -.515688714264275D+02
 0.000000000000000D+00 0.000000000000000D+00 -.000000000000000D+00 0.000000000000000D+00
 0.186590423598305D+03 0.000000000000000D+00 0.000000000000000D+00 0.186590423598305D+03
 0.184733332539772D+03 0.000000000000000D+00 0.000000000000000D+00 -.184733332539772D+03
 0.136974631233792D+03 -.218363366708388D+02 0.935682764509064D+00 0.515688714264275D+02
 0.132095452418415D+03 -.796548946957704D+02 0.113888742391883D+02 -.515688714264275D+02
 0.102253672485871D+03 0.101491231366609D+03 -.123245570036974D+02 0.185709105853304D+01
0.163149158156D-02 0.000000000000D+00 0.000000000000D+00 0.139385262886D-02 0.000000000000D+00  5 -4 4 25 23 21 0 0.26997686D+00 0.13576957D-02 0.12781602D+05 0.12781602D+05 0.12781602D+05 0.12558250D+01  1  2  2  1  5  1       -4 0.276900713371D-01 0.100000000000D+01
-.896231333802D-04 0.000000000000D+00 -.626535725480D-05 0.139385262886D-02 0.000000000000D+00  5 -4 4 25 23 21 2 0.26997686D+00 0.13576957D-02 0.12781602D+05 0.12781602D+05 0.12781602D+05 0.12558250D+01  1  2  3  1  5  1       -4 -.239893024718D-02 0.100000000000D+01
0.111893203643D-03 0.000000000000D+00 0.000000000000D+00 0.139385262886D-02 0.000000000000D+00  5 -4 4 25 23 21 2 0.26997686D+00 0.13576957D-02 0.12781602D+05 0.12781602D+05 0.12781602D+05 0.12558250D+01  1  2 15  1  5  1       -4 0.299503019531D-02 0.100000000000D+01
-.406095493527D-03 0.000000000000D+00 -.375048007020D-03 0.139385262886D-02 0.000000000000D+00  5 -4 4 25 23 21 2 0.47734985D+00 0.13576957D-02 0.12781602D+05 0.12781602D+05 0.12781602D+05 0.12558250D+01  1  2  5  1  5  1       -4 -.521760009034D-03 0.100000000000D+01
0.577170101292D-03 0.000000000000D+00 0.321420817195D-03 0.139385262886D-02 0.000000000000D+00  5 -4 4 25 23 21 2 0.26997686D+00 0.13576957D-02 0.12781602D+05 0.12781602D+05 0.12781602D+05 0.12558250D+01  1  2  6  1  5  1       -4 0.154490337654D-01 0.100000000000D+01
-.611171188886D-05 0.000000000000D+00 -.235438387798D-04 0.139385262886D-02 0.000000000000D+00  5 21 4 25 23 4 2 0.47734985D+00 0.13576957D-02 0.12781602D+05 0.12781602D+05 0.12781602D+05 0.12558250D+01  1  2  5  3  5  1       -4 -.224648649111D-03 0.100000000000D+01
  </mgrwgt>
  </event>
  <event>
  4     66 0.46888340E-03 0.11997532E+03 0.75467711E-02 0.11322873E+00
       -2 -1    0    0    0  501 0.00000000E+00 0.00000000E+00 0.44604963E+02 0.44606111E+02 0.32000000E+00 0.0000E+00 0.9000E+01
        2 -1    0    0  501    0 0.00000000E+00 0.00000000E+00 -.59113588E+03 0.59113596E+03 0.32000000E+00 0.0000E+00 0.9000E+01
       25  1    1    2    0    0 -.48231996E+02 -.18155813E+02 -.78943204E+02 0.15656624E+03 0.12500000E+03 0.0000E+00 0.9000E+01
       23  1    1    2    0    0 0.48231996E+02 0.18155813E+02 -.46758771E+03 0.47917583E+03 0.91188000E+02 0.0000E+00 0.9000E+01
#aMCatNLO 1  0  0  1  2 0.16077947D+03 0.00000000D+00  -5  5  0 0.00000000D+00 0.00000000D+00 0.00000000D+00 0.00000000D+00 0.00000000D+00
  <mgrwgt>
 0.1388509725D+00    5    2    0
 0.162382222428510D+03 0.000000000000000D+00 0.000000000000000D+00 0.162382222428510D+03
 0.162382222428510D+03 0.000000000000000D+00 0.000000000000000D+00 -.162382222428510D+03
 0.173636146267399D+03 -.482319961205184D+02 -.181558128359845D+02 0.108942885500103D+03
 0.151128298589621D+03 0.482319961205184D+02 0.181558128359845D+02 -.108942885500103D+03
 0.000000000000000D+00 0.000000000000000D+00 0.000000000000000D+00 0.000000000000000D+00
 0.338649910702146D+03 0.000000000000000D+00 0.000000000000000D+00 0.338649910702146D+03
 0.222234619758895D+03 0.000000000000000D+00 0.000000000000000D+00 -.222234619758895D+03
 0.218137852087329D+03 -.139723879179897D+03 -.238287179492839D+02 0.108942885500103D+03
 0.144245899925087D+03 -.207474199273950D+02 0.138787811592328D+02 -.108942885500103D+03
 0.198500778448624D+03 0.160471299107292D+03 0.994993679005109D+01 0.116415290943251D+03
0.210862764567D-03 0.000000000000D+00 0.000000000000D+00 0.787826573176D-03 0.000000000000D+00  5 -2 2 25 23 21 0 0.68623969D-02 0.90944076D-01 0.14394078D+05 0.14394078D+05 0.14394078D+05 0.12498692D+01  1  2  2  1  5  1       -2 0.124555740177D+00 0.100000000000D+01
-.104098137402D-04 0.000000000000D+00 -.809768537379D-06 0.787826573176D-03 0.000000000000D+00  5 -2 2 25 23 21 2 0.68623969D-02 0.90944076D-01 0.14394078D+05 0.14394078D+05 0.14394078D+05 0.12498692D+01  1  2  3  1  5  1       -2 -.960585279883D-02 0.100000000000D+01
0.143861190437D-04 0.000000000000D+00 0.000000000000D+00 0.787826573176D-03 0.000000000000D+00  5 -2 2 25 23 21 2 0.68623969D-02 0.90944076D-01 0.14394078D+05 0.14394078D+05 0.14394078D+05 0.12498692D+01  1  2 15  1  5  1       -2 0.132750638321D-01 0.100000000000D+01
0.512298246764D-05 0.000000000000D+00 -.604592526962D-04 0.787826573176D-03 0.000000000000D+00  5 -2 2 25 23 21 2 0.19458054D-01 0.90944076D-01 0.14394078D+05 0.14394078D+05 0.14394078D+05 0.12498692D+01  1  2  5  1  5  1       -2 0.899881358232D-03 0.100000000000D+01
0.391742553465D-05 0.000000000000D+00 -.709297623601D-05 0.787826573176D-03 0.000000000000D+00  5 21 2 25 23 2 2 0.19458054D-01 0.90944076D-01 0.14394078D+05 0.14394078D+05 0.14394078D+05 0.12498692D+01  1  2  5  3  5  1       -2 0.972613993441D-02 0.100000000000D+01
  </mgrwgt>
  </event>
  <event>
  5     66 0.46888340E-03 0.13684787E+03 0.75467711E-02 0.10832143E+00
       -2 -1    0    0    0  501 0.00000000E+00 0.00000000E+00 0.52589239E+03 0.52589249E+03 0.32000000E+00 0.0000E+00 0.9000E+01
       21 -1    0    0  501  502 0.00000000E+00 0.00000000E+00 -.23334554E+03 0.23334674E+03 0.75000000E+00 0.0000E+00 0.9000E+01
       25  1    1    2    0    0 0.11756566E+03 -.41623192E+02 0.16001191E+03 0.23829181E+03 0.12500000E+03 0.0000E+00 0.9000E+01
       23  1    1    2    0    0 0.11082975E+03 0.12312622E+03 0.19385715E+03 0.27081202E+03 0.91188000E+02 0.0000E+00 0.9000E+01
       -2  1    1    2    0  502 -.22839541E+03 -.81503033E+02 -.61322202E+02 0.25013541E+03 0.32000000E+00 0.0000E+00 0.9000E+01
#aMCatNLO 2  0  0  2  2 0.24250198D+03 0.00000000D+00  -5  5  0 0.00000000D+00 0.00000000D+00 0.00000000D+00 0.00000000D+00 0.00000000D+00
  <mgrwgt>
 0.2011241389D-01    1    2    0
 0.137073139434664D+03 0.000000000000000D+00 0.000000000000000D+00 0.137073139434664D+03
 0.137073139434664D+03 0.000000000000000D+00 0.000000000000000D+00 -.137073139434664D+03
 0.150404979440204D+03 0.843362845766402D+00 -.832756103601272D+02 -.781788325999641D+01
 0.123741299429125D+03 -.843362845766402D+00 0.832756103601272D+02 0.781788325999641D+01
 0.000000000000000D+00 -.000000000000000D+00 -.000000000000000D+00 -.000000000000000D+00
 0.223045382844080D+03 0.000000000000000D+00 0.000000000000000D+00 0.223045382844080D+03
 0.550179855620269D+03 0.000000000000000D+00 0.000000000000000D+00 -.550179855620269D+03
 0.176749240057954D+03 0.117565660099474D+03 -.416231921862350D+02 -.781788325999641D+01
 0.189260856470790D+03 0.110829751864609D+03 0.123126224871142D+03 0.781788325999641D+01
 0.407215141935606D+03 -.228395411964083D+03 -.815030326849071D+02 -.327134472776189D+03
0.179381169692D-03 0.000000000000D+00 0.000000000000D+00 0.144927363323D-02 0.117796606260D-06  5 -2 21 25 23 -2 2 0.80906602D-01 0.35899405D-01 0.92469984D+05 0.92469984D+05 0.92469984D+05 0.11667079D+01  1  2  1  4  5  2        2 0.201124138935D-01 0.100000000000D+01
  </mgrwgt>
  </event>
  <event>
  4     66 0.46888340E-03 0.12200180E+03 0.75467711E-02 0.10996565E+00
       -2 -1    0    0    0  501 0.00000000E+00 0.00000000E+00 0.23730267E+02 0.23732424E+02 0.32000000E+00 0.0000E+00 0.9000E+01
        2 -1    0    0  501    0 0.00000000E+00 0.00000000E+00 -.64495885E+03 0.64495893E+03 0.32000000E+00 0.0000E+00 0.9000E+01
       25  1    1    2    0    0 0.93859258E+01 -.55232072E+02 -.40276627E+03 0.42542255E+03 0.12500000E+03 0.0000E+00 0.9000E+01
       23  1    1    2    0    0 -.93859258E+01 0.55232072E+02 -.21846232E+03 0.24326881E+03 0.91188000E+02 0.0000E+00 0.9000E+01
#aMCatNLO 1  0  0  1  2 0.21853793D+03 0.00000000D+00  -5  5  0 0.00000000D+00 0.00000000D+00 0.00000000D+00 0.00000000D+00 0.00000000D+00
  <mgrwgt>
 0.1762271508D+00    5    2    0
 0.123716585099989D+03 0.000000000000000D+00 0.000000000000000D+00 0.123716585099989D+03
 0.123716585099989D+03 0.000000000000000D+00 0.000000000000000D+00 -.123716585099989D+03
 0.138487742601007D+03 0.938592582542919D+01 -.552320724659847D+02 -.203759028814527D+02
 0.108945427598971D+03 -.938592582542919D+01 0.552320724659847D+02 0.203759028814527D+02
 0.000000000000000D+00 0.000000000000000D+00 0.000000000000000D+00 0.000000000000000D+00
 0.344434992285254D+03 0.000000000000000D+00 0.000000000000000D+00 0.344434992285254D+03
 0.231625721392032D+03 0.000000000000000D+00 0.000000000000000D+00 -.231625721392032D+03
 0.227151885484839D+03 -.411554878129157D+02 -.184021812522223D+03 -.203759028814527D+02
 0.102972334868787D+03 -.386787662822103D+02 -.194120072373079D+02 0.203759028814527D+02
 0.245936493323660D+03 0.798342540951259D+02 0.203433819759531D+03 0.112809270893222D+03
0.105814045357D-03 0.000000000000D+00 0.000000000000D+00 0.158068101371D-02 0.000000000000D+00  5 -2 2 25 23 21 0 0.36509823D-02 0.99224611D-01 0.14884439D+05 0.14884439D+05 0.14884439D+05 0.12482056D+01  1  2  2  1  5  1       -2 0.145812254178D+00 0.100000000000D+01
-.587716565653D-05 0.000000000000D+00 -.406353795649D-06 0.158068101371D-02 0.000000000000D+00  5 -2 2 25 23 21 2 0.36509823D-02 0.99224611D-01 0.14884439D+05 0.14884439D+05 0.14884439D+05 0.12482056D+01  1  2  3  1  5  1       -2 -.126180110794D-01 0.100000000000D+01
0.731891619699D-05 0.000000000000D+00 0.000000000000D+00 0.158068101371D-02 0.000000000000D+00  5 -2 2 25 23 21 2 0.36509823D-02 0.99224611D-01 0.14884439D+05 0.14884439D+05 0.14884439D+05 0.12482056D+01  1  2 15  1  5  1       -2 0.157133848286D-01 0.100000000000D+01
0.491932207256D-04 0.000000000000D+00 -.415494984503D-04 0.158068101371D-02 0.000000000000D+00  5 -2 2 25 23 21 2 0.19178188D-01 0.99224611D-01 0.14884439D+05 0.14884439D+05 0.14884439D+05 0.12482056D+01  1  2  5  1  5  1       -2 0.799655916341D-02 0.100000000000D+01
0.839596011512D-05 0.000000000000D+00 -.842101516386D-05 0.158068101371D-02 0.000000000000D+00  5 21 2 25 23 2 2 0.19178188D-01 0.99224611D-01 0.14884439D+05 0.14884439D+05 0.14884439D+05 0.12482056D+01  1  2  5  3  5  1       -2 0.193229636966D-01 0.100000000000D+01
  </mgrwgt>
  </event>
  <event>
  4     66 0.46888340E-03 0.98826725E+02 0.75467711E-02 0.11986089E+00
       -2 -1    0    0    0  501 0.00000000E+00 0.00000000E+00 0.11707728E+02 0.11712100E+02 0.32000000E+00 0.0000E+00 0.9000E+01
        2 -1    0    0  501    0 0.00000000E+00 0.00000000E+00 -.13880384E+04 0.13880384E+04 0.32000000E+00 0.0000E+00 0.9000E+01
       25  1    1    2    0    0 0.54349535E+02 0.35568456E+02 -.85577491E+03 0.86729158E+03 0.12500000E+03 0.0000E+00 0.9000E+01
       23  1    1    2    0    0 -.54349535E+02 -.35568456E+02 -.52055572E+03 0.53245891E+03 0.91188000E+02 0.0000E+00 0.9000E+01
#aMCatNLO 1  0  0  1  2 0.46044306D+02 0.00000000D+00  -5  5  0 0.00000000D+00 0.00000000D+00 0.00000000D+00 0.00000000D+00 0.00000000D+00
  <mgrwgt>
 0.1741859561D+00    9    2    0
 0.127490630287141D+03 0.000000000000000D+00 0.000000000000000D+00 0.127490630287141D+03
 0.127490630287141D+03 0.000000000000000D+00 0.000000000000000D+00 -.127490630287141D+03
 0.141824524157491D+03 0.543495354821123D+02 0.355684563918634D+02 -.164380216351475D+02
 0.113156736416790D+03 -.543495354821123D+02 -.355684563918634D+02 0.164380216351475D+02
 0.000000000000000D+00 0.000000000000000D+00 0.000000000000000D+00 0.000000000000000D+00
 0.166458200728890D+03 0.000000000000000D+00 0.000000000000000D+00 0.166458200728890D+03
 0.143914115679289D+03 0.000000000000000D+00 0.000000000000000D+00 -.143914115679289D+03
 0.132425682037806D+03 0.327983425716331D+02 0.237827969855155D+02 -.164380216351475D+02
 0.126679550231657D+03 -.731964058352850D+02 -.458752081239257D+02 0.164380216351475D+02
 0.512670841387164D+02 0.403980632636519D+02 0.220924111384102D+02 0.225440850496012D+02
0.102704321154D-03 0.000000000000D+00 0.000000000000D+00 0.154143441407D-02 0.000000000000D+00  5 -2 2 25 23 21 0 0.18015280D-02 0.21354470D+00 0.15980133D+05 0.15980133D+05 0.15980133D+05 0.12447009D+01  1  2  2  1  5  1       -2 0.140115959830D+00 0.100000000000D+01
-.570529532183D-05 0.000000000000D+00 -.394411635900D-06 0.154143441407D-02 0.000000000000D+00  5 -2 2 25 23 21 2 0.18015280D-02 0.21354470D+00 0.15980133D+05 0.15980133D+05 0.15980133D+05 0.12447009D+01  1  2  3  1  5  1       -2 -.120588809213D-01 0.100000000000D+01
0.708223102047D-05 0.000000000000D+00 0.000000000000D+00 0.154143441407D-02 0.000000000000D+00  5 -2 2 25 23 21 2 0.18015280D-02 0.21354470D+00 0.15980133D+05 0.15980133D+05 0.15980133D+05 0.12447009D+01  1  2 15  1  5  1       -2 0.149692129357D-01 0.100000000000D+01
0.583656798592D-04 0.000000000000D+00 0.000000000000D+00 0.154143441407D-02 0.000000000000D+00  5 -2 2 25 23 21 2 0.24403893D-02 0.21354470D+00 0.22960480D+05 0.22960480D+05 0.22960480D+05 0.12272801D+01  1  2 12  1  5  1       -2 0.777926176668D-01 0.100000000000D+01
-.657628134933D-04 0.000000000000D+00 0.000000000000D+00 0.154143441407D-02 0.000000000000D+00  5 -2 2 25 23 21 2 0.18015280D-02 0.21354470D+00 0.15980133D+05 0.15980133D+05 0.15980133D+05 0.12447009D+01  1  2  4  1  5  1       -2 -.138998227477D+00 0.100000000000D+01
-.105274491464D-03 0.000000000000D+00 -.395862724927D-04 0.154143441407D-02 0.000000000000D+00  5 -2 2 25 23 21 2 0.26804686D-02 0.21354470D+00 0.15980133D+05 0.15980133D+05 0.15980133D+05 0.12447009D+01  1  2  5  1  5  1       -2 -.124911124152D+00 0.100000000000D+01
0.114756900131D-03 0.000000000000D+00 0.366542853896D-04 0.154143441407D-02 0.000000000000D+00  5 -2 2 25 23 21 2 0.18015280D-02 0.21354470D+00 0.15980133D+05 0.15980133D+05 0.15980133D+05 0.12447009D+01  1  2  6  1  5  1       -2 0.242553577952D+00 0.100000000000D+01
0.227524241499D-05 0.000000000000D+00 0.000000000000D+00 0.154143441407D-02 0.000000000000D+00  5 21 2 25 23 2 2 0.24403893D-02 0.21354470D+00 0.22960480D+05 0.22960480D+05 0.22960480D+05 0.12272801D+01  1  2 12  3  5  1       -2 0.613134888969D-01 0.100000000000D+01
-.364768561208D-05 0.000000000000D+00 -.187515558499D-05 0.154143441407D-02 0.000000000000D+00  5 21 2 25 23 2 2 0.26804686D-02 0.21354470D+00 0.15980133D+05 0.15980133D+05 0.15980133D+05 0.12447009D+01  1  2  5  3  5  1       -2 -.865906686321D-01 0.100000000000D+01
  </mgrwgt>
  </event>
  <event>
  4     66 0.46888340E-03 0.11627942E+03 0.75467711E-02 0.97489152E-01
       -2 -1    0    0    0  501 0.00000000E+00 0.00000000E+00 0.17125846E+02 0.17128835E+02 0.32000000E+00 0.0000E+00 0.9000E+01
        2 -1    0    0  501    0 0.00000000E+00 0.00000000E+00 -.87543787E+03 0.87543793E+03 0.32000000E+00 0.0000E+00 0.9000E+01
       25  1    1    2    0    0 -.40699216E+02 -.11888747E+02 -.34273494E+03 0.36727375E+03 0.12500000E+03 0.0000E+00 0.9000E+01
       23  1    1    2    0    0 0.40699216E+02 0.11888747E+02 -.51557709E+03 0.52529302E+03 0.91188000E+02 0.0000E+00 0.9000E+01
#aMCatNLO 1  0  0  1  1 0.66196509D+03 0.00000000D+00  -5  5  0 0.00000000D+00 0.00000000D+00 0.00000000D+00 0.00000000D+00 0.00000000D+00
  <mgrwgt>
 0.1709355728D+00    5    2    0
 0.122449883774325D+03 0.000000000000000D+00 0.000000000000000D+00 0.122449883774325D+03
 0.122449883774325D+03 0.000000000000000D+00 0.000000000000000D+00 -.122449883774325D+03
 0.137373843746128D+03 -.406992159255658D+02 -.118887465779275D+02 0.380631642593684D+02
 0.107525923802522D+03 0.406992159255658D+02 0.118887465779275D+02 -.380631642593684D+02
 0.000000000000000D+00 -.000000000000000D+00 0.000000000000000D+00 0.000000000000000D+00
 0.783510621110615D+03 0.000000000000000D+00 0.000000000000000D+00 0.783510621110615D+03
 0.607316171814016D+03 0.000000000000000D+00 0.000000000000000D+00 -.607316171814016D+03
 0.296418019603077D+03 0.253036470434555D+03 -.822337066049982D+02 0.380631642593684D+02
 0.409396173108502D+03 0.390725299307036D+03 -.719368557825373D+02 -.380631642593684D+02
 0.685012600213052D+03 -.643761769741591D+03 0.154170562387536D+03 0.176194449296598D+03
0.100298828634D-03 0.000000000000D+00 0.000000000000D+00 0.151398814240D-02 0.000000000000D+00  5 -2 2 25 23 21 0 0.26349799D-02 0.13468298D+00 0.13520904D+05 0.13520904D+05 0.13520904D+05 0.12529953D+01  1  2  2  1  5  1       -2 0.153436998699D+00 0.100000000000D+01
-.555404449528D-05 0.000000000000D+00 -.385173911242D-06 0.151398814240D-02 0.000000000000D+00  5 -2 2 25 23 21 2 0.26349799D-02 0.13468298D+00 0.13520904D+05 0.13520904D+05 0.13520904D+05 0.12529953D+01  1  2  3  1  5  1       -2 -.133395902196D-01 0.100000000000D+01
0.692241698273D-05 0.000000000000D+00 0.000000000000D+00 0.151398814240D-02 0.000000000000D+00  5 -2 2 25 23 21 2 0.26349799D-02 0.13468298D+00 0.13520904D+05 0.13520904D+05 0.13520904D+05 0.12529953D+01  1  2 15  1  5  1       -2 0.166261192105D-01 0.100000000000D+01
0.130532290927D-02 0.000000000000D+00 -.293333235910D-03 0.151398814240D-02 0.000000000000D+00  5 -2 2 25 23 21 2 0.12906588D+00 0.13468298D+00 0.13520904D+05 0.13520904D+05 0.13520904D+05 0.12529953D+01  1  2  5  1  5  1       -2 0.326785400858D-02 0.100000000000D+01
0.365258985323D-03 0.000000000000D+00 -.103401183765D-03 0.151398814240D-02 0.000000000000D+00  5 21 2 25 23 2 2 0.12906588D+00 0.13468298D+00 0.13520904D+05 0.13520904D+05 0.13520904D+05 0.12529953D+01  1  2  5  3  5  1       -2 0.109441911019D-01 0.100000000000D+01
  </mgrwgt>
  </event>
  <event>
  4     66 0.46888340E-03 0.56738269E+02 0.75467711E-02 0.12016474E+00
       -4 -1    0    0    0  501 0.00000000E+00 0.00000000E+00 0.39667242E+03 0.39667545E+03 0.15500000E+01 0.0000E+00 0.9000E+01
        4 -1    0    0  501    0 0.00000000E+00 0.00000000E+00 -.46456728E+02 0.46482578E+02 0.15500000E+01 0.0000E+00 0.9000E+01
       25  1    1    2    0    0 -.53008774E+02 -.12575116E+01 0.91415632E+02 0.16368668E+03 0.12500000E+03 0.0000E+00 0.9000E+01
       23  1    1    2    0    0 0.53008774E+02 0.12575116E+01 0.25880006E+03 0.27947135E+03 0.91188000E+02 0.0000E+00 0.9000E+01
#aMCatNLO 1  0  0  1  2 0.51917322D+02 0.00000000D+00  -5  5  0 0.00000000D+00 0.00000000D+00 0.00000000D+00 0.00000000D+00 0.00000000D+00
  <mgrwgt>
 0.3378841121D-01    9    2    0
 0.135773714656588D+03 0.000000000000000D+00 0.000000000000000D+00 0.135773714656588D+03
 0.135773714656588D+03 0.000000000000000D+00 0.000000000000000D+00 -.135773714656588D+03
 0.149233147276680D+03 -.530087737668224D+02 -.125751164277745D+01 -.619194703975204D+02
 0.122314282036495D+03 0.530087737668224D+02 0.125751164277745D+01 0.619194703975204D+02
 0.000000000000000D+00 0.000000000000000D+00 -.000000000000000D+00 0.000000000000000D+00
 0.169493009923668D+03 0.000000000000000D+00 0.000000000000000D+00 0.169493009923668D+03
 0.159789308591604D+03 0.000000000000000D+00 0.000000000000000D+00 -.159789308591604D+03
 0.159959767469034D+03 -.766105286177136D+02 0.160914045177049D+02 -.619194703975204D+02
 0.116506170111214D+03 0.347787901670855D+02 0.146578057767054D+02 0.619194703975204D+02
 0.528163809350237D+02 0.418317384506281D+02 -.307492102944103D+02 0.970370133206430D+01
0.454142956191D-03 0.000000000000D+00 0.000000000000D+00 0.122450003928D-02 0.000000000000D+00  5 -4 4 25 23 21 0 0.61028748D-01 0.71494104D-02 0.14552150D+05 0.14552150D+05 0.14552150D+05 0.12493261D+01  1  2  2  1  5  1       -4 0.250518540515D-01 0.100000000000D+01
-.248012705829D-04 0.000000000000D+00 -.174402853036D-05 0.122450003928D-02 0.000000000000D+00  5 -4 4 25 23 21 2 0.61028748D-01 0.71494104D-02 0.14552150D+05 0.14552150D+05 0.14552150D+05 0.12493261D+01  1  2  3  1  5  1       -4 -.213536840532D-02 0.100000000000D+01
0.310758083135D-04 0.000000000000D+00 0.000000000000D+00 0.122450003928D-02 0.000000000000D+00  5 -4 4 25 23 21 2 0.61028748D-01 0.71494104D-02 0.14552150D+05 0.14552150D+05 0.14552150D+05 0.12493261D+01  1  2 15  1  5  1       -4 0.267560079314D-02 0.100000000000D+01
0.175398999266D-03 0.000000000000D+00 0.000000000000D+00 0.122450003928D-02 0.000000000000D+00  5 -4 4 25 23 21 2 0.80454805D-01 0.71494104D-02 0.22215368D+05 0.22215368D+05 0.22215368D+05 0.12288347D+01  1  2 12  1  5  1       -4 0.838102656737D-02 0.100000000000D+01
-.209120411011D-03 0.000000000000D+00 0.000000000000D+00 0.122450003928D-02 0.000000000000D+00  5 -4 4 25 23 21 2 0.61028748D-01 0.71494104D-02 0.14552150D+05 0.14552150D+05 0.14552150D+05 0.12493261D+01  1  2  4  1  5  1       -4 -.180050903880D-01 0.100000000000D+01
-.394499903137D-03 0.000000000000D+00 -.176665923879D-03 0.122450003928D-02 0.000000000000D+00  5 -4 4 25 23 21 2 0.87355930D-01 0.71494104D-02 0.14552150D+05 0.14552150D+05 0.14552150D+05 0.12493261D+01  1  2  5  1  5  1       -4 -.156023916003D-01 0.100000000000D+01
0.440038683454D-03 0.000000000000D+00 0.165882597890D-03 0.122450003928D-02 0.000000000000D+00  5 -4 4 25 23 21 2 0.61028748D-01 0.71494104D-02 0.14552150D+05 0.14552150D+05 0.14552150D+05 0.12493261D+01  1  2  6  1  5  1       -4 0.378869581954D-01 0.100000000000D+01
0.638823615725D-05 0.000000000000D+00 0.000000000000D+00 0.122450003928D-02 0.000000000000D+00  5 21 4 25 23 4 2 0.80454805D-01 0.71494104D-02 0.22215368D+05 0.22215368D+05 0.22215368D+05 0.12288347D+01  1  2 12  3  5  1       -4 0.725162196868D-02 0.100000000000D+01
-.121688577945D-04 0.000000000000D+00 -.776741364723D-05 0.122450003928D-02 0.000000000000D+00  5 21 4 25 23 4 2 0.87355930D-01 0.71494104D-02 0.14552150D+05 0.14552150D+05 0.14552150D+05 0.12493261D+01  1  2  5  3  5  1       -4 -.117157999743D-01 0.100000000000D+01
  </mgrwgt>
  </event>
  <event>
  5     66 0.46888340E-03 0.19342757E+03 0.75467711E-02 0.11049268E+00
       -2 -1    0    0    0  502 0.00000000E+00 0.00000000E+00 0.14514118E+03 0.14514154E+03 0.32000000E+00 0.0000E+00 0.9000E+01
        2 -1    0    0  501    0 0.00000000E+00 0.00000000E+00 -.79095692E+03 0.79095698E+03 0.32000000E+00 0.0000E+00 0.9000E+01
       25  1    1    2    0    0 0.43834626E+02 -.12303045E+03 -.22175918E+02 0.18213934E+03 0.12500000E+03 0.0000E+00 0.9000E+01
       23  1    1    2    0    0 -.16624813E+03 0.11963446E+03 -.58349206E+03 0.62508325E+03 0.91188000E+02 0.0000E+00 0.9000E+01
       21  1    1    2  501  502 0.12241350E+03 0.33959965E+01 -.40147759E+02 0.12887592E+03 0.75000000E+00 0.0000E+00 0.9000E+01
#aMCatNLO 2  0  0  1  2 0.12246060D+03 0.00000000D+00  -5  5  0 0.00000000D+00 0.00000000D+00 0.00000000D+00 0.00000000D+00 0.00000000D+00
  <mgrwgt>
 0.3502532096D-01    2    2    0
 0.259700799203868D+03 0.000000000000000D+00 0.000000000000000D+00 0.259700799203868D+03
 0.259700799203868D+03 0.000000000000000D+00 0.000000000000000D+00 -.259700799203868D+03
 0.266737501322622D+03 0.103944245562205D+03 -.121362892356597D+03 0.173177760654135D+03
 0.252664097085114D+03 -.103944245562205D+03 0.121362892356597D+03 -.173177760654135D+03
 0.000000000000000D+00 0.000000000000000D+00 0.000000000000000D+00 0.000000000000000D+00
 0.384280085374964D+03 0.000000000000000D+00 0.000000000000000D+00 0.384280085374964D+03
 0.298740268572711D+03 0.000000000000000D+00 0.000000000000000D+00 -.298740268572711D+03
 0.250346767173369D+03 0.438346261330960D+02 -.123030453956523D+03 0.173177760654135D+03
 0.283296015112296D+03 -.166248129737746D+03 0.119634457444446D+03 -.173177760654135D+03
 0.149377571662009D+03 0.122413503604650D+03 0.339599651207603D+01 0.855398168022530D+02
-.195527625190D-03 0.000000000000D+00 0.000000000000D+00 0.608297102956D-03 0.000000000000D+00  5 -2 2 25 23 21 2 0.23028523D-01 0.10578347D+00 0.69549801D+05 0.69549801D+05 0.69549801D+05 0.11783429D+01  1  2 13  1  5  1       -2 -.192092995989D-01 0.100000000000D+01
0.622355153462D-03 0.000000000000D+00 0.000000000000D+00 0.608297102956D-03 0.320419354287D-06  5 -2 2 25 23 21 2 0.22329379D-01 0.12168535D+00 0.69549801D+05 0.69549801D+05 0.69549801D+05 0.11783429D+01  1  2  1  1  5  1       -2 0.542346205606D-01 0.100000000000D+01
  </mgrwgt>
  </event>
  <event>
  4     66 0.46888340E-03 0.11942896E+03 0.75467711E-02 0.11244598E+00
       -2 -1    0    0    0  501 0.00000000E+00 0.00000000E+00 0.31603992E+02 0.31605612E+02 0.32000000E+00 0.0000E+00 0.9000E+01
        2 -1    0    0  501    0 0.00000000E+00 0.00000000E+00 -.45443018E+03 0.45443029E+03 0.32000000E+00 0.0000E+00 0.9000E+01
       25  1    1    2    0    0 -.35340108E+02 -.35754178E+02 -.21830649E+03 0.25653462E+03 0.12500000E+03 0.0000E+00 0.9000E+01
       23  1    1    2    0    0 0.35340108E+02 0.35754178E+02 -.20451969E+03 0.22950129E+03 0.91188000E+02 0.0000E+00 0.9000E+01
#aMCatNLO 1  0  0  2  2 0.17193740D+03 0.00000000D+00  -5  5  0 0.00000000D+00 0.00000000D+00 0.00000000D+00 0.00000000D+00 0.00000000D+00
  <mgrwgt>
 0.1757571165D+00    3    2    0
 0.119842516882392D+03 0.000000000000000D+00 0.000000000000000D+00 0.119842516882392D+03
 0.119842516882392D+03 0.000000000000000D+00 0.000000000000000D+00 -.119842516882392D+03
 0.135091171629800D+03 -.353401075994516D+02 -.357541780084150D+02 0.986611383037323D+01
 0.104593862134984D+03 0.353401075994516D+02 0.357541780084150D+02 -.986611383037323D+01
 0.000000000000000D+00 -.000000000000000D+00 -.000000000000000D+00 0.000000000000000D+00
 0.388372687877595D+03 0.000000000000000D+00 0.000000000000000D+00 0.388372687877595D+03
 0.178169659903846D+03 0.000000000000000D+00 0.000000000000000D+00 -.178169659903846D+03
 0.134834479300708D+03 0.481252075786838D+02 -.119147388426205D+02 0.986611383037323D+01
 0.160142441294943D+03 0.117200793787301D+03 0.591353015838837D+02 -.986611383037323D+01
 0.271565427185789D+03 -.165326001365985D+03 -.472205627412632D+02 0.210203027973750D+03
0.129791987125D-03 0.000000000000D+00 0.000000000000D+00 0.166666686457D-02 0.000000000000D+00  5 -2 2 25 23 21 0 0.48622859D-02 0.69912468D-01 0.14263276D+05 0.14263276D+05 0.14263276D+05 0.12503237D+01  1  2  2  2  5  2        2 0.172138827537D+00 0.100000000000D+01
-.721056118667D-05 0.000000000000D+00 -.498435405575D-06 0.166666686457D-02 0.000000000000D+00  5 -2 2 25 23 21 2 0.48622859D-02 0.69912468D-01 0.14263276D+05 0.14263276D+05 0.14263276D+05 0.12503237D+01  1  2  3  2  5  2        2 -.149501293663D-01 0.100000000000D+01
0.895568949244D-05 0.000000000000D+00 0.000000000000D+00 0.166666686457D-02 0.000000000000D+00  5 -2 2 25 23 21 2 0.48622859D-02 0.69912468D-01 0.14263276D+05 0.14263276D+05 0.14263276D+05 0.12503237D+01  1  2 15  2  5  2        2 0.185684183256D-01 0.100000000000D+01
  </mgrwgt>
  </event>
  <event>
  4     66 0.46888340E-03 0.11602408E+03 0.75467711E-02 0.11749163E+00
       -2 -1    0    0    0  501 0.00000000E+00 0.00000000E+00 0.11184401E+03 0.11184446E+03 0.32000000E+00 0.0000E+00 0.9000E+01
        2 -1    0    0  501    0 0.00000000E+00 0.00000000E+00 -.26088469E+03 0.26088489E+03 0.32000000E+00 0.0000E+00 0.9000E+01
       25  1    1    2    0    0 0.65871190E+02 -.10895336E+03 -.11558553E+03 0.21259083E+03 0.12500000E+03 0.0000E+00 0.9000E+01
       23  1    1    2    0    0 -.65871190E+02 0.10895336E+03 -.33455156E+02 0.16013852E+03 0.91188000E+02 0.0000E+00 0.9000E+01
#aMCatNLO 1  0  0  1  2 0.10514165D+02 0.00000000D+00  -5  5  0 0.00000000D+00 0.00000000D+00 0.00000000D+00 0.00000000D+00 0.00000000D+00
  <mgrwgt>
 0.2053766743D+00    6    2    0
 0.170817187168982D+03 0.000000000000000D+00 0.000000000000000D+00 0.170817187168982D+03
 0.170817187168982D+03 0.000000000000000D+00 0.000000000000000D+00 -.170817187168982D+03
 0.181515391455604D+03 0.658711901026631D+02 -.108953355468913D+03 -.333615044895292D+02
 0.160118982882360D+03 -.658711901026631D+02 0.108953355468913D+03 0.333615044895292D+02
 0.000000000000000D+00 -.000000000000000D+00 0.000000000000000D+00 -.000000000000000D+00
 0.176105292779973D+03 0.000000000000000D+00 0.000000000000000D+00 0.176105292779973D+03
 0.176205477503538D+03 0.000000000000000D+00 0.000000000000000D+00 -.176205477503538D+03
 0.185519677912409D+03 0.687958235900843D+02 -.113783546998154D+03 -.333615044895292D+02
 0.156276450483365D+03 -.633500667634632D+02 0.104789582931413D+03 0.333615044895292D+02
 0.105146418877370D+02 -.544575682662111D+01 0.899396406674098D+01 -.100184723565020D+00
0.330764790033D-03 0.000000000000D+00 0.000000000000D+00 0.119252916588D-02 0.000000000000D+00  5 -2 2 25 23 21 0 0.17206821D-01 0.40136157D-01 0.28060963D+05 0.28060963D+05 0.28060963D+05 0.12179559D+01  1  2  2  1  5  1       -2 0.111633859375D+00 0.100000000000D+01
-.183673028411D-04 0.000000000000D+00 -.127022388609D-05 0.119252916588D-02 0.000000000000D+00  5 -2 2 25 23 21 2 0.17206821D-01 0.40136157D-01 0.28060963D+05 0.28060963D+05 0.28060963D+05 0.12179559D+01  1  2  3  1  5  1       -2 -.919570758025D-02 0.100000000000D+01
0.227871372867D-04 0.000000000000D+00 0.000000000000D+00 0.119252916588D-02 0.000000000000D+00  5 -2 2 25 23 21 2 0.17206821D-01 0.40136157D-01 0.28060963D+05 0.28060963D+05 0.28060963D+05 0.12179559D+01  1  2 15  1  5  1       -2 0.114085259492D-01 0.100000000000D+01
0.578909440820D-03 0.000000000000D+00 0.000000000000D+00 0.119252916588D-02 0.000000000000D+00  5 -2 2 25 23 21 2 0.18002543D-01 0.40136157D-01 0.29874271D+05 0.29874271D+05 0.29874271D+05 0.12150899D+01  1  2 12  1  5  1       -2 0.267827152645D+00 0.100000000000D+01
-.439302942891D-03 0.000000000000D+00 0.000000000000D+00 0.119252916588D-02 0.000000000000D+00  5 -2 2 25 23 21 2 0.17206821D-01 0.40136157D-01 0.28060963D+05 0.28060963D+05 0.28060963D+05 0.12179559D+01  1  2  4  1  5  1       -2 -.219939826600D+00 0.100000000000D+01
0.668461721901D-05 0.000000000000D+00 0.000000000000D+00 0.119252916588D-02 0.000000000000D+00  5 21 2 25 23 2 2 0.18002543D-01 0.40136157D-01 0.29874271D+05 0.29874271D+05 0.29874271D+05 0.12150899D+01  1  2 12  3  5  1       -2 0.436426704722D-01 0.100000000000D+01
  </mgrwgt>
  </event>
  <event>
  4     66 0.46888340E-03 0.14194187E+03 0.75467711E-02 0.11455687E+00
       -2 -1    0    0    0  501 0.00000000E+00 0.00000000E+00 0.21635326E+03 0.21635349E+03 0.32000000E+00 0.0000E+00 0.9000E+01
        2 -1    0    0  501    0 0.00000000E+00 0.00000000E+00 -.93954184E+02 0.93954729E+02 0.32000000E+00 0.0000E+00 0.9000E+01
       25  1    1    2    0    0 0.73310198E+02 -.54486129E+02 0.81238683E+02 0.17483663E+03 0.12500000E+03 0.0000E+00 0.9000E+01
       23  1    1    2    0    0 -.73310198E+02 0.54486129E+02 0.41160389E+02 0.13547159E+03 0.91188000E+02 0.0000E+00 0.9000E+01
#aMCatNLO 1  0  0  2  2 0.10676538D+03 0.00000000D+00  -5  5  0 0.00000000D+00 0.00000000D+00 0.00000000D+00 0.00000000D+00 0.00000000D+00
  <mgrwgt>
 0.1662707799D+00    3    2    0
 0.142574243713625D+03 0.000000000000000D+00 0.000000000000000D+00 0.142574243713625D+03
 0.142574243713625D+03 0.000000000000000D+00 0.000000000000000D+00 -.142574243713625D+03
 0.155391686166068D+03 0.733101979751104D+02 -.544861292831206D+02 0.133586196190714D+02
 0.129756801261182D+03 -.733101979751104D+02 0.544861292831206D+02 -.133586196190714D+02
 0.000000000000000D+00 0.000000000000000D+00 0.000000000000000D+00 0.000000000000000D+00
 0.594741187082810D+03 0.000000000000000D+00 0.000000000000000D+00 0.594741187082810D+03
 0.158680372560368D+03 0.000000000000000D+00 0.000000000000000D+00 -.158680372560368D+03
 0.174095970581942D+03 0.501895782848753D+02 -.109484978359260D+03 0.133586196190714D+02
 0.130384745813089D+03 -.915647020585018D+02 0.110626947691124D+02 -.133586196190714D+02
 0.448940843248148D+03 0.413751237736265D+02 0.984222835901476D+02 0.436060814522442D+03
0.492248446363D-03 0.000000000000D+00 0.000000000000D+00 0.139325100909D-02 0.000000000000D+00  5 -2 2 25 23 21 0 0.33285176D-01 0.14454550D-01 0.20147495D+05 0.20147495D+05 0.20147495D+05 0.12334749D+01  1  2  2  2  5  2        2 0.162922806149D+00 0.100000000000D+01
-.273464788789D-04 0.000000000000D+00 -.189036364603D-05 0.139325100909D-02 0.000000000000D+00  5 -2 2 25 23 21 2 0.33285176D-01 0.14454550D-01 0.20147495D+05 0.20147495D+05 0.20147495D+05 0.12334749D+01  1  2  3  2  5  2        2 -.137708126418D-01 0.100000000000D+01
0.339949822542D-04 0.000000000000D+00 0.000000000000D+00 0.139325100909D-02 0.000000000000D+00  5 -2 2 25 23 21 2 0.33285176D-01 0.14454550D-01 0.20147495D+05 0.20147495D+05 0.20147495D+05 0.12334749D+01  1  2 15  2  5  2        2 0.171187864243D-01 0.100000000000D+01
  </mgrwgt>
  </event>
  <event>
  4     66 0.46888340E-03 0.56030361E+02 0.75467711E-02 0.12509756E+00
       -2 -1    0    0    0  501 0.00000000E+00 0.00000000E+00 0.35203235E+03 0.35203249E+03 0.32000000E+00 0.0000E+00 0.9000E+01
        2 -1    0    0  501    0 0.00000000E+00 0.00000000E+00 -.65541280E+02 0.65542061E+02 0.32000000E+00 0.0000E+00 0.9000E+01
       25  1    1    2    0    0 -.34106331E+02 0.66927625E+01 0.29231443E+03 0.31981363E+03 0.12500000E+03 0.0000E+00 0.9000E+01
       23  1    1    2    0    0 0.34106331E+02 -.66927625E+01 -.58233601E+01 0.97760921E+02 0.91188000E+02 0.0000E+00 0.9000E+01
#aMCatNLO 1  0  0  1  2 0.34040564D+01 0.00000000D+00  -5  5  0 0.00000000D+00 0.00000000D+00 0.00000000D+00 0.00000000D+00 0.00000000D+00
  <mgrwgt>
 0.7419582265D-01   11    2    0
 0.151897479096337D+03 0.000000000000000D+00 0.000000000000000D+00 0.151897479096337D+03
 0.151897479096337D+03 0.000000000000000D+00 0.000000000000000D+00 -.151897479096337D+03
 0.163928206497949D+03 -.341063310052200D+02 0.669276248029047D+01 0.100196916127089D+03
 0.139866751694726D+03 0.341063310052200D+02 -.669276248029047D+01 -.100196916127089D+03
 0.000000000000000D+00 0.000000000000000D+00 0.000000000000000D+00 0.000000000000000D+00
 0.153879531218979D+03 0.000000000000000D+00 0.000000000000000D+00 0.153879531218979D+03
 0.153375645935359D+03 0.000000000000000D+00 0.000000000000000D+00 -.153375645935359D+03
 0.164309495701712D+03 -.359330305700694D+02 0.648117970917682D+01 0.100196916127089D+03
 0.139504533308567D+03 0.325515815010436D+02 -.687284584747972D+01 -.100196916127089D+03
 0.344114814405848D+01 0.338144906902579D+01 0.391666138302900D+00 0.503885283619828D+00
0.358677267400D-03 0.000000000000D+00 0.000000000000D+00 0.853482261185D-03 0.000000000000D+00  5 -2 2 25 23 21 0 0.54158894D-01 0.10083345D-01 0.12919677D+05 0.12919677D+05 0.12919677D+05 0.12552828D+01  1  2  2  1  5  1       -2 0.711167413505D-01 0.100000000000D+01
-.178896305488D-04 0.000000000000D+00 -.137741514871D-05 0.853482261185D-03 0.000000000000D+00  5 -2 2 25 23 21 2 0.54158894D-01 0.10083345D-01 0.12919677D+05 0.12919677D+05 0.12919677D+05 0.12552828D+01  1  2  3  1  5  1       -2 -.558923677046D-02 0.100000000000D+01
0.245175951543D-04 0.000000000000D+00 0.000000000000D+00 0.853482261185D-03 0.000000000000D+00  5 -2 2 25 23 21 2 0.54158894D-01 0.10083345D-01 0.12919677D+05 0.12919677D+05 0.12919677D+05 0.12552828D+01  1  2 15  1  5  1       -2 0.766000415637D-02 0.100000000000D+01
0.769804707109D-05 0.000000000000D+00 0.000000000000D+00 0.853482261185D-03 0.000000000000D+00  5 -2 2 25 23 21 2 0.55126115D-01 0.10083345D-01 0.13305061D+05 0.13305061D+05 0.13305061D+05 0.12538031D+01  1  2 12  1  5  1       -2 0.231749899336D-02 0.100000000000D+01
-.224427304118D-02 0.000000000000D+00 0.000000000000D+00 0.853482261185D-03 0.000000000000D+00  5 -2 2 25 23 21 2 0.54158894D-01 0.10083345D-01 0.12919677D+05 0.12919677D+05 0.12919677D+05 0.12552828D+01  1  2  4  1  5  1       -2 -.701175654273D+00 0.100000000000D+01
-.141734957619D-01 0.000000000000D+00 -.187083868790D-02 0.853482261185D-03 0.000000000000D+00  5 -2 2 25 23 21 2 0.55335574D-01 0.10083345D-01 0.12919677D+05 0.12919677D+05 0.12919677D+05 0.12552828D+01  1  2  5  1  5  1       -2 -.424112828419D+01 0.100000000000D+01
0.142108565186D-01 0.000000000000D+00 0.187040662343D-02 0.853482261185D-03 0.000000000000D+00  5 -2 2 25 23 21 2 0.54158894D-01 0.10083345D-01 0.12919677D+05 0.12919677D+05 0.12919677D+05 0.12552828D+01  1  2  6  1  5  1       -2 0.443988161616D+01 0.100000000000D+01
0.223827394532D-02 0.000000000000D+00 0.000000000000D+00 0.853482261185D-03 0.617658690127D-03  5 -2 2 25 23 21 2 0.54865593D-01 0.10181470D-01 0.13305061D+05 0.13305061D+05 0.13305061D+05 0.12538031D+01  1  2 11  1  5  1       -2 0.672297657368D+00 0.100000000000D+01
0.323740579393D-06 0.000000000000D+00 0.000000000000D+00 0.853482261185D-03 0.000000000000D+00  5 21 2 25 23 2 2 0.55126115D-01 0.10083345D-01 0.13305061D+05 0.13305061D+05 0.13305061D+05 0.12538031D+01  1  2 12  3  5  1       -2 0.121531614372D-02 0.100000000000D+01
-.550070804202D-04 0.000000000000D+00 -.730233187382D-05 0.853482261185D-03 0.000000000000D+00  5 21 2 25 23 2 2 0.55335574D-01 0.10083345D-01 0.12919677D+05 0.12919677D+05 0.12919677D+05 0.12552828D+01  1  2  5  3  5  1       -2 -.205348682841D+00 0.100000000000D+01
0.879393555481D-05 0.000000000000D+00 0.000000000000D+00 0.853482261185D-03 0.147465309509D-05  5 21 2 25 23 2 2 0.54865593D-01 0.10181470D-01 0.13305061D+05 0.13305061D+05 0.13305061D+05 0.12538031D+01  1  2 11  3  5  1       -2 0.329488465523D-01 0.100000000000D+01
  </mgrwgt>
  </event>
  <event>
  4     66 0.46888340E-03 0.11495401E+03 0.75467711E-02 0.96768190E-01
       -2 -1    0    0    0  501 0.00000000E+00 0.00000000E+00 0.42519530E+02 0.42520735E+02 0.32000000E+00 0.0000E+00 0.9000E+01
        2 -1    0    0  501    0 0.00000000E+00 0.00000000E+00 -.31296495E+03 0.31296512E+03 0.32000000E+00 0.0000E+00 0.9000E+01
       25  1    1    2    0    0 -.37619686E+02 0.90430517E+01 -.13907970E+03 0.19095859E+03 0.12500000E+03 0.0000E+00 0.9000E+01
       23  1    1    2    0    0 0.37619686E+02 -.90430517E+01 -.13136572E+03 0.16452726E+03 0.91188000E+02 0.0000E+00 0.9000E+01
#aMCatNLO 1  0  0  2  2 0.70588830D+03 0.00000000D+00  -5  5  0 0.00000000D+00 0.00000000D+00 0.00000000D+00 0.00000000D+00 0.00000000D+00
  <mgrwgt>
 0.2209966171D+00    3    2    0
 0.115357556818686D+03 0.000000000000000D+00 0.000000000000000D+00 0.115357556818686D+03
 0.115357556818686D+03 0.000000000000000D+00 0.000000000000000D+00 -.115357556818686D+03
 0.131199060525914D+03 -.376196857672463D+02 0.904305168478061D+01 0.954860942140293D+01
 0.995160531114577D+02 0.376196857672463D+02 -.904305168478061D+01 -.954860942140293D+01
 0.000000000000000D+00 -.000000000000000D+00 -.000000000000000D+00 0.000000000000000D+00
 0.130418592655000D+04 0.000000000000000D+00 0.000000000000000D+00 0.130418592655000D+04
 0.504851808236890D+03 0.000000000000000D+00 0.000000000000000D+00 -.504851808236890D+03
 0.386376956741050D+03 0.156747912981879D+03 0.330153098629133D+03 0.954860942140293D+01
 0.356258728843672D+03 0.208778794736029D+03 0.273724806073542D+03 -.954860942140293D+01
 0.106640204920217D+04 -.365526707717907D+03 -.603877904702675D+03 0.799334118313111D+03
0.172182551449D-03 0.000000000000D+00 0.000000000000D+00 0.174864273367D-02 0.000000000000D+00  5 -2 2 25 23 21 0 0.65415714D-02 0.48148559D-01 0.13214425D+05 0.13214425D+05 0.13214425D+05 0.12541467D+01  1  2  2  2  5  2        2 0.216393632001D+00 0.100000000000D+01
-.956555447571D-05 0.000000000000D+00 -.661226334272D-06 0.174864273367D-02 0.000000000000D+00  5 -2 2 25 23 21 2 0.65415714D-02 0.48148559D-01 0.13214425D+05 0.13214425D+05 0.13214425D+05 0.12541467D+01  1  2  3  2  5  2        2 -.189087229872D-01 0.100000000000D+01
0.118941149325D-04 0.000000000000D+00 0.000000000000D+00 0.174864273367D-02 0.000000000000D+00  5 -2 2 25 23 21 2 0.65415714D-02 0.48148559D-01 0.13214425D+05 0.13214425D+05 0.13214425D+05 0.12541467D+01  1  2 15  2  5  2        2 0.235117080778D-01 0.100000000000D+01
  </mgrwgt>
  </event>
  <event>
  4     66 0.46888340E-03 0.74255618E+02 0.75467711E-02 0.12043178E+00
       -2 -1    0    0    0  501 0.00000000E+00 0.00000000E+00 0.76433335E+02 0.76434005E+02 0.32000000E+00 0.0000E+00 0.9000E+01
        2 -1    0    0  501    0 0.00000000E+00 0.00000000E+00 -.18347440E+03 0.18347468E+03 0.32000000E+00 0.0000E+00 0.9000E+01
       25  1    1    2    0    0 0.36073960E+02 -.89541332E+01 -.93602206E+02 0.16052377E+03 0.12500000E+03 0.0000E+00 0.9000E+01
       23  1    1    2    0    0 -.36073960E+02 0.89541332E+01 -.13438857E+02 0.99384915E+02 0.91188000E+02 0.0000E+00 0.9000E+01
#aMCatNLO 1  0  0  1  2 0.57695831D+02 0.00000000D+00  -5  5  0 0.00000000D+00 0.00000000D+00 0.00000000D+00 0.00000000D+00 0.00000000D+00
  <mgrwgt>
 0.1459106864D+00    9    2    0
 0.118421634728975D+03 0.000000000000000D+00 0.000000000000000D+00 0.118421634728975D+03
 0.118421634728975D+03 0.000000000000000D+00 0.000000000000000D+00 -.118421634728975D+03
 0.133853250482147D+03 0.360739603176539D+02 -.895413316882054D+01 -.301692815763268D+02
 0.102990018975803D+03 -.360739603176539D+02 0.895413316882054D+01 0.301692815763268D+02
 0.000000000000000D+00 0.000000000000000D+00 -.000000000000000D+00 0.000000000000000D+00
 0.178526636181929D+03 0.000000000000000D+00 0.000000000000000D+00 0.178526636181929D+03
 0.136577063188508D+03 0.000000000000000D+00 0.000000000000000D+00 -.136577063188508D+03
 0.131619935028328D+03 0.207095409092071D+02 0.189667251089755D+02 -.301692815763268D+02
 0.112149511787232D+03 -.485252893497127D+02 0.315812031564567D+02 0.301692815763268D+02
 0.713342525548778D+02 0.278157484405056D+02 -.505479282654322D+02 0.419495729934206D+02
0.145998738820D-03 0.000000000000D+00 0.000000000000D+00 0.161800848234D-02 0.000000000000D+00  5 -2 2 25 23 21 0 0.11759048D-01 0.28226904D-01 0.13096642D+05 0.13096642D+05 0.13096642D+05 0.12545973D+01  1  2  2  1  5  1       -2 0.130464717687D+00 0.100000000000D+01
-.809950902359D-05 0.000000000000D+00 -.560673599421D-06 0.161800848234D-02 0.000000000000D+00  5 -2 2 25 23 21 2 0.11759048D-01 0.28226904D-01 0.13096642D+05 0.13096642D+05 0.13096642D+05 0.12545973D+01  1  2  3  1  5  1       -2 -.113922980535D-01 0.100000000000D+01
0.100694141737D-04 0.000000000000D+00 0.000000000000D+00 0.161800848234D-02 0.000000000000D+00  5 -2 2 25 23 21 2 0.11759048D-01 0.28226904D-01 0.13096642D+05 0.13096642D+05 0.13096642D+05 0.12545973D+01  1  2 15  1  5  1       -2 0.141630520018D-01 0.100000000000D+01
0.558924735277D-04 0.000000000000D+00 0.000000000000D+00 0.161800848234D-02 0.000000000000D+00  5 -2 2 25 23 21 2 0.18260914D-01 0.28226904D-01 0.21583561D+05 0.21583561D+05 0.21583561D+05 0.12301993D+01  1  2 12  1  5  1       -2 0.375407540230D-01 0.100000000000D+01
-.889296376919D-04 0.000000000000D+00 0.000000000000D+00 0.161800848234D-02 0.000000000000D+00  5 -2 2 25 23 21 2 0.11759048D-01 0.28226904D-01 0.13096642D+05 0.13096642D+05 0.13096642D+05 0.12545973D+01  1  2  4  1  5  1       -2 -.125083253247D+00 0.100000000000D+01
-.105378283648D-03 0.000000000000D+00 -.463972773450D-04 0.161800848234D-02 0.000000000000D+00  5 -2 2 25 23 21 2 0.20275095D-01 0.28226904D-01 0.13096642D+05 0.13096642D+05 0.13096642D+05 0.12545973D+01  1  2  5  1  5  1       -2 -.608527184697D-01 0.100000000000D+01
0.118722362747D-03 0.000000000000D+00 0.402721401787D-04 0.161800848234D-02 0.000000000000D+00  5 -2 2 25 23 21 2 0.11759048D-01 0.28226904D-01 0.13096642D+05 0.13096642D+05 0.13096642D+05 0.12545973D+01  1  2  6  1  5  1       -2 0.166987966565D+00 0.100000000000D+01
0.285625601549D-05 0.000000000000D+00 0.000000000000D+00 0.161800848234D-02 0.000000000000D+00  5 21 2 25 23 2 2 0.18260914D-01 0.28226904D-01 0.21583561D+05 0.21583561D+05 0.21583561D+05 0.12301993D+01  1  2 12  3  5  1       -2 0.271869474170D-01 0.100000000000D+01
-.407488798860D-05 0.000000000000D+00 -.280422684971D-05 0.161800848234D-02 0.000000000000D+00  5 21 2 25 23 2 2 0.20275095D-01 0.28226904D-01 0.13096642D+05 0.13096642D+05 0.13096642D+05 0.12545973D+01  1  2  5  3  5  1       -2 -.331044814992D-01 0.100000000000D+01
  </mgrwgt>
  </event>
  <event>
  5     66 0.46888340E-03 0.11149515E+03 0.75467711E-02 0.12110700E+00
       -2 -1    0    0    0  501 0.00000000E+00 0.00000000E+00 0.38689963E+03 0.38689977E+03 0.32000000E+00 0.0000E+00 0.9000E+01
        2 -1    0    0  502    0 0.00000000E+00 0.00000000E+00 -.59008102E+02 0.59008969E+02 0.32000000E+00 0.0000E+00 0.9000E+01
       25  1    1    2    0    0 0.34828826E+02 -.45651709E+02 0.22296897E+03 0.26198719E+03 0.12500000E+03 0.0000E+00 0.9000E+01
       23  1    1    2    0    0 -.86121674E+01 -.18031273E+01 0.41764890E+02 0.10068256E+03 0.91188000E+02 0.0000E+00 0.9000E+01
       21  1    1    2  502  501 -.26216659E+02 0.47454836E+02 0.63157673E+02 0.83238986E+02 0.75000000E+00 0.0000E+00 0.9000E+01
#aMCatNLO 2  0  0  2  2 0.54215078D+02 0.00000000D+00  -5  5  0 0.00000000D+00 0.00000000D+00 0.00000000D+00 0.00000000D+00 0.00000000D+00
  <mgrwgt>
 0.4096235612D-01    1    2    0
 0.120940125666350D+03 0.000000000000000D+00 0.000000000000000D+00 0.120940125666350D+03
 0.120940125666350D+03 0.000000000000000D+00 0.000000000000000D+00 -.120940125666350D+03
 0.136050389145334D+03 0.197747498873962D+02 -.184022895436207D+02 0.464222295138932D+02
 0.105829862187366D+03 -.197747498873962D+02 0.184022895436207D+02 -.464222295138932D+02
 0.000000000000000D+00 -.000000000000000D+00 0.000000000000000D+00 0.000000000000000D+00
 0.152858243934641D+03 0.000000000000000D+00 0.000000000000000D+00 0.152858243934641D+03
 0.149351795320093D+03 0.000000000000000D+00 0.000000000000000D+00 -.149351795320093D+03
 0.145179713009092D+03 0.348288264590717D+02 -.456517088819856D+02 0.464222295138932D+02
 0.102701973844706D+03 -.861216735014308D+01 -.180312730865091D+01 -.464222295138932D+02
 0.543283524009369D+02 -.262166591089286D+02 0.474548361906366D+02 0.350644861454788D+01
0.142781266293D-03 0.000000000000D+00 0.000000000000D+00 0.147396517186D-02 0.429645683946D-05  5 -2 2 25 23 21 2 0.59522077D-01 0.90780908D-02 0.20076669D+05 0.20076669D+05 0.20076669D+05 0.12336432D+01  1  2  1  2  5  2        2 0.409623561194D-01 0.100000000000D+01
  </mgrwgt>
  </event>
  <event>
  4     66 0.46888340E-03 0.55070657E+02 0.75467711E-02 0.11813246E+00
       -2 -1    0    0    0  501 0.00000000E+00 0.00000000E+00 0.13625883E+02 0.13629640E+02 0.32000000E+00 0.0000E+00 0.9000E+01
        2 -1    0    0  501    0 0.00000000E+00 0.00000000E+00 -.11047046E+04 0.11047046E+04 0.32000000E+00 0.0000E+00 0.9000E+01
       25  1    1    2    0    0 -.20612281E+02 0.47730105E+02 -.72370390E+03 0.73625767E+03 0.12500000E+03 0.0000E+00 0.9000E+01
       23  1    1    2    0    0 0.20612281E+02 -.47730105E+02 -.36737479E+03 0.38207658E+03 0.91188000E+02 0.0000E+00 0.9000E+01
#aMCatNLO 1  0  0  2  1 0.80264673D+02 0.00000000D+00  -5  5  0 0.00000000D+00 0.00000000D+00 0.00000000D+00 0.00000000D+00 0.00000000D+00
  <mgrwgt>
 0.1648911652D+00    9    2    0
 0.122697604755709D+03 0.000000000000000D+00 0.000000000000000D+00 0.122697604755709D+03
 0.122697604755709D+03 0.000000000000000D+00 0.000000000000000D+00 -.122697604755709D+03
 0.137591433919192D+03 -.206122805086656D+02 0.477301047145340D+02 -.245636659338744D+02
 0.107803775592227D+03 0.206122805086656D+02 -.477301047145340D+02 0.245636659338744D+02
 0.000000000000000D+00 0.000000000000000D+00 -.000000000000000D+00 -.000000000000000D+00
 0.158826146324088D+03 0.000000000000000D+00 0.000000000000000D+00 0.158826146324088D+03
 0.183264974209043D+03 0.000000000000000D+00 0.000000000000000D+00 -.183264974209043D+03
 0.160821533098749D+03 -.527949087217332D+02 0.827519754276892D+02 -.245636659338744D+02
 0.973668218270959D+02 -.151453630825266D+01 -.236511975250608D+02 0.245636659338744D+02
 0.839027656072867D+02 0.543094450299859D+02 -.591007779026284D+02 -.244388278849545D+02
0.887206265908D-04 0.000000000000D+00 0.000000000000D+00 0.157990130662D-02 0.000000000000D+00  5 -2 2 25 23 21 0 0.20965823D-02 0.16995484D+00 0.14441916D+05 0.14441916D+05 0.14441916D+05 0.12497041D+01  1  2  2  2  5  2        2 0.138274160824D+00 0.100000000000D+01
-.492633648881D-05 0.000000000000D+00 -.340710566786D-06 0.157990130662D-02 0.000000000000D+00  5 -2 2 25 23 21 2 0.20965823D-02 0.16995484D+00 0.14441916D+05 0.14441916D+05 0.14441916D+05 0.12497041D+01  1  2  3  2  5  2        2 -.119909860052D-01 0.100000000000D+01
0.612946426623D-05 0.000000000000D+00 0.000000000000D+00 0.157990130662D-02 0.000000000000D+00  5 -2 2 25 23 21 2 0.20965823D-02 0.16995484D+00 0.14441916D+05 0.14441916D+05 0.14441916D+05 0.12497041D+01  1  2 15  2  5  2        2 0.149194681287D-01 0.100000000000D+01
0.108793269536D-04 0.000000000000D+00 0.000000000000D+00 0.157990130662D-02 0.000000000000D+00  5 -2 2 25 23 21 2 0.20965823D-02 0.26887092D+00 0.27791667D+05 0.27791667D+05 0.27791667D+05 0.12183991D+01  1  2 12  2  5  2        2 0.116200972313D-01 0.100000000000D+01
-.392148345261D-04 0.000000000000D+00 0.000000000000D+00 0.157990130662D-02 0.000000000000D+00  5 -2 2 25 23 21 2 0.20965823D-02 0.16995484D+00 0.14441916D+05 0.14441916D+05 0.14441916D+05 0.12497041D+01  1  2  4  2  5  2        2 -.954511599171D-01 0.100000000000D+01
-.522085622607D-04 0.000000000000D+00 -.322368301424D-04 0.157990130662D-02 0.000000000000D+00  5 -2 2 25 23 21 2 0.20965823D-02 0.29257546D+00 0.14441916D+05 0.14441916D+05 0.14441916D+05 0.12497041D+01  1  2  5  2  5  2        2 -.485530498713D-01 0.100000000000D+01
0.642405054292D-04 0.000000000000D+00 0.280030279758D-04 0.157990130662D-02 0.000000000000D+00  5 -2 2 25 23 21 2 0.20965823D-02 0.16995484D+00 0.14441916D+05 0.14441916D+05 0.14441916D+05 0.12497041D+01  1  2  6  2  5  2        2 0.156365080485D+00 0.100000000000D+01
0.573642445543D-06 0.000000000000D+00 0.000000000000D+00 0.157990130662D-02 0.000000000000D+00  5 -2 21 25 23 -2 2 0.20965823D-02 0.26887092D+00 0.27791667D+05 0.27791667D+05 0.27791667D+05 0.12183991D+01  1  2 12  4  5  2        2 0.247632253710D-03 0.100000000000D+01
-.155860576118D-05 0.000000000000D+00 -.194369158277D-05 0.157990130662D-02 0.000000000000D+00  5 -2 21 25 23 -2 2 0.20965823D-02 0.29257546D+00 0.14441916D+05 0.14441916D+05 0.14441916D+05 0.12497041D+01  1  2  5  4  5  2        2 -.540077971141D-03 0.100000000000D+01
  </mgrwgt>
  </event>
  <event>
  4     66 0.46888340E-03 0.14156851E+03 0.75467711E-02 0.11282311E+00
       -2 -1    0    0    0  501 0.00000000E+00 0.00000000E+00 0.16995852E+02 0.16998865E+02 0.32000000E+00 0.0000E+00 0.9000E+01
        2 -1    0    0  501    0 0.00000000E+00 0.00000000E+00 -.13744735E+04 0.13744735E+04 0.32000000E+00 0.0000E+00 0.9000E+01
       25  1    1    2    0    0 0.40541997E+02 0.81206482E+02 -.99319947E+03 0.10051410E+04 0.12500000E+03 0.0000E+00 0.9000E+01
       23  1    1    2    0    0 -.40541997E+02 -.81206482E+02 -.36427816E+03 0.38633143E+03 0.91188000E+02 0.0000E+00 0.9000E+01
#aMCatNLO 1  0  0  1  2 0.14146355D+03 0.00000000D+00  -5  5  0 0.00000000D+00 0.00000000D+00 0.00000000D+00 0.00000000D+00 0.00000000D+00
  <mgrwgt>
 0.1886310292D+00    5    2    0
 0.152847865481223D+03 0.000000000000000D+00 0.000000000000000D+00 0.152847865481223D+03
 0.152847865481223D+03 0.000000000000000D+00 0.000000000000000D+00 -.152847865481223D+03
 0.164803787523356D+03 0.405419968810748D+02 0.812064822793312D+02 -.574207463096321D+02
 0.140891943439089D+03 -.405419968810748D+02 -.812064822793312D+02 0.574207463096321D+02
 0.000000000000000D+00 -.000000000000000D+00 -.000000000000000D+00 0.000000000000000D+00
 0.243804511455342D+03 0.000000000000000D+00 0.000000000000000D+00 0.243804511455342D+03
 0.234787088967456D+03 0.000000000000000D+00 0.000000000000000D+00 -.234787088967456D+03
 0.220782615055791D+03 0.485883582610773D+02 0.165716602806151D+03 -.574207463096321D+02
 0.116058321695671D+03 -.351799958454253D+02 -.248899272071390D+02 0.574207463096321D+02
 0.141750663671335D+03 -.134083624156520D+02 -.140826675599012D+03 0.901742248788524D+01
0.200558303259D-03 0.000000000000D+00 0.000000000000D+00 0.117220703313D-02 0.000000000000D+00  5 -2 2 25 23 21 0 0.26149811D-02 0.21145769D+00 0.20041643D+05 0.20041643D+05 0.20041643D+05 0.12337266D+01  1  2  2  1  5  1       -2 0.162645058354D+00 0.100000000000D+01
-.110625157581D-04 0.000000000000D+00 -.770196692728D-06 0.117220703313D-02 0.000000000000D+00  5 -2 2 25 23 21 2 0.26149811D-02 0.21145769D+00 0.20041643D+05 0.20041643D+05 0.20041643D+05 0.12337266D+01  1  2  3  1  5  1       -2 -.136550090645D-01 0.100000000000D+01
0.138209966877D-04 0.000000000000D+00 0.000000000000D+00 0.117220703313D-02 0.000000000000D+00  5 -2 2 25 23 21 2 0.26149811D-02 0.21145769D+00 0.20041643D+05 0.20041643D+05 0.20041643D+05 0.12337266D+01  1  2 15  1  5  1       -2 0.170599381893D-01 0.100000000000D+01
0.659335958809D-05 0.000000000000D+00 -.568748689342D-04 0.117220703313D-02 0.000000000000D+00  5 -2 2 25 23 21 2 0.68039021D-02 0.21145769D+00 0.20041643D+05 0.20041643D+05 0.20041643D+05 0.12337266D+01  1  2  5  1  5  1       -2 0.195212575027D-02 0.100000000000D+01
0.412266632760D-05 0.000000000000D+00 -.602659696472D-05 0.117220703313D-02 0.000000000000D+00  5 21 2 25 23 2 2 0.68039021D-02 0.21145769D+00 0.20041643D+05 0.20041643D+05 0.20041643D+05 0.12337266D+01  1  2  5  3  5  1       -2 0.206289159409D-01 0.100000000000D+01
  </mgrwgt>
  </event>
  <event>
  4     66 0.46888340E-03 0.22001095E+03 0.75467711E-02 0.10538928E+00
       -4 -1    0    0    0  501 0.00000000E+00 0.00000000E+00 0.10557181E+04 0.10557193E+04 0.15500000E+01 0.0000E+00 0.9000E+01
        4 -1    0    0  501    0 0.00000000E+00 0.00000000E+00 -.84202818E+02 0.84217083E+02 0.15500000E+01 0.0000E+00 0.9000E+01
       25  1    1    2    0    0 -.47345577E+02 0.26916174E+03 0.58703943E+03 0.65949218E+03 0.12500000E+03 0.0000E+00 0.9000E+01
       23  1    1    2    0    0 0.47345577E+02 -.26916174E+03 0.38447588E+03 0.48044417E+03 0.91188000E+02 0.0000E+00 0.9000E+01
#aMCatNLO 1  0  0  2  1 0.13933709D+03 0.00000000D+00  -5  5  0 0.00000000D+00 0.00000000D+00 0.00000000D+00 0.00000000D+00 0.00000000D+00
  <mgrwgt>
 0.1455970252D-01    7    2    0
 0.298166430383714D+03 0.000000000000000D+00 0.000000000000000D+00 0.298166430383714D+03
 0.298166430383714D+03 0.000000000000000D+00 0.000000000000000D+00 -.298166430383714D+03
 0.304295346914151D+03 -.473455768414434D+02 0.269161737455899D+03 0.477599580912313D+02
 0.292037513853278D+03 0.473455768414434D+02 -.269161737455899D+03 -.477599580912313D+02
 0.000000000000000D+00 -.000000000000000D+00 0.000000000000000D+00 -.000000000000000D+00
 0.321856509909521D+03 0.000000000000000D+00 0.000000000000000D+00 0.321856509909521D+03
 0.616160616586827D+03 0.000000000000000D+00 0.000000000000000D+00 -.616160616586827D+03
 0.285209792286772D+03 0.181966505530317D+02 0.251212049726995D+03 0.477599580912313D+02
 0.327185264675377D+03 0.116191864107365D+03 -.288016289808539D+03 -.477599580912313D+02
 0.325622069534199D+03 -.134388514660397D+03 0.368042400815441D+02 -.294304106677306D+03
0.889584719886D-02 0.000000000000D+00 0.000000000000D+00 0.984303692199D-03 0.000000000000D+00  5 -4 4 25 23 21 0 0.16241936D+00 0.12955464D-01 0.86621217D+05 0.86621217D+05 0.86621217D+05 0.11693455D+01  1  2  2  2  5  2        4 0.205047957702D-01 0.100000000000D+01
-.494112154589D-03 0.000000000000D+00 -.341623955740D-04 0.984303692199D-03 0.000000000000D+00  5 -4 4 25 23 21 2 0.16241936D+00 0.12955464D-01 0.86621217D+05 0.86621217D+05 0.86621217D+05 0.11693455D+01  1  2  3  2  5  2        4 -.155732538712D-02 0.100000000000D+01
0.610784389187D-03 0.000000000000D+00 0.000000000000D+00 0.984303692199D-03 0.000000000000D+00  5 -4 4 25 23 21 2 0.16241936D+00 0.12955464D-01 0.86621217D+05 0.86621217D+05 0.86621217D+05 0.11693455D+01  1  2 15  2  5  2        4 0.192504885076D-02 0.100000000000D+01
0.125254584007D-01 0.000000000000D+00 0.000000000000D+00 0.984303692199D-03 0.000000000000D+00  5 -4 4 25 23 21 2 0.16241936D+00 0.26755266D-01 0.13845852D+06 0.13845852D+06 0.13845852D+06 0.11508087D+01  1  2 12  2  5  2        4 0.103735983803D-01 0.100000000000D+01
-.174451370253D-01 0.000000000000D+00 -.340439944930D-02 0.984303692199D-03 0.000000000000D+00  5 -4 4 25 23 21 2 0.16241936D+00 0.28535665D-01 0.86621217D+05 0.86621217D+05 0.86621217D+05 0.11693455D+01  1  2  5  2  5  2        4 -.130505280220D-01 0.100000000000D+01
0.982223217755D-03 0.000000000000D+00 0.000000000000D+00 0.984303692199D-03 0.000000000000D+00  5 -4 21 25 23 -4 2 0.16241936D+00 0.26755266D-01 0.13845852D+06 0.13845852D+06 0.13845852D+06 0.11508087D+01  1  2 12  4  5  2        4 0.181930847937D-01 0.100000000000D+01
-.127874214342D-02 0.000000000000D+00 -.291402657958D-03 0.984303692199D-03 0.000000000000D+00  5 -4 21 25 23 -4 2 0.16241936D+00 0.28535665D-01 0.86621217D+05 0.86621217D+05 0.86621217D+05 0.11693455D+01  1  2  5  4  5  2        4 -.218289718635D-01 0.100000000000D+01
  </mgrwgt>
  </event>
  <event>
  4     66 0.46888340E-03 0.10262161E+03 0.75467711E-02 0.12544363E+00
       -2 -1    0    0    0  501 0.00000000E+00 0.00000000E+00 0.53340635E+03 0.53340644E+03 0.32000000E+00 0.0000E+00 0.9000E+01
        2 -1    0    0  501    0 0.00000000E+00 0.00000000E+00 -.22398388E+02 0.22400673E+02 0.32000000E+00 0.0000E+00 0.9000E+01
       25  1    1    2    0    0 0.47740994E+01 0.14150514E+02 0.30950560E+03 0.33412834E+03 0.12500000E+03 0.0000E+00 0.9000E+01
       23  1    1    2    0    0 -.47740994E+01 -.14150514E+02 0.20150236E+03 0.22167878E+03 0.91188000E+02 0.0000E+00 0.9000E+01
#aMCatNLO 1  0  0  1  2 0.83090335D+01 0.00000000D+00  -5  5  0 0.00000000D+00 0.00000000D+00 0.00000000D+00 0.00000000D+00 0.00000000D+00
  <mgrwgt>
 0.1291675951D+00   11    2    0
 0.109307383143201D+03 0.000000000000000D+00 0.000000000000000D+00 0.109307383143201D+03
 0.109307383143201D+03 0.000000000000000D+00 0.000000000000000D+00 -.109307383143201D+03
 0.126025715532568D+03 0.477409936311884D+01 0.141505144312696D+02 0.586957341698004D+01
 0.925890507538328D+02 -.477409936311884D+01 -.141505144312696D+02 -.586957341698004D+01
 0.000000000000000D+00 0.000000000000000D+00 0.000000000000000D+00 0.000000000000000D+00
 0.115067902346521D+03 0.000000000000000D+00 0.000000000000000D+00 0.115067902346521D+03
 0.112424186847915D+03 0.000000000000000D+00 0.000000000000000D+00 -.112424186847915D+03
 0.125767058533048D+03 0.261871676262979D+00 0.125631422495751D+02 0.586957341698004D+01
 0.930055541879920D+02 -.810002925946822D+01 -.153205548109052D+02 -.586957341698004D+01
 0.871947647339601D+01 0.783815758320524D+01 0.275741256133008D+01 0.264371549860564D+01
0.221246336803D-03 0.000000000000D+00 0.000000000000D+00 0.188943969739D-02 0.000000000000D+00  5 -2 2 25 23 21 0 0.82062698D-01 0.34460890D-02 0.11912824D+05 0.11912824D+05 0.11912824D+05 0.12593954D+01  1  2  2  1  5  1       -2 0.723001980751D-01 0.100000000000D+01
-.122914304850D-04 0.000000000000D+00 -.849644188823D-06 0.188943969739D-02 0.000000000000D+00  5 -2 2 25 23 21 2 0.82062698D-01 0.34460890D-02 0.11912824D+05 0.11912824D+05 0.11912824D+05 0.12593954D+01  1  2  3  1  5  1       -2 -.637074209118D-02 0.100000000000D+01
0.153052717683D-04 0.000000000000D+00 0.000000000000D+00 0.188943969739D-02 0.000000000000D+00  5 -2 2 25 23 21 2 0.82062698D-01 0.34460890D-02 0.11912824D+05 0.11912824D+05 0.11912824D+05 0.12593954D+01  1  2 15  1  5  1       -2 0.793283899629D-02 0.100000000000D+01
0.517028404464D-03 0.000000000000D+00 0.000000000000D+00 0.188943969739D-02 0.000000000000D+00  5 -2 2 25 23 21 2 0.87509287D-01 0.34460890D-02 0.12854934D+05 0.12854934D+05 0.12854934D+05 0.12555362D+01  1  2 12  1  5  1       -2 0.231835018866D+00 0.100000000000D+01
-.476806996132D-03 0.000000000000D+00 0.000000000000D+00 0.188943969739D-02 0.000000000000D+00  5 -2 2 25 23 21 2 0.82062698D-01 0.34460890D-02 0.11912824D+05 0.11912824D+05 0.11912824D+05 0.12593954D+01  1  2  4  1  5  1       -2 -.247132699757D+00 0.100000000000D+01
-.199490562300D-02 0.000000000000D+00 -.336314254513D-03 0.188943969739D-02 0.000000000000D+00  5 -2 2 25 23 21 2 0.88333351D-01 0.34460890D-02 0.11912824D+05 0.11912824D+05 0.11912824D+05 0.12593954D+01  1  2  5  1  5  1       -2 -.878830518826D+00 0.100000000000D+01
0.201511410211D-02 0.000000000000D+00 0.335404563221D-03 0.188943969739D-02 0.000000000000D+00  5 -2 2 25 23 21 2 0.82062698D-01 0.34460890D-02 0.11912824D+05 0.11912824D+05 0.11912824D+05 0.12593954D+01  1  2  6  1  5  1       -2 0.104444899595D+01 0.100000000000D+01
0.114756974468D-05 0.000000000000D+00 0.000000000000D+00 0.188943969739D-02 0.230477816755D-03  5 -2 2 25 23 21 2 0.86387417D-01 0.35443512D-02 0.12854934D+05 0.12854934D+05 0.12854934D+05 0.12555362D+01  1  2 11  1  5  1       -2 0.510125374039D-03 0.100000000000D+01
0.621270945279D-05 0.000000000000D+00 0.000000000000D+00 0.188943969739D-02 0.000000000000D+00  5 21 2 25 23 2 2 0.87509287D-01 0.34460890D-02 0.12854934D+05 0.12854934D+05 0.12854934D+05 0.12555362D+01  1  2 12  3  5  1       -2 0.338706013861D-01 0.100000000000D+01
-.241223041156D-04 0.000000000000D+00 -.417164979852D-05 0.188943969739D-02 0.000000000000D+00  5 21 2 25 23 2 2 0.88333351D-01 0.34460890D-02 0.11912824D+05 0.11912824D+05 0.11912824D+05 0.12593954D+01  1  2  5  3  5  1       -2 -.129475585423D+00 0.100000000000D+01
0.146759056068D-07 0.000000000000D+00 0.000000000000D+00 0.188943969739D-02 0.209809701340D-05  5 21 2 25 23 2 2 0.86387417D-01 0.35443512D-02 0.12854934D+05 0.12854934D+05 0.12854934D+05 0.12555362D+01  1  2 11  3  5  1       -2 0.793625320684D-04 0.100000000000D+01
  </mgrwgt>
  </event>
  <event>
  4     66 0.46888340E-03 0.27357776E+03 0.75467711E-02 0.10388269E+00
       -2 -1    0    0    0  501 0.00000000E+00 0.00000000E+00 0.24524699E+02 0.24526787E+02 0.32000000E+00 0.0000E+00 0.9000E+01
        2 -1    0    0  501    0 0.00000000E+00 0.00000000E+00 -.30931689E+04 0.30931689E+04 0.32000000E+00 0.0000E+00 0.9000E+01
       25  1    1    2    0    0 -.22697192E+03 0.10678498E+03 -.13907996E+04 0.14187557E+04 0.12500000E+03 0.0000E+00 0.9000E+01
       23  1    1    2    0    0 0.22697192E+03 -.10678498E+03 -.16778446E+04 0.16989400E+04 0.91188000E+02 0.0000E+00 0.9000E+01
#aMCatNLO 1  0  0  2  2 0.23416104D+03 0.00000000D+00  -5  5  0 0.00000000D+00 0.00000000D+00 0.00000000D+00 0.00000000D+00 0.00000000D+00
  <mgrwgt>
 0.2391842307D+00    3    2    0
 0.275431145216089D+03 0.000000000000000D+00 0.000000000000000D+00 0.275431145216089D+03
 0.275431145216089D+03 0.000000000000000D+00 0.000000000000000D+00 -.275431145216089D+03
 0.282065969184767D+03 -.226971922178981D+03 0.106784979152707D+03 0.318892731475085D+02
 0.268796321247412D+03 0.226971922178981D+03 -.106784979152707D+03 -.318892731475085D+02
 0.000000000000000D+00 0.000000000000000D+00 0.000000000000000D+00 0.000000000000000D+00
 0.557535692549853D+03 0.000000000000000D+00 0.000000000000000D+00 0.557535692549853D+03
 0.352361907278349D+03 0.000000000000000D+00 0.000000000000000D+00 -.352361907278349D+03
 0.335189312387134D+03 -.309152401414763D+03 0.116078463191381D+02 0.318892731475085D+02
 0.263376187311039D+03 0.156119240808530D+03 -.188842848967047D+03 -.318892731475085D+02
 0.311332100130030D+03 0.153033160606233D+03 0.177235002647909D+03 0.205173785271504D+03
0.427313593594D-02 0.000000000000D+00 0.000000000000D+00 0.101315335766D-02 0.000000000000D+00  5 -2 2 25 23 21 0 0.37731925D-02 0.47587230D+00 0.74844792D+05 0.74844792D+05 0.74844792D+05 0.11753116D+01  1  2  2  2  5  2        2 0.234898478177D+00 0.100000000000D+01
-.237383282854D-03 0.000000000000D+00 -.164099671366D-04 0.101315335766D-02 0.000000000000D+00  5 -2 2 25 23 21 2 0.37731925D-02 0.47587230D+00 0.74844792D+05 0.74844792D+05 0.74844792D+05 0.11753116D+01  1  2  3  2  5  2        2 -.180255970915D-01 0.100000000000D+01
0.293823355744D-03 0.000000000000D+00 0.000000000000D+00 0.101315335766D-02 0.000000000000D+00  5 -2 2 25 23 21 2 0.37731925D-02 0.47587230D+00 0.74844792D+05 0.74844792D+05 0.74844792D+05 0.11753116D+01  1  2 15  2  5  2        2 0.223113496580D-01 0.100000000000D+01
  </mgrwgt>
  </event>
  <event>
  4     66 0.46888340E-03 0.16648936E+03 0.75467711E-02 0.11402341E+00
       -2 -1    0    0    0  501 0.00000000E+00 0.00000000E+00 0.18455144E+03 0.18455172E+03 0.32000000E+00 0.0000E+00 0.9000E+01
        2 -1    0    0  501    0 0.00000000E+00 0.00000000E+00 -.15019724E+03 0.15019758E+03 0.32000000E+00 0.0000E+00 0.9000E+01
       25  1    1    2    0    0 0.10930493E+03 0.62621827E+02 0.19027850E+02 0.17848283E+03 0.12500000E+03 0.0000E+00 0.9000E+01
       23  1    1    2    0    0 -.10930493E+03 -.62621827E+02 0.15326353E+02 0.15626647E+03 0.91188000E+02 0.0000E+00 0.9000E+01
#aMCatNLO 1  0  0  2  2 0.80750992D+02 0.00000000D+00  -5  5  0 0.00000000D+00 0.00000000D+00 0.00000000D+00 0.00000000D+00 0.00000000D+00
  <mgrwgt>
 0.1731994839D+00    3    2    0
 0.166490900508500D+03 0.000000000000000D+00 0.000000000000000D+00 0.166490900508500D+03
 0.166490900508500D+03 0.000000000000000D+00 0.000000000000000D+00 -.166490900508500D+03
 0.177467098957896D+03 0.109304928894243D+03 0.626218267458524D+02 0.714525694843938D+00
 0.155514702059104D+03 -.109304928894243D+03 -.626218267458524D+02 -.714525694843938D+00
 0.000000000000000D+00 0.000000000000000D+00 0.000000000000000D+00 0.000000000000000D+00
 0.386755629921504D+03 0.000000000000000D+00 0.000000000000000D+00 0.386755629921504D+03
 0.178883454313279D+03 0.000000000000000D+00 0.000000000000000D+00 -.178883454313279D+03
 0.166068004884758D+03 0.107171673645270D+03 0.216172169232627D+02 0.714525694843938D+00
 0.176565330429022D+03 -.111367051409412D+03 -.102259150587684D+03 -.714525694843938D+00
 0.223005748921003D+03 0.419537776414227D+01 0.806419336644214D+02 0.207872175608225D+03
0.653878176103D-03 0.000000000000D+00 0.000000000000D+00 0.125237821376D-02 0.000000000000D+00  5 -2 2 25 23 21 0 0.28392577D-01 0.23107315D-01 0.27718707D+05 0.27718707D+05 0.27718707D+05 0.12185200D+01  1  2  2  2  5  2        2 0.169832745475D+00 0.100000000000D+01
-.363265653353D-04 0.000000000000D+00 -.251106436631D-05 0.125237821376D-02 0.000000000000D+00  5 -2 2 25 23 21 2 0.28392577D-01 0.23107315D-01 0.27718707D+05 0.27718707D+05 0.27718707D+05 0.12185200D+01  1  2  3  2  5  2        2 -.140092291611D-01 0.100000000000D+01
0.450566704488D-04 0.000000000000D+00 0.000000000000D+00 0.125237821376D-02 0.000000000000D+00  5 -2 2 25 23 21 2 0.28392577D-01 0.23107315D-01 0.27718707D+05 0.27718707D+05 0.27718707D+05 0.12185200D+01  1  2 15  2  5  2        2 0.173759675799D-01 0.100000000000D+01
  </mgrwgt>
  </event>
  <event>
  4     66 0.46888340E-03 0.61432964E+02 0.75467711E-02 0.12112667E+00
       -2 -1    0    0    0  501 0.00000000E+00 0.00000000E+00 0.42078539E+02 0.42079755E+02 0.32000000E+00 0.0000E+00 0.9000E+01
        2 -1    0    0  501    0 0.00000000E+00 0.00000000E+00 -.44323984E+03 0.44323996E+03 0.32000000E+00 0.0000E+00 0.9000E+01
       25  1    1    2    0    0 0.71551460E+02 0.59000610E+01 -.29361676E+03 0.32709360E+03 0.12500000E+03 0.0000E+00 0.9000E+01
       23  1    1    2    0    0 -.71551460E+02 -.59000610E+01 -.10754454E+03 0.15822611E+03 0.91188000E+02 0.0000E+00 0.9000E+01
#aMCatNLO 1  0  0  2  1 0.21870397D+02 0.00000000D+00  -5  5  0 0.00000000D+00 0.00000000D+00 0.00000000D+00 0.00000000D+00 0.00000000D+00
  <mgrwgt>
 0.2225207301D+00    9    2    0
 0.136569426042587D+03 0.000000000000000D+00 0.000000000000000D+00 0.136569426042587D+03
 0.136569426042587D+03 0.000000000000000D+00 0.000000000000000D+00 -.136569426042587D+03
 0.149950438300998D+03 0.715514599899871D+02 0.590006104988640D+01 -.413002639164731D+02
 0.123188413784176D+03 -.715514599899871D+02 -.590006104988640D+01 0.413002639164731D+02
 0.000000000000000D+00 0.000000000000000D+00 0.000000000000000D+00 -.000000000000000D+00
 0.141025051823968D+03 0.000000000000000D+00 0.000000000000000D+00 0.141025051823968D+03
 0.166763305003954D+03 0.000000000000000D+00 0.000000000000000D+00 -.166763305003954D+03
 0.145043450429632D+03 0.608777435260139D+02 0.889413370529880D+00 -.413002639164731D+02
 0.128969590834929D+03 -.806752525438161D+02 -.101831156111611D+02 0.413002639164731D+02
 0.337753155633603D+02 0.197975090178022D+02 0.929370224063123D+01 -.257382531799867D+02
0.165614905432D-03 0.000000000000D+00 0.000000000000D+00 0.135212368783D-02 0.000000000000D+00  5 -2 2 25 23 21 0 0.64737238D-02 0.68190848D-01 0.16927261D+05 0.16927261D+05 0.16927261D+05 0.12418820D+01  1  2  2  2  5  2        2 0.147503819543D+00 0.100000000000D+01
-.917452162670D-05 0.000000000000D+00 -.636004844263D-06 0.135212368783D-02 0.000000000000D+00  5 -2 2 25 23 21 2 0.64737238D-02 0.68190848D-01 0.16927261D+05 0.16927261D+05 0.16927261D+05 0.12418820D+01  1  2  3  2  5  2        2 -.126022465446D-01 0.100000000000D+01
0.114113145990D-04 0.000000000000D+00 0.000000000000D+00 0.135212368783D-02 0.000000000000D+00  5 -2 2 25 23 21 2 0.64737238D-02 0.68190848D-01 0.16927261D+05 0.16927261D+05 0.16927261D+05 0.12418820D+01  1  2 15  2  5  2        2 0.156747355149D-01 0.100000000000D+01
0.484635261020D-03 0.000000000000D+00 0.000000000000D+00 0.135212368783D-02 0.000000000000D+00  5 -2 2 25 23 21 2 0.64737238D-02 0.84208879D-01 0.20034631D+05 0.20034631D+05 0.20034631D+05 0.12337433D+01  1  2 12  2  5  2        2 0.524105462190D+00 0.100000000000D+01
-.492124160963D-03 0.000000000000D+00 0.000000000000D+00 0.135212368783D-02 0.000000000000D+00  5 -2 2 25 23 21 2 0.64737238D-02 0.68190848D-01 0.16927261D+05 0.16927261D+05 0.16927261D+05 0.12418820D+01  1  2  4  2  5  2        2 -.675988379490D+00 0.100000000000D+01
-.743468494237D-03 0.000000000000D+00 -.127360903791D-03 0.135212368783D-02 0.000000000000D+00  5 -2 2 25 23 21 2 0.64737238D-02 0.85006421D-01 0.16927261D+05 0.16927261D+05 0.16927261D+05 0.12418820D+01  1  2  5  2  5  2        2 -.802192909758D+00 0.100000000000D+01
0.756131132003D-03 0.000000000000D+00 0.124328505269D-03 0.135212368783D-02 0.000000000000D+00  5 -2 2 25 23 21 2 0.64737238D-02 0.68190848D-01 0.16927261D+05 0.16927261D+05 0.16927261D+05 0.12418820D+01  1  2  6  2  5  2        2 0.103863191274D+01 0.100000000000D+01
0.144466000793D-04 0.000000000000D+00 0.000000000000D+00 0.135212368783D-02 0.000000000000D+00  5 -2 21 25 23 -2 2 0.64737238D-02 0.84208879D-01 0.20034631D+05 0.20034631D+05 0.20034631D+05 0.12337433D+01  1  2 12  4  5  2        2 0.277329001235D-01 0.100000000000D+01
-.211761244175D-04 0.000000000000D+00 -.392413269113D-05 0.135212368783D-02 0.000000000000D+00  5 -2 21 25 23 -2 2 0.64737238D-02 0.85006421D-01 0.16927261D+05 0.16927261D+05 0.16927261D+05 0.12418820D+01  1  2  5  4  5  2        2 -.403445642268D-01 0.100000000000D+01
  </mgrwgt>
  </event>
  <event>
  4     66 0.46888340E-03 0.13349591E+03 0.75467711E-02 0.11777542E+00
       -2 -1    0    0    0  501 0.00000000E+00 0.00000000E+00 0.26635479E+02 0.26637401E+02 0.32000000E+00 0.0000E+00 0.9000E+01
        2 -1    0    0  501    0 0.00000000E+00 0.00000000E+00 -.67778339E+03 0.67778347E+03 0.32000000E+00 0.0000E+00 0.9000E+01
       25  1    1    2    0    0 0.75028573E+02 0.20227160E+02 -.31875645E+03 0.35109699E+03 0.12500000E+03 0.0000E+00 0.9000E+01
       23  1    1    2    0    0 -.75028573E+02 -.20227160E+02 -.33239146E+03 0.35332388E+03 0.91188000E+02 0.0000E+00 0.9000E+01
#aMCatNLO 1  0  0  2  1 0.65314235D+02 0.00000000D+00  -5  5  0 0.00000000D+00 0.00000000D+00 0.00000000D+00 0.00000000D+00 0.00000000D+00
  <mgrwgt>
 0.1617684326D+00    4    2    0
 0.134364389107066D+03 0.000000000000000D+00 0.000000000000000D+00 0.134364389107066D+03
 0.134364389107066D+03 0.000000000000000D+00 0.000000000000000D+00 -.134364389107066D+03
 0.147964995459273D+03 0.750285728332505D+02 0.202271599201023D+02 0.151728422332486D+02
 0.120763782754859D+03 -.750285728332505D+02 -.202271599201023D+02 -.151728422332486D+02
 0.000000000000000D+00 0.000000000000000D+00 -.000000000000000D+00 0.000000000000000D+00
 0.224717330621201D+03 0.000000000000000D+00 0.000000000000000D+00 0.224717330621201D+03
 0.150613801528403D+03 0.000000000000000D+00 0.000000000000000D+00 -.150613801528403D+03
 0.151951189714209D+03 0.650885176417035D+02 0.547488245109790D+02 0.151728422332486D+02
 0.124600985412061D+03 -.831606425854365D+02 0.801539799379315D+01 -.151728422332486D+02
 0.987789570233340D+02 0.180721249437330D+02 -.627642225047722D+02 0.741035290927984D+02
0.170751547359D-03 0.000000000000D+00 0.000000000000D+00 0.146569118668D-02 0.000000000000D+00  5 -2 2 25 23 21 0 0.40979197D-02 0.10427452D+00 0.17821159D+05 0.17821159D+05 0.17821159D+05 0.12393794D+01  1  2  2  2  5  2        2 0.188373284402D+00 0.100000000000D+01
-.948571208445D-05 0.000000000000D+00 -.655730901775D-06 0.146569118668D-02 0.000000000000D+00  5 -2 2 25 23 21 2 0.40979197D-02 0.10427452D+00 0.17821159D+05 0.17821159D+05 0.17821159D+05 0.12393794D+01  1  2  3  2  5  2        2 -.160743393258D-01 0.100000000000D+01
0.117709486416D-04 0.000000000000D+00 0.000000000000D+00 0.146569118668D-02 0.000000000000D+00  5 -2 2 25 23 21 2 0.40979197D-02 0.10427452D+00 0.17821159D+05 0.17821159D+05 0.17821159D+05 0.12393794D+01  1  2 15  2  5  2        2 0.199468654506D-01 0.100000000000D+01
-.179851642099D-04 0.000000000000D+00 0.000000000000D+00 0.146569118668D-02 0.000000000000D+00  5 -2 2 25 23 21 2 0.40979197D-02 0.10427452D+00 0.17821159D+05 0.17821159D+05 0.17821159D+05 0.12393794D+01  1  2  4  2  5  2        2 -.304773779518D-01 0.100000000000D+01
  </mgrwgt>
  </event>
  <event>
  4     66 0.46888340E-03 0.15567333E+03 0.75467711E-02 0.10230920E+00
       -2 -1    0    0    0  501 0.00000000E+00 0.00000000E+00 0.62539229E+02 0.62540048E+02 0.32000000E+00 0.0000E+00 0.9000E+01
        2 -1    0    0  501    0 0.00000000E+00 0.00000000E+00 -.38802247E+03 0.38802260E+03 0.32000000E+00 0.0000E+00 0.9000E+01
       25  1    1    2    0    0 0.10742746E+03 -.29346267E+02 -.16675644E+03 0.23629340E+03 0.12500000E+03 0.0000E+00 0.9000E+01
       23  1    1    2    0    0 -.10742746E+03 0.29346267E+02 -.15872681E+03 0.21426925E+03 0.91188000E+02 0.0000E+00 0.9000E+01
#aMCatNLO 1  0  0  2  1 0.41385332D+03 0.00000000D+00  -5  5  0 0.00000000D+00 0.00000000D+00 0.00000000D+00 0.00000000D+00 0.00000000D+00
  <mgrwgt>
 0.2333736886D+00    3    2    0
 0.155778176854658D+03 0.000000000000000D+00 0.000000000000000D+00 0.155778176854658D+03
 0.155778176854658D+03 0.000000000000000D+00 0.000000000000000D+00 -.155778176854658D+03
 0.167509198496444D+03 0.107427456251099D+03 -.293462672498986D+02 0.569822979853290D+01
 0.144047155212872D+03 -.107427456251099D+03 0.293462672498986D+02 -.569822979853290D+01
 0.000000000000000D+00 0.000000000000000D+00 0.000000000000000D+00 0.000000000000000D+00
 0.895523211538534D+03 0.000000000000000D+00 0.000000000000000D+00 0.895523211538534D+03
 0.326279140915616D+03 0.000000000000000D+00 0.000000000000000D+00 -.326279140915616D+03
 0.220014519289959D+03 -.131137035669230D+02 -.180490857536646D+03 0.569822979853290D+01
 0.298002791577549D+03 -.244929267980162D+03 -.143065007279479D+03 -.569822979853290D+01
 0.703785041586642D+03 0.258042971547085D+03 0.323555864816125D+03 0.569244070622918D+03
0.406289757447D-03 0.000000000000D+00 0.000000000000D+00 0.130792959831D-02 0.000000000000D+00  5 -2 2 25 23 21 0 0.96214930D-02 0.59695838D-01 0.24234185D+05 0.24234185D+05 0.24234185D+05 0.12247489D+01  1  2  2  2  5  2        2 0.228814046297D+00 0.100000000000D+01
-.225716407507D-04 0.000000000000D+00 -.156025964715D-05 0.130792959831D-02 0.000000000000D+00  5 -2 2 25 23 21 2 0.96214930D-02 0.59695838D-01 0.24234185D+05 0.24234185D+05 0.24234185D+05 0.12247489D+01  1  2  3  2  5  2        2 -.190679524105D-01 0.100000000000D+01
0.279691058520D-04 0.000000000000D+00 0.000000000000D+00 0.130792959831D-02 0.000000000000D+00  5 -2 2 25 23 21 2 0.96214930D-02 0.59695838D-01 0.24234185D+05 0.24234185D+05 0.24234185D+05 0.12247489D+01  1  2 15  2  5  2        2 0.236275946990D-01 0.100000000000D+01
  </mgrwgt>
  </event>
  <event>
  4     66 0.46888340E-03 0.11073571E+03 0.75467711E-02 0.11787145E+00
       -2 -1    0    0    0  501 0.00000000E+00 0.00000000E+00 0.60932200E+01 0.61016170E+01 0.32000000E+00 0.0000E+00 0.9000E+01
        2 -1    0    0  501    0 0.00000000E+00 0.00000000E+00 -.23342114E+04 0.23342115E+04 0.32000000E+00 0.0000E+00 0.9000E+01
       25  1    1    2    0    0 0.17076936E+02 0.16522399E+02 -.17447149E+04 0.17493483E+04 0.12500000E+03 0.0000E+00 0.9000E+01
       23  1    1    2    0    0 -.17076936E+02 -.16522399E+02 -.58340337E+03 0.59096476E+03 0.91188000E+02 0.0000E+00 0.9000E+01
#aMCatNLO 1  0  0  1  1 0.96698435D+02 0.00000000D+00  -5  5  0 0.00000000D+00 0.00000000D+00 0.00000000D+00 0.00000000D+00 0.00000000D+00
  <mgrwgt>
 0.2890637994D+00    3    2    0
 0.119300944438211D+03 0.000000000000000D+00 0.000000000000000D+00 0.119300944438211D+03
 0.119300944438211D+03 0.000000000000000D+00 0.000000000000000D+00 -.119300944438211D+03
 0.134618821196065D+03 0.170769361054271D+02 0.165223993430020D+02 -.439615240115664D+02
 0.103983067680358D+03 -.170769361054271D+02 -.165223993430020D+02 0.439615240115664D+02
 0.000000000000000D+00 -.000000000000000D+00 0.000000000000000D+00 -.000000000000000D+00
 0.141544345855703D+03 0.000000000000000D+00 0.000000000000000D+00 0.141544345855703D+03
 0.311092040538119D+03 0.000000000000000D+00 0.000000000000000D+00 -.311092040538119D+03
 0.145867043761415D+03 0.575205548458046D+02 -.202722626390338D+02 -.439615240115664D+02
 0.111584793846876D+03 0.140060719656128D+02 -.448009958429978D+02 0.439615240115664D+02
 0.195184548785530D+03 -.715266268114174D+02 0.650732584820316D+02 -.169547694682416D+03
0.250395912680D-03 0.000000000000D+00 0.000000000000D+00 0.151419244463D-02 0.000000000000D+00  5 -2 2 25 23 21 0 0.93806607D-03 0.35911010D+00 0.12262398D+05 0.12262398D+05 0.12262398D+05 0.12579246D+01  1  2  2  1  5  1       -2 0.283145473646D+00 0.100000000000D+01
-.138170021351D-04 0.000000000000D+00 -.961586235451D-06 0.151419244463D-02 0.000000000000D+00  5 -2 2 25 23 21 2 0.93806607D-03 0.35911010D+00 0.12262398D+05 0.12262398D+05 0.12262398D+05 0.12579246D+01  1  2  3  1  5  1       -2 -.247232431182D-01 0.100000000000D+01
0.171245585015D-04 0.000000000000D+00 0.000000000000D+00 0.151419244463D-02 0.000000000000D+00  5 -2 2 25 23 21 2 0.93806607D-03 0.35911010D+00 0.12262398D+05 0.12262398D+05 0.12262398D+05 0.12579246D+01  1  2 15  1  5  1       -2 0.306415689153D-01 0.100000000000D+01
  </mgrwgt>
  </event>
  <event>
  4     66 0.46888340E-03 0.10670609E+03 0.75467711E-02 0.11535582E+00
       -2 -1    0    0    0  501 0.00000000E+00 0.00000000E+00 0.48451790E+03 0.48451801E+03 0.32000000E+00 0.0000E+00 0.9000E+01
        2 -1    0    0  501    0 0.00000000E+00 0.00000000E+00 -.70659919E+02 0.70660644E+02 0.32000000E+00 0.0000E+00 0.9000E+01
       25  1    1    2    0    0 0.14471356E+03 -.33779952E+01 0.27431250E+03 0.33440361E+03 0.12500000E+03 0.0000E+00 0.9000E+01
       23  1    1    2    0    0 -.14471356E+03 0.33779952E+01 0.13954548E+03 0.22077504E+03 0.91188000E+02 0.0000E+00 0.9000E+01
#aMCatNLO 1  0  0  1  2 0.27756190D+02 0.00000000D+00  -5  5  0 0.00000000D+00 0.00000000D+00 0.00000000D+00 0.00000000D+00 0.00000000D+00
  <mgrwgt>
 0.1973682936D+00    9    2    0
 0.185030338755928D+03 0.000000000000000D+00 0.000000000000000D+00 0.185030338755928D+03
 0.185030338755928D+03 0.000000000000000D+00 0.000000000000000D+00 -.185030338755928D+03
 0.194906757813943D+03 0.144713561880327D+03 -.337799522537719D+01 0.375528746930140D+02
 0.175153919697914D+03 -.144713561880327D+03 0.337799522537719D+01 -.375528746930140D+02
 0.000000000000000D+00 -.000000000000000D+00 -.000000000000000D+00 0.000000000000000D+00
 0.223331290837420D+03 0.000000000000000D+00 0.000000000000000D+00 0.223331290837420D+03
 0.190647878650295D+03 0.000000000000000D+00 0.000000000000000D+00 -.190647878650295D+03
 0.205898113553519D+03 0.159244045608154D+03 0.385623568566292D+00 0.375528746930140D+02
 0.165202022666254D+03 -.132374548970333D+03 0.657398936821712D+01 -.375528746930140D+02
 0.428790332679420D+02 -.268694966378217D+02 -.695961293678341D+01 0.326834121871252D+02
0.146637793046D-02 0.000000000000D+00 0.000000000000D+00 0.113724332185D-02 0.000000000000D+00  5 -2 2 25 23 21 0 0.74541279D-01 0.10870821D-01 0.32821804D+05 0.32821804D+05 0.32821804D+05 0.12108221D+01  1  2  2  1  5  1       -2 0.139164603630D+00 0.100000000000D+01
-.814213607290D-04 0.000000000000D+00 -.563127735913D-05 0.113724332185D-02 0.000000000000D+00  5 -2 2 25 23 21 2 0.74541279D-01 0.10870821D-01 0.32821804D+05 0.32821804D+05 0.32821804D+05 0.12108221D+01  1  2  3  1  5  1       -2 -.113287479562D-01 0.100000000000D+01
0.100672418477D-03 0.000000000000D+00 0.000000000000D+00 0.113724332185D-02 0.000000000000D+00  5 -2 2 25 23 21 2 0.74541279D-01 0.10870821D-01 0.32821804D+05 0.32821804D+05 0.32821804D+05 0.12108221D+01  1  2 15  1  5  1       -2 0.140072880734D-01 0.100000000000D+01
0.335064485285D-02 0.000000000000D+00 0.000000000000D+00 0.113724332185D-02 0.000000000000D+00  5 -2 2 25 23 21 2 0.90941924D-01 0.10870821D-01 0.38235508D+05 0.38235508D+05 0.38235508D+05 0.12039950D+01  1  2 12  1  5  1       -2 0.297425424175D+00 0.100000000000D+01
-.339851613838D-02 0.000000000000D+00 0.000000000000D+00 0.113724332185D-02 0.000000000000D+00  5 -2 2 25 23 21 2 0.74541279D-01 0.10870821D-01 0.32821804D+05 0.32821804D+05 0.32821804D+05 0.12108221D+01  1  2  4  1  5  1       -2 -.472860345393D+00 0.100000000000D+01
-.526600918422D-02 0.000000000000D+00 -.869712163976D-03 0.113724332185D-02 0.000000000000D+00  5 -2 2 25 23 21 2 0.91671146D-01 0.10870821D-01 0.32821804D+05 0.32821804D+05 0.32821804D+05 0.12108221D+01  1  2  5  1  5  1       -2 -.463437871422D+00 0.100000000000D+01
0.534933942000D-02 0.000000000000D+00 0.851431244116D-03 0.113724332185D-02 0.000000000000D+00  5 -2 2 25 23 21 2 0.74541279D-01 0.10870821D-01 0.32821804D+05 0.32821804D+05 0.32821804D+05 0.12108221D+01  1  2  6  1  5  1       -2 0.744292621478D+00 0.100000000000D+01
0.954680754754D-04 0.000000000000D+00 0.000000000000D+00 0.113724332185D-02 0.000000000000D+00  5 21 2 25 23 2 2 0.90941924D-01 0.10870821D-01 0.38235508D+05 0.38235508D+05 0.38235508D+05 0.12039950D+01  1  2 12  3  5  1       -2 0.991894550480D-01 0.100000000000D+01
-.144017607144D-03 0.000000000000D+00 -.255379635877D-04 0.113724332185D-02 0.000000000000D+00  5 21 2 25 23 2 2 0.91671146D-01 0.10870821D-01 0.32821804D+05 0.32821804D+05 0.32821804D+05 0.12108221D+01  1  2  5  3  5  1       -2 -.149084134071D+00 0.100000000000D+01
  </mgrwgt>
  </event>
  <event>
  4     66 0.46888340E-03 0.66326206E+02 0.75467711E-02 0.12128668E+00
       -2 -1    0    0    0  501 0.00000000E+00 0.00000000E+00 0.33573274E+03 0.33573289E+03 0.32000000E+00 0.0000E+00 0.9000E+01
        2 -1    0    0  501    0 0.00000000E+00 0.00000000E+00 -.47181936E+02 0.47183021E+02 0.32000000E+00 0.0000E+00 0.9000E+01
       25  1    1    2    0    0 0.43126625E+02 0.20753964E+02 0.96545349E+02 0.16503526E+03 0.12500000E+03 0.0000E+00 0.9000E+01
       23  1    1    2    0    0 -.43126625E+02 -.20753964E+02 0.19200545E+03 0.21788065E+03 0.91188000E+02 0.0000E+00 0.9000E+01
#aMCatNLO 1  0  0  2  1 0.40288674D+02 0.00000000D+00  -5  5  0 0.00000000D+00 0.00000000D+00 0.00000000D+00 0.00000000D+00 0.00000000D+00
  <mgrwgt>
 0.1265486856D+00    9    2    0
 0.125860071142755D+03 0.000000000000000D+00 0.000000000000000D+00 0.125860071142755D+03
 0.125860071142755D+03 0.000000000000000D+00 0.000000000000000D+00 -.125860071142755D+03
 0.140379665382673D+03 0.431266250248506D+02 0.207539636450376D+02 -.423180535934430D+02
 0.111340476902837D+03 -.431266250248506D+02 -.207539636450376D+02 0.423180535934430D+02
 0.000000000000000D+00 0.000000000000000D+00 0.000000000000000D+00 -.000000000000000D+00
 0.145128205068588D+03 0.000000000000000D+00 0.000000000000000D+00 0.145128205068588D+03
 0.150432003360601D+03 0.000000000000000D+00 0.000000000000000D+00 -.150432003360601D+03
 0.135362722574369D+03 0.299469153416292D+02 0.322974679030487D+01 -.423180535934430D+02
 0.119561202001769D+03 -.541630750820149D+02 -.354284252801366D+02 0.423180535934430D+02
 0.406362838530517D+02 0.242161597403858D+02 0.321986784898317D+02 -.530379829201308D+01
0.254701813540D-03 0.000000000000D+00 0.000000000000D+00 0.144638955142D-02 0.000000000000D+00  5 -2 2 25 23 21 0 0.51651286D-01 0.72588546D-02 0.14022605D+05 0.14022605D+05 0.14022605D+05 0.12511724D+01  1  2  2  2  5  2        2 0.836733662597D-01 0.100000000000D+01
-.140861715982D-04 0.000000000000D+00 -.978122028523D-06 0.144638955142D-02 0.000000000000D+00  5 -2 2 25 23 21 2 0.51651286D-01 0.72588546D-02 0.14022605D+05 0.14022605D+05 0.14022605D+05 0.12511724D+01  1  2  3  2  5  2        2 -.724406702704D-02 0.100000000000D+01
0.175635460055D-04 0.000000000000D+00 0.000000000000D+00 0.144638955142D-02 0.000000000000D+00  5 -2 2 25 23 21 2 0.51651286D-01 0.72588546D-02 0.14022605D+05 0.14022605D+05 0.14022605D+05 0.12511724D+01  1  2 15  2  5  2        2 0.903236934247D-02 0.100000000000D+01
0.177596898907D-03 0.000000000000D+00 0.000000000000D+00 0.144638955142D-02 0.000000000000D+00  5 -2 2 25 23 21 2 0.51651286D-01 0.91378411D-02 0.19696444D+05 0.19696444D+05 0.19696444D+05 0.12345580D+01  1  2 12  2  5  2        2 0.673871166002D-01 0.100000000000D+01
-.174676335937D-03 0.000000000000D+00 0.000000000000D+00 0.144638955142D-02 0.000000000000D+00  5 -2 2 25 23 21 2 0.51651286D-01 0.72588546D-02 0.14022605D+05 0.14022605D+05 0.14022605D+05 0.12511724D+01  1  2  4  2  5  2        2 -.898304466012D-01 0.100000000000D+01
-.394282541064D-03 0.000000000000D+00 -.155168176546D-03 0.144638955142D-02 0.000000000000D+00  5 -2 2 25 23 21 2 0.51651286D-01 0.99848286D-02 0.14022605D+05 0.14022605D+05 0.14022605D+05 0.12511724D+01  1  2  5  2  5  2        2 -.136450102137D+00 0.100000000000D+01
0.429315576367D-03 0.000000000000D+00 0.147601660641D-03 0.144638955142D-02 0.000000000000D+00  5 -2 2 25 23 21 2 0.51651286D-01 0.72588546D-02 0.14022605D+05 0.14022605D+05 0.14022605D+05 0.12511724D+01  1  2  6  2  5  2        2 0.220783254646D+00 0.100000000000D+01
0.565328452050D-05 0.000000000000D+00 0.000000000000D+00 0.144638955142D-02 0.000000000000D+00  5 -2 21 25 23 -2 2 0.51651286D-01 0.91378411D-02 0.19696444D+05 0.19696444D+05 0.19696444D+05 0.12345580D+01  1  2 12  4  5  2        2 0.237670993889D-01 0.100000000000D+01
-.121058955816D-04 0.000000000000D+00 -.626754737560D-05 0.144638955142D-02 0.000000000000D+00  5 -2 21 25 23 -2 2 0.51651286D-01 0.99848286D-02 0.14022605D+05 0.14022605D+05 0.14022605D+05 0.12511724D+01  1  2  5  4  5  2        2 -.445699048272D-01 0.100000000000D+01
  </mgrwgt>
  </event>
  <event>
  4     66 0.46888340E-03 0.10876920E+03 0.75467711E-02 0.11313682E+00
       -2 -1    0    0    0  501 0.00000000E+00 0.00000000E+00 0.61486749E+02 0.61487582E+02 0.32000000E+00 0.0000E+00 0.9000E+01
        2 -1    0    0  501    0 0.00000000E+00 0.00000000E+00 -.55383389E+03 0.55383399E+03 0.32000000E+00 0.0000E+00 0.9000E+01
       25  1    1    2    0    0 -.13183343E+03 -.18689262E+02 -.37062981E+03 0.41318373E+03 0.12500000E+03 0.0000E+00 0.9000E+01
       23  1    1    2    0    0 0.13183343E+03 0.18689262E+02 -.12171734E+03 0.20213783E+03 0.91188000E+02 0.0000E+00 0.9000E+01
#aMCatNLO 1  0  0  2  1 0.91166552D+02 0.00000000D+00  -5  5  0 0.00000000D+00 0.00000000D+00 0.00000000D+00 0.00000000D+00 0.00000000D+00
  <mgrwgt>
 0.1509381542D+00    9    2    0
 0.184536528185870D+03 0.000000000000000D+00 0.000000000000000D+00 0.184536528185870D+03
 0.184536528185870D+03 0.000000000000000D+00 0.000000000000000D+00 -.184536528185870D+03
 0.194439376050004D+03 -.131833433547678D+03 -.186892622165962D+02 -.667257689018575D+02
 0.174633680321737D+03 0.131833433547678D+03 0.186892622165962D+02 0.667257689018575D+02
 0.000000000000000D+00 0.000000000000000D+00 -.000000000000000D+00 -.000000000000000D+00
 0.216747087109235D+03 0.000000000000000D+00 0.000000000000000D+00 0.216747087109235D+03
 0.268009542802626D+03 0.000000000000000D+00 0.000000000000000D+00 -.268009542802626D+03
 0.210245142952234D+03 -.153186648944240D+03 0.256815592341184D+02 -.667257689018575D+02
 0.169920953885246D+03 0.113652976983031D+03 0.564672631940188D+02 0.667257689018575D+02
 0.104590533074380D+03 0.395336719612090D+02 -.821488224281372D+02 -.512624556933914D+02
0.346730065544D-03 0.000000000000D+00 0.000000000000D+00 0.104598285783D-02 0.000000000000D+00  5 -2 2 25 23 21 0 0.94595710D-02 0.85205285D-01 0.29586595D+05 0.29586595D+05 0.29586595D+05 0.12155314D+01  1  2  2  2  5  2        2 0.136451322303D+00 0.100000000000D+01
-.191470041160D-04 0.000000000000D+00 -.133153474781D-05 0.104598285783D-02 0.000000000000D+00  5 -2 2 25 23 21 2 0.94595710D-02 0.85205285D-01 0.29586595D+05 0.29586595D+05 0.29586595D+05 0.12155314D+01  1  2  3  2  5  2        2 -.111331851471D-01 0.100000000000D+01
0.237585904233D-04 0.000000000000D+00 0.000000000000D+00 0.104598285783D-02 0.000000000000D+00  5 -2 2 25 23 21 2 0.94595710D-02 0.85205285D-01 0.29586595D+05 0.29586595D+05 0.29586595D+05 0.12155314D+01  1  2 15  2  5  2        2 0.138146304464D-01 0.100000000000D+01
0.140708973595D-03 0.000000000000D+00 0.000000000000D+00 0.104598285783D-02 0.000000000000D+00  5 -2 2 25 23 21 2 0.94595710D-02 0.12849472D+00 0.49910659D+05 0.49910659D+05 0.49910659D+05 0.11923587D+01  1  2 12  2  5  2        2 0.484523867336D-01 0.100000000000D+01
-.246470766206D-03 0.000000000000D+00 0.000000000000D+00 0.104598285783D-02 0.000000000000D+00  5 -2 2 25 23 21 2 0.94595710D-02 0.85205285D-01 0.29586595D+05 0.29586595D+05 0.29586595D+05 0.12155314D+01  1  2  4  2  5  2        2 -.143312481520D+00 0.100000000000D+01
-.318403265764D-03 0.000000000000D+00 -.147141792544D-03 0.104598285783D-02 0.000000000000D+00  5 -2 2 25 23 21 2 0.94595710D-02 0.13852784D+00 0.29586595D+05 0.29586595D+05 0.29586595D+05 0.12155314D+01  1  2  5  2  5  2        2 -.102856788903D+00 0.100000000000D+01
0.362117492317D-03 0.000000000000D+00 0.131324439128D-03 0.104598285783D-02 0.000000000000D+00  5 -2 2 25 23 21 2 0.94595710D-02 0.85205285D-01 0.29586595D+05 0.29586595D+05 0.29586595D+05 0.12155314D+01  1  2  6  2  5  2        2 0.210556234415D+00 0.100000000000D+01
0.683065359333D-05 0.000000000000D+00 0.000000000000D+00 0.104598285783D-02 0.000000000000D+00  5 -2 21 25 23 -2 2 0.94595710D-02 0.12849472D+00 0.49910659D+05 0.49910659D+05 0.49910659D+05 0.11923587D+01  1  2 12  4  5  2        2 0.243329577454D-02 0.100000000000D+01
-.111311865974D-04 0.000000000000D+00 -.811292705205D-05 0.104598285783D-02 0.000000000000D+00  5 -2 21 25 23 -2 2 0.94595710D-02 0.13852784D+00 0.29586595D+05 0.29586595D+05 0.29586595D+05 0.12155314D+01  1  2  5  4  5  2        2 -.346725991725D-02 0.100000000000D+01
  </mgrwgt>
  </event>
  <event>
  4     66 0.46888340E-03 0.13186720E+03 0.75467711E-02 0.11204873E+00
       -2 -1    0    0    0  501 0.00000000E+00 0.00000000E+00 0.41863447E+02 0.41864670E+02 0.32000000E+00 0.0000E+00 0.9000E+01
        2 -1    0    0  501    0 0.00000000E+00 0.00000000E+00 -.52567978E+03 0.52567988E+03 0.32000000E+00 0.0000E+00 0.9000E+01
       25  1    1    2    0    0 0.44751500E+02 -.60068166E+02 -.39142151E+03 0.41766814E+03 0.12500000E+03 0.0000E+00 0.9000E+01
       23  1    1    2    0    0 -.44751500E+02 0.60068166E+02 -.92394828E+02 0.14987641E+03 0.91188000E+02 0.0000E+00 0.9000E+01
#aMCatNLO 1  0  0  1  1 0.16602904D+03 0.00000000D+00  -5  5  0 0.00000000D+00 0.00000000D+00 0.00000000D+00 0.00000000D+00 0.00000000D+00
  <mgrwgt>
 0.1600144093D+00    5    2    0
 0.148348044081254D+03 0.000000000000000D+00 0.000000000000000D+00 0.148348044081254D+03
 0.148348044081254D+03 0.000000000000000D+00 0.000000000000000D+00 -.148348044081254D+03
 0.160666623509231D+03 0.447515004344168D+02 -.600681664123735D+02 -.676600510092978D+02
 0.136029464653276D+03 -.447515004344168D+02 0.600681664123735D+02 0.676600510092978D+02
 0.000000000000000D+00 -.000000000000000D+00 -.000000000000000D+00 0.000000000000000D+00
 0.288421174546171D+03 0.000000000000000D+00 0.000000000000000D+00 0.288421174546171D+03
 0.228187723212741D+03 0.000000000000000D+00 0.000000000000000D+00 -.228187723212741D+03
 0.167117712030496D+03 0.867063630549510D+02 0.144032557954777D+02 -.676600510092978D+02
 0.172873773635912D+03 -.521332999646329D+01 0.130249871227912D+03 0.676600510092978D+02
 0.176617412092504D+03 -.814930330584877D+02 -.144653127023390D+03 0.602334513334297D+02
0.187854725702D-03 0.000000000000D+00 0.000000000000D+00 0.112644279347D-02 0.000000000000D+00  5 -2 2 25 23 21 0 0.64406318D-02 0.80873914D-01 0.17388958D+05 0.17388958D+05 0.17388958D+05 0.12405714D+01  1  2  2  1  5  1       -2 0.140108566006D+00 0.100000000000D+01
-.102603911226D-04 0.000000000000D+00 -.721411609981D-06 0.112644279347D-02 0.000000000000D+00  5 -2 2 25 23 21 2 0.64406318D-02 0.80873914D-01 0.17388958D+05 0.17388958D+05 0.17388958D+05 0.12405714D+01  1  2  3  1  5  1       -2 -.117774158872D-01 0.100000000000D+01
0.129735018864D-04 0.000000000000D+00 0.000000000000D+00 0.112644279347D-02 0.000000000000D+00  5 -2 2 25 23 21 2 0.64406318D-02 0.80873914D-01 0.17388958D+05 0.17388958D+05 0.17388958D+05 0.12405714D+01  1  2 15  1  5  1       -2 0.148916669359D-01 0.100000000000D+01
0.159253494339D-04 0.000000000000D+00 -.545777388900D-04 0.112644279347D-02 0.000000000000D+00  5 -2 2 25 23 21 2 0.19170734D-01 0.80873914D-01 0.17388958D+05 0.17388958D+05 0.17388958D+05 0.12405714D+01  1  2  5  1  5  1       -2 0.322659880169D-02 0.100000000000D+01
0.474257723318D-05 0.000000000000D+00 -.676334954453D-05 0.112644279347D-02 0.000000000000D+00  5 21 2 25 23 2 2 0.19170734D-01 0.80873914D-01 0.17388958D+05 0.17388958D+05 0.17388958D+05 0.12405714D+01  1  2  5  3  5  1       -2 0.135649934004D-01 0.100000000000D+01
  </mgrwgt>
  </event>
  <event>
  4     66 0.46888340E-03 0.77259828E+02 0.75467711E-02 0.11699785E+00
       -2 -1    0    0    0  501 0.00000000E+00 0.00000000E+00 0.17320599E+02 0.17323555E+02 0.32000000E+00 0.0000E+00 0.9000E+01
        2 -1    0    0  501    0 0.00000000E+00 0.00000000E+00 -.13606605E+04 0.13606605E+04 0.32000000E+00 0.0000E+00 0.9000E+01
       25  1    1    2    0    0 -.17947793E+02 0.42044710E+02 -.11646364E+04 0.11722171E+04 0.12500000E+03 0.0000E+00 0.9000E+01
       23  1    1    2    0    0 0.17947793E+02 -.42044710E+02 -.17870350E+03 0.20576704E+03 0.91188000E+02 0.0000E+00 0.9000E+01
#aMCatNLO 1  0  0  2  1 0.99482314D+02 0.00000000D+00  -5  5  0 0.00000000D+00 0.00000000D+00 0.00000000D+00 0.00000000D+00 0.00000000D+00
  <mgrwgt>
 0.2654208724D+00    8    2    0
 0.153523669976693D+03 0.000000000000000D+00 0.000000000000000D+00 0.153523669976693D+03
 0.153523669976693D+03 0.000000000000000D+00 0.000000000000000D+00 -.153523669976693D+03
 0.165426962571753D+03 -.179477933432269D+02 0.420447098733846D+02 -.982405162419649D+02
 0.141620377381633D+03 0.179477933432269D+02 -.420447098733846D+02 0.982405162419649D+02
 0.000000000000000D+00 -.000000000000000D+00 0.000000000000000D+00 -.000000000000000D+00
 0.183895342760255D+03 0.000000000000000D+00 0.000000000000000D+00 0.183895342760255D+03
 0.271272306439975D+03 0.000000000000000D+00 0.000000000000000D+00 -.271272306439975D+03
 0.162702051504069D+03 0.286534671273640D+02 0.193581340455634D+02 -.982405162419649D+02
 0.160059160310189D+03 0.607926687170805D+02 -.629025902008038D+02 0.982405162419649D+02
 0.132406437385973D+03 -.894461358444445D+02 0.435444561552404D+02 -.873769636797199D+02
0.178579696527D-03 0.000000000000D+00 0.000000000000D+00 0.873152435145D-03 0.000000000000D+00  5 -2 2 25 23 21 0 0.26649378D-02 0.20933262D+00 0.13818333D+05 0.13818333D+05 0.13818333D+05 0.12519056D+01  1  2  2  2  5  2        2 0.142171927579D+00 0.100000000000D+01
-.906129837181D-05 0.000000000000D+00 -.685793055776D-06 0.873152435145D-03 0.000000000000D+00  5 -2 2 25 23 21 2 0.26649378D-02 0.20933262D+00 0.13818333D+05 0.13818333D+05 0.13818333D+05 0.12519056D+01  1  2  3  2  5  2        2 -.113061664070D-01 0.100000000000D+01
0.122000043265D-04 0.000000000000D+00 0.000000000000D+00 0.873152435145D-03 0.000000000000D+00  5 -2 2 25 23 21 2 0.26649378D-02 0.20933262D+00 0.13818333D+05 0.13818333D+05 0.13818333D+05 0.12519056D+01  1  2 15  2  5  2        2 0.152224629873D-01 0.100000000000D+01
0.514216466725D-05 0.000000000000D+00 0.000000000000D+00 0.873152435145D-03 0.000000000000D+00  5 -2 2 25 23 21 2 0.26649378D-02 0.37718005D+00 0.31602295D+05 0.31602295D+05 0.31602295D+05 0.12125339D+01  1  2 12  2  5  2        2 0.164251060957D-02 0.100000000000D+01
-.950233559120D-04 0.000000000000D+00 -.579433662107D-04 0.873152435145D-03 0.000000000000D+00  5 -2 2 25 23 21 2 0.26649378D-02 0.39391304D+00 0.13818333D+05 0.13818333D+05 0.13818333D+05 0.12519056D+01  1  2  5  2  5  2        2 -.285278818096D-01 0.100000000000D+01
0.117336152968D-03 0.000000000000D+00 0.480225155416D-04 0.873152435145D-03 0.000000000000D+00  5 -2 2 25 23 21 2 0.26649378D-02 0.20933262D+00 0.13818333D+05 0.13818333D+05 0.13818333D+05 0.12519056D+01  1  2  6  2  5  2        2 0.146405296082D+00 0.100000000000D+01
0.331987489296D-06 0.000000000000D+00 0.000000000000D+00 0.873152435145D-03 0.000000000000D+00  5 -2 21 25 23 -2 2 0.26649378D-02 0.37718005D+00 0.31602295D+05 0.31602295D+05 0.31602295D+05 0.12125339D+01  1  2 12  4  5  2        2 0.232500036180D-04 0.100000000000D+01
-.326414429502D-05 0.000000000000D+00 -.398544044144D-05 0.873152435145D-03 0.000000000000D+00  5 -2 21 25 23 -2 2 0.26649378D-02 0.39391304D+00 0.13818333D+05 0.13818333D+05 0.13818333D+05 0.12519056D+01  1  2  5  4  5  2        2 -.210526671098D-03 0.100000000000D+01
  </mgrwgt>
  </event>
  <event>
  4     66 0.46888340E-03 0.16464415E+03 0.75467711E-02 0.10860131E+00
       -2 -1    0    0    0  501 0.00000000E+00 0.00000000E+00 0.27703615E+02 0.27705463E+02 0.32000000E+00 0.0000E+00 0.9000E+01
        2 -1    0    0  501    0 0.00000000E+00 0.00000000E+00 -.98080075E+03 0.98080080E+03 0.32000000E+00 0.0000E+00 0.9000E+01
       25  1    1    2    0    0 0.62511685E+02 -.10655071E+03 -.48399305E+03 0.51491265E+03 0.12500000E+03 0.0000E+00 0.9000E+01
       23  1    1    2    0    0 -.62511685E+02 0.10655071E+03 -.46910409E+03 0.49359362E+03 0.91188000E+02 0.0000E+00 0.9000E+01
#aMCatNLO 1  0  0  1  2 0.20763687D+03 0.00000000D+00  -5  5  0 0.00000000D+00 0.00000000D+00 0.00000000D+00 0.00000000D+00 0.00000000D+00
  <mgrwgt>
 0.2091985126D+00    3    2    0
 0.164841392573197D+03 0.000000000000000D+00 0.000000000000000D+00 0.164841392573197D+03
 0.164841392573197D+03 0.000000000000000D+00 0.000000000000000D+00 -.164841392573197D+03
 0.175927425853270D+03 0.625116853960219D+02 -.106550707077076D+03 0.804333125525967D+01
 0.153755359293125D+03 -.625116853960219D+02 0.106550707077076D+03 -.804333125525967D+01
 0.000000000000000D+00 -.000000000000000D+00 -.000000000000000D+00 -.000000000000000D+00
 0.272827933178029D+03 0.000000000000000D+00 0.000000000000000D+00 0.272827933178029D+03
 0.332961261270764D+03 0.000000000000000D+00 0.000000000000000D+00 -.332961261270764D+03
 0.170099630787514D+03 0.113241647354610D+03 -.205065482414991D+02 0.804333125525967D+01
 0.219520450018661D+03 -.778686765985814D+01 0.199370625084944D+03 -.804333125525967D+01
 0.216169113642618D+03 -.105454779694752D+03 -.178864076843445D+03 -.601333280927347D+02
0.310879206802D-03 0.000000000000D+00 0.000000000000D+00 0.125775392971D-02 0.000000000000D+00  5 -2 2 25 23 21 0 0.42622408D-02 0.15089257D+00 0.27107695D+05 0.27107695D+05 0.27107695D+05 0.12195467D+01  1  2  2  1  5  1       -2 0.205103514835D+00 0.100000000000D+01
-.172710369418D-04 0.000000000000D+00 -.119385801050D-05 0.125775392971D-02 0.000000000000D+00  5 -2 2 25 23 21 2 0.42622408D-02 0.15089257D+00 0.27107695D+05 0.27107695D+05 0.27107695D+05 0.12195467D+01  1  2  3  1  5  1       -2 -.169471515274D-01 0.100000000000D+01
0.214442961905D-04 0.000000000000D+00 0.000000000000D+00 0.125775392971D-02 0.000000000000D+00  5 -2 2 25 23 21 2 0.42622408D-02 0.15089257D+00 0.27107695D+05 0.27107695D+05 0.27107695D+05 0.12195467D+01  1  2 15  1  5  1       -2 0.210421492446D-01 0.100000000000D+01
  </mgrwgt>
  </event>
  <event>
  4     66 0.46888340E-03 0.25136500E+03 0.75467711E-02 0.10341763E+00
       -2 -1    0    0    0  501 0.00000000E+00 0.00000000E+00 0.53645187E+02 0.53646142E+02 0.32000000E+00 0.0000E+00 0.9000E+01
        2 -1    0    0  501    0 0.00000000E+00 0.00000000E+00 -.11924341E+04 0.11924341E+04 0.32000000E+00 0.0000E+00 0.9000E+01
       25  1    1    2    0    0 0.17817245E+03 -.13971997E+03 -.65463344E+03 0.70387288E+03 0.12500000E+03 0.0000E+00 0.9000E+01
       23  1    1    2    0    0 -.17817245E+03 0.13971997E+03 -.48415545E+03 0.54220738E+03 0.91188000E+02 0.0000E+00 0.9000E+01
#aMCatNLO 1  0  0  2  2 0.28186693D+03 0.00000000D+00  -5  5  0 0.00000000D+00 0.00000000D+00 0.00000000D+00 0.00000000D+00 0.00000000D+00
  <mgrwgt>
 0.2175955101D+00    3    2    0
 0.252920877774522D+03 0.000000000000000D+00 0.000000000000000D+00 0.252920877774522D+03
 0.252920877774522D+03 0.000000000000000D+00 0.000000000000000D+00 -.252920877774522D+03
 0.260146209190733D+03 0.178172450128653D+03 -.139719970018356D+03 -.279992526602270D+02
 0.245695546358311D+03 -.178172450128653D+03 0.139719970018356D+03 0.279992526602270D+02
 0.000000000000000D+00 0.000000000000000D+00 0.000000000000000D+00 0.000000000000000D+00
 0.155612249027024D+04 0.000000000000000D+00 0.000000000000000D+00 0.155612249027024D+04
 0.305217915090809D+03 0.000000000000000D+00 0.000000000000000D+00 -.305217915090809D+03
 0.209838910633877D+03 0.571661722055099D+02 -.156062292120330D+03 -.279992526602270D+02
 0.369233494357942D+03 -.336497195456103D+03 0.118337658048579D+03 0.279992526602270D+02
 0.128226800036923D+04 0.279331023250593D+03 0.377246340717503D+02 0.125090457517943D+04
0.117628425529D-02 0.000000000000D+00 0.000000000000D+00 0.103635625980D-02 0.000000000000D+00  5 -2 2 25 23 21 0 0.82531825D-02 0.18345147D+00 0.63184364D+05 0.63184364D+05 0.63184364D+05 0.11823451D+01  1  2  2  2  5  2        2 0.213732169006D+00 0.100000000000D+01
-.653460999096D-04 0.000000000000D+00 -.451724126305D-05 0.103635625980D-02 0.000000000000D+00  5 -2 2 25 23 21 2 0.82531825D-02 0.18345147D+00 0.63184364D+05 0.63184364D+05 0.63184364D+05 0.11823451D+01  1  2  3  2  5  2        2 -.165983823679D-01 0.100000000000D+01
0.805556708971D-04 0.000000000000D+00 0.000000000000D+00 0.103635625980D-02 0.000000000000D+00  5 -2 2 25 23 21 2 0.82531825D-02 0.18345147D+00 0.63184364D+05 0.63184364D+05 0.63184364D+05 0.11823451D+01  1  2 15  2  5  2        2 0.204617234893D-01 0.100000000000D+01
  </mgrwgt>
  </event>
  <event>
  4     66 -.46888340E-03 0.10657130E+03 0.75467711E-02 0.12399387E+00
       -2 -1    0    0    0  501 0.00000000E+00 0.00000000E+00 0.91809030E+03 0.91809036E+03 0.32000000E+00 0.0000E+00 0.9000E+01
        2 -1    0    0  501    0 0.00000000E+00 0.00000000E+00 -.18780939E+02 0.18783665E+02 0.32000000E+00 0.0000E+00 0.9000E+01
       25  1    1    2    0    0 -.12422929E+02 -.54373587E+02 0.32413489E+03 0.35185116E+03 0.12500000E+03 0.0000E+00 0.9000E+01
       23  1    1    2    0    0 0.12422929E+02 0.54373587E+02 0.57517448E+03 0.58502286E+03 0.91188000E+02 0.0000E+00 0.9000E+01
#aMCatNLO 1  0  0  2  1 0.97402188D-01 0.00000000D+00  -5  5  0 0.00000000D+00 0.00000000D+00 0.00000000D+00 0.00000000D+00 0.00000000D+00
  <mgrwgt>
 -.1015904662D+00    9    2    0
 0.131316033768210D+03 0.000000000000000D+00 0.000000000000000D+00 0.131316033768210D+03
 0.131316033768210D+03 0.000000000000000D+00 0.000000000000000D+00 -.131316033768210D+03
 0.145232363035553D+03 -.124229290829983D+02 -.543735869634463D+02 -.485450630509234D+02
 0.117399704500867D+03 0.124229290829983D+02 0.543735869634463D+02 0.485450630509234D+02
 0.000000000000000D+00 -.000000000000000D+00 -.000000000000000D+00 -.000000000000000D+00
 0.131357247516789D+03 0.000000000000000D+00 0.000000000000000D+00 0.131357247516789D+03
 0.131373604085077D+03 0.000000000000000D+00 0.000000000000000D+00 -.131373604085077D+03
 0.145211751679010D+03 -.124068499745180D+02 -.543221847202245D+02 -.485450630509234D+02
 0.117420333919153D+03 0.124359288191947D+02 0.544151449641655D+02 0.485450630509234D+02
 0.987660037029721D-01 -.290788446767174D-01 -.929602439409906D-01 -.163565682878275D-01
0.163347879451D-03 0.000000000000D+00 0.000000000000D+00 0.135283495515D-02 0.000000000000D+00  5 -2 2 25 23 21 0 0.14124488D+00 0.28895892D-02 0.14856151D+05 0.14856151D+05 0.14856151D+05 0.12482999D+01  1  2  2  2  5  2        2 0.191249474398D-01 0.100000000000D+01
-.901360561489D-05 0.000000000000D+00 -.627298867577D-06 0.135283495515D-02 0.000000000000D+00  5 -2 2 25 23 21 2 0.14124488D+00 0.28895892D-02 0.14856151D+05 0.14856151D+05 0.14856151D+05 0.12482999D+01  1  2  3  2  5  2        2 -.164445947685D-02 0.100000000000D+01
0.112718196301D-04 0.000000000000D+00 0.000000000000D+00 0.135283495515D-02 0.000000000000D+00  5 -2 2 25 23 21 2 0.14124488D+00 0.28895892D-02 0.14856151D+05 0.14856151D+05 0.14856151D+05 0.12482999D+01  1  2 15  2  5  2        2 0.205645236814D-02 0.100000000000D+01
-.437021666907D-01 0.000000000000D+00 0.000000000000D+00 0.135283495515D-02 0.000000000000D+00  5 -2 2 25 23 21 2 0.14124488D+00 0.28895892D-02 0.14856151D+05 0.14856151D+05 0.14856151D+05 0.12482999D+01  1  2  4  2  5  2        2 -.797310701666D+01 0.100000000000D+01
-.502274049931D+00 0.000000000000D+00 -.341261354554D-01 0.135283495515D-02 0.000000000000D+00  5 -2 2 25 23 21 2 0.14124488D+00 0.28917887D-02 0.14856151D+05 0.14856151D+05 0.14856151D+05 0.12482999D+01  1  2  5  2  5  2        2 -.915423159161D+02 0.100000000000D+01
0.502299881670D+00 0.000000000000D+00 0.341261255758D-01 0.135283495515D-02 0.000000000000D+00  5 -2 2 25 23 21 2 0.14124488D+00 0.28895892D-02 0.14856151D+05 0.14856151D+05 0.14856151D+05 0.12482999D+01  1  2  6  2  5  2        2 0.916405527296D+02 0.100000000000D+01
0.437021722647D-01 0.000000000000D+00 0.000000000000D+00 0.135283495515D-02 0.118499433197D+01  5 -2 2 25 23 21 2 0.14128921D+00 0.28908560D-02 0.14868121D+05 0.14868121D+05 0.14868121D+05 0.12482600D+01  1  2 11  2  5  2        2 0.796184183222D+01 0.100000000000D+01
-.715716126714D-04 0.000000000000D+00 -.486331151477D-05 0.135283495515D-02 0.000000000000D+00  5 -2 21 25 23 -2 2 0.14124488D+00 0.28917887D-02 0.14856151D+05 0.14856151D+05 0.14856151D+05 0.12482999D+01  1  2  5  4  5  2        2 -.226323487551D+00 0.100000000000D+01
0.576500202832D-05 0.000000000000D+00 0.000000000000D+00 0.135283495515D-02 0.973486907279D-04  5 -2 21 25 23 -2 2 0.14128921D+00 0.28908560D-02 0.14868121D+05 0.14868121D+05 0.14868121D+05 0.12482600D+01  1  2 11  4  5  2        2 0.182244519145D-01 0.100000000000D+01
  </mgrwgt>
  </event>
  <event>
  4     66 0.46888340E-03 0.31104208E+02 0.75467711E-02 0.12427505E+00
       -2 -1    0    0    0  501 0.00000000E+00 0.00000000E+00 0.16201445E+03 0.16201477E+03 0.32000000E+00 0.0000E+00 0.9000E+01
        2 -1    0    0  501    0 0.00000000E+00 0.00000000E+00 -.74281582E+02 0.74282272E+02 0.32000000E+00 0.0000E+00 0.9000E+01
       25  1    1    2    0    0 -.14660864E+01 0.28711892E+01 0.30910356E+02 0.12880545E+03 0.12500000E+03 0.0000E+00 0.9000E+01
       23  1    1    2    0    0 0.14660864E+01 -.28711892E+01 0.56822514E+02 0.10749159E+03 0.91188000E+02 0.0000E+00 0.9000E+01
#aMCatNLO 1  0  0  1  2 0.22921518D+02 0.00000000D+00  -5  5  0 0.00000000D+00 0.00000000D+00 0.00000000D+00 0.00000000D+00 0.00000000D+00
  <mgrwgt>
 0.1600917227D+00    9    2    0
 0.109703275682465D+03 0.000000000000000D+00 0.000000000000000D+00 0.109703275682465D+03
 0.109703275682465D+03 0.000000000000000D+00 0.000000000000000D+00 -.109703275682465D+03
 0.126361275661331D+03 -.146608644236004D+01 0.287118919130607D+01 -.182147975539158D+02
 0.930452757035997D+02 0.146608644236004D+01 -.287118919130607D+01 0.182147975539158D+02
 0.000000000000000D+00 0.000000000000000D+00 0.000000000000000D+00 0.000000000000000D+00
 0.147953400632654D+03 0.000000000000000D+00 0.000000000000000D+00 0.147953400632654D+03
 0.113788705441760D+03 0.000000000000000D+00 0.000000000000000D+00 -.113788705441760D+03
 0.126904664215860D+03 -.951260900719352D+01 -.758453819862583D+01 -.182147975539158D+02
 0.936959495115378D+02 -.446687668409461D+01 -.105805374923770D+02 0.182147975539158D+02
 0.411414923470152D+02 0.139794856912881D+02 0.181650756910028D+02 0.341646951908944D+02
0.169131922862D-03 0.000000000000D+00 0.000000000000D+00 0.184655292304D-02 0.000000000000D+00  5 -2 2 25 23 21 0 0.24925378D-01 0.11428013D-01 0.11694966D+05 0.11694966D+05 0.11694966D+05 0.12603368D+01  1  2  2  1  5  1       -2 0.121643125966D+00 0.100000000000D+01
-.939387445403D-05 0.000000000000D+00 -.649511117246D-06 0.184655292304D-02 0.000000000000D+00  5 -2 2 25 23 21 2 0.24925378D-01 0.11428013D-01 0.11694966D+05 0.11694966D+05 0.11694966D+05 0.12603368D+01  1  2  3  1  5  1       -2 -.107319823935D-01 0.100000000000D+01
0.115736407529D-04 0.000000000000D+00 0.000000000000D+00 0.184655292304D-02 0.000000000000D+00  5 -2 2 25 23 21 2 0.24925378D-01 0.11428013D-01 0.11694966D+05 0.11694966D+05 0.11694966D+05 0.12603368D+01  1  2 15  1  5  1       -2 0.132222449210D-01 0.100000000000D+01
0.343567731631D-03 0.000000000000D+00 0.000000000000D+00 0.184655292304D-02 0.000000000000D+00  5 -2 2 25 23 21 2 0.33960316D-01 0.11428013D-01 0.14450513D+05 0.14450513D+05 0.14450513D+05 0.12496745D+01  1  2 12  1  5  1       -2 0.224096608285D+00 0.100000000000D+01
-.346088758919D-03 0.000000000000D+00 0.000000000000D+00 0.184655292304D-02 0.000000000000D+00  5 -2 2 25 23 21 2 0.24925378D-01 0.11428013D-01 0.11694966D+05 0.11694966D+05 0.11694966D+05 0.12603368D+01  1  2  4  1  5  1       -2 -.395387279815D+00 0.100000000000D+01
-.444931313212D-03 0.000000000000D+00 -.729418695303D-04 0.184655292304D-02 0.000000000000D+00  5 -2 2 25 23 21 2 0.34591064D-01 0.11428013D-01 0.11694966D+05 0.11694966D+05 0.11694966D+05 0.12603368D+01  1  2  5  1  5  1       -2 -.283331419119D+00 0.100000000000D+01
0.448295673223D-03 0.000000000000D+00 0.691930689788D-04 0.184655292304D-02 0.000000000000D+00  5 -2 2 25 23 21 2 0.24925378D-01 0.11428013D-01 0.11694966D+05 0.11694966D+05 0.11694966D+05 0.12603368D+01  1  2  6  1  5  1       -2 0.512153030749D+00 0.100000000000D+01
0.135768329860D-04 0.000000000000D+00 0.000000000000D+00 0.184655292304D-02 0.000000000000D+00  5 21 2 25 23 2 2 0.33960316D-01 0.11428013D-01 0.14450513D+05 0.14450513D+05 0.14450513D+05 0.12496745D+01  1  2 12  3  5  1       -2 0.115637004766D+00 0.100000000000D+01
-.164586629615D-04 0.000000000000D+00 -.300504324687D-05 0.184655292304D-02 0.000000000000D+00  5 21 2 25 23 2 2 0.34591064D-01 0.11428013D-01 0.11694966D+05 0.11694966D+05 0.11694966D+05 0.12603368D+01  1  2  5  3  5  1       -2 -.137209610706D+00 0.100000000000D+01
  </mgrwgt>
  </event>
  <event>
  5     66 0.46888340E-03 0.13372280E+03 0.75467711E-02 0.11466257E+00
       21 -1    0    0  502  501 0.00000000E+00 0.00000000E+00 0.23955390E+03 0.23955508E+03 0.75000000E+00 0.0000E+00 0.9000E+01
        2 -1    0    0  501    0 0.00000000E+00 0.00000000E+00 -.18024838E+03 0.18024866E+03 0.32000000E+00 0.0000E+00 0.9000E+01
       25  1    1    2    0    0 0.18406532E+02 0.12753399E+02 0.44901359E+02 0.13469440E+03 0.12500000E+03 0.0000E+00 0.9000E+01
       23  1    1    2    0    0 -.80431740E+02 -.11077265E+03 -.15812184E+02 0.16524261E+03 0.91188000E+02 0.0000E+00 0.9000E+01
        2  1    1    2  502    0 0.62025209E+02 0.98019253E+02 0.30216350E+02 0.11986672E+03 0.32000000E+00 0.0000E+00 0.9000E+01
#aMCatNLO 2  0  0  1  2 0.11599526D+03 0.00000000D+00  -5  5  0 0.00000000D+00 0.00000000D+00 0.00000000D+00 0.00000000D+00 0.00000000D+00
  <mgrwgt>
 0.2669092732D-01    1    2    0
 0.137532844049522D+03 0.000000000000000D+00 0.000000000000000D+00 0.137532844049522D+03
 0.137532844049522D+03 0.000000000000000D+00 0.000000000000000D+00 -.137532844049522D+03
 0.150820122274801D+03 0.488765942583384D+02 0.609056395103317D+02 0.319889182769488D+02
 0.124245565824242D+03 -.488765942583384D+02 -.609056395103317D+02 -.319889182769488D+02
 0.000000000000000D+00 0.000000000000000D+00 0.000000000000000D+00 0.000000000000000D+00
 0.217345957058439D+03 0.000000000000000D+00 0.000000000000000D+00 0.217345957058439D+03
 0.198666758331382D+03 0.000000000000000D+00 0.000000000000000D+00 -.198666758331382D+03
 0.130957017679247D+03 0.184065315369415D+02 0.127533989074625D+02 0.319889182769488D+02
 0.167566068853801D+03 -.804317403320168D+02 -.110772651596639D+03 -.319889182769488D+02
 0.117489628856773D+03 0.620252087950752D+02 0.980192526891765D+02 0.186791987270573D+02
0.110998294549D-04 0.000000000000D+00 0.000000000000D+00 0.138616099896D-02 0.777754085973D-07  5 21 2 25 23 2 2 0.36854520D-01 0.27730602D-01 0.41507859D+05 0.41507859D+05 0.41507859D+05 0.12003717D+01  1  2  1  3  5  1       -2 0.266909273227D-01 0.100000000000D+01
  </mgrwgt>
  </event>
  <event>
  4     66 0.46888340E-03 0.11541214E+03 0.75467711E-02 0.11226069E+00
       -2 -1    0    0    0  501 0.00000000E+00 0.00000000E+00 0.62369486E+03 0.62369494E+03 0.32000000E+00 0.0000E+00 0.9000E+01
        2 -1    0    0  501    0 0.00000000E+00 0.00000000E+00 -.31346789E+02 0.31348423E+02 0.32000000E+00 0.0000E+00 0.9000E+01
       25  1    1    2    0    0 0.22023514E+01 0.39946250E+02 0.50757104E+03 0.52426512E+03 0.12500000E+03 0.0000E+00 0.9000E+01
       23  1    1    2    0    0 -.22023514E+01 -.39946250E+02 0.84777028E+02 0.13077824E+03 0.91188000E+02 0.0000E+00 0.9000E+01
#aMCatNLO 1  0  0  1  2 0.18123835D+03 0.00000000D+00  -5  5  0 0.00000000D+00 0.00000000D+00 0.00000000D+00 0.00000000D+00 0.00000000D+00
  <mgrwgt>
 0.1342444864D+00    3    2    0
 0.139826295802780D+03 0.000000000000000D+00 0.000000000000000D+00 0.139826295802780D+03
 0.139826295802780D+03 0.000000000000000D+00 0.000000000000000D+00 -.139826295802780D+03
 0.152895634109342D+03 0.220235144733180D+01 0.399462499183694D+02 0.784316370813429D+02
 0.126756957496217D+03 -.220235144733180D+01 -.399462499183694D+02 -.784316370813429D+02
 0.000000000000000D+00 -.000000000000000D+00 -.000000000000000D+00 -.000000000000000D+00
 0.235630170922834D+03 0.000000000000000D+00 0.000000000000000D+00 0.235630170922834D+03
 0.285622754808523D+03 0.000000000000000D+00 0.000000000000000D+00 -.285622754808523D+03
 0.207429655691267D+03 0.323812842599587D+02 0.142133714489609D+03 0.784316370813429D+02
 0.125816364601275D+03 0.189518487534372D+02 0.316829921416596D+02 -.784316370813429D+02
 0.188006905438814D+03 -.513331330133959D+02 -.173816706631269D+03 -.499925838856892D+02
0.880729909928D-03 0.000000000000D+00 0.000000000000D+00 0.106708715388D-02 0.000000000000D+00  5 -2 2 25 23 21 0 0.95953187D-01 0.48227149D-02 0.13319963D+05 0.13319963D+05 0.13319963D+05 0.12537469D+01  1  2  2  1  5  1       -2 0.131048602895D+00 0.100000000000D+01
-.467388427694D-04 0.000000000000D+00 -.338223475563D-05 0.106708715388D-02 0.000000000000D+00  5 -2 2 25 23 21 2 0.95953187D-01 0.48227149D-02 0.13319963D+05 0.13319963D+05 0.13319963D+05 0.12537469D+01  1  2  3  1  5  1       -2 -.109316908787D-01 0.100000000000D+01
0.604029589960D-04 0.000000000000D+00 0.000000000000D+00 0.106708715388D-02 0.000000000000D+00  5 -2 2 25 23 21 2 0.95953187D-01 0.48227149D-02 0.13319963D+05 0.13319963D+05 0.13319963D+05 0.12537469D+01  1  2 15  1  5  1       -2 0.141275743425D-01 0.100000000000D+01
  </mgrwgt>
  </event>
  <event>
  4     66 0.46888340E-03 0.11198392E+03 0.75467711E-02 0.11633130E+00
       -2 -1    0    0    0  501 0.00000000E+00 0.00000000E+00 0.25529128E+02 0.25531133E+02 0.32000000E+00 0.0000E+00 0.9000E+01
        2 -1    0    0  501    0 0.00000000E+00 0.00000000E+00 -.56961498E+03 0.56961507E+03 0.32000000E+00 0.0000E+00 0.9000E+01
       25  1    1    2    0    0 0.13177123E+02 -.25747571E+02 -.41562279E+03 0.43497572E+03 0.12500000E+03 0.0000E+00 0.9000E+01
       23  1    1    2    0    0 -.13177123E+02 0.25747571E+02 -.12846306E+03 0.16017048E+03 0.91188000E+02 0.0000E+00 0.9000E+01
#aMCatNLO 1  0  0  1  2 0.11728127D+03 0.00000000D+00  -5  5  0 0.00000000D+00 0.00000000D+00 0.00000000D+00 0.00000000D+00 0.00000000D+00
  <mgrwgt>
 0.1349690264D+00    5    2    0
 0.120591862887346D+03 0.000000000000000D+00 0.000000000000000D+00 0.120591862887346D+03
 0.120591862887346D+03 0.000000000000000D+00 0.000000000000000D+00 -.120591862887346D+03
 0.135745763990168D+03 0.131771227269526D+02 -.257475712240044D+02 -.443321379360181D+02
 0.105437961784523D+03 -.131771227269526D+02 0.257475712240044D+02 0.443321379360181D+02
 0.000000000000000D+00 -.000000000000000D+00 0.000000000000000D+00 0.000000000000000D+00
 0.283055705300075D+03 0.000000000000000D+00 0.000000000000000D+00 0.283055705300075D+03
 0.157178275296778D+03 0.000000000000000D+00 0.000000000000000D+00 -.157178275296778D+03
 0.164355106749351D+03 0.246552516863052D+02 -.938849360914599D+02 -.443321379360181D+02
 0.103832300713312D+03 -.517304378380068D+01 -.217668668267261D+02 0.443321379360181D+02
 0.172046573134190D+03 -.194822079025045D+02 0.115651802918186D+03 0.125877430003297D+03
0.105641977392D-03 0.000000000000D+00 0.000000000000D+00 0.149448134614D-02 0.000000000000D+00  5 -2 2 25 23 21 0 0.39277193D-02 0.87633236D-01 0.12540398D+05 0.12540398D+05 0.12540398D+05 0.12567882D+01  1  2  2  1  5  1       -2 0.149454668440D+00 0.100000000000D+01
-.582986312585D-05 0.000000000000D+00 -.405693009359D-06 0.149448134614D-02 0.000000000000D+00  5 -2 2 25 23 21 2 0.39277193D-02 0.87633236D-01 0.12540398D+05 0.12540398D+05 0.12540398D+05 0.12567882D+01  1  2  3  1  5  1       -2 -.130273338593D-01 0.100000000000D+01
0.723839243654D-05 0.000000000000D+00 0.000000000000D+00 0.149448134614D-02 0.000000000000D+00  5 -2 2 25 23 21 2 0.39277193D-02 0.87633236D-01 0.12540398D+05 0.12540398D+05 0.12540398D+05 0.12567882D+01  1  2 15  1  5  1       -2 0.161748145436D-01 0.100000000000D+01
-.224190018917D-04 0.000000000000D+00 -.309936893499D-04 0.149448134614D-02 0.000000000000D+00  5 -2 2 25 23 21 2 0.11972532D-01 0.87633236D-01 0.12540398D+05 0.12540398D+05 0.12540398D+05 0.12567882D+01  1  2  5  1  5  1       -2 -.915432502319D-02 0.100000000000D+01
-.135011420308D-05 0.000000000000D+00 -.394232034231D-05 0.149448134614D-02 0.000000000000D+00  5 21 2 25 23 2 2 0.11972532D-01 0.87633236D-01 0.12540398D+05 0.12540398D+05 0.12540398D+05 0.12567882D+01  1  2  5  3  5  1       -2 -.847879772423D-02 0.100000000000D+01
  </mgrwgt>
  </event>
  <event>
  4     66 0.46888340E-03 0.74641149E+02 0.75467711E-02 0.11855154E+00
       -2 -1    0    0    0  501 0.00000000E+00 0.00000000E+00 0.28654057E+02 0.28655844E+02 0.32000000E+00 0.0000E+00 0.9000E+01
        2 -1    0    0  501    0 0.00000000E+00 0.00000000E+00 -.75475060E+03 0.75475066E+03 0.32000000E+00 0.0000E+00 0.9000E+01
       25  1    1    2    0    0 0.43486069E+02 0.84716168E+02 -.32108274E+03 0.35747307E+03 0.12500000E+03 0.0000E+00 0.9000E+01
       23  1    1    2    0    0 -.43486069E+02 -.84716168E+02 -.40501380E+03 0.42593344E+03 0.91188000E+02 0.0000E+00 0.9000E+01
#aMCatNLO 1  0  0  2  1 0.34652016D+02 0.00000000D+00  -5  5  0 0.00000000D+00 0.00000000D+00 0.00000000D+00 0.00000000D+00 0.00000000D+00
  <mgrwgt>
 0.2740009282D+00    9    2    0
 0.147062547612267D+03 0.000000000000000D+00 0.000000000000000D+00 0.147062547612267D+03
 0.147062547612267D+03 0.000000000000000D+00 0.000000000000000D+00 -.147062547612267D+03
 0.159488805647848D+03 0.434860687685775D+02 0.847161682253354D+02 0.272729131419490D+02
 0.134636289576685D+03 -.434860687685775D+02 -.847161682253354D+02 -.272729131419490D+02
 0.000000000000000D+00 0.000000000000000D+00 -.000000000000000D+00 -.000000000000000D+00
 0.161122567138205D+03 0.000000000000000D+00 0.000000000000000D+00 0.161122567138205D+03
 0.171095255324800D+03 0.000000000000000D+00 0.000000000000000D+00 -.171095255324800D+03
 0.161443288543997D+03 0.274265855002329D+02 0.945669394262629D+02 0.272729131419490D+02
 0.134716016267453D+03 -.569644927943411D+02 -.764486001468160D+02 -.272729131419490D+02
 0.360585176515554D+02 0.295379072941082D+02 -.181183392794469D+02 -.997268818659507D+01
0.169969948219D-03 0.000000000000D+00 0.000000000000D+00 0.132924380738D-02 0.000000000000D+00  5 -2 2 25 23 21 0 0.44084591D-02 0.11611562D+00 0.20878039D+05 0.20878039D+05 0.20878039D+05 0.12317770D+01  1  2  2  2  5  2        2 0.148568861609D+00 0.100000000000D+01
-.943920582123D-05 0.000000000000D+00 -.652729355274D-06 0.132924380738D-02 0.000000000000D+00  5 -2 2 25 23 21 2 0.44084591D-02 0.11611562D+00 0.20878039D+05 0.20878039D+05 0.20878039D+05 0.12317770D+01  1  2  3  2  5  2        2 -.125185873915D-01 0.100000000000D+01
0.117498114795D-04 0.000000000000D+00 0.000000000000D+00 0.132924380738D-02 0.000000000000D+00  5 -2 2 25 23 21 2 0.44084591D-02 0.11611562D+00 0.20878039D+05 0.20878039D+05 0.20878039D+05 0.12317770D+01  1  2 15  2  5  2        2 0.155829891440D-01 0.100000000000D+01
0.187962874784D-03 0.000000000000D+00 0.000000000000D+00 0.132924380738D-02 0.000000000000D+00  5 -2 2 25 23 21 2 0.44084591D-02 0.13990775D+00 0.26520361D+05 0.26520361D+05 0.26520361D+05 0.12205583D+01  1  2 12  2  5  2        2 0.194384440651D+00 0.100000000000D+01
-.178703939150D-03 0.000000000000D+00 0.000000000000D+00 0.132924380738D-02 0.000000000000D+00  5 -2 2 25 23 21 2 0.44084591D-02 0.11611562D+00 0.20878039D+05 0.20878039D+05 0.20878039D+05 0.12317770D+01  1  2  4  2  5  2        2 -.237003082869D+00 0.100000000000D+01
-.457533677309D-03 0.000000000000D+00 -.125857052506D-03 0.132924380738D-02 0.000000000000D+00  5 -2 2 25 23 21 2 0.44084591D-02 0.14419196D+00 0.20878039D+05 0.20878039D+05 0.20878039D+05 0.12317770D+01  1  2  5  2  5  2        2 -.460484877187D+00 0.100000000000D+01
0.476467407360D-03 0.000000000000D+00 0.122962431453D-03 0.132924380738D-02 0.000000000000D+00  5 -2 2 25 23 21 2 0.44084591D-02 0.11611562D+00 0.20878039D+05 0.20878039D+05 0.20878039D+05 0.12317770D+01  1  2  6  2  5  2        2 0.631906856489D+00 0.100000000000D+01
0.509417313496D-05 0.000000000000D+00 0.000000000000D+00 0.132924380738D-02 0.000000000000D+00  5 -2 21 25 23 -2 2 0.44084591D-02 0.13990775D+00 0.26520361D+05 0.26520361D+05 0.26520361D+05 0.12205583D+01  1  2 12  4  5  2        2 0.504096287424D-02 0.100000000000D+01
-.122503315337D-04 0.000000000000D+00 -.382648011427D-05 0.132924380738D-02 0.000000000000D+00  5 -2 21 25 23 -2 2 0.44084591D-02 0.14419196D+00 0.20878039D+05 0.20878039D+05 0.20878039D+05 0.12317770D+01  1  2  5  4  5  2        2 -.114766351421D-01 0.100000000000D+01
  </mgrwgt>
  </event>
  <event>
  4     66 0.46888340E-03 0.10917645E+03 0.75467711E-02 0.11382006E+00
       -2 -1    0    0    0  501 0.00000000E+00 0.00000000E+00 0.44250233E+02 0.44251390E+02 0.32000000E+00 0.0000E+00 0.9000E+01
        2 -1    0    0  501    0 0.00000000E+00 0.00000000E+00 -.71080177E+03 0.71080185E+03 0.32000000E+00 0.0000E+00 0.9000E+01
       25  1    1    2    0    0 0.13279793E+03 0.40775191E+02 -.31627945E+03 0.36736303E+03 0.12500000E+03 0.0000E+00 0.9000E+01
       23  1    1    2    0    0 -.13279793E+03 -.40775191E+02 -.35027209E+03 0.38769021E+03 0.91188000E+02 0.0000E+00 0.9000E+01
#aMCatNLO 1  0  0  1  2 0.68955232D+02 0.00000000D+00  -5  5  0 0.00000000D+00 0.00000000D+00 0.00000000D+00 0.00000000D+00 0.00000000D+00
  <mgrwgt>
 0.1982086921D+00    9    2    0
 0.177351650423259D+03 0.000000000000000D+00 0.000000000000000D+00 0.177351650423259D+03
 0.177351650423259D+03 0.000000000000000D+00 0.000000000000000D+00 -.177351650423259D+03
 0.187655682890049D+03 0.132797927824141D+03 0.407751906227566D+02 0.170806766910047D+02
 0.167047617956469D+03 -.132797927824141D+03 -.407751906227566D+02 -.170806766910047D+02
 0.000000000000000D+00 -.000000000000000D+00 -.000000000000000D+00 0.000000000000000D+00
 0.257467754231987D+03 0.000000000000000D+00 0.000000000000000D+00 0.257467754231987D+03
 0.196150606467002D+03 0.000000000000000D+00 0.000000000000000D+00 -.196150606467002D+03
 0.216747165025840D+03 0.164391608964905D+03 0.635451251666548D+02 0.170806766910047D+02
 0.144596515683501D+03 -.108450954408022D+03 -.232280428701079D+02 -.170806766910047D+02
 0.922746799896481D+02 -.559406545568827D+02 -.403170822965469D+02 0.613171477649846D+02
0.339098970551D-03 0.000000000000D+00 0.000000000000D+00 0.119697767749D-02 0.000000000000D+00  5 -2 2 25 23 21 0 0.68078226D-02 0.10935421D+00 0.31160861D+05 0.31160861D+05 0.31160861D+05 0.12131717D+01  1  2  2  1  5  1       -2 0.166618478026D+00 0.100000000000D+01
-.188383309977D-04 0.000000000000D+00 -.130222933373D-05 0.119697767749D-02 0.000000000000D+00  5 -2 2 25 23 21 2 0.68078226D-02 0.10935421D+00 0.31160861D+05 0.31160861D+05 0.31160861D+05 0.12131717D+01  1  2  3  1  5  1       -2 -.136233419862D-01 0.100000000000D+01
0.232287710942D-04 0.000000000000D+00 0.000000000000D+00 0.119697767749D-02 0.000000000000D+00  5 -2 2 25 23 21 2 0.68078226D-02 0.10935421D+00 0.31160861D+05 0.31160861D+05 0.31160861D+05 0.12131717D+01  1  2 15  1  5  1       -2 0.167983826474D-01 0.100000000000D+01
0.234702974147D-03 0.000000000000D+00 0.000000000000D+00 0.119697767749D-02 0.000000000000D+00  5 -2 2 25 23 21 2 0.10115189D-01 0.10935421D+00 0.45927161D+05 0.45927161D+05 0.45927161D+05 0.11959536D+01  1  2 12  1  5  1       -2 0.893856807952D-01 0.100000000000D+01
-.279484522394D-03 0.000000000000D+00 0.000000000000D+00 0.119697767749D-02 0.000000000000D+00  5 -2 2 25 23 21 2 0.68078226D-02 0.10935421D+00 0.31160861D+05 0.31160861D+05 0.31160861D+05 0.12131717D+01  1  2  4  1  5  1       -2 -.202115210148D+00 0.100000000000D+01
-.359235568700D-03 0.000000000000D+00 -.116949139377D-03 0.119697767749D-02 0.000000000000D+00  5 -2 2 25 23 21 2 0.10906845D-01 0.10935421D+00 0.31160861D+05 0.31160861D+05 0.31160861D+05 0.12131717D+01  1  2  5  1  5  1       -2 -.124333381667D+00 0.100000000000D+01
0.382918643556D-03 0.000000000000D+00 0.105062206578D-03 0.119697767749D-02 0.000000000000D+00  5 -2 2 25 23 21 2 0.68078226D-02 0.10935421D+00 0.31160861D+05 0.31160861D+05 0.31160861D+05 0.12131717D+01  1  2  6  1  5  1       -2 0.276915807176D+00 0.100000000000D+01
0.110890834416D-04 0.000000000000D+00 0.000000000000D+00 0.119697767749D-02 0.000000000000D+00  5 21 2 25 23 2 2 0.10115189D-01 0.10935421D+00 0.45927161D+05 0.45927161D+05 0.45927161D+05 0.11959536D+01  1  2 12  3  5  1       -2 0.653392733965D-01 0.100000000000D+01
-.144157327131D-04 0.000000000000D+00 -.629628218040D-05 0.119697767749D-02 0.000000000000D+00  5 21 2 25 23 2 2 0.10906845D-01 0.10935421D+00 0.31160861D+05 0.31160861D+05 0.31160861D+05 0.12131717D+01  1  2  5  3  5  1       -2 -.767769960947D-01 0.100000000000D+01
  </mgrwgt>
  </event>
  <event>
  4     66 0.46888340E-03 0.54504732E+02 0.75467711E-02 0.12394056E+00
       -2 -1    0    0    0  501 0.00000000E+00 0.00000000E+00 0.23301950E+02 0.23304147E+02 0.32000000E+00 0.0000E+00 0.9000E+01
        2 -1    0    0  501    0 0.00000000E+00 0.00000000E+00 -.55537428E+03 0.55537437E+03 0.32000000E+00 0.0000E+00 0.9000E+01
       25  1    1    2    0    0 0.80228638E+01 -.33790155E+02 -.31599280E+03 0.34158834E+03 0.12500000E+03 0.0000E+00 0.9000E+01
       23  1    1    2    0    0 -.80228638E+01 0.33790155E+02 -.21607952E+03 0.23709018E+03 0.91188000E+02 0.0000E+00 0.9000E+01
#aMCatNLO 1  0  0  2  1 0.16613744D+02 0.00000000D+00  -5  5  0 0.00000000D+00 0.00000000D+00 0.00000000D+00 0.00000000D+00 0.00000000D+00
  <mgrwgt>
 0.1884977504D+00    6    2    0
 0.113762762331574D+03 0.000000000000000D+00 0.000000000000000D+00 0.113762762331574D+03
 0.113762762331574D+03 0.000000000000000D+00 0.000000000000000D+00 -.113762762331574D+03
 0.129826341718594D+03 0.802286376490592D+01 -.337901545682382D+02 -.487217767507935D+01
 0.976991829445529D+02 -.802286376490592D+01 0.337901545682382D+02 0.487217767507935D+01
 0.000000000000000D+00 0.000000000000000D+00 0.000000000000000D+00 0.000000000000000D+00
 0.124040577114067D+03 0.000000000000000D+00 0.000000000000000D+00 0.124040577114067D+03
 0.120983389722367D+03 0.000000000000000D+00 0.000000000000000D+00 -.120983389722367D+03
 0.132543140421179D+03 0.678890919254643D+01 -.432765140623205D+02 -.487217767507935D+01
 0.955881394412993D+02 -.893191680450479D+01 0.268015634758338D+02 0.487217767507935D+01
 0.168926869739559D+02 0.214300761195836D+01 0.164749505864866D+02 0.305718739170013D+01
0.749962012982D-04 0.000000000000D+00 0.000000000000D+00 0.178780040560D-02 0.000000000000D+00  5 -2 2 25 23 21 0 0.35850915D-02 0.85442373D-01 0.12917744D+05 0.12917744D+05 0.12917744D+05 0.12552903D+01  1  2  2  2  5  2        2 0.125010762369D+00 0.100000000000D+01
-.416645118321D-05 0.000000000000D+00 -.288005159938D-06 0.178780040560D-02 0.000000000000D+00  5 -2 2 25 23 21 2 0.35850915D-02 0.85442373D-01 0.12917744D+05 0.12917744D+05 0.12917744D+05 0.12552903D+01  1  2  3  2  5  2        2 -.109436651333D-01 0.100000000000D+01
0.518577597779D-05 0.000000000000D+00 0.000000000000D+00 0.178780040560D-02 0.000000000000D+00  5 -2 2 25 23 21 2 0.35850915D-02 0.85442373D-01 0.12917744D+05 0.12917744D+05 0.12917744D+05 0.12552903D+01  1  2 15  2  5  2        2 0.136210394078D-01 0.100000000000D+01
0.986006208660D-04 0.000000000000D+00 0.000000000000D+00 0.178780040560D-02 0.000000000000D+00  5 -2 2 25 23 21 2 0.35850915D-02 0.94446610D-01 0.14948876D+05 0.14948876D+05 0.14948876D+05 0.12479916D+01  1  2 12  2  5  2        2 0.230078185336D+00 0.100000000000D+01
-.666809490541D-04 0.000000000000D+00 0.000000000000D+00 0.178780040560D-02 0.000000000000D+00  5 -2 2 25 23 21 2 0.35850915D-02 0.85442373D-01 0.12917744D+05 0.12917744D+05 0.12917744D+05 0.12552903D+01  1  2  4  2  5  2        2 -.175145212348D+00 0.100000000000D+01
0.160416406943D-05 0.000000000000D+00 0.000000000000D+00 0.178780040560D-02 0.000000000000D+00  5 -2 21 25 23 -2 2 0.35850915D-02 0.94446610D-01 0.14948876D+05 0.14948876D+05 0.14948876D+05 0.12479916D+01  1  2 12  4  5  2        2 0.587664077668D-02 0.100000000000D+01
  </mgrwgt>
  </event>
  <event>
  4     66 0.46888340E-03 0.14466006E+03 0.75467711E-02 0.10801701E+00
       -2 -1    0    0    0  501 0.00000000E+00 0.00000000E+00 0.43689847E+02 0.43691019E+02 0.32000000E+00 0.0000E+00 0.9000E+01
        2 -1    0    0  501    0 0.00000000E+00 0.00000000E+00 -.70011906E+03 0.70011913E+03 0.32000000E+00 0.0000E+00 0.9000E+01
       25  1    1    2    0    0 0.94509173E+02 -.13564943E+02 -.55629645E+03 0.57810616E+03 0.12500000E+03 0.0000E+00 0.9000E+01
       23  1    1    2    0    0 -.94509173E+02 0.13564943E+02 -.10013276E+03 0.16570399E+03 0.91188000E+02 0.0000E+00 0.9000E+01
#aMCatNLO 1  0  0  1  2 0.24530830D+03 0.00000000D+00  -5  5  0 0.00000000D+00 0.00000000D+00 0.00000000D+00 0.00000000D+00 0.00000000D+00
  <mgrwgt>
 0.2057840607D+00    3    2    0
 0.174895847202768D+03 0.000000000000000D+00 0.000000000000000D+00 0.174895847202768D+03
 0.174895847202768D+03 0.000000000000000D+00 0.000000000000000D+00 -.174895847202768D+03
 0.185344563928908D+03 0.945091729433285D+02 -.135649428229955D+02 -.980388491046983D+02
 0.164447130476627D+03 -.945091729433285D+02 0.135649428229955D+02 0.980388491046983D+02
 0.000000000000000D+00 0.000000000000000D+00 -.000000000000000D+00 -.000000000000000D+00
 0.258922132474016D+03 0.000000000000000D+00 0.000000000000000D+00 0.258922132474016D+03
 0.545684695746247D+03 0.000000000000000D+00 0.000000000000000D+00 -.545684695746247D+03
 0.162040954612349D+03 -.548616623756993D+01 0.314731157962044D+02 -.980388491046983D+02
 0.265194799352131D+03 -.218182119011920D+03 0.692674329617595D+02 0.980388491046983D+02
 0.377371074255782D+03 0.223668285249490D+03 -.100740548757964D+03 -.286762563272231D+03
0.397217573569D-03 0.000000000000D+00 0.000000000000D+00 0.885559285898D-03 0.000000000000D+00  5 -2 2 25 23 21 0 0.67216107D-02 0.10771072D+00 0.20926534D+05 0.20926534D+05 0.20926534D+05 0.12316667D+01  1  2  2  1  5  1       -2 0.200975743021D+00 0.100000000000D+01
-.211010394692D-04 0.000000000000D+00 -.152542007229D-05 0.885559285898D-03 0.000000000000D+00  5 -2 2 25 23 21 2 0.67216107D-02 0.10771072D+00 0.20926534D+05 0.20926534D+05 0.20926534D+05 0.12316667D+01  1  2  3  1  5  1       -2 -.161959132696D-01 0.100000000000D+01
0.273656137496D-04 0.000000000000D+00 0.000000000000D+00 0.885559285898D-03 0.000000000000D+00  5 -2 2 25 23 21 2 0.67216107D-02 0.10771072D+00 0.20926534D+05 0.20926534D+05 0.20926534D+05 0.12316667D+01  1  2 15  1  5  1       -2 0.210042309766D-01 0.100000000000D+01
  </mgrwgt>
  </event>
  <event>
  4     66 0.46888340E-03 0.69807003E+02 0.75467711E-02 0.12110198E+00
       -2 -1    0    0    0  501 0.00000000E+00 0.00000000E+00 0.99847442E+01 0.99898707E+01 0.32000000E+00 0.0000E+00 0.9000E+01
        2 -1    0    0  501    0 0.00000000E+00 0.00000000E+00 -.14559573E+04 0.14559573E+04 0.32000000E+00 0.0000E+00 0.9000E+01
       25  1    1    2    0    0 -.42090238E+02 0.31885674E+02 -.79244666E+03 0.80398072E+03 0.12500000E+03 0.0000E+00 0.9000E+01
       23  1    1    2    0    0 0.42090238E+02 -.31885674E+02 -.65352588E+03 0.66196647E+03 0.91188000E+02 0.0000E+00 0.9000E+01
#aMCatNLO 1  0  0  2  1 0.39220466D+02 0.00000000D+00  -5  5  0 0.00000000D+00 0.00000000D+00 0.00000000D+00 0.00000000D+00 0.00000000D+00
  <mgrwgt>
 0.2087203266D+00    9    2    0
 0.120586667615742D+03 0.000000000000000D+00 0.000000000000000D+00 0.120586667615742D+03
 0.120586667615742D+03 0.000000000000000D+00 0.000000000000000D+00 -.120586667615742D+03
 0.135741221598636D+03 -.420902375276792D+02 0.318856743744166D+02 0.352064136801712D+01
 0.105432113632849D+03 0.420902375276792D+02 -.318856743744166D+02 -.352064136801712D+01
 0.000000000000000D+00 -.000000000000000D+00 0.000000000000000D+00 -.000000000000000D+00
 0.131148482815593D+03 0.000000000000000D+00 0.000000000000000D+00 0.131148482815593D+03
 0.165006074792348D+03 0.000000000000000D+00 0.000000000000000D+00 -.165006074792348D+03
 0.129876433490071D+03 -.209657297417949D+02 0.281234997262562D+02 0.352064136801712D+01
 0.114465176939848D+03 0.595786157954809D+02 -.350002716007022D+02 -.352064136801712D+01
 0.518129471780221D+02 -.386128860536860D+02 0.687677187444594D+01 -.338575919767546D+02
0.881016797928D-04 0.000000000000D+00 0.000000000000D+00 0.166166041131D-02 0.000000000000D+00  5 -2 2 25 23 21 0 0.15365115D-02 0.22399383D+00 0.14528550D+05 0.14528550D+05 0.14528550D+05 0.12494067D+01  1  2  2  2  5  2        2 0.138909544000D+00 0.100000000000D+01
-.489453664930D-05 0.000000000000D+00 -.338333648110D-06 0.166166041131D-02 0.000000000000D+00  5 -2 2 25 23 21 2 0.15365115D-02 0.22399383D+00 0.14528550D+05 0.14528550D+05 0.14528550D+05 0.12494067D+01  1  2  3  2  5  2        2 -.120466738947D-01 0.100000000000D+01
0.608730523249D-05 0.000000000000D+00 0.000000000000D+00 0.166166041131D-02 0.000000000000D+00  5 -2 2 25 23 21 2 0.15365115D-02 0.22399383D+00 0.14528550D+05 0.14528550D+05 0.14528550D+05 0.12494067D+01  1  2 15  2  5  2        2 0.149823744897D-01 0.100000000000D+01
0.907017311409D-04 0.000000000000D+00 0.000000000000D+00 0.166166041131D-02 0.000000000000D+00  5 -2 2 25 23 21 2 0.15365115D-02 0.31353908D+00 0.20087420D+05 0.20087420D+05 0.20087420D+05 0.12336176D+01  1  2 12  2  5  2        2 0.110194229613D+00 0.100000000000D+01
-.991448710429D-04 0.000000000000D+00 0.000000000000D+00 0.166166041131D-02 0.000000000000D+00  5 -2 2 25 23 21 2 0.15365115D-02 0.22399383D+00 0.14528550D+05 0.14528550D+05 0.14528550D+05 0.12494067D+01  1  2  4  2  5  2        2 -.244020224050D+00 0.100000000000D+01
-.147985782391D-03 0.000000000000D+00 -.394350930904D-04 0.166166041131D-02 0.000000000000D+00  5 -2 2 25 23 21 2 0.15365115D-02 0.31685849D+00 0.14528550D+05 0.14528550D+05 0.14528550D+05 0.12494067D+01  1  2  5  2  5  2        2 -.179065887220D+00 0.100000000000D+01
0.154533502547D-03 0.000000000000D+00 0.371764994637D-04 0.166166041131D-02 0.000000000000D+00  5 -2 2 25 23 21 2 0.15365115D-02 0.22399383D+00 0.14528550D+05 0.14528550D+05 0.14528550D+05 0.12494067D+01  1  2  6  2  5  2        2 0.380345443169D+00 0.100000000000D+01
0.380706247383D-05 0.000000000000D+00 0.000000000000D+00 0.166166041131D-02 0.000000000000D+00  5 -2 21 25 23 -2 2 0.15365115D-02 0.31353908D+00 0.20087420D+05 0.20087420D+05 0.20087420D+05 0.12336176D+01  1  2 12  4  5  2        2 0.150343078128D-02 0.100000000000D+01
-.525050915129D-05 0.000000000000D+00 -.169242439462D-05 0.166166041131D-02 0.000000000000D+00  5 -2 21 25 23 -2 2 0.15365115D-02 0.31685849D+00 0.14528550D+05 0.14528550D+05 0.14528550D+05 0.12494067D+01  1  2  5  4  5  2        2 -.208191027212D-02 0.100000000000D+01
  </mgrwgt>
  </event>
  <event>
  5     66 0.46888340E-03 0.12153906E+03 0.75467711E-02 0.12342183E+00
       -2 -1    0    0    0  501 0.00000000E+00 0.00000000E+00 0.24353510E+02 0.24355612E+02 0.32000000E+00 0.0000E+00 0.9000E+01
        2 -1    0    0  502    0 0.00000000E+00 0.00000000E+00 -.77140090E+03 0.77140096E+03 0.32000000E+00 0.0000E+00 0.9000E+01
       25  1    1    2    0    0 -.31828789E+02 -.49832872E+02 -.26192259E+03 0.29618377E+03 0.12500000E+03 0.0000E+00 0.9000E+01
       23  1    1    2    0    0 0.30210256E+02 0.42049371E+02 -.47614857E+03 0.48755874E+03 0.91188000E+02 0.0000E+00 0.9000E+01
       21  1    1    2  502  501 0.16185327E+01 0.77835005E+01 -.89762310E+01 0.12014065E+02 0.75000000E+00 0.0000E+00 0.9000E+01
#aMCatNLO 2  0  0  2  1 0.79500018D+01 0.00000000D+00  -5  5  0 0.00000000D+00 0.00000000D+00 0.00000000D+00 0.00000000D+00 0.00000000D+00
  <mgrwgt>
 0.1200644786D+00    2    2    0
 0.131757436775905D+03 0.000000000000000D+00 0.000000000000000D+00 0.131757436775905D+03
 0.131757436775905D+03 0.000000000000000D+00 0.000000000000000D+00 -.131757436775905D+03
 0.145627144693099D+03 -.309296232138439D+02 -.455087963316896D+02 0.505427851998212D+02
 0.117887728858710D+03 0.309296232138439D+02 0.455087963316896D+02 -.505427851998212D+02
 0.000000000000000D+00 0.000000000000000D+00 0.000000000000000D+00 0.000000000000000D+00
 0.140571358664795D+03 0.000000000000000D+00 0.000000000000000D+00 0.140571358664795D+03
 0.133622350854286D+03 0.000000000000000D+00 0.000000000000000D+00 -.133622350854286D+03
 0.147227579174292D+03 -.318287890488308D+02 -.498328718964906D+02 0.505427851998212D+02
 0.116407189228827D+03 0.302102563452706D+02 0.420493714097337D+02 -.505427851998212D+02
 0.105589411159626D+02 0.161853270356023D+01 0.778350048675687D+01 0.694900781050980D+01
-.742658119917D-05 0.000000000000D+00 0.000000000000D+00 0.133567732346D-02 0.000000000000D+00  5 -2 2 25 23 21 2 0.35115834D-02 0.11700935D+00 0.14771742D+05 0.14771742D+05 0.14771742D+05 0.12485824D+01  1  2  8  2  5  2        2 -.138998282222D-01 0.100000000000D+01
0.803546851570D-04 0.000000000000D+00 0.000000000000D+00 0.133567732346D-02 0.175264264857D-03  5 -2 2 25 23 21 2 0.37464910D-02 0.11866552D+00 0.15761824D+05 0.15761824D+05 0.15761824D+05 0.12453772D+01  1  2  1  2  5  2        2 0.133964306780D+00 0.100000000000D+01
  </mgrwgt>
  </event>
  <event>
  4     66 0.46888340E-03 0.10963216E+03 0.75467711E-02 0.11883833E+00
       -4 -1    0    0    0  501 0.00000000E+00 0.00000000E+00 0.11171157E+04 0.11171168E+04 0.15500000E+01 0.0000E+00 0.9000E+01
        4 -1    0    0  501    0 0.00000000E+00 0.00000000E+00 -.11069013E+02 0.11177010E+02 0.15500000E+01 0.0000E+00 0.9000E+01
       25  1    1    2    0    0 0.99890155E+01 0.15071592E+02 0.53331481E+03 0.54806626E+03 0.12500000E+03 0.0000E+00 0.9000E+01
       23  1    1    2    0    0 -.99890155E+01 -.15071592E+02 0.57273191E+03 0.58022757E+03 0.91188000E+02 0.0000E+00 0.9000E+01
#aMCatNLO 1  0  0  2  1 0.85273017D+02 0.00000000D+00  -5  5  0 0.00000000D+00 0.00000000D+00 0.00000000D+00 0.00000000D+00 0.00000000D+00
  <mgrwgt>
 0.8016724532D-01    3    2    0
 0.111475999587700D+03 0.000000000000000D+00 0.000000000000000D+00 0.111475999587700D+03
 0.111475999587700D+03 0.000000000000000D+00 0.000000000000000D+00 -.111475999587700D+03
 0.127869099185451D+03 0.998901550990910D+01 0.150715917108637D+02 -.199642986088280D+02
 0.950828999899489D+02 -.998901550990910D+01 -.150715917108637D+02 0.199642986088280D+02
 0.000000000000000D+00 0.000000000000000D+00 -.000000000000000D+00 0.000000000000000D+00
 0.352879502608963D+03 0.000000000000000D+00 0.000000000000000D+00 0.352879502608963D+03
 0.127135840628909D+03 0.000000000000000D+00 0.000000000000000D+00 -.127135840628909D+03
 0.134458943736999D+03 -.372540089388957D+02 0.258413070472005D+02 -.199642986088280D+02
 0.104243970642920D+03 -.458860706539380D+02 -.688835048478766D+01 0.199642986088280D+02
 0.241312428857953D+03 0.831400795928336D+02 -.189529565624128D+02 0.225743661980055D+03
0.170274778232D-02 0.000000000000D+00 0.000000000000D+00 0.179853625930D-02 0.000000000000D+00  5 -4 4 25 23 21 0 0.17187235D+00 0.17113153D-02 0.12019210D+05 0.12019210D+05 0.12019210D+05 0.12589427D+01  1  2  2  2  5  2        4 0.784781617526D-01 0.100000000000D+01
-.945651043561D-04 0.000000000000D+00 -.653899982789D-05 0.179853625930D-02 0.000000000000D+00  5 -4 4 25 23 21 2 0.17187235D+00 0.17113153D-02 0.12019210D+05 0.12019210D+05 0.12019210D+05 0.12589427D+01  1  2  3  2  5  2        4 -.690782508584D-02 0.100000000000D+01
0.117687919731D-03 0.000000000000D+00 0.000000000000D+00 0.179853625930D-02 0.000000000000D+00  5 -4 4 25 23 21 2 0.17187235D+00 0.17113153D-02 0.12019210D+05 0.12019210D+05 0.12019210D+05 0.12589427D+01  1  2 15  2  5  2        4 0.859690865624D-02 0.100000000000D+01
  </mgrwgt>
  </event>
  <event>
  4     66 0.46888340E-03 0.13096612E+03 0.75467711E-02 0.11446613E+00
       -2 -1    0    0    0  501 0.00000000E+00 0.00000000E+00 0.10826469E+03 0.10826517E+03 0.32000000E+00 0.0000E+00 0.9000E+01
        2 -1    0    0  501    0 0.00000000E+00 0.00000000E+00 -.16433228E+03 0.16433259E+03 0.32000000E+00 0.0000E+00 0.9000E+01
       25  1    1    2    0    0 -.70056457E+02 0.21651621E+02 -.56609593E+02 0.15558389E+03 0.12500000E+03 0.0000E+00 0.9000E+01
       23  1    1    2    0    0 0.70056457E+02 -.21651621E+02 0.54201281E+00 0.11701387E+03 0.91188000E+02 0.0000E+00 0.9000E+01
#aMCatNLO 1  0  0  1  2 0.12289704D+03 0.00000000D+00  -5  5  0 0.00000000D+00 0.00000000D+00 0.00000000D+00 0.00000000D+00 0.00000000D+00
  <mgrwgt>
 0.1539809625D+00    3    2    0
 0.133384746003607D+03 0.000000000000000D+00 0.000000000000000D+00 0.133384746003607D+03
 0.133384746003607D+03 0.000000000000000D+00 0.000000000000000D+00 -.133384746003607D+03
 0.147085241890525D+03 -.700564571528888D+02 0.216516212266218D+02 -.251469380131758D+02
 0.119684250116689D+03 0.700564571528888D+02 -.216516212266218D+02 0.251469380131758D+02
 0.000000000000000D+00 -.000000000000000D+00 0.000000000000000D+00 -.000000000000000D+00
 0.196561819458733D+03 0.000000000000000D+00 0.000000000000000D+00 0.196561819458733D+03
 0.222827612711505D+03 0.000000000000000D+00 0.000000000000000D+00 -.222827612711505D+03
 0.146231576490546D+03 -.582888550139933D+02 -.415778168333745D+02 -.251469380131758D+02
 0.147485368774136D+03 0.807750575933963D+02 -.792445849114495D+02 0.251469380131758D+02
 0.125672486905555D+03 -.224862025794029D+02 0.120822401744824D+03 -.262657932527727D+02
0.260239035610D-03 0.000000000000D+00 0.000000000000D+00 0.144943978050D-02 0.000000000000D+00  5 -2 2 25 23 21 0 0.16656167D-01 0.25281949D-01 0.17152125D+05 0.17152125D+05 0.17152125D+05 0.12412388D+01  1  2  2  1  5  1       -2 0.150801643101D+00 0.100000000000D+01
-.144518379206D-04 0.000000000000D+00 -.999386419253D-06 0.144943978050D-02 0.000000000000D+00  5 -2 2 25 23 21 2 0.16656167D-01 0.25281949D-01 0.17152125D+05 0.17152125D+05 0.17152125D+05 0.12412388D+01  1  2  3  1  5  1       -2 -.129023072807D-01 0.100000000000D+01
0.180129845630D-04 0.000000000000D+00 0.000000000000D+00 0.144943978050D-02 0.000000000000D+00  5 -2 2 25 23 21 2 0.16656167D-01 0.25281949D-01 0.17152125D+05 0.17152125D+05 0.17152125D+05 0.12412388D+01  1  2 15  1  5  1       -2 0.160816266519D-01 0.100000000000D+01
  </mgrwgt>
  </event>
  <event>
  5     66 0.46888340E-03 0.17497339E+03 0.75467711E-02 0.10899667E+00
       21 -1    0    0  502  501 0.00000000E+00 0.00000000E+00 0.65280444E+02 0.65284752E+02 0.75000000E+00 0.0000E+00 0.9000E+01
        2 -1    0    0  501    0 0.00000000E+00 0.00000000E+00 -.23477276E+04 0.23477277E+04 0.32000000E+00 0.0000E+00 0.9000E+01
       25  1    1    2    0    0 -.15543277E+03 -.15666850E+03 -.15706118E+04 0.15909591E+04 0.12500000E+03 0.0000E+00 0.9000E+01
       23  1    1    2    0    0 0.10647665E+03 -.22603854E+02 -.57232539E+03 0.58967772E+03 0.91188000E+02 0.0000E+00 0.9000E+01
        2  1    1    2  502    0 0.48956125E+02 0.17927236E+03 -.13951000E+03 0.23237560E+03 0.32000000E+00 0.0000E+00 0.9000E+01
#aMCatNLO 2  0  0  1  2 0.18583670D+03 0.00000000D+00  -5  5  0 0.00000000D+00 0.00000000D+00 0.00000000D+00 0.00000000D+00 0.00000000D+00
  <mgrwgt>
 0.7218345594D-01    1    2    0
 0.179207820086249D+03 0.000000000000000D+00 0.000000000000000D+00 0.179207820086249D+03
 0.179207820086249D+03 0.000000000000000D+00 0.000000000000000D+00 -.179207820086249D+03
 0.189405127118500D+03 -.126786211688226D+03 -.517677136100572D+02 -.386608656409900D+02
 0.169010513053997D+03 0.126786211688226D+03 0.517677136100572D+02 0.386608656409900D+02
 0.000000000000000D+00 0.000000000000000D+00 0.000000000000000D+00 0.000000000000000D+00
 0.699117922274453D+03 0.000000000000000D+00 0.000000000000000D+00 0.699117922274453D+03
 0.219227483256603D+03 0.000000000000000D+00 0.000000000000000D+00 -.219227483256603D+03
 0.256561938942247D+03 -.155432770733942D+03 -.156668502781077D+03 -.386608656409900D+02
 0.147166994122273D+03 0.106476645539639D+03 -.226038544832664D+02 0.386608656409900D+02
 0.514616472466536D+03 0.489561251943038D+02 0.179272357264344D+03 0.479890439017851D+03
0.108083716375D-03 0.000000000000D+00 0.000000000000D+00 0.115122394628D-02 0.940798878042D-07  5 21 2 25 23 2 2 0.10043476D-01 0.36118912D+00 0.84526012D+05 0.84526012D+05 0.84526012D+05 0.11703387D+01  1  2  1  3  5  1       -2 0.721834559411D-01 0.100000000000D+01
  </mgrwgt>
  </event>
</LesHouchesEvents>
