<event>
 5    0  0.1856407E+000  0.5930067E+03  0.7546771E-02  0.9920022E-01
         21   -1    0    0  502  501  0.00000000000E+00  0.00000000000E+00  0.12908364138E+04  0.12908364138E+04  0.00000000000E+00 0.  1.
         21   -1    0    0  503  502 -0.00000000000E+00 -0.00000000000E+00 -0.14233312739E+04  0.14233312739E+04  0.00000000000E+00 0.  1.
         25    1    1    2    0    0 -0.24498981783E+03  0.52435292706E+03  0.11431844768E+04  0.12874244642E+04  0.12500000000E+03 0.  0.
         21    1    1    2  503  504  0.85037902216E+01  0.23744399187E+02 -0.95832861126E+01  0.26980554360E+02  0.00000000000E+00 0. -1.
         21    1    1    2  504  501  0.23648602761E+03 -0.54809732625E+03 -0.12660960508E+04  0.13997626692E+04  0.00000000000E+00 0.  1.
<mgrwt>
<rscale>  4 0.59300670E+03</rscale>
<asrwt>0</asrwt>
<pdfrwt beam="1">  1       21 0.19859022E+00 0.59300670E+03</pdfrwt>
<pdfrwt beam="2">  1       21 0.21897404E+00 0.59300670E+03</pdfrwt>
<totfact> 0.94803211E+00</totfact>
</mgrwt>
</event>
<event>
 5    0  0.1856407E+000  0.2520143E+03  0.7546771E-02  0.1112038E+00
         21   -1    0    0  502  501  0.00000000000E+00  0.00000000000E+00  0.20231322353E+04  0.20231322353E+04  0.00000000000E+00 0.  1.
         21   -1    0    0  503  502 -0.00000000000E+00 -0.00000000000E+00 -0.43414869631E+02  0.43414869631E+02  0.00000000000E+00 0.  1.
         25    1    1    2    0    0 -0.11163675957E+02 -0.24624576920E+03  0.12448646723E+04  0.12751763246E+04  0.12500000000E+03 0.  0.
         21    1    1    2  503  504 -0.64273390309E+02  0.65501067535E+02  0.16503695949E+03  0.18883499821E+03  0.00000000000E+00 0.  1.
         21    1    1    2  504  501  0.75437066267E+02  0.18074470166E+03  0.56981573383E+03  0.60253578206E+03  0.00000000000E+00 0.  1.
<mgrwt>
<rscale>  4 0.25201428E+03</rscale>
<asrwt>0</asrwt>
<pdfrwt beam="1">  1       21 0.31125104E+00 0.25201428E+03</pdfrwt>
<pdfrwt beam="2">  1       21 0.66792123E-02 0.25201428E+03</pdfrwt>
<totfact> 0.45312275E+03</totfact>
</mgrwt>
</event>
<event>
 5    0  0.1856407E+000  0.2648072E+03  0.7546771E-02  0.1104289E+00
         21   -1    0    0  502  501  0.00000000000E+00  0.00000000000E+00  0.53987307798E+03  0.53987307798E+03  0.00000000000E+00 0.  1.
         21   -1    0    0  503  502 -0.00000000000E+00 -0.00000000000E+00 -0.13854565062E+03  0.13854565062E+03  0.00000000000E+00 0.  1.
         25    1    1    2    0    0 -0.19493091950E+03 -0.12845141342E+03  0.28690214191E+03  0.39043010645E+03  0.12500000000E+03 0.  0.
         21    1    1    2  503  504  0.10435425371E+03  0.85543328362E+01  0.85016498610E+02  0.13487324388E+03  0.00000000000E+00 0.  1.
         21    1    1    2  504  501  0.90576665785E+02  0.11989708059E+03  0.29408786833E+02  0.15311537826E+03  0.00000000000E+00 0.  1.
<mgrwt>
<rscale>  4 0.26480715E+03</rscale>
<asrwt>0</asrwt>
<pdfrwt beam="1">  1       21 0.83057396E-01 0.26480715E+03</pdfrwt>
<pdfrwt beam="2">  1       21 0.21314716E-01 0.26480715E+03</pdfrwt>
<totfact> 0.24937051E+04</totfact>
</mgrwt>
</event>
<event>
 5    0  0.1856407E+000  0.3819725E+03  0.7546771E-02  0.1050207E+00
         21   -1    0    0  502  501  0.00000000000E+00  0.00000000000E+00  0.92086995785E+03  0.92086995785E+03  0.00000000000E+00 0.  1.
         21   -1    0    0  503  502 -0.00000000000E+00 -0.00000000000E+00 -0.39599709001E+03  0.39599709001E+03  0.00000000000E+00 0.  1.
         25    1    1    2    0    0  0.35778985960E+03  0.47585716936E+02  0.77935238626E+03  0.86792460851E+03  0.12500000000E+03 0.  0.
         21    1    1    2  503  504 -0.31366481209E+03 -0.14341498926E+02 -0.22532788766E+03  0.38647632513E+03  0.00000000000E+00 0.  1.
         21    1    1    2  504  501 -0.44125047512E+02 -0.33244218010E+02 -0.29151630757E+02  0.62466114213E+02  0.00000000000E+00 0.  1.
<mgrwt>
<rscale>  4 0.38197249E+03</rscale>
<asrwt>0</asrwt>
<pdfrwt beam="1">  1       21 0.14167230E+00 0.38197249E+03</pdfrwt>
<pdfrwt beam="2">  1       21 0.60922629E-01 0.38197249E+03</pdfrwt>
<totfact> 0.75583462E+02</totfact>
</mgrwt>
</event>
<event>
 5    0  0.1856407E+000  0.2755600E+03  0.7546771E-02  0.1098139E+00
         21   -1    0    0  502  501  0.00000000000E+00  0.00000000000E+00  0.17996063840E+03  0.17996063840E+03  0.00000000000E+00 0.  1.
         21   -1    0    0  503  502 -0.00000000000E+00 -0.00000000000E+00 -0.43202476093E+03  0.43202476093E+03  0.00000000000E+00 0.  1.
         25    1    1    2    0    0 -0.23050943499E+03 -0.84697775397E+02 -0.30596099374E+02  0.27725337522E+03  0.12500000000E+03 0.  0.
         21    1    1    2  503  504  0.10617526115E+03  0.24894571626E+02 -0.12762934687E+03  0.16787547754E+03  0.00000000000E+00 0.  1.
         21    1    1    2  504  501  0.12433417384E+03  0.59803203771E+02 -0.93838676280E+02  0.16685654656E+03  0.00000000000E+00 0.  1.
<mgrwt>
<rscale>  4 0.27556000E+03</rscale>
<asrwt>0</asrwt>
<pdfrwt beam="1">  1       21 0.27686252E-01 0.27556000E+03</pdfrwt>
<pdfrwt beam="2">  1       21 0.66465347E-01 0.27556000E+03</pdfrwt>
<totfact> 0.24805725E+04</totfact>
</mgrwt>
</event>
<event>
 5    0  0.1256932E+001  0.2552533E+03  0.7546771E-02  0.1110029E+00
         21   -1    0    0  502  501  0.00000000000E+00  0.00000000000E+00  0.10679413766E+04  0.10679413766E+04  0.00000000000E+00 0. -1.
         21   -1    0    0  503  502 -0.00000000000E+00 -0.00000000000E+00 -0.12945275958E+03  0.12945275958E+03  0.00000000000E+00 0. -1.
         25    1    1    2    0    0  0.15380384892E+03  0.17040541031E+03  0.90501558976E+03  0.94200416427E+03  0.12500000000E+03 0.  0.
         21    1    1    2  503  504 -0.32150301762E+02 -0.32666026247E+02  0.53595371729E+02  0.70520741948E+02  0.00000000000E+00 0.  1.
         21    1    1    2  504  501 -0.12165354716E+03 -0.13773938406E+03 -0.20122344427E+02  0.18486923001E+03  0.00000000000E+00 0. -1.
<mgrwt>
<rscale>  4 0.25525328E+03</rscale>
<asrwt>0</asrwt>
<pdfrwt beam="1">  1       21 0.16429867E+00 0.25525328E+03</pdfrwt>
<pdfrwt beam="2">  1       21 0.19915810E-01 0.25525328E+03</pdfrwt>
<totfact> 0.51962104E+03</totfact>
</mgrwt>
</event>
<event>
 5    0  0.1856407E+000  0.2526957E+03  0.7546771E-02  0.1111613E+00
         21   -1    0    0  502  501  0.00000000000E+00  0.00000000000E+00  0.28126892168E+04  0.28126892168E+04  0.00000000000E+00 0. -1.
         21   -1    0    0  503  502 -0.00000000000E+00 -0.00000000000E+00 -0.59627101653E+03  0.59627101653E+03  0.00000000000E+00 0.  1.
         25    1    1    2    0    0  0.21655088172E+03  0.10982170759E+03  0.27515994509E+04  0.27651183754E+04  0.12500000000E+03 0.  0.
         21    1    1    2  503  504 -0.14079621824E+02 -0.25196436235E+02  0.27510144247E+02  0.39873602623E+02  0.00000000000E+00 0.  1.
         21    1    1    2  504  501 -0.20247125989E+03 -0.84625271359E+02 -0.56269139483E+03  0.60396825534E+03  0.00000000000E+00 0.  1.
<mgrwt>
<rscale>  4 0.25269568E+03</rscale>
<asrwt>0</asrwt>
<pdfrwt beam="1">  1       21 0.43272141E+00 0.25269568E+03</pdfrwt>
<pdfrwt beam="2">  1       21 0.91734005E-01 0.25269568E+03</pdfrwt>
<totfact> 0.48287258E+00</totfact>
</mgrwt>
</event>
<event>
 5    0  0.2546621E+000  0.2271376E+03  0.7546771E-02  0.1128671E+00
         21   -1    0    0  502  501  0.00000000000E+00  0.00000000000E+00  0.15169714863E+03  0.15169714863E+03  0.00000000000E+00 0. -1.
         21   -1    0    0  503  502 -0.00000000000E+00 -0.00000000000E+00 -0.78968659393E+03  0.78968659393E+03  0.00000000000E+00 0. -1.
         25    1    1    2    0    0  0.11872975673E+03 -0.21070777023E+03 -0.30248590051E+02  0.27392425371E+03  0.12500000000E+03 0.  0.
         21    1    1    2  503  504 -0.69038290929E+02  0.17003391543E+03 -0.55438697854E+03  0.58397152327E+03  0.00000000000E+00 0. -1.
         21    1    1    2  504  501 -0.49691465806E+02  0.40673854800E+02 -0.53353876713E+02  0.83487965591E+02  0.00000000000E+00 0. -1.
<mgrwt>
<rscale>  4 0.22713761E+03</rscale>
<asrwt>0</asrwt>
<pdfrwt beam="1">  1       21 0.23338024E-01 0.22713761E+03</pdfrwt>
<pdfrwt beam="2">  1       21 0.12149024E+00 0.22713761E+03</pdfrwt>
<totfact> 0.86295399E+03</totfact>
</mgrwt>
</event>
<event>
 5    0  0.1856407E+000  0.2708931E+03  0.7546771E-02  0.1100770E+00
         21   -1    0    0  502  501  0.00000000000E+00  0.00000000000E+00  0.31967383751E+03  0.31967383751E+03  0.00000000000E+00 0. -1.
         21   -1    0    0  503  502 -0.00000000000E+00 -0.00000000000E+00 -0.24298345910E+03  0.24298345910E+03  0.00000000000E+00 0. -1.
         25    1    1    2    0    0  0.14070951549E+03  0.19483044235E+03  0.14822925109E+03  0.30879601664E+03  0.12500000000E+03 0.  0.
         21    1    1    2  503  504 -0.16023940479E+02 -0.45915094299E+02 -0.66349340136E+01  0.49081410965E+02  0.00000000000E+00 0. -1.
         21    1    1    2  504  501 -0.12468557501E+03 -0.14891534805E+03 -0.64903938659E+02  0.20477986901E+03  0.00000000000E+00 0. -1.
<mgrwt>
<rscale>  4 0.27089310E+03</rscale>
<asrwt>0</asrwt>
<pdfrwt beam="1">  1       21 0.49180590E-01 0.27089310E+03</pdfrwt>
<pdfrwt beam="2">  1       21 0.37382071E-01 0.27089310E+03</pdfrwt>
<totfact> 0.26188198E+04</totfact>
</mgrwt>
</event>
<event>
 5    0  0.1856407E+000  0.2368003E+03  0.7546771E-02  0.1121943E+00
         21   -1    0    0  502  501  0.00000000000E+00  0.00000000000E+00  0.76357751652E+02  0.76357751652E+02  0.00000000000E+00 0. -1.
         21   -1    0    0  503  502 -0.00000000000E+00 -0.00000000000E+00 -0.20289826379E+04  0.20289826379E+04  0.00000000000E+00 0. -1.
         25    1    1    2    0    0  0.81902227774E+02  0.18748792306E+03 -0.14129667004E+03  0.27829740418E+03  0.12500000000E+03 0.  0.
         21    1    1    2  503  504  0.66020673430E+01 -0.26837706826E+02 -0.71065121777E+03  0.71118844417E+03  0.00000000000E+00 0. -1.
         21    1    1    2  504  501 -0.88504295117E+02 -0.16065021624E+03 -0.11006769984E+04  0.11158545412E+04  0.00000000000E+00 0. -1.
<mgrwt>
<rscale>  4 0.23680027E+03</rscale>
<asrwt>0</asrwt>
<pdfrwt beam="1">  1       21 0.11747349E-01 0.23680027E+03</pdfrwt>
<pdfrwt beam="2">  1       21 0.31215111E+00 0.23680027E+03</pdfrwt>
<totfact> 0.16797135E+03</totfact>
</mgrwt>
</event>
<event>
 5    0  0.1856407E+000  0.2498112E+03  0.7546771E-02  0.1113424E+00
         21   -1    0    0  502  501  0.00000000000E+00  0.00000000000E+00  0.20803048368E+04  0.20803048368E+04  0.00000000000E+00 0.  1.
         21   -1    0    0  503  502 -0.00000000000E+00 -0.00000000000E+00 -0.82414932775E+02  0.82414932775E+02  0.00000000000E+00 0. -1.
         25    1    1    2    0    0  0.14885206284E+03  0.15462244112E+03  0.18493568189E+04  0.18659610606E+04  0.12500000000E+03 0.  0.
         21    1    1    2  503  504 -0.55470474349E+01  0.25852376092E+02  0.14161839382E+02  0.29994545830E+02  0.00000000000E+00 0.  1.
         21    1    1    2  504  501 -0.14330501540E+03 -0.18047481721E+03  0.13437124578E+03  0.26676416322E+03  0.00000000000E+00 0. -1.
<mgrwt>
<rscale>  4 0.24981117E+03</rscale>
<asrwt>0</asrwt>
<pdfrwt beam="1">  1       21 0.32004686E+00 0.24981117E+03</pdfrwt>
<pdfrwt beam="2">  1       21 0.12679222E-01 0.24981117E+03</pdfrwt>
<totfact> 0.12985234E+03</totfact>
</mgrwt>
</event>
<event>
 5    0  0.1915120E+000  0.3171307E+03  0.7546771E-02  0.1076977E+00
         21   -1    0    0  502  501  0.00000000000E+00  0.00000000000E+00  0.16970915570E+04  0.16970915570E+04  0.00000000000E+00 0. -1.
         21   -1    0    0  503  502 -0.00000000000E+00 -0.00000000000E+00 -0.57111003251E+02  0.57111003251E+02  0.00000000000E+00 0.  1.
         25    1    1    2    0    0 -0.29124349459E+03  0.11141287719E+02  0.98082821043E+03  0.10308229139E+04  0.12500000000E+03 0.  0.
         21    1    1    2  503  504  0.28811106877E+02  0.17569324751E+02  0.65846187444E+02  0.73989738833E+02  0.00000000000E+00 0. -1.
         21    1    1    2  504  501  0.26243238771E+03 -0.28710612470E+02  0.59330615584E+03  0.64938990748E+03  0.00000000000E+00 0.  1.
<mgrwt>
<rscale>  4 0.31713073E+03</rscale>
<asrwt>0</asrwt>
<pdfrwt beam="1">  1       21 0.26109097E+00 0.31713073E+03</pdfrwt>
<pdfrwt beam="2">  1       21 0.87863095E-02 0.31713073E+03</pdfrwt>
<totfact> 0.52697186E+03</totfact>
</mgrwt>
</event>
