<event>
 5    0  0.1856407E+000  0.2407556E+03  0.7546771E-02  0.1119291E+00
         21   -1    0    0  502  501  0.00000000000E+00  0.00000000000E+00  0.11772954520E+03  0.11772954520E+03  0.00000000000E+00 0. -1.
         21   -1    0    0  503  502 -0.00000000000E+00 -0.00000000000E+00 -0.46247668882E+03  0.46247668882E+03  0.00000000000E+00 0. -1.
         25    1    1    2    0    0 -0.58066856168E+01 -0.20568064432E+03 -0.25642532441E+03  0.35173454770E+03  0.12500000000E+03 0.  0.
         21    1    1    2  503  504 -0.18604716741E+02  0.91176406357E+02 -0.30747061921E+02  0.98003338606E+02  0.00000000000E+00 0. -1.
         21    1    1    2  504  501  0.24411402358E+02  0.11450423797E+03 -0.57574757282E+02  0.13046834771E+03  0.00000000000E+00 0. -1.
<mgrwt>
<rscale>  4 0.24075557E+03</rscale>
<asrwt>0</asrwt>
<pdfrwt beam="1">  1       21 0.18112238E-01 0.24075557E+03</pdfrwt>
<pdfrwt beam="2">  1       21 0.71150257E-01 0.24075557E+03</pdfrwt>
<totfact> 0.48515191E+04</totfact>
</mgrwt>
</event>
<event>
 5    0  0.2962430E+000  0.2514797E+03  0.7546771E-02  0.1112373E+00
         21   -1    0    0  502  501  0.00000000000E+00  0.00000000000E+00  0.67766590675E+03  0.67766590675E+03  0.00000000000E+00 0. -1.
         21   -1    0    0  503  502 -0.00000000000E+00 -0.00000000000E+00 -0.13539643596E+03  0.13539643596E+03  0.00000000000E+00 0. -1.
         25    1    1    2    0    0  0.21914724245E+03  0.12288246572E+03  0.39775883370E+03  0.48678815109E+03  0.12500000000E+03 0.  0.
         21    1    1    2  503  504 -0.50777087499E+02 -0.39598549522E+02 -0.28942124721E+02  0.70597480992E+02  0.00000000000E+00 0. -1.
         21    1    1    2  504  501 -0.16837015495E+03 -0.83283916201E+02  0.17345276181E+03  0.25567671062E+03  0.00000000000E+00 0. -1.
<mgrwt>
<rscale>  4 0.25147969E+03</rscale>
<asrwt>0</asrwt>
<pdfrwt beam="1">  1       21 0.10425629E+00 0.25147969E+03</pdfrwt>
<pdfrwt beam="2">  1       21 0.20830221E-01 0.25147969E+03</pdfrwt>
<totfact> 0.15352575E+04</totfact>
</mgrwt>
</event>
<event>
 5    0  0.1856407E+000  0.2564692E+03  0.7546771E-02  0.1109283E+00
         21   -1    0    0  502  501  0.00000000000E+00  0.00000000000E+00  0.40412248249E+03  0.40412248249E+03  0.00000000000E+00 0. -1.
         21   -1    0    0  503  502 -0.00000000000E+00 -0.00000000000E+00 -0.29358184856E+03  0.29358184856E+03  0.00000000000E+00 0.  1.
         25    1    1    2    0    0  0.13992790835E+01  0.22394076673E+03  0.30328908449E+03  0.39719100413E+03  0.12500000000E+03 0.  0.
         21    1    1    2  503  504  0.87330998292E+01 -0.98021841837E+02 -0.11830201165E+03  0.15388279459E+03  0.00000000000E+00 0.  1.
         21    1    1    2  504  501 -0.10132378913E+02 -0.12591892489E+03 -0.74446438916E+02  0.14663053235E+03  0.00000000000E+00 0. -1.
<mgrwt>
<rscale>  4 0.25646915E+03</rscale>
<asrwt>0</asrwt>
<pdfrwt beam="1">  1       21 0.62172689E-01 0.25646915E+03</pdfrwt>
<pdfrwt beam="2">  1       21 0.45166438E-01 0.25646915E+03</pdfrwt>
<totfact> 0.10859685E+04</totfact>
</mgrwt>
</event>
<event>
 5    0  0.3311844E+000  0.3351291E+03  0.7546771E-02  0.1068890E+00
         21   -1    0    0  502  501  0.00000000000E+00  0.00000000000E+00  0.19051772748E+03  0.19051772748E+03  0.00000000000E+00 0. -1.
         21   -1    0    0  503  502 -0.00000000000E+00 -0.00000000000E+00 -0.68982577204E+03  0.68982577204E+03  0.00000000000E+00 0. -1.
         25    1    1    2    0    0  0.29222477560E+03  0.10625990712E+03 -0.59384969363E+02  0.34034991101E+03  0.12500000000E+03 0.  0.
         21    1    1    2  503  504 -0.26442205838E+03 -0.10717094457E+03 -0.39937617748E+03  0.49082172676E+03  0.00000000000E+00 0. -1.
         21    1    1    2  504  501 -0.27802717220E+02  0.91103745416E+00 -0.40546897714E+02  0.49171861753E+02  0.00000000000E+00 0. -1.
<mgrwt>
<rscale>  4 0.33512906E+03</rscale>
<asrwt>0</asrwt>
<pdfrwt beam="1">  1       21 0.29310420E-01 0.33512906E+03</pdfrwt>
<pdfrwt beam="2">  1       21 0.10612704E+00 0.33512906E+03</pdfrwt>
<totfact> 0.73180488E+03</totfact>
</mgrwt>
</event>
<event>
 5    0  0.1856407E+000  0.2784461E+03  0.7546771E-02  0.1096541E+00
         21   -1    0    0  502  501  0.00000000000E+00  0.00000000000E+00  0.86159214151E+03  0.86159214151E+03  0.00000000000E+00 0. -1.
         21   -1    0    0  503  502 -0.00000000000E+00 -0.00000000000E+00 -0.22556939481E+03  0.22556939481E+03  0.00000000000E+00 0.  1.
         25    1    1    2    0    0  0.24362085940E+03  0.84102283310E+02  0.72063892691E+03  0.77548035447E+03  0.12500000000E+03 0.  0.
         21    1    1    2  503  504 -0.19149017253E+03 -0.97500747245E+02 -0.42128982378E+01  0.21492470868E+03  0.00000000000E+00 0.  1.
         21    1    1    2  504  501 -0.52130686875E+02  0.13398463935E+02 -0.80403281969E+02  0.96756473175E+02  0.00000000000E+00 0.  1.
<mgrwt>
<rscale>  4 0.27844610E+03</rscale>
<asrwt>0</asrwt>
<pdfrwt beam="1">  1       21 0.13255264E+00 0.27844610E+03</pdfrwt>
<pdfrwt beam="2">  1       21 0.34702984E-01 0.27844610E+03</pdfrwt>
<totfact> 0.30897377E+03</totfact>
</mgrwt>
</event>
<event>
 5    0  0.2940548E+000  0.2326728E+03  0.7546771E-02  0.1124773E+00
         21   -1    0    0  502  501  0.00000000000E+00  0.00000000000E+00  0.51964165587E+03  0.51964165587E+03  0.00000000000E+00 0. -1.
         21   -1    0    0  503  502 -0.00000000000E+00 -0.00000000000E+00 -0.12345600107E+03  0.12345600107E+03  0.00000000000E+00 0. -1.
         25    1    1    2    0    0 -0.17176370411E+03 -0.13236719086E+03  0.29583546753E+03  0.38751447343E+03  0.12500000000E+03 0.  0.
         21    1    1    2  503  504  0.29708305562E+02  0.29825994689E+02 -0.16257143467E+02  0.45127243349E+02  0.00000000000E+00 0. -1.
         21    1    1    2  504  501  0.14205539855E+03  0.10254119617E+03  0.11660733073E+03  0.21045594016E+03  0.00000000000E+00 0. -1.
<mgrwt>
<rscale>  4 0.23267281E+03</rscale>
<asrwt>0</asrwt>
<pdfrwt beam="1">  1       21 0.79944869E-01 0.23267281E+03</pdfrwt>
<pdfrwt beam="2">  1       21 0.18993231E-01 0.23267281E+03</pdfrwt>
<totfact> 0.34295762E+04</totfact>
</mgrwt>
</event>
<event>
 5    0  0.1856407E+000  0.3138694E+03  0.7546771E-02  0.1078506E+00
         21   -1    0    0  502  501  0.00000000000E+00  0.00000000000E+00  0.49416799290E+03  0.49416799290E+03  0.00000000000E+00 0. -1.
         21   -1    0    0  503  502 -0.00000000000E+00 -0.00000000000E+00 -0.93249913665E+03  0.93249913665E+03  0.00000000000E+00 0.  1.
         25    1    1    2    0    0  0.82428027222E+02 -0.26733834134E+03  0.40498036143E+03  0.50783684542E+03  0.12500000000E+03 0.  0.
         21    1    1    2  503  504 -0.60854604613E+02  0.28188996610E+03 -0.84489904545E+03  0.89275956051E+03  0.00000000000E+00 0.  1.
         21    1    1    2  504  501 -0.21573422609E+02 -0.14551624760E+02  0.15875402655E+01  0.26070723625E+02  0.00000000000E+00 0. -1.
<mgrwt>
<rscale>  4 0.31386942E+03</rscale>
<asrwt>0</asrwt>
<pdfrwt beam="1">  1       21 0.76025845E-01 0.31386942E+03</pdfrwt>
<pdfrwt beam="2">  1       21 0.14346141E+00 0.31386942E+03</pdfrwt>
<totfact> 0.46513037E+02</totfact>
</mgrwt>
</event>
<event>
 5    0  0.1856407E+000  0.3265632E+03  0.7546771E-02  0.1072668E+00
         21   -1    0    0  502  501  0.00000000000E+00  0.00000000000E+00  0.49177160832E+03  0.49177160832E+03  0.00000000000E+00 0.  1.
         21   -1    0    0  503  502 -0.00000000000E+00 -0.00000000000E+00 -0.20889031820E+03  0.20889031820E+03  0.00000000000E+00 0.  1.
         25    1    1    2    0    0  0.19166726136E+03  0.23298542357E+03  0.19546892207E+03  0.38059380732E+03  0.12500000000E+03 0.  0.
         21    1    1    2  503  504 -0.13666566466E+03 -0.16266194824E+03  0.90053457387E+02  0.23075103139E+03  0.00000000000E+00 0.  1.
         21    1    1    2  504  501 -0.55001596702E+02 -0.70323475331E+02 -0.26410893366E+01  0.89317087813E+02  0.00000000000E+00 0.  1.
<mgrwt>
<rscale>  4 0.32656324E+03</rscale>
<asrwt>0</asrwt>
<pdfrwt beam="1">  1       21 0.75657170E-01 0.32656324E+03</pdfrwt>
<pdfrwt beam="2">  1       21 0.32136972E-01 0.32656324E+03</pdfrwt>
<totfact> 0.13563155E+04</totfact>
</mgrwt>
</event>
<event>
 5    0  0.1856407E+000  0.2622009E+03  0.7546771E-02  0.1105828E+00
         21   -1    0    0  502  501  0.00000000000E+00  0.00000000000E+00  0.19980848728E+03  0.19980848728E+03  0.00000000000E+00 0. -1.
         21   -1    0    0  503  502 -0.00000000000E+00 -0.00000000000E+00 -0.61227429155E+03  0.61227429155E+03  0.00000000000E+00 0. -1.
         25    1    1    2    0    0 -0.22469641651E+03  0.51340113611E+02  0.73279217806E+02  0.27224828855E+03  0.12500000000E+03 0.  0.
         21    1    1    2  503  504  0.13497814683E+03 -0.41181489970E+02 -0.24531962417E+03  0.28301366264E+03  0.00000000000E+00 0. -1.
         21    1    1    2  504  501  0.89718269678E+02 -0.10158623640E+02 -0.24042539791E+03  0.25682082763E+03  0.00000000000E+00 0.  1.
<mgrwt>
<rscale>  4 0.26220085E+03</rscale>
<asrwt>0</asrwt>
<pdfrwt beam="1">  1       21 0.30739767E-01 0.26220085E+03</pdfrwt>
<pdfrwt beam="2">  1       21 0.94196045E-01 0.26220085E+03</pdfrwt>
<totfact> 0.91923447E+03</totfact>
</mgrwt>
</event>
<event>
 5    0  0.2485463E+000  0.2185433E+03  0.7546771E-02  0.1134974E+00
         21   -1    0    0  502  501  0.00000000000E+00  0.00000000000E+00  0.18412252130E+03  0.18412252130E+03  0.00000000000E+00 0.  1.
         21   -1    0    0  503  502 -0.00000000000E+00 -0.00000000000E+00 -0.35694210258E+03  0.35694210258E+03  0.00000000000E+00 0.  1.
         25    1    1    2    0    0 -0.12403904511E+03 -0.18309654761E+03 -0.68105023850E+02  0.26300822180E+03  0.12500000000E+03 0.  0.
         21    1    1    2  503  504  0.48607132754E+02  0.15159272403E+03 -0.20192292256E+02  0.16047035863E+03  0.00000000000E+00 0.  1.
         21    1    1    2  504  501  0.75431912358E+02  0.31503823586E+02 -0.84522265174E+02  0.11758604344E+03  0.00000000000E+00 0.  1.
<mgrwt>
<rscale>  4 0.21854335E+03</rscale>
<asrwt>0</asrwt>
<pdfrwt beam="1">  1       21 0.28326542E-01 0.21854335E+03</pdfrwt>
<pdfrwt beam="2">  1       21 0.54914169E-01 0.21854335E+03</pdfrwt>
<totfact> 0.36790743E+04</totfact>
</mgrwt>
</event>
<event>
 5    0  0.1970493E+000  0.2318528E+03  0.7546771E-02  0.1125342E+00
         21   -1    0    0  502  501  0.00000000000E+00  0.00000000000E+00  0.17124787320E+03  0.17124787320E+03  0.00000000000E+00 0.  1.
         21   -1    0    0  503  502 -0.00000000000E+00 -0.00000000000E+00 -0.46628137462E+03  0.46628137462E+03  0.00000000000E+00 0.  1.
         25    1    1    2    0    0  0.20132634542E+03 -0.81334528324E+01  0.28720039382E+02  0.23884784085E+03  0.12500000000E+03 0.  0.
         21    1    1    2  503  504 -0.23031657818E+02  0.44595361016E+02 -0.59788367771E+02  0.78063130905E+02  0.00000000000E+00 0.  1.
         21    1    1    2  504  501 -0.17829468760E+03 -0.36461908184E+02 -0.26396517303E+03  0.32061827607E+03  0.00000000000E+00 0.  1.
<mgrwt>
<rscale>  4 0.23185277E+03</rscale>
<asrwt>0</asrwt>
<pdfrwt beam="1">  1       21 0.26345827E-01 0.23185277E+03</pdfrwt>
<pdfrwt beam="2">  1       21 0.71735596E-01 0.23185277E+03</pdfrwt>
<totfact> 0.23531020E+04</totfact>
</mgrwt>
</event>
<event>
 5    0  0.2756036E+000  0.2065966E+03  0.7546771E-02  0.1144290E+00
         21   -1    0    0  502  501  0.00000000000E+00  0.00000000000E+00  0.18024546806E+03  0.18024546806E+03  0.00000000000E+00 0.  1.
         21   -1    0    0  503  502 -0.00000000000E+00 -0.00000000000E+00 -0.45028094257E+03  0.45028094257E+03  0.00000000000E+00 0.  1.
         25    1    1    2    0    0 -0.22859163969E+03  0.21770277561E+02 -0.12328287256E+02  0.26173473095E+03  0.12500000000E+03 0.  0.
         21    1    1    2  503  504  0.77240166978E+02  0.16946191955E+01 -0.10479414498E+02  0.77966231519E+02  0.00000000000E+00 0. -1.
         21    1    1    2  504  501  0.15135147271E+03 -0.23464896757E+02 -0.24722777275E+03  0.29082544815E+03  0.00000000000E+00 0.  1.
<mgrwt>
<rscale>  4 0.20659658E+03</rscale>
<asrwt>0</asrwt>
<pdfrwt beam="1">  1       21 0.27730072E-01 0.20659658E+03</pdfrwt>
<pdfrwt beam="2">  1       21 0.69273990E-01 0.20659658E+03</pdfrwt>
<totfact> 0.23345331E+04</totfact>
</mgrwt>
</event>
<event>
 5    0  0.2156591E+000  0.2593337E+03  0.7546771E-02  0.1107544E+00
         21   -1    0    0  502  501  0.00000000000E+00  0.00000000000E+00  0.52352692116E+02  0.52352692116E+02  0.00000000000E+00 0.  1.
         21   -1    0    0  503  502 -0.00000000000E+00 -0.00000000000E+00 -0.11867301825E+04  0.11867301825E+04  0.00000000000E+00 0.  1.
         25    1    1    2    0    0 -0.14473716804E+03 -0.17515736591E+03 -0.50365725803E+03  0.56650206020E+03  0.12500000000E+03 0.  0.
         21    1    1    2  503  504  0.30564896741E+02  0.35881526480E+02 -0.20474689651E+03  0.21010232861E+03  0.00000000000E+00 0.  1.
         21    1    1    2  504  501  0.11417227130E+03  0.13927583943E+03 -0.42597333580E+03  0.46247848577E+03  0.00000000000E+00 0.  1.
<mgrwt>
<rscale>  4 0.25933367E+03</rscale>
<asrwt>0</asrwt>
<pdfrwt beam="1">  1       21 0.80542610E-02 0.25933367E+03</pdfrwt>
<pdfrwt beam="2">  1       21 0.18257386E+00 0.25933367E+03</pdfrwt>
<totfact> 0.19858054E+04</totfact>
</mgrwt>
</event>
<event>
 5    0  0.1856407E+000  0.2612995E+03  0.7546771E-02  0.1106365E+00
         21   -1    0    0  502  501  0.00000000000E+00  0.00000000000E+00  0.36534441217E+03  0.36534441217E+03  0.00000000000E+00 0.  1.
         21   -1    0    0  503  502 -0.00000000000E+00 -0.00000000000E+00 -0.18622397565E+03  0.18622397565E+03  0.00000000000E+00 0.  1.
         25    1    1    2    0    0  0.22468460514E+03 -0.46575393595E+02  0.14555333219E+03  0.29910401466E+03  0.12500000000E+03 0.  0.
         21    1    1    2  503  504 -0.16327774915E+03  0.65719815043E+02 -0.74706947029E+01  0.17616619635E+03  0.00000000000E+00 0.  1.
         21    1    1    2  504  501 -0.61406855991E+02 -0.19144421447E+02  0.41037799036E+02  0.76298176813E+02  0.00000000000E+00 0.  1.
<mgrwt>
<rscale>  4 0.26129952E+03</rscale>
<asrwt>0</asrwt>
<pdfrwt beam="1">  1       21 0.56206832E-01 0.26129952E+03</pdfrwt>
<pdfrwt beam="2">  1       21 0.28649842E-01 0.26129952E+03</pdfrwt>
<totfact> 0.33597132E+04</totfact>
</mgrwt>
</event>
<event>
 5    0  0.1856407E+000  0.2521395E+03  0.7546771E-02  0.1111960E+00
         21   -1    0    0  502  501  0.00000000000E+00  0.00000000000E+00  0.50204092370E+03  0.50204092370E+03  0.00000000000E+00 0.  1.
         21   -1    0    0  503  502 -0.00000000000E+00 -0.00000000000E+00 -0.45526100029E+03  0.45526100029E+03  0.00000000000E+00 0.  1.
         25    1    1    2    0    0 -0.56318077293E+02 -0.21596748357E+03  0.41095897560E+03  0.48407226673E+03  0.12500000000E+03 0.  0.
         21    1    1    2  503  504  0.95931020069E+02  0.15556480044E+03 -0.35646223765E+03  0.40058519021E+03  0.00000000000E+00 0.  1.
         21    1    1    2  504  501 -0.39612942776E+02  0.60402683137E+02 -0.77168145383E+01  0.72644467045E+02  0.00000000000E+00 0.  1.
<mgrwt>
<rscale>  4 0.25213950E+03</rscale>
<asrwt>0</asrwt>
<pdfrwt beam="1">  1       21 0.77237065E-01 0.25213950E+03</pdfrwt>
<pdfrwt beam="2">  1       21 0.70040154E-01 0.25213950E+03</pdfrwt>
<totfact> 0.26309475E+03</totfact>
</mgrwt>
</event>
<event>
 5    0  0.4802221E+000  0.2617453E+03  0.7546771E-02  0.1106099E+00
         21   -1    0    0  502  501  0.00000000000E+00  0.00000000000E+00  0.31246240410E+03  0.31246240410E+03  0.00000000000E+00 0.  1.
         21   -1    0    0  503  502 -0.00000000000E+00 -0.00000000000E+00 -0.20134177742E+03  0.20134177742E+03  0.00000000000E+00 0.  1.
         25    1    1    2    0    0 -0.10600199947E+03 -0.20408134866E+03  0.94861971391E+02  0.27840512635E+03  0.12500000000E+03 0.  0.
         21    1    1    2  503  504 -0.37780306021E+01  0.20858636349E+02  0.27960164467E+01  0.21381626074E+02  0.00000000000E+00 0.  1.
         21    1    1    2  504  501  0.10978003007E+03  0.18322271232E+03  0.13462638839E+02  0.21401742909E+03  0.00000000000E+00 0.  1.
<mgrwt>
<rscale>  4 0.26174534E+03</rscale>
<asrwt>0</asrwt>
<pdfrwt beam="1">  1       21 0.48071139E-01 0.26174534E+03</pdfrwt>
<pdfrwt beam="2">  1       21 0.30975658E-01 0.26174534E+03</pdfrwt>
<totfact> 0.40108717E+04</totfact>
</mgrwt>
</event>
<event>
 5    0  0.1856407E+000  0.2646022E+03  0.7546771E-02  0.1104409E+00
         21   -1    0    0  502  501  0.00000000000E+00  0.00000000000E+00  0.75464757242E+03  0.75464757242E+03  0.00000000000E+00 0. -1.
         21   -1    0    0  503  502 -0.00000000000E+00 -0.00000000000E+00 -0.95635134910E+02  0.95635134910E+02  0.00000000000E+00 0. -1.
         25    1    1    2    0    0  0.17675592983E+03  0.15147278138E+03  0.38190186307E+03  0.46439282428E+03  0.12500000000E+03 0.  0.
         21    1    1    2  503  504 -0.14982676985E+02  0.17480973640E+02  0.69208239498E+02  0.72937270743E+02  0.00000000000E+00 0. -1.
         21    1    1    2  504  501 -0.16177325285E+03 -0.16895375502E+03  0.20790233495E+03  0.31295261231E+03  0.00000000000E+00 0. -1.
<mgrwt>
<rscale>  4 0.26460215E+03</rscale>
<asrwt>0</asrwt>
<pdfrwt beam="1">  1       21 0.11609962E+00 0.26460215E+03</pdfrwt>
<pdfrwt beam="2">  1       21 0.14713098E-01 0.26460215E+03</pdfrwt>
<totfact> 0.22375339E+04</totfact>
</mgrwt>
</event>
<event>
 5    0  0.1856407E+000  0.2711746E+03  0.7546771E-02  0.1100609E+00
         21   -1    0    0  502  501  0.00000000000E+00  0.00000000000E+00  0.21811084652E+03  0.21811084652E+03  0.00000000000E+00 0. -1.
         21   -1    0    0  503  502 -0.00000000000E+00 -0.00000000000E+00 -0.73677443689E+03  0.73677443689E+03  0.00000000000E+00 0. -1.
         25    1    1    2    0    0 -0.73810750785E+02  0.22904721170E+03  0.10049849062E+03  0.28919819975E+03  0.12500000000E+03 0.  0.
         21    1    1    2  503  504  0.75550536562E+02 -0.19644025008E+03 -0.55764729553E+03  0.59604291930E+03  0.00000000000E+00 0. -1.
         21    1    1    2  504  501 -0.17397857764E+01 -0.32606961619E+02 -0.61514785459E+02  0.69644164369E+02  0.00000000000E+00 0.  1.
<mgrwt>
<rscale>  4 0.27117458E+03</rscale>
<asrwt>0</asrwt>
<pdfrwt beam="1">  1       21 0.33555515E-01 0.27117458E+03</pdfrwt>
<pdfrwt beam="2">  1       21 0.11334991E+00 0.27117458E+03</pdfrwt>
<totfact> 0.49198816E+03</totfact>
</mgrwt>
</event>
<event>
 5    0  0.2250098E+000  0.2534415E+03  0.7546771E-02  0.1111149E+00
         21   -1    0    0  502  501  0.00000000000E+00  0.00000000000E+00  0.23751232088E+03  0.23751232088E+03  0.00000000000E+00 0. -1.
         21   -1    0    0  503  502 -0.00000000000E+00 -0.00000000000E+00 -0.36504902167E+03  0.36504902167E+03  0.00000000000E+00 0. -1.
         25    1    1    2    0    0 -0.14795222319E+03 -0.20231054013E+03 -0.42035116181E+02  0.28321611181E+03  0.12500000000E+03 0.  0.
         21    1    1    2  503  504  0.49699204195E+01  0.52533772167E+02  0.49341061229E+02  0.72242907266E+02  0.00000000000E+00 0. -1.
         21    1    1    2  504  501  0.14298230277E+03  0.14977676796E+03 -0.13484264584E+03  0.24710232347E+03  0.00000000000E+00 0. -1.
<mgrwt>
<rscale>  4 0.25344153E+03</rscale>
<asrwt>0</asrwt>
<pdfrwt beam="1">  1       21 0.36540357E-01 0.25344153E+03</pdfrwt>
<pdfrwt beam="2">  1       21 0.56161388E-01 0.25344153E+03</pdfrwt>
<totfact> 0.20861777E+04</totfact>
</mgrwt>
</event>
