<event>
 5    0  0.2947253E-001  0.3383231E+03  0.7546771E-02  0.1067512E+00
          2   -1    0    0  502    0 -0.00000000000E+00  0.00000000000E+00  0.20136371320E+04  0.20136371320E+04  0.00000000000E+00 0. -1.
         21   -1    0    0  503  502  0.00000000000E+00 -0.00000000000E+00 -0.11629126270E+03  0.11629126270E+03  0.00000000000E+00 0. -1.
         25    1    1    2    0    0 -0.39518581718E+03 -0.29178414838E+02  0.42689208051E+03  0.59572229973E+03  0.12500000000E+03 0.  0.
         21    1    1    2  503  501  0.98532051200E+02 -0.26358753855E+01  0.14328066496E+03  0.17391049969E+03  0.00000000000E+00 0. -1.
          2    1    1    2  501    0  0.29665376598E+03  0.31814290223E+02  0.13271731239E+04  0.13602955953E+04  0.00000000000E+00 0. -1.
<mgrwt>
<rscale>  4 0.33832306E+03</rscale>
<asrwt>0</asrwt>
<pdfrwt beam="1">  1       21 0.17890965E-01 0.33832306E+03</pdfrwt>
<pdfrwt beam="2">  1        2 0.30979030E+00 0.33832306E+03</pdfrwt>
<totfact> 0.25214509E+03</totfact>
</mgrwt>
</event>
<event>
 5    0  0.2947253E-001  0.5057769E+03  0.7546771E-02  0.1012282E+00
          2   -1    0    0  502    0 -0.00000000000E+00  0.00000000000E+00  0.37949306008E+04  0.37949306008E+04  0.00000000000E+00 0. -1.
         21   -1    0    0  503  502  0.00000000000E+00 -0.00000000000E+00 -0.92283834261E+02  0.92283834261E+02  0.00000000000E+00 0. -1.
         25    1    1    2    0    0  0.35016668925E+03 -0.34288266749E+03  0.82541852744E+03  0.96805267386E+03  0.12500000000E+03 0.  0.
         21    1    1    2  503  501 -0.33304305821E+03  0.32333147771E+03  0.26380790904E+04  0.26786045267E+04  0.00000000000E+00 0. -1.
          2    1    1    2  501    0 -0.17123631039E+02  0.19551189780E+02  0.23914914870E+03  0.24055723453E+03  0.00000000000E+00 0. -1.
<mgrwt>
<rscale>  4 0.50577686E+03</rscale>
<asrwt>0</asrwt>
<pdfrwt beam="1">  1       21 0.14197516E-01 0.50577686E+03</pdfrwt>
<pdfrwt beam="2">  1        2 0.58383536E+00 0.50577686E+03</pdfrwt>
<totfact> 0.30699169E+02</totfact>
</mgrwt>
</event>
<event>
 5    0  0.2947253E-001  0.2437251E+03  0.7546771E-02  0.1117336E+00
         21   -1    0    0  503  502  0.00000000000E+00  0.00000000000E+00  0.83964418191E+03  0.83964418191E+03  0.00000000000E+00 0. -1.
          2   -1    0    0  502    0 -0.00000000000E+00 -0.00000000000E+00 -0.51446135671E+03  0.51446135671E+03  0.00000000000E+00 0.  1.
         25    1    1    2    0    0  0.16156847171E+03 -0.13293807746E+03  0.79836310588E+03  0.83473681620E+03  0.12500000000E+03 0.  0.
         21    1    1    2  503  501 -0.12794338129E+03  0.92516690549E+02 -0.39251806204E+03  0.42308306025E+03  0.00000000000E+00 0.  1.
          2    1    1    2  501    0 -0.33625090423E+02  0.40421386910E+02 -0.80662218631E+02  0.96285662173E+02  0.00000000000E+00 0.  1.
<mgrwt>
<rscale>  4 0.24372506E+03</rscale>
<asrwt>0</asrwt>
<pdfrwt beam="1">  1       21 0.12917603E+00 0.24372506E+03</pdfrwt>
<pdfrwt beam="2">  1        2 0.79147901E-01 0.24372506E+03</pdfrwt>
<totfact> 0.32079125E+02</totfact>
</mgrwt>
</event>
<event>
 5    0  0.2947253E-001  0.3723318E+03  0.7546771E-02  0.1053805E+00
          2   -1    0    0  502    0 -0.00000000000E+00  0.00000000000E+00  0.80304083495E+03  0.80304083495E+03  0.00000000000E+00 0. -1.
         21   -1    0    0  503  502  0.00000000000E+00 -0.00000000000E+00 -0.18801569406E+04  0.18801569406E+04  0.00000000000E+00 0.  1.
         25    1    1    2    0    0  0.72094907469E+02  0.34368228686E+03 -0.18001206192E+04  0.18383074916E+04  0.12500000000E+03 0.  0.
         21    1    1    2  503  501 -0.58170600987E+02 -0.59534909560E+01  0.15048151895E+02  0.60379713060E+02  0.00000000000E+00 0.  1.
          2    1    1    2  501    0 -0.13924306482E+02 -0.33772879591E+03  0.70795636164E+03  0.78451057091E+03  0.00000000000E+00 0. -1.
<mgrwt>
<rscale>  4 0.37233180E+03</rscale>
<asrwt>0</asrwt>
<pdfrwt beam="1">  1       21 0.28925491E+00 0.37233180E+03</pdfrwt>
<pdfrwt beam="2">  1        2 0.12354474E+00 0.37233180E+03</pdfrwt>
<totfact> 0.14702867E+01</totfact>
</mgrwt>
</event>
<event>
 5    0  0.2947253E-001  0.3196964E+03  0.7546771E-02  0.1075789E+00
         21   -1    0    0  503  502  0.00000000000E+00  0.00000000000E+00  0.13369749309E+03  0.13369749309E+03  0.00000000000E+00 0.  1.
          2   -1    0    0  502    0 -0.00000000000E+00 -0.00000000000E+00 -0.21007047809E+04  0.21007047809E+04  0.00000000000E+00 0. -1.
         25    1    1    2    0    0 -0.19998837263E+03 -0.21583666641E+03 -0.87558867876E+02  0.33147001539E+03  0.12500000000E+03 0.  0.
         21    1    1    2  503  501  0.18453096486E+02  0.45311099793E+02 -0.32087930054E+03  0.32458764309E+03  0.00000000000E+00 0.  1.
          2    1    1    2  501    0  0.18153527615E+03  0.17052556662E+03 -0.15585691194E+04  0.15783446155E+04  0.00000000000E+00 0. -1.
<mgrwt>
<rscale>  4 0.31969644E+03</rscale>
<asrwt>0</asrwt>
<pdfrwt beam="1">  1       21 0.20568844E-01 0.31969644E+03</pdfrwt>
<pdfrwt beam="2">  1        2 0.32318536E+00 0.31969644E+03</pdfrwt>
<totfact> 0.17549272E+03</totfact>
</mgrwt>
</event>
<event>
 5    0  0.2947253E-001  0.3217350E+03  0.7546771E-02  0.1074854E+00
          4   -1    0    0  502    0 -0.00000000000E+00  0.00000000000E+00  0.12451204022E+04  0.12451204022E+04  0.00000000000E+00 0. -1.
         21   -1    0    0  503  502  0.00000000000E+00 -0.00000000000E+00 -0.20232803988E+03  0.20232803988E+03  0.00000000000E+00 0. -1.
         25    1    1    2    0    0 -0.20816909991E+02  0.29179392047E+03  0.10375823973E+04  0.10852553925E+04  0.12500000000E+03 0.  0.
         21    1    1    2  503  501  0.21377594015E+02  0.30469921312E+02 -0.12970287012E+02  0.39416316112E+02  0.00000000000E+00 0. -1.
          4    1    1    2  501    0 -0.56068402436E+00 -0.32226384179E+03  0.18180252005E+02  0.32277673344E+03  0.00000000000E+00 0. -1.
<mgrwt>
<rscale>  4 0.32173498E+03</rscale>
<asrwt>0</asrwt>
<pdfrwt beam="1">  1       21 0.31127391E-01 0.32173498E+03</pdfrwt>
<pdfrwt beam="2">  1        4 0.19155698E+00 0.32173498E+03</pdfrwt>
<totfact> 0.66182935E+01</totfact>
</mgrwt>
</event>
<event>
 5    0  0.2947253E-001  0.5041219E+03  0.7546771E-02  0.1012709E+00
          1   -1    0    0  502    0 -0.00000000000E+00  0.00000000000E+00  0.19336963541E+04  0.19336963541E+04  0.00000000000E+00 0.  1.
         21   -1    0    0  503  502  0.00000000000E+00 -0.00000000000E+00 -0.41039314927E+03  0.41039314927E+03  0.00000000000E+00 0.  1.
         25    1    1    2    0    0 -0.45271790536E+03 -0.18319500875E+03 -0.20532262963E+03  0.54433105304E+03  0.12500000000E+03 0.  0.
         21    1    1    2  503  501  0.22871349362E+03  0.36281480703E+02  0.73187445690E+03  0.76763691200E+03  0.00000000000E+00 0.  1.
          1    1    1    2  501    0  0.22400441174E+03  0.14691352805E+03  0.99675137751E+03  0.10321215383E+04  0.00000000000E+00 0.  1.
<mgrwt>
<rscale>  4 0.50412192E+03</rscale>
<asrwt>0</asrwt>
<pdfrwt beam="1">  1       21 0.63137409E-01 0.50412192E+03</pdfrwt>
<pdfrwt beam="2">  1        1 0.29749174E+00 0.50412192E+03</pdfrwt>
<totfact> 0.83098618E+01</totfact>
</mgrwt>
</event>
<event>
 5    0  0.2947253E-001  0.2710916E+03  0.7546771E-02  0.1100656E+00
          1   -1    0    0  502    0 -0.00000000000E+00  0.00000000000E+00  0.47104511935E+03  0.47104511935E+03  0.00000000000E+00 0.  1.
         21   -1    0    0  503  502  0.00000000000E+00 -0.00000000000E+00 -0.33518848214E+03  0.33518848214E+03  0.00000000000E+00 0.  1.
         25    1    1    2    0    0 -0.23993454137E+03  0.26381676036E+02 -0.22442930175E+03  0.35250260773E+03  0.12500000000E+03 0.  0.
         21    1    1    2  503  501  0.86645964983E+01  0.30007165918E+02  0.80703430709E+02  0.86536402555E+02  0.00000000000E+00 0.  1.
          1    1    1    2  501    0  0.23126994487E+03 -0.56388841954E+02  0.27958250824E+03  0.36719459121E+03  0.00000000000E+00 0.  1.
<mgrwt>
<rscale>  4 0.27109164E+03</rscale>
<asrwt>0</asrwt>
<pdfrwt beam="1">  1       21 0.51567459E-01 0.27109164E+03</pdfrwt>
<pdfrwt beam="2">  1        1 0.72468480E-01 0.27109164E+03</pdfrwt>
<totfact> 0.18712918E+03</totfact>
</mgrwt>
</event>
<event>
 5    0  0.2947253E-001  0.2797820E+03  0.7546771E-02  0.1095808E+00
         21   -1    0    0  503  502  0.00000000000E+00  0.00000000000E+00  0.27448961432E+03  0.27448961432E+03  0.00000000000E+00 0.  1.
          3   -1    0    0  502    0 -0.00000000000E+00 -0.00000000000E+00 -0.29490885647E+03  0.29490885647E+03  0.00000000000E+00 0.  1.
         25    1    1    2    0    0 -0.21500679897E+03 -0.12816031665E+03  0.73232025502E+02  0.28920739950E+03  0.12500000000E+03 0.  0.
         21    1    1    2  503  501  0.97534733434E+02  0.21951148454E+02 -0.83760980949E+01  0.10032465382E+03  0.00000000000E+00 0.  1.
          3    1    1    2  501    0  0.11747206554E+03  0.10620916819E+03 -0.85275169562E+02  0.17986641747E+03  0.00000000000E+00 0.  1.
<mgrwt>
<rscale>  4 0.27978204E+03</rscale>
<asrwt>0</asrwt>
<pdfrwt beam="1">  1       21 0.42229171E-01 0.27978204E+03</pdfrwt>
<pdfrwt beam="2">  1        3 0.45370593E-01 0.27978204E+03</pdfrwt>
<totfact> 0.12827746E+03</totfact>
</mgrwt>
</event>
<event>
 5    0  0.2947253E-001  0.2472081E+03  0.7546771E-02  0.1115082E+00
         21   -1    0    0  503  502  0.00000000000E+00  0.00000000000E+00  0.15042088831E+03  0.15042088831E+03  0.00000000000E+00 0.  1.
          2   -1    0    0  502    0 -0.00000000000E+00 -0.00000000000E+00 -0.29922198431E+04  0.29922198431E+04  0.00000000000E+00 0.  1.
         25    1    1    2    0    0 -0.14185503392E+02 -0.21433009668E+03  0.39194807827E+02  0.25159461801E+03  0.12500000000E+03 0.  0.
         21    1    1    2  503  501  0.23923552763E+02  0.37964724989E+02 -0.24046884434E+03  0.24461995384E+03  0.00000000000E+00 0.  1.
          2    1    1    2  501    0 -0.97380493707E+01  0.17636537169E+03 -0.26405249183E+04  0.26464261595E+04  0.00000000000E+00 0.  1.
<mgrwt>
<rscale>  4 0.24720814E+03</rscale>
<asrwt>0</asrwt>
<pdfrwt beam="1">  1       21 0.23141677E-01 0.24720814E+03</pdfrwt>
<pdfrwt beam="2">  1        2 0.46034147E+00 0.24720814E+03</pdfrwt>
<totfact> 0.46638933E+02</totfact>
</mgrwt>
</event>
<event>
 5    0  0.2947253E-001  0.2709480E+03  0.7546771E-02  0.1100738E+00
         -4   -1    0    0    0  501 -0.00000000000E+00  0.00000000000E+00  0.31701101146E+04  0.31701101146E+04  0.00000000000E+00 0. -1.
         21   -1    0    0  501  502  0.00000000000E+00 -0.00000000000E+00 -0.26661968433E+02  0.26661968433E+02  0.00000000000E+00 0.  1.
         25    1    1    2    0    0  0.13167352050E+03  0.20112156398E+03  0.90604198543E+03  0.94568751650E+03  0.12500000000E+03 0.  0.
         21    1    1    2  501  501 -0.53937518114E+02 -0.36072282086E+02  0.52903075765E+03  0.53299531700E+03  0.00000000000E+00 0. -1.
         -4    1    1    2    0  502 -0.77736002386E+02 -0.16504928189E+03  0.17083754031E+04  0.17180892495E+04  0.00000000000E+00 0. -1.
<mgrwt>
<rscale>  4 0.27094796E+03</rscale>
<asrwt>0</asrwt>
<pdfrwt beam="1">  1       21 0.41018438E-02 0.27094796E+03</pdfrwt>
<pdfrwt beam="2">  1       -4 0.48770895E+00 0.27094796E+03</pdfrwt>
<totfact> 0.31913758E+01</totfact>
</mgrwt>
</event>
<event>
 5    0  0.2947253E-001  0.2554038E+03  0.7546771E-02  0.1109937E+00
         -2   -1    0    0    0  501 -0.00000000000E+00  0.00000000000E+00  0.49944177772E+03  0.49944177772E+03  0.00000000000E+00 0. -1.
         21   -1    0    0  501  502  0.00000000000E+00 -0.00000000000E+00 -0.14896851042E+03  0.14896851042E+03  0.00000000000E+00 0. -1.
         25    1    1    2    0    0 -0.17435538142E+03 -0.14574135630E+03  0.12556830308E+03  0.28815402254E+03  0.12500000000E+03 0.  0.
         21    1    1    2  501  501  0.47198014178E+02 -0.35863923024E+02  0.39302958708E+02  0.71123808111E+02  0.00000000000E+00 0.  1.
         -2    1    1    2    0  502  0.12715736725E+03  0.18160527932E+03  0.18560200551E+03  0.28913245749E+03  0.00000000000E+00 0. -1.
<mgrwt>
<rscale>  4 0.25540381E+03</rscale>
<asrwt>0</asrwt>
<pdfrwt beam="1">  1       21 0.22918233E-01 0.25540381E+03</pdfrwt>
<pdfrwt beam="2">  1       -2 0.76837196E-01 0.25540381E+03</pdfrwt>
<totfact> 0.22445745E+03</totfact>
</mgrwt>
</event>
<event>
 5    0  0.2947253E-001  0.2752796E+03  0.7546771E-02  0.1098295E+00
         21   -1    0    0  501  502  0.00000000000E+00  0.00000000000E+00  0.49228834715E+03  0.49228834715E+03  0.00000000000E+00 0. -1.
         -4   -1    0    0    0  501 -0.00000000000E+00 -0.00000000000E+00 -0.60424486189E+03  0.60424486189E+03  0.00000000000E+00 0. -1.
         25    1    1    2    0    0  0.18983177355E+03 -0.16055935195E+03  0.40379835041E+03  0.49040138207E+03  0.12500000000E+03 0.  0.
         21    1    1    2  501  501 -0.73375782337E+01  0.59939816862E+02 -0.12822453758E+02  0.61733597175E+02  0.00000000000E+00 0.  1.
         -4    1    1    2    0  502 -0.18249419531E+03  0.10061953509E+03 -0.50293241140E+03  0.54439822979E+03  0.00000000000E+00 0. -1.
<mgrwt>
<rscale>  4 0.27527965E+03</rscale>
<asrwt>0</asrwt>
<pdfrwt beam="1">  1       21 0.75736669E-01 0.27527965E+03</pdfrwt>
<pdfrwt beam="2">  1       -4 0.92960747E-01 0.27527965E+03</pdfrwt>
<totfact> 0.64725631E+01</totfact>
</mgrwt>
</event>
<event>
 5    0  0.2947253E-001  0.2677210E+03  0.7546771E-02  0.1102591E+00
         21   -1    0    0  503  502  0.00000000000E+00  0.00000000000E+00  0.12948638706E+03  0.12948638706E+03  0.00000000000E+00 0. -1.
          2   -1    0    0  502    0 -0.00000000000E+00 -0.00000000000E+00 -0.23789579228E+04  0.23789579228E+04  0.00000000000E+00 0. -1.
         25    1    1    2    0    0  0.13409653996E+03  0.19510937761E+03 -0.23531293982E+02  0.26875318241E+03  0.12500000000E+03 0.  0.
         21    1    1    2  503  501 -0.75696772336E+02 -0.52284258249E+02 -0.71568996405E+03  0.72157866491E+03  0.00000000000E+00 0. -1.
          2    1    1    2  501    0 -0.58399767620E+02 -0.14282511937E+03 -0.15102502777E+04  0.15181124626E+04  0.00000000000E+00 0. -1.
<mgrwt>
<rscale>  4 0.26772103E+03</rscale>
<asrwt>0</asrwt>
<pdfrwt beam="1">  1       21 0.19920984E-01 0.26772103E+03</pdfrwt>
<pdfrwt beam="2">  1        2 0.36599350E+00 0.26772103E+03</pdfrwt>
<totfact> 0.13538084E+03</totfact>
</mgrwt>
</event>
<event>
 5    0  0.2947253E-001  0.2932935E+03  0.7546771E-02  0.1088642E+00
         21   -1    0    0  501  502  0.00000000000E+00  0.00000000000E+00  0.12432999600E+04  0.12432999600E+04  0.00000000000E+00 0.  1.
         -2   -1    0    0    0  501 -0.00000000000E+00 -0.00000000000E+00 -0.27282325391E+03  0.27282325391E+03  0.00000000000E+00 0. -1.
         25    1    1    2    0    0 -0.26914434465E+03  0.58465016639E+02  0.11254269072E+04  0.11653615575E+04  0.12500000000E+03 0.  0.
         21    1    1    2  501  501  0.11230309174E+03  0.45031786081E+02 -0.28624148683E+02  0.12433498325E+03  0.00000000000E+00 0.  1.
         -2    1    1    2    0  502  0.15684125290E+03 -0.10349680272E+03 -0.12632605240E+03  0.22642667312E+03  0.00000000000E+00 0. -1.
<mgrwt>
<rscale>  4 0.29329348E+03</rscale>
<asrwt>0</asrwt>
<pdfrwt beam="1">  1       21 0.19127691E+00 0.29329348E+03</pdfrwt>
<pdfrwt beam="2">  1       -2 0.41972809E-01 0.29329348E+03</pdfrwt>
<totfact> 0.62601743E+01</totfact>
</mgrwt>
</event>
<event>
 5    0  0.2947253E-001  0.3386690E+03  0.7546771E-02  0.1067364E+00
          2   -1    0    0  502    0 -0.00000000000E+00  0.00000000000E+00  0.14131969747E+04  0.14131969747E+04  0.00000000000E+00 0.  1.
         21   -1    0    0  503  502  0.00000000000E+00 -0.00000000000E+00 -0.10157683872E+03  0.10157683872E+03  0.00000000000E+00 0.  1.
         25    1    1    2    0    0 -0.14647864307E+03  0.27002265875E+03  0.35428516313E+03  0.48529496796E+03  0.12500000000E+03 0.  0.
         21    1    1    2  503  501  0.18159684599E+02  0.34152881536E+02  0.19390423112E+03  0.19772466793E+03  0.00000000000E+00 0.  1.
          2    1    1    2  501    0  0.12831895847E+03 -0.30417554029E+03  0.76343074173E+03  0.83175417753E+03  0.00000000000E+00 0.  1.
<mgrwt>
<rscale>  4 0.33866904E+03</rscale>
<asrwt>0</asrwt>
<pdfrwt beam="1">  1       21 0.15627207E-01 0.33866904E+03</pdfrwt>
<pdfrwt beam="2">  1        2 0.21741491E+00 0.33866904E+03</pdfrwt>
<totfact> 0.67878409E+03</totfact>
</mgrwt>
</event>
<event>
 5    0  0.2947253E-001  0.3260165E+03  0.7546771E-02  0.1072913E+00
         21   -1    0    0  501  502  0.00000000000E+00  0.00000000000E+00  0.15777035966E+03  0.15777035966E+03  0.00000000000E+00 0. -1.
         -1   -1    0    0    0  501 -0.00000000000E+00 -0.00000000000E+00 -0.91292247893E+03  0.91292247893E+03  0.00000000000E+00 0. -1.
         25    1    1    2    0    0 -0.23132439194E+03 -0.22319836354E+03 -0.59103570323E+03  0.68430745011E+03  0.12500000000E+03 0.  0.
         21    1    1    2  501  501  0.42333480784E+02  0.29873154921E+02  0.23920615231E+02  0.57067721290E+02  0.00000000000E+00 0. -1.
         -1    1    1    2    0  502  0.18899091115E+03  0.19332520862E+03 -0.18803703128E+03  0.32931766718E+03  0.00000000000E+00 0. -1.
<mgrwt>
<rscale>  4 0.32601649E+03</rscale>
<asrwt>0</asrwt>
<pdfrwt beam="1">  1       21 0.24272363E-01 0.32601649E+03</pdfrwt>
<pdfrwt beam="2">  1       -1 0.14044961E+00 0.32601649E+03</pdfrwt>
<totfact> 0.64808438E+02</totfact>
</mgrwt>
</event>
<event>
 5    0  0.3654005E-001  0.3170867E+03  0.7546771E-02  0.1076998E+00
          1   -1    0    0  502    0 -0.00000000000E+00  0.00000000000E+00  0.87869923611E+03  0.87869923611E+03  0.00000000000E+00 0.  1.
         21   -1    0    0  503  502  0.00000000000E+00 -0.00000000000E+00 -0.42122043235E+03  0.42122043235E+03  0.00000000000E+00 0.  1.
         25    1    1    2    0    0 -0.27758760238E+03 -0.91158203247E+02 -0.32209097275E+03  0.45247352380E+03  0.12500000000E+03 0.  0.
         21    1    1    2  503  501  0.18586986351E+01  0.26810205637E+02  0.12212387570E+02  0.29519219113E+02  0.00000000000E+00 0.  1.
          1    1    1    2  501    0  0.27572890375E+03  0.64347997610E+02  0.76735738894E+03  0.81792692554E+03  0.00000000000E+00 0.  1.
<mgrwt>
<rscale>  4 0.31708672E+03</rscale>
<asrwt>0</asrwt>
<pdfrwt beam="1">  1       21 0.64803144E-01 0.31708672E+03</pdfrwt>
<pdfrwt beam="2">  1        1 0.13518450E+00 0.31708672E+03</pdfrwt>
<totfact> 0.45751643E+02</totfact>
</mgrwt>
</event>
<event>
 5    0  0.2947253E-001  0.2511314E+03  0.7546771E-02  0.1112592E+00
         21   -1    0    0  503  502  0.00000000000E+00  0.00000000000E+00  0.38840000139E+02  0.38840000139E+02  0.00000000000E+00 0.  1.
          2   -1    0    0  502    0 -0.00000000000E+00 -0.00000000000E+00 -0.31257874348E+04  0.31257874348E+04  0.00000000000E+00 0.  1.
         25    1    1    2    0    0  0.21383446453E+03 -0.41434085779E+02 -0.42896291649E+03  0.49706754613E+03  0.12500000000E+03 0.  0.
         21    1    1    2  503  501 -0.10586142630E+03 -0.90238323647E+01 -0.13314223945E+04  0.13356547696E+04  0.00000000000E+00 0.  1.
          2    1    1    2  501    0 -0.10797303823E+03  0.50457918143E+02 -0.13265621237E+04  0.13319051192E+04  0.00000000000E+00 0.  1.
<mgrwt>
<rscale>  4 0.25113136E+03</rscale>
<asrwt>0</asrwt>
<pdfrwt beam="1">  1       21 0.59753881E-02 0.25113136E+03</pdfrwt>
<pdfrwt beam="2">  1        2 0.48089010E+00 0.25113136E+03</pdfrwt>
<totfact> 0.44452327E+03</totfact>
</mgrwt>
</event>
<event>
 5    0  0.2947253E-001  0.2442190E+03  0.7546771E-02  0.1117014E+00
          1   -1    0    0  502    0 -0.00000000000E+00  0.00000000000E+00  0.21487683728E+04  0.21487683728E+04  0.00000000000E+00 0. -1.
         21   -1    0    0  503  502  0.00000000000E+00 -0.00000000000E+00 -0.75753601824E+02  0.75753601824E+02  0.00000000000E+00 0. -1.
         25    1    1    2    0    0 -0.20945108663E+03  0.54574437828E+02  0.16575690363E+03  0.29991411780E+03  0.12500000000E+03 0.  0.
         21    1    1    2  503  501  0.18211653831E+03  0.13171172210E+02  0.12417999428E+04  0.12551521865E+04  0.00000000000E+00 0. -1.
          1    1    1    2  501    0  0.27334548316E+02 -0.67745610038E+02  0.66545792455E+03  0.66945567034E+03  0.00000000000E+00 0. -1.
<mgrwt>
<rscale>  4 0.24421896E+03</rscale>
<asrwt>0</asrwt>
<pdfrwt beam="1">  1       21 0.11654402E-01 0.24421896E+03</pdfrwt>
<pdfrwt beam="2">  1        1 0.33057970E+00 0.24421896E+03</pdfrwt>
<totfact> 0.18629455E+03</totfact>
</mgrwt>
</event>
<event>
 5    0  0.2947253E-001  0.3077004E+03  0.7546771E-02  0.1081453E+00
          2   -1    0    0  502    0 -0.00000000000E+00  0.00000000000E+00  0.15757295189E+04  0.15757295189E+04  0.00000000000E+00 0. -1.
         21   -1    0    0  503  502  0.00000000000E+00 -0.00000000000E+00 -0.81616044309E+02  0.81616044309E+02  0.00000000000E+00 0. -1.
         25    1    1    2    0    0  0.54387895698E+02 -0.27673968403E+03  0.34230651977E+03  0.46080543551E+03  0.12500000000E+03 0.  0.
         21    1    1    2  503  501 -0.42005580976E+02 -0.41828546971E+01  0.12556450962E+03  0.13247041625E+03  0.00000000000E+00 0. -1.
          2    1    1    2  501    0 -0.12382314723E+02  0.28092253873E+03  0.10262424452E+04  0.10640697115E+04  0.00000000000E+00 0. -1.
<mgrwt>
<rscale>  4 0.30770040E+03</rscale>
<asrwt>0</asrwt>
<pdfrwt beam="1">  1       21 0.12556316E-01 0.30770040E+03</pdfrwt>
<pdfrwt beam="2">  1        2 0.24241990E+00 0.30770040E+03</pdfrwt>
<totfact> 0.83431832E+03</totfact>
</mgrwt>
</event>
<event>
 5    0  0.2947253E-001  0.2490437E+03  0.7546771E-02  0.1113911E+00
         21   -1    0    0  503  502  0.00000000000E+00  0.00000000000E+00  0.52756216015E+03  0.52756216015E+03  0.00000000000E+00 0. -1.
          1   -1    0    0  502    0 -0.00000000000E+00 -0.00000000000E+00 -0.57329896008E+03  0.57329896008E+03  0.00000000000E+00 0. -1.
         25    1    1    2    0    0 -0.18014210669E+03 -0.12617371372E+03  0.46668731475E+03  0.53084181672E+03  0.12500000000E+03 0.  0.
         21    1    1    2  503  501  0.16492778303E+03  0.56056931573E+02 -0.31491417220E+03  0.35988121519E+03  0.00000000000E+00 0. -1.
          1    1    1    2  501    0  0.15214323659E+02  0.70116782146E+02 -0.19750994248E+03  0.21013808831E+03  0.00000000000E+00 0. -1.
<mgrwt>
<rscale>  4 0.24904366E+03</rscale>
<asrwt>0</asrwt>
<pdfrwt beam="1">  1       21 0.81163409E-01 0.24904366E+03</pdfrwt>
<pdfrwt beam="2">  1        1 0.88199840E-01 0.24904366E+03</pdfrwt>
<totfact> 0.53604550E+02</totfact>
</mgrwt>
</event>
<event>
 5    0  0.2947253E-001  0.2613754E+03  0.7546771E-02  0.1106320E+00
         21   -1    0    0  503  502  0.00000000000E+00  0.00000000000E+00  0.67999997802E+03  0.67999997802E+03  0.00000000000E+00 0.  1.
          2   -1    0    0  502    0 -0.00000000000E+00 -0.00000000000E+00 -0.11416217832E+04  0.11416217832E+04  0.00000000000E+00 0.  1.
         25    1    1    2    0    0  0.13676307031E+03 -0.18435828861E+03  0.64190388020E+03  0.69307842802E+03  0.12500000000E+03 0.  0.
         21    1    1    2  503  501 -0.34489305920E+02  0.17720045419E+02 -0.13390597968E+03  0.13940704296E+03  0.00000000000E+00 0.  1.
          2    1    1    2  501    0 -0.10227376439E+03  0.16663824319E+03 -0.96961970571E+03  0.98913629024E+03  0.00000000000E+00 0.  1.
<mgrwt>
<rscale>  4 0.26137543E+03</rscale>
<asrwt>0</asrwt>
<pdfrwt beam="1">  1       21 0.10461538E+00 0.26137543E+03</pdfrwt>
<pdfrwt beam="2">  1        2 0.17563412E+00 0.26137543E+03</pdfrwt>
<totfact> 0.19319772E+02</totfact>
</mgrwt>
</event>
<event>
 5    0  0.2947253E-001  0.4683018E+03  0.7546771E-02  0.1022401E+00
          2   -1    0    0  502    0 -0.00000000000E+00  0.00000000000E+00  0.21013192104E+04  0.21013192104E+04  0.00000000000E+00 0.  1.
         21   -1    0    0  503  502  0.00000000000E+00 -0.00000000000E+00 -0.49992908400E+03  0.49992908400E+03  0.00000000000E+00 0. -1.
         25    1    1    2    0    0  0.40823374736E+03  0.38085553669E+03 -0.24873333739E+03  0.62385816132E+03  0.12500000000E+03 0.  0.
         21    1    1    2  503  501 -0.14305238903E+03 -0.23518769626E+02  0.11196466476E+03  0.18317533865E+03  0.00000000000E+00 0.  1.
          2    1    1    2  501    0 -0.26518135833E+03 -0.35733676707E+03  0.17381587990E+04  0.17942147944E+04  0.00000000000E+00 0.  1.
<mgrwt>
<rscale>  4 0.46830185E+03</rscale>
<asrwt>0</asrwt>
<pdfrwt beam="1">  1       21 0.76912168E-01 0.46830185E+03</pdfrwt>
<pdfrwt beam="2">  1        2 0.32327987E+00 0.46830185E+03</pdfrwt>
<totfact> 0.10849632E+02</totfact>
</mgrwt>
</event>
<event>
 5    0  0.2947253E-001  0.2727757E+03  0.7546771E-02  0.1099701E+00
          2   -1    0    0  502    0 -0.00000000000E+00  0.00000000000E+00  0.34058990626E+03  0.34058990626E+03  0.00000000000E+00 0.  1.
         21   -1    0    0  503  502  0.00000000000E+00 -0.00000000000E+00 -0.37893648901E+03  0.37893648901E+03  0.00000000000E+00 0.  1.
         25    1    1    2    0    0 -0.23840596752E+03  0.26021484797E+01 -0.21074989002E+03  0.34188403395E+03  0.12500000000E+03 0.  0.
         21    1    1    2  503  501 -0.16950885003E+02 -0.67168055211E+02  0.15262070441E+02  0.70935258774E+02  0.00000000000E+00 0. -1.
          2    1    1    2  501    0  0.25535685253E+03  0.64565906731E+02  0.15714123682E+03  0.30670710255E+03  0.00000000000E+00 0.  1.
<mgrwt>
<rscale>  4 0.27277574E+03</rscale>
<asrwt>0</asrwt>
<pdfrwt beam="1">  1       21 0.58297921E-01 0.27277574E+03</pdfrwt>
<pdfrwt beam="2">  1        2 0.52398447E-01 0.27277574E+03</pdfrwt>
<totfact> 0.31786587E+03</totfact>
</mgrwt>
</event>
<event>
 5    0  0.2947253E-001  0.2879520E+03  0.7546771E-02  0.1091423E+00
         21   -1    0    0  503  502  0.00000000000E+00  0.00000000000E+00  0.10259583416E+03  0.10259583416E+03  0.00000000000E+00 0. -1.
          2   -1    0    0  502    0 -0.00000000000E+00 -0.00000000000E+00 -0.19668524791E+04  0.19668524791E+04  0.00000000000E+00 0. -1.
         25    1    1    2    0    0  0.14144541526E+03 -0.24779243865E+03 -0.20097554825E+03  0.37070752507E+03  0.12500000000E+03 0.  0.
         21    1    1    2  503  501 -0.75389892961E+02  0.18761230093E+03 -0.63108955461E+03  0.66268849195E+03  0.00000000000E+00 0. -1.
          2    1    1    2  501    0 -0.66055522303E+02  0.60180137722E+02 -0.10321915421E+04  0.10360522963E+04  0.00000000000E+00 0. -1.
<mgrwt>
<rscale>  4 0.28795196E+03</rscale>
<asrwt>0</asrwt>
<pdfrwt beam="1">  1       21 0.15783974E-01 0.28795196E+03</pdfrwt>
<pdfrwt beam="2">  1        2 0.30259269E+00 0.28795196E+03</pdfrwt>
<totfact> 0.34306117E+03</totfact>
</mgrwt>
</event>
<event>
 5    0  0.2947253E-001  0.2941777E+03  0.7546771E-02  0.1088188E+00
          1   -1    0    0  502    0 -0.00000000000E+00  0.00000000000E+00  0.48859482948E+03  0.48859482948E+03  0.00000000000E+00 0.  1.
         21   -1    0    0  503  502  0.00000000000E+00 -0.00000000000E+00 -0.22809605640E+03  0.22809605640E+03  0.00000000000E+00 0. -1.
         25    1    1    2    0    0  0.23390386140E+03  0.12729680635E+03 -0.43012713170E+02  0.29730554448E+03  0.12500000000E+03 0.  0.
         21    1    1    2  503  501 -0.10402963670E+03 -0.41569028902E+02  0.51729060872E+02  0.12339386214E+03  0.00000000000E+00 0. -1.
          1    1    1    2  501    0 -0.12987422470E+03 -0.85727777444E+02  0.25178242538E+03  0.29599147926E+03  0.00000000000E+00 0.  1.
<mgrwt>
<rscale>  4 0.29417766E+03</rscale>
<asrwt>0</asrwt>
<pdfrwt beam="1">  1       21 0.35091701E-01 0.29417766E+03</pdfrwt>
<pdfrwt beam="2">  1        1 0.75168435E-01 0.29417766E+03</pdfrwt>
<totfact> 0.39100018E+03</totfact>
</mgrwt>
</event>
<event>
 5    0  0.2947253E-001  0.2981692E+03  0.7546771E-02  0.1086159E+00
          2   -1    0    0  502    0 -0.00000000000E+00  0.00000000000E+00  0.93566593961E+03  0.93566593961E+03  0.00000000000E+00 0.  1.
         21   -1    0    0  503  502  0.00000000000E+00 -0.00000000000E+00 -0.62776758149E+03  0.62776758149E+03  0.00000000000E+00 0.  1.
         25    1    1    2    0    0 -0.68792740076E+02  0.24849118531E+03 -0.45715561016E+03  0.53953365249E+03  0.12500000000E+03 0.  0.
         21    1    1    2  503  501  0.36577407541E+02 -0.35015611061E+03  0.12281770012E+03  0.37286914059E+03  0.00000000000E+00 0.  1.
          2    1    1    2  501    0  0.32215332535E+02  0.10166492530E+03  0.64223626817E+03  0.65103072803E+03  0.00000000000E+00 0.  1.
<mgrwt>
<rscale>  4 0.29816922E+03</rscale>
<asrwt>0</asrwt>
<pdfrwt beam="1">  1       21 0.96579629E-01 0.29816922E+03</pdfrwt>
<pdfrwt beam="2">  1        2 0.14394861E+00 0.29816922E+03</pdfrwt>
<totfact> 0.30578310E+02</totfact>
</mgrwt>
</event>
<event>
 5    0  0.2947253E-001  0.2485684E+03  0.7546771E-02  0.1114213E+00
         21   -1    0    0  503  502  0.00000000000E+00  0.00000000000E+00  0.67347484676E+02  0.67347484676E+02  0.00000000000E+00 0.  1.
          2   -1    0    0  502    0 -0.00000000000E+00 -0.00000000000E+00 -0.10176240770E+04  0.10176240770E+04  0.00000000000E+00 0.  1.
         25    1    1    2    0    0  0.50415164514E+02  0.20885299412E+03 -0.25969462634E+03  0.35948235133E+03  0.12500000000E+03 0.  0.
         21    1    1    2  503  501 -0.75584971659E+01 -0.40374248455E+02 -0.71469202585E+02  0.82432140188E+02  0.00000000000E+00 0.  1.
          2    1    1    2  501    0 -0.42856667348E+02 -0.16847874567E+03 -0.61911276336E+03  0.64305707012E+03  0.00000000000E+00 0.  1.
<mgrwt>
<rscale>  4 0.24856843E+03</rscale>
<asrwt>0</asrwt>
<pdfrwt beam="1">  1       21 0.10361153E-01 0.24856843E+03</pdfrwt>
<pdfrwt beam="2">  1        2 0.15655753E+00 0.24856843E+03</pdfrwt>
<totfact> 0.24563183E+04</totfact>
</mgrwt>
</event>
<event>
 5    0  0.2947253E-001  0.2623844E+03  0.7546771E-02  0.1105719E+00
          1   -1    0    0  502    0 -0.00000000000E+00  0.00000000000E+00  0.13219280366E+04  0.13219280366E+04  0.00000000000E+00 0. -1.
         21   -1    0    0  503  502  0.00000000000E+00 -0.00000000000E+00 -0.47255702259E+03  0.47255702259E+03  0.00000000000E+00 0. -1.
         25    1    1    2    0    0 -0.22245601725E+03 -0.12373163772E+03 -0.39092622242E+03  0.48295394103E+03  0.12500000000E+03 0.  0.
         21    1    1    2  503  501  0.99247246040E+02  0.11065728230E+03  0.13972054104E+03  0.20400215578E+03  0.00000000000E+00 0. -1.
          1    1    1    2  501    0  0.12320877121E+03  0.13074355425E+02  0.11005766954E+04  0.11075289624E+04  0.00000000000E+00 0. -1.
<mgrwt>
<rscale>  4 0.26238444E+03</rscale>
<asrwt>0</asrwt>
<pdfrwt beam="1">  1       21 0.72701081E-01 0.26238444E+03</pdfrwt>
<pdfrwt beam="2">  1        1 0.20337354E+00 0.26238444E+03</pdfrwt>
<totfact> 0.17297263E+02</totfact>
</mgrwt>
</event>
<event>
 5    0  0.2947253E-001  0.2708117E+03  0.7546771E-02  0.1100816E+00
         21   -1    0    0  503  502  0.00000000000E+00  0.00000000000E+00  0.68731384484E+03  0.68731384484E+03  0.00000000000E+00 0. -1.
          1   -1    0    0  502    0 -0.00000000000E+00 -0.00000000000E+00 -0.37880739388E+03  0.37880739388E+03  0.00000000000E+00 0. -1.
         25    1    1    2    0    0 -0.23620352719E+03  0.43839229972E+02  0.61634912002E+03  0.67322003988E+03  0.12500000000E+03 0.  0.
         21    1    1    2  503  501  0.56355963157E+02  0.63971305368E+01 -0.59692056536E+02  0.82341116558E+02  0.00000000000E+00 0. -1.
          1    1    1    2  501    0  0.17984756403E+03 -0.50236360509E+02 -0.24815061253E+03  0.31056008228E+03  0.00000000000E+00 0. -1.
<mgrwt>
<rscale>  4 0.27081171E+03</rscale>
<asrwt>0</asrwt>
<pdfrwt beam="1">  1       21 0.10574059E+00 0.27081171E+03</pdfrwt>
<pdfrwt beam="2">  1        1 0.58278061E-01 0.27081171E+03</pdfrwt>
<totfact> 0.49216659E+02</totfact>
</mgrwt>
</event>
<event>
 5    0  0.2947253E-001  0.2498774E+03  0.7546771E-02  0.1113382E+00
         21   -1    0    0  501  502  0.00000000000E+00  0.00000000000E+00  0.19279988624E+03  0.19279988624E+03  0.00000000000E+00 0. -1.
         -2   -1    0    0    0  501 -0.00000000000E+00 -0.00000000000E+00 -0.53946306715E+03  0.53946306715E+03  0.00000000000E+00 0. -1.
         25    1    1    2    0    0 -0.11469851871E+03  0.18346105493E+03 -0.42690786700E+03  0.49466052579E+03  0.12500000000E+03 0.  0.
         21    1    1    2  501  501  0.65430046925E+02 -0.80199208899E+02  0.64891976373E+02  0.12216371289E+03  0.00000000000E+00 0. -1.
         -2    1    1    2    0  502  0.49268471785E+02 -0.10326184603E+03  0.15352709716E+02  0.11543871470E+03  0.00000000000E+00 0. -1.
<mgrwt>
<rscale>  4 0.24987739E+03</rscale>
<asrwt>0</asrwt>
<pdfrwt beam="1">  1       21 0.29661522E-01 0.24987739E+03</pdfrwt>
<pdfrwt beam="2">  1       -2 0.82994316E-01 0.24987739E+03</pdfrwt>
<totfact> 0.11518153E+03</totfact>
</mgrwt>
</event>
<event>
 5    0  0.2947253E-001  0.3072998E+03  0.7546771E-02  0.1081647E+00
         21   -1    0    0  503  502  0.00000000000E+00  0.00000000000E+00  0.22477050638E+03  0.22477050638E+03  0.00000000000E+00 0. -1.
          1   -1    0    0  502    0 -0.00000000000E+00 -0.00000000000E+00 -0.53125626227E+03  0.53125626227E+03  0.00000000000E+00 0.  1.
         25    1    1    2    0    0  0.16636589222E+03  0.22476727904E+03  0.19178827676E+02  0.30690514374E+03  0.12500000000E+03 0.  0.
         21    1    1    2  503  501 -0.17026234639E+02  0.17033493814E+02 -0.16593745980E+02  0.29246965366E+02  0.00000000000E+00 0.  1.
          1    1    1    2  501    0 -0.14933965758E+03 -0.24180077285E+03 -0.30907083759E+03  0.41987465954E+03  0.00000000000E+00 0.  1.
<mgrwt>
<rscale>  4 0.30729976E+03</rscale>
<asrwt>0</asrwt>
<pdfrwt beam="1">  1       21 0.34580078E-01 0.30729976E+03</pdfrwt>
<pdfrwt beam="2">  1        1 0.81731732E-01 0.30729976E+03</pdfrwt>
<totfact> 0.35869479E+03</totfact>
</mgrwt>
</event>
<event>
 5    0  0.2947253E-001  0.2608984E+03  0.7546771E-02  0.1106605E+00
         21   -1    0    0  503  502  0.00000000000E+00  0.00000000000E+00  0.39618051726E+03  0.39618051726E+03  0.00000000000E+00 0.  1.
          2   -1    0    0  502    0 -0.00000000000E+00 -0.00000000000E+00 -0.82856876241E+03  0.82856876241E+03  0.00000000000E+00 0.  1.
         25    1    1    2    0    0  0.22798179412E+03 -0.28433730015E+02  0.32825398564E+03  0.41971401518E+03  0.12500000000E+03 0.  0.
         21    1    1    2  503  501 -0.15255208508E+02 -0.15402678707E+02 -0.10510240780E+02  0.24092095368E+02  0.00000000000E+00 0.  1.
          2    1    1    2  501    0 -0.21272658561E+03  0.43836408722E+02 -0.75013199001E+03  0.78094316912E+03  0.00000000000E+00 0.  1.
<mgrwt>
<rscale>  4 0.26089836E+03</rscale>
<asrwt>0</asrwt>
<pdfrwt beam="1">  1       21 0.60950850E-01 0.26089836E+03</pdfrwt>
<pdfrwt beam="2">  1        2 0.12747212E+00 0.26089836E+03</pdfrwt>
<totfact> 0.10389253E+03</totfact>
</mgrwt>
</event>
<event>
 5    0  0.2947253E-001  0.2639387E+03  0.7546771E-02  0.1104800E+00
         21   -1    0    0  503  502  0.00000000000E+00  0.00000000000E+00  0.24233072106E+04  0.24233072106E+04  0.00000000000E+00 0.  1.
          1   -1    0    0  502    0 -0.00000000000E+00 -0.00000000000E+00 -0.74628137939E+02  0.74628137939E+02  0.00000000000E+00 0. -1.
         25    1    1    2    0    0  0.68007314192E+02 -0.29750936762E+03  0.18135109414E+04  0.18432535781E+04  0.12500000000E+03 0.  0.
         21    1    1    2  503  501 -0.50837767410E+02  0.15652876385E+03  0.47083175100E+03  0.49876674935E+03  0.00000000000E+00 0. -1.
          1    1    1    2  501    0 -0.17169546782E+02  0.14098060378E+03  0.64336380273E+02  0.15591502110E+03  0.00000000000E+00 0. -1.
<mgrwt>
<rscale>  4 0.26393866E+03</rscale>
<asrwt>0</asrwt>
<pdfrwt beam="1">  1       21 0.37281643E+00 0.26393866E+03</pdfrwt>
<pdfrwt beam="2">  1        1 0.11481254E-01 0.26393866E+03</pdfrwt>
<totfact> 0.66951418E+01</totfact>
</mgrwt>
</event>
<event>
 5    0  0.2947253E-001  0.2647451E+03  0.7546771E-02  0.1104325E+00
          2   -1    0    0  502    0 -0.00000000000E+00  0.00000000000E+00  0.10519963740E+04  0.10519963740E+04  0.00000000000E+00 0.  1.
         21   -1    0    0  503  502  0.00000000000E+00 -0.00000000000E+00 -0.26113973548E+03  0.26113973548E+03  0.00000000000E+00 0.  1.
         25    1    1    2    0    0 -0.20582268501E+03 -0.11000893937E+03 -0.17604459521E+03  0.31793339540E+03  0.12500000000E+03 0.  0.
         21    1    1    2  503  501  0.28966664116E+02  0.49865111218E+01  0.99732440719E+02  0.10397351901E+03  0.00000000000E+00 0. -1.
          2    1    1    2  501    0  0.17685602090E+03  0.10502242825E+03  0.86716879306E+03  0.89122919511E+03  0.00000000000E+00 0.  1.
<mgrwt>
<rscale>  4 0.26474506E+03</rscale>
<asrwt>0</asrwt>
<pdfrwt beam="1">  1       21 0.40175345E-01 0.26474506E+03</pdfrwt>
<pdfrwt beam="2">  1        2 0.16184559E+00 0.26474506E+03</pdfrwt>
<totfact> 0.17949512E+03</totfact>
</mgrwt>
</event>
<event>
 5    0  0.2947253E-001  0.2677123E+03  0.7546771E-02  0.1102596E+00
          2   -1    0    0  502    0 -0.00000000000E+00  0.00000000000E+00  0.18701292382E+04  0.18701292382E+04  0.00000000000E+00 0. -1.
         21   -1    0    0  503  502  0.00000000000E+00 -0.00000000000E+00 -0.99626931724E+02  0.99626931724E+02  0.00000000000E+00 0. -1.
         25    1    1    2    0    0 -0.90113291287E+02 -0.22298845212E+03  0.13170438749E+03  0.30135577102E+03  0.12500000000E+03 0.  0.
         21    1    1    2  503  501 -0.56167166862E+02  0.54526048570E+02  0.25541249922E+03  0.26713926212E+03  0.00000000000E+00 0. -1.
          2    1    1    2  501    0  0.14628045815E+03  0.16846240355E+03  0.13833854198E+04  0.14012611368E+04  0.00000000000E+00 0. -1.
<mgrwt>
<rscale>  4 0.26771227E+03</rscale>
<asrwt>0</asrwt>
<pdfrwt beam="1">  1       21 0.15327222E-01 0.26771227E+03</pdfrwt>
<pdfrwt beam="2">  1        2 0.28771216E+00 0.26771227E+03</pdfrwt>
<totfact> 0.41029095E+03</totfact>
</mgrwt>
</event>
<event>
 5    0  0.2947253E-001  0.2868070E+03  0.7546771E-02  0.1092028E+00
          2   -1    0    0  502    0 -0.00000000000E+00  0.00000000000E+00  0.16736449157E+04  0.16736449157E+04  0.00000000000E+00 0. -1.
         21   -1    0    0  503  502  0.00000000000E+00 -0.00000000000E+00 -0.23088213178E+03  0.23088213178E+03  0.00000000000E+00 0.  1.
         25    1    1    2    0    0 -0.13944044137E+03  0.21723165991E+03 -0.12462244616E+03  0.31271230363E+03  0.12500000000E+03 0.  0.
         21    1    1    2  503  501  0.46247039374E+02 -0.51209767677E+02  0.20763496438E+03  0.21880015400E+03  0.00000000000E+00 0.  1.
          2    1    1    2  501    0  0.93193401994E+02 -0.16602189223E+03  0.13597502657E+04  0.13730145898E+04  0.00000000000E+00 0. -1.
<mgrwt>
<rscale>  4 0.28680696E+03</rscale>
<asrwt>0</asrwt>
<pdfrwt beam="1">  1       21 0.35520329E-01 0.28680696E+03</pdfrwt>
<pdfrwt beam="2">  1        2 0.25748383E+00 0.28680696E+03</pdfrwt>
<totfact> 0.10323988E+03</totfact>
</mgrwt>
</event>
<event>
 5    0  0.2947253E-001  0.2482415E+03  0.7546771E-02  0.1114421E+00
         21   -1    0    0  501  502  0.00000000000E+00  0.00000000000E+00  0.73946941651E+02  0.73946941651E+02  0.00000000000E+00 0.  1.
         -3   -1    0    0    0  501 -0.00000000000E+00 -0.00000000000E+00 -0.78008237845E+03  0.78008237845E+03  0.00000000000E+00 0.  1.
         25    1    1    2    0    0 -0.16094280467E+03 -0.14176134521E+03 -0.30251999594E+03  0.39133388981E+03  0.12500000000E+03 0.  0.
         21    1    1    2  501  501  0.38307825921E+02  0.68718129012E+02 -0.10032361215E+03  0.12749312897E+03  0.00000000000E+00 0. -1.
         -3    1    1    2    0  502  0.12263497875E+03  0.73043216197E+02 -0.30329182871E+03  0.33520230132E+03  0.00000000000E+00 0.  1.
<mgrwt>
<rscale>  4 0.24824155E+03</rscale>
<asrwt>0</asrwt>
<pdfrwt beam="1">  1       21 0.11376453E-01 0.24824155E+03</pdfrwt>
<pdfrwt beam="2">  1       -3 0.12001267E+00 0.24824155E+03</pdfrwt>
<totfact> 0.18851542E+03</totfact>
</mgrwt>
</event>
<event>
 5    0  0.2947253E-001  0.2595002E+03  0.7546771E-02  0.1107444E+00
         -1   -1    0    0    0  501 -0.00000000000E+00  0.00000000000E+00  0.10239458558E+04  0.10239458558E+04  0.00000000000E+00 0.  1.
         21   -1    0    0  501  502  0.00000000000E+00 -0.00000000000E+00 -0.17386867379E+03  0.17386867379E+03  0.00000000000E+00 0.  1.
         25    1    1    2    0    0 -0.21216330894E+03 -0.81866330707E+02 -0.53950964248E+02  0.26504918847E+03  0.12500000000E+03 0.  0.
         21    1    1    2  501  501  0.24115866894E+02  0.13870335714E+02  0.75921469817E+02  0.80858090678E+02  0.00000000000E+00 0.  1.
         -1    1    1    2    0  502  0.18804744205E+03  0.67995994992E+02  0.82810667639E+03  0.85190725040E+03  0.00000000000E+00 0.  1.
<mgrwt>
<rscale>  4 0.25950022E+03</rscale>
<asrwt>0</asrwt>
<pdfrwt beam="1">  1       21 0.26749027E-01 0.25950022E+03</pdfrwt>
<pdfrwt beam="2">  1       -1 0.15753013E+00 0.25950022E+03</pdfrwt>
<totfact> 0.40618504E+02</totfact>
</mgrwt>
</event>
<event>
 5    0  0.2947253E-001  0.2404548E+03  0.7546771E-02  0.1119490E+00
         21   -1    0    0  503  502  0.00000000000E+00  0.00000000000E+00  0.21615535580E+03  0.21615535580E+03  0.00000000000E+00 0.  1.
          1   -1    0    0  502    0 -0.00000000000E+00 -0.00000000000E+00 -0.25631258920E+03  0.25631258920E+03  0.00000000000E+00 0. -1.
         25    1    1    2    0    0  0.13477242073E+03  0.15501576711E+03  0.49863982227E+02  0.24557058082E+03  0.12500000000E+03 0.  0.
         21    1    1    2  503  501 -0.22477267354E+02 -0.15265477753E+02 -0.22669557534E+02  0.35386031107E+02  0.00000000000E+00 0. -1.
          1    1    1    2  501    0 -0.11229515338E+03 -0.13975028935E+03 -0.67351658100E+02  0.19151133307E+03  0.00000000000E+00 0. -1.
<mgrwt>
<rscale>  4 0.24045476E+03</rscale>
<asrwt>0</asrwt>
<pdfrwt beam="1">  1       21 0.33254670E-01 0.24045476E+03</pdfrwt>
<pdfrwt beam="2">  1        1 0.39432706E-01 0.24045476E+03</pdfrwt>
<totfact> 0.10059355E+04</totfact>
</mgrwt>
</event>
<event>
 5    0  0.2947253E-001  0.3576084E+03  0.7546771E-02  0.1059535E+00
         21   -1    0    0  501  502  0.00000000000E+00  0.00000000000E+00  0.14486282423E+03  0.14486282423E+03  0.00000000000E+00 0.  1.
         -3   -1    0    0    0  501 -0.00000000000E+00 -0.00000000000E+00 -0.92465494394E+03  0.92465494394E+03  0.00000000000E+00 0. -1.
         25    1    1    2    0    0 -0.32105745388E+03  0.13624702299E+02 -0.36369344416E+03  0.50116009670E+03  0.12500000000E+03 0.  0.
         21    1    1    2  501  501 -0.25937440578E+02  0.26785221189E+02 -0.49421768258E+02  0.61908885272E+02  0.00000000000E+00 0.  1.
         -3    1    1    2    0  502  0.34699489446E+03 -0.40409923488E+02 -0.36667690729E+03  0.50644878619E+03  0.00000000000E+00 0. -1.
<mgrwt>
<rscale>  4 0.35760837E+03</rscale>
<asrwt>0</asrwt>
<pdfrwt beam="1">  1       21 0.22286588E-01 0.35760837E+03</pdfrwt>
<pdfrwt beam="2">  1       -3 0.14225461E+00 0.35760837E+03</pdfrwt>
<totfact> 0.35447414E+02</totfact>
</mgrwt>
</event>
<event>
 5    0  0.3051164E-001  0.2970311E+03  0.7546771E-02  0.1086734E+00
         21   -1    0    0  503  502  0.00000000000E+00  0.00000000000E+00  0.27728064766E+03  0.27728064766E+03  0.00000000000E+00 0.  1.
          1   -1    0    0  502    0 -0.00000000000E+00 -0.00000000000E+00 -0.75360845611E+03  0.75360845611E+03  0.00000000000E+00 0.  1.
         25    1    1    2    0    0 -0.51310255573E+02 -0.26451796651E+03  0.15925224645E+03  0.33702933839E+03  0.12500000000E+03 0.  0.
         21    1    1    2  503  501 -0.14711762408E+02  0.20663386546E+02 -0.48584073867E+02  0.54807150356E+02  0.00000000000E+00 0.  1.
          1    1    1    2  501    0  0.66022017981E+02  0.24385457997E+03 -0.58699598103E+03  0.63905261503E+03  0.00000000000E+00 0.  1.
<mgrwt>
<rscale>  4 0.29703114E+03</rscale>
<asrwt>0</asrwt>
<pdfrwt beam="1">  1       21 0.42658560E-01 0.29703114E+03</pdfrwt>
<pdfrwt beam="2">  1        1 0.11593976E+00 0.29703114E+03</pdfrwt>
<totfact> 0.14265392E+03</totfact>
</mgrwt>
</event>
<event>
 5    0  0.2947253E-001  0.3066024E+03  0.7546771E-02  0.1081986E+00
          2   -1    0    0  502    0 -0.00000000000E+00  0.00000000000E+00  0.34490845952E+03  0.34490845952E+03  0.00000000000E+00 0. -1.
         21   -1    0    0  503  502  0.00000000000E+00 -0.00000000000E+00 -0.42817071101E+03  0.42817071101E+03  0.00000000000E+00 0. -1.
         25    1    1    2    0    0  0.25506277773E+03 -0.15311973344E+03 -0.22400932205E+03  0.39282037844E+03  0.12500000000E+03 0.  0.
         21    1    1    2  503  501 -0.10348548408E+02  0.86874254966E+02  0.82239121398E+02  0.12007290168E+03  0.00000000000E+00 0. -1.
          2    1    1    2  501    0 -0.24471422932E+03  0.66245478470E+02  0.58507949165E+02  0.26018589041E+03  0.00000000000E+00 0. -1.
<mgrwt>
<rscale>  4 0.30660240E+03</rscale>
<asrwt>0</asrwt>
<pdfrwt beam="1">  1       21 0.65872417E-01 0.30660240E+03</pdfrwt>
<pdfrwt beam="2">  1        2 0.53062840E-01 0.30660240E+03</pdfrwt>
<totfact> 0.23801889E+03</totfact>
</mgrwt>
</event>
<event>
 5    0  0.2947253E-001  0.2362798E+03  0.7546771E-02  0.1122296E+00
         21   -1    0    0  503  502  0.00000000000E+00  0.00000000000E+00  0.15145897828E+03  0.15145897828E+03  0.00000000000E+00 0. -1.
          2   -1    0    0  502    0 -0.00000000000E+00 -0.00000000000E+00 -0.12582630220E+04  0.12582630220E+04  0.00000000000E+00 0. -1.
         25    1    1    2    0    0 -0.14887322996E+03  0.14832676044E+03  0.10792811606E+02  0.24475610563E+03  0.12500000000E+03 0.  0.
         21    1    1    2  503  501  0.38078940461E+02 -0.18342075503E+03 -0.45173254834E+03  0.48903524853E+03  0.00000000000E+00 0. -1.
          2    1    1    2  501    0  0.11079428950E+03  0.35093994591E+02 -0.66586430701E+03  0.67593064614E+03  0.00000000000E+00 0. -1.
<mgrwt>
<rscale>  4 0.23627982E+03</rscale>
<asrwt>0</asrwt>
<pdfrwt beam="1">  1       21 0.23301381E-01 0.23627982E+03</pdfrwt>
<pdfrwt beam="2">  1        2 0.19357893E+00 0.23627982E+03</pdfrwt>
<totfact> 0.40286237E+03</totfact>
</mgrwt>
</event>
<event>
 5    0  0.2947253E-001  0.2197954E+03  0.7546771E-02  0.1134036E+00
         -1   -1    0    0    0  501 -0.00000000000E+00  0.00000000000E+00  0.16775590622E+04  0.16775590622E+04  0.00000000000E+00 0.  1.
         21   -1    0    0  501  502  0.00000000000E+00 -0.00000000000E+00 -0.60427365426E+02  0.60427365426E+02  0.00000000000E+00 0.  1.
         25    1    1    2    0    0  0.75429080645E+02  0.21653717039E+03  0.40742670861E+03  0.48394154116E+03  0.12500000000E+03 0.  0.
         21    1    1    2  501  501 -0.59929423029E+01 -0.58253471768E+02  0.38337656555E+02  0.69993987175E+02  0.00000000000E+00 0.  1.
         -1    1    1    2    0  502 -0.69436138342E+02 -0.15828369862E+03  0.11713673316E+04  0.11840508993E+04  0.00000000000E+00 0.  1.
<mgrwt>
<rscale>  4 0.21979542E+03</rscale>
<asrwt>0</asrwt>
<pdfrwt beam="1">  1       21 0.92965190E-02 0.21979542E+03</pdfrwt>
<pdfrwt beam="2">  1       -1 0.25808597E+00 0.21979542E+03</pdfrwt>
<totfact> 0.61759877E+02</totfact>
</mgrwt>
</event>
<event>
 5    0  0.2947253E-001  0.3241253E+03  0.7546771E-02  0.1073766E+00
         21   -1    0    0  503  502  0.00000000000E+00  0.00000000000E+00  0.93142273227E+02  0.93142273227E+02  0.00000000000E+00 0.  1.
          2   -1    0    0  502    0 -0.00000000000E+00 -0.00000000000E+00 -0.11761339320E+04  0.11761339320E+04  0.00000000000E+00 0. -1.
         25    1    1    2    0    0  0.79858692229E+01 -0.29894552590E+03 -0.35937986718E+03  0.48395360366E+03  0.12500000000E+03 0.  0.
         21    1    1    2  503  501 -0.45238741061E+01  0.19753082508E+03 -0.39936664436E+03  0.44556998207E+03  0.00000000000E+00 0. -1.
          2    1    1    2  501    0 -0.34619951168E+01  0.10141470082E+03 -0.32424514719E+03  0.33975261946E+03  0.00000000000E+00 0. -1.
<mgrwt>
<rscale>  4 0.32412529E+03</rscale>
<asrwt>0</asrwt>
<pdfrwt beam="1">  1       21 0.14329582E-01 0.32412529E+03</pdfrwt>
<pdfrwt beam="2">  1        2 0.18094367E+00 0.32412529E+03</pdfrwt>
<totfact> 0.10854243E+04</totfact>
</mgrwt>
</event>
<event>
 5    0  0.2947253E-001  0.2414880E+03  0.7546771E-02  0.1118806E+00
          1   -1    0    0  502    0 -0.00000000000E+00  0.00000000000E+00  0.10803229029E+04  0.10803229029E+04  0.00000000000E+00 0. -1.
         21   -1    0    0  503  502  0.00000000000E+00 -0.00000000000E+00 -0.78468481703E+02  0.78468481703E+02  0.00000000000E+00 0.  1.
         25    1    1    2    0    0 -0.20568103348E+03 -0.19666107793E+02  0.15586797330E+03  0.28742176053E+03  0.12500000000E+03 0.  0.
         21    1    1    2  503  501  0.29178061393E+02  0.12954346635E+02  0.11535494224E+03  0.11969100661E+03  0.00000000000E+00 0. -1.
          1    1    1    2  501    0  0.17650297208E+03  0.67117611578E+01  0.73063150566E+03  0.75167861747E+03  0.00000000000E+00 0. -1.
<mgrwt>
<rscale>  4 0.24148798E+03</rscale>
<asrwt>0</asrwt>
<pdfrwt beam="1">  1       21 0.12072075E-01 0.24148798E+03</pdfrwt>
<pdfrwt beam="2">  1        1 0.16620351E+00 0.24148798E+03</pdfrwt>
<totfact> 0.89867472E+03</totfact>
</mgrwt>
</event>
<event>
 5    0  0.2947253E-001  0.2501157E+03  0.7546771E-02  0.1113232E+00
         21   -1    0    0  503  502  0.00000000000E+00  0.00000000000E+00  0.74410605304E+03  0.74410605304E+03  0.00000000000E+00 0.  1.
          2   -1    0    0  502    0 -0.00000000000E+00 -0.00000000000E+00 -0.13274110275E+04  0.13274110275E+04  0.00000000000E+00 0. -1.
         25    1    1    2    0    0  0.17270980407E+03 -0.13078306206E+03  0.71233055638E+03  0.75496536828E+03  0.12500000000E+03 0.  0.
         21    1    1    2  503  501 -0.10598324608E+03  0.12022170619E+03 -0.76310688734E+03  0.77975497985E+03  0.00000000000E+00 0. -1.
          2    1    1    2  501    0 -0.66726557993E+02  0.10561355868E+02 -0.53252864347E+03  0.53679673238E+03  0.00000000000E+00 0. -1.
<mgrwt>
<rscale>  4 0.25011574E+03</rscale>
<asrwt>0</asrwt>
<pdfrwt beam="1">  1       21 0.11447786E+00 0.25011574E+03</pdfrwt>
<pdfrwt beam="2">  1        2 0.20421708E+00 0.25011574E+03</pdfrwt>
<totfact> 0.12277663E+02</totfact>
</mgrwt>
</event>
<event>
 5    0  0.2947253E-001  0.2246724E+03  0.7546771E-02  0.1130447E+00
          2   -1    0    0  502    0 -0.00000000000E+00  0.00000000000E+00  0.21327601932E+04  0.21327601932E+04  0.00000000000E+00 0. -1.
         21   -1    0    0  503  502  0.00000000000E+00 -0.00000000000E+00 -0.42974701296E+02  0.42974701296E+02  0.00000000000E+00 0. -1.
         25    1    1    2    0    0  0.19210084041E+03  0.10739015125E+03  0.10809036491E+04  0.11101410163E+04  0.12500000000E+03 0.  0.
         21    1    1    2  503  501 -0.77982169462E+01 -0.14529873248E+03  0.56587998533E+03  0.58428819229E+03  0.00000000000E+00 0. -1.
          2    1    1    2  501    0 -0.18430262347E+03  0.37908581235E+02  0.44300185751E+03  0.48130568592E+03  0.00000000000E+00 0. -1.
<mgrwt>
<rscale>  4 0.22467242E+03</rscale>
<asrwt>0</asrwt>
<pdfrwt beam="1">  1       21 0.66114942E-02 0.22467242E+03</pdfrwt>
<pdfrwt beam="2">  1        2 0.32811687E+00 0.22467242E+03</pdfrwt>
<totfact> 0.13545964E+04</totfact>
</mgrwt>
</event>
<event>
 5    0  0.2947253E-001  0.2085042E+03  0.7546771E-02  0.1142756E+00
          3   -1    0    0  502    0 -0.00000000000E+00  0.00000000000E+00  0.40008666617E+03  0.40008666617E+03  0.00000000000E+00 0.  1.
         21   -1    0    0  503  502  0.00000000000E+00 -0.00000000000E+00 -0.17373161881E+03  0.17373161881E+03  0.00000000000E+00 0.  1.
         25    1    1    2    0    0  0.10548427918E+03 -0.19629973958E+03  0.39573939648E+02  0.25855679765E+03  0.12500000000E+03 0.  0.
         21    1    1    2  503  501 -0.97144941553E+02  0.92573199040E+02  0.49568824581E+02  0.14305245618E+03  0.00000000000E+00 0.  1.
          3    1    1    2  501    0 -0.83393376265E+01  0.10372654054E+03  0.13721228314E+03  0.17220903115E+03  0.00000000000E+00 0.  1.
<mgrwt>
<rscale>  4 0.20850417E+03</rscale>
<asrwt>0</asrwt>
<pdfrwt beam="1">  1       21 0.26727941E-01 0.20850417E+03</pdfrwt>
<pdfrwt beam="2">  1        3 0.61551795E-01 0.20850417E+03</pdfrwt>
<totfact> 0.17178558E+03</totfact>
</mgrwt>
</event>
<event>
 5    0  0.2947253E-001  0.3067304E+03  0.7546771E-02  0.1081924E+00
          2   -1    0    0  502    0 -0.00000000000E+00  0.00000000000E+00  0.22683525060E+04  0.22683525060E+04  0.00000000000E+00 0.  1.
         21   -1    0    0  503  502  0.00000000000E+00 -0.00000000000E+00 -0.24272033831E+03  0.24272033831E+03  0.00000000000E+00 0. -1.
         25    1    1    2    0    0  0.26941290115E+03  0.76650061919E+02 -0.13198798125E+03  0.33392270138E+03  0.12500000000E+03 0.  0.
         21    1    1    2  503  501 -0.96583096350E+02 -0.25358418372E+02  0.50902308072E+03  0.51872520720E+03  0.00000000000E+00 0.  1.
          2    1    1    2  501    0 -0.17282980480E+03 -0.51291643547E+02  0.16485970682E+04  0.16584249358E+04  0.00000000000E+00 0.  1.
<mgrwt>
<rscale>  4 0.30673041E+03</rscale>
<asrwt>0</asrwt>
<pdfrwt beam="1">  1       21 0.37341592E-01 0.30673041E+03</pdfrwt>
<pdfrwt beam="2">  1        2 0.34897729E+00 0.30673041E+03</pdfrwt>
<totfact> 0.44757185E+02</totfact>
</mgrwt>
</event>
<event>
 5    0  0.2947253E-001  0.2736512E+03  0.7546771E-02  0.1099208E+00
          4   -1    0    0  502    0 -0.00000000000E+00  0.00000000000E+00  0.23838351832E+03  0.23838351832E+03  0.00000000000E+00 0. -1.
         21   -1    0    0  503  502  0.00000000000E+00 -0.00000000000E+00 -0.53827064631E+03  0.53827064631E+03  0.00000000000E+00 0.  1.
         25    1    1    2    0    0  0.23115763418E+03 -0.76329210202E+02 -0.41813167927E+03  0.49971902243E+03  0.12500000000E+03 0.  0.
         21    1    1    2  503  501 -0.51518240443E+02  0.13205635800E+02  0.73940187492E+00  0.53188952146E+02  0.00000000000E+00 0.  1.
          4    1    1    2  501    0 -0.17963939374E+03  0.63123574402E+02  0.11750514940E+03  0.22374619005E+03  0.00000000000E+00 0. -1.
<mgrwt>
<rscale>  4 0.27365124E+03</rscale>
<asrwt>0</asrwt>
<pdfrwt beam="1">  1       21 0.82810867E-01 0.27365124E+03</pdfrwt>
<pdfrwt beam="2">  1        4 0.36674388E-01 0.27365124E+03</pdfrwt>
<totfact> 0.38188078E+02</totfact>
</mgrwt>
</event>
<event>
 5    0  0.2947253E-001  0.2480683E+03  0.7546771E-02  0.1114532E+00
          3   -1    0    0  502    0 -0.00000000000E+00  0.00000000000E+00  0.13489331430E+04  0.13489331430E+04  0.00000000000E+00 0.  1.
         21   -1    0    0  503  502  0.00000000000E+00 -0.00000000000E+00 -0.16465427604E+03  0.16465427604E+03  0.00000000000E+00 0. -1.
         25    1    1    2    0    0  0.15731558999E+03  0.14271796897E+03 -0.50467806584E+02  0.25157228190E+03  0.12500000000E+03 0.  0.
         21    1    1    2  503  501  0.24052123665E+02  0.76470764209E+01  0.10972752773E+03  0.11259268526E+03  0.00000000000E+00 0.  1.
          3    1    1    2  501    0 -0.18136771365E+03 -0.15036504539E+03  0.11250191458E+04  0.11494224519E+04  0.00000000000E+00 0.  1.
<mgrwt>
<rscale>  4 0.24806833E+03</rscale>
<asrwt>0</asrwt>
<pdfrwt beam="1">  1       21 0.25331428E-01 0.24806833E+03</pdfrwt>
<pdfrwt beam="2">  1        3 0.20752817E+00 0.24806833E+03</pdfrwt>
<totfact> 0.10420677E+02</totfact>
</mgrwt>
</event>
<event>
 5    0  0.2947253E-001  0.2787038E+03  0.7546771E-02  0.1096399E+00
          1   -1    0    0  502    0 -0.00000000000E+00  0.00000000000E+00  0.25181882661E+03  0.25181882661E+03  0.00000000000E+00 0. -1.
         21   -1    0    0  503  502  0.00000000000E+00 -0.00000000000E+00 -0.36085057086E+03  0.36085057086E+03  0.00000000000E+00 0.  1.
         25    1    1    2    0    0  0.13375718615E+03 -0.20252158375E+03  0.45028151487E+02  0.27669208727E+03  0.12500000000E+03 0.  0.
         21    1    1    2  503  501  0.23646130393E+02  0.56790013613E+01  0.18475851159E+02  0.30540917063E+02  0.00000000000E+00 0. -1.
          1    1    1    2  501    0 -0.15740331654E+03  0.19684258238E+03 -0.17253574689E+03  0.30543639314E+03  0.00000000000E+00 0. -1.
<mgrwt>
<rscale>  4 0.27870381E+03</rscale>
<asrwt>0</asrwt>
<pdfrwt beam="1">  1       21 0.55515472E-01 0.27870381E+03</pdfrwt>
<pdfrwt beam="2">  1        1 0.38741358E-01 0.27870381E+03</pdfrwt>
<totfact> 0.35560323E+03</totfact>
</mgrwt>
</event>
<event>
 5    0  0.2947253E-001  0.8091834E+03  0.7546771E-02  0.9549066E-01
         21   -1    0    0  501  502  0.00000000000E+00  0.00000000000E+00  0.12683255156E+04  0.12683255156E+04  0.00000000000E+00 0. -1.
         -1   -1    0    0    0  501 -0.00000000000E+00 -0.00000000000E+00 -0.52445077634E+03  0.52445077634E+03  0.00000000000E+00 0. -1.
         25    1    1    2    0    0 -0.68583259873E+02 -0.79014920364E+03  0.50719334195E+03  0.94968916687E+03  0.12500000000E+03 0.  0.
         21    1    1    2  501  501 -0.40057815003E+02  0.13695112881E+03  0.76138109611E+02  0.16173203752E+03  0.00000000000E+00 0. -1.
         -1    1    1    2    0  502  0.10864107488E+03  0.65319807483E+03  0.16054328769E+03  0.68135508756E+03  0.00000000000E+00 0. -1.
<mgrwt>
<rscale>  4 0.80761048E+03</rscale>
<asrwt>0</asrwt>
<pdfrwt beam="1">  1       21 0.19512700E+00 0.80918343E+03</pdfrwt>
<pdfrwt beam="2">  1       -1 0.80684735E-01 0.80918343E+03</pdfrwt>
<totfact> 0.16379517E+01</totfact>
</mgrwt>
</event>
<event>
 5    0  0.2947253E-001  0.3883795E+03  0.7546771E-02  0.1047879E+00
         21   -1    0    0  503  502  0.00000000000E+00  0.00000000000E+00  0.33447971132E+03  0.33447971132E+03  0.00000000000E+00 0. -1.
          2   -1    0    0  502    0 -0.00000000000E+00 -0.00000000000E+00 -0.69249121739E+03  0.69249121739E+03  0.00000000000E+00 0. -1.
         25    1    1    2    0    0  0.34869756167E+03  0.11672045653E+03  0.12639810549E+03  0.40843008650E+03  0.12500000000E+03 0.  0.
         21    1    1    2  503  501 -0.30640915185E+02  0.20850426587E+02 -0.34396226360E+02  0.50563883949E+02  0.00000000000E+00 0. -1.
          2    1    1    2  501    0 -0.31805664649E+03 -0.13757088312E+03 -0.45001338520E+03  0.56797695826E+03  0.00000000000E+00 0. -1.
<mgrwt>
<rscale>  4 0.38837952E+03</rscale>
<asrwt>0</asrwt>
<pdfrwt beam="1">  1       21 0.51458418E-01 0.38837952E+03</pdfrwt>
<pdfrwt beam="2">  1        2 0.10653711E+00 0.38837952E+03</pdfrwt>
<totfact> 0.17990126E+03</totfact>
</mgrwt>
</event>
<event>
 5    0  0.2947253E-001  0.2396855E+03  0.7546771E-02  0.1120003E+00
         21   -1    0    0  503  502  0.00000000000E+00  0.00000000000E+00  0.98216889289E+02  0.98216889289E+02  0.00000000000E+00 0. -1.
          1   -1    0    0  502    0 -0.00000000000E+00 -0.00000000000E+00 -0.69740007048E+03  0.69740007048E+03  0.00000000000E+00 0.  1.
         25    1    1    2    0    0 -0.24815935237E+02  0.20299827711E+03 -0.11195393478E+03  0.26454265188E+03  0.12500000000E+03 0.  0.
         21    1    1    2  503  501 -0.10870671806E+02 -0.17463866341E+02 -0.72010512516E+02  0.74891067865E+02  0.00000000000E+00 0. -1.
          1    1    1    2  501    0  0.35686607043E+02 -0.18553441077E+03 -0.41521873390E+03  0.45618324003E+03  0.00000000000E+00 0.  1.
<mgrwt>
<rscale>  4 0.23968548E+03</rscale>
<asrwt>0</asrwt>
<pdfrwt beam="1">  1       21 0.15110290E-01 0.23968548E+03</pdfrwt>
<pdfrwt beam="2">  1        1 0.10729232E+00 0.23968548E+03</pdfrwt>
<totfact> 0.12092321E+04</totfact>
</mgrwt>
</event>
<event>
 5    0  0.2947253E-001  0.2379061E+03  0.7546771E-02  0.1121196E+00
         21   -1    0    0  501  502  0.00000000000E+00  0.00000000000E+00  0.23774929417E+03  0.23774929417E+03  0.00000000000E+00 0. -1.
         -1   -1    0    0    0  501 -0.00000000000E+00 -0.00000000000E+00 -0.39675838294E+03  0.39675838294E+03  0.00000000000E+00 0.  1.
         25    1    1    2    0    0 -0.15879662146E+03 -0.12499272900E+03  0.11916297434E+03  0.26582769559E+03  0.12500000000E+03 0.  0.
         21    1    1    2  501  501 -0.21952260351E+02  0.26164050690E+02 -0.25219098857E+02  0.42455414616E+02  0.00000000000E+00 0. -1.
         -1    1    1    2    0  502  0.18074888181E+03  0.98828678307E+02 -0.25295296425E+03  0.32622456691E+03  0.00000000000E+00 0.  1.
<mgrwt>
<rscale>  4 0.23790611E+03</rscale>
<asrwt>0</asrwt>
<pdfrwt beam="1">  1       21 0.36576815E-01 0.23790611E+03</pdfrwt>
<pdfrwt beam="2">  1       -1 0.61039751E-01 0.23790611E+03</pdfrwt>
<totfact> 0.18555378E+03</totfact>
</mgrwt>
</event>
<event>
 5    0  0.2947253E-001  0.2383928E+03  0.7546771E-02  0.1120868E+00
          2   -1    0    0  502    0 -0.00000000000E+00  0.00000000000E+00  0.26139345371E+04  0.26139345371E+04  0.00000000000E+00 0.  1.
         21   -1    0    0  503  502  0.00000000000E+00 -0.00000000000E+00 -0.24432063059E+02  0.24432063059E+02  0.00000000000E+00 0.  1.
         25    1    1    2    0    0  0.91012729581E+02 -0.19130215370E+03  0.87911051841E+03  0.91287465434E+03  0.12500000000E+03 0.  0.
         21    1    1    2  503  501  0.52400284415E+01  0.26553095056E+02  0.44208951118E+03  0.44291721648E+03  0.00000000000E+00 0.  1.
          2    1    1    2  501    0 -0.96252758022E+02  0.16474905865E+03  0.12683024444E+04  0.12825747293E+04  0.00000000000E+00 0.  1.
<mgrwt>
<rscale>  4 0.23839275E+03</rscale>
<asrwt>0</asrwt>
<pdfrwt beam="1">  1       21 0.37587810E-02 0.23839275E+03</pdfrwt>
<pdfrwt beam="2">  1        2 0.40214355E+00 0.23839275E+03</pdfrwt>
<totfact> 0.19420345E+04</totfact>
</mgrwt>
</event>
<event>
 5    0  0.2947253E-001  0.2403564E+03  0.7546771E-02  0.1119556E+00
         21   -1    0    0  503  502  0.00000000000E+00  0.00000000000E+00  0.81835565998E+02  0.81835565998E+02  0.00000000000E+00 0.  1.
          2   -1    0    0  502    0 -0.00000000000E+00 -0.00000000000E+00 -0.97934878592E+03  0.97934878592E+03  0.00000000000E+00 0.  1.
         25    1    1    2    0    0 -0.22503306738E+03 -0.84930267841E+02 -0.32039670921E+03  0.41968093009E+03  0.12500000000E+03 0.  0.
         21    1    1    2  503  501  0.50283324933E+02  0.11511022882E+01 -0.24608694533E+02  0.55993978688E+02  0.00000000000E+00 0. -1.
          2    1    1    2  501    0  0.17474974245E+03  0.83779165553E+02 -0.55250781618E+03  0.58550944314E+03  0.00000000000E+00 0.  1.
<mgrwt>
<rscale>  4 0.24035641E+03</rscale>
<asrwt>0</asrwt>
<pdfrwt beam="1">  1       21 0.12590087E-01 0.24035641E+03</pdfrwt>
<pdfrwt beam="2">  1        2 0.15066905E+00 0.24035641E+03</pdfrwt>
<totfact> 0.18311765E+04</totfact>
</mgrwt>
</event>
<event>
 5    0  0.2947253E-001  0.5216384E+03  0.7546771E-02  0.1008889E+00
          2   -1    0    0  502    0 -0.00000000000E+00  0.00000000000E+00  0.10383688932E+04  0.10383688932E+04  0.00000000000E+00 0.  1.
         21   -1    0    0  503  502  0.00000000000E+00 -0.00000000000E+00 -0.25973090254E+03  0.25973090254E+03  0.00000000000E+00 0.  1.
         25    1    1    2    0    0  0.47932625789E+03  0.12909387288E+03  0.32141419212E+03  0.60444269573E+03  0.12500000000E+03 0.  0.
         21    1    1    2  503  501 -0.54496122972E+02 -0.23668246044E+02 -0.17286180341E+01  0.59439056268E+02  0.00000000000E+00 0.  1.
          2    1    1    2  501    0 -0.42483013492E+03 -0.10542562683E+03  0.45895241654E+03  0.63421804372E+03  0.00000000000E+00 0.  1.
<mgrwt>
<rscale>  4 0.51918710E+03</rscale>
<asrwt>0</asrwt>
<pdfrwt beam="1">  1       21 0.39958601E-01 0.52163835E+03</pdfrwt>
<pdfrwt beam="2">  1        2 0.15974906E+00 0.52163835E+03</pdfrwt>
<totfact> 0.17257397E+03</totfact>
</mgrwt>
</event>
<event>
 5    0  0.2947253E-001  0.3004974E+03  0.7546771E-02  0.1084992E+00
         21   -1    0    0  503  502  0.00000000000E+00  0.00000000000E+00  0.22717022405E+04  0.22717022405E+04  0.00000000000E+00 0. -1.
          4   -1    0    0  502    0 -0.00000000000E+00 -0.00000000000E+00 -0.33829580905E+03  0.33829580905E+03  0.00000000000E+00 0.  1.
         25    1    1    2    0    0 -0.24576644861E+03 -0.12118938889E+03  0.21871516998E+04  0.22077920132E+04  0.12500000000E+03 0.  0.
         21    1    1    2  503  501  0.41045349067E+02 -0.35130447055E+02 -0.35985616897E+02  0.64914047893E+02  0.00000000000E+00 0. -1.
          4    1    1    2  501    0  0.20472109954E+03  0.15631983595E+03 -0.21775965148E+03  0.33729198852E+03  0.00000000000E+00 0.  1.
<mgrwt>
<rscale>  4 0.30049744E+03</rscale>
<asrwt>0</asrwt>
<pdfrwt beam="1">  1       21 0.34949264E+00 0.30049744E+03</pdfrwt>
<pdfrwt beam="2">  1        4 0.52045511E-01 0.30049744E+03</pdfrwt>
<totfact> 0.23851829E+00</totfact>
</mgrwt>
</event>
<event>
 5    0  0.2947253E-001  0.2844436E+03  0.7546771E-02  0.1093372E+00
          1   -1    0    0  502    0 -0.00000000000E+00  0.00000000000E+00  0.61900012237E+03  0.61900012237E+03  0.00000000000E+00 0.  1.
         21   -1    0    0  503  502  0.00000000000E+00 -0.00000000000E+00 -0.71299267130E+03  0.71299267130E+03  0.00000000000E+00 0.  1.
         25    1    1    2    0    0 -0.24941034336E+03  0.52104945581E+02 -0.64900026198E+03  0.70834086765E+03  0.12500000000E+03 0.  0.
         21    1    1    2  503  501  0.12861094378E+03 -0.22782648231E+02  0.14471456432E+03  0.19494134770E+03  0.00000000000E+00 0.  1.
          1    1    1    2  501    0  0.12079939958E+03 -0.29322297349E+02  0.41029314874E+03  0.42871057832E+03  0.00000000000E+00 0.  1.
<mgrwt>
<rscale>  4 0.28428389E+03</rscale>
<asrwt>0</asrwt>
<pdfrwt beam="1">  1       21 0.10969118E+00 0.28444360E+03</pdfrwt>
<pdfrwt beam="2">  1        1 0.95230789E-01 0.28444360E+03</pdfrwt>
<totfact> 0.23227939E+02</totfact>
</mgrwt>
</event>
<event>
 5    0  0.2947253E-001  0.2901157E+03  0.7546771E-02  0.1090289E+00
          2   -1    0    0  502    0 -0.00000000000E+00  0.00000000000E+00  0.74511046854E+03  0.74511046854E+03  0.00000000000E+00 0. -1.
         21   -1    0    0  503  502  0.00000000000E+00 -0.00000000000E+00 -0.44702761832E+03  0.44702761832E+03  0.00000000000E+00 0. -1.
         25    1    1    2    0    0 -0.25402662604E+03  0.63344851732E+02 -0.37208184486E+03  0.47181775746E+03  0.12500000000E+03 0.  0.
         21    1    1    2  503  501  0.26748468655E+02 -0.12271876217E+02  0.10459465284E+03  0.10865597509E+03  0.00000000000E+00 0.  1.
          2    1    1    2  501    0  0.22727815738E+03 -0.51072975515E+02  0.56557004224E+03  0.61166435431E+03  0.00000000000E+00 0. -1.
<mgrwt>
<rscale>  4 0.29011566E+03</rscale>
<asrwt>0</asrwt>
<pdfrwt beam="1">  1       21 0.68773480E-01 0.29011566E+03</pdfrwt>
<pdfrwt beam="2">  1        2 0.11463238E+00 0.29011566E+03</pdfrwt>
<totfact> 0.90129552E+02</totfact>
</mgrwt>
</event>
<event>
 5    0  0.2947253E-001  0.2776599E+03  0.7546771E-02  0.1096974E+00
         21   -1    0    0  503  502  0.00000000000E+00  0.00000000000E+00  0.14822916384E+03  0.14822916384E+03  0.00000000000E+00 0. -1.
          2   -1    0    0  502    0 -0.00000000000E+00 -0.00000000000E+00 -0.24120768302E+04  0.24120768302E+04  0.00000000000E+00 0. -1.
         25    1    1    2    0    0  0.21375596372E+03 -0.12561204377E+03  0.31291262454E+01  0.27767749098E+03  0.12500000000E+03 0.  0.
         21    1    1    2  503  501 -0.64357947073E+02  0.29429390046E+02 -0.32908247739E+03  0.33660557226E+03  0.00000000000E+00 0. -1.
          2    1    1    2  501    0 -0.14939801665E+03  0.96182653724E+02 -0.19378943152E+04  0.19460229308E+04  0.00000000000E+00 0. -1.
<mgrwt>
<rscale>  4 0.27765986E+03</rscale>
<asrwt>0</asrwt>
<pdfrwt beam="1">  1       21 0.22804487E-01 0.27765986E+03</pdfrwt>
<pdfrwt beam="2">  1        2 0.37108873E+00 0.27765986E+03</pdfrwt>
<totfact> 0.10003124E+03</totfact>
</mgrwt>
</event>
<event>
 5    0  0.3463145E-001  0.3288422E+03  0.7546771E-02  0.1071650E+00
         -1   -1    0    0    0  501 -0.00000000000E+00  0.00000000000E+00  0.13078890341E+04  0.13078890341E+04  0.00000000000E+00 0. -1.
         21   -1    0    0  501  502  0.00000000000E+00 -0.00000000000E+00 -0.13992082232E+03  0.13992082232E+03  0.00000000000E+00 0. -1.
         25    1    1    2    0    0 -0.88058609704E+02  0.29113210791E+03  0.11212910518E+03  0.34743367601E+03  0.12500000000E+03 0.  0.
         21    1    1    2  501  501  0.18413948794E+02 -0.23291727108E+02  0.62299192983E+02  0.69012806842E+02  0.00000000000E+00 0. -1.
         -1    1    1    2    0  502  0.69644660909E+02 -0.26784038080E+03  0.99353991361E+03  0.10313633736E+04  0.00000000000E+00 0. -1.
<mgrwt>
<rscale>  4 0.32884225E+03</rscale>
<asrwt>0</asrwt>
<pdfrwt beam="1">  1       21 0.21526281E-01 0.32884225E+03</pdfrwt>
<pdfrwt beam="2">  1       -1 0.20121369E+00 0.32884225E+03</pdfrwt>
<totfact> 0.29676904E+02</totfact>
</mgrwt>
</event>
<event>
 5    0  0.2947253E-001  0.2411660E+03  0.7546771E-02  0.1119019E+00
          2   -1    0    0  502    0 -0.00000000000E+00  0.00000000000E+00  0.27309029385E+04  0.27309029385E+04  0.00000000000E+00 0. -1.
         21   -1    0    0  503  502  0.00000000000E+00 -0.00000000000E+00 -0.33677843004E+03  0.33677843004E+03  0.00000000000E+00 0.  1.
         25    1    1    2    0    0  0.25243627229E+02  0.20469191575E+03 -0.28850115117E+03  0.37602384940E+03  0.12500000000E+03 0.  0.
         21    1    1    2  503  501 -0.10188484086E+02 -0.11521457865E+03  0.19512351446E+04  0.19546602758E+04  0.00000000000E+00 0.  1.
          2    1    1    2  501    0 -0.15055143143E+02 -0.89477337104E+02  0.73139051503E+03  0.73699724332E+03  0.00000000000E+00 0. -1.
<mgrwt>
<rscale>  4 0.24116596E+03</rscale>
<asrwt>0</asrwt>
<pdfrwt beam="1">  1       21 0.51812068E-01 0.24116596E+03</pdfrwt>
<pdfrwt beam="2">  1        2 0.42013890E+00 0.24116596E+03</pdfrwt>
<totfact> 0.13239499E+02</totfact>
</mgrwt>
</event>
<event>
 5    0  0.2947253E-001  0.2446730E+03  0.7546771E-02  0.1116718E+00
         21   -1    0    0  503  502  0.00000000000E+00  0.00000000000E+00  0.55208285382E+02  0.55208285382E+02  0.00000000000E+00 0. -1.
          2   -1    0    0  502    0 -0.00000000000E+00 -0.00000000000E+00 -0.10635278956E+04  0.10635278956E+04  0.00000000000E+00 0. -1.
         25    1    1    2    0    0 -0.17830251900E+03 -0.11157091452E+03 -0.36266560068E+03  0.43748279413E+03  0.12500000000E+03 0.  0.
         21    1    1    2  503  501  0.16656485481E+03  0.86143462765E+02 -0.52796762907E+03  0.56028061218E+03  0.00000000000E+00 0. -1.
          2    1    1    2  501    0  0.11737664191E+02  0.25427451757E+02 -0.11768638043E+03  0.12097277464E+03  0.00000000000E+00 0. -1.
<mgrwt>
<rscale>  4 0.24467296E+03</rscale>
<asrwt>0</asrwt>
<pdfrwt beam="1">  1       21 0.84935821E-02 0.24467296E+03</pdfrwt>
<pdfrwt beam="2">  1        2 0.16361968E+00 0.24467296E+03</pdfrwt>
<totfact> 0.32782519E+04</totfact>
</mgrwt>
</event>
<event>
 5    0  0.2947253E-001  0.2534223E+03  0.7546771E-02  0.1111161E+00
          1   -1    0    0  502    0 -0.00000000000E+00  0.00000000000E+00  0.13295378256E+03  0.13295378256E+03  0.00000000000E+00 0.  1.
         21   -1    0    0  503  502  0.00000000000E+00 -0.00000000000E+00 -0.54240495726E+03  0.54240495726E+03  0.00000000000E+00 0.  1.
         25    1    1    2    0    0  0.17066084890E+03  0.14700147175E+03 -0.23609170379E+03  0.34942645956E+03  0.12500000000E+03 0.  0.
         21    1    1    2  503  501  0.14535998242E+02 -0.30733195365E+02 -0.82328537442E+02  0.89071951924E+02  0.00000000000E+00 0. -1.
          1    1    1    2  501    0 -0.18519684715E+03 -0.11626827639E+03 -0.91030933469E+02  0.23686032833E+03  0.00000000000E+00 0.  1.
<mgrwt>
<rscale>  4 0.25342225E+03</rscale>
<asrwt>0</asrwt>
<pdfrwt beam="1">  1       21 0.83446915E-01 0.25342225E+03</pdfrwt>
<pdfrwt beam="2">  1        1 0.20454428E-01 0.25342225E+03</pdfrwt>
<totfact> 0.32740593E+03</totfact>
</mgrwt>
</event>
<event>
 5    0  0.4211922E-001  0.3380007E+03  0.7546771E-02  0.1067651E+00
          2   -1    0    0  502    0 -0.00000000000E+00  0.00000000000E+00  0.22979586164E+04  0.22979586164E+04  0.00000000000E+00 0. -1.
         21   -1    0    0  503  502  0.00000000000E+00 -0.00000000000E+00 -0.26973554902E+03  0.26973554902E+03  0.00000000000E+00 0. -1.
         25    1    1    2    0    0  0.15640346774E+03  0.27396669116E+03 -0.14221905707E+03  0.36792805381E+03  0.12500000000E+03 0.  0.
         21    1    1    2  503  501 -0.30249635042E+02 -0.15443125558E+02  0.53508991448E+02  0.63377777753E+02  0.00000000000E+00 0.  1.
          2    1    1    2  501    0 -0.12615383269E+03 -0.25852356560E+03  0.21169331330E+04  0.21363883338E+04  0.00000000000E+00 0. -1.
<mgrwt>
<rscale>  4 0.33800072E+03</rscale>
<asrwt>0</asrwt>
<pdfrwt beam="1">  1       21 0.41497778E-01 0.33800072E+03</pdfrwt>
<pdfrwt beam="2">  1        2 0.35353208E+00 0.33800072E+03</pdfrwt>
<totfact> 0.34239752E+02</totfact>
</mgrwt>
</event>
<event>
 5    0  0.2947253E-001  0.2180646E+03  0.7546771E-02  0.1135334E+00
         21   -1    0    0  503  502  0.00000000000E+00  0.00000000000E+00  0.24164865595E+03  0.24164865595E+03  0.00000000000E+00 0. -1.
          2   -1    0    0  502    0 -0.00000000000E+00 -0.00000000000E+00 -0.32569871820E+03  0.32569871820E+03  0.00000000000E+00 0.  1.
         25    1    1    2    0    0 -0.12471151478E+03  0.19519428822E+03  0.30499902635E+02  0.26496984005E+03  0.12500000000E+03 0.  0.
         21    1    1    2  503  501  0.80214344185E+02 -0.34896716841E+02  0.18435130283E+02  0.89397851696E+02  0.00000000000E+00 0.  1.
          2    1    1    2  501    0  0.44497170591E+02 -0.16029757138E+03 -0.13298509517E+03  0.21297968241E+03  0.00000000000E+00 0.  1.
<mgrwt>
<rscale>  4 0.21806462E+03</rscale>
<asrwt>0</asrwt>
<pdfrwt beam="1">  1       21 0.37176716E-01 0.21806462E+03</pdfrwt>
<pdfrwt beam="2">  1        2 0.50107495E-01 0.21806462E+03</pdfrwt>
<totfact> 0.86124451E+03</totfact>
</mgrwt>
</event>
<event>
 5    0  0.2947253E-001  0.2399242E+03  0.7546771E-02  0.1119843E+00
         21   -1    0    0  501  502  0.00000000000E+00  0.00000000000E+00  0.14481331208E+03  0.14481331208E+03  0.00000000000E+00 0.  1.
         -1   -1    0    0    0  501 -0.00000000000E+00 -0.00000000000E+00 -0.25199743052E+04  0.25199743052E+04  0.00000000000E+00 0. -1.
         25    1    1    2    0    0  0.17789619678E+03 -0.99504377374E+02  0.34732656755E+02  0.24161857418E+03  0.12500000000E+03 0.  0.
         21    1    1    2  501  501  0.94353900395E+01 -0.26057073569E+02 -0.24668756326E+03  0.24823930296E+03  0.00000000000E+00 0.  1.
         -1    1    1    2    0  502 -0.18733158682E+03  0.12556145094E+03 -0.21632060867E+04  0.21749297402E+04  0.00000000000E+00 0. -1.
<mgrwt>
<rscale>  4 0.23992420E+03</rscale>
<asrwt>0</asrwt>
<pdfrwt beam="1">  1       21 0.22278973E-01 0.23992420E+03</pdfrwt>
<pdfrwt beam="2">  1       -1 0.38768832E+00 0.23992420E+03</pdfrwt>
<totfact> 0.18743017E+01</totfact>
</mgrwt>
</event>
<event>
 5    0  0.2947253E-001  0.6130810E+03  0.7546771E-02  0.9908521E-01
          2   -1    0    0  502    0 -0.00000000000E+00  0.00000000000E+00  0.10381362621E+04  0.10381362621E+04  0.00000000000E+00 0.  1.
         21   -1    0    0  503  502  0.00000000000E+00 -0.00000000000E+00 -0.40537045020E+03  0.40537045020E+03  0.00000000000E+00 0.  1.
         25    1    1    2    0    0  0.53983084312E+03  0.54718541036E+02 -0.77561800990E+01  0.55686319347E+03  0.12500000000E+03 0.  0.
         21    1    1    2  503  501 -0.37511815780E+03  0.98221299230E+02  0.38725913518E+03  0.54802435504E+03  0.00000000000E+00 0.  1.
          2    1    1    2  501    0 -0.16471268532E+03 -0.15293984027E+03  0.25326285686E+03  0.33861916382E+03  0.00000000000E+00 0.  1.
<mgrwt>
<rscale>  4 0.59850115E+03</rscale>
<asrwt>0</asrwt>
<pdfrwt beam="1">  1       21 0.62364685E-01 0.61308100E+03</pdfrwt>
<pdfrwt beam="2">  1        2 0.15971327E+00 0.61308100E+03</pdfrwt>
<totfact> 0.65421945E+02</totfact>
</mgrwt>
</event>
<event>
 5    0  0.2947253E-001  0.3731230E+03  0.7546771E-02  0.1054605E+00
         21   -1    0    0  503  502  0.00000000000E+00  0.00000000000E+00  0.63911612057E+02  0.63911612057E+02  0.00000000000E+00 0. -1.
          2   -1    0    0  502    0 -0.00000000000E+00 -0.00000000000E+00 -0.27234077274E+04  0.27234077274E+04  0.00000000000E+00 0.  1.
         25    1    1    2    0    0  0.28467238970E+02 -0.33820690467E+03 -0.65347743191E+03  0.74689493778E+03  0.12500000000E+03 0.  0.
         21    1    1    2  503  501  0.38218142438E+02  0.14548692966E+03 -0.55021203810E+03  0.57040368160E+03  0.00000000000E+00 0.  1.
          2    1    1    2  501    0 -0.66685381408E+02  0.19271997501E+03 -0.14558066454E+04  0.14700207201E+04  0.00000000000E+00 0.  1.
<mgrwt>
<rscale>  4 0.37023119E+03</rscale>
<asrwt>0</asrwt>
<pdfrwt beam="1">  1       21 0.98325554E-02 0.37312301E+03</pdfrwt>
<pdfrwt beam="2">  1        2 0.41898582E+00 0.37312301E+03</pdfrwt>
<totfact> 0.30447984E+03</totfact>
</mgrwt>
</event>
<event>
 5    0  0.2947253E-001  0.6938120E+03  0.7546771E-02  0.9738186E-01
          2   -1    0    0  502    0 -0.00000000000E+00  0.00000000000E+00  0.34779944433E+04  0.34779944433E+04  0.00000000000E+00 0.  1.
         21   -1    0    0  503  502  0.00000000000E+00 -0.00000000000E+00 -0.13583053366E+03  0.13583053366E+03  0.00000000000E+00 0.  1.
         25    1    1    2    0    0 -0.60559899160E+03 -0.25892875331E+03  0.14204392647E+04  0.15706899575E+04  0.12500000000E+03 0.  0.
         21    1    1    2  503  501  0.20016182467E+02  0.77680412809E+02  0.19638638079E+03  0.21213793780E+03  0.00000000000E+00 0. -1.
          2    1    1    2  501    0  0.58558280913E+03  0.18124834051E+03  0.17253382641E+04  0.18309970816E+04  0.00000000000E+00 0.  1.
<mgrwt>
<rscale>  4 0.68788021E+03</rscale>
<asrwt>0</asrwt>
<pdfrwt beam="1">  1       21 0.20897008E-01 0.69381200E+03</pdfrwt>
<pdfrwt beam="2">  1        2 0.53507600E+00 0.69381200E+03</pdfrwt>
<totfact> 0.23354468E+02</totfact>
</mgrwt>
</event>
<event>
 5    0  0.2947253E-001  0.2883420E+03  0.7546771E-02  0.1091218E+00
         21   -1    0    0  503  502  0.00000000000E+00  0.00000000000E+00  0.61828270337E+03  0.61828270337E+03  0.00000000000E+00 0.  1.
          1   -1    0    0  502    0 -0.00000000000E+00 -0.00000000000E+00 -0.60896448824E+03  0.60896448824E+03  0.00000000000E+00 0.  1.
         25    1    1    2    0    0  0.10775371559E+03 -0.25597557707E+03  0.53533079987E+03  0.61590455800E+03  0.12500000000E+03 0.  0.
         21    1    1    2  503  501 -0.33254757504E+02  0.16437451681E+03 -0.18130482032E+03  0.24697428721E+03  0.00000000000E+00 0.  1.
          1    1    1    2  501    0 -0.74498958089E+02  0.91601060265E+02 -0.34470776443E+03  0.36436834640E+03  0.00000000000E+00 0.  1.
<mgrwt>
<rscale>  4 0.28834197E+03</rscale>
<asrwt>0</asrwt>
<pdfrwt beam="1">  1       21 0.95120416E-01 0.28834197E+03</pdfrwt>
<pdfrwt beam="2">  1        1 0.93686844E-01 0.28834197E+03</pdfrwt>
<totfact> 0.33456952E+02</totfact>
</mgrwt>
</event>
<event>
 5    0  0.2947253E-001  0.3696383E+03  0.7546771E-02  0.1054831E+00
         -3   -1    0    0    0  501 -0.00000000000E+00  0.00000000000E+00  0.27231589305E+03  0.27231589305E+03  0.00000000000E+00 0. -1.
         21   -1    0    0  501  502  0.00000000000E+00 -0.00000000000E+00 -0.99014650917E+03  0.99014650917E+03  0.00000000000E+00 0. -1.
         25    1    1    2    0    0  0.33603085042E+03  0.89948613407E+02 -0.81463586103E+03  0.89457479931E+03  0.12500000000E+03 0.  0.
         21    1    1    2  501  501 -0.29446927761E+02 -0.23004970154E+02 -0.56188434127E+01  0.37787850001E+02  0.00000000000E+00 0. -1.
         -3    1    1    2    0  502 -0.30658392266E+03 -0.66943643253E+02  0.10242408832E+03  0.33009975291E+03  0.00000000000E+00 0. -1.
<mgrwt>
<rscale>  4 0.36963832E+03</rscale>
<asrwt>0</asrwt>
<pdfrwt beam="1">  1       21 0.15233023E+00 0.36963832E+03</pdfrwt>
<pdfrwt beam="2">  1       -3 0.41894753E-01 0.36963832E+03</pdfrwt>
<totfact> 0.75195553E+01</totfact>
</mgrwt>
</event>
<event>
 5    0  0.2947253E-001  0.3069233E+03  0.7546771E-02  0.1081830E+00
         21   -1    0    0  503  502  0.00000000000E+00  0.00000000000E+00  0.12431227130E+04  0.12431227130E+04  0.00000000000E+00 0. -1.
          2   -1    0    0  502    0 -0.00000000000E+00 -0.00000000000E+00 -0.35006605246E+04  0.35006605246E+04  0.00000000000E+00 0.  1.
         25    1    1    2    0    0 -0.27819660541E+03  0.40245429460E+02  0.11732071814E+04  0.12128697937E+04  0.12500000000E+03 0.  0.
         21    1    1    2  503  501  0.85281019640E+02 -0.25697624569E+03 -0.38106356592E+03  0.46746024904E+03  0.00000000000E+00 0.  1.
          2    1    1    2  501    0  0.19291558577E+03  0.21673081623E+03 -0.30496814271E+04  0.30634531948E+04  0.00000000000E+00 0.  1.
<mgrwt>
<rscale>  4 0.30692325E+03</rscale>
<asrwt>0</asrwt>
<pdfrwt beam="1">  1       21 0.19124965E+00 0.30692325E+03</pdfrwt>
<pdfrwt beam="2">  1        2 0.53856315E+00 0.30692325E+03</pdfrwt>
<totfact> 0.17639492E+00</totfact>
</mgrwt>
</event>
<event>
 5    0  0.2947253E-001  0.2330232E+03  0.7546771E-02  0.1124530E+00
         21   -1    0    0  503  502  0.00000000000E+00  0.00000000000E+00  0.75778755296E+02  0.75778755296E+02  0.00000000000E+00 0. -1.
          2   -1    0    0  502    0 -0.00000000000E+00 -0.00000000000E+00 -0.18143054695E+04  0.18143054695E+04  0.00000000000E+00 0. -1.
         25    1    1    2    0    0 -0.55916460474E+02  0.20226341383E+03 -0.17656673183E+03  0.30139334750E+03  0.12500000000E+03 0.  0.
         21    1    1    2  503  501 -0.31360564579E+02 -0.27127658592E+02 -0.53978537643E+02  0.68066712845E+02  0.00000000000E+00 0. -1.
          2    1    1    2  501    0  0.87277025053E+02 -0.17513575524E+03 -0.15079814447E+04  0.15206241644E+04  0.00000000000E+00 0. -1.
<mgrwt>
<rscale>  4 0.23302316E+03</rscale>
<asrwt>0</asrwt>
<pdfrwt beam="1">  1       21 0.11658271E-01 0.23302316E+03</pdfrwt>
<pdfrwt beam="2">  1        2 0.27912390E+00 0.23302316E+03</pdfrwt>
<totfact> 0.73079208E+03</totfact>
</mgrwt>
</event>
<event>
 5    0  0.2947253E-001  0.2477041E+03  0.7546771E-02  0.1114764E+00
         21   -1    0    0  503  502  0.00000000000E+00  0.00000000000E+00  0.60236639740E+02  0.60236639740E+02  0.00000000000E+00 0. -1.
          2   -1    0    0  502    0 -0.00000000000E+00 -0.00000000000E+00 -0.12349518878E+04  0.12349518878E+04  0.00000000000E+00 0. -1.
         25    1    1    2    0    0 -0.13632597463E+03  0.16476506294E+03 -0.90074374815E+03  0.93418231473E+03  0.12500000000E+03 0.  0.
         21    1    1    2  503  501  0.10014500159E+03 -0.54551621853E+02 -0.17306395731E+03  0.20725837525E+03  0.00000000000E+00 0.  1.
          2    1    1    2  501    0  0.36180973039E+02 -0.11021344109E+03 -0.10090754264E+03  0.15374783761E+03  0.00000000000E+00 0. -1.
<mgrwt>
<rscale>  4 0.24770405E+03</rscale>
<asrwt>0</asrwt>
<pdfrwt beam="1">  1       21 0.92671754E-02 0.24770405E+03</pdfrwt>
<pdfrwt beam="2">  1        2 0.18999260E+00 0.24770405E+03</pdfrwt>
<totfact> 0.22371023E+04</totfact>
</mgrwt>
</event>
<event>
 5    0  0.2947253E-001  0.2410752E+03  0.7546771E-02  0.1119079E+00
          2   -1    0    0  502    0 -0.00000000000E+00  0.00000000000E+00  0.37729675564E+03  0.37729675564E+03  0.00000000000E+00 0. -1.
         21   -1    0    0  503  502  0.00000000000E+00 -0.00000000000E+00 -0.49578021901E+03  0.49578021901E+03  0.00000000000E+00 0. -1.
         25    1    1    2    0    0  0.15630848185E+03 -0.13848319785E+03 -0.42749104250E+03  0.49191821373E+03  0.12500000000E+03 0.  0.
         21    1    1    2  503  501 -0.13111904898E+03  0.13114548996E+03  0.21682178515E+03  0.28531216423E+03  0.00000000000E+00 0. -1.
          2    1    1    2  501    0 -0.25189432874E+02  0.73377078935E+01  0.92185793977E+02  0.95846596688E+02  0.00000000000E+00 0. -1.
<mgrwt>
<rscale>  4 0.24107521E+03</rscale>
<asrwt>0</asrwt>
<pdfrwt beam="1">  1       21 0.76273880E-01 0.24107521E+03</pdfrwt>
<pdfrwt beam="2">  1        2 0.58045654E-01 0.24107521E+03</pdfrwt>
<totfact> 0.15897755E+03</totfact>
</mgrwt>
</event>
<event>
 5    0  0.2947253E-001  0.2457055E+03  0.7546771E-02  0.1116049E+00
         21   -1    0    0  503  502  0.00000000000E+00  0.00000000000E+00  0.20356946868E+03  0.20356946868E+03  0.00000000000E+00 0.  1.
          1   -1    0    0  502    0 -0.00000000000E+00 -0.00000000000E+00 -0.19249096889E+04  0.19249096889E+04  0.00000000000E+00 0. -1.
         25    1    1    2    0    0 -0.56865518003E+01  0.21145648350E+03  0.12019904298E+03  0.27353060380E+03  0.12500000000E+03 0.  0.
         21    1    1    2  503  501  0.31052110704E+02 -0.97768008082E+02 -0.10293534451E+04  0.10344521893E+04  0.00000000000E+00 0. -1.
          1    1    1    2  501    0 -0.25365558904E+02 -0.11368847542E+03 -0.81218581812E+03  0.82049636451E+03  0.00000000000E+00 0. -1.
<mgrwt>
<rscale>  4 0.24570548E+03</rscale>
<asrwt>0</asrwt>
<pdfrwt beam="1">  1       21 0.31318379E-01 0.24570548E+03</pdfrwt>
<pdfrwt beam="2">  1        1 0.29613996E+00 0.24570548E+03</pdfrwt>
<totfact> 0.40776516E+02</totfact>
</mgrwt>
</event>
<event>
 5    0  0.2947253E-001  0.3175294E+03  0.7546771E-02  0.1076792E+00
          2   -1    0    0  502    0 -0.00000000000E+00  0.00000000000E+00  0.11019090528E+04  0.11019090528E+04  0.00000000000E+00 0. -1.
         21   -1    0    0  503  502  0.00000000000E+00 -0.00000000000E+00 -0.14189332992E+04  0.14189332992E+04  0.00000000000E+00 0. -1.
         25    1    1    2    0    0 -0.23698302493E+03  0.17193454046E+03 -0.13736517624E+04  0.14100590784E+04  0.12500000000E+03 0.  0.
         21    1    1    2  503  501  0.35390542175E+02 -0.38880815955E+02  0.40566995327E+02  0.66406998385E+02  0.00000000000E+00 0. -1.
          2    1    1    2  501    0  0.20159248276E+03 -0.13305372451E+03  0.10160605207E+04  0.10443762753E+04  0.00000000000E+00 0. -1.
<mgrwt>
<rscale>  4 0.31752935E+03</rscale>
<asrwt>0</asrwt>
<pdfrwt beam="1">  1       21 0.21829743E+00 0.31752935E+03</pdfrwt>
<pdfrwt beam="2">  1        2 0.16952447E+00 0.31752935E+03</pdfrwt>
<totfact> 0.26572558E+01</totfact>
</mgrwt>
</event>
<event>
 5    0  0.4576247E-001  0.3097420E+03  0.7546771E-02  0.1080470E+00
          1   -1    0    0  502    0 -0.00000000000E+00  0.00000000000E+00  0.21129139007E+04  0.21129139007E+04  0.00000000000E+00 0.  1.
         21   -1    0    0  503  502  0.00000000000E+00 -0.00000000000E+00 -0.44409988543E+02  0.44409988543E+02  0.00000000000E+00 0.  1.
         25    1    1    2    0    0 -0.99051425720E+02  0.26552568866E+03  0.12960722145E+04  0.13325701713E+04  0.12500000000E+03 0.  0.
         21    1    1    2  503  501  0.17254225638E+02 -0.14941097847E+02  0.36611353232E+02  0.43143202161E+02  0.00000000000E+00 0. -1.
          1    1    1    2  501    0  0.81797200083E+02 -0.25058459081E+03  0.73582034447E+03  0.78161051581E+03  0.00000000000E+00 0.  1.
<mgrwt>
<rscale>  4 0.30974195E+03</rscale>
<asrwt>0</asrwt>
<pdfrwt beam="1">  1       21 0.68323076E-02 0.30974195E+03</pdfrwt>
<pdfrwt beam="2">  1        1 0.32506360E+00 0.30974195E+03</pdfrwt>
<totfact> 0.49281596E+03</totfact>
</mgrwt>
</event>
<event>
 5    0  0.2947253E-001  0.3142836E+03  0.7546771E-02  0.1078311E+00
         -2   -1    0    0    0  501 -0.00000000000E+00  0.00000000000E+00  0.45997787612E+03  0.45997787612E+03  0.00000000000E+00 0. -1.
         21   -1    0    0  501  502  0.00000000000E+00 -0.00000000000E+00 -0.34996457962E+03  0.34996457962E+03  0.00000000000E+00 0.  1.
         25    1    1    2    0    0  0.11720324409E+03 -0.26346271598E+03 -0.20791105546E+03  0.37683047929E+03  0.12500000000E+03 0.  0.
         21    1    1    2  501  501 -0.36051563648E+02  0.51686508885E+02  0.41045334122E+02  0.75205916625E+02  0.00000000000E+00 0. -1.
         -2    1    1    2    0  502 -0.81151680445E+02  0.21177620710E+03  0.27687901784E+03  0.35790605982E+03  0.00000000000E+00 0. -1.
<mgrwt>
<rscale>  4 0.31428363E+03</rscale>
<asrwt>0</asrwt>
<pdfrwt beam="1">  1       21 0.53840704E-01 0.31428363E+03</pdfrwt>
<pdfrwt beam="2">  1       -2 0.70765827E-01 0.31428363E+03</pdfrwt>
<totfact> 0.47589451E+02</totfact>
</mgrwt>
</event>
<event>
 5    0  0.2947253E-001  0.2794960E+03  0.7546771E-02  0.1095965E+00
          2   -1    0    0  502    0 -0.00000000000E+00  0.00000000000E+00  0.22926967389E+03  0.22926967389E+03  0.00000000000E+00 0.  1.
         21   -1    0    0  503  502  0.00000000000E+00 -0.00000000000E+00 -0.34419287542E+03  0.34419287542E+03  0.00000000000E+00 0.  1.
         25    1    1    2    0    0  0.18285893957E+03 -0.17045712797E+03  0.14327137909E+01  0.27949969039E+03  0.12500000000E+03 0.  0.
         21    1    1    2  503  501 -0.42690959671E+02  0.84322859580E+02 -0.83672596848E+02  0.12622981482E+03  0.00000000000E+00 0.  1.
          2    1    1    2  501    0 -0.14016797990E+03  0.86134268394E+02 -0.32683318474E+02  0.16773304411E+03  0.00000000000E+00 0.  1.
<mgrwt>
<rscale>  4 0.27949602E+03</rscale>
<asrwt>0</asrwt>
<pdfrwt beam="1">  1       21 0.52952750E-01 0.27949602E+03</pdfrwt>
<pdfrwt beam="2">  1        2 0.35272258E-01 0.27949602E+03</pdfrwt>
<totfact> 0.59904783E+03</totfact>
</mgrwt>
</event>
<event>
 5    0  0.2947253E-001  0.3710381E+03  0.7546771E-02  0.1054297E+00
         21   -1    0    0  503  502  0.00000000000E+00  0.00000000000E+00  0.45218627724E+03  0.45218627724E+03  0.00000000000E+00 0. -1.
          2   -1    0    0  502    0 -0.00000000000E+00 -0.00000000000E+00 -0.70946979836E+03  0.70946979836E+03  0.00000000000E+00 0.  1.
         25    1    1    2    0    0 -0.19335192617E+03 -0.29096277900E+03  0.31180996127E+03  0.48465942482E+03  0.12500000000E+03 0.  0.
         21    1    1    2  503  501  0.30727180878E+02  0.31540335576E+02 -0.20121074388E+02  0.48412911992E+02  0.00000000000E+00 0. -1.
          2    1    1    2  501    0  0.16262474529E+03  0.25942244343E+03 -0.54897240799E+03  0.62858373879E+03  0.00000000000E+00 0.  1.
<mgrwt>
<rscale>  4 0.37103815E+03</rscale>
<asrwt>0</asrwt>
<pdfrwt beam="1">  1       21 0.69567120E-01 0.37103815E+03</pdfrwt>
<pdfrwt beam="2">  1        2 0.10914920E+00 0.37103815E+03</pdfrwt>
<totfact> 0.90837977E+02</totfact>
</mgrwt>
</event>
<event>
 5    0  0.2947253E-001  0.2918346E+03  0.7546771E-02  0.1089395E+00
         21   -1    0    0  503  502  0.00000000000E+00  0.00000000000E+00  0.25793500680E+03  0.25793500680E+03  0.00000000000E+00 0.  1.
          2   -1    0    0  502    0 -0.00000000000E+00 -0.00000000000E+00 -0.58601404221E+03  0.58601404221E+03  0.00000000000E+00 0.  1.
         25    1    1    2    0    0  0.29481466605E+03  0.11889279092E+03  0.12886778506E+02  0.34182195967E+03  0.12500000000E+03 0.  0.
         21    1    1    2  503  501 -0.12820081960E+03 -0.14898629355E+03 -0.21351414061E+03  0.29020794967E+03  0.00000000000E+00 0.  1.
          2    1    1    2  501    0 -0.16661384645E+03  0.30093502627E+02 -0.12745167330E+03  0.21191913966E+03  0.00000000000E+00 0.  1.
<mgrwt>
<rscale>  4 0.29183458E+03</rscale>
<asrwt>0</asrwt>
<pdfrwt beam="1">  1       21 0.39682309E-01 0.29183458E+03</pdfrwt>
<pdfrwt beam="2">  1        2 0.90156007E-01 0.29183458E+03</pdfrwt>
<totfact> 0.38670397E+03</totfact>
</mgrwt>
</event>
<event>
 5    0  0.2947253E-001  0.3167025E+03  0.7546771E-02  0.1077177E+00
         21   -1    0    0  503  502  0.00000000000E+00  0.00000000000E+00  0.28997422590E+03  0.28997422590E+03  0.00000000000E+00 0.  1.
          2   -1    0    0  502    0 -0.00000000000E+00 -0.00000000000E+00 -0.11268877928E+04  0.11268877928E+04  0.00000000000E+00 0.  1.
         25    1    1    2    0    0 -0.35393599052E+03  0.26636185787E+03 -0.87779304955E+02  0.46856112845E+03  0.12500000000E+03 0.  0.
         21    1    1    2  503  501  0.99512978487E+02 -0.16928999871E+03 -0.56928042793E+02  0.20445718038E+03  0.00000000000E+00 0.  1.
          2    1    1    2  501    0  0.25442301203E+03 -0.97071859158E+02 -0.69220621911E+03  0.74384370984E+03  0.00000000000E+00 0.  1.
<mgrwt>
<rscale>  4 0.31670253E+03</rscale>
<asrwt>0</asrwt>
<pdfrwt beam="1">  1       21 0.44611419E-01 0.31670253E+03</pdfrwt>
<pdfrwt beam="2">  1        2 0.17336735E+00 0.31670253E+03</pdfrwt>
<totfact> 0.12812326E+03</totfact>
</mgrwt>
</event>
<event>
 5    0  0.2947253E-001  0.5324003E+03  0.7546771E-02  0.1005652E+00
         21   -1    0    0  503  502  0.00000000000E+00  0.00000000000E+00  0.19305600612E+04  0.19305600612E+04  0.00000000000E+00 0. -1.
          1   -1    0    0  502    0 -0.00000000000E+00 -0.00000000000E+00 -0.42404819374E+03  0.42404819374E+03  0.00000000000E+00 0. -1.
         25    1    1    2    0    0  0.39568917761E+03 -0.35741275024E+03  0.16274082025E+04  0.17170894726E+04  0.12500000000E+03 0.  0.
         21    1    1    2  503  501 -0.43853446837E+02  0.15005125210E+03  0.87367687491E+02  0.17908549878E+03  0.00000000000E+00 0. -1.
          1    1    1    2  501    0 -0.35183573077E+03  0.20736149814E+03 -0.20826402256E+03  0.45843328353E+03  0.00000000000E+00 0. -1.
<mgrwt>
<rscale>  4 0.53240025E+03</rscale>
<asrwt>0</asrwt>
<pdfrwt beam="1">  1       21 0.29700924E+00 0.53240025E+03</pdfrwt>
<pdfrwt beam="2">  1        1 0.65238185E-01 0.53240025E+03</pdfrwt>
<totfact> 0.16982511E+01</totfact>
</mgrwt>
</event>
<event>
 5    0  0.2947253E-001  0.2648901E+03  0.7546771E-02  0.1104240E+00
         21   -1    0    0  503  502  0.00000000000E+00  0.00000000000E+00  0.28218314146E+03  0.28218314146E+03  0.00000000000E+00 0. -1.
          1   -1    0    0  502    0 -0.00000000000E+00 -0.00000000000E+00 -0.27909741714E+03  0.27909741714E+03  0.00000000000E+00 0. -1.
         25    1    1    2    0    0  0.40405965113E+02  0.23001979840E+03  0.12037374236E+03  0.29095805114E+03  0.12500000000E+03 0.  0.
         21    1    1    2  503  501 -0.22677664287E+01 -0.38597965995E+02  0.64815591458E+01  0.39204034900E+02  0.00000000000E+00 0.  1.
          1    1    1    2  501    0 -0.38138198684E+02 -0.19142183241E+03 -0.12376957719E+03  0.23111847256E+03  0.00000000000E+00 0. -1.
<mgrwt>
<rscale>  4 0.26489007E+03</rscale>
<asrwt>0</asrwt>
<pdfrwt beam="1">  1       21 0.43412791E-01 0.26489007E+03</pdfrwt>
<pdfrwt beam="2">  1        1 0.42938064E-01 0.26489007E+03</pdfrwt>
<totfact> 0.52487669E+03</totfact>
</mgrwt>
</event>
<event>
 5    0  0.2947253E-001  0.2264002E+03  0.7546771E-02  0.1129199E+00
         21   -1    0    0  503  502  0.00000000000E+00  0.00000000000E+00  0.34598514299E+03  0.34598514299E+03  0.00000000000E+00 0.  1.
          2   -1    0    0  502    0 -0.00000000000E+00 -0.00000000000E+00 -0.79247593098E+03  0.79247593098E+03  0.00000000000E+00 0.  1.
         25    1    1    2    0    0 -0.96994765746E+02  0.17809098678E+03  0.27576167206E+03  0.36440895150E+03  0.12500000000E+03 0.  0.
         21    1    1    2  503  501  0.27859752597E+02 -0.29518665593E+01 -0.37066447751E+00  0.28018149888E+02  0.00000000000E+00 0.  1.
          2    1    1    2  501    0  0.69135013149E+02 -0.17513912022E+03 -0.72188179557E+03  0.74603397258E+03  0.00000000000E+00 0.  1.
<mgrwt>
<rscale>  4 0.22640018E+03</rscale>
<asrwt>0</asrwt>
<pdfrwt beam="1">  1       21 0.53228483E-01 0.22640018E+03</pdfrwt>
<pdfrwt beam="2">  1        2 0.12191937E+00 0.22640018E+03</pdfrwt>
<totfact> 0.14926431E+03</totfact>
</mgrwt>
</event>
<event>
 5    0  0.2947253E-001  0.2640529E+03  0.7546771E-02  0.1104732E+00
         21   -1    0    0  503  502  0.00000000000E+00  0.00000000000E+00  0.10707538696E+03  0.10707538696E+03  0.00000000000E+00 0. -1.
          2   -1    0    0  502    0 -0.00000000000E+00 -0.00000000000E+00 -0.13724014042E+04  0.13724014042E+04  0.00000000000E+00 0.  1.
         25    1    1    2    0    0  0.12422484818E+03  0.19663957040E+03 -0.87769249410E+02  0.27825774867E+03  0.12500000000E+03 0.  0.
         21    1    1    2  503  501 -0.13358580276E+02 -0.16786569576E+02 -0.56687639528E+02  0.60611294825E+02  0.00000000000E+00 0. -1.
          2    1    1    2  501    0 -0.11086626791E+03 -0.17985300082E+03 -0.11208691283E+04  0.11406077477E+04  0.00000000000E+00 0.  1.
<mgrwt>
<rscale>  4 0.26405290E+03</rscale>
<asrwt>0</asrwt>
<pdfrwt beam="1">  1       21 0.16473137E-01 0.26405290E+03</pdfrwt>
<pdfrwt beam="2">  1        2 0.21113867E+00 0.26405290E+03</pdfrwt>
<totfact> 0.66150867E+03</totfact>
</mgrwt>
</event>
<event>
 5    0  0.2947253E-001  0.2790295E+03  0.7546771E-02  0.1096220E+00
         21   -1    0    0  503  502  0.00000000000E+00  0.00000000000E+00  0.43548114216E+03  0.43548114216E+03  0.00000000000E+00 0.  1.
          3   -1    0    0  502    0 -0.00000000000E+00 -0.00000000000E+00 -0.28621394737E+03  0.28621394737E+03  0.00000000000E+00 0.  1.
         25    1    1    2    0    0  0.17102450753E+03 -0.18161251518E+03  0.30415088266E+03  0.41275325228E+03  0.12500000000E+03 0.  0.
         21    1    1    2  503  501 -0.39672680733E+02  0.49899464165E+02  0.46051252018E+01  0.63914672013E+02  0.00000000000E+00 0. -1.
          3    1    1    2  501    0 -0.13135182680E+03  0.13171305101E+03 -0.15948881307E+03  0.24502716524E+03  0.00000000000E+00 0.  1.
<mgrwt>
<rscale>  4 0.27902955E+03</rscale>
<asrwt>0</asrwt>
<pdfrwt beam="1">  1       21 0.66997099E-01 0.27902955E+03</pdfrwt>
<pdfrwt beam="2">  1        3 0.44032915E-01 0.27902955E+03</pdfrwt>
<totfact> 0.51014690E+02</totfact>
</mgrwt>
</event>
<event>
 5    0  0.2947253E-001  0.3289529E+03  0.7546771E-02  0.1071601E+00
          2   -1    0    0  502    0 -0.00000000000E+00  0.00000000000E+00  0.22480757605E+04  0.22480757605E+04  0.00000000000E+00 0. -1.
         21   -1    0    0  503  502  0.00000000000E+00 -0.00000000000E+00 -0.47875181812E+02  0.47875181812E+02  0.00000000000E+00 0. -1.
         25    1    1    2    0    0 -0.29749381729E+03 -0.63893995684E+02  0.89244914982E+03  0.95114431030E+03  0.12500000000E+03 0.  0.
         21    1    1    2  503  501  0.18088572170E+03  0.69920342189E+02  0.72613172845E+03  0.75158218821E+03  0.00000000000E+00 0. -1.
          2    1    1    2  501    0  0.11660809559E+03 -0.60263465045E+01  0.58161970038E+03  0.59322444377E+03  0.00000000000E+00 0. -1.
<mgrwt>
<rscale>  4 0.32895291E+03</rscale>
<asrwt>0</asrwt>
<pdfrwt beam="1">  1       21 0.73654143E-02 0.32895291E+03</pdfrwt>
<pdfrwt beam="2">  1        2 0.34585773E+00 0.32895291E+03</pdfrwt>
<totfact> 0.94293423E+03</totfact>
</mgrwt>
</event>
<event>
 5    0  0.2947253E-001  0.2794497E+03  0.7546771E-02  0.1095990E+00
         -2   -1    0    0    0  501 -0.00000000000E+00  0.00000000000E+00  0.16056791831E+03  0.16056791831E+03  0.00000000000E+00 0. -1.
         21   -1    0    0  501  502  0.00000000000E+00 -0.00000000000E+00 -0.68285100973E+03  0.68285100973E+03  0.00000000000E+00 0. -1.
         25    1    1    2    0    0 -0.16999935396E+03 -0.18049738811E+03 -0.43834218680E+03  0.51889108702E+03  0.12500000000E+03 0.  0.
         21    1    1    2  501  501 -0.31136000526E+02  0.29768947174E+02 -0.57427006390E+02  0.71787894575E+02  0.00000000000E+00 0. -1.
         -2    1    1    2    0  502  0.20113535448E+03  0.15072844093E+03 -0.26513898218E+02  0.25273994644E+03  0.00000000000E+00 0. -1.
<mgrwt>
<rscale>  4 0.27944974E+03</rscale>
<asrwt>0</asrwt>
<pdfrwt beam="1">  1       21 0.10505400E+00 0.27944974E+03</pdfrwt>
<pdfrwt beam="2">  1       -2 0.24702757E-01 0.27944974E+03</pdfrwt>
<totfact> 0.81933409E+02</totfact>
</mgrwt>
</event>
<event>
 5    0  0.2947253E-001  0.2434320E+03  0.7546771E-02  0.1117527E+00
          3   -1    0    0  502    0 -0.00000000000E+00  0.00000000000E+00  0.14644156036E+04  0.14644156036E+04  0.00000000000E+00 0. -1.
         21   -1    0    0  503  502  0.00000000000E+00 -0.00000000000E+00 -0.80777022776E+03  0.80777022776E+03  0.00000000000E+00 0.  1.
         25    1    1    2    0    0 -0.68530037196E+02 -0.19732654281E+03 -0.78101901217E+03  0.81807690828E+03  0.12500000000E+03 0.  0.
         21    1    1    2  503  501 -0.37014101334E+00  0.82998339525E+02  0.46851051947E+03  0.47580559920E+03  0.00000000000E+00 0.  1.
          3    1    1    2  501    0  0.68900178209E+02  0.11432820329E+03  0.96915386856E+03  0.97830332390E+03  0.00000000000E+00 0. -1.
<mgrwt>
<rscale>  4 0.24343198E+03</rscale>
<asrwt>0</asrwt>
<pdfrwt beam="1">  1       21 0.12427234E+00 0.24343198E+03</pdfrwt>
<pdfrwt beam="2">  1        3 0.22529471E+00 0.24343198E+03</pdfrwt>
<totfact> 0.26370385E+00</totfact>
</mgrwt>
</event>
<event>
 5    0  0.2947253E-001  0.2460981E+03  0.7546771E-02  0.1115796E+00
         -4   -1    0    0    0  501 -0.00000000000E+00  0.00000000000E+00  0.22127321718E+03  0.22127321718E+03  0.00000000000E+00 0. -1.
         21   -1    0    0  501  502  0.00000000000E+00 -0.00000000000E+00 -0.10878225344E+04  0.10878225344E+04  0.00000000000E+00 0. -1.
         25    1    1    2    0    0 -0.20870607749E+03 -0.37162538390E+02 -0.10091140604E+04  0.10386893029E+04  0.12500000000E+03 0.  0.
         21    1    1    2  501  501  0.13133289006E+03  0.66168263909E+02  0.94695891151E+02  0.17491106014E+03  0.00000000000E+00 0. -1.
         -4    1    1    2    0  502  0.77373187439E+02 -0.29005725519E+02  0.47868851998E+02  0.95495388574E+02  0.00000000000E+00 0. -1.
<mgrwt>
<rscale>  4 0.24609811E+03</rscale>
<asrwt>0</asrwt>
<pdfrwt beam="1">  1       21 0.16735731E+00 0.24609811E+03</pdfrwt>
<pdfrwt beam="2">  1       -4 0.34042033E-01 0.24609811E+03</pdfrwt>
<totfact> 0.76538834E+01</totfact>
</mgrwt>
</event>
<event>
 5    0  0.2947253E-001  0.3769715E+03  0.7546771E-02  0.1052059E+00
          2   -1    0    0  502    0 -0.00000000000E+00  0.00000000000E+00  0.10560380419E+04  0.10560380419E+04  0.00000000000E+00 0. -1.
         21   -1    0    0  503  502  0.00000000000E+00 -0.00000000000E+00 -0.27692079770E+03  0.27692079770E+03  0.00000000000E+00 0.  1.
         25    1    1    2    0    0  0.23153539856E+03 -0.29451328023E+03 -0.67256290025E+02  0.40061842390E+03  0.12500000000E+03 0.  0.
         21    1    1    2  503  501 -0.13656677732E+02  0.17091232137E+02  0.89204205007E+01  0.23626023037E+02  0.00000000000E+00 0.  1.
          2    1    1    2  501    0 -0.21787872083E+03  0.27742204809E+03  0.83745311377E+03  0.90871439271E+03  0.00000000000E+00 0. -1.
<mgrwt>
<rscale>  4 0.37697149E+03</rscale>
<asrwt>0</asrwt>
<pdfrwt beam="1">  1       21 0.42603200E-01 0.37697149E+03</pdfrwt>
<pdfrwt beam="2">  1        2 0.16246739E+00 0.37697149E+03</pdfrwt>
<totfact> 0.15245496E+03</totfact>
</mgrwt>
</event>
<event>
 5    0  0.2947253E-001  0.8672237E+03  0.7546771E-02  0.9467507E-01
         21   -1    0    0  501  502  0.00000000000E+00  0.00000000000E+00  0.46428217722E+03  0.46428217722E+03  0.00000000000E+00 0. -1.
         -1   -1    0    0    0  501 -0.00000000000E+00 -0.00000000000E+00 -0.22396539641E+04  0.22396539641E+04  0.00000000000E+00 0.  1.
         25    1    1    2    0    0 -0.85657058171E+03 -0.22424122482E+01 -0.19137669956E+03  0.88654849331E+03  0.12500000000E+03 0.  0.
         21    1    1    2  501  501 -0.62524001255E+01 -0.23579725709E+02 -0.75879831808E+02  0.79704735411E+02  0.00000000000E+00 0.  1.
         -1    1    1    2    0  502  0.86282298183E+03  0.25822137957E+02 -0.15081152555E+04  0.17376829126E+04  0.00000000000E+00 0.  1.
<mgrwt>
<rscale>  4 0.86722368E+03</rscale>
<asrwt>0</asrwt>
<pdfrwt beam="1">  1       21 0.71428029E-01 0.86722368E+03</pdfrwt>
<pdfrwt beam="2">  1       -1 0.34456214E+00 0.86722368E+03</pdfrwt>
<totfact> 0.25397683E+00</totfact>
</mgrwt>
</event>
<event>
 5    0  0.2947253E-001  0.2522541E+03  0.7546771E-02  0.1111888E+00
         21   -1    0    0  503  502  0.00000000000E+00  0.00000000000E+00  0.12129633603E+03  0.12129633603E+03  0.00000000000E+00 0.  1.
          2   -1    0    0  502    0 -0.00000000000E+00 -0.00000000000E+00 -0.18066662894E+04  0.18066662894E+04  0.00000000000E+00 0. -1.
         25    1    1    2    0    0 -0.28872207755E+02 -0.21719470892E+03 -0.26485162301E+02  0.25364071003E+03  0.12500000000E+03 0.  0.
         21    1    1    2  503  501  0.71332081352E+01  0.54359374194E+02 -0.63266782551E+03  0.63503889775E+03  0.00000000000E+00 0. -1.
          2    1    1    2  501    0  0.21738999620E+02  0.16283533473E+03 -0.10262169655E+04  0.10392830176E+04  0.00000000000E+00 0. -1.
<mgrwt>
<rscale>  4 0.25225413E+03</rscale>
<asrwt>0</asrwt>
<pdfrwt beam="1">  1       21 0.18660975E-01 0.25225413E+03</pdfrwt>
<pdfrwt beam="2">  1        2 0.27794865E+00 0.25225413E+03</pdfrwt>
<totfact> 0.30961673E+03</totfact>
</mgrwt>
</event>
<event>
 5    0  0.2947253E-001  0.4052191E+03  0.7546771E-02  0.1041987E+00
          2   -1    0    0  502    0 -0.00000000000E+00  0.00000000000E+00  0.94891603447E+03  0.94891603447E+03  0.00000000000E+00 0.  1.
         21   -1    0    0  503  502  0.00000000000E+00 -0.00000000000E+00 -0.17343640081E+03  0.17343640081E+03  0.00000000000E+00 0. -1.
         25    1    1    2    0    0  0.11035180026E+03 -0.36932367360E+03  0.44775725868E+03  0.60389490675E+03  0.12500000000E+03 0.  0.
         21    1    1    2  503  501 -0.82840009957E+02  0.33838492463E+03  0.24483788445E+03  0.42580795452E+03  0.00000000000E+00 0.  1.
          2    1    1    2  501    0 -0.27511790305E+02  0.30938748968E+02  0.82884490526E+02  0.92649574005E+02  0.00000000000E+00 0.  1.
<mgrwt>
<rscale>  4 0.40521907E+03</rscale>
<asrwt>0</asrwt>
<pdfrwt beam="1">  1       21 0.26682524E-01 0.40521907E+03</pdfrwt>
<pdfrwt beam="2">  1        2 0.14598708E+00 0.40521907E+03</pdfrwt>
<totfact> 0.45235202E+03</totfact>
</mgrwt>
</event>
<event>
 5    0  0.2947253E-001  0.2415891E+03  0.7546771E-02  0.1118739E+00
         -1   -1    0    0    0  501 -0.00000000000E+00  0.00000000000E+00  0.79483555289E+03  0.79483555289E+03  0.00000000000E+00 0. -1.
         21   -1    0    0  501  502  0.00000000000E+00 -0.00000000000E+00 -0.66485201619E+02  0.66485201619E+02  0.00000000000E+00 0. -1.
         25    1    1    2    0    0  0.19568818331E+03  0.66681468612E+02  0.40943935749E+03  0.47540074759E+03  0.12500000000E+03 0.  0.
         21    1    1    2  501  501 -0.24729304196E+02 -0.32290900162E+02  0.40450681110E+02  0.57362865354E+02  0.00000000000E+00 0. -1.
         -1    1    1    2    0  502 -0.17095887911E+03 -0.34390568450E+02  0.27846031267E+03  0.32855714157E+03  0.00000000000E+00 0. -1.
<mgrwt>
<rscale>  4 0.24158908E+03</rscale>
<asrwt>0</asrwt>
<pdfrwt beam="1">  1       21 0.10228493E-01 0.24158908E+03</pdfrwt>
<pdfrwt beam="2">  1       -1 0.12228239E+00 0.24158908E+03</pdfrwt>
<totfact> 0.45987301E+03</totfact>
</mgrwt>
</event>
<event>
 5    0  0.2947253E-001  0.2595294E+03  0.7546771E-02  0.1107426E+00
          1   -1    0    0  502    0 -0.00000000000E+00  0.00000000000E+00  0.72784122401E+02  0.72784122401E+02  0.00000000000E+00 0.  1.
         21   -1    0    0  503  502  0.00000000000E+00 -0.00000000000E+00 -0.99253008708E+03  0.99253008708E+03  0.00000000000E+00 0.  1.
         25    1    1    2    0    0  0.12234511938E+03 -0.19173472290E+03 -0.69371616753E+03  0.74067378332E+03  0.12500000000E+03 0.  0.
         21    1    1    2  503  501 -0.52447739281E+02  0.50214982598E+02 -0.49731478113E+02  0.88008691323E+02  0.00000000000E+00 0.  1.
          1    1    1    2  501    0 -0.69897380095E+02  0.14151974030E+03 -0.17629831903E+03  0.23663173484E+03  0.00000000000E+00 0.  1.
<mgrwt>
<rscale>  4 0.25952944E+03</rscale>
<asrwt>0</asrwt>
<pdfrwt beam="1">  1       21 0.15269694E+00 0.25952944E+03</pdfrwt>
<pdfrwt beam="2">  1        1 0.11197557E-01 0.25952944E+03</pdfrwt>
<totfact> 0.16254428E+03</totfact>
</mgrwt>
</event>
<event>
 5    0  0.2947253E-001  0.3584041E+03  0.7546771E-02  0.1059218E+00
         21   -1    0    0  503  502  0.00000000000E+00  0.00000000000E+00  0.54023161427E+02  0.54023161427E+02  0.00000000000E+00 0. -1.
          2   -1    0    0  502    0 -0.00000000000E+00 -0.00000000000E+00 -0.24498852118E+04  0.24498852118E+04  0.00000000000E+00 0.  1.
         25    1    1    2    0    0  0.71981324887E+01  0.33691418815E+03 -0.12967432969E+04  0.13456341113E+04  0.12500000000E+03 0.  0.
         21    1    1    2  503  501 -0.27721394459E+02 -0.19777785148E+01 -0.12252289639E+03  0.12563537503E+03  0.00000000000E+00 0.  1.
          2    1    1    2  501    0  0.20523261971E+02 -0.33493640963E+03 -0.97659585702E+03  0.10326388869E+04  0.00000000000E+00 0.  1.
<mgrwt>
<rscale>  4 0.35840408E+03</rscale>
<asrwt>0</asrwt>
<pdfrwt beam="1">  1       21 0.83112551E-02 0.35840408E+03</pdfrwt>
<pdfrwt beam="2">  1        2 0.37690544E+00 0.35840408E+03</pdfrwt>
<totfact> 0.58708490E+03</totfact>
</mgrwt>
</event>
<event>
 5    0  0.2947253E-001  0.3213296E+03  0.7546771E-02  0.1075663E+00
          2   -1    0    0  502    0 -0.00000000000E+00  0.00000000000E+00  0.48215999699E+03  0.48215999699E+03  0.00000000000E+00 0. -1.
         21   -1    0    0  503  502  0.00000000000E+00 -0.00000000000E+00 -0.47477317049E+03  0.47477317049E+03  0.00000000000E+00 0. -1.
         25    1    1    2    0    0  0.26941136323E+03 -0.10771429486E+03 -0.35324648562E+03  0.47391236695E+03  0.12500000000E+03 0.  0.
         21    1    1    2  503  501 -0.83223094255E+02  0.92380797170E+02  0.87231962153E+02  0.15188716313E+03  0.00000000000E+00 0.  1.
          2    1    1    2  501    0 -0.18618826897E+03  0.15333497691E+02  0.27340134996E+03  0.33113363739E+03  0.00000000000E+00 0. -1.
<mgrwt>
<rscale>  4 0.31997034E+03</rscale>
<asrwt>0</asrwt>
<pdfrwt beam="1">  1       21 0.73042026E-01 0.32132959E+03</pdfrwt>
<pdfrwt beam="2">  1        2 0.74178461E-01 0.32132959E+03</pdfrwt>
<totfact> 0.13009495E+03</totfact>
</mgrwt>
</event>
<event>
 5    0  0.2947253E-001  0.2420000E+03  0.7546771E-02  0.1118468E+00
         21   -1    0    0  503  502  0.00000000000E+00  0.00000000000E+00  0.14146751581E+04  0.14146751581E+04  0.00000000000E+00 0. -1.
          1   -1    0    0  502    0 -0.00000000000E+00 -0.00000000000E+00 -0.10742323263E+04  0.10742323263E+04  0.00000000000E+00 0. -1.
         25    1    1    2    0    0 -0.38399894882E+02  0.20471091830E+03  0.13744254666E+04  0.13957261462E+04  0.12500000000E+03 0.  0.
         21    1    1    2  503  501 -0.36838887080E+02 -0.10401860414E+03 -0.94371066287E+02  0.14519942066E+03  0.00000000000E+00 0. -1.
          1    1    1    2  501    0  0.75238781962E+02 -0.10069231416E+03 -0.93961156849E+03  0.94798191759E+03  0.00000000000E+00 0. -1.
<mgrwt>
<rscale>  4 0.24199996E+03</rscale>
<asrwt>0</asrwt>
<pdfrwt beam="1">  1       21 0.21764233E+00 0.24199996E+03</pdfrwt>
<pdfrwt beam="2">  1        1 0.16526651E+00 0.24199996E+03</pdfrwt>
<totfact> 0.15581304E+01</totfact>
</mgrwt>
</event>
<event>
 5    0  0.2947253E-001  0.3759649E+03  0.7546771E-02  0.1052435E+00
          3   -1    0    0  502    0 -0.00000000000E+00  0.00000000000E+00  0.57104809681E+03  0.57104809681E+03  0.00000000000E+00 0.  1.
         21   -1    0    0  503  502  0.00000000000E+00 -0.00000000000E+00 -0.25427839675E+03  0.25427839675E+03  0.00000000000E+00 0.  1.
         25    1    1    2    0    0  0.35311014063E+03 -0.32215995076E+02  0.24978776691E+03  0.45137962986E+03  0.12500000000E+03 0.  0.
         21    1    1    2  503  501 -0.24038052626E+03 -0.20107929863E+02  0.64274490196E+02  0.24963640828E+03  0.00000000000E+00 0.  1.
          3    1    1    2  501    0 -0.11272961437E+03  0.52323924939E+02  0.27074429596E+01  0.12431045541E+03  0.00000000000E+00 0.  1.
<mgrwt>
<rscale>  4 0.37596495E+03</rscale>
<asrwt>0</asrwt>
<pdfrwt beam="1">  1       21 0.39119753E-01 0.37596495E+03</pdfrwt>
<pdfrwt beam="2">  1        3 0.87853553E-01 0.37596495E+03</pdfrwt>
<totfact> 0.36666806E+02</totfact>
</mgrwt>
</event>
<event>
 5    0  0.2947253E-001  0.3214258E+03  0.7546771E-02  0.1074995E+00
         21   -1    0    0  503  502  0.00000000000E+00  0.00000000000E+00  0.58105548272E+03  0.58105548272E+03  0.00000000000E+00 0. -1.
          2   -1    0    0  502    0 -0.00000000000E+00 -0.00000000000E+00 -0.13141584524E+04  0.13141584524E+04  0.00000000000E+00 0. -1.
         25    1    1    2    0    0 -0.26909468336E+03  0.12555114791E+03  0.51551198228E+03  0.60790841681E+03  0.12500000000E+03 0.  0.
         21    1    1    2  503  501  0.28512084530E+02  0.85330144138E+01 -0.57314613476E+02  0.64581082502E+02  0.00000000000E+00 0. -1.
          2    1    1    2  501    0  0.24058259883E+03 -0.13408416232E+03 -0.11913003385E+04  0.12227244358E+04  0.00000000000E+00 0. -1.
<mgrwt>
<rscale>  4 0.32142582E+03</rscale>
<asrwt>0</asrwt>
<pdfrwt beam="1">  1       21 0.89393152E-01 0.32142582E+03</pdfrwt>
<pdfrwt beam="2">  1        2 0.20217822E+00 0.32142582E+03</pdfrwt>
<totfact> 0.21688275E+02</totfact>
</mgrwt>
</event>
<event>
 5    0  0.2947253E-001  0.2266159E+03  0.7546771E-02  0.1129045E+00
          1   -1    0    0  502    0 -0.00000000000E+00  0.00000000000E+00  0.38806379187E+03  0.38806379187E+03  0.00000000000E+00 0.  1.
         21   -1    0    0  503  502  0.00000000000E+00 -0.00000000000E+00 -0.21629235910E+03  0.21629235910E+03  0.00000000000E+00 0.  1.
         25    1    1    2    0    0 -0.10049186080E+03  0.18032621994E+03 -0.95569830037E+02  0.25956646952E+03  0.12500000000E+03 0.  0.
         21    1    1    2  503  501  0.17478281182E+02 -0.13711316522E+02  0.44336510787E+01  0.22652765300E+02  0.00000000000E+00 0. -1.
          1    1    1    2  501    0  0.83013579615E+02 -0.16661490342E+03  0.26290761173E+03  0.32213691615E+03  0.00000000000E+00 0.  1.
<mgrwt>
<rscale>  4 0.22661586E+03</rscale>
<asrwt>0</asrwt>
<pdfrwt beam="1">  1       21 0.33275748E-01 0.22661586E+03</pdfrwt>
<pdfrwt beam="2">  1        1 0.59702122E-01 0.22661586E+03</pdfrwt>
<totfact> 0.59672128E+03</totfact>
</mgrwt>
</event>
<event>
 5    0  0.3304381E-001  0.2298117E+03  0.7546771E-02  0.1126772E+00
          2   -1    0    0  502    0 -0.00000000000E+00  0.00000000000E+00  0.23496898678E+04  0.23496898678E+04  0.00000000000E+00 0.  1.
         21   -1    0    0  503  502  0.00000000000E+00 -0.00000000000E+00 -0.18179123722E+03  0.18179123722E+03  0.00000000000E+00 0.  1.
         25    1    1    2    0    0  0.63062680618E+01  0.21971758859E+03 -0.80651601870E+02  0.26541527582E+03  0.12500000000E+03 0.  0.
         21    1    1    2  503  501  0.19966304623E+01 -0.27703157116E+02  0.37436160324E+02  0.46614563682E+02  0.00000000000E+00 0. -1.
          2    1    1    2  501    0 -0.83028985241E+01 -0.19201443148E+03  0.22111140721E+04  0.22194512655E+04  0.00000000000E+00 0.  1.
<mgrwt>
<rscale>  4 0.22981166E+03</rscale>
<asrwt>0</asrwt>
<pdfrwt beam="1">  1       21 0.27967884E-01 0.22981166E+03</pdfrwt>
<pdfrwt beam="2">  1        2 0.36149073E+00 0.22981166E+03</pdfrwt>
<totfact> 0.75063081E+02</totfact>
</mgrwt>
</event>
<event>
 5    0  0.2947253E-001  0.4449684E+03  0.7546771E-02  0.1029233E+00
         21   -1    0    0  503  502  0.00000000000E+00  0.00000000000E+00  0.73278985333E+02  0.73278985333E+02  0.00000000000E+00 0. -1.
          2   -1    0    0  502    0 -0.00000000000E+00 -0.00000000000E+00 -0.29543587881E+04  0.29543587881E+04  0.00000000000E+00 0. -1.
         25    1    1    2    0    0 -0.37035233350E+03 -0.21262879994E+03 -0.97969031466E+03  0.10760064917E+04  0.12500000000E+03 0.  0.
         21    1    1    2  503  501  0.59532092671E+02  0.17848161791E+02 -0.15229571742E+03  0.16448894334E+03  0.00000000000E+00 0. -1.
          2    1    1    2  501    0  0.31082024082E+03  0.19478063815E+03 -0.17490937707E+04  0.17871423384E+04  0.00000000000E+00 0. -1.
<mgrwt>
<rscale>  4 0.44496838E+03</rscale>
<asrwt>0</asrwt>
<pdfrwt beam="1">  1       21 0.11273691E-01 0.44496838E+03</pdfrwt>
<pdfrwt beam="2">  1        2 0.45451669E+00 0.44496838E+03</pdfrwt>
<totfact> 0.17049293E+03</totfact>
</mgrwt>
</event>
<event>
 5    0  0.2947253E-001  0.2478484E+03  0.7546771E-02  0.1114672E+00
         21   -1    0    0  503  502  0.00000000000E+00  0.00000000000E+00  0.12642753988E+03  0.12642753988E+03  0.00000000000E+00 0.  1.
          2   -1    0    0  502    0 -0.00000000000E+00 -0.00000000000E+00 -0.20005309318E+04  0.20005309318E+04  0.00000000000E+00 0. -1.
         25    1    1    2    0    0 -0.17825406512E+03 -0.10976452562E+03 -0.33455669613E+02  0.24610372741E+03  0.12500000000E+03 0.  0.
         21    1    1    2  503  501 -0.27649653445E+02 -0.71643555175E+02 -0.15461315989E+03  0.17263409729E+03  0.00000000000E+00 0.  1.
          2    1    1    2  501    0  0.20590371857E+03  0.18140808080E+03 -0.16860345624E+04  0.17082206470E+04  0.00000000000E+00 0. -1.
<mgrwt>
<rscale>  4 0.24784838E+03</rscale>
<asrwt>0</asrwt>
<pdfrwt beam="1">  1       21 0.19450392E-01 0.24784838E+03</pdfrwt>
<pdfrwt beam="2">  1        2 0.30777397E+00 0.24784838E+03</pdfrwt>
<totfact> 0.22721795E+03</totfact>
</mgrwt>
</event>
<event>
 5    0  0.2947253E-001  0.3983160E+03  0.7546771E-02  0.1044364E+00
         21   -1    0    0  503  502  0.00000000000E+00  0.00000000000E+00  0.59967956235E+03  0.59967956235E+03  0.00000000000E+00 0. -1.
          2   -1    0    0  502    0 -0.00000000000E+00 -0.00000000000E+00 -0.57409959350E+03  0.57409959350E+03  0.00000000000E+00 0. -1.
         25    1    1    2    0    0  0.21028146185E+03  0.31218751358E+03  0.42816880672E+03  0.58363761349E+03  0.12500000000E+03 0.  0.
         21    1    1    2  503  501 -0.23591451850E+02  0.30647261957E+02 -0.19965133220E+02  0.43524910228E+02  0.00000000000E+00 0. -1.
          2    1    1    2  501    0 -0.18669001000E+03 -0.34283477554E+03 -0.38262370465E+03  0.54661663213E+03  0.00000000000E+00 0. -1.
<mgrwt>
<rscale>  4 0.39831601E+03</rscale>
<asrwt>0</asrwt>
<pdfrwt beam="1">  1       21 0.92258395E-01 0.39831601E+03</pdfrwt>
<pdfrwt beam="2">  1        2 0.88323014E-01 0.39831601E+03</pdfrwt>
<totfact> 0.60658287E+02</totfact>
</mgrwt>
</event>
<event>
 5    0  0.2947253E-001  0.3368434E+03  0.7546771E-02  0.1068148E+00
          1   -1    0    0  502    0 -0.00000000000E+00  0.00000000000E+00  0.16872282637E+04  0.16872282637E+04  0.00000000000E+00 0.  1.
         21   -1    0    0  503  502  0.00000000000E+00 -0.00000000000E+00 -0.92677040089E+02  0.92677040089E+02  0.00000000000E+00 0. -1.
         25    1    1    2    0    0 -0.27275385208E+03 -0.15311369550E+03  0.31270633735E+03  0.45961801639E+03  0.12500000000E+03 0.  0.
         21    1    1    2  503  501  0.24367429546E+02  0.31193041101E+02  0.16123202889E+03  0.16601971141E+03  0.00000000000E+00 0.  1.
          1    1    1    2  501    0  0.24838642254E+03  0.12192065440E+03  0.11206128574E+04  0.11542675760E+04  0.00000000000E+00 0.  1.
<mgrwt>
<rscale>  4 0.33684339E+03</rscale>
<asrwt>0</asrwt>
<pdfrwt beam="1">  1       21 0.14258007E-01 0.33684339E+03</pdfrwt>
<pdfrwt beam="2">  1        1 0.25957356E+00 0.33684339E+03</pdfrwt>
<totfact> 0.24930345E+03</totfact>
</mgrwt>
</event>
<event>
 5    0  0.2947253E-001  0.5004291E+03  0.7546771E-02  0.1014834E+00
          2   -1    0    0  502    0 -0.00000000000E+00  0.00000000000E+00  0.21451000130E+04  0.21451000130E+04  0.00000000000E+00 0. -1.
         21   -1    0    0  503  502  0.00000000000E+00 -0.00000000000E+00 -0.40534477184E+03  0.40534477184E+03  0.00000000000E+00 0. -1.
         25    1    1    2    0    0 -0.52027294659E+02  0.46349146784E+03 -0.21796423422E+03  0.52977786623E+03  0.12500000000E+03 0.  0.
         21    1    1    2  503  501  0.37952382915E+02 -0.32378392344E+03  0.97718408307E+03  0.10301287030E+04  0.00000000000E+00 0. -1.
          2    1    1    2  501    0  0.14074911744E+02 -0.13970754440E+03  0.98053539230E+03  0.99053821565E+03  0.00000000000E+00 0. -1.
<mgrwt>
<rscale>  4 0.49597840E+03</rscale>
<asrwt>0</asrwt>
<pdfrwt beam="1">  1       21 0.62360735E-01 0.50042907E+03</pdfrwt>
<pdfrwt beam="2">  1        2 0.33001538E+00 0.50042907E+03</pdfrwt>
<totfact> 0.16282575E+02</totfact>
</mgrwt>
</event>
<event>
 5    0  0.2947253E-001  0.2891444E+03  0.7546771E-02  0.1090797E+00
          1   -1    0    0  502    0 -0.00000000000E+00  0.00000000000E+00  0.74787845225E+02  0.74787845225E+02  0.00000000000E+00 0. -1.
         21   -1    0    0  503  502  0.00000000000E+00 -0.00000000000E+00 -0.12387752073E+04  0.12387752073E+04  0.00000000000E+00 0. -1.
         25    1    1    2    0    0 -0.10625581973E+02  0.24144425679E+03 -0.56936520507E+03  0.63103880140E+03  0.12500000000E+03 0.  0.
         21    1    1    2  503  501 -0.45659312071E+02  0.31222689183E+02 -0.12277839593E+03  0.13466314866E+03  0.00000000000E+00 0. -1.
          1    1    1    2  501    0  0.56284894044E+02 -0.27266694598E+03 -0.47184376103E+03  0.54786110242E+03  0.00000000000E+00 0. -1.
<mgrwt>
<rscale>  4 0.28914440E+03</rscale>
<asrwt>0</asrwt>
<pdfrwt beam="1">  1       21 0.19058079E+00 0.28914440E+03</pdfrwt>
<pdfrwt beam="2">  1        1 0.11505823E-01 0.28914440E+03</pdfrwt>
<totfact> 0.83203569E+02</totfact>
</mgrwt>
</event>
<event>
 5    0  0.2947253E-001  0.2691161E+03  0.7546771E-02  0.1101787E+00
         21   -1    0    0  503  502  0.00000000000E+00  0.00000000000E+00  0.17044286145E+03  0.17044286145E+03  0.00000000000E+00 0.  1.
          1   -1    0    0  502    0 -0.00000000000E+00 -0.00000000000E+00 -0.94913896283E+03  0.94913896283E+03  0.00000000000E+00 0. -1.
         25    1    1    2    0    0 -0.88070308057E+02 -0.23168930907E+03  0.15183614831E+02  0.27801413140E+03  0.12500000000E+03 0.  0.
         21    1    1    2  503  501  0.49158598868E+02  0.47411314958E+02 -0.90319441028E+02  0.11323427951E+03  0.00000000000E+00 0.  1.
          1    1    1    2  501    0  0.38911709189E+02  0.18427799411E+03 -0.70356027518E+03  0.72833341337E+03  0.00000000000E+00 0. -1.
<mgrwt>
<rscale>  4 0.26911605E+03</rscale>
<asrwt>0</asrwt>
<pdfrwt beam="1">  1       21 0.26221978E-01 0.26911605E+03</pdfrwt>
<pdfrwt beam="2">  1        1 0.14602138E+00 0.26911605E+03</pdfrwt>
<totfact> 0.26328985E+03</totfact>
</mgrwt>
</event>
<event>
 5    0  0.2947253E-001  0.2740543E+03  0.7546771E-02  0.1098981E+00
         21   -1    0    0  503  502  0.00000000000E+00  0.00000000000E+00  0.26386982916E+03  0.26386982916E+03  0.00000000000E+00 0. -1.
          2   -1    0    0  502    0 -0.00000000000E+00 -0.00000000000E+00 -0.32331692436E+03  0.32331692436E+03  0.00000000000E+00 0.  1.
         25    1    1    2    0    0  0.24202033772E+03 -0.60216159079E+02  0.54208075463E+02  0.28418892507E+03  0.12500000000E+03 0.  0.
         21    1    1    2  503  501 -0.13564558224E+02 -0.19099348032E+02  0.16223771384E+02  0.28495492503E+02  0.00000000000E+00 0. -1.
          2    1    1    2  501    0 -0.22845577950E+03  0.79315507112E+02 -0.12987894205E+03  0.27450233595E+03  0.00000000000E+00 0.  1.
<mgrwt>
<rscale>  4 0.27405429E+03</rscale>
<asrwt>0</asrwt>
<pdfrwt beam="1">  1       21 0.40595358E-01 0.27405429E+03</pdfrwt>
<pdfrwt beam="2">  1        2 0.49741066E-01 0.27405429E+03</pdfrwt>
<totfact> 0.71787667E+03</totfact>
</mgrwt>
</event>
<event>
 5    0  0.2947253E-001  0.2216606E+03  0.7546771E-02  0.1132651E+00
          2   -1    0    0  502    0 -0.00000000000E+00  0.00000000000E+00  0.10985597241E+04  0.10985597241E+04  0.00000000000E+00 0.  1.
         21   -1    0    0  503  502  0.00000000000E+00 -0.00000000000E+00 -0.12551284906E+03  0.12551284906E+03  0.00000000000E+00 0.  1.
         25    1    1    2    0    0  0.21607954314E+03  0.44255243408E+02  0.45702672611E+02  0.25760945211E+03  0.12500000000E+03 0.  0.
         21    1    1    2  503  501 -0.38615954999E+02 -0.14715043328E+02  0.29504306256E+02  0.50776259889E+02  0.00000000000E+00 0.  1.
          2    1    1    2  501    0 -0.17746358814E+03 -0.29540200080E+02  0.89783989619E+03  0.91568686117E+03  0.00000000000E+00 0.  1.
<mgrwt>
<rscale>  4 0.22166063E+03</rscale>
<asrwt>0</asrwt>
<pdfrwt beam="1">  1       21 0.19309670E-01 0.22166063E+03</pdfrwt>
<pdfrwt beam="2">  1        2 0.16900918E+00 0.22166063E+03</pdfrwt>
<totfact> 0.71192689E+03</totfact>
</mgrwt>
</event>
<event>
 5    0  0.2947253E-001  0.2759243E+03  0.7546771E-02  0.1097936E+00
         21   -1    0    0  503  502  0.00000000000E+00  0.00000000000E+00  0.13587255757E+03  0.13587255757E+03  0.00000000000E+00 0.  1.
          1   -1    0    0  502    0 -0.00000000000E+00 -0.00000000000E+00 -0.89329077109E+03  0.89329077109E+03  0.00000000000E+00 0. -1.
         25    1    1    2    0    0 -0.22604972450E+03  0.97008879796E+02 -0.53725591582E+02  0.28110610078E+03  0.12500000000E+03 0.  0.
         21    1    1    2  503  501  0.16591842952E+02 -0.27084771639E+02 -0.66738499799E+02  0.73911443381E+02  0.00000000000E+00 0. -1.
          1    1    1    2  501    0  0.20945788155E+03 -0.69924108157E+02 -0.63695412214E+03  0.67414578450E+03  0.00000000000E+00 0. -1.
<mgrwt>
<rscale>  4 0.27592427E+03</rscale>
<asrwt>0</asrwt>
<pdfrwt beam="1">  1       21 0.20903471E-01 0.27592427E+03</pdfrwt>
<pdfrwt beam="2">  1        1 0.13742935E+00 0.27592427E+03</pdfrwt>
<totfact> 0.44804300E+03</totfact>
</mgrwt>
</event>
<event>
 5    0  0.2947253E-001  0.2654999E+03  0.7546771E-02  0.1103883E+00
         21   -1    0    0  503  502  0.00000000000E+00  0.00000000000E+00  0.48597629150E+02  0.48597629150E+02  0.00000000000E+00 0.  1.
          2   -1    0    0  502    0 -0.00000000000E+00 -0.00000000000E+00 -0.15184319313E+04  0.15184319313E+04  0.00000000000E+00 0.  1.
         25    1    1    2    0    0 -0.11700468620E+03  0.20291650703E+03 -0.50457185082E+03  0.57016046694E+03  0.12500000000E+03 0.  0.
         21    1    1    2  503  501  0.60848305733E+02 -0.59343662183E+02 -0.22041712549E+03  0.23623694834E+03  0.00000000000E+00 0.  1.
          2    1    1    2  501    0  0.56156380472E+02 -0.14357284484E+03 -0.74484532583E+03  0.76063214517E+03  0.00000000000E+00 0.  1.
<mgrwt>
<rscale>  4 0.26549992E+03</rscale>
<asrwt>0</asrwt>
<pdfrwt beam="1">  1       21 0.74765588E-02 0.26549992E+03</pdfrwt>
<pdfrwt beam="2">  1        2 0.23360490E+00 0.26549992E+03</pdfrwt>
<totfact> 0.22747139E+04</totfact>
</mgrwt>
</event>
<event>
 5    0  0.2947253E-001  0.2503712E+03  0.7546771E-02  0.1113070E+00
         21   -1    0    0  503  502  0.00000000000E+00  0.00000000000E+00  0.18299982129E+03  0.18299982129E+03  0.00000000000E+00 0.  1.
          2   -1    0    0  502    0 -0.00000000000E+00 -0.00000000000E+00 -0.71218763745E+03  0.71218763745E+03  0.00000000000E+00 0. -1.
         25    1    1    2    0    0 -0.42628136649E+02  0.21270539119E+03  0.67425965243E+02  0.25929134630E+03  0.12500000000E+03 0.  0.
         21    1    1    2  503  501 -0.42609201141E+00 -0.43040622635E+02 -0.87138997245E+02  0.97189925363E+02  0.00000000000E+00 0. -1.
          2    1    1    2  501    0  0.43054228661E+02 -0.16966476856E+03 -0.50947478417E+03  0.53870618708E+03  0.00000000000E+00 0. -1.
<mgrwt>
<rscale>  4 0.25037121E+03</rscale>
<asrwt>0</asrwt>
<pdfrwt beam="1">  1       21 0.28153819E-01 0.25037121E+03</pdfrwt>
<pdfrwt beam="2">  1        2 0.10956733E+00 0.25037121E+03</pdfrwt>
<totfact> 0.61364867E+03</totfact>
</mgrwt>
</event>
<event>
 5    0  0.2947253E-001  0.3682129E+03  0.7546771E-02  0.1055378E+00
         21   -1    0    0  503  502  0.00000000000E+00  0.00000000000E+00  0.67088576700E+03  0.67088576700E+03  0.00000000000E+00 0.  1.
          3   -1    0    0  502    0 -0.00000000000E+00 -0.00000000000E+00 -0.12352192937E+04  0.12352192937E+04  0.00000000000E+00 0. -1.
         25    1    1    2    0    0 -0.37224487447E+03 -0.40706611326E+03  0.39722269804E+03  0.69114393506E+03  0.12500000000E+03 0.  0.
         21    1    1    2  503  501  0.11440004558E+03  0.19235784129E+03 -0.31226744652E+02  0.22597349207E+03  0.00000000000E+00 0.  1.
          3    1    1    2  501    0  0.25784482888E+03  0.21470827197E+03 -0.93032948010E+03  0.98898763358E+03  0.00000000000E+00 0. -1.
<mgrwt>
<rscale>  4 0.36821292E+03</rscale>
<asrwt>0</asrwt>
<pdfrwt beam="1">  1       21 0.10321320E+00 0.36821292E+03</pdfrwt>
<pdfrwt beam="2">  1        3 0.19003373E+00 0.36821292E+03</pdfrwt>
<totfact> 0.63631119E+00</totfact>
</mgrwt>
</event>
<event>
 5    0  0.2947253E-001  0.2396679E+03  0.7546771E-02  0.1120014E+00
         21   -1    0    0  503  502  0.00000000000E+00  0.00000000000E+00  0.82559696913E+02  0.82559696913E+02  0.00000000000E+00 0.  1.
          2   -1    0    0  502    0 -0.00000000000E+00 -0.00000000000E+00 -0.64388034683E+03  0.64388034683E+03  0.00000000000E+00 0.  1.
         25    1    1    2    0    0  0.14145399818E+03  0.14767021242E+03 -0.21430045954E+03  0.32150491784E+03  0.12500000000E+03 0.  0.
         21    1    1    2  503  501 -0.26688767933E+02 -0.29377963508E+02 -0.39294331562E+02  0.55851585175E+02  0.00000000000E+00 0. -1.
          2    1    1    2  501    0 -0.11476523024E+03 -0.11829224891E+03 -0.30772585882E+03  0.34908354073E+03  0.00000000000E+00 0.  1.
<mgrwt>
<rscale>  4 0.23966795E+03</rscale>
<asrwt>0</asrwt>
<pdfrwt beam="1">  1       21 0.12701492E-01 0.23966795E+03</pdfrwt>
<pdfrwt beam="2">  1        2 0.99058514E-01 0.23966795E+03</pdfrwt>
<totfact> 0.30778979E+04</totfact>
</mgrwt>
</event>
<event>
 5    0  0.2947253E-001  0.2610480E+03  0.7546771E-02  0.1106515E+00
         21   -1    0    0  503  502  0.00000000000E+00  0.00000000000E+00  0.62978176794E+02  0.62978176794E+02  0.00000000000E+00 0. -1.
          2   -1    0    0  502    0 -0.00000000000E+00 -0.00000000000E+00 -0.14285529033E+04  0.14285529033E+04  0.00000000000E+00 0.  1.
         25    1    1    2    0    0 -0.18886993366E+03  0.12980447379E+03 -0.28724671228E+03  0.38814523954E+03  0.12500000000E+03 0.  0.
         21    1    1    2  503  501  0.14780623164E+03 -0.88229066139E+02 -0.87771117503E+03  0.89443163908E+03  0.00000000000E+00 0.  1.
          2    1    1    2  501    0  0.41063702017E+02 -0.41575407654E+02 -0.20061683920E+03  0.20895420148E+03  0.00000000000E+00 0.  1.
<mgrwt>
<rscale>  4 0.26104799E+03</rscale>
<asrwt>0</asrwt>
<pdfrwt beam="1">  1       21 0.96889505E-02 0.26104799E+03</pdfrwt>
<pdfrwt beam="2">  1        2 0.21977737E+00 0.26104799E+03</pdfrwt>
<totfact> 0.16127049E+04</totfact>
</mgrwt>
</event>
<event>
 5    0  0.2947253E-001  0.5572360E+03  0.7546771E-02  0.1000978E+00
          1   -1    0    0  502    0 -0.00000000000E+00  0.00000000000E+00  0.11799217406E+04  0.11799217406E+04  0.00000000000E+00 0. -1.
         21   -1    0    0  503  502  0.00000000000E+00 -0.00000000000E+00 -0.15189555969E+04  0.15189555969E+04  0.00000000000E+00 0. -1.
         25    1    1    2    0    0  0.47530054993E+03  0.21765479418E+03 -0.14004626687E+04  0.15000683014E+04  0.12500000000E+03 0.  0.
         21    1    1    2  503  501 -0.10731225036E+03 -0.51249478997E+02  0.97802394376E+02  0.15397316819E+03  0.00000000000E+00 0.  1.
          1    1    1    2  501    0 -0.36798829957E+03 -0.16640531518E+03  0.96362641801E+03  0.10448358680E+04  0.00000000000E+00 0. -1.
<mgrwt>
<rscale>  4 0.55223581E+03</rscale>
<asrwt>0</asrwt>
<pdfrwt beam="1">  1       21 0.23368548E+00 0.55723602E+03</pdfrwt>
<pdfrwt beam="2">  1        1 0.18152642E+00 0.55723602E+03</pdfrwt>
<totfact> 0.84285681E+00</totfact>
</mgrwt>
</event>
<event>
 5    0  0.2947253E-001  0.2952978E+03  0.7546771E-02  0.1087615E+00
          2   -1    0    0  502    0 -0.00000000000E+00  0.00000000000E+00  0.16900436167E+04  0.16900436167E+04  0.00000000000E+00 0.  1.
         21   -1    0    0  503  502  0.00000000000E+00 -0.00000000000E+00 -0.52624339315E+02  0.52624339315E+02  0.00000000000E+00 0.  1.
         25    1    1    2    0    0  0.20412629933E+03 -0.17293998648E+03  0.10318458682E+04  0.10732691558E+04  0.12500000000E+03 0.  0.
         21    1    1    2  503  501 -0.13146010900E+03  0.86800298821E+02  0.45376651742E+03  0.48033332642E+03  0.00000000000E+00 0.  1.
          2    1    1    2  501    0 -0.72666190325E+02  0.86139687663E+02  0.15180689175E+03  0.18906547381E+03  0.00000000000E+00 0.  1.
<mgrwt>
<rscale>  4 0.29529779E+03</rscale>
<asrwt>0</asrwt>
<pdfrwt beam="1">  1       21 0.80960535E-02 0.29529779E+03</pdfrwt>
<pdfrwt beam="2">  1        2 0.26000667E+00 0.29529779E+03</pdfrwt>
<totfact> 0.15928652E+04</totfact>
</mgrwt>
</event>
<event>
 5    0  0.2947253E-001  0.2545516E+03  0.7546771E-02  0.1110462E+00
          2   -1    0    0  502    0 -0.00000000000E+00  0.00000000000E+00  0.76710857959E+03  0.76710857959E+03  0.00000000000E+00 0. -1.
         21   -1    0    0  503  502  0.00000000000E+00 -0.00000000000E+00 -0.75411690223E+03  0.75411690223E+03  0.00000000000E+00 0. -1.
         25    1    1    2    0    0  0.17974673889E+03 -0.12985614691E+03 -0.71450364301E+03  0.75849322008E+03  0.12500000000E+03 0.  0.
         21    1    1    2  503  501 -0.56016807900E+02  0.24675686224E+02  0.13218689386E+03  0.14567136701E+03  0.00000000000E+00 0.  1.
          2    1    1    2  501    0 -0.12372993099E+03  0.10518046068E+03  0.59530842651E+03  0.61706089473E+03  0.00000000000E+00 0. -1.
<mgrwt>
<rscale>  4 0.25455158E+03</rscale>
<asrwt>0</asrwt>
<pdfrwt beam="1">  1       21 0.11601798E+00 0.25455158E+03</pdfrwt>
<pdfrwt beam="2">  1        2 0.11801671E+00 0.25455158E+03</pdfrwt>
<totfact> 0.26023736E+02</totfact>
</mgrwt>
</event>
<event>
 5    0  0.2947253E-001  0.3321815E+03  0.7546771E-02  0.1070176E+00
         21   -1    0    0  503  502  0.00000000000E+00  0.00000000000E+00  0.37656635702E+03  0.37656635702E+03  0.00000000000E+00 0. -1.
          2   -1    0    0  502    0 -0.00000000000E+00 -0.00000000000E+00 -0.16630696881E+04  0.16630696881E+04  0.00000000000E+00 0.  1.
         25    1    1    2    0    0 -0.19593883812E+03 -0.23733413951E+03  0.28239677664E+03  0.43599594209E+03  0.12500000000E+03 0.  0.
         21    1    1    2  503  501  0.97301012626E+02  0.30580164689E+02 -0.43006175698E+03  0.44199066545E+03  0.00000000000E+00 0. -1.
          2    1    1    2  501    0  0.98637825495E+02  0.20675397483E+03 -0.11388383507E+04  0.11616494375E+04  0.00000000000E+00 0.  1.
<mgrwt>
<rscale>  4 0.33218146E+03</rscale>
<asrwt>0</asrwt>
<pdfrwt beam="1">  1       21 0.57933285E-01 0.33218146E+03</pdfrwt>
<pdfrwt beam="2">  1        2 0.25585688E+00 0.33218146E+03</pdfrwt>
<totfact> 0.37013586E+02</totfact>
</mgrwt>
</event>
<event>
 5    0  0.2947253E-001  0.2346661E+03  0.7546771E-02  0.1123398E+00
          2   -1    0    0  502    0 -0.00000000000E+00  0.00000000000E+00  0.18070645995E+04  0.18070645995E+04  0.00000000000E+00 0. -1.
         21   -1    0    0  503  502  0.00000000000E+00 -0.00000000000E+00 -0.18632931408E+03  0.18632931408E+03  0.00000000000E+00 0. -1.
         25    1    1    2    0    0 -0.77604595533E+02 -0.19323943316E+03 -0.76798643259E+02  0.25472923543E+03  0.12500000000E+03 0.  0.
         21    1    1    2  503  501  0.69423694481E+02  0.14760723689E+03  0.30947557016E+03  0.34983235165E+03  0.00000000000E+00 0. -1.
          2    1    1    2  501    0  0.81809010514E+01  0.45632196277E+02  0.13880583585E+04  0.13888323265E+04  0.00000000000E+00 0. -1.
<mgrwt>
<rscale>  4 0.23466611E+03</rscale>
<asrwt>0</asrwt>
<pdfrwt beam="1">  1       21 0.28666050E-01 0.23466611E+03</pdfrwt>
<pdfrwt beam="2">  1        2 0.27800993E+00 0.23466611E+03</pdfrwt>
<totfact> 0.13772221E+03</totfact>
</mgrwt>
</event>
<event>
 5    0  0.2947253E-001  0.2687729E+03  0.7546771E-02  0.1101984E+00
          2   -1    0    0  502    0 -0.00000000000E+00  0.00000000000E+00  0.22094380496E+04  0.22094380496E+04  0.00000000000E+00 0. -1.
         21   -1    0    0  503  502  0.00000000000E+00 -0.00000000000E+00 -0.31381925053E+02  0.31381925053E+02  0.00000000000E+00 0. -1.
         25    1    1    2    0    0 -0.86435778848E+02  0.22168160381E+03  0.87493329948E+03  0.91528528660E+03  0.12500000000E+03 0.  0.
         21    1    1    2  503  501  0.28625260761E+02 -0.34208672933E+02  0.31306165274E+03  0.31622339773E+03  0.00000000000E+00 0.  1.
          2    1    1    2  501    0  0.57810518087E+02 -0.18747293088E+03  0.99006117232E+03  0.10093112903E+04  0.00000000000E+00 0. -1.
<mgrwt>
<rscale>  4 0.26877291E+03</rscale>
<asrwt>0</asrwt>
<pdfrwt beam="1">  1       21 0.48279902E-02 0.26877291E+03</pdfrwt>
<pdfrwt beam="2">  1        2 0.33991342E+00 0.26877291E+03</pdfrwt>
<totfact> 0.20864167E+04</totfact>
</mgrwt>
</event>
<event>
 5    0  0.2947253E-001  0.1973823E+03  0.7546771E-02  0.1151967E+00
          3   -1    0    0  502    0 -0.00000000000E+00  0.00000000000E+00  0.83837900765E+03  0.83837900765E+03  0.00000000000E+00 0.  1.
         21   -1    0    0  503  502  0.00000000000E+00 -0.00000000000E+00 -0.83445800708E+02  0.83445800708E+02  0.00000000000E+00 0. -1.
         25    1    1    2    0    0 -0.19420154424E+03 -0.97927366390E+02  0.22817754289E+03  0.33910765245E+03  0.12500000000E+03 0.  0.
         21    1    1    2  503  501  0.64105094961E+02  0.44823065940E+02  0.70465448261E+02  0.10528033928E+03  0.00000000000E+00 0. -1.
          3    1    1    2  501    0  0.13009644928E+03  0.53104300450E+02  0.45629021580E+03  0.47743681663E+03  0.00000000000E+00 0.  1.
<mgrwt>
<rscale>  4 0.19738230E+03</rscale>
<asrwt>0</asrwt>
<pdfrwt beam="1">  1       21 0.12837816E-01 0.19738230E+03</pdfrwt>
<pdfrwt beam="2">  1        3 0.12898138E+00 0.19738230E+03</pdfrwt>
<totfact> 0.12818369E+03</totfact>
</mgrwt>
</event>
<event>
 5    0  0.2947253E-001  0.4953637E+03  0.7546771E-02  0.1015752E+00
          2   -1    0    0  502    0 -0.00000000000E+00  0.00000000000E+00  0.83765256433E+03  0.83765256433E+03  0.00000000000E+00 0. -1.
         21   -1    0    0  503  502  0.00000000000E+00 -0.00000000000E+00 -0.30546136984E+03  0.30546136984E+03  0.00000000000E+00 0.  1.
         25    1    1    2    0    0 -0.41983652352E+03 -0.20595870994E+03  0.12004649049E+03  0.49871620844E+03  0.12500000000E+03 0.  0.
         21    1    1    2  503  501  0.77413197860E+02 -0.17984043495E+02  0.31261335711E+02  0.85401991392E+02  0.00000000000E+00 0. -1.
          2    1    1    2  501    0  0.34242332566E+03  0.22394275343E+03  0.38088336828E+03  0.55899573434E+03  0.00000000000E+00 0. -1.
<mgrwt>
<rscale>  4 0.49251131E+03</rscale>
<asrwt>0</asrwt>
<pdfrwt beam="1">  1       21 0.46994057E-01 0.49536368E+03</pdfrwt>
<pdfrwt beam="2">  1        2 0.12886962E+00 0.49536368E+03</pdfrwt>
<totfact> 0.16703137E+03</totfact>
</mgrwt>
</event>
<event>
 5    0  0.4021295E-001  0.5353365E+03  0.7546771E-02  0.1004946E+00
          1   -1    0    0  502    0 -0.00000000000E+00  0.00000000000E+00  0.17581680270E+04  0.17581680270E+04  0.00000000000E+00 0. -1.
         21   -1    0    0  503  502  0.00000000000E+00 -0.00000000000E+00 -0.29164814182E+03  0.29164814182E+03  0.00000000000E+00 0. -1.
         25    1    1    2    0    0  0.32440390147E+03 -0.40709001985E+03  0.48427758487E+02  0.53752248636E+03  0.12500000000E+03 0.  0.
         21    1    1    2  503  501 -0.19667863310E+02  0.49707751269E+01  0.42552870499E+02  0.47141067449E+02  0.00000000000E+00 0.  1.
          1    1    1    2  501    0 -0.30473603816E+03  0.40211924472E+03  0.13755392562E+04  0.14651526150E+04  0.00000000000E+00 0. -1.
<mgrwt>
<rscale>  4 0.53533651E+03</rscale>
<asrwt>0</asrwt>
<pdfrwt beam="1">  1       21 0.44868946E-01 0.53533651E+03</pdfrwt>
<pdfrwt beam="2">  1        1 0.27048738E+00 0.53533651E+03</pdfrwt>
<totfact> 0.22468986E+02</totfact>
</mgrwt>
</event>
<event>
 5    0  0.2947253E-001  0.1942934E+03  0.7546771E-02  0.1154645E+00
         21   -1    0    0  501  502  0.00000000000E+00  0.00000000000E+00  0.52385335855E+02  0.52385335855E+02  0.00000000000E+00 0.  1.
         -3   -1    0    0    0  501 -0.00000000000E+00 -0.00000000000E+00 -0.14825869774E+04  0.14825869774E+04  0.00000000000E+00 0. -1.
         25    1    1    2    0    0  0.63376216552E+02 -0.19701669150E+03 -0.44467510227E+03  0.50615518187E+03  0.12500000000E+03 0.  0.
         21    1    1    2  501  501 -0.12000726053E+03  0.64847997764E+02 -0.31872375275E+03  0.34668694230E+03  0.00000000000E+00 0.  1.
         -3    1    1    2    0  502  0.56631043981E+02  0.13216869373E+03 -0.66680278652E+03  0.68213018909E+03  0.00000000000E+00 0. -1.
<mgrwt>
<rscale>  4 0.19429343E+03</rscale>
<asrwt>0</asrwt>
<pdfrwt beam="1">  1       21 0.80592842E-02 0.19429343E+03</pdfrwt>
<pdfrwt beam="2">  1       -3 0.22809025E+00 0.19429343E+03</pdfrwt>
<totfact> 0.64281853E+02</totfact>
</mgrwt>
</event>
<event>
 5    0  0.2947253E-001  0.3634534E+03  0.7546771E-02  0.1057225E+00
         21   -1    0    0  503  502  0.00000000000E+00  0.00000000000E+00  0.20938486482E+03  0.20938486482E+03  0.00000000000E+00 0.  1.
          2   -1    0    0  502    0 -0.00000000000E+00 -0.00000000000E+00 -0.16714057421E+04  0.16714057421E+04  0.00000000000E+00 0.  1.
         25    1    1    2    0    0  0.34738595123E+03 -0.72216187853E+02 -0.16928734295E+02  0.37656839876E+03  0.12500000000E+03 0.  0.
         21    1    1    2  503  501 -0.10493856629E+03 -0.79309371402E+02 -0.43602002264E+03  0.45542896178E+03  0.00000000000E+00 0.  1.
          2    1    1    2  501    0 -0.24244738493E+03  0.15152555926E+03 -0.10090721203E+04  0.10487932463E+04  0.00000000000E+00 0.  1.
<mgrwt>
<rscale>  4 0.36345340E+03</rscale>
<asrwt>0</asrwt>
<pdfrwt beam="1">  1       21 0.32213055E-01 0.36345340E+03</pdfrwt>
<pdfrwt beam="2">  1        2 0.25713935E+00 0.36345340E+03</pdfrwt>
<totfact> 0.12216464E+03</totfact>
</mgrwt>
</event>
<event>
 5    0  0.2947253E-001  0.2174459E+03  0.7546771E-02  0.1135802E+00
          2   -1    0    0  502    0 -0.00000000000E+00  0.00000000000E+00  0.10107818815E+04  0.10107818815E+04  0.00000000000E+00 0. -1.
         21   -1    0    0  503  502  0.00000000000E+00 -0.00000000000E+00 -0.18547365077E+03  0.18547365077E+03  0.00000000000E+00 0. -1.
         25    1    1    2    0    0  0.16905032043E+03  0.11419470697E+03 -0.85011865219E+02  0.25391033686E+03  0.12500000000E+03 0.  0.
         21    1    1    2  503  501 -0.67338746998E+02 -0.83465504683E+02  0.22994671408E+03  0.25372522271E+03  0.00000000000E+00 0. -1.
          2    1    1    2  501    0 -0.10171157343E+03 -0.30729202289E+02  0.68037338186E+03  0.68861997269E+03  0.00000000000E+00 0. -1.
<mgrwt>
<rscale>  4 0.21744595E+03</rscale>
<asrwt>0</asrwt>
<pdfrwt beam="1">  1       21 0.28534408E-01 0.21744595E+03</pdfrwt>
<pdfrwt beam="2">  1        2 0.15550490E+00 0.21744595E+03</pdfrwt>
<totfact> 0.38236326E+03</totfact>
</mgrwt>
</event>
<event>
 5    0  0.2947253E-001  0.2636996E+03  0.7546771E-02  0.1104941E+00
          2   -1    0    0  502    0 -0.00000000000E+00  0.00000000000E+00  0.16101202940E+03  0.16101202940E+03  0.00000000000E+00 0. -1.
         21   -1    0    0  503  502  0.00000000000E+00 -0.00000000000E+00 -0.45202869274E+03  0.45202869274E+03  0.00000000000E+00 0. -1.
         25    1    1    2    0    0 -0.23114447254E+03 -0.22016615875E+02 -0.24069382454E+03  0.35703083303E+03  0.12500000000E+03 0.  0.
         21    1    1    2  503  501  0.10780609494E+03 -0.26204753911E+02 -0.54299548429E+02  0.12352037966E+03  0.00000000000E+00 0. -1.
          2    1    1    2  501    0  0.12333837760E+03  0.48221369786E+02  0.39767096230E+01  0.13248950945E+03  0.00000000000E+00 0. -1.
<mgrwt>
<rscale>  4 0.26369964E+03</rscale>
<asrwt>0</asrwt>
<pdfrwt beam="1">  1       21 0.69542875E-01 0.26369964E+03</pdfrwt>
<pdfrwt beam="2">  1        2 0.24771082E-01 0.26369964E+03</pdfrwt>
<totfact> 0.49206818E+03</totfact>
</mgrwt>
</event>
<event>
 5    0  0.2947253E-001  0.4828983E+03  0.7546771E-02  0.1018342E+00
          1   -1    0    0  502    0 -0.00000000000E+00  0.00000000000E+00  0.80452134416E+03  0.80452134416E+03  0.00000000000E+00 0.  1.
         21   -1    0    0  503  502  0.00000000000E+00 -0.00000000000E+00 -0.29428980907E+04  0.29428980907E+04  0.00000000000E+00 0. -1.
         25    1    1    2    0    0  0.89141231957E+02 -0.45913665798E+03 -0.28417208245E+04  0.28826645442E+04  0.12500000000E+03 0.  0.
         21    1    1    2  503  501 -0.41122443816E+02  0.31363649420E+02  0.17915489128E+03  0.18647039701E+03  0.00000000000E+00 0. -1.
          1    1    1    2  501    0 -0.48018788141E+02  0.42777300856E+03  0.52418918669E+03  0.67828449364E+03  0.00000000000E+00 0.  1.
<mgrwt>
<rscale>  4 0.48289830E+03</rscale>
<asrwt>0</asrwt>
<pdfrwt beam="1">  1       21 0.45275356E+00 0.48289830E+03</pdfrwt>
<pdfrwt beam="2">  1        1 0.12377251E+00 0.48289830E+03</pdfrwt>
<totfact> 0.72395883E-01</totfact>
</mgrwt>
</event>
<event>
 5    0  0.2947253E-001  0.5416308E+03  0.7546771E-02  0.1003450E+00
          2   -1    0    0  502    0 -0.00000000000E+00  0.00000000000E+00  0.24924729278E+04  0.24924729278E+04  0.00000000000E+00 0. -1.
         21   -1    0    0  503  502  0.00000000000E+00 -0.00000000000E+00 -0.18036610736E+03  0.18036610736E+03  0.00000000000E+00 0. -1.
         25    1    1    2    0    0  0.42284650236E+03  0.32212469405E+03  0.39901048288E+03  0.67631194617E+03  0.12500000000E+03 0.  0.
         21    1    1    2  503  501 -0.31650877280E+02  0.11131913251E+02  0.33923660676E+03  0.34089173192E+03  0.00000000000E+00 0.  1.
          2    1    1    2  501    0 -0.39119562508E+03 -0.33325660730E+03  0.15738597308E+04  0.16556353571E+04  0.00000000000E+00 0. -1.
<mgrwt>
<rscale>  4 0.54163081E+03</rscale>
<asrwt>0</asrwt>
<pdfrwt beam="1">  1       21 0.27748634E-01 0.54163081E+03</pdfrwt>
<pdfrwt beam="2">  1        2 0.38345735E+00 0.54163081E+03</pdfrwt>
<totfact> 0.55916814E+02</totfact>
</mgrwt>
</event>
<event>
 5    0  0.2947253E-001  0.2450406E+03  0.7546771E-02  0.1116480E+00
          1   -1    0    0  502    0 -0.00000000000E+00  0.00000000000E+00  0.17499074851E+03  0.17499074851E+03  0.00000000000E+00 0.  1.
         21   -1    0    0  503  502  0.00000000000E+00 -0.00000000000E+00 -0.10277192857E+04  0.10277192857E+04  0.00000000000E+00 0. -1.
         25    1    1    2    0    0 -0.19764222920E+03 -0.73194454164E+02 -0.93517840707E+03  0.96674894979E+03  0.12500000000E+03 0.  0.
         21    1    1    2  503  501  0.71518889193E+01  0.22797629265E+02  0.11663333685E+02  0.26587868810E+02  0.00000000000E+00 0. -1.
          1    1    1    2  501    0  0.19049034028E+03  0.50396824899E+02  0.70786536204E+02  0.20937321559E+03  0.00000000000E+00 0.  1.
<mgrwt>
<rscale>  4 0.24504057E+03</rscale>
<asrwt>0</asrwt>
<pdfrwt beam="1">  1       21 0.15811066E+00 0.24504057E+03</pdfrwt>
<pdfrwt beam="2">  1        1 0.26921653E-01 0.24504057E+03</pdfrwt>
<totfact> 0.47407955E+02</totfact>
</mgrwt>
</event>
<event>
 5    0  0.2947253E-001  0.2181233E+03  0.7546771E-02  0.1135290E+00
          1   -1    0    0  502    0 -0.00000000000E+00  0.00000000000E+00  0.48013500243E+03  0.48013500243E+03  0.00000000000E+00 0. -1.
         21   -1    0    0  503  502  0.00000000000E+00 -0.00000000000E+00 -0.45474775459E+03  0.45474775459E+03  0.00000000000E+00 0. -1.
         25    1    1    2    0    0 -0.19022752726E+03  0.69740309773E+02 -0.38584151693E+03  0.45337500937E+03  0.12500000000E+03 0.  0.
         21    1    1    2  503  501  0.19231026477E+02 -0.21235229492E+02 -0.48478604974E+01  0.29056309166E+02  0.00000000000E+00 0.  1.
          1    1    1    2  501    0  0.17099650078E+03 -0.48505080282E+02  0.41607662527E+03  0.45245143848E+03  0.00000000000E+00 0. -1.
<mgrwt>
<rscale>  4 0.21812328E+03</rscale>
<asrwt>0</asrwt>
<pdfrwt beam="1">  1       21 0.69961192E-01 0.21812328E+03</pdfrwt>
<pdfrwt beam="2">  1        1 0.73866924E-01 0.21812328E+03</pdfrwt>
<totfact> 0.96391074E+02</totfact>
</mgrwt>
</event>
<event>
 5    0  0.2947253E-001  0.3715519E+03  0.7546771E-02  0.1054101E+00
         21   -1    0    0  503  502  0.00000000000E+00  0.00000000000E+00  0.69471134182E+03  0.69471134182E+03  0.00000000000E+00 0. -1.
          1   -1    0    0  502    0 -0.00000000000E+00 -0.00000000000E+00 -0.56622428871E+03  0.56622428871E+03  0.00000000000E+00 0.  1.
         25    1    1    2    0    0 -0.17681488830E+03  0.28475614852E+03  0.47476249990E+03  0.59445268959E+03  0.12500000000E+03 0.  0.
         21    1    1    2  503  501 -0.92720235431E+02  0.75472751603E+02 -0.71211409006E+02  0.13915546366E+03  0.00000000000E+00 0.  1.
          1    1    1    2  501    0  0.26953512373E+03 -0.36022890012E+03 -0.27506403779E+03  0.52732747728E+03  0.00000000000E+00 0.  1.
<mgrwt>
<rscale>  4 0.37155193E+03</rscale>
<asrwt>0</asrwt>
<pdfrwt beam="1">  1       21 0.10687867E+00 0.37155193E+03</pdfrwt>
<pdfrwt beam="2">  1        1 0.87111429E-01 0.37155193E+03</pdfrwt>
<totfact> 0.27014114E+02</totfact>
</mgrwt>
</event>
<event>
 5    0  0.2947253E-001  0.3923108E+03  0.7546771E-02  0.1046475E+00
          1   -1    0    0  502    0 -0.00000000000E+00  0.00000000000E+00  0.63624297040E+03  0.63624297040E+03  0.00000000000E+00 0. -1.
         21   -1    0    0  503  502  0.00000000000E+00 -0.00000000000E+00 -0.79344488434E+03  0.79344488434E+03  0.00000000000E+00 0.  1.
         25    1    1    2    0    0  0.13988334019E+03 -0.34772487849E+03 -0.66803076567E+03  0.77612501819E+03  0.12500000000E+03 0.  0.
         21    1    1    2  503  501 -0.47957880032E+02  0.16030645794E+02  0.20677193535E+02  0.54630451163E+02  0.00000000000E+00 0. -1.
          1    1    1    2  501    0 -0.91925460161E+02  0.33169423270E+03  0.49015165819E+03  0.59893238538E+03  0.00000000000E+00 0. -1.
<mgrwt>
<rscale>  4 0.39231077E+03</rscale>
<asrwt>0</asrwt>
<pdfrwt beam="1">  1       21 0.12206844E+00 0.39231077E+03</pdfrwt>
<pdfrwt beam="2">  1        1 0.97883535E-01 0.39231077E+03</pdfrwt>
<totfact> 0.16327040E+02</totfact>
</mgrwt>
</event>
<event>
 5    0  0.2947253E-001  0.2280088E+03  0.7546771E-02  0.1128049E+00
          2   -1    0    0  502    0 -0.00000000000E+00  0.00000000000E+00  0.11158903847E+04  0.11158903847E+04  0.00000000000E+00 0. -1.
         21   -1    0    0  503  502  0.00000000000E+00 -0.00000000000E+00 -0.97526070447E+02  0.97526070447E+02  0.00000000000E+00 0. -1.
         25    1    1    2    0    0  0.15698551973E+03  0.14101781549E+03  0.10301772663E+03  0.26602279919E+03  0.12500000000E+03 0.  0.
         21    1    1    2  503  501 -0.14890520215E+02 -0.17514767038E+02  0.14715012783E+02  0.27295169130E+02  0.00000000000E+00 0.  1.
          2    1    1    2  501    0 -0.14209499951E+03 -0.12350304845E+03  0.90063157486E+03  0.92009848685E+03  0.00000000000E+00 0. -1.
<mgrwt>
<rscale>  4 0.22800880E+03</rscale>
<asrwt>0</asrwt>
<pdfrwt beam="1">  1       21 0.15004012E-01 0.22800880E+03</pdfrwt>
<pdfrwt beam="2">  1        2 0.17167544E+00 0.22800880E+03</pdfrwt>
<totfact> 0.11062780E+04</totfact>
</mgrwt>
</event>
<event>
 5    0  0.2947253E-001  0.3536587E+03  0.7546771E-02  0.1061123E+00
         21   -1    0    0  503  502  0.00000000000E+00  0.00000000000E+00  0.94621033982E+02  0.94621033982E+02  0.00000000000E+00 0.  1.
          2   -1    0    0  502    0 -0.00000000000E+00 -0.00000000000E+00 -0.21093817368E+04  0.21093817368E+04  0.00000000000E+00 0.  1.
         25    1    1    2    0    0 -0.52789683180E+02 -0.32659255557E+03 -0.32359125310E+03  0.47935972618E+03  0.12500000000E+03 0.  0.
         21    1    1    2  503  501 -0.14454664735E+02  0.10760169317E+03 -0.50127170559E+03  0.51289412605E+03  0.00000000000E+00 0.  1.
          2    1    1    2  501    0  0.67244347915E+02  0.21899086239E+03 -0.11898977441E+04  0.12117489185E+04  0.00000000000E+00 0.  1.
<mgrwt>
<rscale>  4 0.35365866E+03</rscale>
<asrwt>0</asrwt>
<pdfrwt beam="1">  1       21 0.14557084E-01 0.35365866E+03</pdfrwt>
<pdfrwt beam="2">  1        2 0.32452022E+00 0.35365866E+03</pdfrwt>
<totfact> 0.32713925E+03</totfact>
</mgrwt>
</event>
<event>
 5    0  0.2947253E-001  0.3556218E+03  0.7546771E-02  0.1060331E+00
          2   -1    0    0  502    0 -0.00000000000E+00  0.00000000000E+00  0.18829956903E+04  0.18829956903E+04  0.00000000000E+00 0. -1.
         21   -1    0    0  503  502  0.00000000000E+00 -0.00000000000E+00 -0.16605077358E+03  0.16605077358E+03  0.00000000000E+00 0. -1.
         25    1    1    2    0    0  0.11860337943E+03  0.31108691415E+03  0.63925614075E+02  0.36132162114E+03  0.12500000000E+03 0.  0.
         21    1    1    2  503  501 -0.73936851618E+02 -0.10000983053E+03  0.64328577053E+03  0.65519860103E+03  0.00000000000E+00 0. -1.
          2    1    1    2  501    0 -0.44666527813E+02 -0.21107708362E+03  0.10097335321E+04  0.10325262417E+04  0.00000000000E+00 0. -1.
<mgrwt>
<rscale>  4 0.35562175E+03</rscale>
<asrwt>0</asrwt>
<pdfrwt beam="1">  1       21 0.25546274E-01 0.35562175E+03</pdfrwt>
<pdfrwt beam="2">  1        2 0.28969163E+00 0.35562175E+03</pdfrwt>
<totfact> 0.14916333E+03</totfact>
</mgrwt>
</event>
<event>
 5    0  0.2947253E-001  0.3458216E+03  0.7546771E-02  0.1064343E+00
          1   -1    0    0  502    0 -0.00000000000E+00  0.00000000000E+00  0.24182326709E+04  0.24182326709E+04  0.00000000000E+00 0.  1.
         21   -1    0    0  503  502  0.00000000000E+00 -0.00000000000E+00 -0.79544945553E+02  0.79544945553E+02  0.00000000000E+00 0.  1.
         25    1    1    2    0    0  0.31720665126E+03  0.57857699372E+02  0.38761697824E+03  0.51946077311E+03  0.12500000000E+03 0.  0.
         21    1    1    2  503  501 -0.29402151234E+02 -0.40121692581E+01  0.10278733345E+03  0.10698513877E+03  0.00000000000E+00 0. -1.
          1    1    1    2  501    0 -0.28780450003E+03 -0.53845530114E+02  0.18482834136E+04  0.18713317045E+04  0.00000000000E+00 0.  1.
<mgrwt>
<rscale>  4 0.34582159E+03</rscale>
<asrwt>0</asrwt>
<pdfrwt beam="1">  1       21 0.12237686E-01 0.34582159E+03</pdfrwt>
<pdfrwt beam="2">  1        1 0.37203574E+00 0.34582159E+03</pdfrwt>
<totfact> 0.10868691E+03</totfact>
</mgrwt>
</event>
<event>
 5    0  0.2947253E-001  0.2824430E+03  0.7546771E-02  0.1094362E+00
          2   -1    0    0  502    0 -0.00000000000E+00  0.00000000000E+00  0.25834863479E+04  0.25834863479E+04  0.00000000000E+00 0.  1.
         21   -1    0    0  503  502  0.00000000000E+00 -0.00000000000E+00 -0.37585918588E+02  0.37585918588E+02  0.00000000000E+00 0.  1.
         25    1    1    2    0    0 -0.26086485301E+03  0.23791038894E+02  0.80929224516E+03  0.85976474872E+03  0.12500000000E+03 0.  0.
         21    1    1    2  503  501  0.29050887201E+02  0.43625091090E+02  0.32787821761E+03  0.33204100380E+03  0.00000000000E+00 0. -1.
          2    1    1    2  501    0  0.23181396581E+03 -0.67416129984E+02  0.14087299666E+04  0.14292665140E+04  0.00000000000E+00 0.  1.
<mgrwt>
<rscale>  4 0.28244304E+03</rscale>
<asrwt>0</asrwt>
<pdfrwt beam="1">  1       21 0.57824510E-02 0.28244304E+03</pdfrwt>
<pdfrwt beam="2">  1        2 0.39745930E+00 0.28244304E+03</pdfrwt>
<totfact> 0.95574016E+03</totfact>
</mgrwt>
</event>
<event>
 5    0  0.2947253E-001  0.3297356E+03  0.7546771E-02  0.1071254E+00
         21   -1    0    0  503  502  0.00000000000E+00  0.00000000000E+00  0.18128618471E+03  0.18128618471E+03  0.00000000000E+00 0. -1.
          2   -1    0    0  502    0 -0.00000000000E+00 -0.00000000000E+00 -0.14618491205E+04  0.14618491205E+04  0.00000000000E+00 0. -1.
         25    1    1    2    0    0 -0.23987292946E+03 -0.18857768630E+03 -0.42654375312E+01  0.32976318778E+03  0.12500000000E+03 0.  0.
         21    1    1    2  503  501  0.21845227809E+02  0.17292548657E+01 -0.11778920309E+03  0.11981026945E+03  0.00000000000E+00 0. -1.
          2    1    1    2  501    0  0.21802770165E+03  0.18684843143E+03 -0.11585082952E+04  0.11935618480E+04  0.00000000000E+00 0. -1.
<mgrwt>
<rscale>  4 0.32973560E+03</rscale>
<asrwt>0</asrwt>
<pdfrwt beam="1">  1       21 0.27890182E-01 0.32973560E+03</pdfrwt>
<pdfrwt beam="2">  1        2 0.22489987E+00 0.32973560E+03</pdfrwt>
<totfact> 0.21292052E+03</totfact>
</mgrwt>
</event>
<event>
 5    0  0.2947253E-001  0.2489593E+03  0.7546771E-02  0.1113964E+00
         21   -1    0    0  501  502  0.00000000000E+00  0.00000000000E+00  0.55234304536E+03  0.55234304536E+03  0.00000000000E+00 0. -1.
         -4   -1    0    0    0  501 -0.00000000000E+00 -0.00000000000E+00 -0.81071938086E+03  0.81071938086E+03  0.00000000000E+00 0.  1.
         25    1    1    2    0    0  0.21539313684E+03  0.89187651925E+01  0.48402973796E+03  0.54441118192E+03  0.12500000000E+03 0.  0.
         21    1    1    2  501  501 -0.46522069157E+01 -0.64161680438E+02 -0.25206482445E+02  0.69092192201E+02  0.00000000000E+00 0.  1.
         -4    1    1    2    0  502 -0.21074092992E+03  0.55242915246E+02 -0.71719959101E+03  0.74955905210E+03  0.00000000000E+00 0.  1.
<mgrwt>
<rscale>  4 0.24895928E+03</rscale>
<asrwt>0</asrwt>
<pdfrwt beam="1">  1       21 0.84975853E-01 0.24895928E+03</pdfrwt>
<pdfrwt beam="2">  1       -4 0.12472606E+00 0.24895928E+03</pdfrwt>
<totfact> 0.24881731E+01</totfact>
</mgrwt>
</event>
<event>
 5    0  0.3505863E-001  0.3010629E+03  0.7546771E-02  0.1084711E+00
          2   -1    0    0  502    0 -0.00000000000E+00  0.00000000000E+00  0.12489733813E+04  0.12489733813E+04  0.00000000000E+00 0.  1.
         21   -1    0    0  503  502  0.00000000000E+00 -0.00000000000E+00 -0.43757012595E+03  0.43757012595E+03  0.00000000000E+00 0. -1.
         25    1    1    2    0    0  0.12135844765E+03 -0.24706188756E+03 -0.36419240554E+03  0.47331655090E+03  0.12500000000E+03 0.  0.
         21    1    1    2  503  501 -0.25694515264E+02  0.21033273651E+02  0.42926423248E+02  0.54270475657E+02  0.00000000000E+00 0. -1.
          2    1    1    2  501    0 -0.95663932388E+02  0.22602861390E+03  0.11326692376E+04  0.11589564807E+04  0.00000000000E+00 0.  1.
<mgrwt>
<rscale>  4 0.30106286E+03</rscale>
<asrwt>0</asrwt>
<pdfrwt beam="1">  1       21 0.67318481E-01 0.30106286E+03</pdfrwt>
<pdfrwt beam="2">  1        2 0.19214975E+00 0.30106286E+03</pdfrwt>
<totfact> 0.45444410E+02</totfact>
</mgrwt>
</event>
<event>
 5    0  0.2947253E-001  0.3384220E+03  0.7546771E-02  0.1067470E+00
         21   -1    0    0  503  502  0.00000000000E+00  0.00000000000E+00  0.16044784345E+03  0.16044784345E+03  0.00000000000E+00 0.  1.
          2   -1    0    0  502    0 -0.00000000000E+00 -0.00000000000E+00 -0.69769431900E+03  0.69769431900E+03  0.00000000000E+00 0.  1.
         25    1    1    2    0    0 -0.29819834614E+03 -0.99910886085E+02 -0.33572907329E+03  0.47670058680E+03  0.12500000000E+03 0.  0.
         21    1    1    2  503  501  0.77338917760E+02  0.29664862292E+01 -0.21067250099E+02  0.80211827479E+02  0.00000000000E+00 0.  1.
          2    1    1    2  501    0  0.22085942838E+03  0.96944399856E+02 -0.18045015216E+03  0.30122974817E+03  0.00000000000E+00 0.  1.
<mgrwt>
<rscale>  4 0.33842198E+03</rscale>
<asrwt>0</asrwt>
<pdfrwt beam="1">  1       21 0.24684283E-01 0.33842198E+03</pdfrwt>
<pdfrwt beam="2">  1        2 0.10733759E+00 0.33842198E+03</pdfrwt>
<totfact> 0.79645371E+03</totfact>
</mgrwt>
</event>
<event>
 5    0  0.2947253E-001  0.2389140E+03  0.7546771E-02  0.1120518E+00
         21   -1    0    0  503  502  0.00000000000E+00  0.00000000000E+00  0.54995066057E+02  0.54995066057E+02  0.00000000000E+00 0. -1.
          2   -1    0    0  502    0 -0.00000000000E+00 -0.00000000000E+00 -0.13628788765E+04  0.13628788765E+04  0.00000000000E+00 0. -1.
         25    1    1    2    0    0  0.19885213130E+03  0.43735020250E+02 -0.27520642308E+03  0.36444272173E+03  0.12500000000E+03 0.  0.
         21    1    1    2  503  501 -0.14141301449E+03 -0.30899899305E+02 -0.82379929068E+03  0.83641958117E+03  0.00000000000E+00 0. -1.
          2    1    1    2  501    0 -0.57439116815E+02 -0.12835120945E+02 -0.20887809664E+03  0.21701163961E+03  0.00000000000E+00 0. -1.
<mgrwt>
<rscale>  4 0.23891405E+03</rscale>
<asrwt>0</asrwt>
<pdfrwt beam="1">  1       21 0.84607791E-02 0.23891405E+03</pdfrwt>
<pdfrwt beam="2">  1        2 0.20967368E+00 0.23891405E+03</pdfrwt>
<totfact> 0.22354794E+04</totfact>
</mgrwt>
</event>
<event>
 5    0  0.2947253E-001  0.2101725E+03  0.7546771E-02  0.1141429E+00
         21   -1    0    0  503  502  0.00000000000E+00  0.00000000000E+00  0.17619885999E+03  0.17619885999E+03  0.00000000000E+00 0. -1.
          4   -1    0    0  502    0 -0.00000000000E+00 -0.00000000000E+00 -0.72043227486E+03  0.72043227486E+03  0.00000000000E+00 0. -1.
         25    1    1    2    0    0 -0.21688327471E+03  0.64936820217E+02 -0.41455429570E+02  0.26191353174E+03  0.12500000000E+03 0.  0.
         21    1    1    2  503  501  0.54825025057E+02 -0.93651743882E+02 -0.30251508241E+01  0.10856142981E+03  0.00000000000E+00 0. -1.
          4    1    1    2  501    0  0.16205824966E+03  0.28714923666E+02 -0.49975283448E+03  0.52615617330E+03  0.00000000000E+00 0. -1.
<mgrwt>
<rscale>  4 0.21017246E+03</rscale>
<asrwt>0</asrwt>
<pdfrwt beam="1">  1       21 0.27107517E-01 0.21017246E+03</pdfrwt>
<pdfrwt beam="2">  1        4 0.11083574E+00 0.21017246E+03</pdfrwt>
<totfact> 0.36524970E+02</totfact>
</mgrwt>
</event>
<event>
 5    0  0.2947253E-001  0.3236784E+03  0.7546771E-02  0.1073969E+00
          2   -1    0    0  502    0 -0.00000000000E+00  0.00000000000E+00  0.32150694312E+03  0.32150694312E+03  0.00000000000E+00 0.  1.
         21   -1    0    0  503  502  0.00000000000E+00 -0.00000000000E+00 -0.32855954748E+03  0.32855954748E+03  0.00000000000E+00 0.  1.
         25    1    1    2    0    0 -0.24656009907E+03  0.16837711109E+03  0.34624832053E+02  0.32552513419E+03  0.12500000000E+03 0.  0.
         21    1    1    2  503  501  0.10929660507E+03 -0.65256180202E+01 -0.96025858322E+01  0.10991151543E+03  0.00000000000E+00 0.  1.
          2    1    1    2  501    0  0.13726349400E+03 -0.16185149307E+03 -0.32074850586E+02  0.21462984097E+03  0.00000000000E+00 0.  1.
<mgrwt>
<rscale>  4 0.32367844E+03</rscale>
<asrwt>0</asrwt>
<pdfrwt beam="1">  1       21 0.50547623E-01 0.32367844E+03</pdfrwt>
<pdfrwt beam="2">  1        2 0.49462607E-01 0.32367844E+03</pdfrwt>
<totfact> 0.45339788E+03</totfact>
</mgrwt>
</event>
<event>
 5    0  0.2947253E-001  0.2385880E+03  0.7546771E-02  0.1120737E+00
         21   -1    0    0  501  502  0.00000000000E+00  0.00000000000E+00  0.59739332760E+03  0.59739332760E+03  0.00000000000E+00 0.  1.
         -1   -1    0    0    0  501 -0.00000000000E+00 -0.00000000000E+00 -0.88315780120E+02  0.88315780120E+02  0.00000000000E+00 0.  1.
         25    1    1    2    0    0  0.20002286338E+03  0.35917502210E+02  0.33522626320E+03  0.41146185775E+03  0.12500000000E+03 0.  0.
         21    1    1    2  501  501 -0.10282673558E+03 -0.11327116195E+02  0.12637314443E+03  0.16331507200E+03  0.00000000000E+00 0. -1.
         -1    1    1    2    0  502 -0.97196127807E+02 -0.24590386016E+02  0.47478139846E+02  0.11093217797E+03  0.00000000000E+00 0.  1.
<mgrwt>
<rscale>  4 0.23858796E+03</rscale>
<asrwt>0</asrwt>
<pdfrwt beam="1">  1       21 0.91906663E-01 0.23858796E+03</pdfrwt>
<pdfrwt beam="2">  1       -1 0.13587043E-01 0.23858796E+03</pdfrwt>
<totfact> 0.33433035E+03</totfact>
</mgrwt>
</event>
<event>
 5    0  0.2947253E-001  0.2554140E+03  0.7546771E-02  0.1109930E+00
         21   -1    0    0  503  502  0.00000000000E+00  0.00000000000E+00  0.37885854586E+02  0.37885854586E+02  0.00000000000E+00 0. -1.
          2   -1    0    0  502    0 -0.00000000000E+00 -0.00000000000E+00 -0.29410615498E+04  0.29410615498E+04  0.00000000000E+00 0. -1.
         25    1    1    2    0    0  0.21352114366E+03 -0.63403722541E+02 -0.46747582207E+03  0.53270062422E+03  0.12500000000E+03 0.  0.
         21    1    1    2  503  501 -0.23155362246E+02  0.17234440438E+02 -0.21594280553E+03  0.21786347101E+03  0.00000000000E+00 0. -1.
          2    1    1    2  501    0 -0.19036578141E+03  0.46169282103E+02 -0.22197570676E+04  0.22283833092E+04  0.00000000000E+00 0. -1.
<mgrwt>
<rscale>  4 0.25541400E+03</rscale>
<asrwt>0</asrwt>
<pdfrwt beam="1">  1       21 0.58285900E-02 0.25541400E+03</pdfrwt>
<pdfrwt beam="2">  1        2 0.45247124E+00 0.25541400E+03</pdfrwt>
<totfact> 0.59646374E+03</totfact>
</mgrwt>
</event>
<event>
 5    0  0.2947253E-001  0.2426056E+03  0.7546771E-02  0.1118069E+00
         -4   -1    0    0    0  501 -0.00000000000E+00  0.00000000000E+00  0.13828155232E+03  0.13828155232E+03  0.00000000000E+00 0. -1.
         21   -1    0    0  501  502  0.00000000000E+00 -0.00000000000E+00 -0.75345862662E+03  0.75345862662E+03  0.00000000000E+00 0.  1.
         25    1    1    2    0    0 -0.20728352197E+03  0.16310156200E+02 -0.62767437003E+03  0.67292837247E+03  0.12500000000E+03 0.  0.
         21    1    1    2  501  501  0.14232250314E+03  0.79417223196E+01 -0.16811218548E+02  0.14353181850E+03  0.00000000000E+00 0. -1.
         -4    1    1    2    0  502  0.64961018828E+02 -0.24251878520E+02  0.29308514287E+02  0.75279987969E+02  0.00000000000E+00 0. -1.
<mgrwt>
<rscale>  4 0.24260561E+03</rscale>
<asrwt>0</asrwt>
<pdfrwt beam="1">  1       21 0.11591671E+00 0.24260561E+03</pdfrwt>
<pdfrwt beam="2">  1       -4 0.21274085E-01 0.24260561E+03</pdfrwt>
<totfact> 0.48400864E+02</totfact>
</mgrwt>
</event>
<event>
 5    0  0.2947253E-001  0.3136620E+03  0.7546771E-02  0.1078604E+00
          2   -1    0    0  502    0 -0.00000000000E+00  0.00000000000E+00  0.10829924131E+04  0.10829924131E+04  0.00000000000E+00 0. -1.
         21   -1    0    0  503  502  0.00000000000E+00 -0.00000000000E+00 -0.25241186600E+03  0.25241186600E+03  0.00000000000E+00 0. -1.
         25    1    1    2    0    0 -0.28490924000E+03  0.39818979236E+02 -0.12277536791E+03  0.33683470295E+03  0.12500000000E+03 0.  0.
         21    1    1    2  503  501  0.29883971002E+02  0.18788612844E+02  0.12207056711E+03  0.12707197586E+03  0.00000000000E+00 0. -1.
          2    1    1    2  501    0  0.25502526900E+03 -0.58607592080E+02  0.83128534795E+03  0.87149760034E+03  0.00000000000E+00 0. -1.
<mgrwt>
<rscale>  4 0.31366196E+03</rscale>
<asrwt>0</asrwt>
<pdfrwt beam="1">  1       21 0.38832595E-01 0.31366196E+03</pdfrwt>
<pdfrwt beam="2">  1        2 0.16661421E+00 0.31366196E+03</pdfrwt>
<totfact> 0.18109713E+03</totfact>
</mgrwt>
</event>
<event>
 5    0  0.2947253E-001  0.3990690E+03  0.7546771E-02  0.1044103E+00
          2   -1    0    0  502    0 -0.00000000000E+00  0.00000000000E+00  0.10170357872E+04  0.10170357872E+04  0.00000000000E+00 0. -1.
         21   -1    0    0  503  502  0.00000000000E+00 -0.00000000000E+00 -0.62526720688E+03  0.62526720688E+03  0.00000000000E+00 0. -1.
         25    1    1    2    0    0 -0.30943024356E+02  0.37766639334E+03 -0.50947814262E+03  0.64713395308E+03  0.12500000000E+03 0.  0.
         21    1    1    2  503  501 -0.36970613301E+02 -0.23872931847E+01  0.48543724864E+02  0.61065691189E+02  0.00000000000E+00 0. -1.
          2    1    1    2  501    0  0.67913637657E+02 -0.37527910015E+03  0.85270299805E+03  0.93410334979E+03  0.00000000000E+00 0. -1.
<mgrwt>
<rscale>  4 0.39906901E+03</rscale>
<asrwt>0</asrwt>
<pdfrwt beam="1">  1       21 0.96194954E-01 0.39906901E+03</pdfrwt>
<pdfrwt beam="2">  1        2 0.15646704E+00 0.39906901E+03</pdfrwt>
<totfact> 0.26301966E+02</totfact>
</mgrwt>
</event>
<event>
 5    0  0.2947253E-001  0.2456244E+03  0.7546771E-02  0.1116102E+00
          2   -1    0    0  502    0 -0.00000000000E+00  0.00000000000E+00  0.15075895095E+04  0.15075895095E+04  0.00000000000E+00 0. -1.
         21   -1    0    0  503  502  0.00000000000E+00 -0.00000000000E+00 -0.71140191287E+02  0.71140191287E+02  0.00000000000E+00 0. -1.
         25    1    1    2    0    0 -0.27371778652E+02  0.20961902740E+03  0.21608293609E+03  0.32711800039E+03  0.12500000000E+03 0.  0.
         21    1    1    2  503  501  0.54501935380E+02  0.55748605364E+01  0.36929265537E+03  0.37333444167E+03  0.00000000000E+00 0. -1.
          2    1    1    2  501    0 -0.27130156728E+02 -0.21519388793E+03  0.85107372673E+03  0.87827725870E+03  0.00000000000E+00 0. -1.
<mgrwt>
<rscale>  4 0.24562436E+03</rscale>
<asrwt>0</asrwt>
<pdfrwt beam="1">  1       21 0.10944646E-01 0.24562436E+03</pdfrwt>
<pdfrwt beam="2">  1        2 0.23193682E+00 0.24562436E+03</pdfrwt>
<totfact> 0.11819628E+04</totfact>
</mgrwt>
</event>
<event>
 5    0  0.2947253E-001  0.6330428E+03  0.7546771E-02  0.9896877E-01
         21   -1    0    0  503  502  0.00000000000E+00  0.00000000000E+00  0.40041149680E+03  0.40041149680E+03  0.00000000000E+00 0. -1.
          2   -1    0    0  502    0 -0.00000000000E+00 -0.00000000000E+00 -0.90084974018E+03  0.90084974018E+03  0.00000000000E+00 0. -1.
         25    1    1    2    0    0 -0.48450165070E+03 -0.15916601607E+03 -0.56570414253E+02  0.52811067209E+03  0.12500000000E+03 0.  0.
         21    1    1    2  503  501  0.30886017439E+03 -0.50163910172E+02 -0.38051108017E+03  0.49264562044E+03  0.00000000000E+00 0. -1.
          2    1    1    2  501    0  0.17564147631E+03  0.20932992624E+03 -0.63356748963E+02  0.28050494445E+03  0.00000000000E+00 0. -1.
<mgrwt>
<rscale>  4 0.60412877E+03</rscale>
<asrwt>0</asrwt>
<pdfrwt beam="1">  1       21 0.61601769E-01 0.63304277E+03</pdfrwt>
<pdfrwt beam="2">  1        2 0.13859227E+00 0.63304277E+03</pdfrwt>
<totfact> 0.82119379E+02</totfact>
</mgrwt>
</event>
<event>
 5    0  0.2947253E-001  0.2688152E+03  0.7546771E-02  0.1101960E+00
         21   -1    0    0  503  502  0.00000000000E+00  0.00000000000E+00  0.27262433907E+03  0.27262433907E+03  0.00000000000E+00 0.  1.
          2   -1    0    0  502    0 -0.00000000000E+00 -0.00000000000E+00 -0.22949341174E+04  0.22949341174E+04  0.00000000000E+00 0.  1.
         25    1    1    2    0    0 -0.20861256775E+03 -0.11453121142E+03  0.19696387746E+03  0.33325121281E+03  0.12500000000E+03 0.  0.
         21    1    1    2  503  501  0.10621941816E+03  0.42202204272E+02 -0.64487881913E+03  0.65492921923E+03  0.00000000000E+00 0. -1.
          2    1    1    2  501    0  0.10239314958E+03  0.72329007147E+02 -0.15743948367E+04  0.15793780245E+04  0.00000000000E+00 0.  1.
<mgrwt>
<rscale>  4 0.26881518E+03</rscale>
<asrwt>0</asrwt>
<pdfrwt beam="1">  1       21 0.41942206E-01 0.26881518E+03</pdfrwt>
<pdfrwt beam="2">  1        2 0.35306678E+00 0.26881518E+03</pdfrwt>
<totfact> 0.34926420E+02</totfact>
</mgrwt>
</event>
<event>
 5    0  0.2947253E-001  0.3222578E+03  0.7546771E-02  0.1074615E+00
         21   -1    0    0  503  502  0.00000000000E+00  0.00000000000E+00  0.17266995222E+03  0.17266995222E+03  0.00000000000E+00 0. -1.
          2   -1    0    0  502    0 -0.00000000000E+00 -0.00000000000E+00 -0.82545004423E+03  0.82545004423E+03  0.00000000000E+00 0.  1.
         25    1    1    2    0    0 -0.30827861061E+02  0.29542295658E+03 -0.55174531766E+02  0.32694695173E+03  0.12500000000E+03 0.  0.
         21    1    1    2  503  501  0.19137078809E+02 -0.43222588071E+02 -0.53787201216E+02  0.71606444679E+02  0.00000000000E+00 0.  1.
          2    1    1    2  501    0  0.11690782252E+02 -0.25220036851E+03 -0.54381835903E+03  0.59956660004E+03  0.00000000000E+00 0.  1.
<mgrwt>
<rscale>  4 0.32225779E+03</rscale>
<asrwt>0</asrwt>
<pdfrwt beam="1">  1       21 0.26564608E-01 0.32225779E+03</pdfrwt>
<pdfrwt beam="2">  1        2 0.12699231E+00 0.32225779E+03</pdfrwt>
<totfact> 0.56040670E+03</totfact>
</mgrwt>
</event>
<event>
 5    0  0.2947253E-001  0.3686253E+03  0.7546771E-02  0.1056176E+00
          2   -1    0    0  502    0 -0.00000000000E+00  0.00000000000E+00  0.24262732648E+04  0.24262732648E+04  0.00000000000E+00 0.  1.
         21   -1    0    0  503  502  0.00000000000E+00 -0.00000000000E+00 -0.20872918116E+03  0.20872918116E+03  0.00000000000E+00 0.  1.
         25    1    1    2    0    0  0.29019258436E+03  0.17002145093E+03 -0.27532840821E+02  0.35986398419E+03  0.12500000000E+03 0.  0.
         21    1    1    2  503  501 -0.14258173835E+03 -0.11939069929E+03  0.78412519379E+03  0.80587592762E+03  0.00000000000E+00 0. -1.
          2    1    1    2  501    0 -0.14761084602E+03 -0.50630751644E+02  0.14609517307E+04  0.14692625342E+04  0.00000000000E+00 0.  1.
<mgrwt>
<rscale>  4 0.36614639E+03</rscale>
<asrwt>0</asrwt>
<pdfrwt beam="1">  1       21 0.32112183E-01 0.36862532E+03</pdfrwt>
<pdfrwt beam="2">  1        2 0.37327279E+00 0.36862532E+03</pdfrwt>
<totfact> 0.48311128E+02</totfact>
</mgrwt>
</event>
<event>
 5    0  0.2947253E-001  0.2355519E+03  0.7546771E-02  0.1122792E+00
         -2   -1    0    0    0  501 -0.00000000000E+00  0.00000000000E+00  0.23418355571E+03  0.23418355571E+03  0.00000000000E+00 0.  1.
         21   -1    0    0  501  502  0.00000000000E+00 -0.00000000000E+00 -0.40091192431E+03  0.40091192431E+03  0.00000000000E+00 0. -1.
         25    1    1    2    0    0  0.14584352649E+03  0.16181806717E+03 -0.26282933590E+03  0.36353772967E+03  0.12500000000E+03 0.  0.
         21    1    1    2  501  501 -0.72883754401E+02 -0.15220353155E+03  0.27555398480E+02  0.17098905420E+03  0.00000000000E+00 0. -1.
         -2    1    1    2    0  502 -0.72959772091E+02 -0.96145356219E+01  0.68545568824E+02  0.10056869614E+03  0.00000000000E+00 0.  1.
<mgrwt>
<rscale>  4 0.23555191E+03</rscale>
<asrwt>0</asrwt>
<pdfrwt beam="1">  1       21 0.61678757E-01 0.23555191E+03</pdfrwt>
<pdfrwt beam="2">  1       -2 0.36028240E-01 0.23555191E+03</pdfrwt>
<totfact> 0.14112828E+03</totfact>
</mgrwt>
</event>
<event>
 5    0  0.2947253E-001  0.2490542E+03  0.7546771E-02  0.1113904E+00
          2   -1    0    0  502    0 -0.00000000000E+00  0.00000000000E+00  0.56151387056E+03  0.56151387056E+03  0.00000000000E+00 0.  1.
         21   -1    0    0  503  502  0.00000000000E+00 -0.00000000000E+00 -0.11610953214E+03  0.11610953214E+03  0.00000000000E+00 0.  1.
         25    1    1    2    0    0 -0.22619478117E+03 -0.90483224190E+01  0.16307169496E+03  0.30571772743E+03  0.12500000000E+03 0.  0.
         21    1    1    2  503  501  0.22143715847E+02  0.19396406615E+01  0.85356587275E+02  0.88203476964E+02  0.00000000000E+00 0. -1.
          2    1    1    2  501    0  0.20405106532E+03  0.71086817575E+01  0.19697605619E+03  0.28370219831E+03  0.00000000000E+00 0.  1.
<mgrwt>
<rscale>  4 0.24905421E+03</rscale>
<asrwt>0</asrwt>
<pdfrwt beam="1">  1       21 0.17863005E-01 0.24905421E+03</pdfrwt>
<pdfrwt beam="2">  1        2 0.86386748E-01 0.24905421E+03</pdfrwt>
<totfact> 0.19303408E+04</totfact>
</mgrwt>
</event>
<event>
 5    0  0.2947253E-001  0.3491373E+03  0.7546771E-02  0.1062970E+00
         21   -1    0    0  503  502  0.00000000000E+00  0.00000000000E+00  0.55327402092E+02  0.55327402092E+02  0.00000000000E+00 0. -1.
          1   -1    0    0  502    0 -0.00000000000E+00 -0.00000000000E+00 -0.21645195166E+04  0.21645195166E+04  0.00000000000E+00 0. -1.
         25    1    1    2    0    0  0.28384644574E+03 -0.16032165789E+03 -0.12665713991E+04  0.13138112299E+04  0.12500000000E+03 0.  0.
         21    1    1    2  503  501 -0.24941169785E+02  0.36651504152E+02 -0.14772003925E+03  0.15422906569E+03  0.00000000000E+00 0.  1.
          1    1    1    2  501    0 -0.25890527596E+03  0.12367015373E+03 -0.69490067613E+03  0.75180662309E+03  0.00000000000E+00 0. -1.
<mgrwt>
<rscale>  4 0.34913728E+03</rscale>
<asrwt>0</asrwt>
<pdfrwt beam="1">  1       21 0.85119083E-02 0.34913728E+03</pdfrwt>
<pdfrwt beam="2">  1        1 0.33300299E+00 0.34913728E+03</pdfrwt>
<totfact> 0.30621377E+03</totfact>
</mgrwt>
</event>
<event>
 5    0  0.2947253E-001  0.2491964E+03  0.7546771E-02  0.1113814E+00
          2   -1    0    0  502    0 -0.00000000000E+00  0.00000000000E+00  0.33287777986E+03  0.33287777986E+03  0.00000000000E+00 0.  1.
         21   -1    0    0  503  502  0.00000000000E+00 -0.00000000000E+00 -0.16902946083E+03  0.16902946083E+03  0.00000000000E+00 0.  1.
         25    1    1    2    0    0 -0.68786282900E+01 -0.21546813844E+03  0.12924780638E+03  0.28072019818E+03  0.12500000000E+03 0.  0.
         21    1    1    2  503  501 -0.12438264144E+02  0.40814565040E+02  0.44291961907E+01  0.42897050169E+02  0.00000000000E+00 0.  1.
          2    1    1    2  501    0  0.19316892434E+02  0.17465357340E+03  0.30171316462E+02  0.17828999235E+03  0.00000000000E+00 0.  1.
<mgrwt>
<rscale>  4 0.24919638E+03</rscale>
<asrwt>0</asrwt>
<pdfrwt beam="1">  1       21 0.26004533E-01 0.24919638E+03</pdfrwt>
<pdfrwt beam="2">  1        2 0.51211966E-01 0.24919638E+03</pdfrwt>
<totfact> 0.16892976E+04</totfact>
</mgrwt>
</event>
<event>
 5    0  0.2947253E-001  0.2217770E+03  0.7546771E-02  0.1132565E+00
         21   -1    0    0  501  502  0.00000000000E+00  0.00000000000E+00  0.73927193572E+02  0.73927193572E+02  0.00000000000E+00 0. -1.
         -4   -1    0    0    0  501 -0.00000000000E+00 -0.00000000000E+00 -0.18901676092E+04  0.18901676092E+04  0.00000000000E+00 0. -1.
         25    1    1    2    0    0  0.11122888714E+03 -0.20777824902E+03 -0.23846871046E+03  0.35782117317E+03  0.12500000000E+03 0.  0.
         21    1    1    2  501  501 -0.55417520563E+02  0.11207589991E+03 -0.31885838536E+03  0.34249493257E+03  0.00000000000E+00 0. -1.
         -4    1    1    2    0  502 -0.55811366578E+02  0.95702349113E+02 -0.12589133198E+04  0.12637786970E+04  0.00000000000E+00 0. -1.
<mgrwt>
<rscale>  4 0.22177700E+03</rscale>
<asrwt>0</asrwt>
<pdfrwt beam="1">  1       21 0.11373416E-01 0.22177700E+03</pdfrwt>
<pdfrwt beam="2">  1       -4 0.29079497E+00 0.22177700E+03</pdfrwt>
<totfact> 0.11283416E+02</totfact>
</mgrwt>
</event>
<event>
 5    0  0.2947253E-001  0.2404955E+03  0.7546771E-02  0.1119463E+00
          1   -1    0    0  502    0 -0.00000000000E+00  0.00000000000E+00  0.58558191971E+03  0.58558191971E+03  0.00000000000E+00 0.  1.
         21   -1    0    0  503  502  0.00000000000E+00 -0.00000000000E+00 -0.10567126660E+03  0.10567126660E+03  0.00000000000E+00 0.  1.
         25    1    1    2    0    0 -0.42637109062E+02 -0.20735545725E+03  0.24208323866E+03  0.34502681513E+03  0.12500000000E+03 0.  0.
         21    1    1    2  503  501 -0.18969800044E+02  0.15158415851E+02  0.97322850003E+02  0.10030637077E+03  0.00000000000E+00 0. -1.
          1    1    1    2  501    0  0.61606909106E+02  0.19219704140E+03  0.14050456445E+03  0.24592000042E+03  0.00000000000E+00 0.  1.
<mgrwt>
<rscale>  4 0.24049549E+03</rscale>
<asrwt>0</asrwt>
<pdfrwt beam="1">  1       21 0.16257118E-01 0.24049549E+03</pdfrwt>
<pdfrwt beam="2">  1        1 0.90089525E-01 0.24049549E+03</pdfrwt>
<totfact> 0.13538976E+04</totfact>
</mgrwt>
</event>
<event>
 5    0  0.2947253E-001  0.2449295E+03  0.7546771E-02  0.1116552E+00
          1   -1    0    0  502    0 -0.00000000000E+00  0.00000000000E+00  0.32141714345E+04  0.32141714345E+04  0.00000000000E+00 0.  1.
         21   -1    0    0  503  502  0.00000000000E+00 -0.00000000000E+00 -0.11775850061E+03  0.11775850061E+03  0.00000000000E+00 0.  1.
         25    1    1    2    0    0  0.10125123703E+03 -0.18853602061E+03  0.22845152043E+02  0.24888661081E+03  0.12500000000E+03 0.  0.
         21    1    1    2  503  501 -0.37821347837E+02  0.57960835837E+02  0.43372015337E+03  0.43920733633E+03  0.00000000000E+00 0. -1.
          1    1    1    2  501    0 -0.63429889197E+02  0.13057518477E+03  0.26398476285E+04  0.26438359880E+04  0.00000000000E+00 0.  1.
<mgrwt>
<rscale>  4 0.24492952E+03</rscale>
<asrwt>0</asrwt>
<pdfrwt beam="1">  1       21 0.18116695E-01 0.24492952E+03</pdfrwt>
<pdfrwt beam="2">  1        1 0.49448785E+00 0.24492952E+03</pdfrwt>
<totfact> 0.15783173E+02</totfact>
</mgrwt>
</event>
<event>
 5    0  0.2947253E-001  0.2719110E+03  0.7546771E-02  0.1100191E+00
         -2   -1    0    0    0  501 -0.00000000000E+00  0.00000000000E+00  0.11001921941E+03  0.11001921941E+03  0.00000000000E+00 0.  1.
         21   -1    0    0  501  502  0.00000000000E+00 -0.00000000000E+00 -0.82826985074E+03  0.82826985074E+03  0.00000000000E+00 0.  1.
         25    1    1    2    0    0  0.23702291590E+03  0.46160017637E+02 -0.61080698900E+03  0.66859613198E+03  0.12500000000E+03 0.  0.
         21    1    1    2  501  501 -0.10487419292E+03 -0.22785606215E+02 -0.76991302837E+02  0.13208119058E+03  0.00000000000E+00 0.  1.
         -2    1    1    2    0  502 -0.13214872298E+03 -0.23374411422E+02 -0.30452339484E+02  0.13761174759E+03  0.00000000000E+00 0.  1.
<mgrwt>
<rscale>  4 0.27191103E+03</rscale>
<asrwt>0</asrwt>
<pdfrwt beam="1">  1       21 0.12742613E+00 0.27191103E+03</pdfrwt>
<pdfrwt beam="2">  1       -2 0.16926034E-01 0.27191103E+03</pdfrwt>
<totfact> 0.97653611E+02</totfact>
</mgrwt>
</event>
<event>
 5    0  0.2947253E-001  0.2513729E+03  0.7546771E-02  0.1112440E+00
          3   -1    0    0  502    0 -0.00000000000E+00  0.00000000000E+00  0.12220433553E+04  0.12220433553E+04  0.00000000000E+00 0. -1.
         21   -1    0    0  503  502  0.00000000000E+00 -0.00000000000E+00 -0.10483838337E+03  0.10483838337E+03  0.00000000000E+00 0. -1.
         25    1    1    2    0    0  0.25045793105E+02  0.21664731473E+03  0.77039813401E+02  0.26291345264E+03  0.12500000000E+03 0.  0.
         21    1    1    2  503  501  0.14171800499E+02 -0.90354712531E+02  0.44064670544E+03  0.45003814618E+03  0.00000000000E+00 0.  1.
          3    1    1    2  501    0 -0.39217593604E+02 -0.12629260220E+03  0.59951845313E+03  0.61393013989E+03  0.00000000000E+00 0. -1.
<mgrwt>
<rscale>  4 0.25137293E+03</rscale>
<asrwt>0</asrwt>
<pdfrwt beam="1">  1       21 0.16128983E-01 0.25137293E+03</pdfrwt>
<pdfrwt beam="2">  1        3 0.18800666E+00 0.25137293E+03</pdfrwt>
<totfact> 0.32062329E+02</totfact>
</mgrwt>
</event>
<event>
 5    0  0.6925222E-001  0.3728222E+03  0.7546771E-02  0.1053619E+00
          2   -1    0    0  502    0 -0.00000000000E+00  0.00000000000E+00  0.12151057409E+04  0.12151057409E+04  0.00000000000E+00 0.  1.
         21   -1    0    0  503  502  0.00000000000E+00 -0.00000000000E+00 -0.88073227044E+03  0.88073227044E+03  0.00000000000E+00 0.  1.
         25    1    1    2    0    0 -0.14000350005E+03  0.32284847538E+03 -0.80902954832E+03  0.89105888028E+03  0.12500000000E+03 0.  0.
         21    1    1    2  503  501 -0.22551063613E+01 -0.21831356568E+02  0.11203623592E+02  0.24641729158E+02  0.00000000000E+00 0. -1.
          2    1    1    2  501    0  0.14225860641E+03 -0.30101711881E+03  0.11321993951E+04  0.11801374019E+04  0.00000000000E+00 0.  1.
<mgrwt>
<rscale>  4 0.37282219E+03</rscale>
<asrwt>0</asrwt>
<pdfrwt beam="1">  1       21 0.13549727E+00 0.37282219E+03</pdfrwt>
<pdfrwt beam="2">  1        2 0.18693934E+00 0.37282219E+03</pdfrwt>
<totfact> 0.86149357E+01</totfact>
</mgrwt>
</event>
<event>
 5    0  0.2947253E-001  0.2532019E+03  0.7546771E-02  0.1111298E+00
         21   -1    0    0  501  502  0.00000000000E+00  0.00000000000E+00  0.18406201885E+03  0.18406201885E+03  0.00000000000E+00 0.  1.
         -2   -1    0    0    0  501 -0.00000000000E+00 -0.00000000000E+00 -0.12813968320E+04  0.12813968320E+04  0.00000000000E+00 0. -1.
         25    1    1    2    0    0  0.19884083544E+03  0.97404718141E+02  0.79082300197E+02  0.26627873959E+03  0.12500000000E+03 0.  0.
         21    1    1    2  501  501 -0.19147447700E+02  0.67469070312E+01 -0.19331805275E+03  0.19438110769E+03  0.00000000000E+00 0. -1.
         -2    1    1    2    0  502 -0.17969338774E+03 -0.10415162517E+03 -0.98309906061E+03  0.10047990036E+04  0.00000000000E+00 0. -1.
<mgrwt>
<rscale>  4 0.25320187E+03</rscale>
<asrwt>0</asrwt>
<pdfrwt beam="1">  1       21 0.28317233E-01 0.25320187E+03</pdfrwt>
<pdfrwt beam="2">  1       -2 0.19713798E+00 0.25320187E+03</pdfrwt>
<totfact> 0.14492072E+02</totfact>
</mgrwt>
</event>
<event>
 5    0  0.2947253E-001  0.3524321E+03  0.7546771E-02  0.1061621E+00
          2   -1    0    0  502    0 -0.00000000000E+00  0.00000000000E+00  0.69099713228E+03  0.69099713228E+03  0.00000000000E+00 0. -1.
         21   -1    0    0  503  502  0.00000000000E+00 -0.00000000000E+00 -0.19821735859E+03  0.19821735859E+03  0.00000000000E+00 0.  1.
         25    1    1    2    0    0  0.24454136153E+03  0.22086853968E+03  0.84605090675E+02  0.36244504506E+03  0.12500000000E+03 0.  0.
         21    1    1    2  503  501 -0.29340785861E+02 -0.83708176462E+01  0.39795259269E+02  0.50145936658E+02  0.00000000000E+00 0.  1.
          2    1    1    2  501    0 -0.21520057567E+03 -0.21249772204E+03  0.36837942374E+03  0.47662350915E+03  0.00000000000E+00 0. -1.
<mgrwt>
<rscale>  4 0.35243211E+03</rscale>
<asrwt>0</asrwt>
<pdfrwt beam="1">  1       21 0.30494979E-01 0.35243211E+03</pdfrwt>
<pdfrwt beam="2">  1        2 0.10630725E+00 0.35243211E+03</pdfrwt>
<totfact> 0.53163884E+03</totfact>
</mgrwt>
</event>
<event>
 5    0  0.2947253E-001  0.3914012E+03  0.7546771E-02  0.1046798E+00
         21   -1    0    0  503  502  0.00000000000E+00  0.00000000000E+00  0.27795042977E+03  0.27795042977E+03  0.00000000000E+00 0.  1.
          4   -1    0    0  502    0 -0.00000000000E+00 -0.00000000000E+00 -0.10579855256E+04  0.10579855256E+04  0.00000000000E+00 0. -1.
         25    1    1    2    0    0 -0.45496756997E+02 -0.36401708404E+03  0.51449911753E+02  0.39096097732E+03  0.12500000000E+03 0.  0.
         21    1    1    2  503  501  0.16051045356E+02 -0.22149629390E+02 -0.21637133076E+03  0.21809354624E+03  0.00000000000E+00 0. -1.
          4    1    1    2  501    0  0.29445711641E+02  0.38616671343E+03 -0.61511367680E+03  0.72688143179E+03  0.00000000000E+00 0. -1.
<mgrwt>
<rscale>  4 0.39140123E+03</rscale>
<asrwt>0</asrwt>
<pdfrwt beam="1">  1       21 0.42761604E-01 0.39140123E+03</pdfrwt>
<pdfrwt beam="2">  1        4 0.16276701E+00 0.39140123E+03</pdfrwt>
<totfact> 0.54010702E+01</totfact>
</mgrwt>
</event>
<event>
 5    0  0.2947253E-001  0.3134382E+03  0.7546771E-02  0.1078710E+00
          2   -1    0    0  502    0 -0.00000000000E+00  0.00000000000E+00  0.87758390769E+03  0.87758390769E+03  0.00000000000E+00 0. -1.
         21   -1    0    0  503  502  0.00000000000E+00 -0.00000000000E+00 -0.11030457423E+03  0.11030457423E+03  0.00000000000E+00 0. -1.
         25    1    1    2    0    0 -0.28076331321E+03  0.61566548716E+02  0.33547260053E+03  0.45911365006E+03  0.12500000000E+03 0.  0.
         21    1    1    2  503  501  0.35574785183E+02 -0.37706578006E+02  0.12488650158E+03  0.13521830365E+03  0.00000000000E+00 0. -1.
          2    1    1    2  501    0  0.24518852802E+03 -0.23859970710E+02  0.30692023135E+03  0.39355652820E+03  0.00000000000E+00 0. -1.
<mgrwt>
<rscale>  4 0.31343816E+03</rscale>
<asrwt>0</asrwt>
<pdfrwt beam="1">  1       21 0.16969935E-01 0.31343816E+03</pdfrwt>
<pdfrwt beam="2">  1        2 0.13501290E+00 0.31343816E+03</pdfrwt>
<totfact> 0.12137121E+04</totfact>
</mgrwt>
</event>
<event>
 5    0  0.2947253E-001  0.2619577E+03  0.7546771E-02  0.1105973E+00
         21   -1    0    0  503  502  0.00000000000E+00  0.00000000000E+00  0.12137987902E+03  0.12137987902E+03  0.00000000000E+00 0. -1.
          1   -1    0    0  502    0 -0.00000000000E+00 -0.00000000000E+00 -0.52276912894E+03  0.52276912894E+03  0.00000000000E+00 0. -1.
         25    1    1    2    0    0 -0.14185405801E+03 -0.18131264405E+03 -0.26741954604E+03  0.37434617972E+03  0.12500000000E+03 0.  0.
         21    1    1    2  503  501  0.46233157846E+02  0.29740504837E+02 -0.30677650136E+02  0.62953321837E+02  0.00000000000E+00 0. -1.
          1    1    1    2  501    0  0.95620900159E+02  0.15157213921E+03 -0.10329205374E+03  0.20684950640E+03  0.00000000000E+00 0. -1.
<mgrwt>
<rscale>  4 0.26195772E+03</rscale>
<asrwt>0</asrwt>
<pdfrwt beam="1">  1       21 0.18673828E-01 0.26195772E+03</pdfrwt>
<pdfrwt beam="2">  1        1 0.80426018E-01 0.26195772E+03</pdfrwt>
<totfact> 0.12173179E+04</totfact>
</mgrwt>
</event>
<event>
 5    0  0.2947253E-001  0.2746090E+03  0.7546771E-02  0.1098670E+00
         21   -1    0    0  501  502  0.00000000000E+00  0.00000000000E+00  0.32780097439E+03  0.32780097439E+03  0.00000000000E+00 0. -1.
         -1   -1    0    0    0  501 -0.00000000000E+00 -0.00000000000E+00 -0.31773680115E+03  0.31773680115E+03  0.00000000000E+00 0. -1.
         25    1    1    2    0    0  0.95836952048E+02  0.23639707332E+03  0.16254137230E+03  0.32728121755E+03  0.12500000000E+03 0.  0.
         21    1    1    2  501  501 -0.48008912879E+02 -0.21925004735E+03 -0.10165428723E+03  0.24639203131E+03  0.00000000000E+00 0. -1.
         -1    1    1    2    0  502 -0.47828039169E+02 -0.17147025964E+02 -0.50822911825E+02  0.71864526691E+02  0.00000000000E+00 0. -1.
<mgrwt>
<rscale>  4 0.27460898E+03</rscale>
<asrwt>0</asrwt>
<pdfrwt beam="1">  1       21 0.50430919E-01 0.27460898E+03</pdfrwt>
<pdfrwt beam="2">  1       -1 0.48882585E-01 0.27460898E+03</pdfrwt>
<totfact> 0.14438651E+03</totfact>
</mgrwt>
</event>
<event>
 5    0  0.2947253E-001  0.2588699E+03  0.7546771E-02  0.1107824E+00
          2   -1    0    0  502    0 -0.00000000000E+00  0.00000000000E+00  0.41863766603E+03  0.41863766603E+03  0.00000000000E+00 0. -1.
         21   -1    0    0  503  502  0.00000000000E+00 -0.00000000000E+00 -0.14526213912E+03  0.14526213912E+03  0.00000000000E+00 0. -1.
         25    1    1    2    0    0 -0.22475814327E+03 -0.29536497843E+02  0.14122947681E+03  0.29488878037E+03  0.12500000000E+03 0.  0.
         21    1    1    2  503  501  0.50541443086E+02 -0.10736001268E+02  0.10446296341E+02  0.52714554913E+02  0.00000000000E+00 0.  1.
          2    1    1    2  501    0  0.17421670018E+03  0.40272499111E+02  0.12169975376E+03  0.21629646986E+03  0.00000000000E+00 0. -1.
<mgrwt>
<rscale>  4 0.25886990E+03</rscale>
<asrwt>0</asrwt>
<pdfrwt beam="1">  1       21 0.22348022E-01 0.25886990E+03</pdfrwt>
<pdfrwt beam="2">  1        2 0.64405794E-01 0.25886990E+03</pdfrwt>
<totfact> 0.17572333E+04</totfact>
</mgrwt>
</event>
<event>
 5    0  0.2947253E-001  0.3856018E+03  0.7546771E-02  0.1048883E+00
         21   -1    0    0  503  502  0.00000000000E+00  0.00000000000E+00  0.12487705358E+04  0.12487705358E+04  0.00000000000E+00 0.  1.
          1   -1    0    0  502    0 -0.00000000000E+00 -0.00000000000E+00 -0.43367540497E+03  0.43367540497E+03  0.00000000000E+00 0. -1.
         25    1    1    2    0    0 -0.22232597137E+03  0.28774205897E+03  0.11080696305E+04  0.11728885863E+04  0.12500000000E+03 0.  0.
         21    1    1    2  503  501  0.15463946154E+02  0.30343042063E+02 -0.78871396588E+01  0.34957700214E+02  0.00000000000E+00 0. -1.
          1    1    1    2  501    0  0.20686202522E+03 -0.31808510103E+03 -0.28508735996E+03  0.47459965422E+03  0.00000000000E+00 0. -1.
<mgrwt>
<rscale>  4 0.38560175E+03</rscale>
<asrwt>0</asrwt>
<pdfrwt beam="1">  1       21 0.19211854E+00 0.38560175E+03</pdfrwt>
<pdfrwt beam="2">  1        1 0.66719294E-01 0.38560175E+03</pdfrwt>
<totfact> 0.79897938E+01</totfact>
</mgrwt>
</event>
<event>
 5    0  0.2947253E-001  0.2423498E+03  0.7546771E-02  0.1118237E+00
          2   -1    0    0  502    0 -0.00000000000E+00  0.00000000000E+00  0.49490974900E+03  0.49490974900E+03  0.00000000000E+00 0.  1.
         21   -1    0    0  503  502  0.00000000000E+00 -0.00000000000E+00 -0.15574836734E+03  0.15574836734E+03  0.00000000000E+00 0.  1.
         25    1    1    2    0    0  0.61193112888E+02  0.19840313589E+03 -0.80035332263E+01  0.24248187136E+03  0.12500000000E+03 0.  0.
         21    1    1    2  503  501  0.79672326260E+01 -0.45241793034E+02  0.61781825800E+02  0.76988899407E+02  0.00000000000E+00 0. -1.
          2    1    1    2  501    0 -0.69160345514E+02 -0.15316134285E+03  0.28538308908E+03  0.33118734558E+03  0.00000000000E+00 0.  1.
<mgrwt>
<rscale>  4 0.24234975E+03</rscale>
<asrwt>0</asrwt>
<pdfrwt beam="1">  1       21 0.23961287E-01 0.24234975E+03</pdfrwt>
<pdfrwt beam="2">  1        2 0.76139961E-01 0.24234975E+03</pdfrwt>
<totfact> 0.12817798E+04</totfact>
</mgrwt>
</event>
<event>
 5    0  0.2947253E-001  0.2558683E+03  0.7546771E-02  0.1109651E+00
          1   -1    0    0  502    0 -0.00000000000E+00  0.00000000000E+00  0.90950298434E+03  0.90950298434E+03  0.00000000000E+00 0. -1.
         21   -1    0    0  503  502  0.00000000000E+00 -0.00000000000E+00 -0.20637759551E+03  0.20637759551E+03  0.00000000000E+00 0.  1.
         25    1    1    2    0    0 -0.20507275101E+03 -0.88253836465E+02 -0.10503441044E+03  0.27658778034E+03  0.12500000000E+03 0.  0.
         21    1    1    2  503  501  0.17465637632E+03  0.65995932824E+02  0.62486405527E+03  0.65216209681E+03  0.00000000000E+00 0. -1.
          1    1    1    2  501    0  0.30416374696E+02  0.22257903640E+02  0.18329574400E+03  0.18713070270E+03  0.00000000000E+00 0. -1.
<mgrwt>
<rscale>  4 0.25586827E+03</rscale>
<asrwt>0</asrwt>
<pdfrwt beam="1">  1       21 0.31750400E-01 0.25586827E+03</pdfrwt>
<pdfrwt beam="2">  1        1 0.13992353E+00 0.25586827E+03</pdfrwt>
<totfact> 0.19534522E+03</totfact>
</mgrwt>
</event>
<event>
 5    0  0.2947253E-001  0.2504357E+03  0.7546771E-02  0.1113030E+00
         21   -1    0    0  503  502  0.00000000000E+00  0.00000000000E+00  0.22495073406E+03  0.22495073406E+03  0.00000000000E+00 0. -1.
          1   -1    0    0  502    0 -0.00000000000E+00 -0.00000000000E+00 -0.71583342259E+03  0.71583342259E+03  0.00000000000E+00 0. -1.
         25    1    1    2    0    0  0.43720425036E+02 -0.21255960538E+03  0.12699287569E+03  0.28079396696E+03  0.12500000000E+03 0.  0.
         21    1    1    2  503  501  0.14523499314E+01  0.14144978621E+03 -0.30914323962E+03  0.33997013684E+03  0.00000000000E+00 0. -1.
          1    1    1    2  501    0 -0.45172774967E+02  0.71109819171E+02 -0.30873232460E+03  0.32002005286E+03  0.00000000000E+00 0. -1.
<mgrwt>
<rscale>  4 0.25043574E+03</rscale>
<asrwt>0</asrwt>
<pdfrwt beam="1">  1       21 0.34607805E-01 0.25043574E+03</pdfrwt>
<pdfrwt beam="2">  1        1 0.11012822E+00 0.25043574E+03</pdfrwt>
<totfact> 0.23909052E+03</totfact>
</mgrwt>
</event>
<event>
 5    0  0.2947253E-001  0.5330025E+03  0.7546771E-02  0.1007399E+00
         21   -1    0    0  503  502  0.00000000000E+00  0.00000000000E+00  0.52102746952E+03  0.52102746952E+03  0.00000000000E+00 0. -1.
          1   -1    0    0  502    0 -0.00000000000E+00 -0.00000000000E+00 -0.53425046664E+03  0.53425046664E+03  0.00000000000E+00 0. -1.
         25    1    1    2    0    0 -0.39270257987E+03 -0.28755955337E+03  0.94932555088E+02  0.51141275207E+03  0.12500000000E+03 0.  0.
         21    1    1    2  503  501  0.25388025553E+03  0.98023313554E+02  0.25892980315E+02  0.27337556690E+03  0.00000000000E+00 0. -1.
          1    1    1    2  501    0  0.13882232433E+03  0.18953623981E+03 -0.13404853253E+03  0.27048961719E+03  0.00000000000E+00 0. -1.
<mgrwt>
<rscale>  4 0.52521396E+03</rscale>
<asrwt>0</asrwt>
<pdfrwt beam="1">  1       21 0.80158072E-01 0.53300255E+03</pdfrwt>
<pdfrwt beam="2">  1        1 0.82192380E-01 0.53300255E+03</pdfrwt>
<totfact> 0.55614250E+02</totfact>
</mgrwt>
</event>
<event>
 5    0  0.2947253E-001  0.3605601E+03  0.7546771E-02  0.1058362E+00
          2   -1    0    0  502    0 -0.00000000000E+00  0.00000000000E+00  0.28797719159E+04  0.28797719159E+04  0.00000000000E+00 0.  1.
         21   -1    0    0  503  502  0.00000000000E+00 -0.00000000000E+00 -0.89421644422E+02  0.89421644422E+02  0.00000000000E+00 0. -1.
         25    1    1    2    0    0 -0.21670935711E+03  0.25964521079E+03  0.34256166165E+03  0.49734502408E+03  0.12500000000E+03 0.  0.
         21    1    1    2  503  501  0.37947354738E+02 -0.35716276865E+02  0.24340736860E+03  0.24892328387E+03  0.00000000000E+00 0. -1.
          2    1    1    2  501    0  0.17876200237E+03 -0.22392893393E+03  0.22043812412E+04  0.22229252524E+04  0.00000000000E+00 0.  1.
<mgrwt>
<rscale>  4 0.36056009E+03</rscale>
<asrwt>0</asrwt>
<pdfrwt beam="1">  1       21 0.13757178E-01 0.36056009E+03</pdfrwt>
<pdfrwt beam="2">  1        2 0.44304176E+00 0.36056009E+03</pdfrwt>
<totfact> 0.13518474E+03</totfact>
</mgrwt>
</event>
<event>
 5    0  0.2947253E-001  0.2412758E+03  0.7546771E-02  0.1118946E+00
         -1   -1    0    0    0  501 -0.00000000000E+00  0.00000000000E+00  0.19843103958E+04  0.19843103958E+04  0.00000000000E+00 0. -1.
         21   -1    0    0  501  502  0.00000000000E+00 -0.00000000000E+00 -0.29621066145E+02  0.29621066145E+02  0.00000000000E+00 0. -1.
         25    1    1    2    0    0 -0.47132378753E+02 -0.20091672063E+03  0.70008732091E+03  0.74049729686E+03  0.12500000000E+03 0.  0.
         21    1    1    2  501  501  0.24497547816E+02  0.49220307241E+02  0.18844761870E+03  0.19630403329E+03  0.00000000000E+00 0. -1.
         -1    1    1    2    0  502  0.22634830938E+02  0.15169641339E+03  0.10661543901E+04  0.10771301318E+04  0.00000000000E+00 0. -1.
<mgrwt>
<rscale>  4 0.24127575E+03</rscale>
<asrwt>0</asrwt>
<pdfrwt beam="1">  1       21 0.45570887E-02 0.24127575E+03</pdfrwt>
<pdfrwt beam="2">  1       -1 0.30527842E+00 0.24127575E+03</pdfrwt>
<totfact> 0.10672995E+03</totfact>
</mgrwt>
</event>
<event>
 5    0  0.2947253E-001  0.2367874E+03  0.7546771E-02  0.1121952E+00
          2   -1    0    0  502    0 -0.00000000000E+00  0.00000000000E+00  0.19237276633E+04  0.19237276633E+04  0.00000000000E+00 0. -1.
         21   -1    0    0  503  502  0.00000000000E+00 -0.00000000000E+00 -0.15772339355E+03  0.15772339355E+03  0.00000000000E+00 0. -1.
         25    1    1    2    0    0  0.19720190532E+03  0.63427837956E+02 -0.51221110875E+02  0.24730605389E+03  0.12500000000E+03 0.  0.
         21    1    1    2  503  501 -0.79434248418E+02 -0.59009994515E+02  0.40117075909E+03  0.41319481751E+03  0.00000000000E+00 0.  1.
          2    1    1    2  501    0 -0.11776765690E+03 -0.44178434406E+01  0.14160546215E+04  0.14209501854E+04  0.00000000000E+00 0. -1.
<mgrwt>
<rscale>  4 0.23678741E+03</rscale>
<asrwt>0</asrwt>
<pdfrwt beam="1">  1       21 0.24265139E-01 0.23678741E+03</pdfrwt>
<pdfrwt beam="2">  1        2 0.29595809E+00 0.23678741E+03</pdfrwt>
<totfact> 0.16490735E+03</totfact>
</mgrwt>
</event>
<event>
 5    0  0.2947253E-001  0.2081103E+03  0.7546771E-02  0.1143071E+00
          2   -1    0    0  502    0 -0.00000000000E+00  0.00000000000E+00  0.86082692815E+03  0.86082692815E+03  0.00000000000E+00 0. -1.
         21   -1    0    0  503  502  0.00000000000E+00 -0.00000000000E+00 -0.76487841645E+02  0.76487841645E+02  0.00000000000E+00 0. -1.
         25    1    1    2    0    0 -0.17868592980E+03  0.11685483218E+03  0.41745057678E+03  0.48525632130E+03  0.12500000000E+03 0.  0.
         21    1    1    2  503  501  0.31716546683E+02 -0.10942366952E+03  0.12683034030E+03  0.17048581761E+03  0.00000000000E+00 0. -1.
          2    1    1    2  501    0  0.14696938312E+03 -0.74311626524E+01  0.24005816943E+03  0.28157263089E+03  0.00000000000E+00 0. -1.
<mgrwt>
<rscale>  4 0.20811031E+03</rscale>
<asrwt>0</asrwt>
<pdfrwt beam="1">  1       21 0.11767361E-01 0.20811031E+03</pdfrwt>
<pdfrwt beam="2">  1        2 0.13243491E+00 0.20811031E+03</pdfrwt>
<totfact> 0.24756087E+04</totfact>
</mgrwt>
</event>
<event>
 5    0  0.2947253E-001  0.5113527E+03  0.7546771E-02  0.1010857E+00
         21   -1    0    0  503  502  0.00000000000E+00  0.00000000000E+00  0.14464423632E+03  0.14464423632E+03  0.00000000000E+00 0. -1.
          2   -1    0    0  502    0 -0.00000000000E+00 -0.00000000000E+00 -0.18044740741E+04  0.18044740741E+04  0.00000000000E+00 0. -1.
         25    1    1    2    0    0 -0.47475335238E+03  0.14305884264E+03 -0.75336185664E+03  0.91051395656E+03  0.12500000000E+03 0.  0.
         21    1    1    2  503  501  0.36153599204E+02 -0.41954920099E+02 -0.76489358123E+02  0.94434739169E+02  0.00000000000E+00 0. -1.
          2    1    1    2  501    0  0.43859975317E+03 -0.10110392254E+03 -0.82997862300E+03  0.94416961467E+03  0.00000000000E+00 0. -1.
<mgrwt>
<rscale>  4 0.51135269E+03</rscale>
<asrwt>0</asrwt>
<pdfrwt beam="1">  1       21 0.22252961E-01 0.51135269E+03</pdfrwt>
<pdfrwt beam="2">  1        2 0.27761138E+00 0.51135269E+03</pdfrwt>
<totfact> 0.20555191E+03</totfact>
</mgrwt>
</event>
<event>
 5    0  0.2947253E-001  0.2889382E+03  0.7546771E-02  0.1090905E+00
         -3   -1    0    0    0  501 -0.00000000000E+00  0.00000000000E+00  0.25823586007E+04  0.25823586007E+04  0.00000000000E+00 0. -1.
         21   -1    0    0  501  502  0.00000000000E+00 -0.00000000000E+00 -0.29848025090E+02  0.29848025090E+02  0.00000000000E+00 0. -1.
         25    1    1    2    0    0  0.24835432617E+03  0.78615695968E+02  0.11956228143E+04  0.12300403298E+04  0.12500000000E+03 0.  0.
         21    1    1    2  501  501 -0.23535949377E+02 -0.47463266737E+01  0.79606817778E+02  0.83148746032E+02  0.00000000000E+00 0.  1.
         -3    1    1    2    0  502 -0.22481837679E+03 -0.73869369294E+02  0.12772809436E+04  0.12990175500E+04  0.00000000000E+00 0. -1.
<mgrwt>
<rscale>  4 0.28893823E+03</rscale>
<asrwt>0</asrwt>
<pdfrwt beam="1">  1       21 0.45920059E-02 0.28893823E+03</pdfrwt>
<pdfrwt beam="2">  1       -3 0.39728576E+00 0.28893823E+03</pdfrwt>
<totfact> 0.20259852E+02</totfact>
</mgrwt>
</event>
<event>
 5    0  0.2947253E-001  0.3272564E+03  0.7546771E-02  0.1072357E+00
         -2   -1    0    0    0  501 -0.00000000000E+00  0.00000000000E+00  0.33121147716E+03  0.33121147716E+03  0.00000000000E+00 0. -1.
         21   -1    0    0  501  502  0.00000000000E+00 -0.00000000000E+00 -0.55688304225E+03  0.55688304225E+03  0.00000000000E+00 0.  1.
         25    1    1    2    0    0 -0.18528105726E+03 -0.23904533808E+03 -0.40607459278E+03  0.52152978701E+03  0.12500000000E+03 0.  0.
         21    1    1    2  501  501  0.48959337964E+02  0.10927168281E+02  0.10815808375E+02  0.51316678491E+02  0.00000000000E+00 0. -1.
         -2    1    1    2    0  502  0.13632171929E+03  0.22811816979E+03  0.16958721931E+03  0.31524805391E+03  0.00000000000E+00 0. -1.
<mgrwt>
<rscale>  4 0.32725639E+03</rscale>
<asrwt>0</asrwt>
<pdfrwt beam="1">  1       21 0.85674314E-01 0.32725639E+03</pdfrwt>
<pdfrwt beam="2">  1       -2 0.50955612E-01 0.32725639E+03</pdfrwt>
<totfact> 0.33474776E+02</totfact>
</mgrwt>
</event>
<event>
 5    0  0.2947253E-001  0.4630640E+03  0.7546771E-02  0.1023896E+00
         21   -1    0    0  501  502  0.00000000000E+00  0.00000000000E+00  0.34086525796E+03  0.34086525796E+03  0.00000000000E+00 0. -1.
         -1   -1    0    0    0  501 -0.00000000000E+00 -0.00000000000E+00 -0.61425722644E+03  0.61425722644E+03  0.00000000000E+00 0.  1.
         25    1    1    2    0    0  0.19408209805E+03 -0.40141669976E+03 -0.14169575880E+03  0.48425810854E+03  0.12500000000E+03 0.  0.
         21    1    1    2  501  501  0.30175690023E+01  0.31383730017E+02 -0.39030474664E+00  0.31530882802E+02  0.00000000000E+00 0. -1.
         -1    1    1    2    0  502 -0.19709966705E+03  0.37003296974E+03 -0.13130590493E+03  0.43933349305E+03  0.00000000000E+00 0.  1.
<mgrwt>
<rscale>  4 0.46306396E+03</rscale>
<asrwt>0</asrwt>
<pdfrwt beam="1">  1       21 0.52440810E-01 0.46306396E+03</pdfrwt>
<pdfrwt beam="2">  1       -1 0.94501111E-01 0.46306396E+03</pdfrwt>
<totfact> 0.33685501E+02</totfact>
</mgrwt>
</event>
<event>
 5    0  0.2947253E-001  0.2483140E+03  0.7546771E-02  0.1114375E+00
          1   -1    0    0  502    0 -0.00000000000E+00  0.00000000000E+00  0.10191440410E+04  0.10191440410E+04  0.00000000000E+00 0. -1.
         21   -1    0    0  503  502  0.00000000000E+00 -0.00000000000E+00 -0.12920253486E+03  0.12920253486E+03  0.00000000000E+00 0. -1.
         25    1    1    2    0    0  0.10704139384E+02 -0.21429011394E+03  0.17479360807E+02  0.24892842262E+03  0.12500000000E+03 0.  0.
         21    1    1    2  503  501  0.57769607773E+01  0.31981617740E+02  0.86048590397E+02  0.91981286458E+02  0.00000000000E+00 0. -1.
          1    1    1    2  501    0 -0.16481100161E+02  0.18230849620E+03  0.78641355499E+03  0.80743686683E+03  0.00000000000E+00 0. -1.
<mgrwt>
<rscale>  4 0.24831398E+03</rscale>
<asrwt>0</asrwt>
<pdfrwt beam="1">  1       21 0.19877314E-01 0.24831398E+03</pdfrwt>
<pdfrwt beam="2">  1        1 0.15679139E+00 0.24831398E+03</pdfrwt>
<totfact> 0.39792520E+03</totfact>
</mgrwt>
</event>
<event>
 5    0  0.2947253E-001  0.3292414E+03  0.7546771E-02  0.1071473E+00
         21   -1    0    0  503  502  0.00000000000E+00  0.00000000000E+00  0.33318922047E+02  0.33318922047E+02  0.00000000000E+00 0. -1.
          2   -1    0    0  502    0 -0.00000000000E+00 -0.00000000000E+00 -0.38407887575E+04  0.38407887575E+04  0.00000000000E+00 0.  1.
         25    1    1    2    0    0  0.22787238951E+03  0.22660459047E+03 -0.22360040938E+04  0.22624355844E+04  0.12500000000E+03 0.  0.
         21    1    1    2  503  501 -0.28563036501E+02 -0.72418502199E+01 -0.47320917457E+03  0.47412573685E+03  0.00000000000E+00 0.  1.
          2    1    1    2  501    0 -0.19930935300E+03 -0.21936274025E+03 -0.10982565671E+04  0.11375463583E+04  0.00000000000E+00 0.  1.
<mgrwt>
<rscale>  4 0.32924142E+03</rscale>
<asrwt>0</asrwt>
<pdfrwt beam="1">  1       21 0.51259898E-02 0.32924142E+03</pdfrwt>
<pdfrwt beam="2">  1        2 0.59089037E+00 0.32924142E+03</pdfrwt>
<totfact> 0.18692714E+03</totfact>
</mgrwt>
</event>
<event>
 5    0  0.2947253E-001  0.2667016E+03  0.7546771E-02  0.1103182E+00
          2   -1    0    0  502    0 -0.00000000000E+00  0.00000000000E+00  0.89849552070E+03  0.89849552070E+03  0.00000000000E+00 0. -1.
         21   -1    0    0  503  502  0.00000000000E+00 -0.00000000000E+00 -0.17095921436E+04  0.17095921436E+04  0.00000000000E+00 0.  1.
         25    1    1    2    0    0  0.50634303722E+02  0.23555670724E+03 -0.16766136078E+04  0.16984431062E+04  0.12500000000E+03 0.  0.
         21    1    1    2  503  501 -0.23894354500E+02 -0.12173477948E+03  0.21101163080E+03  0.24477786878E+03  0.00000000000E+00 0. -1.
          2    1    1    2  501    0 -0.26739949222E+02 -0.11382192776E+03  0.65450535407E+03  0.66486668937E+03  0.00000000000E+00 0. -1.
<mgrwt>
<rscale>  4 0.26670162E+03</rscale>
<asrwt>0</asrwt>
<pdfrwt beam="1">  1       21 0.26301417E+00 0.26670162E+03</pdfrwt>
<pdfrwt beam="2">  1        2 0.13823008E+00 0.26670162E+03</pdfrwt>
<totfact> 0.19792969E+01</totfact>
</mgrwt>
</event>
<event>
 5    0  0.2947253E-001  0.2450467E+03  0.7546771E-02  0.1116476E+00
          3   -1    0    0  502    0 -0.00000000000E+00  0.00000000000E+00  0.19827851682E+04  0.19827851682E+04  0.00000000000E+00 0. -1.
         21   -1    0    0  503  502  0.00000000000E+00 -0.00000000000E+00 -0.63458654039E+02  0.63458654039E+02  0.00000000000E+00 0.  1.
         25    1    1    2    0    0 -0.64645839474E+01 -0.21299607777E+03  0.21626625273E+03  0.32833704034E+03  0.12500000000E+03 0.  0.
         21    1    1    2  503  501 -0.21043119801E+02  0.16157986096E+02  0.18598460493E+03  0.18786741781E+03  0.00000000000E+00 0. -1.
          3    1    1    2  501    0  0.27507703748E+02  0.19683809167E+03  0.15170756565E+04  0.15300393641E+04  0.00000000000E+00 0. -1.
<mgrwt>
<rscale>  4 0.24504668E+03</rscale>
<asrwt>0</asrwt>
<pdfrwt beam="1">  1       21 0.97628714E-02 0.24504668E+03</pdfrwt>
<pdfrwt beam="2">  1        3 0.30504382E+00 0.24504668E+03</pdfrwt>
<totfact> 0.17518432E+02</totfact>
</mgrwt>
</event>
<event>
 5    0  0.2947253E-001  0.3150183E+03  0.7546771E-02  0.1077965E+00
         21   -1    0    0  503  502  0.00000000000E+00  0.00000000000E+00  0.85953014703E+02  0.85953014703E+02  0.00000000000E+00 0. -1.
          2   -1    0    0  502    0 -0.00000000000E+00 -0.00000000000E+00 -0.36133543099E+04  0.36133543099E+04  0.00000000000E+00 0. -1.
         25    1    1    2    0    0 -0.44290611380E+02  0.28574439775E+03 -0.23302861130E+03  0.39184034094E+03  0.12500000000E+03 0.  0.
         21    1    1    2  503  501  0.19771447509E+02 -0.48476516541E+02 -0.42891657478E+03  0.43209988535E+03  0.00000000000E+00 0. -1.
          2    1    1    2  501    0  0.24519163871E+02 -0.23726788121E+03 -0.28654561091E+04  0.28753670983E+04  0.00000000000E+00 0. -1.
<mgrwt>
<rscale>  4 0.31501828E+03</rscale>
<asrwt>0</asrwt>
<pdfrwt beam="1">  1       21 0.13223541E-01 0.31501828E+03</pdfrwt>
<pdfrwt beam="2">  1        2 0.55590065E+00 0.31501828E+03</pdfrwt>
<totfact> 0.51192065E+02</totfact>
</mgrwt>
</event>
<event>
 5    0  0.2947253E-001  0.2464714E+03  0.7546771E-02  0.1115555E+00
          1   -1    0    0  502    0 -0.00000000000E+00  0.00000000000E+00  0.13359087639E+04  0.13359087639E+04  0.00000000000E+00 0. -1.
         21   -1    0    0  503  502  0.00000000000E+00 -0.00000000000E+00 -0.11376460185E+03  0.11376460185E+03  0.00000000000E+00 0.  1.
         25    1    1    2    0    0 -0.20277174608E+02  0.21617173380E+03  0.51685645660E+02  0.25580810830E+03  0.12500000000E+03 0.  0.
         21    1    1    2  503  501  0.17816049752E+02 -0.36433560096E+02  0.92194128077E+02  0.10072027195E+03  0.00000000000E+00 0.  1.
          1    1    1    2  501    0  0.24611248561E+01 -0.17973817371E+03  0.10782643883E+04  0.10931449855E+04  0.00000000000E+00 0. -1.
<mgrwt>
<rscale>  4 0.24647139E+03</rscale>
<asrwt>0</asrwt>
<pdfrwt beam="1">  1       21 0.17502247E-01 0.24647139E+03</pdfrwt>
<pdfrwt beam="2">  1        1 0.20552441E+00 0.24647139E+03</pdfrwt>
<totfact> 0.30178430E+03</totfact>
</mgrwt>
</event>
<event>
 5    0  0.2947253E-001  0.2543557E+03  0.7546771E-02  0.1110583E+00
         -4   -1    0    0    0  501 -0.00000000000E+00  0.00000000000E+00  0.91344534090E+02  0.91344534090E+02  0.00000000000E+00 0. -1.
         21   -1    0    0  501  502  0.00000000000E+00 -0.00000000000E+00 -0.18560980822E+04  0.18560980822E+04  0.00000000000E+00 0. -1.
         25    1    1    2    0    0 -0.21674273904E+03  0.45764502993E+02 -0.16927978976E+04  0.17118006680E+04  0.12500000000E+03 0.  0.
         21    1    1    2  501  501  0.24049755002E+02  0.44696902733E+01 -0.18612137724E+01  0.24532284107E+02  0.00000000000E+00 0. -1.
         -4    1    1    2    0  502  0.19269298404E+03 -0.50234193267E+02 -0.70094436738E+02  0.21110966424E+03  0.00000000000E+00 0. -1.
<mgrwt>
<rscale>  4 0.25435567E+03</rscale>
<asrwt>0</asrwt>
<pdfrwt beam="1">  1       21 0.28555356E+00 0.25435567E+03</pdfrwt>
<pdfrwt beam="2">  1       -4 0.14053005E-01 0.25435567E+03</pdfrwt>
<totfact> 0.70683633E+01</totfact>
</mgrwt>
</event>
<event>
 5    0  0.2947253E-001  0.2413058E+03  0.7546771E-02  0.1118926E+00
         21   -1    0    0  503  502  0.00000000000E+00  0.00000000000E+00  0.24843034665E+03  0.24843034665E+03  0.00000000000E+00 0. -1.
          1   -1    0    0  502    0 -0.00000000000E+00 -0.00000000000E+00 -0.70160739095E+03  0.70160739095E+03  0.00000000000E+00 0. -1.
         25    1    1    2    0    0  0.58190679966E+02 -0.19803362989E+03  0.16507327161E+03  0.29236562521E+03  0.12500000000E+03 0.  0.
         21    1    1    2  503  501 -0.31035797761E+02  0.11259781427E+03 -0.21602335030E+03  0.24557600941E+03  0.00000000000E+00 0. -1.
          1    1    1    2  501    0 -0.27154882205E+02  0.85435815623E+02 -0.40222696562E+03  0.41209610297E+03  0.00000000000E+00 0. -1.
<mgrwt>
<rscale>  4 0.24130577E+03</rscale>
<asrwt>0</asrwt>
<pdfrwt beam="1">  1       21 0.38220053E-01 0.24130577E+03</pdfrwt>
<pdfrwt beam="2">  1        1 0.10793960E+00 0.24130577E+03</pdfrwt>
<totfact> 0.20243280E+03</totfact>
</mgrwt>
</event>
<event>
 5    0  0.2947253E-001  0.2444735E+03  0.7546771E-02  0.1116848E+00
         21   -1    0    0  501  502  0.00000000000E+00  0.00000000000E+00  0.14108624210E+03  0.14108624210E+03  0.00000000000E+00 0.  1.
         -2   -1    0    0    0  501 -0.00000000000E+00 -0.00000000000E+00 -0.19127804366E+04  0.19127804366E+04  0.00000000000E+00 0.  1.
         25    1    1    2    0    0  0.11181801193E+03 -0.17395766922E+03  0.58178347424E+01  0.24170929993E+03  0.12500000000E+03 0.  0.
         21    1    1    2  501  501  0.49098374681E+02 -0.28413702027E+02 -0.10112522866E+03  0.11594956115E+03  0.00000000000E+00 0. -1.
         -2    1    1    2    0  502 -0.16091638661E+03  0.20237137124E+03 -0.16763868006E+04  0.16962078176E+04  0.00000000000E+00 0.  1.
<mgrwt>
<rscale>  4 0.24447354E+03</rscale>
<asrwt>0</asrwt>
<pdfrwt beam="1">  1       21 0.21705578E-01 0.24447354E+03</pdfrwt>
<pdfrwt beam="2">  1       -2 0.29427388E+00 0.24447354E+03</pdfrwt>
<totfact> 0.63875874E+01</totfact>
</mgrwt>
</event>
<event>
 5    0  0.2947253E-001  0.3276765E+03  0.7546771E-02  0.1072170E+00
         21   -1    0    0  501  502  0.00000000000E+00  0.00000000000E+00  0.28748698076E+03  0.28748698076E+03  0.00000000000E+00 0.  1.
         -3   -1    0    0    0  501 -0.00000000000E+00 -0.00000000000E+00 -0.84408031765E+03  0.84408031765E+03  0.00000000000E+00 0. -1.
         25    1    1    2    0    0  0.45359828559E+02 -0.32098686665E+03  0.12675759337E+03  0.36984127688E+03  0.12500000000E+03 0.  0.
         21    1    1    2  501  501 -0.41067372747E+01  0.23686211250E+02 -0.13190654264E+02  0.27420708494E+02  0.00000000000E+00 0.  1.
         -3    1    1    2    0  502 -0.41253091284E+02  0.29730065540E+03 -0.67016027599E+03  0.73430531304E+03  0.00000000000E+00 0. -1.
<mgrwt>
<rscale>  4 0.32767653E+03</rscale>
<asrwt>0</asrwt>
<pdfrwt beam="1">  1       21 0.44228767E-01 0.32767653E+03</pdfrwt>
<pdfrwt beam="2">  1       -3 0.12985851E+00 0.32767653E+03</pdfrwt>
<totfact> 0.11438460E+02</totfact>
</mgrwt>
</event>
<event>
 5    0  0.2947253E-001  0.3021618E+03  0.7546771E-02  0.1084165E+00
         21   -1    0    0  501  502  0.00000000000E+00  0.00000000000E+00  0.28559724910E+03  0.28559724910E+03  0.00000000000E+00 0.  1.
         -4   -1    0    0    0  501 -0.00000000000E+00 -0.00000000000E+00 -0.31792901845E+03  0.31792901845E+03  0.00000000000E+00 0.  1.
         25    1    1    2    0    0  0.85958119529E+02  0.26131964679E+03  0.39571470869E+02  0.30474195218E+03  0.12500000000E+03 0.  0.
         21    1    1    2  501  501 -0.39011286748E+02 -0.19953812982E+03 -0.17601956534E+02  0.20407639407E+03  0.00000000000E+00 0.  1.
         -4    1    1    2    0  502 -0.46946832781E+02 -0.61781516968E+02 -0.54301283680E+02  0.94707921297E+02  0.00000000000E+00 0.  1.
<mgrwt>
<rscale>  4 0.30216180E+03</rscale>
<asrwt>0</asrwt>
<pdfrwt beam="1">  1       21 0.43938038E-01 0.30216180E+03</pdfrwt>
<pdfrwt beam="2">  1       -4 0.48912157E-01 0.30216180E+03</pdfrwt>
<totfact> 0.84631864E+02</totfact>
</mgrwt>
</event>
<event>
 5    0  0.2947253E-001  0.2776229E+03  0.7546771E-02  0.1096994E+00
         21   -1    0    0  501  502  0.00000000000E+00  0.00000000000E+00  0.69902420358E+02  0.69902420358E+02  0.00000000000E+00 0. -1.
         -4   -1    0    0    0  501 -0.00000000000E+00 -0.00000000000E+00 -0.10321068006E+04  0.10321068006E+04  0.00000000000E+00 0. -1.
         25    1    1    2    0    0 -0.24713656089E+03  0.19312791910E+02 -0.48930959765E+03  0.56258185716E+03  0.12500000000E+03 0.  0.
         21    1    1    2  501  501  0.31795751983E+02 -0.77046601297E+01 -0.21455957413E+02  0.39124030217E+02  0.00000000000E+00 0. -1.
         -4    1    1    2    0  502  0.21534080891E+03 -0.11608131781E+02 -0.45143882513E+03  0.50030333353E+03  0.00000000000E+00 0. -1.
<mgrwt>
<rscale>  4 0.27762288E+03</rscale>
<asrwt>0</asrwt>
<pdfrwt beam="1">  1       21 0.10754220E-01 0.27762288E+03</pdfrwt>
<pdfrwt beam="2">  1       -4 0.15878564E+00 0.27762288E+03</pdfrwt>
<totfact> 0.82045592E+02</totfact>
</mgrwt>
</event>
<event>
 5    0  0.2947253E-001  0.2686040E+03  0.7546771E-02  0.1102081E+00
          1   -1    0    0  502    0 -0.00000000000E+00  0.00000000000E+00  0.14329259071E+04  0.14329259071E+04  0.00000000000E+00 0. -1.
         21   -1    0    0  503  502  0.00000000000E+00 -0.00000000000E+00 -0.29403920066E+03  0.29403920066E+03  0.00000000000E+00 0.  1.
         25    1    1    2    0    0 -0.78353335316E+02 -0.22446345817E+03 -0.21885923170E+03  0.34647864654E+03  0.12500000000E+03 0.  0.
         21    1    1    2  503  501  0.16277642550E+01  0.69516141117E+02  0.25687353242E+03  0.26611868621E+03  0.00000000000E+00 0.  1.
          1    1    1    2  501    0  0.76725571061E+02  0.15494731705E+03  0.11008724057E+04  0.11143677750E+04  0.00000000000E+00 0. -1.
<mgrwt>
<rscale>  4 0.26860396E+03</rscale>
<asrwt>0</asrwt>
<pdfrwt beam="1">  1       21 0.45236801E-01 0.26860396E+03</pdfrwt>
<pdfrwt beam="2">  1        1 0.22045014E+00 0.26860396E+03</pdfrwt>
<totfact> 0.40229670E+02</totfact>
</mgrwt>
</event>
<event>
 5    0  0.2947253E-001  0.4117539E+03  0.7546771E-02  0.1039784E+00
         21   -1    0    0  503  502  0.00000000000E+00  0.00000000000E+00  0.15245971927E+03  0.15245971927E+03  0.00000000000E+00 0. -1.
          2   -1    0    0  502    0 -0.00000000000E+00 -0.00000000000E+00 -0.17493857498E+04  0.17493857498E+04  0.00000000000E+00 0. -1.
         25    1    1    2    0    0  0.16589755505E+03 -0.34761179434E+03 -0.24446507518E+03  0.47301599478E+03  0.12500000000E+03 0.  0.
         21    1    1    2  503  501  0.38816848430E+02 -0.16360185323E+02 -0.15601354388E+03  0.16160021430E+03  0.00000000000E+00 0. -1.
          2    1    1    2  501    0 -0.20471440348E+03  0.36397197966E+03 -0.11964474115E+04  0.12672292600E+04  0.00000000000E+00 0. -1.
<mgrwt>
<rscale>  4 0.41175395E+03</rscale>
<asrwt>0</asrwt>
<pdfrwt beam="1">  1       21 0.23455340E-01 0.41175395E+03</pdfrwt>
<pdfrwt beam="2">  1        2 0.26913629E+00 0.41175395E+03</pdfrwt>
<totfact> 0.20371552E+03</totfact>
</mgrwt>
</event>
<event>
 5    0  0.2947253E-001  0.3089501E+03  0.7546771E-02  0.1080850E+00
         21   -1    0    0  503  502  0.00000000000E+00  0.00000000000E+00  0.71253276349E+02  0.71253276349E+02  0.00000000000E+00 0. -1.
          2   -1    0    0  502    0 -0.00000000000E+00 -0.00000000000E+00 -0.15946136006E+04  0.15946136006E+04  0.00000000000E+00 0.  1.
         25    1    1    2    0    0 -0.18329150425E+02  0.28193831815E+03 -0.40811356519E+03  0.51186605190E+03  0.12500000000E+03 0.  0.
         21    1    1    2  503  501 -0.91201394294E+01 -0.58678021883E+02 -0.12310528201E+03  0.13667917784E+03  0.00000000000E+00 0. -1.
          2    1    1    2  501    0  0.27449289854E+02 -0.22326029626E+03 -0.99214147705E+03  0.10173216472E+04  0.00000000000E+00 0.  1.
<mgrwt>
<rscale>  4 0.30895011E+03</rscale>
<asrwt>0</asrwt>
<pdfrwt beam="1">  1       21 0.10962043E-01 0.30895011E+03</pdfrwt>
<pdfrwt beam="2">  1        2 0.24532516E+00 0.30895011E+03</pdfrwt>
<totfact> 0.10412443E+04</totfact>
</mgrwt>
</event>
<event>
 5    0  0.2947253E-001  0.3652830E+03  0.7546771E-02  0.1056511E+00
          2   -1    0    0  502    0 -0.00000000000E+00  0.00000000000E+00  0.17253321909E+04  0.17253321909E+04  0.00000000000E+00 0.  1.
         21   -1    0    0  503  502  0.00000000000E+00 -0.00000000000E+00 -0.18807457586E+03  0.18807457586E+03  0.00000000000E+00 0.  1.
         25    1    1    2    0    0 -0.23011877693E+03  0.25466064780E+03  0.29603788346E+02  0.36648066977E+03  0.12500000000E+03 0.  0.
         21    1    1    2  503  501  0.32897409786E+02 -0.17344005630E+02  0.19230646856E+03  0.19586942577E+03  0.00000000000E+00 0. -1.
          2    1    1    2  501    0  0.19722136714E+03 -0.23731664217E+03  0.13153473581E+04  0.13510566712E+04  0.00000000000E+00 0.  1.
<mgrwt>
<rscale>  4 0.36528304E+03</rscale>
<asrwt>0</asrwt>
<pdfrwt beam="1">  1       21 0.28934551E-01 0.36528304E+03</pdfrwt>
<pdfrwt beam="2">  1        2 0.26543571E+00 0.36528304E+03</pdfrwt>
<totfact> 0.14135131E+03</totfact>
</mgrwt>
</event>
<event>
 5    0  0.2947253E-001  0.2365909E+03  0.7546771E-02  0.1122085E+00
         21   -1    0    0  503  502  0.00000000000E+00  0.00000000000E+00  0.22619960394E+03  0.22619960394E+03  0.00000000000E+00 0.  1.
          1   -1    0    0  502    0 -0.00000000000E+00 -0.00000000000E+00 -0.25475666493E+03  0.25475666493E+03  0.00000000000E+00 0.  1.
         25    1    1    2    0    0  0.17082489657E+03  0.10568402105E+03  0.73410210647E+02  0.24771822020E+03  0.12500000000E+03 0.  0.
         21    1    1    2  503  501 -0.11052932514E+03 -0.33903816103E+02 -0.63551665322E+02  0.13192806611E+03  0.00000000000E+00 0.  1.
          1    1    1    2  501    0 -0.60295571429E+02 -0.71780204944E+02 -0.38415606309E+02  0.10130998255E+03  0.00000000000E+00 0.  1.
<mgrwt>
<rscale>  4 0.23659091E+03</rscale>
<asrwt>0</asrwt>
<pdfrwt beam="1">  1       21 0.34799939E-01 0.23659091E+03</pdfrwt>
<pdfrwt beam="2">  1        1 0.39193333E-01 0.23659091E+03</pdfrwt>
<totfact> 0.92679843E+03</totfact>
</mgrwt>
</event>
<event>
 5    0  0.3472018E-001  0.2871795E+03  0.7546771E-02  0.1091831E+00
         21   -1    0    0  503  502  0.00000000000E+00  0.00000000000E+00  0.76370579051E+03  0.76370579051E+03  0.00000000000E+00 0.  1.
          2   -1    0    0  502    0 -0.00000000000E+00 -0.00000000000E+00 -0.15921895125E+04  0.15921895125E+04  0.00000000000E+00 0.  1.
         25    1    1    2    0    0  0.26602707175E+03 -0.63898107391E+02  0.70017129897E+03  0.76204869853E+03  0.12500000000E+03 0.  0.
         21    1    1    2  503  501 -0.83947080722E+01  0.44313685791E+02 -0.16450207164E+01  0.45131806579E+02  0.00000000000E+00 0. -1.
          2    1    1    2  501    0 -0.25763236368E+03  0.19584421600E+02 -0.15270100003E+04  0.15487147979E+04  0.00000000000E+00 0.  1.
<mgrwt>
<rscale>  4 0.28717952E+03</rscale>
<asrwt>0</asrwt>
<pdfrwt beam="1">  1       21 0.11749320E+00 0.28717952E+03</pdfrwt>
<pdfrwt beam="2">  1        2 0.24495223E+00 0.28717952E+03</pdfrwt>
<totfact> 0.80739301E+01</totfact>
</mgrwt>
</event>
<event>
 5    0  0.2947253E-001  0.2895229E+03  0.7546771E-02  0.1090598E+00
         21   -1    0    0  503  502  0.00000000000E+00  0.00000000000E+00  0.63235784191E+03  0.63235784191E+03  0.00000000000E+00 0. -1.
          2   -1    0    0  502    0 -0.00000000000E+00 -0.00000000000E+00 -0.32936343346E+03  0.32936343346E+03  0.00000000000E+00 0. -1.
         25    1    1    2    0    0 -0.24280822765E+03  0.10141276116E+03  0.53027593953E+03  0.60502723541E+03  0.12500000000E+03 0.  0.
         21    1    1    2  503  501  0.20740494779E+02  0.56103811325E+01 -0.13360956830E+00  0.21486329413E+02  0.00000000000E+00 0. -1.
          2    1    1    2  501    0  0.22206773288E+03 -0.10702314229E+03 -0.22714792151E+03  0.33520771055E+03  0.00000000000E+00 0. -1.
<mgrwt>
<rscale>  4 0.28952292E+03</rscale>
<asrwt>0</asrwt>
<pdfrwt beam="1">  1       21 0.97285821E-01 0.28952292E+03</pdfrwt>
<pdfrwt beam="2">  1        2 0.50671298E-01 0.28952292E+03</pdfrwt>
<totfact> 0.10302973E+03</totfact>
</mgrwt>
</event>
<event>
 5    0  0.2947253E-001  0.2406105E+03  0.7546771E-02  0.1119387E+00
         21   -1    0    0  503  502  0.00000000000E+00  0.00000000000E+00  0.13776848063E+04  0.13776848063E+04  0.00000000000E+00 0.  1.
          3   -1    0    0  502    0 -0.00000000000E+00 -0.00000000000E+00 -0.13878341970E+03  0.13878341970E+03  0.00000000000E+00 0.  1.
         25    1    1    2    0    0 -0.51974132907E+02 -0.23362529454E+03  0.11936305049E+04  0.12237895534E+04  0.12500000000E+03 0.  0.
         21    1    1    2  503  501 -0.50507449003E+01  0.38583569409E+02  0.77700884662E+02  0.86900111218E+02  0.00000000000E+00 0. -1.
          3    1    1    2  501    0  0.57024877807E+02  0.19504172513E+03 -0.32430002991E+02  0.20577856138E+03  0.00000000000E+00 0.  1.
<mgrwt>
<rscale>  4 0.24061047E+03</rscale>
<asrwt>0</asrwt>
<pdfrwt beam="1">  1       21 0.21195150E+00 0.24061047E+03</pdfrwt>
<pdfrwt beam="2">  1        3 0.21351296E-01 0.24061047E+03</pdfrwt>
<totfact> 0.10820345E+02</totfact>
</mgrwt>
</event>
<event>
 5    0  0.2947253E-001  0.2552655E+03  0.7546771E-02  0.1110022E+00
         -1   -1    0    0    0  501 -0.00000000000E+00  0.00000000000E+00  0.47969772006E+03  0.47969772006E+03  0.00000000000E+00 0.  1.
         21   -1    0    0  501  502  0.00000000000E+00 -0.00000000000E+00 -0.18614716725E+03  0.18614716725E+03  0.00000000000E+00 0.  1.
         25    1    1    2    0    0  0.21302215688E+03 -0.30792045321E+02 -0.15004085232E+02  0.24935258561E+03  0.12500000000E+03 0.  0.
         21    1    1    2  501  501  0.22172836600E+02 -0.28923459398E+02  0.50388228567E+02  0.62186612422E+02  0.00000000000E+00 0.  1.
         -1    1    1    2    0  502 -0.23519499348E+03  0.59715504720E+02  0.25816640947E+03  0.35430568926E+03  0.00000000000E+00 0.  1.
<mgrwt>
<rscale>  4 0.25526553E+03</rscale>
<asrwt>0</asrwt>
<pdfrwt beam="1">  1       21 0.28638026E-01 0.25526553E+03</pdfrwt>
<pdfrwt beam="2">  1       -1 0.73799649E-01 0.25526553E+03</pdfrwt>
<totfact> 0.20578546E+03</totfact>
</mgrwt>
</event>
<event>
 5    0  0.2947253E-001  0.2578392E+03  0.7546771E-02  0.1108448E+00
         21   -1    0    0  503  502  0.00000000000E+00  0.00000000000E+00  0.41724381065E+03  0.41724381065E+03  0.00000000000E+00 0.  1.
          2   -1    0    0  502    0 -0.00000000000E+00 -0.00000000000E+00 -0.24265997582E+04  0.24265997582E+04  0.00000000000E+00 0.  1.
         25    1    1    2    0    0 -0.18295538390E+03  0.13236250789E+03  0.36933893889E+03  0.45058712562E+03  0.12500000000E+03 0.  0.
         21    1    1    2  503  501 -0.25288105842E+01 -0.32926283324E+02 -0.11077330361E+03  0.11559091577E+03  0.00000000000E+00 0. -1.
          2    1    1    2  501    0  0.18548419448E+03 -0.99436224570E+02 -0.22679215828E+04  0.22776655275E+04  0.00000000000E+00 0.  1.
<mgrwt>
<rscale>  4 0.25783915E+03</rscale>
<asrwt>0</asrwt>
<pdfrwt beam="1">  1       21 0.64191355E-01 0.25783915E+03</pdfrwt>
<pdfrwt beam="2">  1        2 0.37332304E+00 0.25783915E+03</pdfrwt>
<totfact> 0.12147877E+02</totfact>
</mgrwt>
</event>
<event>
 5    0  0.2947253E-001  0.4831051E+03  0.7546771E-02  0.1018285E+00
         -3   -1    0    0    0  501 -0.00000000000E+00  0.00000000000E+00  0.28016799383E+04  0.28016799383E+04  0.00000000000E+00 0. -1.
         21   -1    0    0  501  502  0.00000000000E+00 -0.00000000000E+00 -0.89783718898E+02  0.89783718898E+02  0.00000000000E+00 0. -1.
         25    1    1    2    0    0  0.57598745147E+02 -0.46308518530E+03  0.94635812449E+03  0.10625366836E+04  0.12500000000E+03 0.  0.
         21    1    1    2  501  501 -0.23302211981E+02  0.32403887621E+02  0.87689214282E+02  0.96345229864E+02  0.00000000000E+00 0.  1.
         -3    1    1    2    0  502 -0.34296533166E+02  0.43068129768E+03  0.16778488807E+04  0.17325817437E+04  0.00000000000E+00 0. -1.
<mgrwt>
<rscale>  4 0.48310507E+03</rscale>
<asrwt>0</asrwt>
<pdfrwt beam="1">  1       21 0.13812882E-01 0.48310507E+03</pdfrwt>
<pdfrwt beam="2">  1       -3 0.43102762E+00 0.48310507E+03</pdfrwt>
<totfact> 0.17985836E+01</totfact>
</mgrwt>
</event>
<event>
 5    0  0.2947253E-001  0.2455629E+03  0.7546771E-02  0.1116141E+00
          2   -1    0    0  502    0 -0.00000000000E+00  0.00000000000E+00  0.31435927446E+04  0.31435927446E+04  0.00000000000E+00 0. -1.
         21   -1    0    0  503  502  0.00000000000E+00 -0.00000000000E+00 -0.39593550530E+03  0.39593550530E+03  0.00000000000E+00 0. -1.
         25    1    1    2    0    0  0.20304269394E+03  0.61229320066E+02 -0.34836187495E+03  0.42656343153E+03  0.12500000000E+03 0.  0.
         21    1    1    2  503  501 -0.68261072608E+02  0.47903065672E+02  0.29439542068E+03  0.30597866176E+03  0.00000000000E+00 0. -1.
          2    1    1    2  501    0 -0.13478162133E+03 -0.10913238574E+03  0.28016236935E+04  0.28069861566E+04  0.00000000000E+00 0. -1.
<mgrwt>
<rscale>  4 0.24556295E+03</rscale>
<asrwt>0</asrwt>
<pdfrwt beam="1">  1       21 0.60913157E-01 0.24556295E+03</pdfrwt>
<pdfrwt beam="2">  1        2 0.48362964E+00 0.24556295E+03</pdfrwt>
<totfact> 0.53565722E+01</totfact>
</mgrwt>
</event>
<event>
 5    0  0.2947253E-001  0.3375787E+03  0.7546771E-02  0.1067832E+00
          4   -1    0    0  502    0 -0.00000000000E+00  0.00000000000E+00  0.37179821843E+03  0.37179821843E+03  0.00000000000E+00 0.  1.
         21   -1    0    0  503  502  0.00000000000E+00 -0.00000000000E+00 -0.13104426603E+04  0.13104426603E+04  0.00000000000E+00 0.  1.
         25    1    1    2    0    0 -0.30410544125E+03  0.82972756254E+02 -0.12036351660E+04  0.12504907878E+04  0.12500000000E+03 0.  0.
         21    1    1    2  503  501  0.19140442070E+02 -0.25488302491E+02 -0.81039266335E+01  0.32888960357E+02  0.00000000000E+00 0. -1.
          4    1    1    2  501    0  0.28496499918E+03 -0.57484453764E+02  0.27309465075E+03  0.39886113054E+03  0.00000000000E+00 0.  1.
<mgrwt>
<rscale>  4 0.33757867E+03</rscale>
<asrwt>0</asrwt>
<pdfrwt beam="1">  1       21 0.20160656E+00 0.33757867E+03</pdfrwt>
<pdfrwt beam="2">  1        4 0.57199726E-01 0.33757867E+03</pdfrwt>
<totfact> 0.15042810E+01</totfact>
</mgrwt>
</event>
<event>
 5    0  0.2947253E-001  0.2760988E+03  0.7546771E-02  0.1097839E+00
          2   -1    0    0  502    0 -0.00000000000E+00  0.00000000000E+00  0.12395882278E+04  0.12395882278E+04  0.00000000000E+00 0. -1.
         21   -1    0    0  503  502  0.00000000000E+00 -0.00000000000E+00 -0.43195726080E+03  0.43195726080E+03  0.00000000000E+00 0. -1.
         25    1    1    2    0    0  0.22830372440E+03 -0.92102949087E+02 -0.37033536649E+03  0.46192946158E+03  0.12500000000E+03 0.  0.
         21    1    1    2  503  501 -0.12662222446E+03  0.10812686326E+03  0.60590459402E+03  0.62836691777E+03  0.00000000000E+00 0. -1.
          2    1    1    2  501    0 -0.10168149994E+03 -0.16023914172E+02  0.57206173942E+03  0.58124910922E+03  0.00000000000E+00 0. -1.
<mgrwt>
<rscale>  4 0.27609879E+03</rscale>
<asrwt>0</asrwt>
<pdfrwt beam="1">  1       21 0.66454964E-01 0.27609879E+03</pdfrwt>
<pdfrwt beam="2">  1        2 0.19070588E+00 0.27609879E+03</pdfrwt>
<totfact> 0.47907916E+02</totfact>
</mgrwt>
</event>
<event>
 5    0  0.2947253E-001  0.2610813E+03  0.7546771E-02  0.1106495E+00
         -1   -1    0    0    0  501 -0.00000000000E+00  0.00000000000E+00  0.26454629503E+03  0.26454629503E+03  0.00000000000E+00 0.  1.
         21   -1    0    0  501  502  0.00000000000E+00 -0.00000000000E+00 -0.72887968871E+03  0.72887968871E+03  0.00000000000E+00 0.  1.
         25    1    1    2    0    0  0.22685936894E+03 -0.32760875582E+02 -0.63854423581E+03  0.68985664404E+03  0.12500000000E+03 0.  0.
         21    1    1    2  501  501 -0.12288051943E+03  0.51106810945E+02  0.54132998078E+02  0.14367292599E+03  0.00000000000E+00 0.  1.
         -1    1    1    2    0  502 -0.10397884951E+03 -0.18345935363E+02  0.12007784404E+03  0.15989641372E+03  0.00000000000E+00 0.  1.
<mgrwt>
<rscale>  4 0.26108131E+03</rscale>
<asrwt>0</asrwt>
<pdfrwt beam="1">  1       21 0.11213534E+00 0.26108131E+03</pdfrwt>
<pdfrwt beam="2">  1       -1 0.40699430E-01 0.26108131E+03</pdfrwt>
<totfact> 0.33164262E+02</totfact>
</mgrwt>
</event>
<event>
 5    0  0.2947253E-001  0.2480064E+03  0.7546771E-02  0.1114571E+00
         21   -1    0    0  503  502  0.00000000000E+00  0.00000000000E+00  0.16795848375E+03  0.16795848375E+03  0.00000000000E+00 0. -1.
          3   -1    0    0  502    0 -0.00000000000E+00 -0.00000000000E+00 -0.37493544377E+03  0.37493544377E+03  0.00000000000E+00 0. -1.
         25    1    1    2    0    0 -0.20904086737E+03  0.75205248837E+02 -0.54699848262E+02  0.26071246054E+03  0.12500000000E+03 0.  0.
         21    1    1    2  503  501  0.51485329069E+01 -0.23450517942E+02 -0.29052089015E+01  0.24184177092E+02  0.00000000000E+00 0.  1.
          3    1    1    2  501    0  0.20389233446E+03 -0.51754730894E+02 -0.14937190286E+03  0.25799728988E+03  0.00000000000E+00 0. -1.
<mgrwt>
<rscale>  4 0.24800642E+03</rscale>
<asrwt>0</asrwt>
<pdfrwt beam="1">  1       21 0.25839767E-01 0.24800642E+03</pdfrwt>
<pdfrwt beam="2">  1        3 0.57682375E-01 0.24800642E+03</pdfrwt>
<totfact> 0.20953022E+03</totfact>
</mgrwt>
</event>
<event>
 5    0  0.2947253E-001  0.2593307E+03  0.7546771E-02  0.1107546E+00
         21   -1    0    0  503  502  0.00000000000E+00  0.00000000000E+00  0.68894131208E+02  0.68894131208E+02  0.00000000000E+00 0. -1.
          1   -1    0    0  502    0 -0.00000000000E+00 -0.00000000000E+00 -0.16101112124E+04  0.16101112124E+04  0.00000000000E+00 0.  1.
         25    1    1    2    0    0 -0.52721467690E+02  0.22101550280E+03 -0.23377691896E+03  0.34914760986E+03  0.12500000000E+03 0.  0.
         21    1    1    2  503  501 -0.12726426687E+02 -0.64282093890E+02 -0.23158503333E+03  0.24067774553E+03  0.00000000000E+00 0.  1.
          1    1    1    2  501    0  0.65447894378E+02 -0.15673340891E+03 -0.10758551289E+04  0.10891799883E+04  0.00000000000E+00 0.  1.
<mgrwt>
<rscale>  4 0.25933069E+03</rscale>
<asrwt>0</asrwt>
<pdfrwt beam="1">  1       21 0.10599097E-01 0.25933069E+03</pdfrwt>
<pdfrwt beam="2">  1        1 0.24770942E+00 0.25933069E+03</pdfrwt>
<totfact> 0.49135806E+03</totfact>
</mgrwt>
</event>
<event>
 5    0  0.2947253E-001  0.2701075E+03  0.7546771E-02  0.1101218E+00
          2   -1    0    0  502    0 -0.00000000000E+00  0.00000000000E+00  0.65655009923E+03  0.65655009923E+03  0.00000000000E+00 0.  1.
         21   -1    0    0  503  502  0.00000000000E+00 -0.00000000000E+00 -0.33069619364E+03  0.33069619364E+03  0.00000000000E+00 0. -1.
         25    1    1    2    0    0  0.44221241747E+02 -0.23532428630E+03 -0.24427512144E+03  0.36418178552E+03  0.12500000000E+03 0.  0.
         21    1    1    2  503  501 -0.60762024202E+02  0.13731538083E+03  0.30611357436E+03  0.34095902657E+03  0.00000000000E+00 0.  1.
          2    1    1    2  501    0  0.16540782456E+02  0.98008905474E+02  0.26401545267E+03  0.28210548078E+03  0.00000000000E+00 0.  1.
<mgrwt>
<rscale>  4 0.27010746E+03</rscale>
<asrwt>0</asrwt>
<pdfrwt beam="1">  1       21 0.50876338E-01 0.27010746E+03</pdfrwt>
<pdfrwt beam="2">  1        2 0.10100771E+00 0.27010746E+03</pdfrwt>
<totfact> 0.20337181E+03</totfact>
</mgrwt>
</event>
<event>
 5    0  0.2947253E-001  0.2827532E+03  0.7546771E-02  0.1094195E+00
          1   -1    0    0  502    0 -0.00000000000E+00  0.00000000000E+00  0.77232194817E+03  0.77232194817E+03  0.00000000000E+00 0.  1.
         21   -1    0    0  503  502  0.00000000000E+00 -0.00000000000E+00 -0.36374606560E+03  0.36374606560E+03  0.00000000000E+00 0.  1.
         25    1    1    2    0    0  0.28830578767E+02 -0.25197850638E+03 -0.28036489520E+03  0.39818820225E+03  0.12500000000E+03 0.  0.
         21    1    1    2  503  501 -0.20324135694E+02  0.12457336764E+03  0.24044057206E+03  0.27155710838E+03  0.00000000000E+00 0.  1.
          1    1    1    2  501    0 -0.85064430735E+01  0.12740513875E+03  0.44850020570E+03  0.46632270314E+03  0.00000000000E+00 0.  1.
<mgrwt>
<rscale>  4 0.28275320E+03</rscale>
<asrwt>0</asrwt>
<pdfrwt beam="1">  1       21 0.55960934E-01 0.28275320E+03</pdfrwt>
<pdfrwt beam="2">  1        1 0.11881876E+00 0.28275320E+03</pdfrwt>
<totfact> 0.78145397E+02</totfact>
</mgrwt>
</event>
<event>
 5    0  0.2947253E-001  0.3078715E+03  0.7546771E-02  0.1081371E+00
         21   -1    0    0  501  502  0.00000000000E+00  0.00000000000E+00  0.54948157257E+03  0.54948157257E+03  0.00000000000E+00 0.  1.
         -3   -1    0    0    0  501 -0.00000000000E+00 -0.00000000000E+00 -0.24074613891E+03  0.24074613891E+03  0.00000000000E+00 0.  1.
         25    1    1    2    0    0 -0.25669613390E+03  0.12630686271E+03  0.35232191154E+03  0.47074627782E+03  0.12500000000E+03 0.  0.
         21    1    1    2  501  501 -0.21468214181E+01 -0.44588967712E+02 -0.11919166987E+02  0.46204452443E+02  0.00000000000E+00 0.  1.
         -3    1    1    2    0  502  0.25884295532E+03 -0.81717894999E+02 -0.31667310897E+02  0.27327698121E+03  0.00000000000E+00 0.  1.
<mgrwt>
<rscale>  4 0.30787148E+03</rscale>
<asrwt>0</asrwt>
<pdfrwt beam="1">  1       21 0.84535626E-01 0.30787148E+03</pdfrwt>
<pdfrwt beam="2">  1       -3 0.37037868E-01 0.30787148E+03</pdfrwt>
<totfact> 0.42120152E+02</totfact>
</mgrwt>
</event>
<event>
 5    0  0.2947253E-001  0.3040963E+03  0.7546771E-02  0.1083211E+00
          2   -1    0    0  502    0 -0.00000000000E+00  0.00000000000E+00  0.25598317147E+03  0.25598317147E+03  0.00000000000E+00 0. -1.
         21   -1    0    0  503  502  0.00000000000E+00 -0.00000000000E+00 -0.58265658911E+03  0.58265658911E+03  0.00000000000E+00 0.  1.
         25    1    1    2    0    0 -0.11115485529E+03  0.29173487978E+03 -0.23789509355E+03  0.41192683509E+03  0.12500000000E+03 0.  0.
         21    1    1    2  503  501  0.12444702250E+03 -0.21817239124E+02 -0.92261683020E+02  0.15644574614E+03  0.00000000000E+00 0.  1.
          2    1    1    2  501    0 -0.13292167210E+02 -0.26991764065E+03  0.34833589232E+01  0.27026717935E+03  0.00000000000E+00 0. -1.
<mgrwt>
<rscale>  4 0.30409631E+03</rscale>
<asrwt>0</asrwt>
<pdfrwt beam="1">  1       21 0.89639474E-01 0.30409631E+03</pdfrwt>
<pdfrwt beam="2">  1        2 0.39382027E-01 0.30409631E+03</pdfrwt>
<totfact> 0.16358173E+03</totfact>
</mgrwt>
</event>
<event>
 5    0  0.2947253E-001  0.2370621E+03  0.7546771E-02  0.1121766E+00
         21   -1    0    0  503  502  0.00000000000E+00  0.00000000000E+00  0.25457723208E+03  0.25457723208E+03  0.00000000000E+00 0. -1.
          4   -1    0    0  502    0 -0.00000000000E+00 -0.00000000000E+00 -0.21236405551E+04  0.21236405551E+04  0.00000000000E+00 0. -1.
         25    1    1    2    0    0  0.25257399140E+02 -0.20187820946E+03  0.19028808471E+03  0.30533146390E+03  0.12500000000E+03 0.  0.
         21    1    1    2  503  501  0.21754054573E+01  0.66115169122E+02 -0.26258404688E+03  0.27078834845E+03  0.00000000000E+00 0. -1.
          4    1    1    2  501    0 -0.27432804597E+02  0.13576304034E+03 -0.17967673609E+04  0.18020979749E+04  0.00000000000E+00 0. -1.
<mgrwt>
<rscale>  4 0.23706213E+03</rscale>
<asrwt>0</asrwt>
<pdfrwt beam="1">  1       21 0.39165730E-01 0.23706213E+03</pdfrwt>
<pdfrwt beam="2">  1        4 0.32671392E+00 0.23706213E+03</pdfrwt>
<totfact> 0.66026465E+00</totfact>
</mgrwt>
</event>
<event>
 5    0  0.2947253E-001  0.3641326E+03  0.7546771E-02  0.1056959E+00
          2   -1    0    0  502    0 -0.00000000000E+00  0.00000000000E+00  0.11404618417E+04  0.11404618417E+04  0.00000000000E+00 0.  1.
         21   -1    0    0  503  502  0.00000000000E+00 -0.00000000000E+00 -0.24504747453E+03  0.24504747453E+03  0.00000000000E+00 0.  1.
         25    1    1    2    0    0 -0.35554895980E+03  0.96256148114E+02  0.31395651529E+00  0.38897995762E+03  0.12500000000E+03 0.  0.
         21    1    1    2  503  501  0.76262185040E+02 -0.13482965073E+03  0.35314260937E+03  0.38562242951E+03  0.00000000000E+00 0.  1.
          2    1    1    2  501    0  0.27928677476E+03  0.38573502614E+02  0.54195780131E+03  0.61090692913E+03  0.00000000000E+00 0.  1.
<mgrwt>
<rscale>  4 0.36413263E+03</rscale>
<asrwt>0</asrwt>
<pdfrwt beam="1">  1       21 0.37699612E-01 0.36413263E+03</pdfrwt>
<pdfrwt beam="2">  1        2 0.17545566E+00 0.36413263E+03</pdfrwt>
<totfact> 0.17509998E+03</totfact>
</mgrwt>
</event>
<event>
 5    0  0.2947253E-001  0.2437694E+03  0.7546771E-02  0.1117307E+00
         21   -1    0    0  503  502  0.00000000000E+00  0.00000000000E+00  0.15367606661E+03  0.15367606661E+03  0.00000000000E+00 0. -1.
          2   -1    0    0  502    0 -0.00000000000E+00 -0.00000000000E+00 -0.48938439291E+03  0.48938439291E+03  0.00000000000E+00 0. -1.
         25    1    1    2    0    0  0.22652565242E+03  0.84773995999E+02 -0.10313342530E+03  0.29113915061E+03  0.12500000000E+03 0.  0.
         21    1    1    2  503  501 -0.36514052764E+02 -0.33055252098E+02 -0.28380880809E+01  0.49335387750E+02  0.00000000000E+00 0.  1.
          2    1    1    2  501    0 -0.19001159966E+03 -0.51718743901E+02 -0.22973681292E+03  0.30258592116E+03  0.00000000000E+00 0. -1.
<mgrwt>
<rscale>  4 0.24376940E+03</rscale>
<asrwt>0</asrwt>
<pdfrwt beam="1">  1       21 0.23642473E-01 0.24376940E+03</pdfrwt>
<pdfrwt beam="2">  1        2 0.75289904E-01 0.24376940E+03</pdfrwt>
<totfact> 0.13312658E+04</totfact>
</mgrwt>
</event>
<event>
 5    0  0.2947253E-001  0.2982092E+03  0.7546771E-02  0.1086139E+00
         21   -1    0    0  503  502  0.00000000000E+00  0.00000000000E+00  0.56443925156E+02  0.56443925156E+02  0.00000000000E+00 0. -1.
          2   -1    0    0  502    0 -0.00000000000E+00 -0.00000000000E+00 -0.17839574616E+04  0.17839574616E+04  0.00000000000E+00 0. -1.
         25    1    1    2    0    0  0.46562709130E+02 -0.26671264118E+03 -0.11801499921E+04  0.12172439043E+04  0.12500000000E+03 0.  0.
         21    1    1    2  503  501 -0.21293957212E+02  0.13623641864E+03 -0.40760623118E+03  0.43029830825E+03  0.00000000000E+00 0. -1.
          2    1    1    2  501    0 -0.25268751918E+02  0.13047622253E+03 -0.13975731314E+03  0.19285917413E+03  0.00000000000E+00 0. -1.
<mgrwt>
<rscale>  4 0.29820919E+03</rscale>
<asrwt>0</asrwt>
<pdfrwt beam="1">  1       21 0.86836803E-02 0.29820919E+03</pdfrwt>
<pdfrwt beam="2">  1        2 0.27445501E+00 0.29820919E+03</pdfrwt>
<totfact> 0.12548783E+04</totfact>
</mgrwt>
</event>
<event>
 5    0  0.2947253E-001  0.2597379E+03  0.7546771E-02  0.1107301E+00
          3   -1    0    0  502    0 -0.00000000000E+00  0.00000000000E+00  0.58260539246E+03  0.58260539246E+03  0.00000000000E+00 0. -1.
         21   -1    0    0  503  502  0.00000000000E+00 -0.00000000000E+00 -0.88617829289E+03  0.88617829289E+03  0.00000000000E+00 0. -1.
         25    1    1    2    0    0 -0.99211161331E+02  0.22481737815E+03 -0.82089689338E+03  0.86595751490E+03  0.12500000000E+03 0.  0.
         21    1    1    2  503  501  0.67838401031E+02 -0.11165360574E+03  0.87480970686E+02  0.15723071125E+03  0.00000000000E+00 0. -1.
          3    1    1    2  501    0  0.31372760300E+02 -0.11316377241E+03  0.42984302226E+03  0.44559545920E+03  0.00000000000E+00 0. -1.
<mgrwt>
<rscale>  4 0.25973789E+03</rscale>
<asrwt>0</asrwt>
<pdfrwt beam="1">  1       21 0.13633512E+00 0.25973789E+03</pdfrwt>
<pdfrwt beam="2">  1        3 0.89631599E-01 0.25973789E+03</pdfrwt>
<totfact> 0.21197498E+01</totfact>
</mgrwt>
</event>
<event>
 5    0  0.2947253E-001  0.3313937E+03  0.7546771E-02  0.1070522E+00
         -2   -1    0    0    0  501 -0.00000000000E+00  0.00000000000E+00  0.86519421084E+03  0.86519421084E+03  0.00000000000E+00 0. -1.
         21   -1    0    0  501  502  0.00000000000E+00 -0.00000000000E+00 -0.31066228194E+03  0.31066228194E+03  0.00000000000E+00 0. -1.
         25    1    1    2    0    0 -0.23601185033E+03  0.19620194008E+03 -0.18094307762E+03  0.37757408826E+03  0.12500000000E+03 0.  0.
         21    1    1    2  501  501  0.33044139406E+02 -0.16235381656E+02  0.12374109964E+03  0.12910213982E+03  0.00000000000E+00 0. -1.
         -2    1    1    2    0  502  0.20296771093E+03 -0.17996655843E+03  0.61173390688E+03  0.66918026470E+03  0.00000000000E+00 0. -1.
<mgrwt>
<rscale>  4 0.33139372E+03</rscale>
<asrwt>0</asrwt>
<pdfrwt beam="1">  1       21 0.47794198E-01 0.33139372E+03</pdfrwt>
<pdfrwt beam="2">  1       -2 0.13310680E+00 0.33139372E+03</pdfrwt>
<totfact> 0.14028557E+02</totfact>
</mgrwt>
</event>
<event>
 5    0  0.3891088E-001  0.3215765E+03  0.7546771E-02  0.1074926E+00
          2   -1    0    0  502    0 -0.00000000000E+00  0.00000000000E+00  0.21026925843E+04  0.21026925843E+04  0.00000000000E+00 0.  1.
         21   -1    0    0  503  502  0.00000000000E+00 -0.00000000000E+00 -0.91306252496E+02  0.91306252496E+02  0.00000000000E+00 0. -1.
         25    1    1    2    0    0 -0.22453097711E+03  0.19535980143E+03  0.26374671250E+03  0.41685361945E+03  0.12500000000E+03 0.  0.
         21    1    1    2  503  501 -0.10558214317E+02 -0.24500497600E+02  0.78906891916E+02  0.83294945009E+02  0.00000000000E+00 0.  1.
          2    1    1    2  501    0  0.23508919143E+03 -0.17085930383E+03  0.16687327273E+04  0.16938502723E+04  0.00000000000E+00 0.  1.
<mgrwt>
<rscale>  4 0.32157655E+03</rscale>
<asrwt>0</asrwt>
<pdfrwt beam="1">  1       21 0.14047117E-01 0.32157655E+03</pdfrwt>
<pdfrwt beam="2">  1        2 0.32349113E+00 0.32157655E+03</pdfrwt>
<totfact> 0.35588712E+03</totfact>
</mgrwt>
</event>
<event>
 5    0  0.2947253E-001  0.2687539E+03  0.7546771E-02  0.1101995E+00
          3   -1    0    0  502    0 -0.00000000000E+00  0.00000000000E+00  0.46200283690E+03  0.46200283690E+03  0.00000000000E+00 0.  1.
         21   -1    0    0  503  502  0.00000000000E+00 -0.00000000000E+00 -0.19019972814E+03  0.19019972814E+03  0.00000000000E+00 0.  1.
         25    1    1    2    0    0  0.79658592926E+02  0.24671635435E+03  0.54870053611E+02  0.29300200292E+03  0.12500000000E+03 0.  0.
         21    1    1    2  503  501  0.22207668106E+02 -0.40842152326E+02  0.51569821229E+01  0.46774527192E+02  0.00000000000E+00 0.  1.
          3    1    1    2  501    0 -0.10186626103E+03 -0.20587420203E+03  0.21177607302E+03  0.31242603493E+03  0.00000000000E+00 0.  1.
<mgrwt>
<rscale>  4 0.26875386E+03</rscale>
<asrwt>0</asrwt>
<pdfrwt beam="1">  1       21 0.29261497E-01 0.26875386E+03</pdfrwt>
<pdfrwt beam="2">  1        3 0.71077359E-01 0.26875386E+03</pdfrwt>
<totfact> 0.10580234E+03</totfact>
</mgrwt>
</event>
<event>
 5    0  0.2947253E-001  0.2357336E+03  0.7546771E-02  0.1122668E+00
         21   -1    0    0  503  502  0.00000000000E+00  0.00000000000E+00  0.88186844473E+02  0.88186844473E+02  0.00000000000E+00 0.  1.
          1   -1    0    0  502    0 -0.00000000000E+00 -0.00000000000E+00 -0.15245521107E+04  0.15245521107E+04  0.00000000000E+00 0.  1.
         25    1    1    2    0    0  0.97202765653E+02 -0.18260730698E+03 -0.10966660330E+03  0.26541584371E+03  0.12500000000E+03 0.  0.
         21    1    1    2  503  501 -0.59528850571E+02  0.23178924405E+02 -0.24046870711E+03  0.24880945658E+03  0.00000000000E+00 0.  1.
          1    1    1    2  501    0 -0.37673915082E+02  0.15942838257E+03 -0.10862299559E+04  0.10985136549E+04  0.00000000000E+00 0.  1.
<mgrwt>
<rscale>  4 0.23573358E+03</rscale>
<asrwt>0</asrwt>
<pdfrwt beam="1">  1       21 0.13567206E-01 0.23573358E+03</pdfrwt>
<pdfrwt beam="2">  1        1 0.23454649E+00 0.23573358E+03</pdfrwt>
<totfact> 0.36177840E+03</totfact>
</mgrwt>
</event>
<event>
 5    0  0.2947253E-001  0.2333323E+03  0.7546771E-02  0.1124316E+00
          1   -1    0    0  502    0 -0.00000000000E+00  0.00000000000E+00  0.69662019760E+03  0.69662019760E+03  0.00000000000E+00 0.  1.
         21   -1    0    0  503  502  0.00000000000E+00 -0.00000000000E+00 -0.23559392748E+03  0.23559392748E+03  0.00000000000E+00 0.  1.
         25    1    1    2    0    0 -0.21870218037E+03 -0.16351271715E+02 -0.13270614862E+03  0.28519104065E+03  0.12500000000E+03 0.  0.
         21    1    1    2  503  501  0.25048056210E+02 -0.94501733925E+01  0.56800927331E+01  0.27367395757E+02  0.00000000000E+00 0.  1.
          1    1    1    2  501    0  0.19365412416E+03  0.25801445108E+02  0.58805232601E+03  0.61965568867E+03  0.00000000000E+00 0.  1.
<mgrwt>
<rscale>  4 0.23333231E+03</rscale>
<asrwt>0</asrwt>
<pdfrwt beam="1">  1       21 0.36245220E-01 0.23333231E+03</pdfrwt>
<pdfrwt beam="2">  1        1 0.10717234E+00 0.23333231E+03</pdfrwt>
<totfact> 0.22825366E+03</totfact>
</mgrwt>
</event>
<event>
 5    0  0.2947253E-001  0.2781552E+03  0.7546771E-02  0.1096701E+00
         21   -1    0    0  501  502  0.00000000000E+00  0.00000000000E+00  0.56331047239E+02  0.56331047239E+02  0.00000000000E+00 0.  1.
         -2   -1    0    0    0  501 -0.00000000000E+00 -0.00000000000E+00 -0.13442040359E+04  0.13442040359E+04  0.00000000000E+00 0.  1.
         25    1    1    2    0    0  0.15782282176E+03 -0.19193042104E+03 -0.57053750026E+03  0.63473094205E+03  0.12500000000E+03 0.  0.
         21    1    1    2  501  501 -0.36100733842E+02  0.10110498224E+03 -0.39748892289E+03  0.41173161676E+03  0.00000000000E+00 0.  1.
         -2    1    1    2    0  502 -0.12172208792E+03  0.90825438798E+02 -0.31984656552E+03  0.35407252435E+03  0.00000000000E+00 0.  1.
<mgrwt>
<rscale>  4 0.27815523E+03</rscale>
<asrwt>0</asrwt>
<pdfrwt beam="1">  1       21 0.86663140E-02 0.27815523E+03</pdfrwt>
<pdfrwt beam="2">  1       -2 0.20680064E+00 0.27815523E+03</pdfrwt>
<totfact> 0.11119487E+03</totfact>
</mgrwt>
</event>
<event>
 5    0  0.2947253E-001  0.4934078E+03  0.7546771E-02  0.1015514E+00
         21   -1    0    0  503  502  0.00000000000E+00  0.00000000000E+00  0.17026884177E+03  0.17026884177E+03  0.00000000000E+00 0. -1.
          2   -1    0    0  502    0 -0.00000000000E+00 -0.00000000000E+00 -0.22919589835E+04  0.22919589835E+04  0.00000000000E+00 0. -1.
         25    1    1    2    0    0 -0.34397629524E+03  0.33091777505E+03 -0.30285641220E+03  0.57894150995E+03  0.12500000000E+03 0.  0.
         21    1    1    2  503  501  0.13390917234E+02 -0.38476925803E+02 -0.86570695642E+02  0.95677979847E+02  0.00000000000E+00 0. -1.
          2    1    1    2  501    0  0.33058537801E+03 -0.29244084925E+03 -0.17322630339E+04  0.17876083355E+04  0.00000000000E+00 0. -1.
<mgrwt>
<rscale>  4 0.49340781E+03</rscale>
<asrwt>0</asrwt>
<pdfrwt beam="1">  1       21 0.26195209E-01 0.49340781E+03</pdfrwt>
<pdfrwt beam="2">  1        2 0.35260904E+00 0.49340781E+03</pdfrwt>
<totfact> 0.81974956E+02</totfact>
</mgrwt>
</event>
<event>
 5    0  0.2947253E-001  0.4500482E+03  0.7546771E-02  0.1027708E+00
         21   -1    0    0  503  502  0.00000000000E+00  0.00000000000E+00  0.97442801204E+02  0.97442801204E+02  0.00000000000E+00 0. -1.
          2   -1    0    0  502    0 -0.00000000000E+00 -0.00000000000E+00 -0.21787514571E+04  0.21787514571E+04  0.00000000000E+00 0.  1.
         25    1    1    2    0    0  0.42959902620E+03  0.48611603527E+02 -0.76486050651E+03  0.88744295914E+03  0.12500000000E+03 0.  0.
         21    1    1    2  503  501 -0.42591601561E+02 -0.13547119559E+02 -0.69274122662E+02  0.82440724418E+02  0.00000000000E+00 0.  1.
          2    1    1    2  501    0 -0.38700742464E+03 -0.35064483968E+02 -0.12471740267E+04  0.13063105747E+04  0.00000000000E+00 0.  1.
<mgrwt>
<rscale>  4 0.45004823E+03</rscale>
<asrwt>0</asrwt>
<pdfrwt beam="1">  1       21 0.14991201E-01 0.45004823E+03</pdfrwt>
<pdfrwt beam="2">  1        2 0.33519252E+00 0.45004823E+03</pdfrwt>
<totfact> 0.27672018E+03</totfact>
</mgrwt>
</event>
<event>
 5    0  0.2947253E-001  0.2456392E+03  0.7546771E-02  0.1116092E+00
         -3   -1    0    0    0  501 -0.00000000000E+00  0.00000000000E+00  0.34389618800E+03  0.34389618800E+03  0.00000000000E+00 0.  1.
         21   -1    0    0  501  502  0.00000000000E+00 -0.00000000000E+00 -0.45499709556E+03  0.45499709556E+03  0.00000000000E+00 0. -1.
         25    1    1    2    0    0  0.19995071788E+03 -0.34435210761E+02 -0.14781396295E+03  0.28042831698E+03  0.12500000000E+03 0.  0.
         21    1    1    2  501  501 -0.23145286288E+03 -0.18447998857E+03  0.19073219754E+02  0.29659245039E+03  0.00000000000E+00 0.  1.
         -3    1    1    2    0  502  0.31502145002E+02  0.21891519933E+03  0.17639835633E+02  0.22187251619E+03  0.00000000000E+00 0.  1.
<mgrwt>
<rscale>  4 0.24563918E+03</rscale>
<asrwt>0</asrwt>
<pdfrwt beam="1">  1       21 0.69999553E-01 0.24563918E+03</pdfrwt>
<pdfrwt beam="2">  1       -3 0.52907106E-01 0.24563918E+03</pdfrwt>
<totfact> 0.32193805E+02</totfact>
</mgrwt>
</event>
<event>
 5    0  0.3904711E-001  0.3020348E+03  0.7546771E-02  0.1084228E+00
          2   -1    0    0  502    0 -0.00000000000E+00  0.00000000000E+00  0.21545594019E+04  0.21545594019E+04  0.00000000000E+00 0.  1.
         21   -1    0    0  503  502  0.00000000000E+00 -0.00000000000E+00 -0.16783655881E+04  0.16783655881E+04  0.00000000000E+00 0.  1.
         25    1    1    2    0    0 -0.26736582511E+03 -0.63697676612E+02 -0.16505860485E+04  0.16779753222E+04  0.12500000000E+03 0.  0.
         21    1    1    2  503  501 -0.12503115904E+02 -0.18302880229E+02  0.26630821229E+02  0.34648578200E+02  0.00000000000E+00 0. -1.
          2    1    1    2  501    0  0.27986894102E+03  0.82000556841E+02  0.21001490411E+04  0.21203010895E+04  0.00000000000E+00 0.  1.
<mgrwt>
<rscale>  4 0.30203484E+03</rscale>
<asrwt>0</asrwt>
<pdfrwt beam="1">  1       21 0.25821009E+00 0.30203484E+03</pdfrwt>
<pdfrwt beam="2">  1        2 0.33147068E+00 0.30203484E+03</pdfrwt>
<totfact> 0.41244234E+00</totfact>
</mgrwt>
</event>
<event>
 5    0  0.2947253E-001  0.2904029E+03  0.7546771E-02  0.1090139E+00
         21   -1    0    0  503  502  0.00000000000E+00  0.00000000000E+00  0.27394563632E+03  0.27394563632E+03  0.00000000000E+00 0. -1.
          2   -1    0    0  502    0 -0.00000000000E+00 -0.00000000000E+00 -0.93823437467E+03  0.93823437467E+03  0.00000000000E+00 0.  1.
         25    1    1    2    0    0 -0.18441388485E+03 -0.21500277023E+03  0.14011945909E+03  0.33984280917E+03  0.12500000000E+03 0.  0.
         21    1    1    2  503  501  0.13706300081E+03  0.28559342634E+02 -0.41553479408E+03  0.43848724877E+03  0.00000000000E+00 0.  1.
          2    1    1    2  501    0  0.47350884041E+02  0.18644342759E+03 -0.38887340336E+03  0.43384995304E+03  0.00000000000E+00 0.  1.
<mgrwt>
<rscale>  4 0.29040291E+03</rscale>
<asrwt>0</asrwt>
<pdfrwt beam="1">  1       21 0.42145482E-01 0.29040291E+03</pdfrwt>
<pdfrwt beam="2">  1        2 0.14434375E+00 0.29040291E+03</pdfrwt>
<totfact> 0.18951092E+03</totfact>
</mgrwt>
</event>
<event>
 5    0  0.2947253E-001  0.2789362E+03  0.7546771E-02  0.1096271E+00
         21   -1    0    0  503  502  0.00000000000E+00  0.00000000000E+00  0.13453484542E+03  0.13453484542E+03  0.00000000000E+00 0.  1.
          2   -1    0    0  502    0 -0.00000000000E+00 -0.00000000000E+00 -0.23963912334E+04  0.23963912334E+04  0.00000000000E+00 0. -1.
         25    1    1    2    0    0 -0.25022145007E+03  0.50234660069E+02 -0.39577398338E+02  0.28692449461E+03  0.12500000000E+03 0.  0.
         21    1    1    2  503  501  0.57655950302E+02 -0.77680173227E+02 -0.40736142463E+03  0.41869051601E+03  0.00000000000E+00 0.  1.
          2    1    1    2  501    0  0.19256549977E+03  0.27445513158E+02 -0.18149175650E+04  0.18253110682E+04  0.00000000000E+00 0. -1.
<mgrwt>
<rscale>  4 0.27893615E+03</rscale>
<asrwt>0</asrwt>
<pdfrwt beam="1">  1       21 0.20697671E-01 0.27893615E+03</pdfrwt>
<pdfrwt beam="2">  1        2 0.36867553E+00 0.27893615E+03</pdfrwt>
<totfact> 0.12254745E+03</totfact>
</mgrwt>
</event>
<event>
 5    0  0.2947253E-001  0.2812522E+03  0.7546771E-02  0.1095007E+00
          2   -1    0    0  502    0 -0.00000000000E+00  0.00000000000E+00  0.56661769535E+03  0.56661769535E+03  0.00000000000E+00 0.  1.
         21   -1    0    0  503  502  0.00000000000E+00 -0.00000000000E+00 -0.16991727440E+03  0.16991727440E+03  0.00000000000E+00 0.  1.
         25    1    1    2    0    0  0.25192762952E+03 -0.32059139165E+01  0.41652612125E+02  0.28431979969E+03  0.12500000000E+03 0.  0.
         21    1    1    2  503  501 -0.92858477503E+02  0.58864496011E+02  0.16421158167E+03  0.19761874731E+03  0.00000000000E+00 0.  1.
          2    1    1    2  501    0 -0.15906915202E+03 -0.55658582095E+02  0.19083622715E+03  0.25459642275E+03  0.00000000000E+00 0.  1.
<mgrwt>
<rscale>  4 0.28125221E+03</rscale>
<asrwt>0</asrwt>
<pdfrwt beam="1">  1       21 0.26141119E-01 0.28125221E+03</pdfrwt>
<pdfrwt beam="2">  1        2 0.87171953E-01 0.28125221E+03</pdfrwt>
<totfact> 0.92283158E+03</totfact>
</mgrwt>
</event>
<event>
 5    0  0.2947253E-001  0.2528281E+03  0.7546771E-02  0.1111530E+00
          2   -1    0    0  502    0 -0.00000000000E+00  0.00000000000E+00  0.69032246088E+03  0.69032246088E+03  0.00000000000E+00 0.  1.
         21   -1    0    0  503  502  0.00000000000E+00 -0.00000000000E+00 -0.17815303642E+03  0.17815303642E+03  0.00000000000E+00 0.  1.
         25    1    1    2    0    0 -0.68099107124E+01  0.21966031536E+03 -0.51360948320E+02  0.25799220151E+03  0.12500000000E+03 0.  0.
         21    1    1    2  503  501  0.78274796653E+01 -0.84996487569E+02  0.12216252630E+03  0.14902803485E+03  0.00000000000E+00 0.  1.
          2    1    1    2  501    0 -0.10175689528E+01 -0.13466382779E+03  0.44136784648E+03  0.46145526095E+03  0.00000000000E+00 0.  1.
<mgrwt>
<rscale>  4 0.25282806E+03</rscale>
<asrwt>0</asrwt>
<pdfrwt beam="1">  1       21 0.27408160E-01 0.25282806E+03</pdfrwt>
<pdfrwt beam="2">  1        2 0.10620345E+00 0.25282806E+03</pdfrwt>
<totfact> 0.67110257E+03</totfact>
</mgrwt>
</event>
<event>
 5    0  0.2947253E-001  0.2717861E+03  0.7546771E-02  0.1100262E+00
          2   -1    0    0  502    0 -0.00000000000E+00  0.00000000000E+00  0.76144743251E+03  0.76144743251E+03  0.00000000000E+00 0. -1.
         21   -1    0    0  503  502  0.00000000000E+00 -0.00000000000E+00 -0.13660802206E+03  0.13660802206E+03  0.00000000000E+00 0.  1.
         25    1    1    2    0    0 -0.25343945285E+03  0.36415236929E+02  0.90500621657E+02  0.29895315396E+03  0.12500000000E+03 0.  0.
         21    1    1    2  503  501  0.17097442747E+02 -0.10578740642E+02  0.81500580965E+01  0.21694601841E+02  0.00000000000E+00 0. -1.
          2    1    1    2  501    0  0.23634201010E+03 -0.25836496287E+02  0.52618873070E+03  0.57740769877E+03  0.00000000000E+00 0. -1.
<mgrwt>
<rscale>  4 0.27178612E+03</rscale>
<asrwt>0</asrwt>
<pdfrwt beam="1">  1       21 0.21016619E-01 0.27178612E+03</pdfrwt>
<pdfrwt beam="2">  1        2 0.11714576E+00 0.27178612E+03</pdfrwt>
<totfact> 0.98457193E+03</totfact>
</mgrwt>
</event>
<event>
 5    0  0.2947253E-001  0.2646367E+03  0.7546771E-02  0.1104389E+00
          2   -1    0    0  502    0 -0.00000000000E+00  0.00000000000E+00  0.76959546982E+03  0.76959546982E+03  0.00000000000E+00 0. -1.
         21   -1    0    0  503  502  0.00000000000E+00 -0.00000000000E+00 -0.12692877396E+03  0.12692877396E+03  0.00000000000E+00 0. -1.
         25    1    1    2    0    0 -0.70413564942E+02 -0.22237246694E+03  0.64748760343E+02  0.27244262909E+03  0.12500000000E+03 0.  0.
         21    1    1    2  503  501  0.17118586523E+02  0.21938810793E+02  0.58228367212E+02  0.64536037775E+02  0.00000000000E+00 0.  1.
          2    1    1    2  501    0  0.53294978419E+02  0.20043365615E+03  0.51968956831E+03  0.55954557692E+03  0.00000000000E+00 0. -1.
<mgrwt>
<rscale>  4 0.26463670E+03</rscale>
<asrwt>0</asrwt>
<pdfrwt beam="1">  1       21 0.19527504E-01 0.26463670E+03</pdfrwt>
<pdfrwt beam="2">  1        2 0.11839930E+00 0.26463670E+03</pdfrwt>
<totfact> 0.11174890E+04</totfact>
</mgrwt>
</event>
<event>
 5    0  0.2947253E-001  0.2403633E+03  0.7546771E-02  0.1119551E+00
         21   -1    0    0  501  502  0.00000000000E+00  0.00000000000E+00  0.14799951177E+03  0.14799951177E+03  0.00000000000E+00 0.  1.
         -2   -1    0    0    0  501 -0.00000000000E+00 -0.00000000000E+00 -0.11997380552E+04  0.11997380552E+04  0.00000000000E+00 0.  1.
         25    1    1    2    0    0 -0.66094937470E+02  0.19761034902E+03  0.27065528377E+02  0.24449117290E+03  0.12500000000E+03 0.  0.
         21    1    1    2  501  501  0.45243744676E+00 -0.33749306468E+02 -0.56495556517E+02  0.65810092637E+02  0.00000000000E+00 0.  1.
         -2    1    1    2    0  502  0.65642500023E+02 -0.16386104255E+03 -0.10223085153E+04  0.10374363014E+04  0.00000000000E+00 0.  1.
<mgrwt>
<rscale>  4 0.24036328E+03</rscale>
<asrwt>0</asrwt>
<pdfrwt beam="1">  1       21 0.22769155E-01 0.24036328E+03</pdfrwt>
<pdfrwt beam="2">  1       -2 0.18457509E+00 0.24036328E+03</pdfrwt>
<totfact> 0.26723769E+02</totfact>
</mgrwt>
</event>
<event>
 5    0  0.2947253E-001  0.3614066E+03  0.7546771E-02  0.1058028E+00
          2   -1    0    0  502    0 -0.00000000000E+00  0.00000000000E+00  0.90931165055E+03  0.90931165055E+03  0.00000000000E+00 0. -1.
         21   -1    0    0  503  502  0.00000000000E+00 -0.00000000000E+00 -0.15766323943E+03  0.15766323943E+03  0.00000000000E+00 0.  1.
         25    1    1    2    0    0  0.32462690151E+03  0.15426706671E+03  0.36236209991E+03  0.52546383749E+03  0.12500000000E+03 0.  0.
         21    1    1    2  503  501 -0.36259688779E+02 -0.55304608390E+01  0.26600086069E+01  0.36775354155E+02  0.00000000000E+00 0. -1.
          2    1    1    2  501    0 -0.28836721273E+03 -0.14873660587E+03  0.38662630261E+03  0.50473569834E+03  0.00000000000E+00 0. -1.
<mgrwt>
<rscale>  4 0.36140657E+03</rscale>
<asrwt>0</asrwt>
<pdfrwt beam="1">  1       21 0.24255884E-01 0.36140657E+03</pdfrwt>
<pdfrwt beam="2">  1        2 0.13989410E+00 0.36140657E+03</pdfrwt>
<totfact> 0.58255133E+03</totfact>
</mgrwt>
</event>
<event>
 5    0  0.2947253E-001  0.3183503E+03  0.7546771E-02  0.1076530E+00
         21   -1    0    0  503  502  0.00000000000E+00  0.00000000000E+00  0.57411276623E+03  0.57411276623E+03  0.00000000000E+00 0. -1.
          2   -1    0    0  502    0 -0.00000000000E+00 -0.00000000000E+00 -0.60878861749E+03  0.60878861749E+03  0.00000000000E+00 0. -1.
         25    1    1    2    0    0  0.74985664691E+02 -0.28186453411E+03  0.48137439160E+03  0.57655595600E+03  0.12500000000E+03 0.  0.
         21    1    1    2  503  501 -0.68834155422E+02  0.47363834597E+02 -0.12592155506E+03  0.15112151339E+03  0.00000000000E+00 0. -1.
          2    1    1    2  501    0 -0.61515092694E+01  0.23450069952E+03 -0.39012868781E+03  0.45522391435E+03  0.00000000000E+00 0. -1.
<mgrwt>
<rscale>  4 0.31809380E+03</rscale>
<asrwt>0</asrwt>
<pdfrwt beam="1">  1       21 0.88325042E-01 0.31835032E+03</pdfrwt>
<pdfrwt beam="2">  1        2 0.93659787E-01 0.31835032E+03</pdfrwt>
<totfact> 0.64424557E+02</totfact>
</mgrwt>
</event>
<event>
 5    0  0.2947253E-001  0.3250493E+03  0.7546771E-02  0.1073349E+00
          1   -1    0    0  502    0 -0.00000000000E+00  0.00000000000E+00  0.16493443379E+04  0.16493443379E+04  0.00000000000E+00 0.  1.
         21   -1    0    0  503  502  0.00000000000E+00 -0.00000000000E+00 -0.22915781130E+03  0.22915781130E+03  0.00000000000E+00 0.  1.
         25    1    1    2    0    0  0.30186109315E+03 -0.33303348864E+01 -0.85236389279E+02  0.33767062760E+03  0.12500000000E+03 0.  0.
         21    1    1    2  503  501 -0.21461711850E+02  0.38036455229E+02  0.14766784400E+03  0.15399080867E+03  0.00000000000E+00 0.  1.
          1    1    1    2  501    0 -0.28039938130E+03 -0.34706120342E+02  0.13577550718E+04  0.13868407129E+04  0.00000000000E+00 0.  1.
<mgrwt>
<rscale>  4 0.32504933E+03</rscale>
<asrwt>0</asrwt>
<pdfrwt beam="1">  1       21 0.35255049E-01 0.32504933E+03</pdfrwt>
<pdfrwt beam="2">  1        1 0.25374527E+00 0.32504933E+03</pdfrwt>
<totfact> 0.46804045E+02</totfact>
</mgrwt>
</event>
<event>
 5    0  0.2947253E-001  0.3078414E+03  0.7546771E-02  0.1081385E+00
          2   -1    0    0  502    0 -0.00000000000E+00  0.00000000000E+00  0.61058485201E+03  0.61058485201E+03  0.00000000000E+00 0.  1.
         21   -1    0    0  503  502  0.00000000000E+00 -0.00000000000E+00 -0.18250773524E+03  0.18250773524E+03  0.00000000000E+00 0. -1.
         25    1    1    2    0    0 -0.30891588733E+02 -0.27961940449E+03  0.40008264770E+02  0.31043028665E+03  0.12500000000E+03 0.  0.
         21    1    1    2  503  501  0.66844014551E+01  0.97369215816E+02  0.18187255868E+03  0.20640511867E+03  0.00000000000E+00 0.  1.
          2    1    1    2  501    0  0.24207187278E+02  0.18225018867E+03  0.20619629332E+03  0.27625718193E+03  0.00000000000E+00 0.  1.
<mgrwt>
<rscale>  4 0.30784136E+03</rscale>
<asrwt>0</asrwt>
<pdfrwt beam="1">  1       21 0.28078113E-01 0.30784136E+03</pdfrwt>
<pdfrwt beam="2">  1        2 0.93936130E-01 0.30784136E+03</pdfrwt>
<totfact> 0.73217052E+03</totfact>
</mgrwt>
</event>
<event>
 5    0  0.2947253E-001  0.2780100E+03  0.7546771E-02  0.1096781E+00
          2   -1    0    0  502    0 -0.00000000000E+00  0.00000000000E+00  0.84562723958E+03  0.84562723958E+03  0.00000000000E+00 0.  1.
         21   -1    0    0  503  502  0.00000000000E+00 -0.00000000000E+00 -0.45386842371E+03  0.45386842371E+03  0.00000000000E+00 0. -1.
         25    1    1    2    0    0  0.12046855436E+03 -0.21714481824E+03 -0.38810880913E+03  0.47740757472E+03  0.12500000000E+03 0.  0.
         21    1    1    2  503  501 -0.69497314290E+02  0.12244776514E+03  0.31649300640E+03  0.34639739460E+03  0.00000000000E+00 0.  1.
          2    1    1    2  501    0 -0.50971240073E+02  0.94697053094E+02  0.46337461859E+03  0.47569069398E+03  0.00000000000E+00 0.  1.
<mgrwt>
<rscale>  4 0.27800997E+03</rscale>
<asrwt>0</asrwt>
<pdfrwt beam="1">  1       21 0.69825912E-01 0.27800997E+03</pdfrwt>
<pdfrwt beam="2">  1        2 0.13009650E+00 0.27800997E+03</pdfrwt>
<totfact> 0.74496216E+02</totfact>
</mgrwt>
</event>
<event>
 5    0  0.2947253E-001  0.2777956E+03  0.7546771E-02  0.1096899E+00
         21   -1    0    0  503  502  0.00000000000E+00  0.00000000000E+00  0.15732273655E+03  0.15732273655E+03  0.00000000000E+00 0. -1.
          2   -1    0    0  502    0 -0.00000000000E+00 -0.00000000000E+00 -0.93723529132E+03  0.93723529132E+03  0.00000000000E+00 0.  1.
         25    1    1    2    0    0  0.21899846398E+03  0.11655506179E+03 -0.27370329304E+01  0.27780910893E+03  0.12500000000E+03 0.  0.
         21    1    1    2  503  501 -0.17394488487E+02 -0.19239059606E+02 -0.57951787596E+02  0.63491096461E+02  0.00000000000E+00 0.  1.
          2    1    1    2  501    0 -0.20160397550E+03 -0.97316002188E+02 -0.71922373425E+03  0.75325782248E+03  0.00000000000E+00 0.  1.
<mgrwt>
<rscale>  4 0.27779563E+03</rscale>
<asrwt>0</asrwt>
<pdfrwt beam="1">  1       21 0.24203497E-01 0.27779563E+03</pdfrwt>
<pdfrwt beam="2">  1        2 0.14419005E+00 0.27779563E+03</pdfrwt>
<totfact> 0.57229547E+03</totfact>
</mgrwt>
</event>
<event>
 5    0  0.2947253E-001  0.3066990E+03  0.7546771E-02  0.1081939E+00
          2   -1    0    0  502    0 -0.00000000000E+00  0.00000000000E+00  0.19678338908E+03  0.19678338908E+03  0.00000000000E+00 0.  1.
         21   -1    0    0  503  502  0.00000000000E+00 -0.00000000000E+00 -0.51194169711E+03  0.51194169711E+03  0.00000000000E+00 0.  1.
         25    1    1    2    0    0  0.28006984616E+03 -0.38242437318E+00 -0.28188850087E+03  0.41656379091E+03  0.12500000000E+03 0.  0.
         21    1    1    2  503  501 -0.40688222698E+02 -0.21014137004E+02  0.12580191579E+02  0.47490911136E+02  0.00000000000E+00 0. -1.
          2    1    1    2  501    0 -0.23938162347E+03  0.21396561377E+02 -0.45849998736E+02  0.24467038414E+03  0.00000000000E+00 0.  1.
<mgrwt>
<rscale>  4 0.30669898E+03</rscale>
<asrwt>0</asrwt>
<pdfrwt beam="1">  1       21 0.78760260E-01 0.30669898E+03</pdfrwt>
<pdfrwt beam="2">  1        2 0.30274368E-01 0.30669898E+03</pdfrwt>
<totfact> 0.29424747E+03</totfact>
</mgrwt>
</event>
<event>
 5    0  0.2947253E-001  0.2549062E+03  0.7546771E-02  0.1110243E+00
         21   -1    0    0  503  502  0.00000000000E+00  0.00000000000E+00  0.65817165717E+03  0.65817165717E+03  0.00000000000E+00 0.  1.
          3   -1    0    0  502    0 -0.00000000000E+00 -0.00000000000E+00 -0.16618351265E+03  0.16618351265E+03  0.00000000000E+00 0. -1.
         25    1    1    2    0    0  0.19264166840E+03 -0.11884950323E+03  0.52186044235E+03  0.58240822291E+03  0.12500000000E+03 0.  0.
         21    1    1    2  503  501 -0.11807486883E+02  0.23139312278E+02  0.18269491994E+02  0.31758760317E+02  0.00000000000E+00 0.  1.
          3    1    1    2  501    0 -0.18083418152E+03  0.95710190955E+02 -0.48141789821E+02  0.21018818660E+03  0.00000000000E+00 0. -1.
<mgrwt>
<rscale>  4 0.25490623E+03</rscale>
<asrwt>0</asrwt>
<pdfrwt beam="1">  1       21 0.10125718E+00 0.25490623E+03</pdfrwt>
<pdfrwt beam="2">  1        3 0.25566695E-01 0.25490623E+03</pdfrwt>
<totfact> 0.55909641E+02</totfact>
</mgrwt>
</event>
<event>
 5    0  0.2947253E-001  0.5317722E+03  0.7546771E-02  0.1006394E+00
         21   -1    0    0  503  502  0.00000000000E+00  0.00000000000E+00  0.16056022215E+04  0.16056022215E+04  0.00000000000E+00 0. -1.
          2   -1    0    0  502    0 -0.00000000000E+00 -0.00000000000E+00 -0.18496648225E+03  0.18496648225E+03  0.00000000000E+00 0. -1.
         25    1    1    2    0    0 -0.47499300165E+03  0.17697282737E+03  0.93262968814E+03  0.10688128313E+04  0.12500000000E+03 0.  0.
         21    1    1    2  503  501  0.69615562176E+02 -0.66970797323E+02  0.16767448755E+03  0.19351007200E+03  0.00000000000E+00 0. -1.
          2    1    1    2  501    0  0.40537743947E+03 -0.11000203004E+03  0.32033156357E+03  0.52824580042E+03  0.00000000000E+00 0. -1.
<mgrwt>
<rscale>  4 0.52933122E+03</rscale>
<asrwt>0</asrwt>
<pdfrwt beam="1">  1       21 0.24701572E+00 0.53177216E+03</pdfrwt>
<pdfrwt beam="2">  1        2 0.28456383E-01 0.53177216E+03</pdfrwt>
<totfact> 0.13124891E+02</totfact>
</mgrwt>
</event>
<event>
 5    0  0.2947253E-001  0.2777331E+03  0.7546771E-02  0.1096934E+00
          2   -1    0    0  502    0 -0.00000000000E+00  0.00000000000E+00  0.10414000368E+04  0.10414000368E+04  0.00000000000E+00 0. -1.
         21   -1    0    0  503  502  0.00000000000E+00 -0.00000000000E+00 -0.11492561298E+03  0.11492561298E+03  0.00000000000E+00 0. -1.
         25    1    1    2    0    0 -0.74092916236E+02  0.25807133277E+03  0.15417515523E+03  0.33389452155E+03  0.12500000000E+03 0.  0.
         21    1    1    2  503  501  0.20406583159E+02 -0.20421629378E+02  0.32133783680E+02  0.43197819809E+02  0.00000000000E+00 0.  1.
          2    1    1    2  501    0  0.53686333077E+02 -0.23764970339E+03  0.74016548488E+03  0.77923330838E+03  0.00000000000E+00 0. -1.
<mgrwt>
<rscale>  4 0.27773308E+03</rscale>
<asrwt>0</asrwt>
<pdfrwt beam="1">  1       21 0.17680864E-01 0.27773308E+03</pdfrwt>
<pdfrwt beam="2">  1        2 0.16021538E+00 0.27773308E+03</pdfrwt>
<totfact> 0.89308735E+03</totfact>
</mgrwt>
</event>
<event>
 5    0  0.2947253E-001  0.3127544E+03  0.7546771E-02  0.1079033E+00
         21   -1    0    0  503  502  0.00000000000E+00  0.00000000000E+00  0.14426850861E+03  0.14426850861E+03  0.00000000000E+00 0.  1.
          2   -1    0    0  502    0 -0.00000000000E+00 -0.00000000000E+00 -0.11805317438E+04  0.11805317438E+04  0.00000000000E+00 0. -1.
         25    1    1    2    0    0  0.27595252102E+03 -0.14763415462E+02 -0.13946004193E+03  0.33382908140E+03  0.12500000000E+03 0.  0.
         21    1    1    2  503  501  0.37513570610E+02 -0.82455033161E+02 -0.14996207894E+03  0.17519910272E+03  0.00000000000E+00 0. -1.
          2    1    1    2  501    0 -0.31346609163E+03  0.97218448624E+02 -0.74684111436E+03  0.81577206832E+03  0.00000000000E+00 0. -1.
<mgrwt>
<rscale>  4 0.31275436E+03</rscale>
<asrwt>0</asrwt>
<pdfrwt beam="1">  1       21 0.22195155E-01 0.31275436E+03</pdfrwt>
<pdfrwt beam="2">  1        2 0.18162027E+00 0.31275436E+03</pdfrwt>
<totfact> 0.47739229E+03</totfact>
</mgrwt>
</event>
<event>
 5    0  0.2947253E-001  0.2393124E+03  0.7546771E-02  0.1120252E+00
         21   -1    0    0  501  502  0.00000000000E+00  0.00000000000E+00  0.40297811573E+03  0.40297811573E+03  0.00000000000E+00 0. -1.
         -1   -1    0    0    0  501 -0.00000000000E+00 -0.00000000000E+00 -0.20636406862E+03  0.20636406862E+03  0.00000000000E+00 0. -1.
         25    1    1    2    0    0  0.20222798667E+03  0.12692219247E+03  0.14752931318E+03  0.30723818086E+03  0.12500000000E+03 0.  0.
         21    1    1    2  501  501 -0.81142560958E+02  0.24714571770E+02  0.65775557443E+02  0.10733754801E+03  0.00000000000E+00 0.  1.
         -1    1    1    2    0  502 -0.12108542571E+03 -0.15163676424E+03 -0.16690823515E+02  0.19476645547E+03  0.00000000000E+00 0. -1.
<mgrwt>
<rscale>  4 0.23931235E+03</rscale>
<asrwt>0</asrwt>
<pdfrwt beam="1">  1       21 0.61996633E-01 0.23931235E+03</pdfrwt>
<pdfrwt beam="2">  1       -1 0.31748318E-01 0.23931235E+03</pdfrwt>
<totfact> 0.20193652E+03</totfact>
</mgrwt>
</event>
<event>
 5    0  0.2947253E-001  0.2334925E+03  0.7546771E-02  0.1124205E+00
         21   -1    0    0  503  502  0.00000000000E+00  0.00000000000E+00  0.51721350175E+03  0.51721350175E+03  0.00000000000E+00 0.  1.
          2   -1    0    0  502    0 -0.00000000000E+00 -0.00000000000E+00 -0.92726466580E+03  0.92726466580E+03  0.00000000000E+00 0. -1.
         25    1    1    2    0    0 -0.18520955185E+03 -0.76168322807E+02  0.47065016620E+03  0.52653658035E+03  0.12500000000E+03 0.  0.
         21    1    1    2  503  501  0.79568991490E+02  0.34787362677E+02 -0.11618700749E+03  0.14505449224E+03  0.00000000000E+00 0.  1.
          2    1    1    2  501    0  0.10564056036E+03  0.41380960129E+02 -0.76451432276E+03  0.77288709497E+03  0.00000000000E+00 0. -1.
<mgrwt>
<rscale>  4 0.23349252E+03</rscale>
<asrwt>0</asrwt>
<pdfrwt beam="1">  1       21 0.79571309E-01 0.23349252E+03</pdfrwt>
<pdfrwt beam="2">  1        2 0.14265610E+00 0.23349252E+03</pdfrwt>
<totfact> 0.50232458E+02</totfact>
</mgrwt>
</event>
<event>
 5    0  0.2947253E-001  0.2772364E+03  0.7546771E-02  0.1097208E+00
         21   -1    0    0  503  502  0.00000000000E+00  0.00000000000E+00  0.85087053594E+03  0.85087053594E+03  0.00000000000E+00 0.  1.
          1   -1    0    0  502    0 -0.00000000000E+00 -0.00000000000E+00 -0.94890394709E+03  0.94890394709E+03  0.00000000000E+00 0. -1.
         25    1    1    2    0    0 -0.21991194992E+03  0.11346258509E+03  0.80851029843E+03  0.85472154916E+03  0.12500000000E+03 0.  0.
         21    1    1    2  503  501  0.67704288337E+02 -0.31184314151E+02 -0.13367277044E+03  0.15305143471E+03  0.00000000000E+00 0.  1.
          1    1    1    2  501    0  0.15220766159E+03 -0.82278270941E+02 -0.77287093914E+03  0.79200149916E+03  0.00000000000E+00 0. -1.
<mgrwt>
<rscale>  4 0.27723640E+03</rscale>
<asrwt>0</asrwt>
<pdfrwt beam="1">  1       21 0.13090316E+00 0.27723640E+03</pdfrwt>
<pdfrwt beam="2">  1        1 0.14598522E+00 0.27723640E+03</pdfrwt>
<totfact> 0.78029422E+01</totfact>
</mgrwt>
</event>
<event>
 5    0  0.2947253E-001  0.2954903E+03  0.7546771E-02  0.1087517E+00
         -4   -1    0    0    0  501 -0.00000000000E+00  0.00000000000E+00  0.36870386827E+03  0.36870386827E+03  0.00000000000E+00 0. -1.
         21   -1    0    0  501  502  0.00000000000E+00 -0.00000000000E+00 -0.11994037872E+04  0.11994037872E+04  0.00000000000E+00 0.  1.
         25    1    1    2    0    0 -0.18036665545E+03 -0.19788228610E+03 -0.11255643700E+04  0.11637051519E+04  0.12500000000E+03 0.  0.
         21    1    1    2  501  501  0.25184688270E+02  0.34274967078E+02  0.15234818761E+02  0.45178995054E+02  0.00000000000E+00 0. -1.
         -4    1    1    2    0  502  0.15518196718E+03  0.16360731902E+03  0.27962963233E+03  0.35922350849E+03  0.00000000000E+00 0. -1.
<mgrwt>
<rscale>  4 0.29549032E+03</rscale>
<asrwt>0</asrwt>
<pdfrwt beam="1">  1       21 0.18452366E+00 0.29549032E+03</pdfrwt>
<pdfrwt beam="2">  1       -4 0.56723673E-01 0.29549032E+03</pdfrwt>
<totfact> 0.20256067E+01</totfact>
</mgrwt>
</event>
<event>
 5    0  0.3376854E-001  0.2756816E+03  0.7546771E-02  0.1098071E+00
         21   -1    0    0  503  502  0.00000000000E+00  0.00000000000E+00  0.10791889670E+03  0.10791889670E+03  0.00000000000E+00 0. -1.
          1   -1    0    0  502    0 -0.00000000000E+00 -0.00000000000E+00 -0.17387944095E+04  0.17387944095E+04  0.00000000000E+00 0. -1.
         25    1    1    2    0    0 -0.19736210425E+03  0.14636776233E+03 -0.97533846036E+02  0.29242635512E+03  0.12500000000E+03 0.  0.
         21    1    1    2  503  501  0.22410590847E+02 -0.16325877577E+02 -0.79561099369E+02  0.84254005208E+02  0.00000000000E+00 0.  1.
          1    1    1    2  501    0  0.17495151341E+03 -0.13004188475E+03 -0.14537805674E+04  0.14700329459E+04  0.00000000000E+00 0. -1.
<mgrwt>
<rscale>  4 0.27568156E+03</rscale>
<asrwt>0</asrwt>
<pdfrwt beam="1">  1       21 0.16602907E-01 0.27568156E+03</pdfrwt>
<pdfrwt beam="2">  1        1 0.26750683E+00 0.27568156E+03</pdfrwt>
<totfact> 0.17797648E+03</totfact>
</mgrwt>
</event>
<event>
 5    0  0.2947253E-001  0.5556646E+03  0.7546771E-02  0.1000666E+00
         21   -1    0    0  503  502  0.00000000000E+00  0.00000000000E+00  0.15691196578E+03  0.15691196578E+03  0.00000000000E+00 0.  1.
          2   -1    0    0  502    0 -0.00000000000E+00 -0.00000000000E+00 -0.27329108291E+04  0.27329108291E+04  0.00000000000E+00 0. -1.
         25    1    1    2    0    0 -0.49991453327E+03  0.18471720402E+03 -0.50221974904E+03  0.74288940116E+03  0.12500000000E+03 0.  0.
         21    1    1    2  503  501  0.97485629737E+02  0.23626688309E+02 -0.45467439964E+03  0.46560764394E+03  0.00000000000E+00 0.  1.
          2    1    1    2  501    0  0.40242890353E+03 -0.20834389233E+03 -0.16191047147E+04  0.16813257498E+04  0.00000000000E+00 0. -1.
<mgrwt>
<rscale>  4 0.55358990E+03</rscale>
<asrwt>0</asrwt>
<pdfrwt beam="1">  1       21 0.24140302E-01 0.55566463E+03</pdfrwt>
<pdfrwt beam="2">  1        2 0.42044783E+00 0.55566463E+03</pdfrwt>
<totfact> 0.53395839E+02</totfact>
</mgrwt>
</event>
<event>
 5    0  0.2947253E-001  0.3235097E+03  0.7546771E-02  0.1074045E+00
          1   -1    0    0  502    0 -0.00000000000E+00  0.00000000000E+00  0.56962038676E+03  0.56962038676E+03  0.00000000000E+00 0. -1.
         21   -1    0    0  503  502  0.00000000000E+00 -0.00000000000E+00 -0.34708509712E+03  0.34708509712E+03  0.00000000000E+00 0. -1.
         25    1    1    2    0    0  0.21860817019E+03  0.20308622157E+03 -0.20466236248E+03  0.38281226218E+03  0.12500000000E+03 0.  0.
         21    1    1    2  503  501 -0.97750566492E+02 -0.32026697708E+02  0.88640773714E+02  0.13578685275E+03  0.00000000000E+00 0.  1.
          1    1    1    2  501    0 -0.12085760370E+03 -0.17105952386E+03  0.33855687840E+03  0.39810636894E+03  0.00000000000E+00 0. -1.
<mgrwt>
<rscale>  4 0.32350973E+03</rscale>
<asrwt>0</asrwt>
<pdfrwt beam="1">  1       21 0.53397707E-01 0.32350973E+03</pdfrwt>
<pdfrwt beam="2">  1        1 0.87633905E-01 0.32350973E+03</pdfrwt>
<totfact> 0.13229714E+03</totfact>
</mgrwt>
</event>
<event>
 5    0  0.3333109E-001  0.4667675E+03  0.7546771E-02  0.1022837E+00
         21   -1    0    0  503  502  0.00000000000E+00  0.00000000000E+00  0.46664822429E+03  0.46664822429E+03  0.00000000000E+00 0. -1.
          2   -1    0    0  502    0 -0.00000000000E+00 -0.00000000000E+00 -0.15555809715E+04  0.15555809715E+04  0.00000000000E+00 0.  1.
         25    1    1    2    0    0 -0.47955669571E+03 -0.41824877852E+02  0.27293248530E+03  0.56731039682E+03  0.12500000000E+03 0.  0.
         21    1    1    2  503  501  0.35512901582E+02 -0.94699965270E+01 -0.22881677001E+02  0.43294551105E+02  0.00000000000E+00 0. -1.
          2    1    1    2  501    0  0.44404379413E+03  0.51294874379E+02 -0.13389835555E+04  0.14116242478E+04  0.00000000000E+00 0.  1.
<mgrwt>
<rscale>  4 0.46676752E+03</rscale>
<asrwt>0</asrwt>
<pdfrwt beam="1">  1       21 0.71792035E-01 0.46676752E+03</pdfrwt>
<pdfrwt beam="2">  1        2 0.23932015E+00 0.46676752E+03</pdfrwt>
<totfact> 0.24975851E+02</totfact>
</mgrwt>
</event>
<event>
 5    0  0.2947253E-001  0.2412162E+03  0.7546771E-02  0.1118985E+00
          1   -1    0    0  502    0 -0.00000000000E+00  0.00000000000E+00  0.10200747278E+04  0.10200747278E+04  0.00000000000E+00 0.  1.
         21   -1    0    0  503  502  0.00000000000E+00 -0.00000000000E+00 -0.25202034785E+03  0.25202034785E+03  0.00000000000E+00 0. -1.
         25    1    1    2    0    0 -0.76386025487E+02 -0.19163876349E+03 -0.17871923655E+03  0.30020960357E+03  0.12500000000E+03 0.  0.
         21    1    1    2  503  501  0.33747600830E+02  0.14691583398E+02  0.18993526202E+03  0.19346872343E+03  0.00000000000E+00 0.  1.
          1    1    1    2  501    0  0.42638424657E+02  0.17694718009E+03  0.75683835450E+03  0.77841674869E+03  0.00000000000E+00 0.  1.
<mgrwt>
<rscale>  4 0.24121617E+03</rscale>
<asrwt>0</asrwt>
<pdfrwt beam="1">  1       21 0.38772362E-01 0.24121617E+03</pdfrwt>
<pdfrwt beam="2">  1        1 0.15693457E+00 0.24121617E+03</pdfrwt>
<totfact> 0.10863411E+03</totfact>
</mgrwt>
</event>
<event>
 5    0  0.2947253E-001  0.2783415E+03  0.7546771E-02  0.1096598E+00
          1   -1    0    0  502    0 -0.00000000000E+00  0.00000000000E+00  0.25873666520E+03  0.25873666520E+03  0.00000000000E+00 0. -1.
         21   -1    0    0  503  502  0.00000000000E+00 -0.00000000000E+00 -0.72879698755E+03  0.72879698755E+03  0.00000000000E+00 0. -1.
         25    1    1    2    0    0  0.64719704950E+02 -0.24548786372E+03 -0.61334644991E+03  0.67547894050E+03  0.12500000000E+03 0.  0.
         21    1    1    2  503  501  0.26557285383E+02  0.41784721040E+02  0.49259936919E+02  0.69841203488E+02  0.00000000000E+00 0. -1.
          1    1    1    2  501    0 -0.91276990334E+02  0.20370314268E+03  0.94026190640E+02  0.24221350876E+03  0.00000000000E+00 0. -1.
<mgrwt>
<rscale>  4 0.27834155E+03</rscale>
<asrwt>0</asrwt>
<pdfrwt beam="1">  1       21 0.11212261E+00 0.27834155E+03</pdfrwt>
<pdfrwt beam="2">  1        1 0.39805642E-01 0.27834155E+03</pdfrwt>
<totfact> 0.68953869E+02</totfact>
</mgrwt>
</event>
<event>
 5    0  0.2947253E-001  0.3128195E+03  0.7546771E-02  0.1079002E+00
         21   -1    0    0  503  502  0.00000000000E+00  0.00000000000E+00  0.14951764500E+03  0.14951764500E+03  0.00000000000E+00 0.  1.
          2   -1    0    0  502    0 -0.00000000000E+00 -0.00000000000E+00 -0.17633897697E+04  0.17633897697E+04  0.00000000000E+00 0.  1.
         25    1    1    2    0    0 -0.35494746630E+02  0.28455431757E+03 -0.43587114397E+02  0.31584153183E+03  0.12500000000E+03 0.  0.
         21    1    1    2  503  501  0.43834534037E+02 -0.25237343226E+03 -0.14400819882E+04  0.14626858680E+04  0.00000000000E+00 0.  1.
          2    1    1    2  501    0 -0.83397874067E+01 -0.32180885304E+02 -0.13020302211E+03  0.13438001488E+03  0.00000000000E+00 0.  1.
<mgrwt>
<rscale>  4 0.31281950E+03</rscale>
<asrwt>0</asrwt>
<pdfrwt beam="1">  1       21 0.23002715E-01 0.31281950E+03</pdfrwt>
<pdfrwt beam="2">  1        2 0.27129073E+00 0.31281950E+03</pdfrwt>
<totfact> 0.21451136E+03</totfact>
</mgrwt>
</event>
<event>
 5    0  0.2947253E-001  0.2579603E+03  0.7546771E-02  0.1108375E+00
          3   -1    0    0  502    0 -0.00000000000E+00  0.00000000000E+00  0.17383012095E+03  0.17383012095E+03  0.00000000000E+00 0.  1.
         21   -1    0    0  503  502  0.00000000000E+00 -0.00000000000E+00 -0.16401706766E+04  0.16401706766E+04  0.00000000000E+00 0. -1.
         25    1    1    2    0    0  0.22263905866E+03 -0.42349121408E+02 -0.15414147174E+04  0.15629926198E+04  0.12500000000E+03 0.  0.
         21    1    1    2  503  501 -0.18279962252E+02 -0.17978069120E+02  0.18732622440E+01  0.25707530038E+02  0.00000000000E+00 0.  1.
          3    1    1    2  501    0 -0.20435909641E+03  0.60327190528E+02  0.73200899455E+02  0.22530064777E+03  0.00000000000E+00 0.  1.
<mgrwt>
<rscale>  4 0.25796029E+03</rscale>
<asrwt>0</asrwt>
<pdfrwt beam="1">  1       21 0.25233395E+00 0.25796029E+03</pdfrwt>
<pdfrwt beam="2">  1        3 0.26743095E-01 0.25796029E+03</pdfrwt>
<totfact> 0.40318820E+01</totfact>
</mgrwt>
</event>
<event>
 5    0  0.2947253E-001  0.2399730E+03  0.7546771E-02  0.1119811E+00
          1   -1    0    0  502    0 -0.00000000000E+00  0.00000000000E+00  0.21885960173E+04  0.21885960173E+04  0.00000000000E+00 0.  1.
         21   -1    0    0  503  502  0.00000000000E+00 -0.00000000000E+00 -0.60629228468E+02  0.60629228468E+02  0.00000000000E+00 0.  1.
         25    1    1    2    0    0 -0.11563799687E+03  0.16908539763E+03  0.20628675298E+03  0.31645101117E+03  0.12500000000E+03 0.  0.
         21    1    1    2  503  501  0.63834582727E+01 -0.25712060687E+02  0.25933611478E+03  0.26068578602E+03  0.00000000000E+00 0.  1.
          1    1    1    2  501    0  0.10925453860E+03 -0.14337333695E+03  0.16623439211E+04  0.16720884486E+04  0.00000000000E+00 0.  1.
<mgrwt>
<rscale>  4 0.23997295E+03</rscale>
<asrwt>0</asrwt>
<pdfrwt beam="1">  1       21 0.93275753E-02 0.23997295E+03</pdfrwt>
<pdfrwt beam="2">  1        1 0.33670702E+00 0.23997295E+03</pdfrwt>
<totfact> 0.26145847E+03</totfact>
</mgrwt>
</event>
<event>
 5    0  0.2947253E-001  0.2497100E+03  0.7546771E-02  0.1113488E+00
          1   -1    0    0  502    0 -0.00000000000E+00  0.00000000000E+00  0.19669087589E+04  0.19669087589E+04  0.00000000000E+00 0. -1.
         21   -1    0    0  503  502  0.00000000000E+00 -0.00000000000E+00 -0.38521528187E+02  0.38521528187E+02  0.00000000000E+00 0. -1.
         25    1    1    2    0    0  0.10567728402E+03  0.18857993290E+03  0.49048589920E+03  0.55039213000E+03  0.12500000000E+03 0.  0.
         21    1    1    2  503  501 -0.75123594702E+02 -0.79851842327E+02  0.68859443301E+03  0.69726764185E+03  0.00000000000E+00 0. -1.
          1    1    1    2  501    0 -0.30553689317E+02 -0.10872809058E+03  0.74930689847E+03  0.75777051520E+03  0.00000000000E+00 0. -1.
<mgrwt>
<rscale>  4 0.24970999E+03</rscale>
<asrwt>0</asrwt>
<pdfrwt beam="1">  1       21 0.59263905E-02 0.24970999E+03</pdfrwt>
<pdfrwt beam="2">  1        1 0.30260127E+00 0.24970999E+03</pdfrwt>
<totfact> 0.79973794E+03</totfact>
</mgrwt>
</event>
<event>
 5    0  0.2947253E-001  0.2505474E+03  0.7546771E-02  0.1112959E+00
         21   -1    0    0  501  502  0.00000000000E+00  0.00000000000E+00  0.21899658291E+04  0.21899658291E+04  0.00000000000E+00 0.  1.
         -2   -1    0    0    0  501 -0.00000000000E+00 -0.00000000000E+00 -0.24881593109E+03  0.24881593109E+03  0.00000000000E+00 0.  1.
         25    1    1    2    0    0  0.79686013160E+02 -0.21097493642E+03  0.20782666686E+04  0.20942009527E+04  0.12500000000E+03 0.  0.
         21    1    1    2  501  501 -0.13073642887E+03  0.88692488367E+02 -0.58960831842E+01  0.15809217287E+03  0.00000000000E+00 0.  1.
         -2    1    1    2    0  502  0.51050415714E+02  0.12228244805E+03 -0.13122068739E+03  0.18648863463E+03  0.00000000000E+00 0.  1.
<mgrwt>
<rscale>  4 0.25054742E+03</rscale>
<asrwt>0</asrwt>
<pdfrwt beam="1">  1       21 0.33691781E+00 0.25054742E+03</pdfrwt>
<pdfrwt beam="2">  1       -2 0.38279375E-01 0.25054742E+03</pdfrwt>
<totfact> 0.10166519E+01</totfact>
</mgrwt>
</event>
<event>
 5    0  0.2947253E-001  0.3750360E+03  0.7546771E-02  0.1052784E+00
          2   -1    0    0  502    0 -0.00000000000E+00  0.00000000000E+00  0.12301507958E+04  0.12301507958E+04  0.00000000000E+00 0.  1.
         21   -1    0    0  503  502  0.00000000000E+00 -0.00000000000E+00 -0.23921919967E+03  0.23921919967E+03  0.00000000000E+00 0.  1.
         25    1    1    2    0    0 -0.26756389564E+03  0.23116348212E+03 -0.38297233153E+02  0.37698630185E+03  0.12500000000E+03 0.  0.
         21    1    1    2  503  501  0.20403399447E+03 -0.20390079082E+03  0.72234832711E+03  0.77781264394E+03  0.00000000000E+00 0.  1.
          2    1    1    2  501    0  0.63529901170E+02 -0.27262691304E+02  0.30688050218E+03  0.31457104968E+03  0.00000000000E+00 0.  1.
<mgrwt>
<rscale>  4 0.37503599E+03</rscale>
<asrwt>0</asrwt>
<pdfrwt beam="1">  1       21 0.36802954E-01 0.37503599E+03</pdfrwt>
<pdfrwt beam="2">  1        2 0.18925397E+00 0.37503599E+03</pdfrwt>
<totfact> 0.16261653E+03</totfact>
</mgrwt>
</event>
<event>
 5    0  0.2947253E-001  0.2339744E+03  0.7546771E-02  0.1123873E+00
          2   -1    0    0  502    0 -0.00000000000E+00  0.00000000000E+00  0.12394429396E+04  0.12394429396E+04  0.00000000000E+00 0. -1.
         21   -1    0    0  503  502  0.00000000000E+00 -0.00000000000E+00 -0.50568678883E+02  0.50568678883E+02  0.00000000000E+00 0. -1.
         25    1    1    2    0    0 -0.10297828689E+03  0.17858928592E+03  0.50981148828E+03  0.56394274018E+03  0.12500000000E+03 0.  0.
         21    1    1    2  503  501  0.61648480125E+02  0.11260410234E+02  0.17093157262E+03  0.18205750317E+03  0.00000000000E+00 0.  1.
          2    1    1    2  501    0  0.41329806763E+02 -0.18984969616E+03  0.50813119985E+03  0.54401137517E+03  0.00000000000E+00 0. -1.
<mgrwt>
<rscale>  4 0.23397435E+03</rscale>
<asrwt>0</asrwt>
<pdfrwt beam="1">  1       21 0.77797977E-02 0.23397435E+03</pdfrwt>
<pdfrwt beam="2">  1        2 0.19068351E+00 0.23397435E+03</pdfrwt>
<totfact> 0.30323525E+04</totfact>
</mgrwt>
</event>
<event>
 5    0  0.2947253E-001  0.3280155E+03  0.7546771E-02  0.1072018E+00
          1   -1    0    0  502    0 -0.00000000000E+00  0.00000000000E+00  0.17450001506E+04  0.17450001506E+04  0.00000000000E+00 0. -1.
         21   -1    0    0  503  502  0.00000000000E+00 -0.00000000000E+00 -0.90917256569E+02  0.90917256569E+02  0.00000000000E+00 0. -1.
         25    1    1    2    0    0 -0.28688361586E+03  0.18437677571E+03  0.45026902171E+03  0.57850168226E+03  0.12500000000E+03 0.  0.
         21    1    1    2  503  501  0.46437351450E+02 -0.17963564856E+02  0.66280710746E+02  0.82899034307E+02  0.00000000000E+00 0.  1.
          1    1    1    2  501    0  0.24044626441E+03 -0.16641321086E+03  0.11375331616E+04  0.11745166906E+04  0.00000000000E+00 0. -1.
<mgrwt>
<rscale>  4 0.32801553E+03</rscale>
<asrwt>0</asrwt>
<pdfrwt beam="1">  1       21 0.13987272E-01 0.32801553E+03</pdfrwt>
<pdfrwt beam="2">  1        1 0.26846154E+00 0.32801553E+03</pdfrwt>
<totfact> 0.23727702E+03</totfact>
</mgrwt>
</event>
<event>
 5    0  0.2947253E-001  0.2740993E+03  0.7546771E-02  0.1098956E+00
         21   -1    0    0  503  502  0.00000000000E+00  0.00000000000E+00  0.12244919694E+04  0.12244919694E+04  0.00000000000E+00 0.  1.
          1   -1    0    0  502    0 -0.00000000000E+00 -0.00000000000E+00 -0.35255015427E+03  0.35255015427E+03  0.00000000000E+00 0.  1.
         25    1    1    2    0    0 -0.13310218328E+03 -0.20442420143E+03  0.11630842932E+04  0.11949458224E+04  0.12500000000E+03 0.  0.
         21    1    1    2  503  501  0.20509004686E+02  0.53319128265E+02 -0.48957498955E+02  0.75235532935E+02  0.00000000000E+00 0.  1.
          1    1    1    2  501    0  0.11259317860E+03  0.15110507317E+03 -0.24218497916E+03  0.30686076832E+03  0.00000000000E+00 0.  1.
<mgrwt>
<rscale>  4 0.27409933E+03</rscale>
<asrwt>0</asrwt>
<pdfrwt beam="1">  1       21 0.18838338E+00 0.27409933E+03</pdfrwt>
<pdfrwt beam="2">  1        1 0.54238486E-01 0.27409933E+03</pdfrwt>
<totfact> 0.11752948E+02</totfact>
</mgrwt>
</event>
<event>
 5    0  0.2947253E-001  0.2377432E+03  0.7546771E-02  0.1121305E+00
          1   -1    0    0  502    0 -0.00000000000E+00  0.00000000000E+00  0.60740268783E+03  0.60740268783E+03  0.00000000000E+00 0.  1.
         21   -1    0    0  503  502  0.00000000000E+00 -0.00000000000E+00 -0.35577006297E+03  0.35577006297E+03  0.00000000000E+00 0. -1.
         25    1    1    2    0    0  0.20070637168E+03  0.30914126031E+02 -0.28080354842E+03  0.36839430455E+03  0.12500000000E+03 0.  0.
         21    1    1    2  503  501  0.14118314514E+01 -0.23471507116E+02 -0.17559162868E+01  0.23579401102E+02  0.00000000000E+00 0.  1.
          1    1    1    2  501    0 -0.20211820313E+03 -0.74426189146E+01  0.53419208957E+03  0.57119904515E+03  0.00000000000E+00 0.  1.
<mgrwt>
<rscale>  4 0.23774321E+03</rscale>
<asrwt>0</asrwt>
<pdfrwt beam="1">  1       21 0.54733856E-01 0.23774321E+03</pdfrwt>
<pdfrwt beam="2">  1        1 0.93446567E-01 0.23774321E+03</pdfrwt>
<totfact> 0.11837942E+03</totfact>
</mgrwt>
</event>
<event>
 5    0  0.2947253E-001  0.2393627E+03  0.7546771E-02  0.1120218E+00
         21   -1    0    0  503  502  0.00000000000E+00  0.00000000000E+00  0.11684193689E+03  0.11684193689E+03  0.00000000000E+00 0.  1.
          2   -1    0    0  502    0 -0.00000000000E+00 -0.00000000000E+00 -0.20198640310E+04  0.20198640310E+04  0.00000000000E+00 0.  1.
         25    1    1    2    0    0 -0.20292775798E+03  0.13120912025E+02 -0.21215580873E+02  0.23963917493E+03  0.12500000000E+03 0.  0.
         21    1    1    2  503  501 -0.89642672878E+01  0.20916787740E+02 -0.28433451735E+03  0.28524373412E+03  0.00000000000E+00 0.  1.
          2    1    1    2  501    0  0.21189202526E+03 -0.34037699765E+02 -0.15974719959E+04  0.16118230588E+04  0.00000000000E+00 0.  1.
<mgrwt>
<rscale>  4 0.23936271E+03</rscale>
<asrwt>0</asrwt>
<pdfrwt beam="1">  1       21 0.17975685E-01 0.23936271E+03</pdfrwt>
<pdfrwt beam="2">  1        2 0.31074828E+00 0.23936271E+03</pdfrwt>
<totfact> 0.25821012E+03</totfact>
</mgrwt>
</event>
<event>
 5    0  0.2947253E-001  0.2591378E+03  0.7546771E-02  0.1107662E+00
          2   -1    0    0  502    0 -0.00000000000E+00  0.00000000000E+00  0.82868648220E+03  0.82868648220E+03  0.00000000000E+00 0. -1.
         21   -1    0    0  503  502  0.00000000000E+00 -0.00000000000E+00 -0.68748685433E+03  0.68748685433E+03  0.00000000000E+00 0. -1.
         25    1    1    2    0    0  0.56571778237E+02 -0.22133854693E+03 -0.64325718711E+03  0.69397112852E+03  0.12500000000E+03 0.  0.
         21    1    1    2  503  501 -0.46847269696E+01  0.43976263420E+02  0.59938902321E+02  0.74488458318E+02  0.00000000000E+00 0.  1.
          2    1    1    2  501    0 -0.51887051268E+02  0.17736228351E+03  0.72451791266E+03  0.74771374969E+03  0.00000000000E+00 0. -1.
<mgrwt>
<rscale>  4 0.25913776E+03</rscale>
<asrwt>0</asrwt>
<pdfrwt beam="1">  1       21 0.10576721E+00 0.25913776E+03</pdfrwt>
<pdfrwt beam="2">  1        2 0.12749023E+00 0.25913776E+03</pdfrwt>
<totfact> 0.29490288E+02</totfact>
</mgrwt>
</event>
<event>
 5    0  0.2947253E-001  0.2557990E+03  0.7546771E-02  0.1109694E+00
         21   -1    0    0  503  502  0.00000000000E+00  0.00000000000E+00  0.58780522851E+03  0.58780522851E+03  0.00000000000E+00 0.  1.
          3   -1    0    0  502    0 -0.00000000000E+00 -0.00000000000E+00 -0.17309677148E+03  0.17309677148E+03  0.00000000000E+00 0.  1.
         25    1    1    2    0    0  0.21516873452E+02  0.22213773099E+03  0.46284273169E+03  0.52882562500E+03  0.12500000000E+03 0.  0.
         21    1    1    2  503  501  0.49473848800E+01 -0.28171102595E+02  0.54384740531E+01  0.29114680809E+02  0.00000000000E+00 0.  1.
          3    1    1    2  501    0 -0.26464258332E+02 -0.19396662840E+03 -0.53572748714E+02  0.20296169418E+03  0.00000000000E+00 0.  1.
<mgrwt>
<rscale>  4 0.25579904E+03</rscale>
<asrwt>0</asrwt>
<pdfrwt beam="1">  1       21 0.90431573E-01 0.25579904E+03</pdfrwt>
<pdfrwt beam="2">  1        3 0.26630273E-01 0.25579904E+03</pdfrwt>
<totfact> 0.67765876E+02</totfact>
</mgrwt>
</event>
<event>
 5    0  0.2947253E-001  0.2598173E+03  0.7546771E-02  0.1107253E+00
          2   -1    0    0  502    0 -0.00000000000E+00  0.00000000000E+00  0.16204494261E+04  0.16204494261E+04  0.00000000000E+00 0.  1.
         21   -1    0    0  503  502  0.00000000000E+00 -0.00000000000E+00 -0.54284096615E+02  0.54284096615E+02  0.00000000000E+00 0. -1.
         25    1    1    2    0    0 -0.22083110514E+03  0.55800207950E+02  0.34556511165E+03  0.43234278830E+03  0.12500000000E+03 0.  0.
         21    1    1    2  503  501  0.57889014158E+02 -0.28029878971E+02  0.27230651353E+03  0.27979930197E+03  0.00000000000E+00 0.  1.
          2    1    1    2  501    0  0.16294209098E+03 -0.27770328980E+02  0.94829370432E+03  0.96259143246E+03  0.00000000000E+00 0.  1.
<mgrwt>
<rscale>  4 0.25981732E+03</rscale>
<asrwt>0</asrwt>
<pdfrwt beam="1">  1       21 0.83514007E-02 0.25981732E+03</pdfrwt>
<pdfrwt beam="2">  1        2 0.24929987E+00 0.25981732E+03</pdfrwt>
<totfact> 0.16561073E+04</totfact>
</mgrwt>
</event>
<event>
 5    0  0.2947253E-001  0.2560085E+03  0.7546771E-02  0.1109565E+00
         21   -1    0    0  501  502  0.00000000000E+00  0.00000000000E+00  0.61154740021E+02  0.61154740021E+02  0.00000000000E+00 0. -1.
         -1   -1    0    0    0  501 -0.00000000000E+00 -0.00000000000E+00 -0.10502922454E+04  0.10502922454E+04  0.00000000000E+00 0.  1.
         25    1    1    2    0    0 -0.21205410076E+03  0.70344846315E+02 -0.38529059083E+03  0.46258964368E+03  0.12500000000E+03 0.  0.
         21    1    1    2  501  501  0.85116416198E+02 -0.40159170454E+02 -0.15410615712E+03  0.18057206578E+03  0.00000000000E+00 0. -1.
         -1    1    1    2    0  502  0.12693768457E+03 -0.30185675861E+02 -0.44974075738E+03  0.46828527592E+03  0.00000000000E+00 0.  1.
<mgrwt>
<rscale>  4 0.25600847E+03</rscale>
<asrwt>0</asrwt>
<pdfrwt beam="1">  1       21 0.94084228E-02 0.25600847E+03</pdfrwt>
<pdfrwt beam="2">  1       -1 0.16158340E+00 0.25600847E+03</pdfrwt>
<totfact> 0.26109841E+03</totfact>
</mgrwt>
</event>
<event>
 5    0  0.2947253E-001  0.4717620E+03  0.7546771E-02  0.1021424E+00
          2   -1    0    0  502    0 -0.00000000000E+00  0.00000000000E+00  0.11692467549E+04  0.11692467549E+04  0.00000000000E+00 0.  1.
         21   -1    0    0  503  502  0.00000000000E+00 -0.00000000000E+00 -0.72162407681E+03  0.72162407681E+03  0.00000000000E+00 0.  1.
         25    1    1    2    0    0  0.45616672160E+03  0.33452817373E+01 -0.57293707986E+03  0.74295435007E+03  0.12500000000E+03 0.  0.
         21    1    1    2  503  501 -0.13672404856E+02  0.39049191685E+02  0.28859558534E+03  0.29154619858E+03  0.00000000000E+00 0. -1.
          2    1    1    2  501    0 -0.44249431675E+03 -0.42394473423E+02  0.73196417260E+03  0.85637028306E+03  0.00000000000E+00 0.  1.
<mgrwt>
<rscale>  4 0.47176205E+03</rscale>
<asrwt>0</asrwt>
<pdfrwt beam="1">  1       21 0.11101909E+00 0.47176205E+03</pdfrwt>
<pdfrwt beam="2">  1        2 0.17988412E+00 0.47176205E+03</pdfrwt>
<totfact> 0.14615747E+02</totfact>
</mgrwt>
</event>
<event>
 5    0  0.2947253E-001  0.2549256E+03  0.7546771E-02  0.1110231E+00
         21   -1    0    0  503  502  0.00000000000E+00  0.00000000000E+00  0.13630955972E+03  0.13630955972E+03  0.00000000000E+00 0. -1.
          2   -1    0    0  502    0 -0.00000000000E+00 -0.00000000000E+00 -0.11880277846E+04  0.11880277846E+04  0.00000000000E+00 0. -1.
         25    1    1    2    0    0 -0.18105041120E+03 -0.12877419064E+03 -0.70044300061E+01  0.25502177478E+03  0.12500000000E+03 0.  0.
         21    1    1    2  503  501  0.15947188511E+03  0.10865269698E+03 -0.80562279845E+03  0.82841099949E+03  0.00000000000E+00 0. -1.
          2    1    1    2  501    0  0.21578526091E+02  0.20121493656E+02 -0.23909099647E+03  0.24090457008E+03  0.00000000000E+00 0. -1.
<mgrwt>
<rscale>  4 0.25492556E+03</rscale>
<asrwt>0</asrwt>
<pdfrwt beam="1">  1       21 0.20970702E-01 0.25492556E+03</pdfrwt>
<pdfrwt beam="2">  1        2 0.18277350E+00 0.25492556E+03</pdfrwt>
<totfact> 0.53547654E+03</totfact>
</mgrwt>
</event>
<event>
 5    0  0.2947253E-001  0.3063675E+03  0.7546771E-02  0.1082100E+00
         21   -1    0    0  503  502  0.00000000000E+00  0.00000000000E+00  0.18302936549E+03  0.18302936549E+03  0.00000000000E+00 0. -1.
          2   -1    0    0  502    0 -0.00000000000E+00 -0.00000000000E+00 -0.18138029446E+04  0.18138029446E+04  0.00000000000E+00 0.  1.
         25    1    1    2    0    0 -0.90997560183E+02  0.26449099754E+03  0.33242808694E+02  0.30816574772E+03  0.12500000000E+03 0.  0.
         21    1    1    2  503  501  0.29263747382E+02 -0.68760796493E+02 -0.29328411519E+03  0.30265489632E+03  0.00000000000E+00 0. -1.
          2    1    1    2  501    0  0.61733812800E+02 -0.19573020105E+03 -0.13707322726E+04  0.13860116661E+04  0.00000000000E+00 0.  1.
<mgrwt>
<rscale>  4 0.30636750E+03</rscale>
<asrwt>0</asrwt>
<pdfrwt beam="1">  1       21 0.28158364E-01 0.30636750E+03</pdfrwt>
<pdfrwt beam="2">  1        2 0.27904660E+00 0.30636750E+03</pdfrwt>
<totfact> 0.13677264E+03</totfact>
</mgrwt>
</event>
<event>
 5    0  0.2947253E-001  0.2461098E+03  0.7546771E-02  0.1115788E+00
          2   -1    0    0  502    0 -0.00000000000E+00  0.00000000000E+00  0.16828927426E+04  0.16828927426E+04  0.00000000000E+00 0.  1.
         21   -1    0    0  503  502  0.00000000000E+00 -0.00000000000E+00 -0.18504901904E+03  0.18504901904E+03  0.00000000000E+00 0. -1.
         25    1    1    2    0    0 -0.10584220452E+03  0.18099475959E+03 -0.80851271225E+02  0.25714510168E+03  0.12500000000E+03 0.  0.
         21    1    1    2  503  501  0.33470579515E+02  0.54872027051E+02  0.50762852025E+03  0.51168147672E+03  0.00000000000E+00 0. -1.
          2    1    1    2  501    0  0.72371625003E+02 -0.23586678664E+03  0.10710664745E+04  0.10991151832E+04  0.00000000000E+00 0.  1.
<mgrwt>
<rscale>  4 0.24610976E+03</rscale>
<asrwt>0</asrwt>
<pdfrwt beam="1">  1       21 0.28469081E-01 0.24610976E+03</pdfrwt>
<pdfrwt beam="2">  1        2 0.25890657E+00 0.24610976E+03</pdfrwt>
<totfact> 0.16119784E+03</totfact>
</mgrwt>
</event>
<event>
 5    0  0.2947253E-001  0.3077573E+03  0.7546771E-02  0.1081426E+00
          2   -1    0    0  502    0 -0.00000000000E+00  0.00000000000E+00  0.39019554880E+04  0.39019554880E+04  0.00000000000E+00 0. -1.
         21   -1    0    0  503  502  0.00000000000E+00 -0.00000000000E+00 -0.14092515632E+03  0.14092515632E+03  0.00000000000E+00 0. -1.
         25    1    1    2    0    0 -0.71290328048E+02  0.27500115785E+03  0.45866178428E+02  0.31374616175E+03  0.12500000000E+03 0.  0.
         21    1    1    2  503  501  0.68651748383E+02 -0.36237705814E+02  0.63464932995E+03  0.63937939119E+03  0.00000000000E+00 0. -1.
          2    1    1    2  501    0  0.26385796649E+01 -0.23876345203E+03  0.30805148233E+04  0.30897550914E+04  0.00000000000E+00 0. -1.
<mgrwt>
<rscale>  4 0.30775726E+03</rscale>
<asrwt>0</asrwt>
<pdfrwt beam="1">  1       21 0.21680796E-01 0.30775726E+03</pdfrwt>
<pdfrwt beam="2">  1        2 0.60030076E+00 0.30775726E+03</pdfrwt>
<totfact> 0.12749033E+02</totfact>
</mgrwt>
</event>
<event>
 5    0  0.2947253E-001  0.2958538E+03  0.7546771E-02  0.1087332E+00
          2   -1    0    0  502    0 -0.00000000000E+00  0.00000000000E+00  0.79645063944E+03  0.79645063944E+03  0.00000000000E+00 0.  1.
         21   -1    0    0  503  502  0.00000000000E+00 -0.00000000000E+00 -0.18010031531E+03  0.18010031531E+03  0.00000000000E+00 0. -1.
         25    1    1    2    0    0 -0.38321923890E+02 -0.27473621082E+03  0.17098089590E+02  0.30473906880E+03  0.12500000000E+03 0.  0.
         21    1    1    2  503  501  0.45632106369E+02  0.35917018382E+02  0.68798747664E+02  0.90031044763E+02  0.00000000000E+00 0.  1.
          2    1    1    2  501    0 -0.73101824787E+01  0.23881919243E+03  0.53045348687E+03  0.58178084119E+03  0.00000000000E+00 0.  1.
<mgrwt>
<rscale>  4 0.29585376E+03</rscale>
<asrwt>0</asrwt>
<pdfrwt beam="1">  1       21 0.27707741E-01 0.29585376E+03</pdfrwt>
<pdfrwt beam="2">  1        2 0.12253087E+00 0.29585376E+03</pdfrwt>
<totfact> 0.54402679E+03</totfact>
</mgrwt>
</event>
<event>
 5    0  0.2947253E-001  0.2530703E+03  0.7546771E-02  0.1111380E+00
          1   -1    0    0  502    0 -0.00000000000E+00  0.00000000000E+00  0.26217728494E+04  0.26217728494E+04  0.00000000000E+00 0.  1.
         21   -1    0    0  503  502  0.00000000000E+00 -0.00000000000E+00 -0.35990444151E+02  0.35990444151E+02  0.00000000000E+00 0. -1.
         25    1    1    2    0    0 -0.21940548079E+03  0.16757654811E+02  0.51988350392E+03  0.57820709235E+03  0.12500000000E+03 0.  0.
         21    1    1    2  503  501  0.54119416348E+02 -0.23030821762E+02  0.28580489631E+03  0.29179405191E+03  0.00000000000E+00 0.  1.
          1    1    1    2  501    0  0.16528606444E+03  0.62731669510E+01  0.17800940050E+04  0.17877621493E+04  0.00000000000E+00 0.  1.
<mgrwt>
<rscale>  4 0.25307031E+03</rscale>
<asrwt>0</asrwt>
<pdfrwt beam="1">  1       21 0.55369935E-02 0.25307031E+03</pdfrwt>
<pdfrwt beam="2">  1        1 0.40334952E+00 0.25307031E+03</pdfrwt>
<totfact> 0.33357331E+03</totfact>
</mgrwt>
</event>
<event>
 5    0  0.2947253E-001  0.2398004E+03  0.7546771E-02  0.1119926E+00
          1   -1    0    0  502    0 -0.00000000000E+00  0.00000000000E+00  0.32121402614E+04  0.32121402614E+04  0.00000000000E+00 0. -1.
         21   -1    0    0  503  502  0.00000000000E+00 -0.00000000000E+00 -0.98379159325E+02  0.98379159325E+02  0.00000000000E+00 0.  1.
         25    1    1    2    0    0 -0.62951510869E+02 -0.19567167625E+03  0.62160688329E+02  0.24847383923E+03  0.12500000000E+03 0.  0.
         21    1    1    2  503  501  0.24825988127E+02  0.11210052405E+02  0.80567616958E+02  0.85047844557E+02  0.00000000000E+00 0. -1.
          1    1    1    2  501    0  0.38125522742E+02  0.18446162384E+03  0.29710327968E+04  0.29769977370E+04  0.00000000000E+00 0. -1.
<mgrwt>
<rscale>  4 0.23980044E+03</rscale>
<asrwt>0</asrwt>
<pdfrwt beam="1">  1       21 0.15135258E-01 0.23980044E+03</pdfrwt>
<pdfrwt beam="2">  1        1 0.49417534E+00 0.23980044E+03</pdfrwt>
<totfact> 0.22150365E+02</totfact>
</mgrwt>
</event>
<event>
 5    0  0.2947253E-001  0.2673381E+03  0.7546771E-02  0.1102813E+00
          1   -1    0    0  502    0 -0.00000000000E+00  0.00000000000E+00  0.73139957411E+03  0.73139957411E+03  0.00000000000E+00 0.  1.
         21   -1    0    0  503  502  0.00000000000E+00 -0.00000000000E+00 -0.93824062738E+02  0.93824062738E+02  0.00000000000E+00 0.  1.
         25    1    1    2    0    0  0.13484432275E+03  0.19406616715E+03  0.41350241385E+03  0.49239609551E+03  0.12500000000E+03 0.  0.
         21    1    1    2  503  501 -0.11768734606E+03 -0.11589240788E+03  0.13734683208E+03  0.21481506910E+03  0.00000000000E+00 0.  1.
          1    1    1    2  501    0 -0.17156976686E+02 -0.78173759274E+02  0.86726265437E+02  0.11801247224E+03  0.00000000000E+00 0.  1.
<mgrwt>
<rscale>  4 0.26733812E+03</rscale>
<asrwt>0</asrwt>
<pdfrwt beam="1">  1       21 0.14434472E-01 0.26733812E+03</pdfrwt>
<pdfrwt beam="2">  1        1 0.11252301E+00 0.26733812E+03</pdfrwt>
<totfact> 0.12192163E+04</totfact>
</mgrwt>
</event>
<event>
 5    0  0.3698383E-001  0.2812304E+03  0.7546771E-02  0.1095019E+00
         21   -1    0    0  503  502  0.00000000000E+00  0.00000000000E+00  0.88199520895E+03  0.88199520895E+03  0.00000000000E+00 0.  1.
          2   -1    0    0  502    0 -0.00000000000E+00 -0.00000000000E+00 -0.70608595594E+03  0.70608595594E+03  0.00000000000E+00 0.  1.
         25    1    1    2    0    0 -0.90233740635E+02  0.23504613867E+03  0.82503407689E+03  0.87160486648E+03  0.12500000000E+03 0.  0.
         21    1    1    2  503  501  0.22104179291E+02  0.13254823377E+02 -0.10373220830E+02  0.27782886734E+02  0.00000000000E+00 0. -1.
          2    1    1    2  501    0  0.68129561344E+02 -0.24830096204E+03 -0.63875160305E+03  0.68869341167E+03  0.00000000000E+00 0.  1.
<mgrwt>
<rscale>  4 0.28123045E+03</rscale>
<asrwt>0</asrwt>
<pdfrwt beam="1">  1       21 0.13569157E+00 0.28123045E+03</pdfrwt>
<pdfrwt beam="2">  1        2 0.10862861E+00 0.28123045E+03</pdfrwt>
<totfact> 0.19108584E+02</totfact>
</mgrwt>
</event>
<event>
 5    0  0.2947253E-001  0.2468882E+03  0.7546771E-02  0.1115287E+00
          1   -1    0    0  502    0 -0.00000000000E+00  0.00000000000E+00  0.14557407394E+04  0.14557407394E+04  0.00000000000E+00 0.  1.
         21   -1    0    0  503  502  0.00000000000E+00 -0.00000000000E+00 -0.23375389364E+03  0.23375389364E+03  0.00000000000E+00 0.  1.
         25    1    1    2    0    0 -0.73663722385E+02  0.24044965993E+03 -0.96241878852E+02  0.29686677517E+03  0.12500000000E+03 0.  0.
         21    1    1    2  503  501  0.11287450831E+03 -0.31717915294E+02  0.94451552325E+02  0.15055821636E+03  0.00000000000E+00 0.  1.
          1    1    1    2  501    0 -0.39210785928E+02 -0.20873174463E+03  0.12237771723E+04  0.12420696415E+04  0.00000000000E+00 0.  1.
<mgrwt>
<rscale>  4 0.24688817E+03</rscale>
<asrwt>0</asrwt>
<pdfrwt beam="1">  1       21 0.35962139E-01 0.24688817E+03</pdfrwt>
<pdfrwt beam="2">  1        1 0.22396011E+00 0.24688817E+03</pdfrwt>
<totfact> 0.62709105E+02</totfact>
</mgrwt>
</event>
<event>
 5    0  0.2947253E-001  0.2740969E+03  0.7546771E-02  0.1098958E+00
         21   -1    0    0  503  502  0.00000000000E+00  0.00000000000E+00  0.19956169757E+03  0.19956169757E+03  0.00000000000E+00 0. -1.
          2   -1    0    0  502    0 -0.00000000000E+00 -0.00000000000E+00 -0.55825071225E+03  0.55825071225E+03  0.00000000000E+00 0. -1.
         25    1    1    2    0    0  0.38976549403E+02  0.27362105648E+03 -0.13886026079E+02  0.30365354546E+03  0.12500000000E+03 0.  0.
         21    1    1    2  503  501 -0.20976358598E+02 -0.38629069632E+02 -0.10607112130E+02  0.45218618603E+02  0.00000000000E+00 0. -1.
          2    1    1    2  501    0 -0.18000190805E+02 -0.23499198684E+03 -0.33419587647E+03  0.40894024576E+03  0.00000000000E+00 0. -1.
<mgrwt>
<rscale>  4 0.27409685E+03</rscale>
<asrwt>0</asrwt>
<pdfrwt beam="1">  1       21 0.30701799E-01 0.27409685E+03</pdfrwt>
<pdfrwt beam="2">  1        2 0.85884726E-01 0.27409685E+03</pdfrwt>
<totfact> 0.68676957E+03</totfact>
</mgrwt>
</event>
<event>
 5    0  0.2947253E-001  0.6410199E+03  0.7546771E-02  0.1013585E+00
         21   -1    0    0  503  502  0.00000000000E+00  0.00000000000E+00  0.10688503923E+04  0.10688503923E+04  0.00000000000E+00 0.  1.
          2   -1    0    0  502    0 -0.00000000000E+00 -0.00000000000E+00 -0.19904003487E+04  0.19904003487E+04  0.00000000000E+00 0. -1.
         25    1    1    2    0    0  0.12747752783E+03 -0.15843758434E+03  0.83763555841E+03  0.87098296019E+03  0.12500000000E+03 0.  0.
         21    1    1    2  503  501  0.29517028626E+03  0.60767322274E+03 -0.10479529598E+04  0.12468350531E+04  0.00000000000E+00 0.  1.
          2    1    1    2  501    0 -0.42264781410E+03 -0.44923563840E+03 -0.71123255500E+03  0.94143272774E+03  0.00000000000E+00 0. -1.
<mgrwt>
<rscale>  4 0.50074548E+03</rscale>
<asrwt>0</asrwt>
<pdfrwt beam="1">  1       21 0.16443852E+00 0.64101993E+03</pdfrwt>
<pdfrwt beam="2">  1        2 0.30621544E+00 0.64101993E+03</pdfrwt>
<totfact> 0.17102836E+01</totfact>
</mgrwt>
</event>
<event>
 5    0  0.2947253E-001  0.2471534E+03  0.7546771E-02  0.1115117E+00
         21   -1    0    0  503  502  0.00000000000E+00  0.00000000000E+00  0.23213251615E+02  0.23213251615E+02  0.00000000000E+00 0. -1.
          1   -1    0    0  502    0 -0.00000000000E+00 -0.00000000000E+00 -0.23975637029E+04  0.23975637029E+04  0.00000000000E+00 0. -1.
         25    1    1    2    0    0 -0.11694818583E+03 -0.17827771231E+03 -0.14461853055E+04  0.14671526024E+04  0.12500000000E+03 0.  0.
         21    1    1    2  503  501  0.22345392133E+02  0.30782101420E+02 -0.26428990256E+03  0.26701312124E+03  0.00000000000E+00 0. -1.
          1    1    1    2  501    0  0.94602793693E+02  0.14749561089E+03 -0.66387524323E+03  0.68661123089E+03  0.00000000000E+00 0. -1.
<mgrwt>
<rscale>  4 0.24715344E+03</rscale>
<asrwt>0</asrwt>
<pdfrwt beam="1">  1       21 0.35712704E-02 0.24715344E+03</pdfrwt>
<pdfrwt beam="2">  1        1 0.36885585E+00 0.24715344E+03</pdfrwt>
<totfact> 0.99085422E+03</totfact>
</mgrwt>
</event>
<event>
 5    0  0.2947253E-001  0.3277952E+03  0.7546771E-02  0.1072117E+00
         -1   -1    0    0    0  501 -0.00000000000E+00  0.00000000000E+00  0.16170985606E+03  0.16170985606E+03  0.00000000000E+00 0. -1.
         21   -1    0    0  501  502  0.00000000000E+00 -0.00000000000E+00 -0.63108493830E+03  0.63108493830E+03  0.00000000000E+00 0. -1.
         25    1    1    2    0    0 -0.96365547442E+02 -0.28729490285E+03 -0.26896420735E+03  0.42401818921E+03  0.12500000000E+03 0.  0.
         21    1    1    2  501  501  0.43121109988E+02  0.15248608985E+03 -0.14105661935E+03  0.21215185030E+03  0.00000000000E+00 0. -1.
         -1    1    1    2    0  502  0.53244437454E+02  0.13480881300E+03 -0.59354255535E+02  0.15662475485E+03  0.00000000000E+00 0. -1.
<mgrwt>
<rscale>  4 0.32779518E+03</rscale>
<asrwt>0</asrwt>
<pdfrwt beam="1">  1       21 0.97089991E-01 0.32779518E+03</pdfrwt>
<pdfrwt beam="2">  1       -1 0.24878439E-01 0.32779518E+03</pdfrwt>
<totfact> 0.10752031E+03</totfact>
</mgrwt>
</event>
<event>
 5    0  0.2947253E-001  0.6078176E+03  0.7546771E-02  0.9902652E-01
          2   -1    0    0  502    0 -0.00000000000E+00  0.00000000000E+00  0.16955089072E+04  0.16955089072E+04  0.00000000000E+00 0. -1.
         21   -1    0    0  503  502  0.00000000000E+00 -0.00000000000E+00 -0.22763678048E+03  0.22763678048E+03  0.00000000000E+00 0. -1.
         25    1    1    2    0    0 -0.15569294110E+03 -0.54697508241E+03  0.44319379149E+03  0.73175663270E+03  0.12500000000E+03 0.  0.
         21    1    1    2  503  501 -0.26002638633E+02  0.27288242007E+03  0.54139287248E+03  0.60683374557E+03  0.00000000000E+00 0. -1.
          2    1    1    2  501    0  0.18169557973E+03  0.27409266234E+03  0.48328546279E+03  0.58455530944E+03  0.00000000000E+00 0. -1.
<mgrwt>
<rscale>  4 0.60132939E+03</rscale>
<asrwt>0</asrwt>
<pdfrwt beam="1">  1       21 0.35021044E-01 0.60781756E+03</pdfrwt>
<pdfrwt beam="2">  1        2 0.26084752E+00 0.60781756E+03</pdfrwt>
<totfact> 0.93963977E+02</totfact>
</mgrwt>
</event>
<event>
 5    0  0.2947253E-001  0.2842164E+03  0.7546771E-02  0.1093408E+00
         21   -1    0    0  503  502  0.00000000000E+00  0.00000000000E+00  0.93619479258E+03  0.93619479258E+03  0.00000000000E+00 0. -1.
          1   -1    0    0  502    0 -0.00000000000E+00 -0.00000000000E+00 -0.14599010890E+03  0.14599010890E+03  0.00000000000E+00 0.  1.
         25    1    1    2    0    0  0.24581622367E+03 -0.75594703680E+02  0.75105133542E+03  0.80364375408E+03  0.12500000000E+03 0.  0.
         21    1    1    2  503  501 -0.17097924834E+02 -0.20826619536E+02  0.94654374883E+01  0.28560140437E+02  0.00000000000E+00 0. -1.
          1    1    1    2  501    0 -0.22871829883E+03  0.96421323216E+02  0.29687910774E+02  0.24998100695E+03  0.00000000000E+00 0.  1.
<mgrwt>
<rscale>  4 0.28421638E+03</rscale>
<asrwt>0</asrwt>
<pdfrwt beam="1">  1       21 0.14402996E+00 0.28421638E+03</pdfrwt>
<pdfrwt beam="2">  1        1 0.22460017E-01 0.28421638E+03</pdfrwt>
<totfact> 0.75330364E+02</totfact>
</mgrwt>
</event>
<event>
 5    0  0.2947253E-001  0.1870812E+03  0.7546771E-02  0.1161121E+00
          2   -1    0    0  502    0 -0.00000000000E+00  0.00000000000E+00  0.34152114899E+03  0.34152114899E+03  0.00000000000E+00 0.  1.
         21   -1    0    0  503  502  0.00000000000E+00 -0.00000000000E+00 -0.25601908921E+03  0.25601908921E+03  0.00000000000E+00 0.  1.
         25    1    1    2    0    0 -0.10450034321E+03 -0.19830066424E+03  0.97168124662E+01  0.25683241932E+03  0.12500000000E+03 0.  0.
         21    1    1    2  503  501  0.36139744619E+02  0.11441343377E+03 -0.84897485109E+02  0.14698332540E+03  0.00000000000E+00 0.  1.
          2    1    1    2  501    0  0.68360598592E+02  0.83887230473E+02  0.16068273241E+03  0.19372449348E+03  0.00000000000E+00 0.  1.
<mgrwt>
<rscale>  4 0.18708121E+03</rscale>
<asrwt>0</asrwt>
<pdfrwt beam="1">  1       21 0.39387552E-01 0.18708121E+03</pdfrwt>
<pdfrwt beam="2">  1        2 0.52541715E-01 0.18708121E+03</pdfrwt>
<totfact> 0.73440860E+03</totfact>
</mgrwt>
</event>
<event>
 5    0  0.2947253E-001  0.2483346E+03  0.7546771E-02  0.1114362E+00
          2   -1    0    0  502    0 -0.00000000000E+00  0.00000000000E+00  0.15121507904E+04  0.15121507904E+04  0.00000000000E+00 0. -1.
         21   -1    0    0  503  502  0.00000000000E+00 -0.00000000000E+00 -0.10697742433E+03  0.10697742433E+03  0.00000000000E+00 0.  1.
         25    1    1    2    0    0  0.39677859384E+02  0.21088081298E+03  0.63452708691E+02  0.25631288701E+03  0.12500000000E+03 0.  0.
         21    1    1    2  503  501  0.31525850660E+02 -0.11073104326E+03  0.70626540743E+03  0.71558791838E+03  0.00000000000E+00 0. -1.
          2    1    1    2  501    0 -0.71203710044E+02 -0.10014976972E+03  0.63545524990E+03  0.64722740928E+03  0.00000000000E+00 0. -1.
<mgrwt>
<rscale>  4 0.24833455E+03</rscale>
<asrwt>0</asrwt>
<pdfrwt beam="1">  1       21 0.16458066E-01 0.24833455E+03</pdfrwt>
<pdfrwt beam="2">  1        2 0.23263857E+00 0.24833455E+03</pdfrwt>
<totfact> 0.55991220E+03</totfact>
</mgrwt>
</event>
<event>
 5    0  0.2947253E-001  0.2693468E+03  0.7546771E-02  0.1101654E+00
         21   -1    0    0  503  502  0.00000000000E+00  0.00000000000E+00  0.17648311602E+03  0.17648311602E+03  0.00000000000E+00 0. -1.
          2   -1    0    0  502    0 -0.00000000000E+00 -0.00000000000E+00 -0.48979539201E+03  0.48979539201E+03  0.00000000000E+00 0. -1.
         25    1    1    2    0    0  0.25902941243E+03 -0.44088588942E+02 -0.24004271037E+03  0.37720755955E+03  0.12500000000E+03 0.  0.
         21    1    1    2  503  501 -0.22447843850E+03  0.43224526855E+02 -0.25372015491E+02  0.23000580046E+03  0.00000000000E+00 0. -1.
          2    1    1    2  501    0 -0.34550973929E+02  0.86406208724E+00 -0.47897550127E+02  0.59065148022E+02  0.00000000000E+00 0. -1.
<mgrwt>
<rscale>  4 0.26934682E+03</rscale>
<asrwt>0</asrwt>
<pdfrwt beam="1">  1       21 0.27151249E-01 0.26934682E+03</pdfrwt>
<pdfrwt beam="2">  1        2 0.75353135E-01 0.26934682E+03</pdfrwt>
<totfact> 0.10142170E+04</totfact>
</mgrwt>
</event>
<event>
 5    0  0.2947253E-001  0.2712435E+03  0.7546771E-02  0.1100570E+00
         21   -1    0    0  501  502  0.00000000000E+00  0.00000000000E+00  0.93456417759E+02  0.93456417759E+02  0.00000000000E+00 0.  1.
         -3   -1    0    0    0  501 -0.00000000000E+00 -0.00000000000E+00 -0.90076370021E+03  0.90076370021E+03  0.00000000000E+00 0.  1.
         25    1    1    2    0    0  0.37419702507E+02  0.23779781255E+03 -0.19481280360E+03  0.33395368277E+03  0.12500000000E+03 0.  0.
         21    1    1    2  501  501 -0.70767646117E+01 -0.42969933540E+02 -0.64034390326E+02  0.77439647017E+02  0.00000000000E+00 0. -1.
         -3    1    1    2    0  502 -0.30342937895E+02 -0.19482787901E+03 -0.54846008852E+03  0.58282678818E+03  0.00000000000E+00 0.  1.
<mgrwt>
<rscale>  4 0.27124350E+03</rscale>
<asrwt>0</asrwt>
<pdfrwt beam="1">  1       21 0.14377910E-01 0.27124350E+03</pdfrwt>
<pdfrwt beam="2">  1       -3 0.13857904E+00 0.27124350E+03</pdfrwt>
<totfact> 0.86785006E+02</totfact>
</mgrwt>
</event>
<event>
 5    0  0.2947253E-001  0.8989549E+03  0.7546771E-02  0.9434767E-01
          2   -1    0    0  502    0 -0.00000000000E+00  0.00000000000E+00  0.17921015417E+04  0.17921015417E+04  0.00000000000E+00 0.  1.
         21   -1    0    0  503  502  0.00000000000E+00 -0.00000000000E+00 -0.95556723634E+03  0.95556723634E+03  0.00000000000E+00 0. -1.
         25    1    1    2    0    0 -0.79834926502E+03 -0.33339642804E+03 -0.59489220704E+03  0.10573724345E+04  0.12500000000E+03 0.  0.
         21    1    1    2  503  501  0.31420139467E+03  0.12760534421E+03  0.34804172916E+03  0.48594103091E+03  0.00000000000E+00 0.  1.
          2    1    1    2  501    0  0.48414787035E+03  0.20579108383E+03  0.10833847832E+04  0.12043553127E+04  0.00000000000E+00 0.  1.
<mgrwt>
<rscale>  4 0.89268866E+03</rscale>
<asrwt>0</asrwt>
<pdfrwt beam="1">  1       21 0.14701034E+00 0.89895488E+03</pdfrwt>
<pdfrwt beam="2">  1        2 0.27570793E+00 0.89895488E+03</pdfrwt>
<totfact> 0.27935958E+01</totfact>
</mgrwt>
</event>
<event>
 5    0  0.2947253E-001  0.2379315E+03  0.7546771E-02  0.1121179E+00
         21   -1    0    0  501  502  0.00000000000E+00  0.00000000000E+00  0.62716500619E+03  0.62716500619E+03  0.00000000000E+00 0.  1.
         -2   -1    0    0    0  501 -0.00000000000E+00 -0.00000000000E+00 -0.60430048406E+03  0.60430048406E+03  0.00000000000E+00 0.  1.
         25    1    1    2    0    0 -0.11332107111E+03 -0.16988146990E+03  0.57840813080E+03  0.62600506767E+03  0.12500000000E+03 0.  0.
         21    1    1    2  501  501 -0.19089318190E+02  0.48202473011E+02 -0.20534623050E+03  0.21178988373E+03  0.00000000000E+00 0. -1.
         -2    1    1    2    0  502  0.13241038930E+03  0.12167899688E+03 -0.35019737818E+03  0.39367053885E+03  0.00000000000E+00 0.  1.
<mgrwt>
<rscale>  4 0.23793146E+03</rscale>
<asrwt>0</asrwt>
<pdfrwt beam="1">  1       21 0.96486924E-01 0.23793146E+03</pdfrwt>
<pdfrwt beam="2">  1       -2 0.92969305E-01 0.23793146E+03</pdfrwt>
<totfact> 0.72353667E+01</totfact>
</mgrwt>
</event>
<event>
 5    0  0.2947253E-001  0.2408262E+03  0.7546771E-02  0.1119244E+00
         21   -1    0    0  503  502  0.00000000000E+00  0.00000000000E+00  0.76309205572E+02  0.76309205572E+02  0.00000000000E+00 0.  1.
          2   -1    0    0  502    0 -0.00000000000E+00 -0.00000000000E+00 -0.10506454753E+04  0.10506454753E+04  0.00000000000E+00 0.  1.
         25    1    1    2    0    0 -0.17704871695E+03  0.10500472648E+03 -0.17215837158E+03  0.29603335227E+03  0.12500000000E+03 0.  0.
         21    1    1    2  503  501  0.88738427967E+02 -0.26838667446E+02 -0.25912748784E+03  0.27521242273E+03  0.00000000000E+00 0.  1.
          2    1    1    2  501    0  0.88310288981E+02 -0.78166059030E+02 -0.54305041026E+03  0.55570890582E+03  0.00000000000E+00 0.  1.
<mgrwt>
<rscale>  4 0.24082616E+03</rscale>
<asrwt>0</asrwt>
<pdfrwt beam="1">  1       21 0.11739877E-01 0.24082616E+03</pdfrwt>
<pdfrwt beam="2">  1        2 0.16163777E+00 0.24082616E+03</pdfrwt>
<totfact> 0.18793252E+04</totfact>
</mgrwt>
</event>
<event>
 5    0  0.2947253E-001  0.3519090E+03  0.7546771E-02  0.1061834E+00
         21   -1    0    0  503  502  0.00000000000E+00  0.00000000000E+00  0.16848111567E+03  0.16848111567E+03  0.00000000000E+00 0. -1.
          2   -1    0    0  502    0 -0.00000000000E+00 -0.00000000000E+00 -0.69685430430E+03  0.69685430430E+03  0.00000000000E+00 0. -1.
         25    1    1    2    0    0 -0.12871833174E+03 -0.30273173508E+03 -0.24021524688E+03  0.42607895652E+03  0.12500000000E+03 0.  0.
         21    1    1    2  503  501  0.13805270924E+02  0.30278914174E+02 -0.14279666198E+02  0.36211973373E+02  0.00000000000E+00 0. -1.
          2    1    1    2  501    0  0.11491306082E+03  0.27245282090E+03 -0.27387827556E+03  0.40304449008E+03  0.00000000000E+00 0. -1.
<mgrwt>
<rscale>  4 0.35190895E+03</rscale>
<asrwt>0</asrwt>
<pdfrwt beam="1">  1       21 0.25920172E-01 0.35190895E+03</pdfrwt>
<pdfrwt beam="2">  1        2 0.10720835E+00 0.35190895E+03</pdfrwt>
<totfact> 0.72382847E+03</totfact>
</mgrwt>
</event>
<event>
 5    0  0.2947253E-001  0.2303333E+03  0.7546771E-02  0.1126405E+00
         21   -1    0    0  503  502  0.00000000000E+00  0.00000000000E+00  0.11818903515E+03  0.11818903515E+03  0.00000000000E+00 0.  1.
          2   -1    0    0  502    0 -0.00000000000E+00 -0.00000000000E+00 -0.67149066843E+03  0.67149066843E+03  0.00000000000E+00 0.  1.
         25    1    1    2    0    0 -0.18573746823E+02  0.20656669481E+03 -0.78251058691E+02  0.25448577890E+03  0.12500000000E+03 0.  0.
         21    1    1    2  503  501  0.54228443294E+02 -0.45701577705E+02 -0.78588749290E+02  0.10585626945E+03  0.00000000000E+00 0.  1.
          2    1    1    2  501    0 -0.35654696471E+02 -0.16086511711E+03 -0.39646182530E+03  0.42933765523E+03  0.00000000000E+00 0.  1.
<mgrwt>
<rscale>  4 0.23033327E+03</rscale>
<asrwt>0</asrwt>
<pdfrwt beam="1">  1       21 0.18182928E-01 0.23033327E+03</pdfrwt>
<pdfrwt beam="2">  1        2 0.10330626E+00 0.23033327E+03</pdfrwt>
<totfact> 0.15198454E+04</totfact>
</mgrwt>
</event>
<event>
 5    0  0.2947253E-001  0.2615053E+03  0.7546771E-02  0.1106242E+00
          1   -1    0    0  502    0 -0.00000000000E+00  0.00000000000E+00  0.21076040641E+04  0.21076040641E+04  0.00000000000E+00 0. -1.
         21   -1    0    0  503  502  0.00000000000E+00 -0.00000000000E+00 -0.38247773069E+03  0.38247773069E+03  0.00000000000E+00 0.  1.
         25    1    1    2    0    0 -0.14475388349E+03  0.18034628641E+03 -0.32493859094E+03  0.41795760274E+03  0.12500000000E+03 0.  0.
         21    1    1    2  503  501  0.17077908824E+02 -0.69345108458E+02  0.16905178207E+03  0.18351813005E+03  0.00000000000E+00 0.  1.
          1    1    1    2  501    0  0.12767597466E+03 -0.11100117795E+03  0.18810131422E+04  0.18886060620E+04  0.00000000000E+00 0. -1.
<mgrwt>
<rscale>  4 0.26150530E+03</rscale>
<asrwt>0</asrwt>
<pdfrwt beam="1">  1       21 0.58842729E-01 0.26150530E+03</pdfrwt>
<pdfrwt beam="2">  1        1 0.32424677E+00 0.26150530E+03</pdfrwt>
<totfact> 0.83961407E+01</totfact>
</mgrwt>
</event>
<event>
 5    0  0.2947253E-001  0.2552871E+03  0.7546771E-02  0.1110008E+00
         21   -1    0    0  503  502  0.00000000000E+00  0.00000000000E+00  0.38388644925E+02  0.38388644925E+02  0.00000000000E+00 0.  1.
          2   -1    0    0  502    0 -0.00000000000E+00 -0.00000000000E+00 -0.25316831930E+04  0.25316831930E+04  0.00000000000E+00 0.  1.
         25    1    1    2    0    0  0.10489635178E+03  0.22355901693E+03 -0.91651380601E+03  0.95739460792E+03  0.12500000000E+03 0.  0.
         21    1    1    2  503  501 -0.11944977685E+03 -0.10279239148E+02 -0.70130872001E+03  0.71148284077E+03  0.00000000000E+00 0.  1.
          2    1    1    2  501    0  0.14553425072E+02 -0.21327977778E+03 -0.87547202203E+03  0.90119438922E+03  0.00000000000E+00 0.  1.
<mgrwt>
<rscale>  4 0.25528711E+03</rscale>
<asrwt>0</asrwt>
<pdfrwt beam="1">  1       21 0.59059432E-02 0.25528711E+03</pdfrwt>
<pdfrwt beam="2">  1        2 0.38948986E+00 0.25528711E+03</pdfrwt>
<totfact> 0.99408230E+03</totfact>
</mgrwt>
</event>
<event>
 5    0  0.2947253E-001  0.2242778E+03  0.7546771E-02  0.1130733E+00
          2   -1    0    0  502    0 -0.00000000000E+00  0.00000000000E+00  0.61746589046E+03  0.61746589046E+03  0.00000000000E+00 0. -1.
         21   -1    0    0  503  502  0.00000000000E+00 -0.00000000000E+00 -0.11069811696E+03  0.11069811696E+03  0.00000000000E+00 0. -1.
         25    1    1    2    0    0 -0.18335030841E+03 -0.11663439277E+03  0.13005050523E+03  0.28241644974E+03  0.12500000000E+03 0.  0.
         21    1    1    2  503  501  0.44877405876E+02  0.50397404860E+01  0.24983697006E+02  0.51609743832E+02  0.00000000000E+00 0. -1.
          2    1    1    2  501    0  0.13847290253E+03  0.11159465228E+03  0.35173357127E+03  0.39413781385E+03  0.00000000000E+00 0. -1.
<mgrwt>
<rscale>  4 0.22427784E+03</rscale>
<asrwt>0</asrwt>
<pdfrwt beam="1">  1       21 0.17030480E-01 0.22427784E+03</pdfrwt>
<pdfrwt beam="2">  1        2 0.94994751E-01 0.22427784E+03</pdfrwt>
<totfact> 0.18968209E+04</totfact>
</mgrwt>
</event>
<event>
 5    0  0.2947253E-001  0.2786237E+03  0.7546771E-02  0.1096443E+00
         21   -1    0    0  503  502  0.00000000000E+00  0.00000000000E+00  0.10957626917E+04  0.10957626917E+04  0.00000000000E+00 0. -1.
          4   -1    0    0  502    0 -0.00000000000E+00 -0.00000000000E+00 -0.99742745966E+02  0.99742745966E+02  0.00000000000E+00 0.  1.
         25    1    1    2    0    0  0.21479743832E+03  0.12596905993E+03  0.85916765599E+03  0.90321658791E+03  0.12500000000E+03 0.  0.
         21    1    1    2  503  501 -0.21461805344E+02 -0.67328243004E+01  0.38871384761E+02  0.44910183310E+02  0.00000000000E+00 0. -1.
          4    1    1    2  501    0 -0.19333563297E+03 -0.11923623563E+03  0.97980904946E+02  0.24737866641E+03  0.00000000000E+00 0.  1.
<mgrwt>
<rscale>  4 0.27862366E+03</rscale>
<asrwt>0</asrwt>
<pdfrwt beam="1">  1       21 0.16857887E+00 0.27862366E+03</pdfrwt>
<pdfrwt beam="2">  1        4 0.15345039E-01 0.27862366E+03</pdfrwt>
<totfact> 0.32551402E+02</totfact>
</mgrwt>
</event>
<event>
 5    0  0.2947253E-001  0.2959555E+03  0.7546771E-02  0.1087280E+00
          1   -1    0    0  502    0 -0.00000000000E+00  0.00000000000E+00  0.53882190071E+03  0.53882190071E+03  0.00000000000E+00 0.  1.
         21   -1    0    0  503  502  0.00000000000E+00 -0.00000000000E+00 -0.20810426468E+03  0.20810426468E+03  0.00000000000E+00 0. -1.
         25    1    1    2    0    0  0.15260430729E+03 -0.22062776244E+03 -0.22943648591E+02  0.29684355336E+03  0.12500000000E+03 0.  0.
         21    1    1    2  503  501 -0.69841839530E+02  0.60429306686E+02  0.79065484190E+02  0.12157686641E+03  0.00000000000E+00 0.  1.
          1    1    1    2  501    0 -0.82762467760E+02  0.16019845575E+03  0.27459580043E+03  0.32850574562E+03  0.00000000000E+00 0.  1.
<mgrwt>
<rscale>  4 0.29595554E+03</rscale>
<asrwt>0</asrwt>
<pdfrwt beam="1">  1       21 0.32016041E-01 0.29595554E+03</pdfrwt>
<pdfrwt beam="2">  1        1 0.82895676E-01 0.29595554E+03</pdfrwt>
<totfact> 0.41139790E+03</totfact>
</mgrwt>
</event>
<event>
 5    0  0.2947253E-001  0.4606978E+03  0.7546771E-02  0.1024579E+00
         21   -1    0    0  503  502  0.00000000000E+00  0.00000000000E+00  0.44775117621E+03  0.44775117621E+03  0.00000000000E+00 0. -1.
          2   -1    0    0  502    0 -0.00000000000E+00 -0.00000000000E+00 -0.62927621671E+03  0.62927621671E+03  0.00000000000E+00 0. -1.
         25    1    1    2    0    0  0.35305830352E+03 -0.25682931815E+03  0.10523756474E+03  0.46616671843E+03  0.12500000000E+03 0.  0.
         21    1    1    2  503  501  0.56836023362E+02  0.46453924896E+02 -0.70957893359E+02  0.10209467821E+03  0.00000000000E+00 0. -1.
          2    1    1    2  501    0 -0.40989432688E+03  0.21037539325E+03 -0.21580471189E+03  0.50876599627E+03  0.00000000000E+00 0. -1.
<mgrwt>
<rscale>  4 0.46069776E+03</rscale>
<asrwt>0</asrwt>
<pdfrwt beam="1">  1       21 0.68884797E-01 0.46069776E+03</pdfrwt>
<pdfrwt beam="2">  1        2 0.96811724E-01 0.46069776E+03</pdfrwt>
<totfact> 0.10504560E+03</totfact>
</mgrwt>
</event>
<event>
 5    0  0.2947253E-001  0.2476668E+03  0.7546771E-02  0.1114788E+00
          1   -1    0    0  502    0 -0.00000000000E+00  0.00000000000E+00  0.25811295733E+04  0.25811295733E+04  0.00000000000E+00 0. -1.
         21   -1    0    0  503  502  0.00000000000E+00 -0.00000000000E+00 -0.31438996338E+02  0.31438996338E+02  0.00000000000E+00 0. -1.
         25    1    1    2    0    0 -0.51497414420E+02 -0.20751349796E+03  0.59345867463E+03  0.64306456442E+03  0.12500000000E+03 0.  0.
         21    1    1    2  503  501  0.17922230699E+02  0.75874119333E+02  0.41227116937E+03  0.41957788958E+03  0.00000000000E+00 0. -1.
          1    1    1    2  501    0  0.33575183720E+02  0.13163937862E+03  0.15439607329E+04  0.15499261156E+04  0.00000000000E+00 0. -1.
<mgrwt>
<rscale>  4 0.24766678E+03</rscale>
<asrwt>0</asrwt>
<pdfrwt beam="1">  1       21 0.48367707E-02 0.24766678E+03</pdfrwt>
<pdfrwt beam="2">  1        1 0.39709669E+00 0.24766678E+03</pdfrwt>
<totfact> 0.44841557E+03</totfact>
</mgrwt>
</event>
<event>
 5    0  0.2947253E-001  0.2413801E+03  0.7546771E-02  0.1118877E+00
         -1   -1    0    0    0  501 -0.00000000000E+00  0.00000000000E+00  0.21061431214E+03  0.21061431214E+03  0.00000000000E+00 0.  1.
         21   -1    0    0  501  502  0.00000000000E+00 -0.00000000000E+00 -0.52156479042E+03  0.52156479042E+03  0.00000000000E+00 0.  1.
         25    1    1    2    0    0 -0.13643769116E+03  0.15952783190E+03 -0.40925244831E+03  0.47663082062E+03  0.12500000000E+03 0.  0.
         21    1    1    2  501  501  0.34603418602E+02  0.28043958827E+01 -0.90777155533E+01  0.35884065194E+02  0.00000000000E+00 0.  1.
         -1    1    1    2    0  502  0.10183427256E+03 -0.16233222778E+03  0.10737968558E+03  0.21966421675E+03  0.00000000000E+00 0.  1.
<mgrwt>
<rscale>  4 0.24138012E+03</rscale>
<asrwt>0</asrwt>
<pdfrwt beam="1">  1       21 0.80240736E-01 0.24138012E+03</pdfrwt>
<pdfrwt beam="2">  1       -1 0.32402202E-01 0.24138012E+03</pdfrwt>
<totfact> 0.10986228E+03</totfact>
</mgrwt>
</event>
<event>
 5    0  0.2947253E-001  0.2412679E+03  0.7546771E-02  0.1118951E+00
         21   -1    0    0  503  502  0.00000000000E+00  0.00000000000E+00  0.14054135214E+03  0.14054135214E+03  0.00000000000E+00 0. -1.
          2   -1    0    0  502    0 -0.00000000000E+00 -0.00000000000E+00 -0.55205053171E+04  0.55205053171E+04  0.00000000000E+00 0.  1.
         25    1    1    2    0    0  0.54495857827E+02  0.20025623317E+03  0.26751057217E+02  0.24374777231E+03  0.12500000000E+03 0.  0.
         21    1    1    2  503  501  0.25821814249E+02 -0.10155550697E+02 -0.54966577970E+02  0.61572932323E+02  0.00000000000E+00 0. -1.
          2    1    1    2  501    0 -0.80317672077E+02 -0.19010068247E+03 -0.53517484442E+04  0.53557259646E+04  0.00000000000E+00 0.  1.
<mgrwt>
<rscale>  4 0.24126791E+03</rscale>
<asrwt>0</asrwt>
<pdfrwt beam="1">  1       21 0.21621747E-01 0.24126791E+03</pdfrwt>
<pdfrwt beam="2">  1        2 0.84930848E+00 0.24126791E+03</pdfrwt>
<totfact> 0.22949666E+00</totfact>
</mgrwt>
</event>
<event>
 5    0  0.2947253E-001  0.2387334E+03  0.7546771E-02  0.1120639E+00
         21   -1    0    0  503  502  0.00000000000E+00  0.00000000000E+00  0.19316807558E+03  0.19316807558E+03  0.00000000000E+00 0.  1.
          1   -1    0    0  502    0 -0.00000000000E+00 -0.00000000000E+00 -0.18435446981E+04  0.18435446981E+04  0.00000000000E+00 0. -1.
         25    1    1    2    0    0 -0.12695065477E+03 -0.15890926627E+03  0.11024117537E+03  0.26295767796E+03  0.12500000000E+03 0.  0.
         21    1    1    2  503  501  0.10207876391E+03  0.12067962041E+03 -0.10675149152E+04  0.10791532509E+04  0.00000000000E+00 0. -1.
          1    1    1    2  501    0  0.24871890857E+02  0.38229645864E+02 -0.69310288266E+03  0.69460184475E+03  0.00000000000E+00 0. -1.
<mgrwt>
<rscale>  4 0.23873337E+03</rscale>
<asrwt>0</asrwt>
<pdfrwt beam="1">  1       21 0.29718166E-01 0.23873337E+03</pdfrwt>
<pdfrwt beam="2">  1        1 0.28362226E+00 0.23873337E+03</pdfrwt>
<totfact> 0.51242546E+02</totfact>
</mgrwt>
</event>
<event>
 5    0  0.2947253E-001  0.2467641E+03  0.7546771E-02  0.1115367E+00
         21   -1    0    0  503  502  0.00000000000E+00  0.00000000000E+00  0.16602404886E+03  0.16602404886E+03  0.00000000000E+00 0. -1.
          2   -1    0    0  502    0 -0.00000000000E+00 -0.00000000000E+00 -0.14169428096E+04  0.14169428096E+04  0.00000000000E+00 0. -1.
         25    1    1    2    0    0  0.20919208980E+03  0.38809641224E+02  0.58652119109E+02  0.25363869926E+03  0.12500000000E+03 0.  0.
         21    1    1    2  503  501 -0.68670384160E+02  0.16349726180E+02 -0.58171266556E+03  0.58598000007E+03  0.00000000000E+00 0. -1.
          2    1    1    2  501    0 -0.14052170564E+03 -0.55159367404E+02 -0.72785821433E+03  0.74334815916E+03  0.00000000000E+00 0. -1.
<mgrwt>
<rscale>  4 0.24676410E+03</rscale>
<asrwt>0</asrwt>
<pdfrwt beam="1">  1       21 0.25542162E-01 0.24676410E+03</pdfrwt>
<pdfrwt beam="2">  1        2 0.21799119E+00 0.24676410E+03</pdfrwt>
<totfact> 0.27538961E+03</totfact>
</mgrwt>
</event>
<event>
 5    0  0.2947253E-001  0.3377225E+03  0.7546771E-02  0.1067770E+00
          3   -1    0    0  502    0 -0.00000000000E+00  0.00000000000E+00  0.11930433870E+03  0.11930433870E+03  0.00000000000E+00 0. -1.
         21   -1    0    0  503  502  0.00000000000E+00 -0.00000000000E+00 -0.24157686378E+04  0.24157686378E+04  0.00000000000E+00 0. -1.
         25    1    1    2    0    0 -0.20717963676E+02 -0.31305308167E+03 -0.21449831755E+04  0.21714072140E+04  0.12500000000E+03 0.  0.
         21    1    1    2  503  501 -0.30987402257E+02  0.21656348572E+03 -0.12113577427E+03  0.25006766735E+03  0.00000000000E+00 0. -1.
          3    1    1    2  501    0  0.51705365933E+02  0.96489595951E+02 -0.30345349349E+02  0.11359809514E+03  0.00000000000E+00 0. -1.
<mgrwt>
<rscale>  4 0.33772247E+03</rscale>
<asrwt>0</asrwt>
<pdfrwt beam="1">  1       21 0.37165670E+00 0.33772247E+03</pdfrwt>
<pdfrwt beam="2">  1        3 0.18354515E-01 0.33772247E+03</pdfrwt>
<totfact> 0.14729274E+01</totfact>
</mgrwt>
</event>
<event>
 5    0  0.2947253E-001  0.4073367E+03  0.7546771E-02  0.1041268E+00
          2   -1    0    0  502    0 -0.00000000000E+00  0.00000000000E+00  0.95009066886E+03  0.95009066886E+03  0.00000000000E+00 0. -1.
         21   -1    0    0  503  502  0.00000000000E+00 -0.00000000000E+00 -0.73227989412E+03  0.73227989412E+03  0.00000000000E+00 0.  1.
         25    1    1    2    0    0  0.37865297580E+03  0.85202052449E+02 -0.62478988704E+03  0.74607296478E+03  0.12500000000E+03 0.  0.
         21    1    1    2  503  501 -0.11585309764E+02  0.21249172068E+02  0.32066117719E+02  0.40174402566E+02  0.00000000000E+00 0. -1.
          2    1    1    2  501    0 -0.36706766603E+03 -0.10645122452E+03  0.81053454405E+03  0.89612319563E+03  0.00000000000E+00 0. -1.
<mgrwt>
<rscale>  4 0.40733667E+03</rscale>
<asrwt>0</asrwt>
<pdfrwt beam="1">  1       21 0.11265844E+00 0.40733667E+03</pdfrwt>
<pdfrwt beam="2">  1        2 0.14616780E+00 0.40733667E+03</pdfrwt>
<totfact> 0.19632896E+02</totfact>
</mgrwt>
</event>
<event>
 5    0  0.2947253E-001  0.2551101E+03  0.7546771E-02  0.1110117E+00
          2   -1    0    0  502    0 -0.00000000000E+00  0.00000000000E+00  0.14368996193E+04  0.14368996193E+04  0.00000000000E+00 0. -1.
         21   -1    0    0  503  502  0.00000000000E+00 -0.00000000000E+00 -0.63712952048E+02  0.63712952048E+02  0.00000000000E+00 0. -1.
         25    1    1    2    0    0 -0.16486471599E+03 -0.14925068097E+03  0.26807234864E+03  0.37005935261E+03  0.12500000000E+03 0.  0.
         21    1    1    2  503  501  0.47653464735E+02  0.81157724052E+02  0.31016271501E+03  0.32412704093E+03  0.00000000000E+00 0. -1.
          2    1    1    2  501    0  0.11721125125E+03  0.68092956916E+02  0.79495160359E+03  0.80642617781E+03  0.00000000000E+00 0. -1.
<mgrwt>
<rscale>  4 0.25511006E+03</rscale>
<asrwt>0</asrwt>
<pdfrwt beam="1">  1       21 0.98019937E-02 0.25511006E+03</pdfrwt>
<pdfrwt beam="2">  1        2 0.22106146E+00 0.25511006E+03</pdfrwt>
<totfact> 0.15657920E+04</totfact>
</mgrwt>
</event>
<event>
 5    0  0.2947253E-001  0.2442144E+03  0.7546771E-02  0.1117017E+00
          2   -1    0    0  502    0 -0.00000000000E+00  0.00000000000E+00  0.87560672569E+02  0.87560672569E+02  0.00000000000E+00 0. -1.
         21   -1    0    0  503  502  0.00000000000E+00 -0.00000000000E+00 -0.18332068748E+04  0.18332068748E+04  0.00000000000E+00 0.  1.
         25    1    1    2    0    0 -0.53784580289E+02 -0.20278780593E+03 -0.16804979575E+04  0.16981501879E+04  0.12500000000E+03 0.  0.
         21    1    1    2  503  501  0.25536307156E+02  0.40509940744E+02 -0.10066622869E+02  0.48933579250E+02  0.00000000000E+00 0.  1.
          2    1    1    2  501    0  0.28248273134E+02  0.16227786519E+03 -0.55081621867E+02  0.17368378028E+03  0.00000000000E+00 0. -1.
<mgrwt>
<rscale>  4 0.24421440E+03</rscale>
<asrwt>0</asrwt>
<pdfrwt beam="1">  1       21 0.28203179E+00 0.24421440E+03</pdfrwt>
<pdfrwt beam="2">  1        2 0.13470874E-01 0.24421440E+03</pdfrwt>
<totfact> 0.22304314E+02</totfact>
</mgrwt>
</event>
<event>
 5    0  0.2947253E-001  0.2385792E+03  0.7546771E-02  0.1120743E+00
         21   -1    0    0  503  502  0.00000000000E+00  0.00000000000E+00  0.23878032801E+03  0.23878032801E+03  0.00000000000E+00 0.  1.
          1   -1    0    0  502    0 -0.00000000000E+00 -0.00000000000E+00 -0.38144637151E+03  0.38144637151E+03  0.00000000000E+00 0.  1.
         25    1    1    2    0    0  0.13170321140E+03  0.15475559447E+03  0.13541313367E+03  0.27432963144E+03  0.12500000000E+03 0.  0.
         21    1    1    2  503  501 -0.12834834305E+02 -0.26955691314E+02 -0.27973084470E+02  0.40912537451E+02  0.00000000000E+00 0.  1.
          1    1    1    2  501    0 -0.11886837710E+03 -0.12779990315E+03 -0.25010609269E+03  0.30498453063E+03  0.00000000000E+00 0.  1.
<mgrwt>
<rscale>  4 0.23857919E+03</rscale>
<asrwt>0</asrwt>
<pdfrwt beam="1">  1       21 0.36735435E-01 0.23857919E+03</pdfrwt>
<pdfrwt beam="2">  1        1 0.58684057E-01 0.23857919E+03</pdfrwt>
<totfact> 0.49926143E+03</totfact>
</mgrwt>
</event>
<event>
 5    0  0.2947253E-001  0.2448218E+03  0.7546771E-02  0.1116622E+00
         21   -1    0    0  503  502  0.00000000000E+00  0.00000000000E+00  0.10529503001E+03  0.10529503001E+03  0.00000000000E+00 0. -1.
          2   -1    0    0  502    0 -0.00000000000E+00 -0.00000000000E+00 -0.23879554575E+04  0.23879554575E+04  0.00000000000E+00 0. -1.
         25    1    1    2    0    0 -0.21012004408E+03  0.14301569625E+02 -0.54339338327E+02  0.25086397013E+03  0.12500000000E+03 0.  0.
         21    1    1    2  503  501 -0.18794358813E+00 -0.26591388318E+02 -0.93854981335E+02  0.97549447855E+02  0.00000000000E+00 0. -1.
          2    1    1    2  501    0  0.21030798767E+03  0.12289818694E+02 -0.21344661079E+04  0.21448370696E+04  0.00000000000E+00 0. -1.
<mgrwt>
<rscale>  4 0.24482182E+03</rscale>
<asrwt>0</asrwt>
<pdfrwt beam="1">  1       21 0.16199234E-01 0.24482182E+03</pdfrwt>
<pdfrwt beam="2">  1        2 0.36737779E+00 0.24482182E+03</pdfrwt>
<totfact> 0.19909589E+03</totfact>
</mgrwt>
</event>
<event>
 5    0  0.3287134E-001  0.5258030E+03  0.7546771E-02  0.1007255E+00
          2   -1    0    0  502    0 -0.00000000000E+00  0.00000000000E+00  0.17348997708E+04  0.17348997708E+04  0.00000000000E+00 0. -1.
         21   -1    0    0  503  502  0.00000000000E+00 -0.00000000000E+00 -0.54520416643E+03  0.54520416643E+03  0.00000000000E+00 0.  1.
         25    1    1    2    0    0  0.41897071782E+03 -0.29205471752E+03 -0.35709831545E+03  0.63559155699E+03  0.12500000000E+03 0.  0.
         21    1    1    2  503  501  0.16247780185E+02  0.23182569884E+02  0.21019966708E+02  0.35259905101E+02  0.00000000000E+00 0.  1.
          2    1    1    2  501    0 -0.43521849801E+03  0.26887214764E+03  0.15257739531E+04  0.16092524752E+04  0.00000000000E+00 0. -1.
<mgrwt>
<rscale>  4 0.52580296E+03</rscale>
<asrwt>0</asrwt>
<pdfrwt beam="1">  1       21 0.83877565E-01 0.52580296E+03</pdfrwt>
<pdfrwt beam="2">  1        2 0.26690765E+00 0.52580296E+03</pdfrwt>
<totfact> 0.13693034E+02</totfact>
</mgrwt>
</event>
<event>
 5    0  0.2947253E-001  0.2460013E+03  0.7546771E-02  0.1115858E+00
         21   -1    0    0  503  502  0.00000000000E+00  0.00000000000E+00  0.21979524987E+03  0.21979524987E+03  0.00000000000E+00 0. -1.
          2   -1    0    0  502    0 -0.00000000000E+00 -0.00000000000E+00 -0.94808717251E+03  0.94808717251E+03  0.00000000000E+00 0.  1.
         25    1    1    2    0    0 -0.14811515835E+02 -0.21408031397E+03  0.12867696245E+03  0.27970077314E+03  0.12500000000E+03 0.  0.
         21    1    1    2  503  501  0.17474305058E+02  0.30868294748E+02 -0.54260022116E+02  0.64825557907E+02  0.00000000000E+00 0. -1.
          2    1    1    2  501    0 -0.26627892225E+01  0.18321201922E+03 -0.80270886297E+03  0.82335609133E+03  0.00000000000E+00 0.  1.
<mgrwt>
<rscale>  4 0.24600134E+03</rscale>
<asrwt>0</asrwt>
<pdfrwt beam="1">  1       21 0.33814654E-01 0.24600134E+03</pdfrwt>
<pdfrwt beam="2">  1        2 0.14585956E+00 0.24600134E+03</pdfrwt>
<totfact> 0.29615456E+03</totfact>
</mgrwt>
</event>
<event>
 5    0  0.2947253E-001  0.3312844E+03  0.7546771E-02  0.1070570E+00
          2   -1    0    0  502    0 -0.00000000000E+00  0.00000000000E+00  0.22040100046E+04  0.22040100046E+04  0.00000000000E+00 0. -1.
         21   -1    0    0  503  502  0.00000000000E+00 -0.00000000000E+00 -0.11682431580E+04  0.11682431580E+04  0.00000000000E+00 0. -1.
         25    1    1    2    0    0 -0.16268330626E+03 -0.26011247225E+03 -0.11326286805E+04  0.11800835073E+04  0.12500000000E+03 0.  0.
         21    1    1    2  503  501  0.55470035785E+01  0.51440369354E+02  0.20294484374E+03  0.20943612499E+03  0.00000000000E+00 0. -1.
          2    1    1    2  501    0  0.15713630268E+03  0.20867210290E+03  0.19654506833E+04  0.19827335304E+04  0.00000000000E+00 0. -1.
<mgrwt>
<rscale>  4 0.33128440E+03</rscale>
<asrwt>0</asrwt>
<pdfrwt beam="1">  1       21 0.17972972E+00 0.33128440E+03</pdfrwt>
<pdfrwt beam="2">  1        2 0.33907846E+00 0.33128440E+03</pdfrwt>
<totfact> 0.11929091E+01</totfact>
</mgrwt>
</event>
<event>
 5    0  0.2947253E-001  0.2460923E+03  0.7546771E-02  0.1115800E+00
         21   -1    0    0  503  502  0.00000000000E+00  0.00000000000E+00  0.86786302542E+03  0.86786302542E+03  0.00000000000E+00 0.  1.
          3   -1    0    0  502    0 -0.00000000000E+00 -0.00000000000E+00 -0.73772922153E+02  0.73772922153E+02  0.00000000000E+00 0. -1.
         25    1    1    2    0    0 -0.20074764790E+02  0.21102941776E+03  0.60307784094E+03  0.65135573504E+03  0.12500000000E+03 0.  0.
         21    1    1    2  503  501  0.25005273529E+02 -0.73798644597E+02  0.94273880896E+02  0.12230726989E+03  0.00000000000E+00 0. -1.
          3    1    1    2  501    0 -0.49305087393E+01 -0.13723077316E+03  0.96738381436E+02  0.16797294265E+03  0.00000000000E+00 0. -1.
<mgrwt>
<rscale>  4 0.24609228E+03</rscale>
<asrwt>0</asrwt>
<pdfrwt beam="1">  1       21 0.13351738E+00 0.24609228E+03</pdfrwt>
<pdfrwt beam="2">  1        3 0.11349681E-01 0.24609228E+03</pdfrwt>
<totfact> 0.11756097E+03</totfact>
</mgrwt>
</event>
<event>
 5    0  0.2947253E-001  0.1913700E+03  0.7546771E-02  0.1157231E+00
          2   -1    0    0  502    0 -0.00000000000E+00  0.00000000000E+00  0.35247950366E+04  0.35247950366E+04  0.00000000000E+00 0. -1.
         21   -1    0    0  503  502  0.00000000000E+00 -0.00000000000E+00 -0.49932358933E+02  0.49932358933E+02  0.00000000000E+00 0.  1.
         25    1    1    2    0    0 -0.15373634465E+03 -0.14583413413E+03  0.30755413035E+03  0.39384895765E+03  0.12500000000E+03 0.  0.
         21    1    1    2  503  501  0.38712843512E+02  0.62103744503E+02  0.26033133557E+03  0.27042182533E+03  0.00000000000E+00 0.  1.
          2    1    1    2  501    0  0.11502350114E+03  0.83730389628E+02  0.29069772117E+04  0.29104566125E+04  0.00000000000E+00 0. -1.
<mgrwt>
<rscale>  4 0.19136997E+03</rscale>
<asrwt>0</asrwt>
<pdfrwt beam="1">  1       21 0.76819042E-02 0.19136997E+03</pdfrwt>
<pdfrwt beam="2">  1        2 0.54227596E+00 0.19136997E+03</pdfrwt>
<totfact> 0.16739187E+03</totfact>
</mgrwt>
</event>
<event>
 5    0  0.2947253E-001  0.2466013E+03  0.7546771E-02  0.1115472E+00
          2   -1    0    0  502    0 -0.00000000000E+00  0.00000000000E+00  0.15577468637E+04  0.15577468637E+04  0.00000000000E+00 0.  1.
         21   -1    0    0  503  502  0.00000000000E+00 -0.00000000000E+00 -0.34470886247E+03  0.34470886247E+03  0.00000000000E+00 0. -1.
         25    1    1    2    0    0  0.68304391694E+02  0.19284468249E+03 -0.23822463413E+03  0.33798008491E+03  0.12500000000E+03 0.  0.
         21    1    1    2  503  501  0.10119031253E+03  0.15944548979E+03  0.38544170528E+03  0.42921748769E+03  0.00000000000E+00 0.  1.
          2    1    1    2  501    0 -0.16949470423E+03 -0.35229017228E+03  0.10658209301E+04  0.11352581536E+04  0.00000000000E+00 0.  1.
<mgrwt>
<rscale>  4 0.24660126E+03</rscale>
<asrwt>0</asrwt>
<pdfrwt beam="1">  1       21 0.53032134E-01 0.24660126E+03</pdfrwt>
<pdfrwt beam="2">  1        2 0.23965336E+00 0.24660126E+03</pdfrwt>
<totfact> 0.53171873E+02</totfact>
</mgrwt>
</event>
<event>
 5    0  0.2947253E-001  0.2998290E+03  0.7546771E-02  0.1085326E+00
          2   -1    0    0  502    0 -0.00000000000E+00  0.00000000000E+00  0.35720865996E+04  0.35720865996E+04  0.00000000000E+00 0.  1.
         21   -1    0    0  503  502  0.00000000000E+00 -0.00000000000E+00 -0.39452669695E+02  0.39452669695E+02  0.00000000000E+00 0.  1.
         25    1    1    2    0    0 -0.59119323642E+02  0.26604015597E+03  0.66663182309E+03  0.73095516044E+03  0.12500000000E+03 0.  0.
         21    1    1    2  503  501  0.77488279014E+02 -0.22486662736E+03  0.25928870088E+04  0.26037727385E+04  0.00000000000E+00 0.  1.
          2    1    1    2  501    0 -0.18368955372E+02 -0.41173528614E+02  0.27311509804E+03  0.27681137036E+03  0.00000000000E+00 0.  1.
<mgrwt>
<rscale>  4 0.29982905E+03</rscale>
<asrwt>0</asrwt>
<pdfrwt beam="1">  1       21 0.60696443E-02 0.29982905E+03</pdfrwt>
<pdfrwt beam="2">  1        2 0.54955153E+00 0.29982905E+03</pdfrwt>
<totfact> 0.21897953E+03</totfact>
</mgrwt>
</event>
<event>
 5    0  0.2947253E-001  0.3658895E+03  0.7546771E-02  0.1056276E+00
         -1   -1    0    0    0  501 -0.00000000000E+00  0.00000000000E+00  0.10334610667E+04  0.10334610667E+04  0.00000000000E+00 0.  1.
         21   -1    0    0  501  502  0.00000000000E+00 -0.00000000000E+00 -0.23294633094E+03  0.23294633094E+03  0.00000000000E+00 0. -1.
         25    1    1    2    0    0 -0.15275779425E+03 -0.30808304233E+03 -0.28706560042E+02  0.36701385705E+03  0.12500000000E+03 0.  0.
         21    1    1    2  501  501  0.38476288097E+02  0.45185454425E+02  0.10691441144E+03  0.12228181145E+03  0.00000000000E+00 0. -1.
         -1    1    1    2    0  502  0.11428150615E+03  0.26289758790E+03  0.72230688441E+03  0.77711172919E+03  0.00000000000E+00 0.  1.
<mgrwt>
<rscale>  4 0.36588947E+03</rscale>
<asrwt>0</asrwt>
<pdfrwt beam="1">  1       21 0.35837898E-01 0.36588947E+03</pdfrwt>
<pdfrwt beam="2">  1       -1 0.15899401E+00 0.36588947E+03</pdfrwt>
<totfact> 0.21407988E+02</totfact>
</mgrwt>
</event>
<event>
 5    0  0.2947253E-001  0.2433741E+03  0.7546771E-02  0.1117565E+00
          2   -1    0    0  502    0 -0.00000000000E+00  0.00000000000E+00  0.63638523337E+03  0.63638523337E+03  0.00000000000E+00 0.  1.
         21   -1    0    0  503  502  0.00000000000E+00 -0.00000000000E+00 -0.10335225520E+03  0.10335225520E+03  0.00000000000E+00 0. -1.
         25    1    1    2    0    0  0.56992575471E+02 -0.20089250343E+03  0.11383741284E+03  0.26868179722E+03  0.12500000000E+03 0.  0.
         21    1    1    2  503  501 -0.23838569753E+02  0.32969610665E+02  0.52848193062E+02  0.66694858461E+02  0.00000000000E+00 0.  1.
          2    1    1    2  501    0 -0.33154005718E+02  0.16792289276E+03  0.36634737227E+03  0.40436083289E+03  0.00000000000E+00 0.  1.
<mgrwt>
<rscale>  4 0.24337410E+03</rscale>
<asrwt>0</asrwt>
<pdfrwt beam="1">  1       21 0.15900347E-01 0.24337410E+03</pdfrwt>
<pdfrwt beam="2">  1        2 0.97905418E-01 0.24337410E+03</pdfrwt>
<totfact> 0.20712836E+04</totfact>
</mgrwt>
</event>
<event>
 5    0  0.2947253E-001  0.2925646E+03  0.7546771E-02  0.1089018E+00
         21   -1    0    0  503  502  0.00000000000E+00  0.00000000000E+00  0.42280719606E+03  0.42280719606E+03  0.00000000000E+00 0. -1.
          2   -1    0    0  502    0 -0.00000000000E+00 -0.00000000000E+00 -0.37821739323E+04  0.37821739323E+04  0.00000000000E+00 0.  1.
         25    1    1    2    0    0  0.26107825633E+03  0.42889198264E+02  0.36610816032E+03  0.46868062079E+03  0.12500000000E+03 0.  0.
         21    1    1    2  503  501 -0.10569758509E+01 -0.20210732082E+02 -0.15812315022E+03  0.15941305319E+03  0.00000000000E+00 0.  1.
          2    1    1    2  501    0 -0.26002128048E+03 -0.22678466183E+02 -0.35673517463E+04  0.35768874543E+04  0.00000000000E+00 0.  1.
<mgrwt>
<rscale>  4 0.29256464E+03</rscale>
<asrwt>0</asrwt>
<pdfrwt beam="1">  1       21 0.65047261E-01 0.29256464E+03</pdfrwt>
<pdfrwt beam="2">  1        2 0.58187291E+00 0.29256464E+03</pdfrwt>
<totfact> 0.16903440E+01</totfact>
</mgrwt>
</event>
<event>
 5    0  0.2947253E-001  0.2727153E+03  0.7546771E-02  0.1099736E+00
         21   -1    0    0  503  502  0.00000000000E+00  0.00000000000E+00  0.70854010270E+03  0.70854010270E+03  0.00000000000E+00 0. -1.
          1   -1    0    0  502    0 -0.00000000000E+00 -0.00000000000E+00 -0.37002194819E+03  0.37002194819E+03  0.00000000000E+00 0. -1.
         25    1    1    2    0    0 -0.52449219784E+02 -0.28946683782E+03  0.55141731332E+03  0.63736019980E+03  0.12500000000E+03 0.  0.
         21    1    1    2  503  501 -0.69663104431E+01  0.58492149206E+02  0.56347928906E+02  0.81516563298E+02  0.00000000000E+00 0.  1.
          1    1    1    2  501    0  0.59415530227E+02  0.23097468862E+03 -0.26924708771E+03  0.35968528780E+03  0.00000000000E+00 0. -1.
<mgrwt>
<rscale>  4 0.27271528E+03</rscale>
<asrwt>0</asrwt>
<pdfrwt beam="1">  1       21 0.10900617E+00 0.27271528E+03</pdfrwt>
<pdfrwt beam="2">  1        1 0.56926454E-01 0.27271528E+03</pdfrwt>
<totfact> 0.47056130E+02</totfact>
</mgrwt>
</event>
<event>
 5    0  0.2947253E-001  0.3178975E+03  0.7546771E-02  0.1076621E+00
         -3   -1    0    0    0  501 -0.00000000000E+00  0.00000000000E+00  0.35795245547E+03  0.35795245547E+03  0.00000000000E+00 0. -1.
         21   -1    0    0  501  502  0.00000000000E+00 -0.00000000000E+00 -0.30539656910E+03  0.30539656910E+03  0.00000000000E+00 0. -1.
         25    1    1    2    0    0  0.27415606115E+03 -0.10135227073E+03 -0.85397768515E+02  0.32916805361E+03  0.12500000000E+03 0.  0.
         21    1    1    2  501  501 -0.29514634603E+02  0.69957411587E+01 -0.11420131681E+02  0.32411008280E+02  0.00000000000E+00 0.  1.
         -3    1    1    2    0  502 -0.24464142655E+03  0.94356529573E+02  0.14937378657E+03  0.30176996267E+03  0.00000000000E+00 0. -1.
<mgrwt>
<rscale>  4 0.31789751E+03</rscale>
<asrwt>0</asrwt>
<pdfrwt beam="1">  1       21 0.46984088E-01 0.31789751E+03</pdfrwt>
<pdfrwt beam="2">  1       -3 0.55069608E-01 0.31789751E+03</pdfrwt>
<totfact> 0.69126359E+02</totfact>
</mgrwt>
</event>
<event>
 5    0  0.2947253E-001  0.2608630E+03  0.7546771E-02  0.1106626E+00
         -3   -1    0    0    0  501 -0.00000000000E+00  0.00000000000E+00  0.11380978305E+04  0.11380978305E+04  0.00000000000E+00 0.  1.
         21   -1    0    0  501  502  0.00000000000E+00 -0.00000000000E+00 -0.44179910774E+03  0.44179910774E+03  0.00000000000E+00 0.  1.
         25    1    1    2    0    0  0.20319360817E+03 -0.11659237472E+03 -0.37680327952E+03  0.46096326936E+03  0.12500000000E+03 0.  0.
         21    1    1    2  501  501 -0.14779585960E+03 -0.58995722536E+01  0.81086041792E+03  0.82424088616E+03  0.00000000000E+00 0.  1.
         -3    1    1    2    0  502 -0.55397748565E+02  0.12249194697E+03  0.26224158436E+03  0.29469278272E+03  0.00000000000E+00 0.  1.
<mgrwt>
<rscale>  4 0.26086297E+03</rscale>
<asrwt>0</asrwt>
<pdfrwt beam="1">  1       21 0.67969094E-01 0.26086297E+03</pdfrwt>
<pdfrwt beam="2">  1       -3 0.17509197E+00 0.26086297E+03</pdfrwt>
<totfact> 0.21734064E+01</totfact>
</mgrwt>
</event>
<event>
 5    0  0.2947253E-001  0.3388007E+03  0.7546771E-02  0.1067308E+00
         21   -1    0    0  503  502  0.00000000000E+00  0.00000000000E+00  0.47385865899E+03  0.47385865899E+03  0.00000000000E+00 0. -1.
          2   -1    0    0  502    0 -0.00000000000E+00 -0.00000000000E+00 -0.44288822509E+03  0.44288822509E+03  0.00000000000E+00 0. -1.
         25    1    1    2    0    0  0.14217386622E+03  0.30627094622E+03  0.25754757856E+03  0.44268618225E+03  0.12500000000E+03 0.  0.
         21    1    1    2  503  501 -0.10768873305E+03 -0.25369929001E+03 -0.41650399505E+02  0.27873813653E+03  0.00000000000E+00 0. -1.
          2    1    1    2  501    0 -0.34485133167E+02 -0.52571656210E+02 -0.18492674515E+03  0.19532256531E+03  0.00000000000E+00 0. -1.
<mgrwt>
<rscale>  4 0.33880069E+03</rscale>
<asrwt>0</asrwt>
<pdfrwt beam="1">  1       21 0.72901332E-01 0.33880069E+03</pdfrwt>
<pdfrwt beam="2">  1        2 0.68136650E-01 0.33880069E+03</pdfrwt>
<totfact> 0.14295334E+03</totfact>
</mgrwt>
</event>
<event>
 5    0  0.2947253E-001  0.3587294E+03  0.7546771E-02  0.1059088E+00
          4   -1    0    0  502    0 -0.00000000000E+00  0.00000000000E+00  0.21772326815E+04  0.21772326815E+04  0.00000000000E+00 0.  1.
         21   -1    0    0  503  502  0.00000000000E+00 -0.00000000000E+00 -0.13880321461E+03  0.13880321461E+03  0.00000000000E+00 0. -1.
         25    1    1    2    0    0 -0.16452300660E+03 -0.29324732245E+03  0.13744326421E+03  0.38415812200E+03  0.12500000000E+03 0.  0.
         21    1    1    2  503  501  0.53581519817E+02  0.69504685545E+02  0.67776237496E+03  0.68342060072E+03  0.00000000000E+00 0.  1.
          4    1    1    2  501    0  0.11094148679E+03  0.22374263690E+03  0.12232238278E+04  0.12484571734E+04  0.00000000000E+00 0.  1.
<mgrwt>
<rscale>  4 0.35872944E+03</rscale>
<asrwt>0</asrwt>
<pdfrwt beam="1">  1       21 0.21354342E-01 0.35872944E+03</pdfrwt>
<pdfrwt beam="2">  1        4 0.33495885E+00 0.35872944E+03</pdfrwt>
<totfact> 0.18267140E+01</totfact>
</mgrwt>
</event>
<event>
 5    0  0.2947253E-001  0.3591906E+03  0.7546771E-02  0.1060070E+00
          2   -1    0    0  502    0 -0.00000000000E+00  0.00000000000E+00  0.24850797398E+04  0.24850797398E+04  0.00000000000E+00 0. -1.
         21   -1    0    0  503  502  0.00000000000E+00 -0.00000000000E+00 -0.56883926447E+02  0.56883926447E+02  0.00000000000E+00 0. -1.
         25    1    1    2    0    0 -0.24386715702E+03 -0.21393746870E+03  0.16301459990E+04  0.16668057502E+04  0.12500000000E+03 0.  0.
         21    1    1    2  503  501  0.26150691509E+03  0.17113453519E+03  0.70778320494E+03  0.77371180744E+03  0.00000000000E+00 0. -1.
          2    1    1    2  501    0 -0.17639758065E+02  0.42802933509E+02  0.90266609447E+02  0.10144610866E+03  0.00000000000E+00 0. -1.
<mgrwt>
<rscale>  4 0.35627186E+03</rscale>
<asrwt>0</asrwt>
<pdfrwt beam="1">  1       21 0.87513752E-02 0.35919058E+03</pdfrwt>
<pdfrwt beam="2">  1        2 0.38231988E+00 0.35919058E+03</pdfrwt>
<totfact> 0.51226809E+03</totfact>
</mgrwt>
</event>
<event>
 5    0  0.2947253E-001  0.3006851E+03  0.7546771E-02  0.1084899E+00
          2   -1    0    0  502    0 -0.00000000000E+00  0.00000000000E+00  0.71087859869E+03  0.71087859869E+03  0.00000000000E+00 0. -1.
         21   -1    0    0  503  502  0.00000000000E+00 -0.00000000000E+00 -0.71482174755E+03  0.71482174755E+03  0.00000000000E+00 0.  1.
         25    1    1    2    0    0 -0.21820004976E+03 -0.17528614596E+03 -0.63464753942E+03  0.70479712966E+03  0.12500000000E+03 0.  0.
         21    1    1    2  503  501  0.99662168323E+02  0.54759592805E+02  0.66092994385E+02  0.13152735345E+03  0.00000000000E+00 0. -1.
          2    1    1    2  501    0  0.11853788144E+03  0.12052655315E+03  0.56461139618E+03  0.58937586314E+03  0.00000000000E+00 0. -1.
<mgrwt>
<rscale>  4 0.30068505E+03</rscale>
<asrwt>0</asrwt>
<pdfrwt beam="1">  1       21 0.10997258E+00 0.30068505E+03</pdfrwt>
<pdfrwt beam="2">  1        2 0.10936594E+00 0.30068505E+03</pdfrwt>
<totfact> 0.31848278E+02</totfact>
</mgrwt>
</event>
<event>
 5    0  0.2947253E-001  0.3781874E+03  0.7546771E-02  0.1063460E+00
         21   -1    0    0  503  502  0.00000000000E+00  0.00000000000E+00  0.46441279453E+02  0.46441279453E+02  0.00000000000E+00 0.  1.
          1   -1    0    0  502    0 -0.00000000000E+00 -0.00000000000E+00 -0.25985872378E+04  0.25985872378E+04  0.00000000000E+00 0.  1.
         25    1    1    2    0    0  0.23836389965E+02  0.23924550612E+03 -0.62644669455E+03  0.68254453833E+03  0.12500000000E+03 0.  0.
         21    1    1    2  503  501 -0.49158324134E+02 -0.27600944997E+03 -0.18709685416E+04  0.18918565064E+04  0.00000000000E+00 0.  1.
          1    1    1    2  501    0  0.25321934169E+02  0.36763943848E+02 -0.54730722181E+02  0.70627472472E+02  0.00000000000E+00 0.  1.
<mgrwt>
<rscale>  4 0.34794905E+03</rscale>
<asrwt>0</asrwt>
<pdfrwt beam="1">  1       21 0.71448130E-02 0.37818740E+03</pdfrwt>
<pdfrwt beam="2">  1        1 0.39978261E+00 0.37818740E+03</pdfrwt>
<totfact> 0.21244462E+03</totfact>
</mgrwt>
</event>
<event>
 5    0  0.2947253E-001  0.3450165E+03  0.7546771E-02  0.1064679E+00
         -3   -1    0    0    0  501 -0.00000000000E+00  0.00000000000E+00  0.61601721116E+03  0.61601721116E+03  0.00000000000E+00 0.  1.
         21   -1    0    0  501  502  0.00000000000E+00 -0.00000000000E+00 -0.59458003099E+03  0.59458003099E+03  0.00000000000E+00 0.  1.
         25    1    1    2    0    0  0.15611517268E+03 -0.28148192971E+03 -0.48806681283E+03  0.59786138668E+03  0.12500000000E+03 0.  0.
         21    1    1    2  501  501 -0.19414664477E+02 -0.71101860003E+01  0.38232930407E+02  0.43465398989E+02  0.00000000000E+00 0. -1.
         -3    1    1    2    0  502 -0.13670050820E+03  0.28859211571E+03  0.47127106259E+03  0.56927045649E+03  0.00000000000E+00 0.  1.
<mgrwt>
<rscale>  4 0.34501651E+03</rscale>
<asrwt>0</asrwt>
<pdfrwt beam="1">  1       21 0.91473851E-01 0.34501651E+03</pdfrwt>
<pdfrwt beam="2">  1       -3 0.94771879E-01 0.34501651E+03</pdfrwt>
<totfact> 0.48387299E+01</totfact>
</mgrwt>
</event>
<event>
 5    0  0.2947253E-001  0.3977064E+03  0.7546771E-02  0.1044577E+00
         -1   -1    0    0    0  501 -0.00000000000E+00  0.00000000000E+00  0.10833793055E+04  0.10833793055E+04  0.00000000000E+00 0. -1.
         21   -1    0    0  501  502  0.00000000000E+00 -0.00000000000E+00 -0.99777859999E+03  0.99777859999E+03  0.00000000000E+00 0.  1.
         25    1    1    2    0    0  0.36934618211E+03 -0.78286516974E+02 -0.92203956058E+03  0.10041550340E+04  0.12500000000E+03 0.  0.
         21    1    1    2  501  501 -0.21834249523E+02  0.15278944998E+02  0.84818749208E+02  0.88906697328E+02  0.00000000000E+00 0.  1.
         -1    1    1    2    0  502 -0.34751193259E+03  0.63007571977E+02  0.92282151691E+03  0.98809617421E+03  0.00000000000E+00 0. -1.
<mgrwt>
<rscale>  4 0.39770640E+03</rscale>
<asrwt>0</asrwt>
<pdfrwt beam="1">  1       21 0.15350440E+00 0.39770640E+03</pdfrwt>
<pdfrwt beam="2">  1       -1 0.16667374E+00 0.39770640E+03</pdfrwt>
<totfact> 0.65266589E+00</totfact>
</mgrwt>
</event>
<event>
 5    0  0.2947253E-001  0.3070786E+03  0.7546771E-02  0.1081755E+00
         21   -1    0    0  503  502  0.00000000000E+00  0.00000000000E+00  0.56331560681E+02  0.56331560681E+02  0.00000000000E+00 0. -1.
          2   -1    0    0  502    0 -0.00000000000E+00 -0.00000000000E+00 -0.15678688155E+04  0.15678688155E+04  0.00000000000E+00 0. -1.
         25    1    1    2    0    0 -0.10200561545E+01  0.28048394542E+03 -0.80130265798E+03  0.85812774913E+03  0.12500000000E+03 0.  0.
         21    1    1    2  503  501 -0.13499474414E+02 -0.33732231937E+02 -0.56552339615E+02  0.67218051124E+02  0.00000000000E+00 0. -1.
          2    1    1    2  501    0  0.14519530569E+02 -0.24675171348E+03 -0.65368225721E+03  0.69885457591E+03  0.00000000000E+00 0. -1.
<mgrwt>
<rscale>  4 0.30707863E+03</rscale>
<asrwt>0</asrwt>
<pdfrwt beam="1">  1       21 0.86663936E-02 0.30707863E+03</pdfrwt>
<pdfrwt beam="2">  1        2 0.24121060E+00 0.30707863E+03</pdfrwt>
<totfact> 0.16364526E+04</totfact>
</mgrwt>
</event>
<event>
 5    0  0.2947253E-001  0.2641401E+03  0.7546771E-02  0.1104681E+00
         21   -1    0    0  501  502  0.00000000000E+00  0.00000000000E+00  0.31604969635E+03  0.31604969635E+03  0.00000000000E+00 0. -1.
         -1   -1    0    0    0  501 -0.00000000000E+00 -0.00000000000E+00 -0.93685493629E+03  0.93685493629E+03  0.00000000000E+00 0. -1.
         25    1    1    2    0    0  0.18725941224E+03 -0.15060356795E+03  0.21328251843E+03  0.34476362166E+03  0.12500000000E+03 0.  0.
         21    1    1    2  501  501 -0.13492484570E+03 -0.27148745781E+02 -0.17022059985E+03  0.21889911146E+03  0.00000000000E+00 0. -1.
         -1    1    1    2    0  502 -0.52334566542E+02  0.17775231373E+03 -0.66386715852E+03  0.68924189952E+03  0.00000000000E+00 0. -1.
<mgrwt>
<rscale>  4 0.26414014E+03</rscale>
<asrwt>0</asrwt>
<pdfrwt beam="1">  1       21 0.48623030E-01 0.26414014E+03</pdfrwt>
<pdfrwt beam="2">  1       -1 0.14413153E+00 0.26414014E+03</pdfrwt>
<totfact> 0.15411744E+02</totfact>
</mgrwt>
</event>
<event>
 5    0  0.2947253E-001  0.3365316E+03  0.7546771E-02  0.1068283E+00
         21   -1    0    0  503  502  0.00000000000E+00  0.00000000000E+00  0.11435343095E+03  0.11435343095E+03  0.00000000000E+00 0.  1.
          2   -1    0    0  502    0 -0.00000000000E+00 -0.00000000000E+00 -0.93748401180E+03  0.93748401180E+03  0.00000000000E+00 0.  1.
         25    1    1    2    0    0  0.20216691707E+03 -0.23823741161E+03 -0.42354059829E+03  0.54096225844E+03  0.12500000000E+03 0.  0.
         21    1    1    2  503  501 -0.59629422931E+02  0.57790837658E+02 -0.15037587681E+03  0.17177995612E+03  0.00000000000E+00 0.  1.
          2    1    1    2  501    0 -0.14253749414E+03  0.18044657395E+03 -0.24921410574E+03  0.33909522820E+03  0.00000000000E+00 0.  1.
<mgrwt>
<rscale>  4 0.33653161E+03</rscale>
<asrwt>0</asrwt>
<pdfrwt beam="1">  1       21 0.17592836E-01 0.33653161E+03</pdfrwt>
<pdfrwt beam="2">  1        2 0.14422830E+00 0.33653161E+03</pdfrwt>
<totfact> 0.10330871E+04</totfact>
</mgrwt>
</event>
<event>
 5    0  0.2947253E-001  0.3374186E+03  0.7546771E-02  0.1067901E+00
          2   -1    0    0  502    0 -0.00000000000E+00  0.00000000000E+00  0.14038814172E+04  0.14038814172E+04  0.00000000000E+00 0. -1.
         21   -1    0    0  503  502  0.00000000000E+00 -0.00000000000E+00 -0.55403858968E+03  0.55403858968E+03  0.00000000000E+00 0.  1.
         25    1    1    2    0    0  0.27716795242E+03 -0.14316286881E+03 -0.44119201086E+03  0.55461073854E+03  0.12500000000E+03 0.  0.
         21    1    1    2  503  501 -0.14691847554E+02 -0.10073099351E+03  0.53600172064E+02  0.11504591207E+03  0.00000000000E+00 0.  1.
          2    1    1    2  501    0 -0.26247610487E+03  0.24389386233E+03  0.12374346663E+04  0.12882633562E+04  0.00000000000E+00 0. -1.
<mgrwt>
<rscale>  4 0.33741862E+03</rscale>
<asrwt>0</asrwt>
<pdfrwt beam="1">  1       21 0.85236707E-01 0.33741862E+03</pdfrwt>
<pdfrwt beam="2">  1        2 0.21598176E+00 0.33741862E+03</pdfrwt>
<totfact> 0.21453116E+02</totfact>
</mgrwt>
</event>
<event>
 5    0  0.2947253E-001  0.3509155E+03  0.7546771E-02  0.1062240E+00
          2   -1    0    0  502    0 -0.00000000000E+00  0.00000000000E+00  0.32343039083E+04  0.32343039083E+04  0.00000000000E+00 0. -1.
         21   -1    0    0  503  502  0.00000000000E+00 -0.00000000000E+00 -0.62247470681E+02  0.62247470681E+02  0.00000000000E+00 0. -1.
         25    1    1    2    0    0 -0.29779977054E+03  0.25045334604E+03  0.10679593841E+04  0.11434919449E+04  0.12500000000E+03 0.  0.
         21    1    1    2  503  501  0.31568277787E+02 -0.17380682654E+03  0.93946742320E+03  0.95593117345E+03  0.00000000000E+00 0. -1.
          2    1    1    2  501    0  0.26623149275E+03 -0.76646519504E+02  0.11646296303E+04  0.11971282606E+04  0.00000000000E+00 0. -1.
<mgrwt>
<rscale>  4 0.35091552E+03</rscale>
<asrwt>0</asrwt>
<pdfrwt beam="1">  1       21 0.95765365E-02 0.35091552E+03</pdfrwt>
<pdfrwt beam="2">  1        2 0.49758509E+00 0.35091552E+03</pdfrwt>
<totfact> 0.15941275E+03</totfact>
</mgrwt>
</event>
<event>
 5    0  0.2947253E-001  0.2072697E+03  0.7546771E-02  0.1143747E+00
         21   -1    0    0  503  502  0.00000000000E+00  0.00000000000E+00  0.64551754182E+02  0.64551754182E+02  0.00000000000E+00 0.  1.
          2   -1    0    0  502    0 -0.00000000000E+00 -0.00000000000E+00 -0.11430196086E+04  0.11430196086E+04  0.00000000000E+00 0.  1.
         25    1    1    2    0    0  0.83475356437E+02 -0.18965559141E+03 -0.83634081729E+03  0.87064823042E+03  0.12500000000E+03 0.  0.
         21    1    1    2  503  501 -0.29413156073E+02  0.40925118609E+02 -0.13945681050E+03  0.14828419025E+03  0.00000000000E+00 0.  1.
          2    1    1    2  501    0 -0.54062200364E+02  0.14873047280E+03 -0.10267022666E+03  0.18863894213E+03  0.00000000000E+00 0.  1.
<mgrwt>
<rscale>  4 0.20726969E+03</rscale>
<asrwt>0</asrwt>
<pdfrwt beam="1">  1       21 0.99310401E-02 0.20726969E+03</pdfrwt>
<pdfrwt beam="2">  1        2 0.17584915E+00 0.20726969E+03</pdfrwt>
<totfact> 0.22519875E+04</totfact>
</mgrwt>
</event>
<event>
 5    0  0.2947253E-001  0.3499693E+03  0.7546771E-02  0.1062628E+00
          1   -1    0    0  502    0 -0.00000000000E+00  0.00000000000E+00  0.22406299368E+04  0.22406299368E+04  0.00000000000E+00 0.  1.
         21   -1    0    0  503  502  0.00000000000E+00 -0.00000000000E+00 -0.68866884012E+02  0.68866884012E+02  0.00000000000E+00 0. -1.
         25    1    1    2    0    0 -0.13272272469E+03 -0.30306522197E+03  0.58763246055E+03  0.68585768138E+03  0.12500000000E+03 0.  0.
         21    1    1    2  503  501  0.34610582516E+02 -0.83875158020E+00  0.21412077652E+03  0.21690159719E+03  0.00000000000E+00 0.  1.
          1    1    1    2  501    0  0.98112142170E+02  0.30390397355E+03  0.13700098158E+04  0.14067375423E+04  0.00000000000E+00 0.  1.
<mgrwt>
<rscale>  4 0.34996931E+03</rscale>
<asrwt>0</asrwt>
<pdfrwt beam="1">  1       21 0.10594907E-01 0.34996931E+03</pdfrwt>
<pdfrwt beam="2">  1        1 0.34471224E+00 0.34996931E+03</pdfrwt>
<totfact> 0.18460384E+03</totfact>
</mgrwt>
</event>
<event>
 5    0  0.2947253E-001  0.3187862E+03  0.7546771E-02  0.1076209E+00
          1   -1    0    0  502    0 -0.00000000000E+00  0.00000000000E+00  0.10392846475E+04  0.10392846475E+04  0.00000000000E+00 0.  1.
         21   -1    0    0  503  502  0.00000000000E+00 -0.00000000000E+00 -0.12457584535E+03  0.12457584535E+03  0.00000000000E+00 0.  1.
         25    1    1    2    0    0  0.10049504636E+03 -0.27550020049E+03  0.16955152629E+03  0.36107109394E+03  0.12500000000E+03 0.  0.
         21    1    1    2  503  501  0.66577586116E+01  0.29786240650E+02  0.82662503049E+02  0.88117167976E+02  0.00000000000E+00 0. -1.
          1    1    1    2  501    0 -0.10715280497E+03  0.24571395984E+03  0.66249477281E+03  0.71467223093E+03  0.00000000000E+00 0.  1.
<mgrwt>
<rscale>  4 0.31878616E+03</rscale>
<asrwt>0</asrwt>
<pdfrwt beam="1">  1       21 0.19165515E-01 0.31878616E+03</pdfrwt>
<pdfrwt beam="2">  1        1 0.15988994E+00 0.31878616E+03</pdfrwt>
<totfact> 0.40341180E+03</totfact>
</mgrwt>
</event>
<event>
 5    0  0.3330573E-001  0.3188005E+03  0.7546771E-02  0.1076203E+00
          2   -1    0    0  502    0 -0.00000000000E+00  0.00000000000E+00  0.17574143698E+04  0.17574143698E+04  0.00000000000E+00 0. -1.
         21   -1    0    0  503  502  0.00000000000E+00 -0.00000000000E+00 -0.82129298879E+02  0.82129298879E+02  0.00000000000E+00 0.  1.
         25    1    1    2    0    0  0.24435940325E+03  0.17209326500E+03  0.35473660184E+03  0.48040677192E+03  0.12500000000E+03 0.  0.
         21    1    1    2  503  501 -0.17219012313E+02  0.11320177399E+02  0.33010332098E+02  0.38914301055E+02  0.00000000000E+00 0. -1.
          2    1    1    2  501    0 -0.22714039094E+03 -0.18341344240E+03  0.12875381370E+04  0.13202225957E+04  0.00000000000E+00 0. -1.
<mgrwt>
<rscale>  4 0.31880052E+03</rscale>
<asrwt>0</asrwt>
<pdfrwt beam="1">  1       21 0.12635278E-01 0.31880052E+03</pdfrwt>
<pdfrwt beam="2">  1        2 0.27037141E+00 0.31880052E+03</pdfrwt>
<totfact> 0.65840270E+03</totfact>
</mgrwt>
</event>
<event>
 5    0  0.2947253E-001  0.2229554E+03  0.7546771E-02  0.1131699E+00
          1   -1    0    0  502    0 -0.00000000000E+00  0.00000000000E+00  0.19061885148E+04  0.19061885148E+04  0.00000000000E+00 0.  1.
         21   -1    0    0  503  502  0.00000000000E+00 -0.00000000000E+00 -0.47479058642E+02  0.47479058642E+02  0.00000000000E+00 0.  1.
         25    1    1    2    0    0  0.61274878826E+02 -0.22778188439E+03  0.49176747284E+03  0.55955289738E+03  0.12500000000E+03 0.  0.
         21    1    1    2  503  501  0.30838060178E+02  0.12314125786E+03  0.81565854742E+03  0.82547781395E+03  0.00000000000E+00 0.  1.
          1    1    1    2  501    0 -0.92112939004E+02  0.10464062652E+03  0.55128343591E+03  0.56863686212E+03  0.00000000000E+00 0.  1.
<mgrwt>
<rscale>  4 0.22295538E+03</rscale>
<asrwt>0</asrwt>
<pdfrwt beam="1">  1       21 0.73044720E-02 0.22295538E+03</pdfrwt>
<pdfrwt beam="2">  1        1 0.29325971E+00 0.22295538E+03</pdfrwt>
<totfact> 0.61576857E+03</totfact>
</mgrwt>
</event>
<event>
 5    0  0.2947253E-001  0.2704814E+03  0.7546771E-02  0.1101004E+00
          2   -1    0    0  502    0 -0.00000000000E+00  0.00000000000E+00  0.41152623635E+04  0.41152623635E+04  0.00000000000E+00 0. -1.
         21   -1    0    0  503  502  0.00000000000E+00 -0.00000000000E+00 -0.27657155960E+02  0.27657155960E+02  0.00000000000E+00 0.  1.
         25    1    1    2    0    0  0.22397797850E+03 -0.19823747497E+03  0.17041417362E+04  0.17347012102E+04  0.12500000000E+03 0.  0.
         21    1    1    2  503  501 -0.19213783062E+03  0.58342782762E+02  0.14233607595E+04  0.14374549308E+04  0.00000000000E+00 0. -1.
          2    1    1    2  501    0 -0.31840147875E+02  0.13989469221E+03  0.96010271173E+03  0.97076337848E+03  0.00000000000E+00 0. -1.
<mgrwt>
<rscale>  4 0.27048140E+03</rscale>
<asrwt>0</asrwt>
<pdfrwt beam="1">  1       21 0.42549503E-02 0.27048140E+03</pdfrwt>
<pdfrwt beam="2">  1        2 0.63311680E+00 0.27048140E+03</pdfrwt>
<totfact> 0.16341379E+03</totfact>
</mgrwt>
</event>
<event>
 5    0  0.2947253E-001  0.2670291E+03  0.7546771E-02  0.1102992E+00
          2   -1    0    0  502    0 -0.00000000000E+00  0.00000000000E+00  0.86293474568E+03  0.86293474568E+03  0.00000000000E+00 0. -1.
         21   -1    0    0  503  502  0.00000000000E+00 -0.00000000000E+00 -0.77575837208E+02  0.77575837208E+02  0.00000000000E+00 0. -1.
         25    1    1    2    0    0  0.12655347752E+02 -0.23562555043E+03  0.32751739632E+03  0.42257804337E+03  0.12500000000E+03 0.  0.
         21    1    1    2  503  501 -0.20727528613E+02  0.44557106028E+02  0.70286681705E+02  0.85762368001E+02  0.00000000000E+00 0. -1.
          2    1    1    2  501    0  0.80721808617E+01  0.19106844440E+03  0.38755483044E+03  0.43217017152E+03  0.00000000000E+00 0. -1.
<mgrwt>
<rscale>  4 0.26702913E+03</rscale>
<asrwt>0</asrwt>
<pdfrwt beam="1">  1       21 0.11934745E-01 0.26702913E+03</pdfrwt>
<pdfrwt beam="2">  1        2 0.13275918E+00 0.26702913E+03</pdfrwt>
<totfact> 0.23823603E+04</totfact>
</mgrwt>
</event>
<event>
 5    0  0.2947253E-001  0.4181652E+03  0.7546771E-02  0.1037665E+00
          4   -1    0    0  502    0 -0.00000000000E+00  0.00000000000E+00  0.83153988079E+03  0.83153988079E+03  0.00000000000E+00 0. -1.
         21   -1    0    0  503  502  0.00000000000E+00 -0.00000000000E+00 -0.26370005849E+03  0.26370005849E+03  0.00000000000E+00 0.  1.
         25    1    1    2    0    0 -0.39807837567E+03 -0.11428087570E+03  0.75888650830E+02  0.43921589117E+03  0.12500000000E+03 0.  0.
         21    1    1    2  503  501  0.22098969355E+02 -0.13850029111E+01 -0.45236955765E+01  0.22599701353E+02  0.00000000000E+00 0.  1.
          4    1    1    2  501    0  0.37597940632E+03  0.11566587861E+03  0.49647486705E+03  0.63342434675E+03  0.00000000000E+00 0. -1.
<mgrwt>
<rscale>  4 0.41816521E+03</rscale>
<asrwt>0</asrwt>
<pdfrwt beam="1">  1       21 0.40569240E-01 0.41816521E+03</pdfrwt>
<pdfrwt beam="2">  1        4 0.12792921E+00 0.41816521E+03</pdfrwt>
<totfact> 0.11214708E+02</totfact>
</mgrwt>
</event>
<event>
 5    0  0.2947253E-001  0.3210981E+03  0.7546771E-02  0.1075145E+00
         21   -1    0    0  503  502  0.00000000000E+00  0.00000000000E+00  0.56256371663E+03  0.56256371663E+03  0.00000000000E+00 0.  1.
          2   -1    0    0  502    0 -0.00000000000E+00 -0.00000000000E+00 -0.13260153411E+04  0.13260153411E+04  0.00000000000E+00 0.  1.
         25    1    1    2    0    0 -0.26924170359E+03  0.12022878022E+03  0.48355224796E+03  0.57999468192E+03  0.12500000000E+03 0.  0.
         21    1    1    2  503  501 -0.39193713918E+02 -0.30168474012E+02 -0.54707827869E+02  0.73751138738E+02  0.00000000000E+00 0.  1.
          2    1    1    2  501    0  0.30843541751E+03 -0.90060306205E+02 -0.11922960445E+04  0.12348332370E+04  0.00000000000E+00 0.  1.
<mgrwt>
<rscale>  4 0.32109806E+03</rscale>
<asrwt>0</asrwt>
<pdfrwt beam="1">  1       21 0.86548266E-01 0.32109806E+03</pdfrwt>
<pdfrwt beam="2">  1        2 0.20400236E+00 0.32109806E+03</pdfrwt>
<totfact> 0.23041640E+02</totfact>
</mgrwt>
</event>
<event>
 5    0  0.2947253E-001  0.2466446E+03  0.7546771E-02  0.1115444E+00
         -1   -1    0    0    0  501 -0.00000000000E+00  0.00000000000E+00  0.98031013913E+03  0.98031013913E+03  0.00000000000E+00 0. -1.
         21   -1    0    0  501  502  0.00000000000E+00 -0.00000000000E+00 -0.86524126098E+03  0.86524126098E+03  0.00000000000E+00 0.  1.
         25    1    1    2    0    0 -0.72649606630E+02 -0.20100416097E+03 -0.80967404900E+03  0.84668630772E+03  0.12500000000E+03 0.  0.
         21    1    1    2  501  501 -0.75915025976E+02  0.82729056420E+02  0.93223241323E+02  0.14593752317E+03  0.00000000000E+00 0.  1.
         -1    1    1    2    0  502  0.14856463261E+03  0.11827510455E+03  0.83151968583E+03  0.85292756922E+03  0.00000000000E+00 0. -1.
<mgrwt>
<rscale>  4 0.24664461E+03</rscale>
<asrwt>0</asrwt>
<pdfrwt beam="1">  1       21 0.13311404E+00 0.24664461E+03</pdfrwt>
<pdfrwt beam="2">  1       -1 0.15081694E+00 0.24664461E+03</pdfrwt>
<totfact> 0.13703046E+01</totfact>
</mgrwt>
</event>
<event>
 5    0  0.2947253E-001  0.2637636E+03  0.7546771E-02  0.1104903E+00
          2   -1    0    0  502    0 -0.00000000000E+00  0.00000000000E+00  0.41678756933E+03  0.41678756933E+03  0.00000000000E+00 0. -1.
         21   -1    0    0  503  502  0.00000000000E+00 -0.00000000000E+00 -0.21192303164E+03  0.21192303164E+03  0.00000000000E+00 0.  1.
         25    1    1    2    0    0 -0.17241905669E+03 -0.15831295497E+03 -0.39424453216E+02  0.26827338730E+03  0.12500000000E+03 0.  0.
         21    1    1    2  503  501  0.26276418216E+02 -0.18501086473E+02  0.12948206882E+02  0.34646737457E+02  0.00000000000E+00 0.  1.
          2    1    1    2  501    0  0.14614263848E+03  0.17681404144E+03  0.23134078403E+03  0.32579047621E+03  0.00000000000E+00 0. -1.
<mgrwt>
<rscale>  4 0.26376357E+03</rscale>
<asrwt>0</asrwt>
<pdfrwt beam="1">  1       21 0.32603543E-01 0.26376357E+03</pdfrwt>
<pdfrwt beam="2">  1        2 0.64121164E-01 0.26376357E+03</pdfrwt>
<totfact> 0.84788315E+03</totfact>
</mgrwt>
</event>
<event>
 5    0  0.2947253E-001  0.2431467E+03  0.7546771E-02  0.1117714E+00
         21   -1    0    0  503  502  0.00000000000E+00  0.00000000000E+00  0.33534187846E+03  0.33534187846E+03  0.00000000000E+00 0. -1.
          2   -1    0    0  502    0 -0.00000000000E+00 -0.00000000000E+00 -0.22848020885E+03  0.22848020885E+03  0.00000000000E+00 0.  1.
         25    1    1    2    0    0  0.77185763292E+02 -0.19444361644E+03  0.18740225178E+03  0.30742570810E+03  0.12500000000E+03 0.  0.
         21    1    1    2  503  501  0.29101013516E+02  0.14787354187E+02  0.35620254017E-01  0.32642550457E+02  0.00000000000E+00 0.  1.
          2    1    1    2  501    0 -0.10628677681E+03  0.17965626225E+03 -0.80576202419E+02  0.22375382876E+03  0.00000000000E+00 0.  1.
<mgrwt>
<rscale>  4 0.24314671E+03</rscale>
<asrwt>0</asrwt>
<pdfrwt beam="1">  1       21 0.51591058E-01 0.24314671E+03</pdfrwt>
<pdfrwt beam="2">  1        2 0.35150801E-01 0.24314671E+03</pdfrwt>
<totfact> 0.64039958E+03</totfact>
</mgrwt>
</event>
<event>
 5    0  0.2947253E-001  0.3557882E+03  0.7546771E-02  0.1072870E+00
          2   -1    0    0  502    0 -0.00000000000E+00  0.00000000000E+00  0.76412663544E+03  0.76412663544E+03  0.00000000000E+00 0.  1.
         21   -1    0    0  503  502  0.00000000000E+00 -0.00000000000E+00 -0.13065490677E+03  0.13065490677E+03  0.00000000000E+00 0.  1.
         25    1    1    2    0    0  0.13016841841E+03 -0.17463302806E+03  0.14342814874E+03  0.28920087395E+03  0.12500000000E+03 0.  0.
         21    1    1    2  503  501 -0.14642716486E+03  0.60893151388E+02  0.46036473307E+03  0.48691331667E+03  0.00000000000E+00 0.  1.
          2    1    1    2  501    0  0.16258746451E+02  0.11373987668E+03  0.29678846865E+02  0.11866735159E+03  0.00000000000E+00 0.  1.
<mgrwt>
<rscale>  4 0.32611264E+03</rscale>
<asrwt>0</asrwt>
<pdfrwt beam="1">  1       21 0.20100755E-01 0.35578819E+03</pdfrwt>
<pdfrwt beam="2">  1        2 0.11755794E+00 0.35578819E+03</pdfrwt>
<totfact> 0.10500630E+04</totfact>
</mgrwt>
</event>
<event>
 5    0  0.2947253E-001  0.2692624E+03  0.7546771E-02  0.1101702E+00
          2   -1    0    0  502    0 -0.00000000000E+00  0.00000000000E+00  0.45010997835E+04  0.45010997835E+04  0.00000000000E+00 0. -1.
         21   -1    0    0  503  502  0.00000000000E+00 -0.00000000000E+00 -0.76210989519E+02  0.76210989519E+02  0.00000000000E+00 0. -1.
         25    1    1    2    0    0  0.15720086464E+03  0.17934645684E+03  0.17614585695E+03  0.32176020006E+03  0.12500000000E+03 0.  0.
         21    1    1    2  503  501 -0.19187484896E+02 -0.21831893261E+02  0.73267591234E+03  0.73325219650E+03  0.00000000000E+00 0.  1.
          2    1    1    2  501    0 -0.13801337974E+03 -0.15751456358E+03  0.35160670247E+04  0.35222983764E+04  0.00000000000E+00 0. -1.
<mgrwt>
<rscale>  4 0.26926244E+03</rscale>
<asrwt>0</asrwt>
<pdfrwt beam="1">  1       21 0.11724771E-01 0.26926244E+03</pdfrwt>
<pdfrwt beam="2">  1        2 0.69247668E+00 0.26926244E+03</pdfrwt>
<totfact> 0.13035200E+02</totfact>
</mgrwt>
</event>
<event>
 5    0  0.2947253E-001  0.7023961E+03  0.7546771E-02  0.9714329E-01
         21   -1    0    0  503  502  0.00000000000E+00  0.00000000000E+00  0.13037001905E+04  0.13037001905E+04  0.00000000000E+00 0.  1.
          2   -1    0    0  502    0 -0.00000000000E+00 -0.00000000000E+00 -0.46290444763E+03  0.46290444763E+03  0.00000000000E+00 0.  1.
         25    1    1    2    0    0  0.63373801605E+03 -0.26872795987E+03  0.80037772843E+03  0.10630466112E+04  0.12500000000E+03 0.  0.
         21    1    1    2  503  501 -0.76997106299E+02  0.66073693004E+02  0.45171174485E+02  0.11106179492E+03  0.00000000000E+00 0.  1.
          2    1    1    2  501    0 -0.55674090975E+03  0.20265426686E+03 -0.47531600232E+01  0.59249623205E+03  0.00000000000E+00 0.  1.
<mgrwt>
<rscale>  4 0.70170023E+03</rscale>
<asrwt>0</asrwt>
<pdfrwt beam="1">  1       21 0.20056926E+00 0.70239610E+03</pdfrwt>
<pdfrwt beam="2">  1        2 0.71216069E-01 0.70239610E+03</pdfrwt>
<totfact> 0.89560268E+01</totfact>
</mgrwt>
</event>
<event>
 5    0  0.2947253E-001  0.2323260E+03  0.7546771E-02  0.1125013E+00
         21   -1    0    0  501  502  0.00000000000E+00  0.00000000000E+00  0.12225799924E+03  0.12225799924E+03  0.00000000000E+00 0.  1.
         -1   -1    0    0    0  501 -0.00000000000E+00 -0.00000000000E+00 -0.97812231448E+03  0.97812231448E+03  0.00000000000E+00 0.  1.
         25    1    1    2    0    0 -0.17624897550E+03 -0.13742931053E+03 -0.59038053702E+02  0.26279461285E+03  0.12500000000E+03 0.  0.
         21    1    1    2  501  501  0.10353481586E+03  0.14311352000E+02 -0.45891671047E+03  0.47066848210E+03  0.00000000000E+00 0.  1.
         -1    1    1    2    0  502  0.72714159644E+02  0.12311795853E+03 -0.33790955107E+03  0.36691721877E+03  0.00000000000E+00 0.  1.
<mgrwt>
<rscale>  4 0.23232602E+03</rscale>
<asrwt>0</asrwt>
<pdfrwt beam="1">  1       21 0.18808924E-01 0.23232602E+03</pdfrwt>
<pdfrwt beam="2">  1       -1 0.15048035E+00 0.23232602E+03</pdfrwt>
<totfact> 0.90468984E+02</totfact>
</mgrwt>
</event>
<event>
 5    0  0.2947253E-001  0.2559194E+03  0.7546771E-02  0.1109620E+00
         21   -1    0    0  501  502  0.00000000000E+00  0.00000000000E+00  0.73544218556E+03  0.73544218556E+03  0.00000000000E+00 0. -1.
         -3   -1    0    0    0  501 -0.00000000000E+00 -0.00000000000E+00 -0.85841023361E+02  0.85841023361E+02  0.00000000000E+00 0. -1.
         25    1    1    2    0    0  0.18332425313E+03 -0.12752233963E+03  0.30022436947E+03  0.39449892384E+03  0.12500000000E+03 0.  0.
         21    1    1    2  501  501 -0.14830570532E+03  0.61477270545E+02  0.28938280515E+03  0.33093268945E+03  0.00000000000E+00 0. -1.
         -3    1    1    2    0  502 -0.35018547803E+02  0.66045069082E+02  0.59993987580E+02  0.95851595637E+02  0.00000000000E+00 0. -1.
<mgrwt>
<rscale>  4 0.25591938E+03</rscale>
<asrwt>0</asrwt>
<pdfrwt beam="1">  1       21 0.11314495E+00 0.25591938E+03</pdfrwt>
<pdfrwt beam="2">  1       -3 0.13206312E-01 0.25591938E+03</pdfrwt>
<totfact> 0.13745826E+03</totfact>
</mgrwt>
</event>
<event>
 5    0  0.2947253E-001  0.3141224E+03  0.7546771E-02  0.1078387E+00
         21   -1    0    0  501  502  0.00000000000E+00  0.00000000000E+00  0.76187944231E+03  0.76187944231E+03  0.00000000000E+00 0. -1.
         -4   -1    0    0    0  501 -0.00000000000E+00 -0.00000000000E+00 -0.47329677425E+03  0.47329677425E+03  0.00000000000E+00 0.  1.
         25    1    1    2    0    0  0.12002972789E+03  0.26199378648E+03  0.67689297025E+03  0.74622849913E+03  0.12500000000E+03 0.  0.
         21    1    1    2  501  501 -0.10493515293E+02 -0.10520389582E+03 -0.13111031209E+03  0.16842769219E+03  0.00000000000E+00 0.  1.
         -4    1    1    2    0  502 -0.10953621259E+03 -0.15678989065E+03 -0.25719999009E+03  0.32052002525E+03  0.00000000000E+00 0.  1.
<mgrwt>
<rscale>  4 0.31412240E+03</rscale>
<asrwt>0</asrwt>
<pdfrwt beam="1">  1       21 0.11721222E+00 0.31412240E+03</pdfrwt>
<pdfrwt beam="2">  1       -4 0.72814889E-01 0.31412240E+03</pdfrwt>
<totfact> 0.39536218E+01</totfact>
</mgrwt>
</event>
<event>
 5    0  0.2947253E-001  0.3954192E+03  0.7546771E-02  0.1045377E+00
          2   -1    0    0  502    0 -0.00000000000E+00  0.00000000000E+00  0.21724511310E+04  0.21724511310E+04  0.00000000000E+00 0. -1.
         21   -1    0    0  503  502  0.00000000000E+00 -0.00000000000E+00 -0.14303667802E+03  0.14303667802E+03  0.00000000000E+00 0.  1.
         25    1    1    2    0    0  0.32810703021E+03 -0.26088091467E+03  0.30390658364E+03  0.53263241217E+03  0.12500000000E+03 0.  0.
         21    1    1    2  503  501 -0.34384476406E+02  0.40191033260E+02  0.73896736513E+02  0.90875403930E+02  0.00000000000E+00 0. -1.
          2    1    1    2  501    0 -0.29372255381E+03  0.22068988141E+03  0.16516111328E+04  0.16919799929E+04  0.00000000000E+00 0. -1.
<mgrwt>
<rscale>  4 0.39541921E+03</rscale>
<asrwt>0</asrwt>
<pdfrwt beam="1">  1       21 0.22005644E-01 0.39541921E+03</pdfrwt>
<pdfrwt beam="2">  1        2 0.33422323E+00 0.39541921E+03</pdfrwt>
<totfact> 0.13747070E+03</totfact>
</mgrwt>
</event>
<event>
 5    0  0.2947253E-001  0.2413351E+03  0.7546771E-02  0.1118907E+00
          2   -1    0    0  502    0 -0.00000000000E+00  0.00000000000E+00  0.86021093110E+03  0.86021093110E+03  0.00000000000E+00 0.  1.
         21   -1    0    0  503  502  0.00000000000E+00 -0.00000000000E+00 -0.95542974362E+02  0.95542974362E+02  0.00000000000E+00 0.  1.
         25    1    1    2    0    0  0.80189138460E+00  0.20643882850E+03  0.69512790813E+03  0.73582976401E+03  0.12500000000E+03 0.  0.
         21    1    1    2  503  501 -0.88796139810E+01 -0.18835953264E+02  0.56670040819E+01  0.21581371946E+02  0.00000000000E+00 0.  1.
          2    1    1    2  501    0  0.80777225964E+01 -0.18760287523E+03  0.63873044526E+02  0.19834276951E+03  0.00000000000E+00 0.  1.
<mgrwt>
<rscale>  4 0.24133511E+03</rscale>
<asrwt>0</asrwt>
<pdfrwt beam="1">  1       21 0.14698920E-01 0.24133511E+03</pdfrwt>
<pdfrwt beam="2">  1        2 0.13234014E+00 0.24133511E+03</pdfrwt>
<totfact> 0.16466996E+04</totfact>
</mgrwt>
</event>
<event>
 5    0  0.2947253E-001  0.3460336E+03  0.7546771E-02  0.1064255E+00
          2   -1    0    0  502    0 -0.00000000000E+00  0.00000000000E+00  0.28991795023E+04  0.28991795023E+04  0.00000000000E+00 0.  1.
         21   -1    0    0  503  502  0.00000000000E+00 -0.00000000000E+00 -0.71086285040E+03  0.71086285040E+03  0.00000000000E+00 0.  1.
         25    1    1    2    0    0 -0.28094105482E+03 -0.15970346358E+03 -0.65244010808E+03  0.73873958009E+03  0.12500000000E+03 0.  0.
         21    1    1    2  503  501  0.64356387583E+02 -0.67723810867E+02  0.95659626862E+03  0.96114758509E+03  0.00000000000E+00 0. -1.
          2    1    1    2  501    0  0.21658466724E+03  0.22742727445E+03  0.18841604914E+04  0.19101551876E+04  0.00000000000E+00 0.  1.
<mgrwt>
<rscale>  4 0.34603364E+03</rscale>
<asrwt>0</asrwt>
<pdfrwt beam="1">  1       21 0.10936352E+00 0.34603364E+03</pdfrwt>
<pdfrwt beam="2">  1        2 0.44602761E+00 0.34603364E+03</pdfrwt>
<totfact> 0.17980039E+01</totfact>
</mgrwt>
</event>
<event>
 5    0  0.2947253E-001  0.2800634E+03  0.7546771E-02  0.1095654E+00
         21   -1    0    0  503  502  0.00000000000E+00  0.00000000000E+00  0.20214005848E+03  0.20214005848E+03  0.00000000000E+00 0.  1.
          4   -1    0    0  502    0 -0.00000000000E+00 -0.00000000000E+00 -0.38736729400E+03  0.38736729400E+03  0.00000000000E+00 0.  1.
         25    1    1    2    0    0  0.24045597192E+03 -0.70650045066E+02 -0.37363817939E+02  0.28254478971E+03  0.12500000000E+03 0.  0.
         21    1    1    2  503  501 -0.55486604667E+02  0.28308194180E+02 -0.88338109557E+02  0.10809134450E+03  0.00000000000E+00 0. -1.
          4    1    1    2  501    0 -0.18496936726E+03  0.42341850885E+02 -0.59525308022E+02  0.19887121827E+03  0.00000000000E+00 0.  1.
<mgrwt>
<rscale>  4 0.28006339E+03</rscale>
<asrwt>0</asrwt>
<pdfrwt beam="1">  1       21 0.31098471E-01 0.28006339E+03</pdfrwt>
<pdfrwt beam="2">  1        4 0.59594967E-01 0.28006339E+03</pdfrwt>
<totfact> 0.11252704E+03</totfact>
</mgrwt>
</event>
<event>
 5    0  0.2947253E-001  0.2224314E+03  0.7546771E-02  0.1132083E+00
         21   -1    0    0  503  502  0.00000000000E+00  0.00000000000E+00  0.65338501665E+02  0.65338501665E+02  0.00000000000E+00 0.  1.
          2   -1    0    0  502    0 -0.00000000000E+00 -0.00000000000E+00 -0.12187431611E+04  0.12187431611E+04  0.00000000000E+00 0.  1.
         25    1    1    2    0    0 -0.20795431211E+03 -0.68390483323E+02 -0.27897832579E+03  0.37600021329E+03  0.12500000000E+03 0.  0.
         21    1    1    2  503  501  0.34637224645E+02  0.31253440916E+02 -0.68397288593E+02  0.82793139734E+02  0.00000000000E+00 0. -1.
          2    1    1    2  501    0  0.17331708746E+03  0.37137042407E+02 -0.80602904509E+03  0.82528830978E+03  0.00000000000E+00 0.  1.
<mgrwt>
<rscale>  4 0.22243143E+03</rscale>
<asrwt>0</asrwt>
<pdfrwt beam="1">  1       21 0.10052078E-01 0.22243143E+03</pdfrwt>
<pdfrwt beam="2">  1        2 0.18749893E+00 0.22243143E+03</pdfrwt>
<totfact> 0.19893371E+04</totfact>
</mgrwt>
</event>
<event>
 5    0  0.2947253E-001  0.2385707E+03  0.7546771E-02  0.1120749E+00
         21   -1    0    0  503  502  0.00000000000E+00  0.00000000000E+00  0.84765713521E+02  0.84765713521E+02  0.00000000000E+00 0. -1.
          1   -1    0    0  502    0 -0.00000000000E+00 -0.00000000000E+00 -0.58510311646E+03  0.58510311646E+03  0.00000000000E+00 0. -1.
         25    1    1    2    0    0 -0.15124996522E+03  0.13569971352E+03 -0.25974998054E+03  0.35268401809E+03  0.12500000000E+03 0.  0.
         21    1    1    2  503  501  0.26732603604E+02 -0.86761939672E+01 -0.24336022760E+02  0.37177283937E+02  0.00000000000E+00 0. -1.
          1    1    1    2  501    0  0.12451736162E+03 -0.12702351955E+03 -0.21625139965E+03  0.28000752796E+03  0.00000000000E+00 0. -1.
<mgrwt>
<rscale>  4 0.23857067E+03</rscale>
<asrwt>0</asrwt>
<pdfrwt beam="1">  1       21 0.13040879E-01 0.23857067E+03</pdfrwt>
<pdfrwt beam="2">  1        1 0.90015863E-01 0.23857067E+03</pdfrwt>
<totfact> 0.20277890E+04</totfact>
</mgrwt>
</event>
<event>
 5    0  0.2947253E-001  0.2972453E+03  0.7546771E-02  0.1086626E+00
         21   -1    0    0  503  502  0.00000000000E+00  0.00000000000E+00  0.55679050592E+02  0.55679050592E+02  0.00000000000E+00 0.  1.
          4   -1    0    0  502    0 -0.00000000000E+00 -0.00000000000E+00 -0.17711004449E+04  0.17711004449E+04  0.00000000000E+00 0.  1.
         25    1    1    2    0    0 -0.92491389992E+02  0.25332805662E+03 -0.11926289727E+04  0.12291129436E+04  0.12500000000E+03 0.  0.
         21    1    1    2  503  501  0.68361719246E+02 -0.16652409452E+03 -0.23450299646E+03  0.29562688319E+03  0.00000000000E+00 0.  1.
          4    1    1    2  501    0  0.24129670746E+02 -0.86803962097E+02 -0.28828942514E+03  0.30203966874E+03  0.00000000000E+00 0.  1.
<mgrwt>
<rscale>  4 0.29724529E+03</rscale>
<asrwt>0</asrwt>
<pdfrwt beam="1">  1       21 0.85660069E-02 0.29724529E+03</pdfrwt>
<pdfrwt beam="2">  1        4 0.27247702E+00 0.29724529E+03</pdfrwt>
<totfact> 0.23484073E+02</totfact>
</mgrwt>
</event>
<event>
 5    0  0.2947253E-001  0.3093542E+03  0.7546771E-02  0.1080656E+00
         21   -1    0    0  503  502  0.00000000000E+00  0.00000000000E+00  0.17944124186E+03  0.17944124186E+03  0.00000000000E+00 0.  1.
          1   -1    0    0  502    0 -0.00000000000E+00 -0.00000000000E+00 -0.52179874246E+03  0.52179874246E+03  0.00000000000E+00 0.  1.
         25    1    1    2    0    0 -0.19054117731E+03  0.20921065690E+03 -0.99296808684E+02  0.32489982368E+03  0.12500000000E+03 0.  0.
         21    1    1    2  503  501  0.26247920432E+02 -0.11783542831E+02 -0.13187728590E+02  0.31649982527E+02  0.00000000000E+00 0. -1.
          1    1    1    2  501    0  0.16429325688E+03 -0.19742711407E+03 -0.22987296332E+03  0.34469017812E+03  0.00000000000E+00 0.  1.
<mgrwt>
<rscale>  4 0.30935423E+03</rscale>
<asrwt>0</asrwt>
<pdfrwt beam="1">  1       21 0.27606345E-01 0.30935423E+03</pdfrwt>
<pdfrwt beam="2">  1        1 0.80276729E-01 0.30935423E+03</pdfrwt>
<totfact> 0.57351529E+03</totfact>
</mgrwt>
</event>
<event>
 5    0  0.2947253E-001  0.2431076E+03  0.7546771E-02  0.1117740E+00
         21   -1    0    0  503  502  0.00000000000E+00  0.00000000000E+00  0.13218002559E+04  0.13218002559E+04  0.00000000000E+00 0.  1.
          1   -1    0    0  502    0 -0.00000000000E+00 -0.00000000000E+00 -0.81665214794E+03  0.81665214794E+03  0.00000000000E+00 0.  1.
         25    1    1    2    0    0  0.20510331900E+03  0.35944468833E+02  0.12904831098E+04  0.13131378575E+04  0.12500000000E+03 0.  0.
         21    1    1    2  503  501  0.21335395890E+02 -0.14987204971E+02 -0.69707553158E+02  0.74424178853E+02  0.00000000000E+00 0. -1.
          1    1    1    2  501    0 -0.22643871489E+03 -0.20957263862E+02 -0.71562744870E+03  0.75089036740E+03  0.00000000000E+00 0.  1.
<mgrwt>
<rscale>  4 0.24310756E+03</rscale>
<asrwt>0</asrwt>
<pdfrwt beam="1">  1       21 0.20335389E+00 0.24310756E+03</pdfrwt>
<pdfrwt beam="2">  1        1 0.12563879E+00 0.24310756E+03</pdfrwt>
<totfact> 0.30264671E+01</totfact>
</mgrwt>
</event>
<event>
 5    0  0.2947253E-001  0.3076713E+03  0.7546771E-02  0.1081467E+00
          2   -1    0    0  502    0 -0.00000000000E+00  0.00000000000E+00  0.27060464519E+03  0.27060464519E+03  0.00000000000E+00 0. -1.
         21   -1    0    0  503  502  0.00000000000E+00 -0.00000000000E+00 -0.64876480562E+03  0.64876480562E+03  0.00000000000E+00 0.  1.
         25    1    1    2    0    0 -0.23648630146E+03 -0.15202259689E+03 -0.51419620308E+03  0.59921563398E+03  0.12500000000E+03 0.  0.
         21    1    1    2  503  501  0.10607420978E+03  0.28874996567E+02  0.60998263414E+02  0.12572307483E+03  0.00000000000E+00 0. -1.
          2    1    1    2  501    0  0.13041209168E+03  0.12314760033E+03  0.75037779230E+02  0.19443074200E+03  0.00000000000E+00 0. -1.
<mgrwt>
<rscale>  4 0.30767132E+03</rscale>
<asrwt>0</asrwt>
<pdfrwt beam="1">  1       21 0.99809967E-01 0.30767132E+03</pdfrwt>
<pdfrwt beam="2">  1        2 0.41631485E-01 0.30767132E+03</pdfrwt>
<totfact> 0.11922823E+03</totfact>
</mgrwt>
</event>
<event>
 5    0  0.2947253E-001  0.2406676E+03  0.7546771E-02  0.1119349E+00
         21   -1    0    0  503  502  0.00000000000E+00  0.00000000000E+00  0.30109238594E+03  0.30109238594E+03  0.00000000000E+00 0. -1.
          1   -1    0    0  502    0 -0.00000000000E+00 -0.00000000000E+00 -0.20846734702E+03  0.20846734702E+03  0.00000000000E+00 0. -1.
         25    1    1    2    0    0  0.97217449140E+02  0.19614580597E+03  0.10627680976E+03  0.27357662530E+03  0.12500000000E+03 0.  0.
         21    1    1    2  503  501  0.10804518740E+02 -0.37450965102E+02 -0.20197997224E+02  0.43900700497E+02  0.00000000000E+00 0.  1.
          1    1    1    2  501    0 -0.10802196788E+03 -0.15869484087E+03  0.65462263975E+01  0.19208240717E+03  0.00000000000E+00 0. -1.
<mgrwt>
<rscale>  4 0.24066763E+03</rscale>
<asrwt>0</asrwt>
<pdfrwt beam="1">  1       21 0.46321905E-01 0.24066763E+03</pdfrwt>
<pdfrwt beam="2">  1        1 0.32071900E-01 0.24066763E+03</pdfrwt>
<totfact> 0.66656170E+03</totfact>
</mgrwt>
</event>
<event>
 5    0  0.2947253E-001  0.3650284E+03  0.7546771E-02  0.1056610E+00
          2   -1    0    0  502    0 -0.00000000000E+00  0.00000000000E+00  0.19633612697E+04  0.19633612697E+04  0.00000000000E+00 0.  1.
         21   -1    0    0  503  502  0.00000000000E+00 -0.00000000000E+00 -0.11780325510E+03  0.11780325510E+03  0.00000000000E+00 0.  1.
         25    1    1    2    0    0 -0.34190381187E+03  0.26880163050E+02  0.24201415458E+03  0.43796873262E+03  0.12500000000E+03 0.  0.
         21    1    1    2  503  501  0.15258418973E+03 -0.22202510293E+01  0.48391207840E+03  0.50740296028E+03  0.00000000000E+00 0.  1.
          2    1    1    2  501    0  0.18931962214E+03 -0.24659912021E+02  0.11196317816E+04  0.11357928319E+04  0.00000000000E+00 0.  1.
<mgrwt>
<rscale>  4 0.36502844E+03</rscale>
<asrwt>0</asrwt>
<pdfrwt beam="1">  1       21 0.18123579E-01 0.36502844E+03</pdfrwt>
<pdfrwt beam="2">  1        2 0.30205555E+00 0.36502844E+03</pdfrwt>
<totfact> 0.25948625E+03</totfact>
</mgrwt>
</event>
<event>
 5    0  0.2947253E-001  0.2351631E+03  0.7546771E-02  0.1123058E+00
         21   -1    0    0  503  502  0.00000000000E+00  0.00000000000E+00  0.14176387681E+04  0.14176387681E+04  0.00000000000E+00 0. -1.
          1   -1    0    0  502    0 -0.00000000000E+00 -0.00000000000E+00 -0.70886216241E+02  0.70886216241E+02  0.00000000000E+00 0. -1.
         25    1    1    2    0    0 -0.13794080254E+03 -0.15629817805E+03  0.11593631669E+04  0.11845694316E+04  0.12500000000E+03 0.  0.
         21    1    1    2  503  501  0.51593959904E+02  0.18266093659E+02  0.11173997732E+03  0.12442431196E+03  0.00000000000E+00 0. -1.
          1    1    1    2  501    0  0.86346842639E+02  0.13803208439E+03  0.75649407674E+02  0.17953124083E+03  0.00000000000E+00 0. -1.
<mgrwt>
<rscale>  4 0.23516315E+03</rscale>
<asrwt>0</asrwt>
<pdfrwt beam="1">  1       21 0.21809825E+00 0.23516315E+03</pdfrwt>
<pdfrwt beam="2">  1        1 0.10905573E-01 0.23516315E+03</pdfrwt>
<totfact> 0.61033045E+02</totfact>
</mgrwt>
</event>
<event>
 5    0  0.2947253E-001  0.3081951E+03  0.7546771E-02  0.1081214E+00
         21   -1    0    0  501  502  0.00000000000E+00  0.00000000000E+00  0.40415843967E+03  0.40415843967E+03  0.00000000000E+00 0.  1.
         -4   -1    0    0    0  501 -0.00000000000E+00 -0.00000000000E+00 -0.26817380650E+03  0.26817380650E+03  0.00000000000E+00 0.  1.
         25    1    1    2    0    0  0.27057456077E+03  0.87022064155E+02  0.17811259470E+03  0.35795604336E+03  0.12500000000E+03 0.  0.
         21    1    1    2  501  501 -0.17128357653E+02  0.28174366162E+02 -0.12732821420E+01  0.32996920946E+02  0.00000000000E+00 0. -1.
         -4    1    1    2    0  502 -0.25344620312E+03 -0.11519643032E+03 -0.40854679394E+02  0.28137928186E+03  0.00000000000E+00 0.  1.
<mgrwt>
<rscale>  4 0.30819513E+03</rscale>
<asrwt>0</asrwt>
<pdfrwt beam="1">  1       21 0.62178221E-01 0.30819513E+03</pdfrwt>
<pdfrwt beam="2">  1       -4 0.41257509E-01 0.30819513E+03</pdfrwt>
<totfact> 0.57205076E+02</totfact>
</mgrwt>
</event>
<event>
 5    0  0.2947253E-001  0.2617017E+03  0.7546771E-02  0.1106125E+00
         21   -1    0    0  503  502  0.00000000000E+00  0.00000000000E+00  0.73472742361E+03  0.73472742361E+03  0.00000000000E+00 0.  1.
          3   -1    0    0  502    0 -0.00000000000E+00 -0.00000000000E+00 -0.25649834185E+03  0.25649834185E+03  0.00000000000E+00 0.  1.
         25    1    1    2    0    0  0.20819858407E+03  0.13246601212E+03  0.60207967528E+03  0.66258496070E+03  0.12500000000E+03 0.  0.
         21    1    1    2  503  501 -0.81812517013E+02 -0.89098163550E+02  0.30240120053E+02  0.12468454415E+03  0.00000000000E+00 0.  1.
          3    1    1    2  501    0 -0.12638606705E+03 -0.43367848567E+02 -0.15409071357E+03  0.20395626061E+03  0.00000000000E+00 0.  1.
<mgrwt>
<rscale>  4 0.26170166E+03</rscale>
<asrwt>0</asrwt>
<pdfrwt beam="1">  1       21 0.11303499E+00 0.26170166E+03</pdfrwt>
<pdfrwt beam="2">  1        3 0.39461284E-01 0.26170166E+03</pdfrwt>
<totfact> 0.18817253E+02</totfact>
</mgrwt>
</event>
<event>
 5    0  0.2947253E-001  0.4196133E+03  0.7546771E-02  0.1037192E+00
         21   -1    0    0  503  502  0.00000000000E+00  0.00000000000E+00  0.30167439251E+03  0.30167439251E+03  0.00000000000E+00 0.  1.
          2   -1    0    0  502    0 -0.00000000000E+00 -0.00000000000E+00 -0.14495524999E+04  0.14495524999E+04  0.00000000000E+00 0.  1.
         25    1    1    2    0    0  0.38655122742E+03  0.10501634899E+03  0.10665582440E+03  0.43295582899E+03  0.12500000000E+03 0.  0.
         21    1    1    2  503  501 -0.33409504851E+02  0.76367126379E+01 -0.10745349025E+03  0.11278637755E+03  0.00000000000E+00 0. -1.
          2    1    1    2  501    0 -0.35314172257E+03 -0.11265306163E+03 -0.11470804415E+04  0.12054846858E+04  0.00000000000E+00 0.  1.
<mgrwt>
<rscale>  4 0.41961326E+03</rscale>
<asrwt>0</asrwt>
<pdfrwt beam="1">  1       21 0.46411446E-01 0.41961326E+03</pdfrwt>
<pdfrwt beam="2">  1        2 0.22300807E+00 0.41961326E+03</pdfrwt>
<totfact> 0.74931551E+02</totfact>
</mgrwt>
</event>
<event>
 5    0  0.2947253E-001  0.2729089E+03  0.7546771E-02  0.1099626E+00
         21   -1    0    0  501  502  0.00000000000E+00  0.00000000000E+00  0.17867949627E+03  0.17867949627E+03  0.00000000000E+00 0.  1.
         -4   -1    0    0    0  501 -0.00000000000E+00 -0.00000000000E+00 -0.61643279973E+03  0.61643279973E+03  0.00000000000E+00 0.  1.
         25    1    1    2    0    0 -0.20327758379E+03  0.13241022784E+03  0.20248085488E+02  0.27365896564E+03  0.12500000000E+03 0.  0.
         21    1    1    2  501  501  0.65378090305E+02 -0.50666298990E+02 -0.10427066536E+03  0.13309297577E+03  0.00000000000E+00 0.  1.
         -4    1    1    2    0  502  0.13789949349E+03 -0.81743928850E+02 -0.35373072359E+03  0.38836035459E+03  0.00000000000E+00 0.  1.
<mgrwt>
<rscale>  4 0.27290886E+03</rscale>
<asrwt>0</asrwt>
<pdfrwt beam="1">  1       21 0.27489153E-01 0.27290886E+03</pdfrwt>
<pdfrwt beam="2">  1       -4 0.94835816E-01 0.27290886E+03</pdfrwt>
<totfact> 0.51099739E+02</totfact>
</mgrwt>
</event>
<event>
 5    0  0.2947253E-001  0.2420074E+03  0.7546771E-02  0.1118463E+00
         21   -1    0    0  503  502  0.00000000000E+00  0.00000000000E+00  0.41093409390E+02  0.41093409390E+02  0.00000000000E+00 0. -1.
          2   -1    0    0  502    0 -0.00000000000E+00 -0.00000000000E+00 -0.12432339007E+04  0.12432339007E+04  0.00000000000E+00 0. -1.
         25    1    1    2    0    0 -0.66411190462E+02  0.19629598024E+03 -0.65973682817E+03  0.70272344526E+03  0.12500000000E+03 0.  0.
         21    1    1    2  503  501  0.16306208610E+02 -0.16713139666E+02 -0.54512286237E+02  0.59302705061E+02  0.00000000000E+00 0.  1.
          2    1    1    2  501    0  0.50104981852E+02 -0.17958284058E+03 -0.48789137690E+03  0.52230115976E+03  0.00000000000E+00 0. -1.
<mgrwt>
<rscale>  4 0.24200735E+03</rscale>
<asrwt>0</asrwt>
<pdfrwt beam="1">  1       21 0.63220626E-02 0.24200735E+03</pdfrwt>
<pdfrwt beam="2">  1        2 0.19126676E+00 0.24200735E+03</pdfrwt>
<totfact> 0.43197051E+04</totfact>
</mgrwt>
</event>
<event>
 5    0  0.2947253E-001  0.2470859E+03  0.7546771E-02  0.1115160E+00
         21   -1    0    0  501  502  0.00000000000E+00  0.00000000000E+00  0.30538809615E+03  0.30538809615E+03  0.00000000000E+00 0.  1.
         -1   -1    0    0    0  501 -0.00000000000E+00 -0.00000000000E+00 -0.39563740675E+03  0.39563740675E+03  0.00000000000E+00 0.  1.
         25    1    1    2    0    0  0.19059131280E+03 -0.95401155213E+02  0.20987105685E+03  0.32418712102E+03  0.12500000000E+03 0.  0.
         21    1    1    2  501  501 -0.81748075652E+02  0.85064997026E+02 -0.14229649951E+03  0.18484343474E+03  0.00000000000E+00 0.  1.
         -1    1    1    2    0  502 -0.10884323715E+03  0.10336158187E+02 -0.15782386793E+03  0.19199494714E+03  0.00000000000E+00 0.  1.
<mgrwt>
<rscale>  4 0.24708587E+03</rscale>
<asrwt>0</asrwt>
<pdfrwt beam="1">  1       21 0.46982784E-01 0.24708587E+03</pdfrwt>
<pdfrwt beam="2">  1       -1 0.60867293E-01 0.24708587E+03</pdfrwt>
<totfact> 0.11158637E+03</totfact>
</mgrwt>
</event>
<event>
 5    0  0.2947253E-001  0.2301358E+03  0.7546771E-02  0.1126544E+00
         -2   -1    0    0    0  501 -0.00000000000E+00  0.00000000000E+00  0.21877013863E+03  0.21877013863E+03  0.00000000000E+00 0.  1.
         21   -1    0    0  501  502  0.00000000000E+00 -0.00000000000E+00 -0.84688596096E+03  0.84688596096E+03  0.00000000000E+00 0.  1.
         25    1    1    2    0    0 -0.12815777472E+03 -0.18997742792E+03 -0.69083658767E+03  0.73850932912E+03  0.12500000000E+03 0.  0.
         21    1    1    2  501  501 -0.10103461791E+02  0.58086039717E+02 -0.72214668904E+02  0.93225674334E+02  0.00000000000E+00 0. -1.
         -2    1    1    2    0  502  0.13826123651E+03  0.13189138820E+03  0.13493543424E+03  0.23392109613E+03  0.00000000000E+00 0.  1.
<mgrwt>
<rscale>  4 0.23013585E+03</rscale>
<asrwt>0</asrwt>
<pdfrwt beam="1">  1       21 0.13029015E+00 0.23013585E+03</pdfrwt>
<pdfrwt beam="2">  1       -2 0.33656944E-01 0.23013585E+03</pdfrwt>
<totfact> 0.27995612E+02</totfact>
</mgrwt>
</event>
<event>
 5    0  0.2947253E-001  0.2705581E+03  0.7546771E-02  0.1100961E+00
         -1   -1    0    0    0  501 -0.00000000000E+00  0.00000000000E+00  0.53470604976E+03  0.53470604976E+03  0.00000000000E+00 0.  1.
         21   -1    0    0  501  502  0.00000000000E+00 -0.00000000000E+00 -0.18039130667E+03  0.18039130667E+03  0.00000000000E+00 0. -1.
         25    1    1    2    0    0 -0.24420607112E+03 -0.18185508192E+02  0.73442547683E+01  0.27503864448E+03  0.12500000000E+03 0.  0.
         21    1    1    2  501  501  0.19996704042E+02 -0.34888335645E+02  0.54718353401E+02  0.67905539800E+02  0.00000000000E+00 0.  1.
         -1    1    1    2    0  502  0.22420936707E+03  0.53073843837E+02  0.29225213492E+03  0.37215317216E+03  0.00000000000E+00 0.  1.
<mgrwt>
<rscale>  4 0.27055811E+03</rscale>
<asrwt>0</asrwt>
<pdfrwt beam="1">  1       21 0.27752509E-01 0.27055811E+03</pdfrwt>
<pdfrwt beam="2">  1       -1 0.82262468E-01 0.27055811E+03</pdfrwt>
<totfact> 0.17420882E+03</totfact>
</mgrwt>
</event>
<event>
 5    0  0.4322676E-001  0.3135278E+03  0.7546771E-02  0.1078667E+00
          4   -1    0    0  502    0 -0.00000000000E+00  0.00000000000E+00  0.76685871767E+03  0.76685871767E+03  0.00000000000E+00 0.  1.
         21   -1    0    0  503  502  0.00000000000E+00 -0.00000000000E+00 -0.46124172769E+03  0.46124172769E+03  0.00000000000E+00 0.  1.
         25    1    1    2    0    0 -0.18841080789E+03  0.21966671633E+03 -0.37006750668E+03  0.48613481494E+03  0.12500000000E+03 0.  0.
         21    1    1    2  503  501  0.21664741860E+02 -0.13036559874E+02  0.13790464105E+02  0.28800865151E+02  0.00000000000E+00 0. -1.
          4    1    1    2  501    0  0.16674606603E+03 -0.20663015645E+03  0.66189403255E+03  0.71316476527E+03  0.00000000000E+00 0.  1.
<mgrwt>
<rscale>  4 0.31352784E+03</rscale>
<asrwt>0</asrwt>
<pdfrwt beam="1">  1       21 0.70960266E-01 0.31352784E+03</pdfrwt>
<pdfrwt beam="2">  1        4 0.11797826E+00 0.31352784E+03</pdfrwt>
<totfact> 0.42146652E+01</totfact>
</mgrwt>
</event>
<event>
 5    0  0.2947253E-001  0.2502385E+03  0.7546771E-02  0.1113154E+00
         21   -1    0    0  501  502  0.00000000000E+00  0.00000000000E+00  0.11618453170E+03  0.11618453170E+03  0.00000000000E+00 0.  1.
         -2   -1    0    0    0  501 -0.00000000000E+00 -0.00000000000E+00 -0.78139274124E+03  0.78139274124E+03  0.00000000000E+00 0.  1.
         25    1    1    2    0    0  0.94151905789E+02  0.19526831190E+03 -0.65627063703E+02  0.25870099823E+03  0.12500000000E+03 0.  0.
         21    1    1    2  501  501 -0.28558575723E+02 -0.48226559130E+02 -0.10927491486E+03  0.12281042411E+03  0.00000000000E+00 0.  1.
         -2    1    1    2    0  502 -0.65593330067E+02 -0.14704175277E+03 -0.49030623098E+03  0.51606585059E+03  0.00000000000E+00 0.  1.
<mgrwt>
<rscale>  4 0.25023848E+03</rscale>
<asrwt>0</asrwt>
<pdfrwt beam="1">  1       21 0.17874544E-01 0.25023848E+03</pdfrwt>
<pdfrwt beam="2">  1       -2 0.12021427E+00 0.25023848E+03</pdfrwt>
<totfact> 0.12774585E+03</totfact>
</mgrwt>
</event>
<event>
 5    0  0.2947253E-001  0.3153083E+03  0.7546771E-02  0.1077829E+00
          2   -1    0    0  502    0 -0.00000000000E+00  0.00000000000E+00  0.49407270610E+03  0.49407270610E+03  0.00000000000E+00 0.  1.
         21   -1    0    0  503  502  0.00000000000E+00 -0.00000000000E+00 -0.41499611859E+03  0.41499611859E+03  0.00000000000E+00 0.  1.
         25    1    1    2    0    0  0.26367542245E+03  0.11945529242E+03  0.37341850302E+03  0.48873374520E+03  0.12500000000E+03 0.  0.
         21    1    1    2  503  501 -0.12946202003E+03 -0.20827466824E+02 -0.15623212574E+03  0.20396733837E+03  0.00000000000E+00 0.  1.
          2    1    1    2  501    0 -0.13421340242E+03 -0.98627825598E+02 -0.13810978977E+03  0.21636774113E+03  0.00000000000E+00 0.  1.
<mgrwt>
<rscale>  4 0.31530825E+03</rscale>
<asrwt>0</asrwt>
<pdfrwt beam="1">  1       21 0.63845557E-01 0.31530825E+03</pdfrwt>
<pdfrwt beam="2">  1        2 0.76011185E-01 0.31530825E+03</pdfrwt>
<totfact> 0.17102443E+03</totfact>
</mgrwt>
</event>
<event>
 5    0  0.2947253E-001  0.2714422E+03  0.7546771E-02  0.1100457E+00
         21   -1    0    0  503  502  0.00000000000E+00  0.00000000000E+00  0.74373719841E+02  0.74373719841E+02  0.00000000000E+00 0. -1.
          2   -1    0    0  502    0 -0.00000000000E+00 -0.00000000000E+00 -0.14506370780E+04  0.14506370780E+04  0.00000000000E+00 0.  1.
         25    1    1    2    0    0 -0.11364414724E+03 -0.21246381760E+03 -0.24165603331E+03  0.36342606460E+03  0.12500000000E+03 0.  0.
         21    1    1    2  503  501 -0.37113920596E+01  0.33980686280E+02 -0.12238302791E+03  0.12706717512E+03  0.00000000000E+00 0. -1.
          2    1    1    2  501    0  0.11735553930E+03  0.17848313132E+03 -0.10122242969E+04  0.10345175581E+04  0.00000000000E+00 0.  1.
<mgrwt>
<rscale>  4 0.27144220E+03</rscale>
<asrwt>0</asrwt>
<pdfrwt beam="1">  1       21 0.11442110E-01 0.27144220E+03</pdfrwt>
<pdfrwt beam="2">  1        2 0.22317494E+00 0.27144220E+03</pdfrwt>
<totfact> 0.11627737E+04</totfact>
</mgrwt>
</event>
<event>
 5    0  0.2947253E-001  0.4440234E+03  0.7546771E-02  0.1029519E+00
          2   -1    0    0  502    0 -0.00000000000E+00  0.00000000000E+00  0.98432921051E+03  0.98432921051E+03  0.00000000000E+00 0. -1.
         21   -1    0    0  503  502  0.00000000000E+00 -0.00000000000E+00 -0.84376259000E+03  0.84376259000E+03  0.00000000000E+00 0. -1.
         25    1    1    2    0    0 -0.42579650060E+03  0.15136445822E+02 -0.72906316990E+03  0.85363333910E+03  0.12500000000E+03 0.  0.
         21    1    1    2  503  501  0.48833392212E+02 -0.83444501784E+01  0.41813419026E+02  0.64828173307E+02  0.00000000000E+00 0.  1.
          2    1    1    2  501    0  0.37696310838E+03 -0.67919956433E+01  0.82781637139E+03  0.90963028810E+03  0.00000000000E+00 0. -1.
<mgrwt>
<rscale>  4 0.44402339E+03</rscale>
<asrwt>0</asrwt>
<pdfrwt beam="1">  1       21 0.12980963E+00 0.44402339E+03</pdfrwt>
<pdfrwt beam="2">  1        2 0.15143526E+00 0.44402339E+03</pdfrwt>
<totfact> 0.12851995E+02</totfact>
</mgrwt>
</event>
<event>
 5    0  0.2947253E-001  0.2532903E+03  0.7546771E-02  0.1111243E+00
          3   -1    0    0  502    0 -0.00000000000E+00  0.00000000000E+00  0.12998322005E+03  0.12998322005E+03  0.00000000000E+00 0.  1.
         21   -1    0    0  503  502  0.00000000000E+00 -0.00000000000E+00 -0.56289347133E+03  0.56289347133E+03  0.00000000000E+00 0. -1.
         25    1    1    2    0    0  0.21710189641E+03  0.37386653597E+02 -0.35420972882E+03  0.43545439174E+03  0.12500000000E+03 0.  0.
         21    1    1    2  503  501 -0.51187234400E+02 -0.57073355192E+02 -0.37469588486E+02  0.85331535201E+02  0.00000000000E+00 0. -1.
          3    1    1    2  501    0 -0.16591466201E+03  0.19686701595E+02 -0.41230933979E+02  0.17209076444E+03  0.00000000000E+00 0.  1.
<mgrwt>
<rscale>  4 0.25329034E+03</rscale>
<asrwt>0</asrwt>
<pdfrwt beam="1">  1       21 0.86598996E-01 0.25329034E+03</pdfrwt>
<pdfrwt beam="2">  1        3 0.19997418E-01 0.25329034E+03</pdfrwt>
<totfact> 0.12602816E+03</totfact>
</mgrwt>
</event>
<event>
 5    0  0.2947253E-001  0.3012601E+03  0.7546771E-02  0.1084612E+00
         -4   -1    0    0    0  501 -0.00000000000E+00  0.00000000000E+00  0.86805655608E+03  0.86805655608E+03  0.00000000000E+00 0.  1.
         21   -1    0    0  501  502  0.00000000000E+00 -0.00000000000E+00 -0.15878173859E+03  0.15878173859E+03  0.00000000000E+00 0.  1.
         25    1    1    2    0    0  0.23917030519E+03  0.13390377837E+03  0.42537061922E+02  0.30424834984E+03  0.12500000000E+03 0.  0.
         21    1    1    2  501  501 -0.20993955785E+03 -0.10510256418E+03  0.52657337958E+03  0.57654201150E+03  0.00000000000E+00 0.  1.
         -4    1    1    2    0  502 -0.29230747334E+02 -0.28801214192E+02  0.14016437600E+03  0.14604793332E+03  0.00000000000E+00 0.  1.
<mgrwt>
<rscale>  4 0.30126011E+03</rscale>
<asrwt>0</asrwt>
<pdfrwt beam="1">  1       21 0.24427960E-01 0.30126011E+03</pdfrwt>
<pdfrwt beam="2">  1       -4 0.13354716E+00 0.30126011E+03</pdfrwt>
<totfact> 0.28022124E+02</totfact>
</mgrwt>
</event>
<event>
 5    0  0.2947253E-001  0.3322192E+03  0.7546771E-02  0.1070159E+00
         21   -1    0    0  503  502  0.00000000000E+00  0.00000000000E+00  0.10491880772E+04  0.10491880772E+04  0.00000000000E+00 0.  1.
          2   -1    0    0  502    0 -0.00000000000E+00 -0.00000000000E+00 -0.32675478313E+03  0.32675478313E+03  0.00000000000E+00 0.  1.
         25    1    1    2    0    0  0.43313496245E+02  0.30820510052E+03  0.92500994032E+03  0.98393842929E+03  0.12500000000E+03 0.  0.
         21    1    1    2  503  501 -0.14179625069E+01 -0.28718185496E+02 -0.78046453153E+02  0.83174477129E+02  0.00000000000E+00 0. -1.
          2    1    1    2  501    0 -0.41895533738E+02 -0.27948691502E+03 -0.12453019313E+03  0.30882995389E+03  0.00000000000E+00 0.  1.
<mgrwt>
<rscale>  4 0.33221917E+03</rscale>
<asrwt>0</asrwt>
<pdfrwt beam="1">  1       21 0.16141355E+00 0.33221917E+03</pdfrwt>
<pdfrwt beam="2">  1        2 0.50269967E-01 0.33221917E+03</pdfrwt>
<totfact> 0.28081141E+02</totfact>
</mgrwt>
</event>
<event>
 5    0  0.2947253E-001  0.3109526E+03  0.7546771E-02  0.1079890E+00
          1   -1    0    0  502    0 -0.00000000000E+00  0.00000000000E+00  0.50961405257E+03  0.50961405257E+03  0.00000000000E+00 0.  1.
         21   -1    0    0  503  502  0.00000000000E+00 -0.00000000000E+00 -0.23762722906E+03  0.23762722906E+03  0.00000000000E+00 0.  1.
         25    1    1    2    0    0  0.20253219983E+03  0.23589148065E+03  0.15427411022E+03  0.36890321725E+03  0.12500000000E+03 0.  0.
         21    1    1    2  503  501 -0.85177561029E+02  0.47551681972E+01 -0.13509097378E+01  0.85320885395E+02  0.00000000000E+00 0.  1.
          1    1    1    2  501    0 -0.11735463880E+03 -0.24064664885E+03  0.11906362303E+03  0.29301717898E+03  0.00000000000E+00 0.  1.
<mgrwt>
<rscale>  4 0.31095258E+03</rscale>
<asrwt>0</asrwt>
<pdfrwt beam="1">  1       21 0.36558036E-01 0.31095258E+03</pdfrwt>
<pdfrwt beam="2">  1        1 0.78402161E-01 0.31095258E+03</pdfrwt>
<totfact> 0.33898197E+03</totfact>
</mgrwt>
</event>
<event>
 5    0  0.2947253E-001  0.2594118E+03  0.7546771E-02  0.1107497E+00
         21   -1    0    0  503  502  0.00000000000E+00  0.00000000000E+00  0.50093794055E+02  0.50093794055E+02  0.00000000000E+00 0. -1.
          2   -1    0    0  502    0 -0.00000000000E+00 -0.00000000000E+00 -0.12578516713E+04  0.12578516713E+04  0.00000000000E+00 0. -1.
         25    1    1    2    0    0  0.41650784340E+02  0.22346076588E+03 -0.49564523663E+03  0.55942711976E+03  0.12500000000E+03 0.  0.
         21    1    1    2  503  501 -0.17297010173E+01 -0.20502056317E+02 -0.35915572704E+02  0.41391479093E+02  0.00000000000E+00 0. -1.
          2    1    1    2  501    0 -0.39921083323E+02 -0.20295870957E+03 -0.67619706789E+03  0.70712686648E+03  0.00000000000E+00 0. -1.
<mgrwt>
<rscale>  4 0.25941184E+03</rscale>
<asrwt>0</asrwt>
<pdfrwt beam="1">  1       21 0.77067377E-02 0.25941184E+03</pdfrwt>
<pdfrwt beam="2">  1        2 0.19351564E+00 0.25941184E+03</pdfrwt>
<totfact> 0.29965285E+04</totfact>
</mgrwt>
</event>
<event>
 5    0  0.2947253E-001  0.2736810E+03  0.7546771E-02  0.1099191E+00
          1   -1    0    0  502    0 -0.00000000000E+00  0.00000000000E+00  0.16727916522E+03  0.16727916522E+03  0.00000000000E+00 0.  1.
         21   -1    0    0  503  502  0.00000000000E+00 -0.00000000000E+00 -0.16222547186E+04  0.16222547186E+04  0.00000000000E+00 0.  1.
         25    1    1    2    0    0 -0.30922355202E+02  0.24420616604E+03 -0.14842463735E+04  0.15097036599E+04  0.12500000000E+03 0.  0.
         21    1    1    2  503  501 -0.92481801964E+01 -0.25521615652E+02  0.49617523076E+02  0.56557760728E+02  0.00000000000E+00 0.  1.
          1    1    1    2  501    0  0.40170535399E+02 -0.21868455039E+03 -0.20346702984E+02  0.22327246318E+03  0.00000000000E+00 0.  1.
<mgrwt>
<rscale>  4 0.27368102E+03</rscale>
<asrwt>0</asrwt>
<pdfrwt beam="1">  1       21 0.24957765E+00 0.27368102E+03</pdfrwt>
<pdfrwt beam="2">  1        1 0.25735256E-01 0.27368102E+03</pdfrwt>
<totfact> 0.12450323E+02</totfact>
</mgrwt>
</event>
<event>
 5    0  0.2947253E-001  0.2183949E+03  0.7546771E-02  0.1135085E+00
         21   -1    0    0  503  502  0.00000000000E+00  0.00000000000E+00  0.25688487961E+02  0.25688487961E+02  0.00000000000E+00 0. -1.
          2   -1    0    0  502    0 -0.00000000000E+00 -0.00000000000E+00 -0.24215828947E+04  0.24215828947E+04  0.00000000000E+00 0.  1.
         25    1    1    2    0    0  0.21237490721E+03 -0.35569038167E+02 -0.12817492326E+04  0.13057083721E+04  0.12500000000E+03 0.  0.
         21    1    1    2  503  501 -0.70301547766E+02 -0.45930838064E+02 -0.42551480863E+03  0.43372203295E+03  0.00000000000E+00 0.  1.
          2    1    1    2  501    0 -0.14207335945E+03  0.81499876231E+02 -0.68863036548E+03  0.70784097758E+03  0.00000000000E+00 0.  1.
<mgrwt>
<rscale>  4 0.21839491E+03</rscale>
<asrwt>0</asrwt>
<pdfrwt beam="1">  1       21 0.39520740E-02 0.21839491E+03</pdfrwt>
<pdfrwt beam="2">  1        2 0.37255131E+00 0.21839491E+03</pdfrwt>
<totfact> 0.22896015E+04</totfact>
</mgrwt>
</event>
<event>
 5    0  0.2947253E-001  0.2320360E+03  0.7546771E-02  0.1125215E+00
         21   -1    0    0  503  502  0.00000000000E+00  0.00000000000E+00  0.40491724389E+03  0.40491724389E+03  0.00000000000E+00 0.  1.
          1   -1    0    0  502    0 -0.00000000000E+00 -0.00000000000E+00 -0.29595463796E+03  0.29595463796E+03  0.00000000000E+00 0. -1.
         25    1    1    2    0    0 -0.20415600923E+03  0.62827036093E+02  0.28982340140E+03  0.38111614577E+03  0.12500000000E+03 0.  0.
         21    1    1    2  503  501  0.12858505659E+03 -0.92979497334E+02 -0.51302226041E+02  0.16676696945E+03  0.00000000000E+00 0.  1.
          1    1    1    2  501    0  0.75570952642E+02  0.30152461241E+02 -0.12955856943E+03  0.15298876663E+03  0.00000000000E+00 0. -1.
<mgrwt>
<rscale>  4 0.23203604E+03</rscale>
<asrwt>0</asrwt>
<pdfrwt beam="1">  1       21 0.62294960E-01 0.23203604E+03</pdfrwt>
<pdfrwt beam="2">  1        1 0.45531483E-01 0.23203604E+03</pdfrwt>
<totfact> 0.22944046E+03</totfact>
</mgrwt>
</event>
<event>
 5    0  0.2947253E-001  0.2457897E+03  0.7546771E-02  0.1115995E+00
          1   -1    0    0  502    0 -0.00000000000E+00  0.00000000000E+00  0.95912742026E+03  0.95912742026E+03  0.00000000000E+00 0. -1.
         21   -1    0    0  503  502  0.00000000000E+00 -0.00000000000E+00 -0.56423421159E+02  0.56423421159E+02  0.00000000000E+00 0. -1.
         25    1    1    2    0    0  0.19632919124E+03  0.79009015026E+02  0.42845820684E+03  0.49395243779E+03  0.12500000000E+03 0.  0.
         21    1    1    2  503  501 -0.24926076226E+02 -0.12552772020E+02  0.30834724337E+02  0.41589200357E+02  0.00000000000E+00 0. -1.
          1    1    1    2  501    0 -0.17140311501E+03 -0.66456243006E+02  0.44341106792E+03  0.48000920327E+03  0.00000000000E+00 0. -1.
<mgrwt>
<rscale>  4 0.24578970E+03</rscale>
<asrwt>0</asrwt>
<pdfrwt beam="1">  1       21 0.86805270E-02 0.24578970E+03</pdfrwt>
<pdfrwt beam="2">  1        1 0.14755805E+00 0.24578970E+03</pdfrwt>
<totfact> 0.19859387E+04</totfact>
</mgrwt>
</event>
<event>
 5    0  0.2947253E-001  0.2621978E+03  0.7546771E-02  0.1105830E+00
          2   -1    0    0  502    0 -0.00000000000E+00  0.00000000000E+00  0.92933977724E+03  0.92933977724E+03  0.00000000000E+00 0. -1.
         21   -1    0    0  503  502  0.00000000000E+00 -0.00000000000E+00 -0.74609943495E+02  0.74609943495E+02  0.00000000000E+00 0.  1.
         25    1    1    2    0    0 -0.12003281902E+03 -0.19676072526E+03  0.28956422408E+03  0.39063422855E+03  0.12500000000E+03 0.  0.
         21    1    1    2  503  501  0.93439867450E+02  0.17864623171E+03  0.43848237003E+03  0.48260985668E+03  0.00000000000E+00 0. -1.
          2    1    1    2  501    0  0.26592951570E+02  0.18114493548E+02  0.12668323964E+03  0.13070563551E+03  0.00000000000E+00 0. -1.
<mgrwt>
<rscale>  4 0.26219775E+03</rscale>
<asrwt>0</asrwt>
<pdfrwt beam="1">  1       21 0.11478453E-01 0.26219775E+03</pdfrwt>
<pdfrwt beam="2">  1        2 0.14297534E+00 0.26219775E+03</pdfrwt>
<totfact> 0.23154467E+04</totfact>
</mgrwt>
</event>
<event>
 5    0  0.2947253E-001  0.1816114E+03  0.7546771E-02  0.1166253E+00
          2   -1    0    0  502    0 -0.00000000000E+00  0.00000000000E+00  0.21337135960E+04  0.21337135960E+04  0.00000000000E+00 0.  1.
         21   -1    0    0  503  502  0.00000000000E+00 -0.00000000000E+00 -0.35805326422E+02  0.35805326422E+02  0.00000000000E+00 0. -1.
         25    1    1    2    0    0  0.10380413780E+03 -0.17295577402E+03  0.48415952422E+03  0.53918869025E+03  0.12500000000E+03 0.  0.
         21    1    1    2  503  501 -0.28394225344E+02  0.73944534178E+02  0.28615168749E+03  0.29691213250E+03  0.00000000000E+00 0. -1.
          2    1    1    2  501    0 -0.75409912460E+02  0.99011239844E+02  0.13275970578E+04  0.13334180996E+04  0.00000000000E+00 0.  1.
<mgrwt>
<rscale>  4 0.18161141E+03</rscale>
<asrwt>0</asrwt>
<pdfrwt beam="1">  1       21 0.55085134E-02 0.18161141E+03</pdfrwt>
<pdfrwt beam="2">  1        2 0.32826353E+00 0.18161141E+03</pdfrwt>
<totfact> 0.18802973E+04</totfact>
</mgrwt>
</event>
<event>
 5    0  0.2947253E-001  0.2812818E+03  0.7546771E-02  0.1094991E+00
         -4   -1    0    0    0  501 -0.00000000000E+00  0.00000000000E+00  0.25447615459E+03  0.25447615459E+03  0.00000000000E+00 0.  1.
         21   -1    0    0  501  502  0.00000000000E+00 -0.00000000000E+00 -0.32055138998E+03  0.32055138998E+03  0.00000000000E+00 0.  1.
         25    1    1    2    0    0  0.21326354820E+02 -0.25107690436E+03 -0.12879384175E+03  0.30936593055E+03  0.12500000000E+03 0.  0.
         21    1    1    2  501  501  0.98314961981E+01  0.99241938064E+02  0.36676565745E+01  0.99795151650E+02  0.00000000000E+00 0.  1.
         -4    1    1    2    0  502 -0.31157851018E+02  0.15183496630E+03  0.59050949780E+02  0.16586646238E+03  0.00000000000E+00 0.  1.
<mgrwt>
<rscale>  4 0.28128175E+03</rscale>
<asrwt>0</asrwt>
<pdfrwt beam="1">  1       21 0.49315598E-01 0.28128175E+03</pdfrwt>
<pdfrwt beam="2">  1       -4 0.39150178E-01 0.28128175E+03</pdfrwt>
<totfact> 0.10451011E+03</totfact>
</mgrwt>
</event>
<event>
 5    0  0.2947253E-001  0.2859443E+03  0.7546771E-02  0.1092486E+00
         21   -1    0    0  501  502  0.00000000000E+00  0.00000000000E+00  0.31938893111E+03  0.31938893111E+03  0.00000000000E+00 0. -1.
         -1   -1    0    0    0  501 -0.00000000000E+00 -0.00000000000E+00 -0.54989255841E+03  0.54989255841E+03  0.00000000000E+00 0. -1.
         25    1    1    2    0    0  0.24541542794E+03 -0.12618058853E+03  0.11600429359E+03  0.32439523629E+03  0.12500000000E+03 0.  0.
         21    1    1    2  501  501 -0.10359166753E+03  0.22415276687E+03 -0.22420751926E+03  0.33353366872E+03  0.00000000000E+00 0. -1.
         -1    1    1    2    0  502 -0.14182376041E+03 -0.97972178342E+02 -0.12230040163E+03  0.21135258452E+03  0.00000000000E+00 0. -1.
<mgrwt>
<rscale>  4 0.28594426E+03</rscale>
<asrwt>0</asrwt>
<pdfrwt beam="1">  1       21 0.49136759E-01 0.28594426E+03</pdfrwt>
<pdfrwt beam="2">  1       -1 0.84598854E-01 0.28594426E+03</pdfrwt>
<totfact> 0.51587738E+02</totfact>
</mgrwt>
</event>
<event>
 5    0  0.2947253E-001  0.3735995E+03  0.7546771E-02  0.1053325E+00
          2   -1    0    0  502    0 -0.00000000000E+00  0.00000000000E+00  0.23419590758E+04  0.23419590758E+04  0.00000000000E+00 0.  1.
         21   -1    0    0  503  502  0.00000000000E+00 -0.00000000000E+00 -0.69955681791E+03  0.69955681791E+03  0.00000000000E+00 0. -1.
         25    1    1    2    0    0  0.27150493241E+03  0.22756698156E+03 -0.60478673097E+03  0.71196464053E+03  0.12500000000E+03 0.  0.
         21    1    1    2  503  501 -0.14827631992E+03  0.38853433425E+02  0.15908244249E+03  0.22091328581E+03  0.00000000000E+00 0.  1.
          2    1    1    2  501    0 -0.12322861250E+03 -0.26642041498E+03  0.20881065464E+04  0.21086379674E+04  0.00000000000E+00 0.  1.
<mgrwt>
<rscale>  4 0.37359947E+03</rscale>
<asrwt>0</asrwt>
<pdfrwt beam="1">  1       21 0.10762413E+00 0.37359947E+03</pdfrwt>
<pdfrwt beam="2">  1        2 0.36030139E+00 0.37359947E+03</pdfrwt>
<totfact> 0.37870373E+01</totfact>
</mgrwt>
</event>
<event>
 5    0  0.2947253E-001  0.2443031E+03  0.7546771E-02  0.1116959E+00
         21   -1    0    0  503  502  0.00000000000E+00  0.00000000000E+00  0.12274471503E+03  0.12274471503E+03  0.00000000000E+00 0. -1.
          2   -1    0    0  502    0 -0.00000000000E+00 -0.00000000000E+00 -0.10085520028E+04  0.10085520028E+04  0.00000000000E+00 0.  1.
         25    1    1    2    0    0 -0.48250268773E+02  0.20428151796E+03 -0.28732677547E+02  0.24598697887E+03  0.12500000000E+03 0.  0.
         21    1    1    2  503  501  0.50984051661E+02 -0.67646237198E+02 -0.35521180318E+03  0.36517230460E+03  0.00000000000E+00 0. -1.
          2    1    1    2  501    0 -0.27337828883E+01 -0.13663528076E+03 -0.50186280702E+03  0.52013743433E+03  0.00000000000E+00 0.  1.
<mgrwt>
<rscale>  4 0.24430315E+03</rscale>
<asrwt>0</asrwt>
<pdfrwt beam="1">  1       21 0.18883803E-01 0.24430315E+03</pdfrwt>
<pdfrwt beam="2">  1        2 0.15516184E+00 0.24430315E+03</pdfrwt>
<totfact> 0.83422236E+03</totfact>
</mgrwt>
</event>
<event>
 5    0  0.2947253E-001  0.3027395E+03  0.7546771E-02  0.1084181E+00
          4   -1    0    0  502    0 -0.00000000000E+00  0.00000000000E+00  0.23985664954E+03  0.23985664954E+03  0.00000000000E+00 0.  1.
         21   -1    0    0  503  502  0.00000000000E+00 -0.00000000000E+00 -0.84621859286E+03  0.84621859286E+03  0.00000000000E+00 0.  1.
         25    1    1    2    0    0 -0.75987666511E+02 -0.26226830050E+03 -0.70611767699E+03  0.76732389554E+03  0.12500000000E+03 0.  0.
         21    1    1    2  503  501 -0.73564128880E+01  0.18191195530E+03  0.32739889569E+02  0.18498101702E+03  0.00000000000E+00 0.  1.
          4    1    1    2  501    0  0.83344079399E+02  0.80356345201E+02  0.67015844095E+02  0.13377032984E+03  0.00000000000E+00 0.  1.
<mgrwt>
<rscale>  4 0.30212933E+03</rscale>
<asrwt>0</asrwt>
<pdfrwt beam="1">  1       21 0.13018748E+00 0.30273952E+03</pdfrwt>
<pdfrwt beam="2">  1        4 0.36901023E-01 0.30273952E+03</pdfrwt>
<totfact> 0.12544846E+02</totfact>
</mgrwt>
</event>
<event>
 5    0  0.2947253E-001  0.3218252E+03  0.7546771E-02  0.1074812E+00
          2   -1    0    0  502    0 -0.00000000000E+00  0.00000000000E+00  0.20819004168E+03  0.20819004168E+03  0.00000000000E+00 0. -1.
         21   -1    0    0  503  502  0.00000000000E+00 -0.00000000000E+00 -0.51927089056E+03  0.51927089056E+03  0.00000000000E+00 0.  1.
         25    1    1    2    0    0 -0.28991141479E+03  0.62432378316E+02 -0.27202943151E+03  0.42139226606E+03  0.12500000000E+03 0.  0.
         21    1    1    2  503  501  0.11411399395E+03 -0.15610999249E+02  0.15321277967E+02  0.11619143029E+03  0.00000000000E+00 0. -1.
          2    1    1    2  501    0  0.17579742084E+03 -0.46821379067E+02 -0.54372695332E+02  0.18987723589E+03  0.00000000000E+00 0. -1.
<mgrwt>
<rscale>  4 0.32182515E+03</rscale>
<asrwt>0</asrwt>
<pdfrwt beam="1">  1       21 0.79887829E-01 0.32182515E+03</pdfrwt>
<pdfrwt beam="2">  1        2 0.32029237E-01 0.32182515E+03</pdfrwt>
<totfact> 0.26665585E+03</totfact>
</mgrwt>
</event>
<event>
 5    0  0.2947253E-001  0.3151192E+03  0.7546771E-02  0.1077918E+00
          2   -1    0    0  502    0 -0.00000000000E+00  0.00000000000E+00  0.97081801879E+03  0.97081801879E+03  0.00000000000E+00 0.  1.
         21   -1    0    0  503  502  0.00000000000E+00 -0.00000000000E+00 -0.18967469306E+03  0.18967469306E+03  0.00000000000E+00 0.  1.
         25    1    1    2    0    0 -0.25374713536E+03  0.19477050470E+03  0.33256763334E+03  0.47806839359E+03  0.12500000000E+03 0.  0.
         21    1    1    2  503  501  0.16062845524E+03  0.81225570899E+02  0.31316071729E+03  0.36120455265E+03  0.00000000000E+00 0.  1.
          2    1    1    2  501    0  0.93118680123E+02 -0.27599607560E+03  0.13541497510E+03  0.32121976561E+03  0.00000000000E+00 0.  1.
<mgrwt>
<rscale>  4 0.31511920E+03</rscale>
<asrwt>0</asrwt>
<pdfrwt beam="1">  1       21 0.29180723E-01 0.31511920E+03</pdfrwt>
<pdfrwt beam="2">  1        2 0.14935662E+00 0.31511920E+03</pdfrwt>
<totfact> 0.37528214E+03</totfact>
</mgrwt>
</event>
<event>
 5    0  0.2947253E-001  0.4296609E+03  0.7546771E-02  0.1033967E+00
          2   -1    0    0  502    0 -0.00000000000E+00  0.00000000000E+00  0.24274697573E+04  0.24274697573E+04  0.00000000000E+00 0. -1.
         21   -1    0    0  503  502  0.00000000000E+00 -0.00000000000E+00 -0.19483124551E+03  0.19483124551E+03  0.00000000000E+00 0. -1.
         25    1    1    2    0    0 -0.25799960574E+03 -0.42450907558E+03  0.27243719829E+03  0.58018857178E+03  0.12500000000E+03 0.  0.
         21    1    1    2  503  501  0.23020638905E+03  0.16371603449E+03  0.69885468020E+03  0.75378762629E+03  0.00000000000E+00 0. -1.
          2    1    1    2  501    0  0.27793216694E+02  0.26079304109E+03  0.12613466333E+04  0.12883248048E+04  0.00000000000E+00 0. -1.
<mgrwt>
<rscale>  4 0.42966089E+03</rscale>
<asrwt>0</asrwt>
<pdfrwt beam="1">  1       21 0.29974040E-01 0.42966089E+03</pdfrwt>
<pdfrwt beam="2">  1        2 0.37345686E+00 0.42966089E+03</pdfrwt>
<totfact> 0.54024527E+02</totfact>
</mgrwt>
</event>
<event>
 5    0  0.2947253E-001  0.3233683E+03  0.7546771E-02  0.1074109E+00
          2   -1    0    0  502    0 -0.00000000000E+00  0.00000000000E+00  0.86247738821E+03  0.86247738821E+03  0.00000000000E+00 0. -1.
         21   -1    0    0  503  502  0.00000000000E+00 -0.00000000000E+00 -0.13335311327E+03  0.13335311327E+03  0.00000000000E+00 0. -1.
         25    1    1    2    0    0 -0.21237690152E+02 -0.29747442570E+03  0.18565428793E+03  0.37287342096E+03  0.12500000000E+03 0.  0.
         21    1    1    2  503  501  0.77971937229E+01  0.23262010558E+02  0.85983024040E+02  0.89414751513E+02  0.00000000000E+00 0.  1.
          2    1    1    2  501    0  0.13440496430E+02  0.27421241514E+03  0.45748696297E+03  0.53354232902E+03  0.00000000000E+00 0. -1.
<mgrwt>
<rscale>  4 0.32336832E+03</rscale>
<asrwt>0</asrwt>
<pdfrwt beam="1">  1       21 0.20515864E-01 0.32336832E+03</pdfrwt>
<pdfrwt beam="2">  1        2 0.13268883E+00 0.32336832E+03</pdfrwt>
<totfact> 0.86828831E+03</totfact>
</mgrwt>
</event>
<event>
 5    0  0.2947253E-001  0.2409911E+03  0.7546771E-02  0.1119134E+00
         21   -1    0    0  503  502  0.00000000000E+00  0.00000000000E+00  0.54133893973E+02  0.54133893973E+02  0.00000000000E+00 0.  1.
          2   -1    0    0  502    0 -0.00000000000E+00 -0.00000000000E+00 -0.14959351920E+04  0.14959351920E+04  0.00000000000E+00 0.  1.
         25    1    1    2    0    0 -0.19214101053E+03 -0.74387746080E+02 -0.28120948455E+03  0.37034508083E+03  0.12500000000E+03 0.  0.
         21    1    1    2  503  501  0.21607285691E+02  0.10899317333E+02 -0.70240902761E+02  0.74293030184E+02  0.00000000000E+00 0.  1.
          2    1    1    2  501    0  0.17053372484E+03  0.63488428746E+02 -0.10903509108E+04  0.11054309750E+04  0.00000000000E+00 0.  1.
<mgrwt>
<rscale>  4 0.24099109E+03</rscale>
<asrwt>0</asrwt>
<pdfrwt beam="1">  1       21 0.83282926E-02 0.24099109E+03</pdfrwt>
<pdfrwt beam="2">  1        2 0.23014384E+00 0.24099109E+03</pdfrwt>
<totfact> 0.19472873E+04</totfact>
</mgrwt>
</event>
<event>
 5    0  0.2947253E-001  0.4538316E+03  0.7546771E-02  0.1026586E+00
         21   -1    0    0  503  502  0.00000000000E+00  0.00000000000E+00  0.51612821961E+03  0.51612821961E+03  0.00000000000E+00 0.  1.
          1   -1    0    0  502    0 -0.00000000000E+00 -0.00000000000E+00 -0.13383069491E+04  0.13383069491E+04  0.00000000000E+00 0.  1.
         25    1    1    2    0    0  0.40397475831E+03 -0.16474983000E+03  0.36862936856E+03  0.58468001779E+03  0.12500000000E+03 0.  0.
         21    1    1    2  503  501 -0.32948362347E+02  0.10056536674E+02 -0.54867375425E+02  0.64785472115E+02  0.00000000000E+00 0.  1.
          1    1    1    2  501    0 -0.37102639596E+03  0.15469329333E+03 -0.11359407226E+04  0.12049696788E+04  0.00000000000E+00 0.  1.
<mgrwt>
<rscale>  4 0.45383159E+03</rscale>
<asrwt>0</asrwt>
<pdfrwt beam="1">  1       21 0.79404342E-01 0.45383159E+03</pdfrwt>
<pdfrwt beam="2">  1        1 0.20589337E+00 0.45383159E+03</pdfrwt>
<totfact> 0.12628006E+02</totfact>
</mgrwt>
</event>
<event>
 5    0  0.2947253E-001  0.2390868E+03  0.7546771E-02  0.1120403E+00
         21   -1    0    0  503  502  0.00000000000E+00  0.00000000000E+00  0.31222999529E+03  0.31222999529E+03  0.00000000000E+00 0. -1.
          1   -1    0    0  502    0 -0.00000000000E+00 -0.00000000000E+00 -0.51184382091E+03  0.51184382091E+03  0.00000000000E+00 0. -1.
         25    1    1    2    0    0  0.55695458874E+02 -0.20966777782E+03  0.21776658625E+03  0.33182803872E+03  0.12500000000E+03 0.  0.
         21    1    1    2  503  501 -0.14216674964E+01  0.99845501104E+02 -0.64920327640E+02  0.11910413162E+03  0.00000000000E+00 0. -1.
          1    1    1    2  501    0 -0.54273791377E+02  0.10982227672E+03 -0.35246008423E+03  0.37314164585E+03  0.00000000000E+00 0. -1.
<mgrwt>
<rscale>  4 0.23908683E+03</rscale>
<asrwt>0</asrwt>
<pdfrwt beam="1">  1       21 0.48035384E-01 0.23908683E+03</pdfrwt>
<pdfrwt beam="2">  1        1 0.78745202E-01 0.23908683E+03</pdfrwt>
<totfact> 0.19664176E+03</totfact>
</mgrwt>
</event>
<event>
 5    0  0.2947253E-001  0.3395593E+03  0.7546771E-02  0.1066984E+00
          1   -1    0    0  502    0 -0.00000000000E+00  0.00000000000E+00  0.13057643280E+04  0.13057643280E+04  0.00000000000E+00 0. -1.
         21   -1    0    0  503  502  0.00000000000E+00 -0.00000000000E+00 -0.10895156531E+03  0.10895156531E+03  0.00000000000E+00 0. -1.
         25    1    1    2    0    0  0.51309947639E+02  0.33757470862E+03  0.60711978454E+03  0.70767847742E+03  0.12500000000E+03 0.  0.
         21    1    1    2  503  501 -0.18617509726E+02 -0.39074147378E+02  0.24969505682E+03  0.25341866952E+03  0.00000000000E+00 0. -1.
          1    1    1    2  501    0 -0.32692437913E+02 -0.29850056124E+03  0.33999792133E+03  0.45361874637E+03  0.00000000000E+00 0. -1.
<mgrwt>
<rscale>  4 0.33955928E+03</rscale>
<asrwt>0</asrwt>
<pdfrwt beam="1">  1       21 0.16761780E-01 0.33955928E+03</pdfrwt>
<pdfrwt beam="2">  1        1 0.20088681E+00 0.33955928E+03</pdfrwt>
<totfact> 0.33290369E+03</totfact>
</mgrwt>
</event>
<event>
 5    0  0.2947253E-001  0.5204101E+03  0.7546771E-02  0.1008585E+00
         21   -1    0    0  503  502  0.00000000000E+00  0.00000000000E+00  0.28139118617E+03  0.28139118617E+03  0.00000000000E+00 0.  1.
          1   -1    0    0  502    0 -0.00000000000E+00 -0.00000000000E+00 -0.18563890367E+04  0.18563890367E+04  0.00000000000E+00 0.  1.
         25    1    1    2    0    0  0.36118901303E+03 -0.35319133918E+03 -0.45306546296E+02  0.52237851061E+03  0.12500000000E+03 0.  0.
         21    1    1    2  503  501 -0.72577356347E+01  0.39291487826E+02 -0.65938539088E+02  0.77099848762E+02  0.00000000000E+00 0. -1.
          1    1    1    2  501    0 -0.35393127740E+03  0.31389985135E+03 -0.14637527651E+04  0.15383018635E+04  0.00000000000E+00 0.  1.
<mgrwt>
<rscale>  4 0.52041005E+03</rscale>
<asrwt>0</asrwt>
<pdfrwt beam="1">  1       21 0.43290951E-01 0.52041005E+03</pdfrwt>
<pdfrwt beam="2">  1        1 0.28559832E+00 0.52041005E+03</pdfrwt>
<totfact> 0.20933829E+02</totfact>
</mgrwt>
</event>
<event>
 5    0  0.2947253E-001  0.3032868E+03  0.7546771E-02  0.1083609E+00
         -1   -1    0    0    0  501 -0.00000000000E+00  0.00000000000E+00  0.12399594082E+03  0.12399594082E+03  0.00000000000E+00 0.  1.
         21   -1    0    0  501  502  0.00000000000E+00 -0.00000000000E+00 -0.71633572283E+03  0.71633572283E+03  0.00000000000E+00 0.  1.
         25    1    1    2    0    0  0.13628708487E+03 -0.24038243742E+03 -0.30764646338E+03  0.43200605569E+03  0.12500000000E+03 0.  0.
         21    1    1    2  501  501 -0.34041905334E+02  0.29442307882E+02 -0.80499537400E+01  0.45722014035E+02  0.00000000000E+00 0.  1.
         -1    1    1    2    0  502 -0.10224517954E+03  0.21094012954E+03 -0.27664336488E+03  0.36260359392E+03  0.00000000000E+00 0.  1.
<mgrwt>
<rscale>  4 0.30328680E+03</rscale>
<asrwt>0</asrwt>
<pdfrwt beam="1">  1       21 0.11020550E+00 0.30328680E+03</pdfrwt>
<pdfrwt beam="2">  1       -1 0.19076298E-01 0.30328680E+03</pdfrwt>
<totfact> 0.12341804E+03</totfact>
</mgrwt>
</event>
<event>
 5    0  0.2947253E-001  0.2644360E+03  0.7546771E-02  0.1104507E+00
          3   -1    0    0  502    0 -0.00000000000E+00  0.00000000000E+00  0.10344372839E+03  0.10344372839E+03  0.00000000000E+00 0. -1.
         21   -1    0    0  503  502  0.00000000000E+00 -0.00000000000E+00 -0.71516214745E+03  0.71516214745E+03  0.00000000000E+00 0. -1.
         25    1    1    2    0    0 -0.10026310797E+03 -0.22403545332E+03 -0.30400586922E+03  0.41023059818E+03  0.12500000000E+03 0.  0.
         21    1    1    2  503  501 -0.15475263885E+02  0.31235380186E+02 -0.11983753814E+02  0.36861132961E+02  0.00000000000E+00 0.  1.
          3    1    1    2  501    0  0.11573837185E+03  0.19280007313E+03 -0.29572879603E+03  0.37151414471E+03  0.00000000000E+00 0. -1.
<mgrwt>
<rscale>  4 0.26443601E+03</rscale>
<asrwt>0</asrwt>
<pdfrwt beam="1">  1       21 0.11002495E+00 0.26443601E+03</pdfrwt>
<pdfrwt beam="2">  1        3 0.15914419E-01 0.26443601E+03</pdfrwt>
<totfact> 0.10649028E+03</totfact>
</mgrwt>
</event>
<event>
 5    0  0.2947253E-001  0.2771691E+03  0.7546771E-02  0.1097245E+00
          2   -1    0    0  502    0 -0.00000000000E+00  0.00000000000E+00  0.14700908059E+04  0.14700908059E+04  0.00000000000E+00 0.  1.
         21   -1    0    0  503  502  0.00000000000E+00 -0.00000000000E+00 -0.78445898600E+02  0.78445898600E+02  0.00000000000E+00 0.  1.
         25    1    1    2    0    0  0.24685173028E+03 -0.16185028102E+02  0.23023466345E+03  0.36032031879E+03  0.12500000000E+03 0.  0.
         21    1    1    2  503  501 -0.46983253413E+02  0.19990171591E+02  0.23870456821E+03  0.24410428908E+03  0.00000000000E+00 0.  1.
          2    1    1    2  501    0 -0.19986847686E+03 -0.38051434891E+01  0.92270567560E+03  0.94411209660E+03  0.00000000000E+00 0.  1.
<mgrwt>
<rscale>  4 0.27716914E+03</rscale>
<asrwt>0</asrwt>
<pdfrwt beam="1">  1       21 0.12068601E-01 0.27716914E+03</pdfrwt>
<pdfrwt beam="2">  1        2 0.22616780E+00 0.27716914E+03</pdfrwt>
<totfact> 0.10295675E+04</totfact>
</mgrwt>
</event>
<event>
 5    0  0.2947253E-001  0.3343761E+03  0.7546771E-02  0.1069217E+00
          1   -1    0    0  502    0 -0.00000000000E+00  0.00000000000E+00  0.86308280359E+03  0.86308280359E+03  0.00000000000E+00 0. -1.
         21   -1    0    0  503  502  0.00000000000E+00 -0.00000000000E+00 -0.18690615485E+03  0.18690615485E+03  0.00000000000E+00 0.  1.
         25    1    1    2    0    0  0.30998855883E+03  0.94573757239E+01  0.43871654681E+02  0.33724185779E+03  0.12500000000E+03 0.  0.
         21    1    1    2  503  501 -0.11269366715E+03  0.15047672279E+02  0.13099226149E+03  0.17345105254E+03  0.00000000000E+00 0.  1.
          1    1    1    2  501    0 -0.19729489168E+03 -0.24505048003E+02  0.50131273257E+03  0.53929604810E+03  0.00000000000E+00 0. -1.
<mgrwt>
<rscale>  4 0.33437606E+03</rscale>
<asrwt>0</asrwt>
<pdfrwt beam="1">  1       21 0.28754794E-01 0.33437606E+03</pdfrwt>
<pdfrwt beam="2">  1        1 0.13278197E+00 0.33437606E+03</pdfrwt>
<totfact> 0.25225577E+03</totfact>
</mgrwt>
</event>
<event>
 5    0  0.2947253E-001  0.2103231E+03  0.7546771E-02  0.1141310E+00
         21   -1    0    0  501  502  0.00000000000E+00  0.00000000000E+00  0.16148428231E+03  0.16148428231E+03  0.00000000000E+00 0. -1.
         -1   -1    0    0    0  501 -0.00000000000E+00 -0.00000000000E+00 -0.44286281934E+03  0.44286281934E+03  0.00000000000E+00 0.  1.
         25    1    1    2    0    0 -0.16123750577E+03 -0.16044012605E+03 -0.16314557052E+03  0.30656164877E+03  0.12500000000E+03 0.  0.
         21    1    1    2  501  501  0.49946983194E+02  0.58074607691E+02 -0.12480143503E+03  0.14643346398E+03  0.00000000000E+00 0.  1.
         -1    1    1    2    0  502  0.11129052258E+03  0.10236551836E+03  0.65684685285E+01  0.15135198890E+03  0.00000000000E+00 0.  1.
<mgrwt>
<rscale>  4 0.21032307E+03</rscale>
<asrwt>0</asrwt>
<pdfrwt beam="1">  1       21 0.24843736E-01 0.21032307E+03</pdfrwt>
<pdfrwt beam="2">  1       -1 0.68132740E-01 0.21032307E+03</pdfrwt>
<totfact> 0.32151243E+03</totfact>
</mgrwt>
</event>
<event>
 5    0  0.2947253E-001  0.2675448E+03  0.7546771E-02  0.1102693E+00
         21   -1    0    0  503  502  0.00000000000E+00  0.00000000000E+00  0.38582726375E+02  0.38582726375E+02  0.00000000000E+00 0. -1.
          1   -1    0    0  502    0 -0.00000000000E+00 -0.00000000000E+00 -0.33658030206E+04  0.33658030206E+04  0.00000000000E+00 0.  1.
         25    1    1    2    0    0 -0.55454072180E+02  0.22995671220E+03 -0.50045238537E+03  0.56747936846E+03  0.12500000000E+03 0.  0.
         21    1    1    2  503  501  0.24170726848E+02 -0.37300434739E+02 -0.52387505188E+03  0.52575718393E+03  0.00000000000E+00 0.  1.
          1    1    1    2  501    0  0.31283345332E+02 -0.19265627746E+03 -0.23028928570E+04  0.23111491946E+04  0.00000000000E+00 0.  1.
<mgrwt>
<rscale>  4 0.26754484E+03</rscale>
<asrwt>0</asrwt>
<pdfrwt beam="1">  1       21 0.59358033E-02 0.26754484E+03</pdfrwt>
<pdfrwt beam="2">  1        1 0.51781591E+00 0.26754484E+03</pdfrwt>
<totfact> 0.88475960E+02</totfact>
</mgrwt>
</event>
<event>
 5    0  0.2947253E-001  0.2225417E+03  0.7546771E-02  0.1132002E+00
         21   -1    0    0  503  502  0.00000000000E+00  0.00000000000E+00  0.60006332214E+02  0.60006332214E+02  0.00000000000E+00 0. -1.
          2   -1    0    0  502    0 -0.00000000000E+00 -0.00000000000E+00 -0.12329269316E+04  0.12329269316E+04  0.00000000000E+00 0.  1.
         25    1    1    2    0    0  0.12160515554E+02 -0.20652287036E+03 -0.28058184206E+03  0.37033868852E+03  0.12500000000E+03 0.  0.
         21    1    1    2  503  501  0.35809309947E+02  0.74897382163E+02 -0.20590561008E+03  0.22201136186E+03  0.00000000000E+00 0.  1.
          2    1    1    2  501    0 -0.47969825502E+02  0.13162548820E+03 -0.68643314728E+03  0.70058321346E+03  0.00000000000E+00 0.  1.
<mgrwt>
<rscale>  4 0.22254172E+03</rscale>
<asrwt>0</asrwt>
<pdfrwt beam="1">  1       21 0.92317441E-02 0.22254172E+03</pdfrwt>
<pdfrwt beam="2">  1        2 0.18968105E+00 0.22254172E+03</pdfrwt>
<totfact> 0.22704155E+04</totfact>
</mgrwt>
</event>
<event>
 5    0  0.2947253E-001  0.6604364E+03  0.7546771E-02  0.9787391E-01
         21   -1    0    0  501  502  0.00000000000E+00  0.00000000000E+00  0.66117491459E+03  0.66117491459E+03  0.00000000000E+00 0. -1.
         -1   -1    0    0    0  501 -0.00000000000E+00 -0.00000000000E+00 -0.88850453354E+03  0.88850453354E+03  0.00000000000E+00 0. -1.
         25    1    1    2    0    0 -0.18499046332E+03 -0.63760636383E+03  0.22134166477E+03  0.71090117406E+03  0.12500000000E+03 0.  0.
         21    1    1    2  501  501  0.16320659488E+03  0.59523022887E+03 -0.30705391855E+03  0.68936023012E+03  0.00000000000E+00 0. -1.
         -1    1    1    2    0  502  0.21783868434E+02  0.42376134957E+02 -0.14161736517E+03  0.14941804394E+03  0.00000000000E+00 0. -1.
<mgrwt>
<rscale>  4 0.66043643E+03</rscale>
<asrwt>0</asrwt>
<pdfrwt beam="1">  1       21 0.10171922E+00 0.66043643E+03</pdfrwt>
<pdfrwt beam="2">  1       -1 0.13669300E+00 0.66043643E+03</pdfrwt>
<totfact> 0.29378455E+01</totfact>
</mgrwt>
</event>
<event>
 5    0  0.2947253E-001  0.2847005E+03  0.7546771E-02  0.1093149E+00
          1   -1    0    0  502    0 -0.00000000000E+00  0.00000000000E+00  0.10437196423E+04  0.10437196423E+04  0.00000000000E+00 0.  1.
         21   -1    0    0  503  502  0.00000000000E+00 -0.00000000000E+00 -0.10675135948E+03  0.10675135948E+03  0.00000000000E+00 0. -1.
         25    1    1    2    0    0 -0.14186862176E+03  0.23962865662E+03  0.28589673553E+03  0.41822307720E+03  0.12500000000E+03 0.  0.
         21    1    1    2  503  501 -0.27150483897E+02 -0.76078346168E+02  0.29230613175E+03  0.30326216083E+03  0.00000000000E+00 0. -1.
          1    1    1    2  501    0  0.16901910566E+03 -0.16355031045E+03  0.35876541554E+03  0.42898576376E+03  0.00000000000E+00 0.  1.
<mgrwt>
<rscale>  4 0.28470053E+03</rscale>
<asrwt>0</asrwt>
<pdfrwt beam="1">  1       21 0.16423287E-01 0.28470053E+03</pdfrwt>
<pdfrwt beam="2">  1        1 0.16057225E+00 0.28470053E+03</pdfrwt>
<totfact> 0.53882144E+03</totfact>
</mgrwt>
</event>
<event>
 5    0  0.2947253E-001  0.2757408E+03  0.7546771E-02  0.1098038E+00
         21   -1    0    0  503  502  0.00000000000E+00  0.00000000000E+00  0.47865766077E+03  0.47865766077E+03  0.00000000000E+00 0.  1.
          1   -1    0    0  502    0 -0.00000000000E+00 -0.00000000000E+00 -0.15202981880E+03  0.15202981880E+03  0.00000000000E+00 0. -1.
         25    1    1    2    0    0  0.40819153124E+02  0.24236699784E+03  0.24031710327E+03  0.36576669481E+03  0.12500000000E+03 0.  0.
         21    1    1    2  503  501 -0.29426367908E+02 -0.70308616883E+02  0.12008355537E+02  0.77158365321E+02  0.00000000000E+00 0. -1.
          1    1    1    2  501    0 -0.11392785216E+02 -0.17205838096E+03  0.74302383157E+02  0.18776241945E+03  0.00000000000E+00 0. -1.
<mgrwt>
<rscale>  4 0.27574076E+03</rscale>
<asrwt>0</asrwt>
<pdfrwt beam="1">  1       21 0.73639639E-01 0.27574076E+03</pdfrwt>
<pdfrwt beam="2">  1        1 0.23389203E-01 0.27574076E+03</pdfrwt>
<totfact> 0.36383832E+03</totfact>
</mgrwt>
</event>
<event>
 5    0  0.2947253E-001  0.2651148E+03  0.7546771E-02  0.1104109E+00
         21   -1    0    0  503  502  0.00000000000E+00  0.00000000000E+00  0.60383151293E+03  0.60383151293E+03  0.00000000000E+00 0.  1.
          1   -1    0    0  502    0 -0.00000000000E+00 -0.00000000000E+00 -0.40998011652E+03  0.40998011652E+03  0.00000000000E+00 0.  1.
         25    1    1    2    0    0  0.87489766597E+02  0.23380757649E+03  0.49194914960E+03  0.56564954510E+03  0.12500000000E+03 0.  0.
         21    1    1    2  503  501  0.15779847966E+02 -0.25193837776E+02  0.32365742522E+02  0.43946266653E+02  0.00000000000E+00 0.  1.
          1    1    1    2  501    0 -0.10326961456E+03 -0.20861373871E+03 -0.33046349571E+03  0.40421581769E+03  0.00000000000E+00 0.  1.
<mgrwt>
<rscale>  4 0.26511477E+03</rscale>
<asrwt>0</asrwt>
<pdfrwt beam="1">  1       21 0.92897156E-01 0.26511477E+03</pdfrwt>
<pdfrwt beam="2">  1        1 0.63073864E-01 0.26511477E+03</pdfrwt>
<totfact> 0.60736145E+02</totfact>
</mgrwt>
</event>
<event>
 5    0  0.2947253E-001  0.2744942E+03  0.7546771E-02  0.1098735E+00
         21   -1    0    0  501  502  0.00000000000E+00  0.00000000000E+00  0.12752212430E+04  0.12752212430E+04  0.00000000000E+00 0.  1.
         -1   -1    0    0    0  501 -0.00000000000E+00 -0.00000000000E+00 -0.13843181098E+03  0.13843181098E+03  0.00000000000E+00 0. -1.
         25    1    1    2    0    0 -0.14663052232E+03 -0.22064616580E+03  0.10705866278E+04  0.11099396237E+04  0.12500000000E+03 0.  0.
         21    1    1    2  501  501  0.12334413990E+02  0.19312831809E+02  0.57102321714E+02  0.61528841904E+02  0.00000000000E+00 0. -1.
         -1    1    1    2    0  502  0.13429610833E+03  0.20133333399E+03  0.91004825180E+01  0.24218458842E+03  0.00000000000E+00 0. -1.
<mgrwt>
<rscale>  4 0.27449422E+03</rscale>
<asrwt>0</asrwt>
<pdfrwt beam="1">  1       21 0.19618788E+00 0.27449422E+03</pdfrwt>
<pdfrwt beam="2">  1       -1 0.21297203E-01 0.27449422E+03</pdfrwt>
<totfact> 0.22255902E+02</totfact>
</mgrwt>
</event>
<event>
 5    0  0.2947253E-001  0.2690077E+03  0.7546771E-02  0.1101849E+00
         21   -1    0    0  501  502  0.00000000000E+00  0.00000000000E+00  0.37423583541E+03  0.37423583541E+03  0.00000000000E+00 0. -1.
         -2   -1    0    0    0  501 -0.00000000000E+00 -0.00000000000E+00 -0.35051109595E+03  0.35051109595E+03  0.00000000000E+00 0. -1.
         25    1    1    2    0    0 -0.21408225806E+03  0.10444585708E+03  0.26698217876E+03  0.37900479423E+03  0.12500000000E+03 0.  0.
         21    1    1    2  501  501  0.16743150157E+03 -0.94284279471E+02 -0.16124407858E+03  0.25084354876E+03  0.00000000000E+00 0. -1.
         -2    1    1    2    0  502  0.46650756482E+02 -0.10161577614E+02 -0.82013360719E+02  0.94898588379E+02  0.00000000000E+00 0. -1.
<mgrwt>
<rscale>  4 0.26900771E+03</rscale>
<asrwt>0</asrwt>
<pdfrwt beam="1">  1       21 0.57574744E-01 0.26900771E+03</pdfrwt>
<pdfrwt beam="2">  1       -2 0.53924784E-01 0.26900771E+03</pdfrwt>
<totfact> 0.73792907E+02</totfact>
</mgrwt>
</event>
<event>
 5    0  0.2947253E-001  0.3239854E+03  0.7546771E-02  0.1073830E+00
         21   -1    0    0  501  502  0.00000000000E+00  0.00000000000E+00  0.63031081696E+02  0.63031081696E+02  0.00000000000E+00 0.  1.
         -1   -1    0    0    0  501 -0.00000000000E+00 -0.00000000000E+00 -0.16325944826E+04  0.16325944826E+04  0.00000000000E+00 0.  1.
         25    1    1    2    0    0  0.79001959567E+02  0.28827115995E+03 -0.66189775855E+03  0.73693637042E+03  0.12500000000E+03 0.  0.
         21    1    1    2  501  501  0.10697095470E+02 -0.44357302057E+02 -0.93281111792E+02  0.10384297720E+03  0.00000000000E+00 0. -1.
         -1    1    1    2    0  502 -0.89699055037E+02 -0.24391385789E+03 -0.81438453058E+03  0.85484621670E+03  0.00000000000E+00 0.  1.
<mgrwt>
<rscale>  4 0.32398545E+03</rscale>
<asrwt>0</asrwt>
<pdfrwt beam="1">  1       21 0.96970909E-02 0.32398545E+03</pdfrwt>
<pdfrwt beam="2">  1       -1 0.25116835E+00 0.32398545E+03</pdfrwt>
<totfact> 0.61118227E+02</totfact>
</mgrwt>
</event>
<event>
 5    0  0.2947253E-001  0.2039460E+03  0.7546771E-02  0.1146452E+00
          2   -1    0    0  502    0 -0.00000000000E+00  0.00000000000E+00  0.35635630027E+03  0.35635630027E+03  0.00000000000E+00 0. -1.
         21   -1    0    0  503  502  0.00000000000E+00 -0.00000000000E+00 -0.53502254212E+03  0.53502254212E+03  0.00000000000E+00 0.  1.
         25    1    1    2    0    0  0.17772933712E+03  0.95182470420E+02 -0.44938341511E+03  0.50815142795E+03  0.12500000000E+03 0.  0.
         21    1    1    2  503  501 -0.49616473067E+02 -0.16800308489E+00 -0.18492132127E+02  0.52950746692E+02  0.00000000000E+00 0.  1.
          2    1    1    2  501    0 -0.12811286405E+03 -0.95014467335E+02  0.28920930539E+03  0.33027666775E+03  0.00000000000E+00 0. -1.
<mgrwt>
<rscale>  4 0.20394595E+03</rscale>
<asrwt>0</asrwt>
<pdfrwt beam="1">  1       21 0.82311160E-01 0.20394595E+03</pdfrwt>
<pdfrwt beam="2">  1        2 0.54824047E-01 0.20394595E+03</pdfrwt>
<totfact> 0.14458606E+03</totfact>
</mgrwt>
</event>
<event>
 5    0  0.2947253E-001  0.3896260E+03  0.7546771E-02  0.1047432E+00
         21   -1    0    0  501  502  0.00000000000E+00  0.00000000000E+00  0.87493175240E+03  0.87493175240E+03  0.00000000000E+00 0.  1.
         -2   -1    0    0    0  501 -0.00000000000E+00 -0.00000000000E+00 -0.16393354982E+04  0.16393354982E+04  0.00000000000E+00 0.  1.
         25    1    1    2    0    0  0.27958979475E+03  0.24026268729E+03  0.80117265204E+03  0.89072960578E+03  0.12500000000E+03 0.  0.
         21    1    1    2  501  501  0.26137307925E+02 -0.12781269730E+02 -0.31113032123E+03  0.31248775417E+03  0.00000000000E+00 0.  1.
         -2    1    1    2    0  502 -0.30572710267E+03 -0.22748141756E+03 -0.12544460767E+04  0.13110498907E+04  0.00000000000E+00 0.  1.
<mgrwt>
<rscale>  4 0.38962598E+03</rscale>
<asrwt>0</asrwt>
<pdfrwt beam="1">  1       21 0.13460489E+00 0.38962598E+03</pdfrwt>
<pdfrwt beam="2">  1       -2 0.25220546E+00 0.38962598E+03</pdfrwt>
<totfact> 0.19830729E+00</totfact>
</mgrwt>
</event>
<event>
 5    0  0.2947253E-001  0.3511076E+03  0.7546771E-02  0.1062161E+00
          2   -1    0    0  502    0 -0.00000000000E+00  0.00000000000E+00  0.64347815088E+03  0.64347815088E+03  0.00000000000E+00 0.  1.
         21   -1    0    0  503  502  0.00000000000E+00 -0.00000000000E+00 -0.18957175686E+03  0.18957175686E+03  0.00000000000E+00 0.  1.
         25    1    1    2    0    0 -0.15929686600E+03 -0.28683797293E+03  0.17939212195E+03  0.39428168566E+03  0.12500000000E+03 0.  0.
         21    1    1    2  503  501  0.34359920290E+02  0.63061244008E+02  0.11898419723E+03  0.13897684631E+03  0.00000000000E+00 0.  1.
          2    1    1    2  501    0  0.12493694571E+03  0.22377672892E+03  0.15553007483E+03  0.29979137577E+03  0.00000000000E+00 0.  1.
<mgrwt>
<rscale>  4 0.35110755E+03</rscale>
<asrwt>0</asrwt>
<pdfrwt beam="1">  1       21 0.29164886E-01 0.35110755E+03</pdfrwt>
<pdfrwt beam="2">  1        2 0.98996637E-01 0.35110755E+03</pdfrwt>
<totfact> 0.63317005E+03</totfact>
</mgrwt>
</event>
<event>
 5    0  0.2947253E-001  0.5410735E+03  0.7546771E-02  0.1003581E+00
          2   -1    0    0  502    0 -0.00000000000E+00  0.00000000000E+00  0.18018490134E+04  0.18018490134E+04  0.00000000000E+00 0.  1.
         21   -1    0    0  503  502  0.00000000000E+00 -0.00000000000E+00 -0.32096405262E+03  0.32096405262E+03  0.00000000000E+00 0.  1.
         25    1    1    2    0    0 -0.48278199311E+03  0.20989771160E+03 -0.87033590258E+01  0.54114346588E+03  0.12500000000E+03 0.  0.
         21    1    1    2  503  501  0.19480034529E+02 -0.22348108887E+02  0.12368629810E+03  0.12718966174E+03  0.00000000000E+00 0. -1.
          2    1    1    2  501    0  0.46330195859E+03 -0.18754960271E+03  0.13659020217E+04  0.14544799384E+04  0.00000000000E+00 0.  1.
<mgrwt>
<rscale>  4 0.54107347E+03</rscale>
<asrwt>0</asrwt>
<pdfrwt beam="1">  1       21 0.49379086E-01 0.54107347E+03</pdfrwt>
<pdfrwt beam="2">  1        2 0.27720753E+00 0.54107347E+03</pdfrwt>
<totfact> 0.40879441E+02</totfact>
</mgrwt>
</event>
<event>
 5    0  0.2947253E-001  0.2651490E+03  0.7546771E-02  0.1104088E+00
         21   -1    0    0  503  502  0.00000000000E+00  0.00000000000E+00  0.19872013497E+03  0.19872013497E+03  0.00000000000E+00 0. -1.
          2   -1    0    0  502    0 -0.00000000000E+00 -0.00000000000E+00 -0.43851373822E+03  0.43851373822E+03  0.00000000000E+00 0. -1.
         25    1    1    2    0    0  0.10095764437E+03 -0.21091832408E+03  0.34961357946E+02  0.26744397907E+03  0.12500000000E+03 0.  0.
         21    1    1    2  503  501 -0.17357741652E+02  0.94302833497E+02 -0.65719107247E+02  0.11624679203E+03  0.00000000000E+00 0. -1.
          2    1    1    2  501    0 -0.83599902714E+02  0.11661549059E+03 -0.20903585395E+03  0.25354310209E+03  0.00000000000E+00 0. -1.
<mgrwt>
<rscale>  4 0.26514899E+03</rscale>
<asrwt>0</asrwt>
<pdfrwt beam="1">  1       21 0.30572329E-01 0.26514899E+03</pdfrwt>
<pdfrwt beam="2">  1        2 0.67463651E-01 0.26514899E+03</pdfrwt>
<totfact> 0.91016676E+03</totfact>
</mgrwt>
</event>
<event>
 5    0  0.2947253E-001  0.3230172E+03  0.7546771E-02  0.1074269E+00
         -1   -1    0    0    0  501 -0.00000000000E+00  0.00000000000E+00  0.76722250971E+03  0.76722250971E+03  0.00000000000E+00 0.  1.
         21   -1    0    0  501  502  0.00000000000E+00 -0.00000000000E+00 -0.13386963449E+04  0.13386963449E+04  0.00000000000E+00 0.  1.
         25    1    1    2    0    0  0.19982382227E+03 -0.22570430056E+03 -0.12524181547E+04  0.12942365415E+04  0.12500000000E+03 0.  0.
         21    1    1    2  501  501 -0.34590763785E+02 -0.22087957462E+02 -0.23197830218E+02  0.47143802678E+02  0.00000000000E+00 0.  1.
         -1    1    1    2    0  502 -0.16523305849E+03  0.24779225802E+03  0.70414214976E+03  0.76453851036E+03  0.00000000000E+00 0.  1.
<mgrwt>
<rscale>  4 0.32301718E+03</rscale>
<asrwt>0</asrwt>
<pdfrwt beam="1">  1       21 0.20595328E+00 0.32301718E+03</pdfrwt>
<pdfrwt beam="2">  1       -1 0.11803423E+00 0.32301718E+03</pdfrwt>
<totfact> 0.70935263E+00</totfact>
</mgrwt>
</event>
<event>
 5    0  0.2947253E-001  0.2404964E+03  0.7546771E-02  0.1119463E+00
          2   -1    0    0  502    0 -0.00000000000E+00  0.00000000000E+00  0.89392125893E+03  0.89392125893E+03  0.00000000000E+00 0.  1.
         21   -1    0    0  503  502  0.00000000000E+00 -0.00000000000E+00 -0.89923035104E+02  0.89923035104E+02  0.00000000000E+00 0. -1.
         25    1    1    2    0    0 -0.17975971548E+03 -0.99498549903E+02  0.12127034130E+03  0.26934181335E+03  0.12500000000E+03 0.  0.
         21    1    1    2  503  501  0.26752831000E+02  0.31275620258E+01  0.54885666420E+02  0.61138629271E+02  0.00000000000E+00 0. -1.
          2    1    1    2  501    0  0.15300688448E+03  0.96370987877E+02  0.62784221611E+03  0.65336385141E+03  0.00000000000E+00 0.  1.
<mgrwt>
<rscale>  4 0.24049640E+03</rscale>
<asrwt>0</asrwt>
<pdfrwt beam="1">  1       21 0.13834314E-01 0.24049640E+03</pdfrwt>
<pdfrwt beam="2">  1        2 0.13752634E+00 0.24049640E+03</pdfrwt>
<totfact> 0.17482435E+04</totfact>
</mgrwt>
</event>
<event>
 5    0  0.4679623E-001  0.3157765E+03  0.7546771E-02  0.1077610E+00
         21   -1    0    0  503  502  0.00000000000E+00  0.00000000000E+00  0.63058746806E+02  0.63058746806E+02  0.00000000000E+00 0. -1.
          2   -1    0    0  502    0 -0.00000000000E+00 -0.00000000000E+00 -0.14742830523E+04  0.14742830523E+04  0.00000000000E+00 0. -1.
         25    1    1    2    0    0  0.16439311980E+03 -0.23888219934E+03 -0.73021353643E+03  0.79556684935E+03  0.12500000000E+03 0.  0.
         21    1    1    2  503  501 -0.42027983010E+01  0.20139036340E+02 -0.28254082896E+02  0.34950500691E+02  0.00000000000E+00 0. -1.
          2    1    1    2  501    0 -0.16019032150E+03  0.21874316300E+03 -0.65275668620E+03  0.70682444910E+03  0.00000000000E+00 0. -1.
<mgrwt>
<rscale>  4 0.31577651E+03</rscale>
<asrwt>0</asrwt>
<pdfrwt beam="1">  1       21 0.97013471E-02 0.31577651E+03</pdfrwt>
<pdfrwt beam="2">  1        2 0.22681274E+00 0.31577651E+03</pdfrwt>
<totfact> 0.15013635E+04</totfact>
</mgrwt>
</event>
<event>
 5    0  0.2947253E-001  0.2395801E+03  0.7546771E-02  0.1120073E+00
         -2   -1    0    0    0  501 -0.00000000000E+00  0.00000000000E+00  0.25465938494E+03  0.25465938494E+03  0.00000000000E+00 0.  1.
         21   -1    0    0  501  502  0.00000000000E+00 -0.00000000000E+00 -0.60940388084E+03  0.60940388084E+03  0.00000000000E+00 0. -1.
         25    1    1    2    0    0  0.19023054906E+03  0.74739368489E+02 -0.53640010906E+03  0.58747230743E+03  0.12500000000E+03 0.  0.
         21    1    1    2  501  501 -0.54420802843E+02 -0.20676946138E+02  0.28301342495E+02  0.64731181595E+02  0.00000000000E+00 0. -1.
         -2    1    1    2    0  502 -0.13580974622E+03 -0.54062422351E+02  0.15335427066E+03  0.21185977676E+03  0.00000000000E+00 0.  1.
<mgrwt>
<rscale>  4 0.23958012E+03</rscale>
<asrwt>0</asrwt>
<pdfrwt beam="1">  1       21 0.93754442E-01 0.23958012E+03</pdfrwt>
<pdfrwt beam="2">  1       -2 0.39178368E-01 0.23958012E+03</pdfrwt>
<totfact> 0.46808280E+02</totfact>
</mgrwt>
</event>
<event>
 5    0  0.2947253E-001  0.2637960E+03  0.7546771E-02  0.1104884E+00
         21   -1    0    0  501  502  0.00000000000E+00  0.00000000000E+00  0.79165571066E+03  0.79165571066E+03  0.00000000000E+00 0. -1.
         -2   -1    0    0    0  501 -0.00000000000E+00 -0.00000000000E+00 -0.39507863460E+03  0.39507863460E+03  0.00000000000E+00 0.  1.
         25    1    1    2    0    0  0.99713175567E+02 -0.21279281511E+03  0.71218885761E+03  0.76030353705E+03  0.12500000000E+03 0.  0.
         21    1    1    2  501  501  0.29488961089E+02  0.57803071525E+02 -0.18859341136E+02  0.67575651325E+02  0.00000000000E+00 0.  1.
         -2    1    1    2    0  502 -0.12920213666E+03  0.15498974359E+03 -0.29675244041E+03  0.35885515689E+03  0.00000000000E+00 0.  1.
<mgrwt>
<rscale>  4 0.26379597E+03</rscale>
<asrwt>0</asrwt>
<pdfrwt beam="1">  1       21 0.12179319E+00 0.26379597E+03</pdfrwt>
<pdfrwt beam="2">  1       -2 0.60781329E-01 0.26379597E+03</pdfrwt>
<totfact> 0.10232695E+02</totfact>
</mgrwt>
</event>
<event>
 5    0  0.2947253E-001  0.2664478E+03  0.7546771E-02  0.1103330E+00
         -3   -1    0    0    0  501 -0.00000000000E+00  0.00000000000E+00  0.30194588207E+03  0.30194588207E+03  0.00000000000E+00 0. -1.
         21   -1    0    0  501  502  0.00000000000E+00 -0.00000000000E+00 -0.85561562805E+03  0.85561562805E+03  0.00000000000E+00 0. -1.
         25    1    1    2    0    0  0.19096570737E+03 -0.13748282747E+03 -0.77718310659E+03  0.82158871122E+03  0.12500000000E+03 0.  0.
         21    1    1    2  501  501 -0.42174836946E+02 -0.25322605656E+01  0.17210502470E+02  0.45621602452E+02  0.00000000000E+00 0. -1.
         -3    1    1    2    0  502 -0.14879087042E+03  0.14001508803E+03  0.20630285814E+03  0.29035119644E+03  0.00000000000E+00 0. -1.
<mgrwt>
<rscale>  4 0.26644780E+03</rscale>
<asrwt>0</asrwt>
<pdfrwt beam="1">  1       21 0.13163317E+00 0.26644780E+03</pdfrwt>
<pdfrwt beam="2">  1       -3 0.46453213E-01 0.26644780E+03</pdfrwt>
<totfact> 0.92898915E+01</totfact>
</mgrwt>
</event>
<event>
 5    0  0.2947253E-001  0.4441398E+03  0.7546771E-02  0.1029484E+00
          2   -1    0    0  502    0 -0.00000000000E+00  0.00000000000E+00  0.64435052211E+03  0.64435052211E+03  0.00000000000E+00 0.  1.
         21   -1    0    0  503  502  0.00000000000E+00 -0.00000000000E+00 -0.36321995192E+03  0.36321995192E+03  0.00000000000E+00 0. -1.
         25    1    1    2    0    0  0.32849807915E+03  0.27152196479E+03 -0.73303728766E+02  0.45014842221E+03  0.12500000000E+03 0.  0.
         21    1    1    2  503  501 -0.20632076216E+02 -0.27952476306E+02  0.12826787782E+02  0.37034443231E+02  0.00000000000E+00 0.  1.
          2    1    1    2  501    0 -0.30786600294E+03 -0.24356948848E+03  0.34160751117E+03  0.52038760859E+03  0.00000000000E+00 0.  1.
<mgrwt>
<rscale>  4 0.44413980E+03</rscale>
<asrwt>0</asrwt>
<pdfrwt beam="1">  1       21 0.55879993E-01 0.44413980E+03</pdfrwt>
<pdfrwt beam="2">  1        2 0.99130849E-01 0.44413980E+03</pdfrwt>
<totfact> 0.16251546E+03</totfact>
</mgrwt>
</event>
<event>
 5    0  0.2947253E-001  0.2439966E+03  0.7546771E-02  0.1117159E+00
         21   -1    0    0  503  502  0.00000000000E+00  0.00000000000E+00  0.23209158597E+04  0.23209158597E+04  0.00000000000E+00 0. -1.
          2   -1    0    0  502    0 -0.00000000000E+00 -0.00000000000E+00 -0.23204647487E+02  0.23204647487E+02  0.00000000000E+00 0. -1.
         25    1    1    2    0    0  0.20023059872E+03 -0.61782206737E+02  0.12898486442E+04  0.13127238318E+04  0.12500000000E+03 0.  0.
         21    1    1    2  503  501 -0.81817286130E+02  0.45308208759E+02  0.56463858474E+03  0.57233175123E+03  0.00000000000E+00 0. -1.
          2    1    1    2  501    0 -0.11841331259E+03  0.16473997978E+02  0.44322398332E+03  0.45906492416E+03  0.00000000000E+00 0. -1.
<mgrwt>
<rscale>  4 0.24399659E+03</rscale>
<asrwt>0</asrwt>
<pdfrwt beam="1">  1       21 0.35706380E+00 0.24399659E+03</pdfrwt>
<pdfrwt beam="2">  1        2 0.35699476E-02 0.24399659E+03</pdfrwt>
<totfact> 0.44668778E+02</totfact>
</mgrwt>
</event>
<event>
 5    0  0.2947253E-001  0.4526479E+03  0.7546771E-02  0.1026935E+00
         21   -1    0    0  503  502  0.00000000000E+00  0.00000000000E+00  0.48806293452E+03  0.48806293452E+03  0.00000000000E+00 0. -1.
          1   -1    0    0  502    0 -0.00000000000E+00 -0.00000000000E+00 -0.92497602221E+03  0.92497602221E+03  0.00000000000E+00 0.  1.
         25    1    1    2    0    0 -0.41667570268E+03  0.12508604963E+03  0.30903779696E+03  0.54808258590E+03  0.12500000000E+03 0.  0.
         21    1    1    2  503  501  0.23873448533E+02 -0.19085789821E+02 -0.43004589950E+02  0.52759868032E+02  0.00000000000E+00 0.  1.
          1    1    1    2  501    0  0.39280225415E+03 -0.10600025981E+03 -0.70294629470E+03  0.81219650281E+03  0.00000000000E+00 0.  1.
<mgrwt>
<rscale>  4 0.45264794E+03</rscale>
<asrwt>0</asrwt>
<pdfrwt beam="1">  1       21 0.75086606E-01 0.45264794E+03</pdfrwt>
<pdfrwt beam="2">  1        1 0.14230400E+00 0.45264794E+03</pdfrwt>
<totfact> 0.28823158E+02</totfact>
</mgrwt>
</event>
<event>
 5    0  0.2947253E-001  0.2355976E+03  0.7546771E-02  0.1122761E+00
         21   -1    0    0  501  502  0.00000000000E+00  0.00000000000E+00  0.18707192504E+03  0.18707192504E+03  0.00000000000E+00 0.  1.
         -1   -1    0    0    0  501 -0.00000000000E+00 -0.00000000000E+00 -0.53683096086E+03  0.53683096086E+03  0.00000000000E+00 0.  1.
         25    1    1    2    0    0 -0.23655084064E+03  0.42843192163E+02  0.64812994048E+01  0.27103292524E+03  0.12500000000E+03 0.  0.
         21    1    1    2  501  501  0.12381662590E+03  0.49819461900E+02 -0.16119109246E+03  0.20927279785E+03  0.00000000000E+00 0.  1.
         -1    1    1    2    0  502  0.11273421474E+03 -0.92662654063E+02 -0.19504924276E+03  0.24359716282E+03  0.00000000000E+00 0.  1.
<mgrwt>
<rscale>  4 0.23559762E+03</rscale>
<asrwt>0</asrwt>
<pdfrwt beam="1">  1       21 0.28780296E-01 0.23559762E+03</pdfrwt>
<pdfrwt beam="2">  1       -1 0.82589378E-01 0.23559762E+03</pdfrwt>
<totfact> 0.16250433E+03</totfact>
</mgrwt>
</event>
<event>
 5    0  0.2947253E-001  0.2770095E+03  0.7546771E-02  0.1097334E+00
         21   -1    0    0  501  502  0.00000000000E+00  0.00000000000E+00  0.11125412511E+04  0.11125412511E+04  0.00000000000E+00 0. -1.
         -1   -1    0    0    0  501 -0.00000000000E+00 -0.00000000000E+00 -0.32769837994E+03  0.32769837994E+03  0.00000000000E+00 0.  1.
         25    1    1    2    0    0 -0.21011459256E+03  0.13023489561E+03  0.10428841981E+04  0.10790466721E+04  0.12500000000E+03 0.  0.
         21    1    1    2  501  501  0.26267650199E+02  0.18595826826E+01 -0.25514212565E+02  0.36666367935E+02  0.00000000000E+00 0.  1.
         -1    1    1    2    0  502  0.18384694236E+03 -0.13209447829E+03 -0.23252711429E+03  0.32452659104E+03  0.00000000000E+00 0.  1.
<mgrwt>
<rscale>  4 0.27700951E+03</rscale>
<asrwt>0</asrwt>
<pdfrwt beam="1">  1       21 0.17116019E+00 0.27700951E+03</pdfrwt>
<pdfrwt beam="2">  1       -1 0.50415136E-01 0.27700951E+03</pdfrwt>
<totfact> 0.73831901E+01</totfact>
</mgrwt>
</event>
<event>
 5    0  0.2947253E-001  0.2840258E+03  0.7546771E-02  0.1093510E+00
          2   -1    0    0  502    0 -0.00000000000E+00  0.00000000000E+00  0.18767320425E+04  0.18767320425E+04  0.00000000000E+00 0. -1.
         21   -1    0    0  503  502  0.00000000000E+00 -0.00000000000E+00 -0.42553650968E+02  0.42553650968E+02  0.00000000000E+00 0.  1.
         25    1    1    2    0    0 -0.22031431255E+02 -0.25408709907E+03  0.73024894957E+03  0.78353951159E+03  0.12500000000E+03 0.  0.
         21    1    1    2  503  501  0.21726717769E+02  0.17363474749E+02  0.17126498907E+03  0.17350860786E+03  0.00000000000E+00 0.  1.
          2    1    1    2  501    0  0.30471348594E+00  0.23672362432E+03  0.93266445285E+03  0.96223757397E+03  0.00000000000E+00 0. -1.
<mgrwt>
<rscale>  4 0.28402577E+03</rscale>
<asrwt>0</asrwt>
<pdfrwt beam="1">  1       21 0.65467170E-02 0.28402577E+03</pdfrwt>
<pdfrwt beam="2">  1        2 0.28872794E+00 0.28402577E+03</pdfrwt>
<totfact> 0.18451241E+04</totfact>
</mgrwt>
</event>
<event>
 5    0  0.2947253E-001  0.2479810E+03  0.7546771E-02  0.1114587E+00
         -3   -1    0    0    0  501 -0.00000000000E+00  0.00000000000E+00  0.85499476869E+02  0.85499476869E+02  0.00000000000E+00 0.  1.
         21   -1    0    0  501  502  0.00000000000E+00 -0.00000000000E+00 -0.96228772007E+03  0.96228772007E+03  0.00000000000E+00 0.  1.
         25    1    1    2    0    0  0.16292526393E+03  0.13901423841E+03 -0.74514058834E+03  0.78532101493E+03  0.12500000000E+03 0.  0.
         21    1    1    2  501  501 -0.86697051513E+02 -0.11765876485E+03 -0.69560160568E+02  0.16185975295E+03  0.00000000000E+00 0.  1.
         -3    1    1    2    0  502 -0.76228212415E+02 -0.21355473566E+02 -0.62087494292E+02  0.10060642905E+03  0.00000000000E+00 0.  1.
<mgrwt>
<rscale>  4 0.24798105E+03</rscale>
<asrwt>0</asrwt>
<pdfrwt beam="1">  1       21 0.14804427E+00 0.24798105E+03</pdfrwt>
<pdfrwt beam="2">  1       -3 0.13153765E-01 0.24798105E+03</pdfrwt>
<totfact> 0.69863371E+02</totfact>
</mgrwt>
</event>
<event>
 5    0  0.2947253E-001  0.2411033E+03  0.7546771E-02  0.1119060E+00
         21   -1    0    0  503  502  0.00000000000E+00  0.00000000000E+00  0.27507430178E+03  0.27507430178E+03  0.00000000000E+00 0. -1.
          1   -1    0    0  502    0 -0.00000000000E+00 -0.00000000000E+00 -0.19173924725E+03  0.19173924725E+03  0.00000000000E+00 0. -1.
         25    1    1    2    0    0 -0.19382472405E+03 -0.70269226104E+02  0.86300436620E+02  0.25608309813E+03  0.12500000000E+03 0.  0.
         21    1    1    2  503  501  0.28801310480E+02  0.18606500582E+01  0.12437191086E+02  0.31427077912E+02  0.00000000000E+00 0. -1.
          1    1    1    2  501    0  0.16502341357E+03  0.68408576046E+02 -0.15402573185E+02  0.17930337298E+03  0.00000000000E+00 0. -1.
<mgrwt>
<rscale>  4 0.24110327E+03</rscale>
<asrwt>0</asrwt>
<pdfrwt beam="1">  1       21 0.42319124E-01 0.24110327E+03</pdfrwt>
<pdfrwt beam="2">  1        1 0.29498346E-01 0.24110327E+03</pdfrwt>
<totfact> 0.89240751E+03</totfact>
</mgrwt>
</event>
<event>
 5    0  0.2947253E-001  0.2750884E+03  0.7546771E-02  0.1098402E+00
         21   -1    0    0  503  502  0.00000000000E+00  0.00000000000E+00  0.34438501299E+03  0.34438501299E+03  0.00000000000E+00 0.  1.
          1   -1    0    0  502    0 -0.00000000000E+00 -0.00000000000E+00 -0.21135979377E+03  0.21135979377E+03  0.00000000000E+00 0.  1.
         25    1    1    2    0    0  0.14101943413E+03  0.20040495301E+03  0.44155403988E+01  0.27512383210E+03  0.12500000000E+03 0.  0.
         21    1    1    2  503  501 -0.37478898780E+02 -0.55113053677E+02  0.59330713479E+02  0.89231441214E+02  0.00000000000E+00 0. -1.
          1    1    1    2  501    0 -0.10354053535E+03 -0.14529189933E+03  0.69278965341E+02  0.19138953344E+03  0.00000000000E+00 0.  1.
<mgrwt>
<rscale>  4 0.27508840E+03</rscale>
<asrwt>0</asrwt>
<pdfrwt beam="1">  1       21 0.52982310E-01 0.27508840E+03</pdfrwt>
<pdfrwt beam="2">  1        1 0.32516891E-01 0.27508840E+03</pdfrwt>
<totfact> 0.49053882E+03</totfact>
</mgrwt>
</event>
<event>
 5    0  0.2947253E-001  0.3287132E+03  0.7546771E-02  0.1071708E+00
         21   -1    0    0  501  502  0.00000000000E+00  0.00000000000E+00  0.10090466839E+04  0.10090466839E+04  0.00000000000E+00 0.  1.
         -2   -1    0    0    0  501 -0.00000000000E+00 -0.00000000000E+00 -0.21579101097E+03  0.21579101097E+03  0.00000000000E+00 0.  1.
         25    1    1    2    0    0 -0.91834709766E+02 -0.33117179156E+03  0.66675791499E+03  0.76046004935E+03  0.12500000000E+03 0.  0.
         21    1    1    2  501  501  0.12313147845E+03  0.22475998734E+03  0.20525566119E+03  0.32834174170E+03  0.00000000000E+00 0.  1.
         -2    1    1    2    0  502 -0.31296768682E+02  0.10641180423E+03 -0.78757903242E+02  0.13603590383E+03  0.00000000000E+00 0.  1.
<mgrwt>
<rscale>  4 0.32871324E+03</rscale>
<asrwt>0</asrwt>
<pdfrwt beam="1">  1       21 0.15523795E+00 0.32871324E+03</pdfrwt>
<pdfrwt beam="2">  1       -2 0.33198618E-01 0.32871324E+03</pdfrwt>
<totfact> 0.17344899E+02</totfact>
</mgrwt>
</event>
<event>
 5    0  0.2947253E-001  0.2522125E+03  0.7546771E-02  0.1111915E+00
         21   -1    0    0  503  502  0.00000000000E+00  0.00000000000E+00  0.47488762373E+03  0.47488762373E+03  0.00000000000E+00 0.  1.
          3   -1    0    0  502    0 -0.00000000000E+00 -0.00000000000E+00 -0.14485289761E+03  0.14485289761E+03  0.00000000000E+00 0. -1.
         25    1    1    2    0    0  0.50283741790E+02  0.21320805276E+03  0.28371204833E+03  0.37960987187E+03  0.12500000000E+03 0.  0.
         21    1    1    2  503  501 -0.39692825107E+02 -0.24604079987E+02  0.79582350643E+01  0.47373142416E+02  0.00000000000E+00 0. -1.
          3    1    1    2  501    0 -0.10590916683E+02 -0.18860397278E+03  0.38364442721E+02  0.19275750706E+03  0.00000000000E+00 0. -1.
<mgrwt>
<rscale>  4 0.25221247E+03</rscale>
<asrwt>0</asrwt>
<pdfrwt beam="1">  1       21 0.73059634E-01 0.25221247E+03</pdfrwt>
<pdfrwt beam="2">  1        3 0.22285061E-01 0.25221247E+03</pdfrwt>
<totfact> 0.15277958E+03</totfact>
</mgrwt>
</event>
<event>
 5    0  0.2947253E-001  0.2426186E+03  0.7546771E-02  0.1118061E+00
         21   -1    0    0  503  502  0.00000000000E+00  0.00000000000E+00  0.10160538717E+03  0.10160538717E+03  0.00000000000E+00 0. -1.
          2   -1    0    0  502    0 -0.00000000000E+00 -0.00000000000E+00 -0.18676614600E+04  0.18676614600E+04  0.00000000000E+00 0.  1.
         25    1    1    2    0    0  0.99789591390E+02 -0.19168525816E+03 -0.74699194585E+02  0.26058812409E+03  0.12500000000E+03 0.  0.
         21    1    1    2  503  501 -0.54368019044E+02  0.57390852475E+02 -0.30449887575E+03  0.31459363753E+03  0.00000000000E+00 0. -1.
          2    1    1    2  501    0 -0.45421572346E+02  0.13429440569E+03 -0.13868580025E+04  0.13940850856E+04  0.00000000000E+00 0.  1.
<mgrwt>
<rscale>  4 0.24261863E+03</rscale>
<asrwt>0</asrwt>
<pdfrwt beam="1">  1       21 0.15631597E-01 0.24261863E+03</pdfrwt>
<pdfrwt beam="2">  1        2 0.28733254E+00 0.24261863E+03</pdfrwt>
<totfact> 0.40096182E+03</totfact>
</mgrwt>
</event>
<event>
 5    0  0.2947253E-001  0.3011549E+03  0.7546771E-02  0.1084665E+00
          2   -1    0    0  502    0 -0.00000000000E+00  0.00000000000E+00  0.28124352830E+04  0.28124352830E+04  0.00000000000E+00 0. -1.
         21   -1    0    0  503  502  0.00000000000E+00 -0.00000000000E+00 -0.62249311804E+02  0.62249311804E+02  0.00000000000E+00 0.  1.
         25    1    1    2    0    0 -0.27315810727E+03 -0.21305774532E+02  0.36462484458E+03  0.47291179398E+03  0.12500000000E+03 0.  0.
         21    1    1    2  503  501  0.62912508839E+02  0.21720438677E+02  0.46524688565E+03  0.46998343144E+03  0.00000000000E+00 0.  1.
          2    1    1    2  501    0  0.21024559843E+03 -0.41466414493E+00  0.19203142410E+04  0.19317893694E+04  0.00000000000E+00 0. -1.
<mgrwt>
<rscale>  4 0.30115492E+03</rscale>
<asrwt>0</asrwt>
<pdfrwt beam="1">  1       21 0.95768193E-02 0.30115492E+03</pdfrwt>
<pdfrwt beam="2">  1        2 0.43268225E+00 0.30115492E+03</pdfrwt>
<totfact> 0.29144348E+03</totfact>
</mgrwt>
</event>
<event>
 5    0  0.2947253E-001  0.2605970E+03  0.7546771E-02  0.1106785E+00
          2   -1    0    0  502    0 -0.00000000000E+00  0.00000000000E+00  0.11058836104E+04  0.11058836104E+04  0.00000000000E+00 0. -1.
         21   -1    0    0  503  502  0.00000000000E+00 -0.00000000000E+00 -0.21854913479E+03  0.21854913479E+03  0.00000000000E+00 0. -1.
         25    1    1    2    0    0  0.22710508829E+03  0.38428392292E+02 -0.11130390559E+03  0.28472271048E+03  0.12500000000E+03 0.  0.
         21    1    1    2  503  501 -0.97874250157E+01 -0.59275704096E+02  0.11799305451E+03  0.13240756662E+03  0.00000000000E+00 0. -1.
          2    1    1    2  501    0 -0.21731766328E+03  0.20847311803E+02  0.88064532672E+03  0.90730246812E+03  0.00000000000E+00 0. -1.
<mgrwt>
<rscale>  4 0.26059703E+03</rscale>
<asrwt>0</asrwt>
<pdfrwt beam="1">  1       21 0.33622944E-01 0.26059703E+03</pdfrwt>
<pdfrwt beam="2">  1        2 0.17013594E+00 0.26059703E+03</pdfrwt>
<totfact> 0.23898342E+03</totfact>
</mgrwt>
</event>
<event>
 5    0  0.2947253E-001  0.2297318E+03  0.7546771E-02  0.1126829E+00
         21   -1    0    0  503  502  0.00000000000E+00  0.00000000000E+00  0.33837799912E+03  0.33837799912E+03  0.00000000000E+00 0.  1.
          1   -1    0    0  502    0 -0.00000000000E+00 -0.00000000000E+00 -0.27654172830E+03  0.27654172830E+03  0.00000000000E+00 0.  1.
         25    1    1    2    0    0  0.24564904513E+03  0.10774508587E+03  0.36924078720E+02  0.29822951647E+03  0.12500000000E+03 0.  0.
         21    1    1    2  503  501 -0.13767682408E+03  0.19997112181E+02  0.49430950106E+02  0.14764217288E+03  0.00000000000E+00 0.  1.
          1    1    1    2  501    0 -0.10797222105E+03 -0.12774219805E+03 -0.24518758001E+02  0.16904803807E+03  0.00000000000E+00 0.  1.
<mgrwt>
<rscale>  4 0.22973176E+03</rscale>
<asrwt>0</asrwt>
<pdfrwt beam="1">  1       21 0.52058154E-01 0.22973176E+03</pdfrwt>
<pdfrwt beam="2">  1        1 0.42544881E-01 0.22973176E+03</pdfrwt>
<totfact> 0.36705100E+03</totfact>
</mgrwt>
</event>
<event>
 5    0  0.3189074E-001  0.2979535E+03  0.7546771E-02  0.1086268E+00
          2   -1    0    0  502    0 -0.00000000000E+00  0.00000000000E+00  0.89954441939E+03  0.89954441939E+03  0.00000000000E+00 0. -1.
         21   -1    0    0  503  502  0.00000000000E+00 -0.00000000000E+00 -0.15630801649E+03  0.15630801649E+03  0.00000000000E+00 0. -1.
         25    1    1    2    0    0 -0.23790846343E+03 -0.12865015550E+03  0.42667279505E+02  0.30099301690E+03  0.12500000000E+03 0.  0.
         21    1    1    2  503  501  0.24357685263E+02 -0.36561872037E+01  0.30229468675E+02  0.38993400886E+02  0.00000000000E+00 0.  1.
          2    1    1    2  501    0  0.21355077817E+03  0.13230634271E+03  0.67033965472E+03  0.71586601809E+03  0.00000000000E+00 0. -1.
<mgrwt>
<rscale>  4 0.29795352E+03</rscale>
<asrwt>0</asrwt>
<pdfrwt beam="1">  1       21 0.24047388E-01 0.29795352E+03</pdfrwt>
<pdfrwt beam="2">  1        2 0.13839145E+00 0.29795352E+03</pdfrwt>
<totfact> 0.60958143E+03</totfact>
</mgrwt>
</event>
<event>
 5    0  0.2947253E-001  0.2635830E+03  0.7546771E-02  0.1105009E+00
          2   -1    0    0  502    0 -0.00000000000E+00  0.00000000000E+00  0.18820417576E+04  0.18820417576E+04  0.00000000000E+00 0.  1.
         21   -1    0    0  503  502  0.00000000000E+00 -0.00000000000E+00 -0.39855791002E+02  0.39855791002E+02  0.00000000000E+00 0.  1.
         25    1    1    2    0    0 -0.67752898004E+02  0.22416590287E+03  0.63162562871E+03  0.68513994340E+03  0.12500000000E+03 0.  0.
         21    1    1    2  503  501  0.21142662947E+02  0.25594489094E+00  0.16622902055E+03  0.16756838895E+03  0.00000000000E+00 0. -1.
          2    1    1    2  501    0  0.46610235057E+02 -0.22442184776E+03  0.10443313173E+04  0.10691892162E+04  0.00000000000E+00 0.  1.
<mgrwt>
<rscale>  4 0.26358296E+03</rscale>
<asrwt>0</asrwt>
<pdfrwt beam="1">  1       21 0.61316616E-02 0.26358296E+03</pdfrwt>
<pdfrwt beam="2">  1        2 0.28954482E+00 0.26358296E+03</pdfrwt>
<totfact> 0.20640017E+04</totfact>
</mgrwt>
</event>
<event>
 5    0  0.2947253E-001  0.2881415E+03  0.7546771E-02  0.1091323E+00
          1   -1    0    0  502    0 -0.00000000000E+00  0.00000000000E+00  0.18873808142E+03  0.18873808142E+03  0.00000000000E+00 0.  1.
         21   -1    0    0  503  502  0.00000000000E+00 -0.00000000000E+00 -0.46794187990E+03  0.46794187990E+03  0.00000000000E+00 0.  1.
         25    1    1    2    0    0 -0.16983485152E+03  0.19635846890E+03 -0.22557614888E+02  0.28902313245E+03  0.12500000000E+03 0.  0.
         21    1    1    2  503  501  0.14869388446E+03 -0.16337853046E+03 -0.23642126378E+03  0.32356982162E+03  0.00000000000E+00 0.  1.
          1    1    1    2  501    0  0.21140967063E+02 -0.32979938440E+02 -0.20224919799E+02  0.44087007255E+02  0.00000000000E+00 0.  1.
<mgrwt>
<rscale>  4 0.28814150E+03</rscale>
<asrwt>0</asrwt>
<pdfrwt beam="1">  1       21 0.71991058E-01 0.28814150E+03</pdfrwt>
<pdfrwt beam="2">  1        1 0.29036628E-01 0.28814150E+03</pdfrwt>
<totfact> 0.28946215E+03</totfact>
</mgrwt>
</event>
<event>
 5    0  0.2947253E-001  0.2427860E+03  0.7546771E-02  0.1117951E+00
         21   -1    0    0  503  502  0.00000000000E+00  0.00000000000E+00  0.30439936936E+03  0.30439936936E+03  0.00000000000E+00 0.  1.
          2   -1    0    0  502    0 -0.00000000000E+00 -0.00000000000E+00 -0.66348728784E+03  0.66348728784E+03  0.00000000000E+00 0.  1.
         25    1    1    2    0    0  0.15287462774E+02 -0.21149638096E+03  0.22891986037E+03  0.33614539733E+03  0.12500000000E+03 0.  0.
         21    1    1    2  503  501 -0.94246138341E+01  0.43878981442E+02 -0.45542978666E+02  0.63940216328E+02  0.00000000000E+00 0. -1.
          2    1    1    2  501    0 -0.58628489394E+01  0.16761739951E+03 -0.54246480018E+03  0.56780104355E+03  0.00000000000E+00 0.  1.
<mgrwt>
<rscale>  4 0.24278598E+03</rscale>
<asrwt>0</asrwt>
<pdfrwt beam="1">  1       21 0.46830673E-01 0.24278598E+03</pdfrwt>
<pdfrwt beam="2">  1        2 0.10207497E+00 0.24278598E+03</pdfrwt>
<totfact> 0.24116701E+03</totfact>
</mgrwt>
</event>
<event>
 5    0  0.2947253E-001  0.3828741E+03  0.7546771E-02  0.1049877E+00
          2   -1    0    0  502    0 -0.00000000000E+00  0.00000000000E+00  0.56504525985E+03  0.56504525985E+03  0.00000000000E+00 0.  1.
         21   -1    0    0  503  502  0.00000000000E+00 -0.00000000000E+00 -0.40864016962E+03  0.40864016962E+03  0.00000000000E+00 0.  1.
         25    1    1    2    0    0 -0.33496981754E+03  0.13697732804E+03 -0.21833081546E+03  0.44075039653E+03  0.12500000000E+03 0.  0.
         21    1    1    2  503  501  0.16176123571E+03 -0.99610060966E+01  0.18904984460E+03  0.24900956360E+03  0.00000000000E+00 0. -1.
          2    1    1    2  501    0  0.17320858183E+03 -0.12701632195E+03  0.18568606109E+03  0.28392546934E+03  0.00000000000E+00 0.  1.
<mgrwt>
<rscale>  4 0.38287409E+03</rscale>
<asrwt>0</asrwt>
<pdfrwt beam="1">  1       21 0.62867718E-01 0.38287409E+03</pdfrwt>
<pdfrwt beam="2">  1        2 0.86930041E-01 0.38287409E+03</pdfrwt>
<totfact> 0.14895238E+03</totfact>
</mgrwt>
</event>
<event>
 5    0  0.2947253E-001  0.3994677E+03  0.7546771E-02  0.1043964E+00
         21   -1    0    0  503  502  0.00000000000E+00  0.00000000000E+00  0.19223575416E+03  0.19223575416E+03  0.00000000000E+00 0.  1.
          2   -1    0    0  502    0 -0.00000000000E+00 -0.00000000000E+00 -0.11445547950E+04  0.11445547950E+04  0.00000000000E+00 0.  1.
         25    1    1    2    0    0 -0.37325860281E+03  0.13697954733E+03 -0.16215939053E+03  0.44722035832E+03  0.12500000000E+03 0.  0.
         21    1    1    2  503  501  0.22865889555E+02 -0.63080945908E+01 -0.12841159824E+02  0.26972881717E+02  0.00000000000E+00 0.  1.
          2    1    1    2  501    0  0.35039271326E+03 -0.13067145274E+03 -0.77731849049E+03  0.86259730914E+03  0.00000000000E+00 0.  1.
<mgrwt>
<rscale>  4 0.39946769E+03</rscale>
<asrwt>0</asrwt>
<pdfrwt beam="1">  1       21 0.29574731E-01 0.39946769E+03</pdfrwt>
<pdfrwt beam="2">  1        2 0.17608535E+00 0.39946769E+03</pdfrwt>
<totfact> 0.28071729E+03</totfact>
</mgrwt>
</event>
<event>
 5    0  0.2947253E-001  0.2643010E+03  0.7546771E-02  0.1104586E+00
          2   -1    0    0  502    0 -0.00000000000E+00  0.00000000000E+00  0.24593187305E+03  0.24593187305E+03  0.00000000000E+00 0.  1.
         21   -1    0    0  503  502  0.00000000000E+00 -0.00000000000E+00 -0.74272717335E+03  0.74272717335E+03  0.00000000000E+00 0.  1.
         25    1    1    2    0    0  0.82285341511E+02  0.21933071322E+03 -0.53198109572E+03  0.59456347465E+03  0.12500000000E+03 0.  0.
         21    1    1    2  503  501  0.15641855058E+02 -0.24434849381E+03 -0.63380233437E+02  0.25291877757E+03  0.00000000000E+00 0.  1.
          2    1    1    2  501    0 -0.97927196570E+02  0.25017780585E+02  0.98566028847E+02  0.14117679418E+03  0.00000000000E+00 0.  1.
<mgrwt>
<rscale>  4 0.26430098E+03</rscale>
<asrwt>0</asrwt>
<pdfrwt beam="1">  1       21 0.11426572E+00 0.26430098E+03</pdfrwt>
<pdfrwt beam="2">  1        2 0.37835672E-01 0.26430098E+03</pdfrwt>
<totfact> 0.96646721E+02</totfact>
</mgrwt>
</event>
<event>
 5    0  0.2947253E-001  0.2750489E+03  0.7546771E-02  0.1098424E+00
         21   -1    0    0  503  502  0.00000000000E+00  0.00000000000E+00  0.13392314334E+03  0.13392314334E+03  0.00000000000E+00 0. -1.
          2   -1    0    0  502    0 -0.00000000000E+00 -0.00000000000E+00 -0.10664122988E+04  0.10664122988E+04  0.00000000000E+00 0.  1.
         25    1    1    2    0    0 -0.12534765915E+03 -0.21051095377E+03 -0.45269753436E+02  0.27874943567E+03  0.12500000000E+03 0.  0.
         21    1    1    2  503  501  0.51482630650E+02  0.51502007777E+02 -0.22135187446E+03  0.23302268214E+03  0.00000000000E+00 0.  1.
          2    1    1    2  501    0  0.73865028498E+02  0.15900894599E+03 -0.66586752753E+03  0.68856332429E+03  0.00000000000E+00 0.  1.
<mgrwt>
<rscale>  4 0.27504890E+03</rscale>
<asrwt>0</asrwt>
<pdfrwt beam="1">  1       21 0.20603561E-01 0.27504890E+03</pdfrwt>
<pdfrwt beam="2">  1        2 0.16406342E+00 0.27504890E+03</pdfrwt>
<totfact> 0.64801293E+03</totfact>
</mgrwt>
</event>
<event>
 5    0  0.2947253E-001  0.2436639E+03  0.7546771E-02  0.1117376E+00
          2   -1    0    0  502    0 -0.00000000000E+00  0.00000000000E+00  0.61212859820E+03  0.61212859820E+03  0.00000000000E+00 0. -1.
         21   -1    0    0  503  502  0.00000000000E+00 -0.00000000000E+00 -0.12862418000E+03  0.12862418000E+03  0.00000000000E+00 0.  1.
         25    1    1    2    0    0  0.13543730555E+03  0.15938580825E+03  0.54240561999E+02  0.24962799958E+03  0.12500000000E+03 0.  0.
         21    1    1    2  503  501 -0.42880574340E+02 -0.13013929418E+03  0.20297320456E+03  0.24489406141E+03  0.00000000000E+00 0. -1.
          2    1    1    2  501    0 -0.92556731213E+02 -0.29246514072E+02  0.22629065164E+03  0.24623071721E+03  0.00000000000E+00 0. -1.
<mgrwt>
<rscale>  4 0.24366391E+03</rscale>
<asrwt>0</asrwt>
<pdfrwt beam="1">  1       21 0.19788336E-01 0.24366391E+03</pdfrwt>
<pdfrwt beam="2">  1        2 0.94173629E-01 0.24366391E+03</pdfrwt>
<totfact> 0.14441614E+04</totfact>
</mgrwt>
</event>
<event>
 5    0  0.2947253E-001  0.3002121E+03  0.7546771E-02  0.1085135E+00
          2   -1    0    0  502    0 -0.00000000000E+00  0.00000000000E+00  0.52801115276E+02  0.52801115276E+02  0.00000000000E+00 0.  1.
         21   -1    0    0  503  502  0.00000000000E+00 -0.00000000000E+00 -0.18467252727E+04  0.18467252727E+04  0.00000000000E+00 0.  1.
         25    1    1    2    0    0 -0.25871587156E+03  0.11092001461E+03 -0.10999275351E+04  0.11422358488E+04  0.12500000000E+03 0.  0.
         21    1    1    2  503  501  0.30274628067E+02  0.20313298597E+02 -0.53640051492E+02  0.64857060746E+02  0.00000000000E+00 0.  1.
          2    1    1    2  501    0  0.22844124349E+03 -0.13123331321E+03 -0.64035657083E+03  0.69243347842E+03  0.00000000000E+00 0.  1.
<mgrwt>
<rscale>  4 0.30021209E+03</rscale>
<asrwt>0</asrwt>
<pdfrwt beam="1">  1       21 0.28411158E+00 0.30021209E+03</pdfrwt>
<pdfrwt beam="2">  1        2 0.81232487E-02 0.30021209E+03</pdfrwt>
<totfact> 0.39154374E+02</totfact>
</mgrwt>
</event>
<event>
 5    0  0.2947253E-001  0.3717825E+03  0.7546771E-02  0.1054013E+00
          2   -1    0    0  502    0 -0.00000000000E+00  0.00000000000E+00  0.98682128376E+03  0.98682128376E+03  0.00000000000E+00 0. -1.
         21   -1    0    0  503  502  0.00000000000E+00 -0.00000000000E+00 -0.48475568143E+03  0.48475568143E+03  0.00000000000E+00 0.  1.
         25    1    1    2    0    0 -0.36409668901E+03 -0.87982092118E+02 -0.33299475294E+03  0.51654404746E+03  0.12500000000E+03 0.  0.
         21    1    1    2  503  501  0.13291117816E+03 -0.44491240496E+02  0.53811405216E+03  0.55606796787E+03  0.00000000000E+00 0. -1.
          2    1    1    2  501    0  0.23118551085E+03  0.13247333261E+03  0.29694630312E+03  0.39896494986E+03  0.00000000000E+00 0. -1.
<mgrwt>
<rscale>  4 0.37178246E+03</rscale>
<asrwt>0</asrwt>
<pdfrwt beam="1">  1       21 0.74577797E-01 0.37178246E+03</pdfrwt>
<pdfrwt beam="2">  1        2 0.15181866E+00 0.37178246E+03</pdfrwt>
<totfact> 0.50191046E+02</totfact>
</mgrwt>
</event>
<event>
 5    0  0.2947253E-001  0.2733675E+03  0.7546771E-02  0.1099368E+00
          1   -1    0    0  502    0 -0.00000000000E+00  0.00000000000E+00  0.17125781745E+04  0.17125781745E+04  0.00000000000E+00 0. -1.
         21   -1    0    0  503  502  0.00000000000E+00 -0.00000000000E+00 -0.58610687309E+02  0.58610687309E+02  0.00000000000E+00 0. -1.
         25    1    1    2    0    0  0.23509646527E+03 -0.61922751917E+02  0.35866777572E+03  0.45096823450E+03  0.12500000000E+03 0.  0.
         21    1    1    2  503  501 -0.10642091726E+03  0.13254240807E+02  0.38791621210E+03  0.40246748209E+03  0.00000000000E+00 0.  1.
          1    1    1    2  501    0 -0.12867554802E+03  0.48668511109E+02  0.90738349939E+03  0.91775314524E+03  0.00000000000E+00 0. -1.
<mgrwt>
<rscale>  4 0.27336747E+03</rscale>
<asrwt>0</asrwt>
<pdfrwt beam="1">  1       21 0.90170301E-02 0.27336747E+03</pdfrwt>
<pdfrwt beam="2">  1        1 0.26347353E+00 0.27336747E+03</pdfrwt>
<totfact> 0.55857940E+03</totfact>
</mgrwt>
</event>
<event>
 5    0  0.2947253E-001  0.2267725E+03  0.7546771E-02  0.1128932E+00
          1   -1    0    0  502    0 -0.00000000000E+00  0.00000000000E+00  0.11990329077E+03  0.11990329077E+03  0.00000000000E+00 0. -1.
         21   -1    0    0  503  502  0.00000000000E+00 -0.00000000000E+00 -0.10055393604E+04  0.10055393604E+04  0.00000000000E+00 0. -1.
         25    1    1    2    0    0 -0.57405179087E+02 -0.25962305667E+03 -0.69839092395E+03  0.75767695543E+03  0.12500000000E+03 0.  0.
         21    1    1    2  503  501  0.12758811646E+02  0.86642678303E+02 -0.16622492166E+03  0.18788418124E+03  0.00000000000E+00 0. -1.
          1    1    1    2  501    0  0.44646367441E+02  0.17298037837E+03 -0.21020223986E+02  0.17988151446E+03  0.00000000000E+00 0. -1.
<mgrwt>
<rscale>  4 0.22677247E+03</rscale>
<asrwt>0</asrwt>
<pdfrwt beam="1">  1       21 0.15469837E+00 0.22677247E+03</pdfrwt>
<pdfrwt beam="2">  1        1 0.18446660E-01 0.22677247E+03</pdfrwt>
<totfact> 0.82440465E+02</totfact>
</mgrwt>
</event>
<event>
 5    0  0.2947253E-001  0.3180348E+03  0.7546771E-02  0.1076557E+00
         21   -1    0    0  503  502  0.00000000000E+00  0.00000000000E+00  0.85470108544E+02  0.85470108544E+02  0.00000000000E+00 0. -1.
          1   -1    0    0  502    0 -0.00000000000E+00 -0.00000000000E+00 -0.13448097262E+04  0.13448097262E+04  0.00000000000E+00 0. -1.
         25    1    1    2    0    0 -0.29251212287E+03  0.68982492725E+02 -0.44245970860E+03  0.54928819400E+03  0.12500000000E+03 0.  0.
         21    1    1    2  503  501  0.64661654932E+01 -0.28098163277E+02 -0.25433427919E+02  0.38447071819E+02  0.00000000000E+00 0.  1.
          1    1    1    2  501    0  0.28604595738E+03 -0.40884329449E+02 -0.79144648114E+03  0.84254456894E+03  0.00000000000E+00 0. -1.
<mgrwt>
<rscale>  4 0.31803482E+03</rscale>
<asrwt>0</asrwt>
<pdfrwt beam="1">  1       21 0.13149248E-01 0.31803482E+03</pdfrwt>
<pdfrwt beam="2">  1        1 0.20689380E+00 0.31803482E+03</pdfrwt>
<totfact> 0.49221638E+03</totfact>
</mgrwt>
</event>
<event>
 5    0  0.4179538E-001  0.2528062E+03  0.7546771E-02  0.1111544E+00
          2   -1    0    0  502    0 -0.00000000000E+00  0.00000000000E+00  0.19085072103E+04  0.19085072103E+04  0.00000000000E+00 0.  1.
         21   -1    0    0  503  502  0.00000000000E+00 -0.00000000000E+00 -0.31750198009E+02  0.31750198009E+02  0.00000000000E+00 0.  1.
         25    1    1    2    0    0 -0.71408183907E+02  0.20781441098E+03  0.75123464275E+03  0.79263134344E+03  0.12500000000E+03 0.  0.
         21    1    1    2  503  501 -0.59137467515E+01 -0.20936553945E+02  0.97263712931E+02  0.99667153792E+02  0.00000000000E+00 0. -1.
          2    1    1    2  501    0  0.77321930658E+02 -0.18687785703E+03  0.10282586566E+04  0.10479589111E+04  0.00000000000E+00 0.  1.
<mgrwt>
<rscale>  4 0.25280617E+03</rscale>
<asrwt>0</asrwt>
<pdfrwt beam="1">  1       21 0.48846473E-02 0.25280617E+03</pdfrwt>
<pdfrwt beam="2">  1        2 0.29361640E+00 0.25280617E+03</pdfrwt>
<totfact> 0.29598331E+04</totfact>
</mgrwt>
</event>
<event>
 5    0  0.2947253E-001  0.3423936E+03  0.7546771E-02  0.1065781E+00
         21   -1    0    0  503  502  0.00000000000E+00  0.00000000000E+00  0.30232249462E+03  0.30232249462E+03  0.00000000000E+00 0.  1.
          1   -1    0    0  502    0 -0.00000000000E+00 -0.00000000000E+00 -0.23661952459E+04  0.23661952459E+04  0.00000000000E+00 0.  1.
         25    1    1    2    0    0 -0.25812237418E+03  0.19796349009E+03  0.17225909728E+03  0.38873499978E+03  0.12500000000E+03 0.  0.
         21    1    1    2  503  501  0.26466634325E+03 -0.76423336242E+02 -0.98663969367E+03  0.10243762418E+04  0.00000000000E+00 0.  1.
          1    1    1    2  501    0 -0.65439690755E+01 -0.12154015385E+03 -0.12494921549E+04  0.12554064990E+04  0.00000000000E+00 0.  1.
<mgrwt>
<rscale>  4 0.34239357E+03</rscale>
<asrwt>0</asrwt>
<pdfrwt beam="1">  1       21 0.46511154E-01 0.34239357E+03</pdfrwt>
<pdfrwt beam="2">  1        1 0.36403003E+00 0.34239357E+03</pdfrwt>
<totfact> 0.88999178E+01</totfact>
</mgrwt>
</event>
<event>
 5    0  0.2947253E-001  0.4117134E+03  0.7546771E-02  0.1039873E+00
         21   -1    0    0  503  502  0.00000000000E+00  0.00000000000E+00  0.28428886645E+03  0.28428886645E+03  0.00000000000E+00 0. -1.
          2   -1    0    0  502    0 -0.00000000000E+00 -0.00000000000E+00 -0.76315753527E+03  0.76315753527E+03  0.00000000000E+00 0. -1.
         25    1    1    2    0    0  0.15679967554E+03 -0.35855104449E+03  0.66430460238E+01  0.41086995487E+03  0.12500000000E+03 0.  0.
         21    1    1    2  503  501 -0.12183673225E+03  0.30860911093E+03 -0.32317251261E+03  0.46316762148E+03  0.00000000000E+00 0. -1.
          2    1    1    2  501    0 -0.34962943295E+02  0.49941933559E+02 -0.16233920223E+03  0.17340882536E+03  0.00000000000E+00 0. -1.
<mgrwt>
<rscale>  4 0.41148895E+03</rscale>
<asrwt>0</asrwt>
<pdfrwt beam="1">  1       21 0.43736749E-01 0.41171343E+03</pdfrwt>
<pdfrwt beam="2">  1        2 0.11740885E+00 0.41171343E+03</pdfrwt>
<totfact> 0.22309763E+03</totfact>
</mgrwt>
</event>
<event>
 5    0  0.2947253E-001  0.4048241E+03  0.7546771E-02  0.1042689E+00
          2   -1    0    0  502    0 -0.00000000000E+00  0.00000000000E+00  0.20529127636E+04  0.20529127636E+04  0.00000000000E+00 0. -1.
         21   -1    0    0  503  502  0.00000000000E+00 -0.00000000000E+00 -0.22406486761E+03  0.22406486761E+03  0.00000000000E+00 0.  1.
         25    1    1    2    0    0 -0.15349337946E+02 -0.37778865779E+03 -0.57272594148E+01  0.39826834375E+03  0.12500000000E+03 0.  0.
         21    1    1    2  503  501 -0.70580515644E+01  0.76089884208E+02  0.16358123498E+03  0.18055001249E+03  0.00000000000E+00 0. -1.
          2    1    1    2  501    0  0.22407389511E+02  0.30169877358E+03  0.16709939204E+04  0.16981592750E+04  0.00000000000E+00 0. -1.
<mgrwt>
<rscale>  4 0.40316472E+03</rscale>
<asrwt>0</asrwt>
<pdfrwt beam="1">  1       21 0.34471520E-01 0.40482414E+03</pdfrwt>
<pdfrwt beam="2">  1        2 0.31583272E+00 0.40482414E+03</pdfrwt>
<totfact> 0.65805928E+02</totfact>
</mgrwt>
</event>
<event>
 5    0  0.2947253E-001  0.2554318E+03  0.7546771E-02  0.1109919E+00
         21   -1    0    0  503  502  0.00000000000E+00  0.00000000000E+00  0.11298109404E+03  0.11298109404E+03  0.00000000000E+00 0.  1.
          1   -1    0    0  502    0 -0.00000000000E+00 -0.00000000000E+00 -0.95977794931E+03  0.95977794931E+03  0.00000000000E+00 0.  1.
         25    1    1    2    0    0 -0.15704748631E+03  0.15797620271E+03 -0.71915495887E+02  0.26536245426E+03  0.12500000000E+03 0.  0.
         21    1    1    2  503  501  0.57057954460E+02 -0.35165800502E+02 -0.19097079929E+03  0.20239093328E+03  0.00000000000E+00 0. -1.
          1    1    1    2  501    0  0.99989531855E+02 -0.12281040221E+03 -0.58391056010E+03  0.60500565581E+03  0.00000000000E+00 0.  1.
<mgrwt>
<rscale>  4 0.25543178E+03</rscale>
<asrwt>0</asrwt>
<pdfrwt beam="1">  1       21 0.17381706E-01 0.25543178E+03</pdfrwt>
<pdfrwt beam="2">  1        1 0.14765815E+00 0.25543178E+03</pdfrwt>
<totfact> 0.56528204E+03</totfact>
</mgrwt>
</event>
<event>
 5    0  0.2947253E-001  0.3021861E+03  0.7546771E-02  0.1084153E+00
         21   -1    0    0  503  502  0.00000000000E+00  0.00000000000E+00  0.57556075514E+02  0.57556075514E+02  0.00000000000E+00 0. -1.
          1   -1    0    0  502    0 -0.00000000000E+00 -0.00000000000E+00 -0.15352711218E+04  0.15352711218E+04  0.00000000000E+00 0.  1.
         25    1    1    2    0    0 -0.24402988709E+03 -0.12704674202E+03 -0.70482399576E+03  0.76687243101E+03  0.12500000000E+03 0.  0.
         21    1    1    2  503  501  0.22723360716E+03  0.82220365638E+02 -0.60821730917E+03  0.65446435803E+03  0.00000000000E+00 0.  1.
          1    1    1    2  501    0  0.16796279926E+02  0.44826376382E+02 -0.16467374136E+03  0.17149040828E+03  0.00000000000E+00 0.  1.
<mgrwt>
<rscale>  4 0.30218614E+03</rscale>
<asrwt>0</asrwt>
<pdfrwt beam="1">  1       21 0.88547806E-02 0.30218614E+03</pdfrwt>
<pdfrwt beam="2">  1        1 0.23619556E+00 0.30218614E+03</pdfrwt>
<totfact> 0.74838938E+03</totfact>
</mgrwt>
</event>
<event>
 5    0  0.2947253E-001  0.3337687E+03  0.7546771E-02  0.1069481E+00
         -3   -1    0    0    0  501 -0.00000000000E+00  0.00000000000E+00  0.45101299471E+03  0.45101299471E+03  0.00000000000E+00 0. -1.
         21   -1    0    0  501  502  0.00000000000E+00 -0.00000000000E+00 -0.28797939959E+03  0.28797939959E+03  0.00000000000E+00 0. -1.
         25    1    1    2    0    0 -0.17773956866E+03  0.25334796763E+03 -0.74616356180E+02  0.34200752562E+03  0.12500000000E+03 0.  0.
         21    1    1    2  501  501  0.27697863113E+02 -0.97198793437E+01  0.38332344451E+02  0.48280599692E+02  0.00000000000E+00 0.  1.
         -3    1    1    2    0  502  0.15004170555E+03 -0.24362808829E+03  0.19931760685E+03  0.34870426898E+03  0.00000000000E+00 0. -1.
<mgrwt>
<rscale>  4 0.33376870E+03</rscale>
<asrwt>0</asrwt>
<pdfrwt beam="1">  1       21 0.44304523E-01 0.33376870E+03</pdfrwt>
<pdfrwt beam="2">  1       -3 0.69386614E-01 0.33376870E+03</pdfrwt>
<totfact> 0.47913262E+02</totfact>
</mgrwt>
</event>
<event>
 5    0  0.2947253E-001  0.2739324E+03  0.7546771E-02  0.1099050E+00
          2   -1    0    0  502    0 -0.00000000000E+00  0.00000000000E+00  0.28149241141E+03  0.28149241141E+03  0.00000000000E+00 0. -1.
         21   -1    0    0  503  502  0.00000000000E+00 -0.00000000000E+00 -0.26132833888E+03  0.26132833888E+03  0.00000000000E+00 0. -1.
         25    1    1    2    0    0  0.21382526958E+03 -0.11701585424E+03 -0.54476712674E+02  0.27929673875E+03  0.12500000000E+03 0.  0.
         21    1    1    2  503  501 -0.15682732792E+03  0.64592763514E+02  0.24751138352E+02  0.17140494371E+03  0.00000000000E+00 0. -1.
          2    1    1    2  501    0 -0.56997941662E+02  0.52423090722E+02  0.49889646849E+02  0.92119067827E+02  0.00000000000E+00 0. -1.
<mgrwt>
<rscale>  4 0.27393239E+03</rscale>
<asrwt>0</asrwt>
<pdfrwt beam="1">  1       21 0.40204360E-01 0.27393239E+03</pdfrwt>
<pdfrwt beam="2">  1        2 0.43306525E-01 0.27393239E+03</pdfrwt>
<totfact> 0.85072921E+03</totfact>
</mgrwt>
</event>
<event>
 5    0  0.2947253E-001  0.2461258E+03  0.7546771E-02  0.1115778E+00
         21   -1    0    0  503  502  0.00000000000E+00  0.00000000000E+00  0.45296652688E+02  0.45296652688E+02  0.00000000000E+00 0.  1.
          1   -1    0    0  502    0 -0.00000000000E+00 -0.00000000000E+00 -0.14012380863E+04  0.14012380863E+04  0.00000000000E+00 0. -1.
         25    1    1    2    0    0 -0.20537661012E+03 -0.52662836954E+02 -0.43435337448E+03  0.49924020301E+03  0.12500000000E+03 0.  0.
         21    1    1    2  503  501  0.37677427525E+02  0.33252973199E+02 -0.19880658999E+03  0.20505952549E+03  0.00000000000E+00 0. -1.
          1    1    1    2  501    0  0.16769918260E+03  0.19409863755E+02 -0.72278146917E+03  0.74223501051E+03  0.00000000000E+00 0. -1.
<mgrwt>
<rscale>  4 0.24612583E+03</rscale>
<asrwt>0</asrwt>
<pdfrwt beam="1">  1       21 0.69687175E-02 0.24612583E+03</pdfrwt>
<pdfrwt beam="2">  1        1 0.21557504E+00 0.24612583E+03</pdfrwt>
<totfact> 0.14189810E+04</totfact>
</mgrwt>
</event>
<event>
 5    0  0.2947253E-001  0.2908176E+03  0.7546771E-02  0.1089923E+00
         21   -1    0    0  501  502  0.00000000000E+00  0.00000000000E+00  0.64572207907E+02  0.64572207907E+02  0.00000000000E+00 0.  1.
         -1   -1    0    0    0  501 -0.00000000000E+00 -0.00000000000E+00 -0.15521138766E+04  0.15521138766E+04  0.00000000000E+00 0.  1.
         25    1    1    2    0    0 -0.22169372248E+02 -0.28446279014E+03 -0.59955315035E+03  0.67564749695E+03  0.12500000000E+03 0.  0.
         21    1    1    2  501  501  0.10384824080E+02  0.42929390582E+02 -0.32946646226E+03  0.33241378867E+03  0.00000000000E+00 0. -1.
         -1    1    1    2    0  502  0.11784548169E+02  0.24153339956E+03 -0.55852205605E+03  0.60862479885E+03  0.00000000000E+00 0.  1.
<mgrwt>
<rscale>  4 0.29081758E+03</rscale>
<asrwt>0</asrwt>
<pdfrwt beam="1">  1       21 0.99341860E-02 0.29081758E+03</pdfrwt>
<pdfrwt beam="2">  1       -1 0.23878675E+00 0.29081758E+03</pdfrwt>
<totfact> 0.70840919E+02</totfact>
</mgrwt>
</event>
<event>
 5    0  0.2947253E-001  0.3275446E+03  0.7546771E-02  0.1072228E+00
         21   -1    0    0  503  502  0.00000000000E+00  0.00000000000E+00  0.71343619586E+02  0.71343619586E+02  0.00000000000E+00 0. -1.
          1   -1    0    0  502    0 -0.00000000000E+00 -0.00000000000E+00 -0.35346325240E+04  0.35346325240E+04  0.00000000000E+00 0.  1.
         25    1    1    2    0    0  0.27085181505E+03 -0.41283715482E+02 -0.32251629400E+03  0.44125594702E+03  0.12500000000E+03 0.  0.
         21    1    1    2  503  501  0.33788328764E+02  0.78167100649E+01 -0.64617302772E+02  0.73335857085E+02  0.00000000000E+00 0. -1.
          1    1    1    2  501    0 -0.30464014382E+03  0.33467005417E+02 -0.30761553076E+04  0.30913843395E+04  0.00000000000E+00 0.  1.
<mgrwt>
<rscale>  4 0.32754462E+03</rscale>
<asrwt>0</asrwt>
<pdfrwt beam="1">  1       21 0.10975943E-01 0.32754462E+03</pdfrwt>
<pdfrwt beam="2">  1        1 0.54378953E+00 0.32754462E+03</pdfrwt>
<totfact> 0.21709459E+02</totfact>
</mgrwt>
</event>
<event>
 5    0  0.2947253E-001  0.2370826E+03  0.7546771E-02  0.1121752E+00
          1   -1    0    0  502    0 -0.00000000000E+00  0.00000000000E+00  0.69093896530E+03  0.69093896530E+03  0.00000000000E+00 0.  1.
         21   -1    0    0  503  502  0.00000000000E+00 -0.00000000000E+00 -0.19065040286E+03  0.19065040286E+03  0.00000000000E+00 0.  1.
         25    1    1    2    0    0 -0.12123256552E+03  0.16154720533E+03 -0.87395331759E+02  0.25309638185E+03  0.12500000000E+03 0.  0.
         21    1    1    2  503  501  0.18522775845E+02  0.89982703527E+01  0.92962803529E+02  0.95216306032E+02  0.00000000000E+00 0.  1.
          1    1    1    2  501    0  0.10270978968E+03 -0.17054547569E+03  0.49472109067E+03  0.53327668028E+03  0.00000000000E+00 0.  1.
<mgrwt>
<rscale>  4 0.23708258E+03</rscale>
<asrwt>0</asrwt>
<pdfrwt beam="1">  1       21 0.29330832E-01 0.23708258E+03</pdfrwt>
<pdfrwt beam="2">  1        1 0.10629830E+00 0.23708258E+03</pdfrwt>
<totfact> 0.35060977E+03</totfact>
</mgrwt>
</event>
<event>
 5    0  0.2947253E-001  0.2721184E+03  0.7546771E-02  0.1100073E+00
         -3   -1    0    0    0  501 -0.00000000000E+00  0.00000000000E+00  0.37284956995E+03  0.37284956995E+03  0.00000000000E+00 0. -1.
         21   -1    0    0  501  502  0.00000000000E+00 -0.00000000000E+00 -0.37807043554E+03  0.37807043554E+03  0.00000000000E+00 0. -1.
         25    1    1    2    0    0  0.18753701076E+03 -0.14674178200E+03 -0.25258150577E+03  0.36895216227E+03  0.12500000000E+03 0.  0.
         21    1    1    2  501  501 -0.20720193143E+03  0.15261965927E+03  0.18671500031E+03  0.31794322154E+03  0.00000000000E+00 0. -1.
         -3    1    1    2    0  502  0.19664920668E+02 -0.58778772783E+01  0.60645639870E+02  0.64024621681E+02  0.00000000000E+00 0. -1.
<mgrwt>
<rscale>  4 0.27211840E+03</rscale>
<asrwt>0</asrwt>
<pdfrwt beam="1">  1       21 0.58164682E-01 0.27211840E+03</pdfrwt>
<pdfrwt beam="2">  1       -3 0.57361472E-01 0.27211840E+03</pdfrwt>
<totfact> 0.40665089E+02</totfact>
</mgrwt>
</event>
<event>
 5    0  0.2947253E-001  0.2489018E+03  0.7546771E-02  0.1114001E+00
          1   -1    0    0  502    0 -0.00000000000E+00  0.00000000000E+00  0.12755207329E+04  0.12755207329E+04  0.00000000000E+00 0. -1.
         21   -1    0    0  503  502  0.00000000000E+00 -0.00000000000E+00 -0.64399161324E+02  0.64399161324E+02  0.00000000000E+00 0. -1.
         25    1    1    2    0    0 -0.21478683972E+03 -0.13919169355E+02  0.24719220194E+03  0.35079354967E+03  0.12500000000E+03 0.  0.
         21    1    1    2  503  501  0.23679745108E+02 -0.13121954093E+02  0.16546909329E+03  0.16766912907E+03  0.00000000000E+00 0. -1.
          1    1    1    2  501    0  0.19110709461E+03  0.27041123448E+02  0.79846027636E+03  0.82145721550E+03  0.00000000000E+00 0. -1.
<mgrwt>
<rscale>  4 0.24890185E+03</rscale>
<asrwt>0</asrwt>
<pdfrwt beam="1">  1       21 0.99075642E-02 0.24890185E+03</pdfrwt>
<pdfrwt beam="2">  1        1 0.19623394E+00 0.24890185E+03</pdfrwt>
<totfact> 0.93047174E+03</totfact>
</mgrwt>
</event>
<event>
 5    0  0.2947253E-001  0.2863455E+03  0.7546771E-02  0.1092273E+00
         21   -1    0    0  503  502  0.00000000000E+00  0.00000000000E+00  0.51736620644E+02  0.51736620644E+02  0.00000000000E+00 0. -1.
          2   -1    0    0  502    0 -0.00000000000E+00 -0.00000000000E+00 -0.18590613817E+04  0.18590613817E+04  0.00000000000E+00 0.  1.
         25    1    1    2    0    0  0.19167945175E+03 -0.15861884287E+03 -0.54112828902E+03  0.60856041172E+03  0.12500000000E+03 0.  0.
         21    1    1    2  503  501  0.13251932199E+02 -0.25439644950E+02 -0.13025664526E+03  0.13337759511E+03  0.00000000000E+00 0. -1.
          2    1    1    2  501    0 -0.20493138395E+03  0.18405848782E+03 -0.11359398268E+04  0.11688599955E+04  0.00000000000E+00 0.  1.
<mgrwt>
<rscale>  4 0.28634552E+03</rscale>
<asrwt>0</asrwt>
<pdfrwt beam="1">  1       21 0.79594817E-02 0.28634552E+03</pdfrwt>
<pdfrwt beam="2">  1        2 0.28600939E+00 0.28634552E+03</pdfrwt>
<totfact> 0.13395547E+04</totfact>
</mgrwt>
</event>
<event>
 5    0  0.2947253E-001  0.2138543E+03  0.7546771E-02  0.1138550E+00
         21   -1    0    0  503  502  0.00000000000E+00  0.00000000000E+00  0.97605531433E+03  0.97605531433E+03  0.00000000000E+00 0.  1.
          2   -1    0    0  502    0 -0.00000000000E+00 -0.00000000000E+00 -0.70173769202E+02  0.70173769202E+02  0.00000000000E+00 0.  1.
         25    1    1    2    0    0 -0.19776337001E+03 -0.55252406908E+02  0.66389979403E+03  0.70608152186E+03  0.12500000000E+03 0.  0.
         21    1    1    2  503  501  0.52356738787E+02 -0.26799454745E+02  0.11913462503E+03  0.13286270264E+03  0.00000000000E+00 0.  1.
          2    1    1    2  501    0  0.14540663122E+03  0.82051861652E+02  0.12284712607E+03  0.20728485904E+03  0.00000000000E+00 0.  1.
<mgrwt>
<rscale>  4 0.21385433E+03</rscale>
<asrwt>0</asrwt>
<pdfrwt beam="1">  1       21 0.15016235E+00 0.21385433E+03</pdfrwt>
<pdfrwt beam="2">  1        2 0.10795965E-01 0.21385433E+03</pdfrwt>
<totfact> 0.20823403E+03</totfact>
</mgrwt>
</event>
<event>
 5    0  0.2947253E-001  0.2730104E+03  0.7546771E-02  0.1099569E+00
          2   -1    0    0  502    0 -0.00000000000E+00  0.00000000000E+00  0.15675228464E+04  0.15675228464E+04  0.00000000000E+00 0. -1.
         21   -1    0    0  503  502  0.00000000000E+00 -0.00000000000E+00 -0.17054216933E+03  0.17054216933E+03  0.00000000000E+00 0.  1.
         25    1    1    2    0    0 -0.22663560144E+03 -0.86867739186E+02 -0.43514074818E+02  0.27645646069E+03  0.12500000000E+03 0.  0.
         21    1    1    2  503  501  0.15370673396E+02  0.21041514916E+02  0.17056081749E+03  0.17253983717E+03  0.00000000000E+00 0.  1.
          2    1    1    2  501    0  0.21126492804E+03  0.65826224269E+02  0.12699339344E+04  0.12890687179E+04  0.00000000000E+00 0. -1.
<mgrwt>
<rscale>  4 0.27301044E+03</rscale>
<asrwt>0</asrwt>
<pdfrwt beam="1">  1       21 0.26237258E-01 0.27301044E+03</pdfrwt>
<pdfrwt beam="2">  1        2 0.24115735E+00 0.27301044E+03</pdfrwt>
<totfact> 0.21478538E+03</totfact>
</mgrwt>
</event>
<event>
 5    0  0.2947253E-001  0.3130196E+03  0.7546771E-02  0.1078907E+00
          2   -1    0    0  502    0 -0.00000000000E+00  0.00000000000E+00  0.21308115381E+04  0.21308115381E+04  0.00000000000E+00 0. -1.
         21   -1    0    0  503  502  0.00000000000E+00 -0.00000000000E+00 -0.90561596611E+02  0.90561596611E+02  0.00000000000E+00 0. -1.
         25    1    1    2    0    0 -0.20817109112E+03 -0.19753755641E+03  0.23369803474E+03  0.39063545770E+03  0.12500000000E+03 0.  0.
         21    1    1    2  503  501  0.58189762176E+02  0.10573233626E+03  0.75387940228E+03  0.76347857110E+03  0.00000000000E+00 0. -1.
          2    1    1    2  501    0  0.14998132895E+03  0.91805220147E+02  0.10526725044E+04  0.10672591059E+04  0.00000000000E+00 0. -1.
<mgrwt>
<rscale>  4 0.31301963E+03</rscale>
<asrwt>0</asrwt>
<pdfrwt beam="1">  1       21 0.13932555E-01 0.31301963E+03</pdfrwt>
<pdfrwt beam="2">  1        2 0.32781712E+00 0.31301963E+03</pdfrwt>
<totfact> 0.35006526E+03</totfact>
</mgrwt>
</event>
<event>
 5    0  0.2947253E-001  0.5024076E+03  0.7546771E-02  0.1013586E+00
         21   -1    0    0  503  502  0.00000000000E+00  0.00000000000E+00  0.35881678521E+03  0.35881678521E+03  0.00000000000E+00 0.  1.
          1   -1    0    0  502    0 -0.00000000000E+00 -0.00000000000E+00 -0.14121274623E+04  0.14121274623E+04  0.00000000000E+00 0. -1.
         25    1    1    2    0    0 -0.15612012217E+03  0.45363348384E+03  0.10642763000E+03  0.50705884337E+03  0.12500000000E+03 0.  0.
         21    1    1    2  503  501 -0.20061986953E+02 -0.13182198455E+03 -0.25936289357E+03  0.29163098171E+03  0.00000000000E+00 0. -1.
          1    1    1    2  501    0  0.17618210913E+03 -0.32181149929E+03 -0.90037541349E+03  0.97225442239E+03  0.00000000000E+00 0. -1.
<mgrwt>
<rscale>  4 0.50073835E+03</rscale>
<asrwt>0</asrwt>
<pdfrwt beam="1">  1       21 0.55202583E-01 0.50240758E+03</pdfrwt>
<pdfrwt beam="2">  1        1 0.21725038E+00 0.50240758E+03</pdfrwt>
<totfact> 0.24915114E+02</totfact>
</mgrwt>
</event>
<event>
 5    0  0.2947253E-001  0.3166672E+03  0.7546771E-02  0.1077193E+00
         21   -1    0    0  503  502  0.00000000000E+00  0.00000000000E+00  0.16689034056E+03  0.16689034056E+03  0.00000000000E+00 0.  1.
          2   -1    0    0  502    0 -0.00000000000E+00 -0.00000000000E+00 -0.18979168848E+04  0.18979168848E+04  0.00000000000E+00 0.  1.
         25    1    1    2    0    0  0.77683867951E+02  0.28472552695E+03 -0.18238321619E+02  0.32103122187E+03  0.12500000000E+03 0.  0.
         21    1    1    2  503  501 -0.18374281292E+02 -0.41283023118E+02 -0.80047009788E+02  0.91920759281E+02  0.00000000000E+00 0. -1.
          2    1    1    2  501    0 -0.59309586659E+02 -0.24344250384E+03 -0.16327412128E+04  0.16518552442E+04  0.00000000000E+00 0.  1.
<mgrwt>
<rscale>  4 0.31666724E+03</rscale>
<asrwt>0</asrwt>
<pdfrwt beam="1">  1       21 0.25675436E-01 0.31666724E+03</pdfrwt>
<pdfrwt beam="2">  1        2 0.29198722E+00 0.31666724E+03</pdfrwt>
<totfact> 0.14715904E+03</totfact>
</mgrwt>
</event>
<event>
 5    0  0.3185826E-001  0.2483624E+03  0.7546771E-02  0.1114344E+00
         21   -1    0    0  503  502  0.00000000000E+00  0.00000000000E+00  0.61676687656E+02  0.61676687656E+02  0.00000000000E+00 0.  1.
          1   -1    0    0  502    0 -0.00000000000E+00 -0.00000000000E+00 -0.23425741927E+04  0.23425741927E+04  0.00000000000E+00 0.  1.
         25    1    1    2    0    0 -0.12730263429E+03 -0.17602858251E+03 -0.22908531629E+03  0.33955427356E+03  0.12500000000E+03 0.  0.
         21    1    1    2  503  501  0.60621405358E+01  0.21416346090E+02 -0.77528976439E+02  0.80660719160E+02  0.00000000000E+00 0. -1.
          1    1    1    2  501    0  0.12124049375E+03  0.15461223642E+03 -0.19742832123E+04  0.19840358876E+04  0.00000000000E+00 0.  1.
<mgrwt>
<rscale>  4 0.24836239E+03</rscale>
<asrwt>0</asrwt>
<pdfrwt beam="1">  1       21 0.94887211E-02 0.24836239E+03</pdfrwt>
<pdfrwt beam="2">  1        1 0.36039603E+00 0.24836239E+03</pdfrwt>
<totfact> 0.20041808E+03</totfact>
</mgrwt>
</event>
<event>
 5    0  0.2947253E-001  0.2597987E+03  0.7546771E-02  0.1107264E+00
          1   -1    0    0  502    0 -0.00000000000E+00  0.00000000000E+00  0.12306511133E+04  0.12306511133E+04  0.00000000000E+00 0.  1.
         21   -1    0    0  503  502  0.00000000000E+00 -0.00000000000E+00 -0.16257729651E+03  0.16257729651E+03  0.00000000000E+00 0. -1.
         25    1    1    2    0    0 -0.21575402913E+03 -0.90487207455E+02 -0.28181400927E+02  0.26675255792E+03  0.12500000000E+03 0.  0.
         21    1    1    2  503  501  0.51596176393E+02  0.27072439792E+02  0.10839573144E+03  0.12306387370E+03  0.00000000000E+00 0.  1.
          1    1    1    2  501    0  0.16415785273E+03  0.63414767664E+02  0.98785948629E+03  0.10034119782E+04  0.00000000000E+00 0.  1.
<mgrwt>
<rscale>  4 0.25979870E+03</rscale>
<asrwt>0</asrwt>
<pdfrwt beam="1">  1       21 0.25011893E-01 0.25979870E+03</pdfrwt>
<pdfrwt beam="2">  1        1 0.18933093E+00 0.25979870E+03</pdfrwt>
<totfact> 0.18067016E+03</totfact>
</mgrwt>
</event>
<event>
 5    0  0.2947253E-001  0.3519012E+03  0.7546771E-02  0.1061837E+00
         -2   -1    0    0    0  501 -0.00000000000E+00  0.00000000000E+00  0.17209788529E+04  0.17209788529E+04  0.00000000000E+00 0. -1.
         21   -1    0    0  501  502  0.00000000000E+00 -0.00000000000E+00 -0.39991863285E+03  0.39991863285E+03  0.00000000000E+00 0. -1.
         25    1    1    2    0    0 -0.32706637711E+03 -0.89531142072E+02 -0.29043449251E+03  0.46364365075E+03  0.12500000000E+03 0.  0.
         21    1    1    2  501  501  0.14001130096E+03  0.74988831998E+02  0.38473877791E+03  0.41623360814E+03  0.00000000000E+00 0. -1.
         -2    1    1    2    0  502  0.18705507615E+03  0.14542310073E+02  0.12267559347E+04  0.12410202269E+04  0.00000000000E+00 0. -1.
<mgrwt>
<rscale>  4 0.35190116E+03</rscale>
<asrwt>0</asrwt>
<pdfrwt beam="1">  1       21 0.61525945E-01 0.35190116E+03</pdfrwt>
<pdfrwt beam="2">  1       -2 0.26476597E+00 0.35190116E+03</pdfrwt>
<totfact> 0.10932510E+01</totfact>
</mgrwt>
</event>
<event>
 5    0  0.2947253E-001  0.3193464E+03  0.7546771E-02  0.1075951E+00
         -4   -1    0    0    0  501 -0.00000000000E+00  0.00000000000E+00  0.38531351334E+03  0.38531351334E+03  0.00000000000E+00 0. -1.
         21   -1    0    0  501  502  0.00000000000E+00 -0.00000000000E+00 -0.39396670309E+03  0.39396670309E+03  0.00000000000E+00 0. -1.
         25    1    1    2    0    0  0.70426953034E+02  0.34411710702E+03  0.33006588430E+02  0.37428728797E+03  0.12500000000E+03 0.  0.
         21    1    1    2  501  501 -0.23108557348E+02 -0.89050110715E+02 -0.10332322339E+03  0.13834600151E+03  0.00000000000E+00 0. -1.
         -4    1    1    2    0  502 -0.47318395687E+02 -0.25506699631E+03  0.61663445214E+02  0.26664692695E+03  0.00000000000E+00 0. -1.
<mgrwt>
<rscale>  4 0.31934640E+03</rscale>
<asrwt>0</asrwt>
<pdfrwt beam="1">  1       21 0.60610262E-01 0.31934640E+03</pdfrwt>
<pdfrwt beam="2">  1       -4 0.59279002E-01 0.31934640E+03</pdfrwt>
<totfact> 0.28553068E+02</totfact>
</mgrwt>
</event>
<event>
 5    0  0.2947253E-001  0.2909874E+03  0.7546771E-02  0.1089835E+00
          1   -1    0    0  502    0 -0.00000000000E+00  0.00000000000E+00  0.89714967254E+03  0.89714967254E+03  0.00000000000E+00 0. -1.
         21   -1    0    0  503  502  0.00000000000E+00 -0.00000000000E+00 -0.23355212065E+03  0.23355212065E+03  0.00000000000E+00 0. -1.
         25    1    1    2    0    0 -0.10576092660E+03  0.24054791357E+03 -0.10785648802E+03  0.31033319888E+03  0.12500000000E+03 0.  0.
         21    1    1    2  503  501  0.61495922685E+02 -0.41654116145E+02  0.17657426922E+03  0.19156013794E+03  0.00000000000E+00 0.  1.
          1    1    1    2  501    0  0.44265003915E+02 -0.19889379743E+03  0.59487977069E+03  0.62880845637E+03  0.00000000000E+00 0. -1.
<mgrwt>
<rscale>  4 0.29098741E+03</rscale>
<asrwt>0</asrwt>
<pdfrwt beam="1">  1       21 0.35931096E-01 0.29098741E+03</pdfrwt>
<pdfrwt beam="2">  1        1 0.13802302E+00 0.29098741E+03</pdfrwt>
<totfact> 0.15415804E+03</totfact>
</mgrwt>
</event>
<event>
 5    0  0.2947253E-001  0.2466871E+03  0.7546771E-02  0.1115417E+00
          2   -1    0    0  502    0 -0.00000000000E+00  0.00000000000E+00  0.88282111589E+03  0.88282111589E+03  0.00000000000E+00 0.  1.
         21   -1    0    0  503  502  0.00000000000E+00 -0.00000000000E+00 -0.35712880174E+03  0.35712880174E+03  0.00000000000E+00 0.  1.
         25    1    1    2    0    0 -0.21359500827E+03 -0.14809478307E+02 -0.29023781365E+03  0.38171342219E+03  0.12500000000E+03 0.  0.
         21    1    1    2  503  501  0.27235320746E+02 -0.57947663642E+02  0.15538332996E+03  0.16805854232E+03  0.00000000000E+00 0. -1.
          2    1    1    2  501    0  0.18635968752E+03  0.72757141948E+02  0.66054679784E+03  0.69017795312E+03  0.00000000000E+00 0.  1.
<mgrwt>
<rscale>  4 0.24668714E+03</rscale>
<asrwt>0</asrwt>
<pdfrwt beam="1">  1       21 0.54942893E-01 0.24668714E+03</pdfrwt>
<pdfrwt beam="2">  1        2 0.13581863E+00 0.24668714E+03</pdfrwt>
<totfact> 0.12023305E+03</totfact>
</mgrwt>
</event>
<event>
 5    0  0.2947253E-001  0.2067486E+03  0.7546771E-02  0.1144167E+00
         21   -1    0    0  503  502  0.00000000000E+00  0.00000000000E+00  0.16584537092E+03  0.16584537092E+03  0.00000000000E+00 0.  1.
          1   -1    0    0  502    0 -0.00000000000E+00 -0.00000000000E+00 -0.48471597371E+03  0.48471597371E+03  0.00000000000E+00 0.  1.
         25    1    1    2    0    0 -0.10151030112E+03 -0.17315599465E+03  0.88914991708E+01  0.23662501658E+03  0.12500000000E+03 0.  0.
         21    1    1    2  503  501  0.11773942561E+03  0.50538917720E+02 -0.14835745673E+03  0.19602726727E+03  0.00000000000E+00 0.  1.
          1    1    1    2  501    0 -0.16229124498E+02  0.12261707693E+03 -0.17940464523E+03  0.21790906078E+03  0.00000000000E+00 0.  1.
<mgrwt>
<rscale>  4 0.20674862E+03</rscale>
<asrwt>0</asrwt>
<pdfrwt beam="1">  1       21 0.25514673E-01 0.20674862E+03</pdfrwt>
<pdfrwt beam="2">  1        1 0.74571687E-01 0.20674862E+03</pdfrwt>
<totfact> 0.75449263E+03</totfact>
</mgrwt>
</event>
<event>
 5    0  0.2947253E-001  0.2614037E+03  0.7546771E-02  0.1106303E+00
         -1   -1    0    0    0  501 -0.00000000000E+00  0.00000000000E+00  0.12732801647E+04  0.12732801647E+04  0.00000000000E+00 0.  1.
         21   -1    0    0  501  502  0.00000000000E+00 -0.00000000000E+00 -0.52738261024E+02  0.52738261024E+02  0.00000000000E+00 0.  1.
         25    1    1    2    0    0  0.49255653739E+02 -0.22423378163E+03  0.45290399342E+03  0.52292823170E+03  0.12500000000E+03 0.  0.
         21    1    1    2  501  501 -0.20333379872E+02  0.55920939125E+02  0.12986605081E+03  0.14284883241E+03  0.00000000000E+00 0.  1.
         -1    1    1    2    0  502 -0.28922273866E+02  0.16831284251E+03  0.63777185945E+03  0.66024136161E+03  0.00000000000E+00 0.  1.
<mgrwt>
<rscale>  4 0.26140373E+03</rscale>
<asrwt>0</asrwt>
<pdfrwt beam="1">  1       21 0.81135796E-02 0.26140373E+03</pdfrwt>
<pdfrwt beam="2">  1       -1 0.19588923E+00 0.26140373E+03</pdfrwt>
<totfact> 0.19463766E+03</totfact>
</mgrwt>
</event>
<event>
 5    0  0.2947253E-001  0.2477956E+03  0.7546771E-02  0.1114706E+00
         21   -1    0    0  503  502  0.00000000000E+00  0.00000000000E+00  0.10883592709E+04  0.10883592709E+04  0.00000000000E+00 0.  1.
          2   -1    0    0  502    0 -0.00000000000E+00 -0.00000000000E+00 -0.80017999583E+03  0.80017999583E+03  0.00000000000E+00 0. -1.
         25    1    1    2    0    0  0.10196658001E+03  0.18946810697E+03  0.10474867597E+04  0.10766377566E+04  0.12500000000E+03 0.  0.
         21    1    1    2  503  501 -0.66323863568E+02 -0.32149353394E+02 -0.62407793841E+02  0.96577267171E+02  0.00000000000E+00 0. -1.
          2    1    1    2  501    0 -0.35642716447E+02 -0.15731875357E+03 -0.69689969086E+03  0.71532424297E+03  0.00000000000E+00 0. -1.
<mgrwt>
<rscale>  4 0.24779555E+03</rscale>
<asrwt>0</asrwt>
<pdfrwt beam="1">  1       21 0.16743989E+00 0.24779555E+03</pdfrwt>
<pdfrwt beam="2">  1        2 0.12310461E+00 0.24779555E+03</pdfrwt>
<totfact> 0.95196051E+01</totfact>
</mgrwt>
</event>
<event>
 5    0  0.2947253E-001  0.3028137E+03  0.7546771E-02  0.1083842E+00
          4   -1    0    0  502    0 -0.00000000000E+00  0.00000000000E+00  0.26760232471E+04  0.26760232471E+04  0.00000000000E+00 0.  1.
         21   -1    0    0  503  502  0.00000000000E+00 -0.00000000000E+00 -0.13084586416E+03  0.13084586416E+03  0.00000000000E+00 0.  1.
         25    1    1    2    0    0  0.19127194352E+03  0.19871128027E+03  0.63655037293E+02  0.30943188759E+03  0.12500000000E+03 0.  0.
         21    1    1    2  503  501 -0.46566499147E+02 -0.86929723670E+02  0.85304740170E+03  0.85872876117E+03  0.00000000000E+00 0.  1.
          4    1    1    2  501    0 -0.14470544437E+03 -0.11178155660E+03  0.16284749439E+04  0.16387084625E+04  0.00000000000E+00 0.  1.
<mgrwt>
<rscale>  4 0.30281369E+03</rscale>
<asrwt>0</asrwt>
<pdfrwt beam="1">  1       21 0.20130135E-01 0.30281369E+03</pdfrwt>
<pdfrwt beam="2">  1        4 0.41169584E+00 0.30281369E+03</pdfrwt>
<totfact> 0.66478497E+00</totfact>
</mgrwt>
</event>
<event>
 5    0  0.2947253E-001  0.2722895E+03  0.7546771E-02  0.1099976E+00
          2   -1    0    0  502    0 -0.00000000000E+00  0.00000000000E+00  0.57030684922E+03  0.57030684922E+03  0.00000000000E+00 0.  1.
         21   -1    0    0  503  502  0.00000000000E+00 -0.00000000000E+00 -0.30610380561E+03  0.30610380561E+03  0.00000000000E+00 0.  1.
         25    1    1    2    0    0 -0.20786334385E+03 -0.12373123189E+03 -0.20485322789E+03  0.34074393970E+03  0.12500000000E+03 0.  0.
         21    1    1    2  503  501  0.10207594378E+03  0.41552842953E+02  0.12607691357E+03  0.16745603958E+03  0.00000000000E+00 0.  1.
          2    1    1    2  501    0  0.10578740007E+03  0.82178388934E+02  0.34297935793E+03  0.36821067554E+03  0.00000000000E+00 0.  1.
<mgrwt>
<rscale>  4 0.27228953E+03</rscale>
<asrwt>0</asrwt>
<pdfrwt beam="1">  1       21 0.47092893E-01 0.27228953E+03</pdfrwt>
<pdfrwt beam="2">  1        2 0.87739515E-01 0.27228953E+03</pdfrwt>
<totfact> 0.28193654E+03</totfact>
</mgrwt>
</event>
<event>
 5    0  0.2947253E-001  0.2712286E+03  0.7546771E-02  0.1100578E+00
         21   -1    0    0  501  502  0.00000000000E+00  0.00000000000E+00  0.12179696700E+03  0.12179696700E+03  0.00000000000E+00 0. -1.
         -2   -1    0    0    0  501 -0.00000000000E+00 -0.00000000000E+00 -0.62207188580E+03  0.62207188580E+03  0.00000000000E+00 0. -1.
         25    1    1    2    0    0  0.22972269480E+03  0.71885038017E+02 -0.38652400048E+03  0.47219252232E+03  0.12500000000E+03 0.  0.
         21    1    1    2  501  501 -0.26355985193E+02 -0.74541623077E+01  0.45126416173E+01  0.27759078255E+02  0.00000000000E+00 0. -1.
         -2    1    1    2    0  502 -0.20336670960E+03 -0.64430875710E+02 -0.11826355994E+03  0.24391725222E+03  0.00000000000E+00 0. -1.
<mgrwt>
<rscale>  4 0.27122864E+03</rscale>
<asrwt>0</asrwt>
<pdfrwt beam="1">  1       21 0.18737995E-01 0.27122864E+03</pdfrwt>
<pdfrwt beam="2">  1       -2 0.95703366E-01 0.27122864E+03</pdfrwt>
<totfact> 0.19988603E+03</totfact>
</mgrwt>
</event>
<event>
 5    0  0.2947253E-001  0.2980919E+03  0.7546771E-02  0.1086198E+00
         -2   -1    0    0    0  501 -0.00000000000E+00  0.00000000000E+00  0.27679422590E+03  0.27679422590E+03  0.00000000000E+00 0. -1.
         21   -1    0    0  501  502  0.00000000000E+00 -0.00000000000E+00 -0.46036258861E+03  0.46036258861E+03  0.00000000000E+00 0. -1.
         25    1    1    2    0    0  0.13132856738E+03 -0.23661488090E+03 -0.30541829590E+03  0.42677761181E+03  0.12500000000E+03 0.  0.
         21    1    1    2  501  501 -0.12446516828E+03  0.17168436119E+03  0.59846925556E+02  0.22033781448E+03  0.00000000000E+00 0. -1.
         -2    1    1    2    0  502 -0.68633991002E+01  0.64930519703E+02  0.62003007629E+02  0.90041388212E+02  0.00000000000E+00 0. -1.
<mgrwt>
<rscale>  4 0.29809192E+03</rscale>
<asrwt>0</asrwt>
<pdfrwt beam="1">  1       21 0.70825014E-01 0.29809192E+03</pdfrwt>
<pdfrwt beam="2">  1       -2 0.42583727E-01 0.29809192E+03</pdfrwt>
<totfact> 0.74311681E+02</totfact>
</mgrwt>
</event>
<event>
 5    0  0.2947253E-001  0.2451246E+03  0.7546771E-02  0.1116425E+00
         -2   -1    0    0    0  501 -0.00000000000E+00  0.00000000000E+00  0.14343318380E+03  0.14343318380E+03  0.00000000000E+00 0. -1.
         21   -1    0    0  501  502  0.00000000000E+00 -0.00000000000E+00 -0.60769264451E+03  0.60769264451E+03  0.00000000000E+00 0.  1.
         25    1    1    2    0    0  0.14372930081E+02  0.22057880467E+03 -0.36356431828E+03  0.44346995808E+03  0.12500000000E+03 0.  0.
         21    1    1    2  501  501 -0.82162329363E+02 -0.29415156899E+02 -0.39546076889E+02  0.95811231174E+02  0.00000000000E+00 0. -1.
         -2    1    1    2    0  502  0.67789399281E+02 -0.19116364777E+03 -0.61149065539E+02  0.21184463907E+03  0.00000000000E+00 0. -1.
<mgrwt>
<rscale>  4 0.24512459E+03</rscale>
<asrwt>0</asrwt>
<pdfrwt beam="1">  1       21 0.93491174E-01 0.24512459E+03</pdfrwt>
<pdfrwt beam="2">  1       -2 0.22066644E-01 0.24512459E+03</pdfrwt>
<totfact> 0.13337012E+03</totfact>
</mgrwt>
</event>
<event>
 5    0  0.2947253E-001  0.3408832E+03  0.7546771E-02  0.1066420E+00
         21   -1    0    0  503  502  0.00000000000E+00  0.00000000000E+00  0.39885975911E+03  0.39885975911E+03  0.00000000000E+00 0. -1.
          2   -1    0    0  502    0 -0.00000000000E+00 -0.00000000000E+00 -0.11570320813E+04  0.11570320813E+04  0.00000000000E+00 0. -1.
         25    1    1    2    0    0 -0.29130240385E+03 -0.23376049192E+03  0.19412951731E+03  0.43910400540E+03  0.12500000000E+03 0.  0.
         21    1    1    2  503  501  0.21349148299E+03  0.10135628795E+03 -0.11013462088E+03  0.26073232468E+03  0.00000000000E+00 0. -1.
          2    1    1    2  501    0  0.77810920857E+02  0.13240420397E+03 -0.84216721865E+03  0.85605551035E+03  0.00000000000E+00 0. -1.
<mgrwt>
<rscale>  4 0.34088323E+03</rscale>
<asrwt>0</asrwt>
<pdfrwt beam="1">  1       21 0.61363040E-01 0.34088323E+03</pdfrwt>
<pdfrwt beam="2">  1        2 0.17800494E+00 0.34088323E+03</pdfrwt>
<totfact> 0.61861463E+02</totfact>
</mgrwt>
</event>
<event>
 5    0  0.2947253E-001  0.2835294E+03  0.7546771E-02  0.1093777E+00
         21   -1    0    0  503  502  0.00000000000E+00  0.00000000000E+00  0.16025812167E+03  0.16025812167E+03  0.00000000000E+00 0.  1.
          2   -1    0    0  502    0 -0.00000000000E+00 -0.00000000000E+00 -0.15390789256E+04  0.15390789256E+04  0.00000000000E+00 0.  1.
         25    1    1    2    0    0  0.26145225657E+03 -0.99944575393E+02 -0.24674109468E+02  0.30753863545E+03  0.12500000000E+03 0.  0.
         21    1    1    2  503  501 -0.15679196970E+03  0.84191180497E+02 -0.49235047637E+03  0.52352733283E+03  0.00000000000E+00 0.  1.
          2    1    1    2  501    0 -0.10466028687E+03  0.15753394895E+02 -0.86179621805E+03  0.86827107895E+03  0.00000000000E+00 0.  1.
<mgrwt>
<rscale>  4 0.28352938E+03</rscale>
<asrwt>0</asrwt>
<pdfrwt beam="1">  1       21 0.24655097E-01 0.28352938E+03</pdfrwt>
<pdfrwt beam="2">  1        2 0.23678136E+00 0.28352938E+03</pdfrwt>
<totfact> 0.24974666E+03</totfact>
</mgrwt>
</event>
<event>
 5    0  0.2947253E-001  0.2360774E+03  0.7546771E-02  0.1122434E+00
         21   -1    0    0  503  502  0.00000000000E+00  0.00000000000E+00  0.10547485309E+04  0.10547485309E+04  0.00000000000E+00 0.  1.
          4   -1    0    0  502    0 -0.00000000000E+00 -0.00000000000E+00 -0.75906916915E+02  0.75906916915E+02  0.00000000000E+00 0.  1.
         25    1    1    2    0    0 -0.19804521728E+03  0.29759202555E+02  0.86597889060E+03  0.89758117025E+03  0.12500000000E+03 0.  0.
         21    1    1    2  503  501  0.65260842938E+02 -0.14895849507E+02  0.18339146715E+02  0.69405967004E+02  0.00000000000E+00 0. -1.
          4    1    1    2  501    0  0.13278437434E+03 -0.14863353048E+02  0.94523576653E+02  0.16366831054E+03  0.00000000000E+00 0.  1.
<mgrwt>
<rscale>  4 0.23607736E+03</rscale>
<asrwt>0</asrwt>
<pdfrwt beam="1">  1       21 0.16226899E+00 0.23607736E+03</pdfrwt>
<pdfrwt beam="2">  1        4 0.11677988E-01 0.23607736E+03</pdfrwt>
<totfact> 0.58833642E+02</totfact>
</mgrwt>
</event>
<event>
 5    0  0.2947253E-001  0.2442309E+03  0.7546771E-02  0.1117006E+00
          2   -1    0    0  502    0 -0.00000000000E+00  0.00000000000E+00  0.88949646472E+03  0.88949646472E+03  0.00000000000E+00 0. -1.
         21   -1    0    0  503  502  0.00000000000E+00 -0.00000000000E+00 -0.36348795160E+03  0.36348795160E+03  0.00000000000E+00 0.  1.
         25    1    1    2    0    0 -0.18787700576E+03  0.93412936019E+02 -0.30634899014E+03  0.39178878196E+03  0.12500000000E+03 0.  0.
         21    1    1    2  503  501  0.34528178283E+02  0.93201844474E+01  0.11233974870E+03  0.11789520801E+03  0.00000000000E+00 0. -1.
          2    1    1    2  501    0  0.15334882748E+03 -0.10273312047E+03  0.72001775457E+03  0.74330042635E+03  0.00000000000E+00 0. -1.
<mgrwt>
<rscale>  4 0.24423093E+03</rscale>
<asrwt>0</asrwt>
<pdfrwt beam="1">  1       21 0.55921223E-01 0.24423093E+03</pdfrwt>
<pdfrwt beam="2">  1        2 0.13684561E+00 0.24423093E+03</pdfrwt>
<totfact> 0.11476763E+03</totfact>
</mgrwt>
</event>
<event>
 5    0  0.2947253E-001  0.2631559E+03  0.7546771E-02  0.1105262E+00
         21   -1    0    0  501  502  0.00000000000E+00  0.00000000000E+00  0.31372256516E+03  0.31372256516E+03  0.00000000000E+00 0.  1.
         -2   -1    0    0    0  501 -0.00000000000E+00 -0.00000000000E+00 -0.41121355469E+03  0.41121355469E+03  0.00000000000E+00 0. -1.
         25    1    1    2    0    0  0.63342741632E+02 -0.25494043505E+03  0.12816994139E+03  0.31789850931E+03  0.12500000000E+03 0.  0.
         21    1    1    2  501  501 -0.37066308185E+02  0.30425423089E+02  0.36949613225E+02  0.60538347269E+02  0.00000000000E+00 0.  1.
         -2    1    1    2    0  502 -0.26276433448E+02  0.22451501197E+03 -0.26261054415E+03  0.34649926328E+03  0.00000000000E+00 0. -1.
<mgrwt>
<rscale>  4 0.26315585E+03</rscale>
<asrwt>0</asrwt>
<pdfrwt beam="1">  1       21 0.48265010E-01 0.26315585E+03</pdfrwt>
<pdfrwt beam="2">  1       -2 0.63263624E-01 0.26315585E+03</pdfrwt>
<totfact> 0.77215785E+02</totfact>
</mgrwt>
</event>
<event>
 5    0  0.2947253E-001  0.2718844E+03  0.7546771E-02  0.1100206E+00
          2   -1    0    0  502    0 -0.00000000000E+00  0.00000000000E+00  0.32136038806E+03  0.32136038806E+03  0.00000000000E+00 0.  1.
         21   -1    0    0  503  502  0.00000000000E+00 -0.00000000000E+00 -0.78969458027E+03  0.78969458027E+03  0.00000000000E+00 0.  1.
         25    1    1    2    0    0 -0.23818022535E+03  0.39576553062E+02 -0.71451487076E+03  0.76449501230E+03  0.12500000000E+03 0.  0.
         21    1    1    2  503  501  0.33996046660E+02 -0.57451732619E+00  0.20372750091E+02  0.39637232559E+02  0.00000000000E+00 0. -1.
          2    1    1    2  501    0  0.20418417869E+03 -0.39002035736E+02  0.22580792847E+03  0.30692272347E+03  0.00000000000E+00 0.  1.
<mgrwt>
<rscale>  4 0.27188439E+03</rscale>
<asrwt>0</asrwt>
<pdfrwt beam="1">  1       21 0.12149147E+00 0.27188439E+03</pdfrwt>
<pdfrwt beam="2">  1        2 0.49440060E-01 0.27188439E+03</pdfrwt>
<totfact> 0.61907742E+02</totfact>
</mgrwt>
</event>
<event>
 5    0  0.2947253E-001  0.2356748E+03  0.7546771E-02  0.1122708E+00
         21   -1    0    0  503  502  0.00000000000E+00  0.00000000000E+00  0.86886617440E+02  0.86886617440E+02  0.00000000000E+00 0.  1.
          2   -1    0    0  502    0 -0.00000000000E+00 -0.00000000000E+00 -0.25402985440E+04  0.25402985440E+04  0.00000000000E+00 0. -1.
         25    1    1    2    0    0  0.20125866232E+03  0.39206451388E+02 -0.95962598067E+02  0.25860397371E+03  0.12500000000E+03 0.  0.
         21    1    1    2  503  501 -0.13714733773E+03 -0.27244618973E+02 -0.20233637819E+04  0.20281895018E+04  0.00000000000E+00 0. -1.
          2    1    1    2  501    0 -0.64111324595E+02 -0.11961832416E+02 -0.33408554666E+03  0.34039168595E+03  0.00000000000E+00 0. -1.
<mgrwt>
<rscale>  4 0.23567482E+03</rscale>
<asrwt>0</asrwt>
<pdfrwt beam="1">  1       21 0.13367173E-01 0.23567482E+03</pdfrwt>
<pdfrwt beam="2">  1        2 0.39081514E+00 0.23567482E+03</pdfrwt>
<totfact> 0.23490540E+03</totfact>
</mgrwt>
</event>
<event>
 5    0  0.2947253E-001  0.3406194E+03  0.7546771E-02  0.1066532E+00
         -4   -1    0    0    0  501 -0.00000000000E+00  0.00000000000E+00  0.14841640512E+04  0.14841640512E+04  0.00000000000E+00 0. -1.
         21   -1    0    0  501  502  0.00000000000E+00 -0.00000000000E+00 -0.27065923477E+03  0.27065923477E+03  0.00000000000E+00 0.  1.
         25    1    1    2    0    0 -0.29435900652E+03 -0.14833332635E+03 -0.11423002242E+03  0.37057185329E+03  0.12500000000E+03 0.  0.
         21    1    1    2  501  501  0.14044885204E+03 -0.37750185790E+02  0.40056001201E+03  0.42614467002E+03  0.00000000000E+00 0. -1.
         -4    1    1    2    0  502  0.15391015448E+03  0.18608351214E+03  0.92717482683E+03  0.95810676266E+03  0.00000000000E+00 0. -1.
<mgrwt>
<rscale>  4 0.34061937E+03</rscale>
<asrwt>0</asrwt>
<pdfrwt beam="1">  1       21 0.41639883E-01 0.34061937E+03</pdfrwt>
<pdfrwt beam="2">  1       -4 0.22833293E+00 0.34061937E+03</pdfrwt>
<totfact> 0.21492007E+01</totfact>
</mgrwt>
</event>
<event>
 5    0  0.2947253E-001  0.2466258E+03  0.7546771E-02  0.1115456E+00
         -1   -1    0    0    0  501 -0.00000000000E+00  0.00000000000E+00  0.94247872299E+03  0.94247872299E+03  0.00000000000E+00 0.  1.
         21   -1    0    0  501  502  0.00000000000E+00 -0.00000000000E+00 -0.10042342894E+03  0.10042342894E+03  0.00000000000E+00 0.  1.
         25    1    1    2    0    0 -0.25989818311E+02  0.21100666289E+03  0.93938641082E+02  0.26391049757E+03  0.12500000000E+03 0.  0.
         21    1    1    2  501  501 -0.64665514656E+01 -0.12571105777E+03  0.43362185971E+03  0.45152298231E+03  0.00000000000E+00 0.  1.
         -1    1    1    2    0  502  0.32456369777E+02 -0.85295605119E+02  0.31449479326E+03  0.32746867206E+03  0.00000000000E+00 0.  1.
<mgrwt>
<rscale>  4 0.24662579E+03</rscale>
<asrwt>0</asrwt>
<pdfrwt beam="1">  1       21 0.15449759E-01 0.24662579E+03</pdfrwt>
<pdfrwt beam="2">  1       -1 0.14499672E+00 0.24662579E+03</pdfrwt>
<totfact> 0.14273421E+03</totfact>
</mgrwt>
</event>
<event>
 5    0  0.2947253E-001  0.2592912E+03  0.7546771E-02  0.1107570E+00
         21   -1    0    0  503  502  0.00000000000E+00  0.00000000000E+00  0.44392122612E+03  0.44392122612E+03  0.00000000000E+00 0.  1.
          2   -1    0    0  502    0 -0.00000000000E+00 -0.00000000000E+00 -0.28379769449E+03  0.28379769449E+03  0.00000000000E+00 0.  1.
         25    1    1    2    0    0  0.13838511581E+03  0.18015687347E+03  0.34101500847E+03  0.42839604962E+03  0.12500000000E+03 0.  0.
         21    1    1    2  503  501 -0.37693724714E+02 -0.79393237062E+01 -0.22620278404E+02  0.44671318973E+02  0.00000000000E+00 0.  1.
          2    1    1    2  501    0 -0.10069139109E+03 -0.17221754976E+03 -0.15827119844E+03  0.25465155201E+03  0.00000000000E+00 0.  1.
<mgrwt>
<rscale>  4 0.25929122E+03</rscale>
<asrwt>0</asrwt>
<pdfrwt beam="1">  1       21 0.68295573E-01 0.25929122E+03</pdfrwt>
<pdfrwt beam="2">  1        2 0.43661184E-01 0.25929122E+03</pdfrwt>
<totfact> 0.27515943E+03</totfact>
</mgrwt>
</event>
<event>
 5    0  0.2947253E-001  0.3860383E+03  0.7546771E-02  0.1048724E+00
          2   -1    0    0  502    0 -0.00000000000E+00  0.00000000000E+00  0.15034546253E+04  0.15034546253E+04  0.00000000000E+00 0.  1.
         21   -1    0    0  503  502  0.00000000000E+00 -0.00000000000E+00 -0.22924931110E+03  0.22924931110E+03  0.00000000000E+00 0.  1.
         25    1    1    2    0    0 -0.27481557853E+03 -0.25773440968E+03  0.10232836175E+02  0.39708983753E+03  0.12500000000E+03 0.  0.
         21    1    1    2  503  501  0.10945181198E+03 -0.10601437628E+02  0.23514816764E+03  0.25958958062E+03  0.00000000000E+00 0.  1.
          2    1    1    2  501    0  0.16536376655E+03  0.26833584730E+03  0.10288243104E+04  0.10760245182E+04  0.00000000000E+00 0.  1.
<mgrwt>
<rscale>  4 0.38603827E+03</rscale>
<asrwt>0</asrwt>
<pdfrwt beam="1">  1       21 0.35269126E-01 0.38603827E+03</pdfrwt>
<pdfrwt beam="2">  1        2 0.23130071E+00 0.38603827E+03</pdfrwt>
<totfact> 0.12450922E+03</totfact>
</mgrwt>
</event>
<event>
 5    0  0.2947253E-001  0.2114205E+03  0.7546771E-02  0.1140446E+00
         21   -1    0    0  503  502  0.00000000000E+00  0.00000000000E+00  0.11336934484E+03  0.11336934484E+03  0.00000000000E+00 0.  1.
          2   -1    0    0  502    0 -0.00000000000E+00 -0.00000000000E+00 -0.83395703482E+03  0.83395703482E+03  0.00000000000E+00 0. -1.
         25    1    1    2    0    0  0.52520494704E+02  0.25121735220E+03 -0.20631384780E+03  0.35222005083E+03  0.12500000000E+03 0.  0.
         21    1    1    2  503  501 -0.20139266831E+02 -0.99545897640E+02 -0.66909524774E+02  0.12162179209E+03  0.00000000000E+00 0. -1.
          2    1    1    2  501    0 -0.32381227873E+02 -0.15167145456E+03 -0.44736431741E+03  0.47348453675E+03  0.00000000000E+00 0. -1.
<mgrwt>
<rscale>  4 0.21142048E+03</rscale>
<asrwt>0</asrwt>
<pdfrwt beam="1">  1       21 0.17441437E-01 0.21142048E+03</pdfrwt>
<pdfrwt beam="2">  1        2 0.12830109E+00 0.21142048E+03</pdfrwt>
<totfact> 0.12603899E+04</totfact>
</mgrwt>
</event>
<event>
 5    0  0.2947253E-001  0.2391359E+03  0.7546771E-02  0.1120370E+00
         -1   -1    0    0    0  501 -0.00000000000E+00  0.00000000000E+00  0.15045670183E+03  0.15045670183E+03  0.00000000000E+00 0. -1.
         21   -1    0    0  501  502  0.00000000000E+00 -0.00000000000E+00 -0.63985711830E+03  0.63985711830E+03  0.00000000000E+00 0. -1.
         25    1    1    2    0    0  0.82608618882E+02  0.18750982766E+03 -0.51291543909E+03  0.56629618314E+03  0.12500000000E+03 0.  0.
         21    1    1    2  501  501  0.16899356831E+02 -0.13408462980E+02  0.75318267252E+01  0.22849585436E+02  0.00000000000E+00 0.  1.
         -1    1    1    2    0  502 -0.99507975713E+02 -0.17410136468E+03  0.15983195899E+02  0.20116805155E+03  0.00000000000E+00 0. -1.
<mgrwt>
<rscale>  4 0.23913587E+03</rscale>
<asrwt>0</asrwt>
<pdfrwt beam="1">  1       21 0.98439557E-01 0.23913587E+03</pdfrwt>
<pdfrwt beam="2">  1       -1 0.23147185E-01 0.23913587E+03</pdfrwt>
<totfact> 0.12049062E+03</totfact>
</mgrwt>
</event>
<event>
 5    0  0.2947253E-001  0.2527841E+03  0.7546771E-02  0.1111558E+00
          1   -1    0    0  502    0 -0.00000000000E+00  0.00000000000E+00  0.89340264928E+03  0.89340264928E+03  0.00000000000E+00 0.  1.
         21   -1    0    0  503  502  0.00000000000E+00 -0.00000000000E+00 -0.66102208284E+02  0.66102208284E+02  0.00000000000E+00 0.  1.
         25    1    1    2    0    0  0.21686723143E+03 -0.35261778085E+02  0.41084454834E+03  0.48238266134E+03  0.12500000000E+03 0.  0.
         21    1    1    2  503  501 -0.13049660791E+03  0.10682497026E+01  0.17415220104E+03  0.21762236779E+03  0.00000000000E+00 0.  1.
          1    1    1    2  501    0 -0.86370623514E+02  0.34193528382E+02  0.24230369161E+03  0.25949982844E+03  0.00000000000E+00 0.  1.
<mgrwt>
<rscale>  4 0.25278408E+03</rscale>
<asrwt>0</asrwt>
<pdfrwt beam="1">  1       21 0.10169571E-01 0.25278408E+03</pdfrwt>
<pdfrwt beam="2">  1        1 0.13744655E+00 0.25278408E+03</pdfrwt>
<totfact> 0.16853655E+04</totfact>
</mgrwt>
</event>
<event>
 5    0  0.2947253E-001  0.3001678E+03  0.7546771E-02  0.1085157E+00
         21   -1    0    0  503  502  0.00000000000E+00  0.00000000000E+00  0.10858125390E+03  0.10858125390E+03  0.00000000000E+00 0.  1.
          2   -1    0    0  502    0 -0.00000000000E+00 -0.00000000000E+00 -0.11440827828E+04  0.11440827828E+04  0.00000000000E+00 0.  1.
         25    1    1    2    0    0  0.92238580403E+01  0.26736367316E+03 -0.27172435551E+03  0.40128236774E+03  0.12500000000E+03 0.  0.
         21    1    1    2  503  501  0.84972001372E+02  0.75733496963E+01 -0.18587696741E+03  0.20451856556E+03  0.00000000000E+00 0.  1.
          2    1    1    2  501    0 -0.94195859412E+02 -0.27493702285E+03 -0.57790020594E+03  0.64686310336E+03  0.00000000000E+00 0.  1.
<mgrwt>
<rscale>  4 0.30016778E+03</rscale>
<asrwt>0</asrwt>
<pdfrwt beam="1">  1       21 0.16704808E-01 0.30016778E+03</pdfrwt>
<pdfrwt beam="2">  1        2 0.17601274E+00 0.30016778E+03</pdfrwt>
<totfact> 0.85811543E+03</totfact>
</mgrwt>
</event>
<event>
 5    0  0.2947253E-001  0.3790220E+03  0.7546771E-02  0.1051296E+00
          3   -1    0    0  502    0 -0.00000000000E+00  0.00000000000E+00  0.37856146280E+03  0.37856146280E+03  0.00000000000E+00 0.  1.
         21   -1    0    0  503  502  0.00000000000E+00 -0.00000000000E+00 -0.85641422260E+03  0.85641422260E+03  0.00000000000E+00 0.  1.
         25    1    1    2    0    0  0.36012736088E+03 -0.86167656874E+01 -0.70236787010E+03  0.79919433786E+03  0.12500000000E+03 0.  0.
         21    1    1    2  503  501 -0.18777731339E+02 -0.14033384729E+02 -0.48074465185E+01  0.23930119582E+02  0.00000000000E+00 0.  1.
          3    1    1    2  501    0 -0.34134962954E+03  0.22650150416E+02  0.22932255683E+03  0.41185122796E+03  0.00000000000E+00 0.  1.
<mgrwt>
<rscale>  4 0.37902202E+03</rscale>
<asrwt>0</asrwt>
<pdfrwt beam="1">  1       21 0.13175603E+00 0.37902202E+03</pdfrwt>
<pdfrwt beam="2">  1        3 0.58240226E-01 0.37902202E+03</pdfrwt>
<totfact> 0.56435244E+01</totfact>
</mgrwt>
</event>
<event>
 5    0  0.2947253E-001  0.2916179E+03  0.7546771E-02  0.1089507E+00
         -3   -1    0    0    0  501 -0.00000000000E+00  0.00000000000E+00  0.26257314865E+03  0.26257314865E+03  0.00000000000E+00 0. -1.
         21   -1    0    0  501  502  0.00000000000E+00 -0.00000000000E+00 -0.32076372616E+03  0.32076372616E+03  0.00000000000E+00 0. -1.
         25    1    1    2    0    0  0.21726641792E+03  0.14903457379E+03 -0.11117614695E+03  0.31209155098E+03  0.12500000000E+03 0.  0.
         21    1    1    2  501  501 -0.35172626161E+02 -0.10777164316E+02  0.13734922464E+02  0.39267149080E+02  0.00000000000E+00 0. -1.
         -3    1    1    2    0  502 -0.18209379175E+03 -0.13825740948E+03  0.39250646975E+02  0.23197817475E+03  0.00000000000E+00 0. -1.
<mgrwt>
<rscale>  4 0.29161790E+03</rscale>
<asrwt>0</asrwt>
<pdfrwt beam="1">  1       21 0.49348265E-01 0.29161790E+03</pdfrwt>
<pdfrwt beam="2">  1       -3 0.40395869E-01 0.29161790E+03</pdfrwt>
<totfact> 0.11658710E+03</totfact>
</mgrwt>
</event>
<event>
 5    0  0.2947306E-001  0.2829848E+03  0.7546771E-02  0.1094070E+00
         21   -1    0    0  503  502  0.00000000000E+00  0.00000000000E+00  0.18515121088E+04  0.18515121088E+04  0.00000000000E+00 0. -1.
          1   -1    0    0  502    0 -0.00000000000E+00 -0.00000000000E+00 -0.29825861186E+03  0.29825861186E+03  0.00000000000E+00 0.  1.
         25    1    1    2    0    0  0.11774439301E+03 -0.25053001125E+03  0.17483871362E+04  0.17745736408E+04  0.12500000000E+03 0.  0.
         21    1    1    2  503  501 -0.53267165057E+00  0.26157852117E+02  0.27589246173E+02  0.38022144480E+02  0.00000000000E+00 0.  1.
          1    1    1    2  501    0 -0.11721172136E+03  0.22437215913E+03 -0.22272288537E+03  0.33717493544E+03  0.00000000000E+00 0.  1.
<mgrwt>
<rscale>  4 0.28298481E+03</rscale>
<asrwt>0</asrwt>
<pdfrwt beam="1">  1       21 0.28484801E+00 0.28298481E+03</pdfrwt>
<pdfrwt beam="2">  1        1 0.45885941E-01 0.28298481E+03</pdfrwt>
<totfact> 0.36719482E+01</totfact>
</mgrwt>
</event>
<event>
 5    0  0.2947253E-001  0.2608047E+03  0.7546771E-02  0.1106661E+00
          1   -1    0    0  502    0 -0.00000000000E+00  0.00000000000E+00  0.28565570854E+03  0.28565570854E+03  0.00000000000E+00 0. -1.
         21   -1    0    0  503  502  0.00000000000E+00 -0.00000000000E+00 -0.58747576806E+03  0.58747576806E+03  0.00000000000E+00 0.  1.
         25    1    1    2    0    0 -0.21960209131E+03 -0.64567771458E+02 -0.49928978459E+03  0.56330219653E+03  0.12500000000E+03 0.  0.
         21    1    1    2  503  501  0.47923603808E+02 -0.56040925515E+01  0.17297531481E+02  0.51257021476E+02  0.00000000000E+00 0.  1.
          1    1    1    2  501    0  0.17167848751E+03  0.70171864010E+02  0.18017219359E+03  0.25857225859E+03  0.00000000000E+00 0. -1.
<mgrwt>
<rscale>  4 0.26080467E+03</rscale>
<asrwt>0</asrwt>
<pdfrwt beam="1">  1       21 0.90380887E-01 0.26080467E+03</pdfrwt>
<pdfrwt beam="2">  1        1 0.43947032E-01 0.26080467E+03</pdfrwt>
<totfact> 0.10278083E+03</totfact>
</mgrwt>
</event>
<event>
 5    0  0.3650802E-001  0.2744126E+03  0.7546771E-02  0.1098780E+00
         -3   -1    0    0    0  501 -0.00000000000E+00  0.00000000000E+00  0.14617842112E+04  0.14617842112E+04  0.00000000000E+00 0.  1.
         21   -1    0    0  501  502  0.00000000000E+00 -0.00000000000E+00 -0.20139701302E+03  0.20139701302E+03  0.00000000000E+00 0.  1.
         25    1    1    2    0    0  0.62409062706E+02  0.24728714072E+03 -0.64434895979E+02  0.29124332935E+03  0.12500000000E+03 0.  0.
         21    1    1    2  501  501 -0.57187520687E+02 -0.19367446306E+03  0.42533940944E+03  0.47084373564E+03  0.00000000000E+00 0.  1.
         -3    1    1    2    0  502 -0.52215420188E+01 -0.53612677659E+02  0.89948268470E+03  0.90109415922E+03  0.00000000000E+00 0.  1.
<mgrwt>
<rscale>  4 0.27441260E+03</rscale>
<asrwt>0</asrwt>
<pdfrwt beam="1">  1       21 0.30984157E-01 0.27441260E+03</pdfrwt>
<pdfrwt beam="2">  1       -3 0.22488987E+00 0.27441260E+03</pdfrwt>
<totfact> 0.54777886E+01</totfact>
</mgrwt>
</event>
<event>
 5    0  0.2947253E-001  0.3055623E+03  0.7546771E-02  0.1082493E+00
         21   -1    0    0  503  502  0.00000000000E+00  0.00000000000E+00  0.76586627407E+03  0.76586627407E+03  0.00000000000E+00 0. -1.
          2   -1    0    0  502    0 -0.00000000000E+00 -0.00000000000E+00 -0.59102293212E+03  0.59102293212E+03  0.00000000000E+00 0. -1.
         25    1    1    2    0    0 -0.17421513318E+03 -0.21678626231E+03  0.67758896633E+03  0.74303364894E+03  0.12500000000E+03 0.  0.
         21    1    1    2  503  501  0.25985962937E+02 -0.36165592216E+02 -0.19473855491E+02  0.48605055064E+02  0.00000000000E+00 0. -1.
          2    1    1    2  501    0  0.14822917025E+03  0.25295185453E+03 -0.48327176889E+03  0.56525050219E+03  0.00000000000E+00 0. -1.
<mgrwt>
<rscale>  4 0.30556230E+03</rscale>
<asrwt>0</asrwt>
<pdfrwt beam="1">  1       21 0.11782558E+00 0.30556230E+03</pdfrwt>
<pdfrwt beam="2">  1        2 0.90926605E-01 0.30556230E+03</pdfrwt>
<totfact> 0.33436889E+02</totfact>
</mgrwt>
</event>
<event>
 5    0  0.2947253E-001  0.2745274E+03  0.7546771E-02  0.1098716E+00
          2   -1    0    0  502    0 -0.00000000000E+00  0.00000000000E+00  0.91393858901E+03  0.91393858901E+03  0.00000000000E+00 0. -1.
         21   -1    0    0  503  502  0.00000000000E+00 -0.00000000000E+00 -0.56812993912E+03  0.56812993912E+03  0.00000000000E+00 0. -1.
         25    1    1    2    0    0  0.91238117995E+02  0.22852654896E+03 -0.50375256110E+03  0.57440440507E+03  0.12500000000E+03 0.  0.
         21    1    1    2  503  501 -0.80579354759E+02 -0.78225973877E+01  0.11535478925E+03  0.14092889287E+03  0.00000000000E+00 0. -1.
          2    1    1    2  501    0 -0.10658763236E+02 -0.22070395157E+03  0.73420642174E+03  0.76673523018E+03  0.00000000000E+00 0. -1.
<mgrwt>
<rscale>  4 0.27452737E+03</rscale>
<asrwt>0</asrwt>
<pdfrwt beam="1">  1       21 0.87404606E-01 0.27452737E+03</pdfrwt>
<pdfrwt beam="2">  1        2 0.14060594E+00 0.27452737E+03</pdfrwt>
<totfact> 0.40393574E+02</totfact>
</mgrwt>
</event>
<event>
 5    0  0.2947253E-001  0.3971233E+03  0.7546771E-02  0.1044780E+00
          3   -1    0    0  502    0 -0.00000000000E+00  0.00000000000E+00  0.17401103943E+04  0.17401103943E+04  0.00000000000E+00 0.  1.
         21   -1    0    0  503  502  0.00000000000E+00 -0.00000000000E+00 -0.11287986009E+03  0.11287986009E+03  0.00000000000E+00 0.  1.
         25    1    1    2    0    0  0.37586035914E+03  0.28475765523E+02  0.38464081848E+03  0.55286113811E+03  0.12500000000E+03 0.  0.
         21    1    1    2  503  501 -0.37080295315E+02  0.16659264858E+02  0.14027894775E+03  0.14605020571E+03  0.00000000000E+00 0. -1.
          3    1    1    2  501    0 -0.33878006383E+03 -0.45135030381E+02  0.11023107679E+04  0.11540789105E+04  0.00000000000E+00 0.  1.
<mgrwt>
<rscale>  4 0.39712325E+03</rscale>
<asrwt>0</asrwt>
<pdfrwt beam="1">  1       21 0.17366134E-01 0.39712325E+03</pdfrwt>
<pdfrwt beam="2">  1        3 0.26770927E+00 0.39712325E+03</pdfrwt>
<totfact> 0.93412569E+01</totfact>
</mgrwt>
</event>
<event>
 5    0  0.2947253E-001  0.2509838E+03  0.7546771E-02  0.1112685E+00
          3   -1    0    0  502    0 -0.00000000000E+00  0.00000000000E+00  0.12768635031E+03  0.12768635031E+03  0.00000000000E+00 0.  1.
         21   -1    0    0  503  502  0.00000000000E+00 -0.00000000000E+00 -0.76103282322E+03  0.76103282322E+03  0.00000000000E+00 0. -1.
         25    1    1    2    0    0 -0.17034536373E+03  0.13546331423E+03 -0.60150414241E+03  0.65176689528E+03  0.12500000000E+03 0.  0.
         21    1    1    2  503  501  0.65560182759E+02 -0.86998983621E+02  0.19385551314E+02  0.11064700771E+03  0.00000000000E+00 0.  1.
          3    1    1    2  501    0  0.10478518097E+03 -0.48464330612E+02 -0.51227881814E+02  0.12630527055E+03  0.00000000000E+00 0.  1.
<mgrwt>
<rscale>  4 0.25098377E+03</rscale>
<asrwt>0</asrwt>
<pdfrwt beam="1">  1       21 0.11708197E+00 0.25098377E+03</pdfrwt>
<pdfrwt beam="2">  1        3 0.19644054E-01 0.25098377E+03</pdfrwt>
<totfact> 0.63239696E+02</totfact>
</mgrwt>
</event>
<event>
 5    0  0.3837389E-001  0.4726142E+03  0.7546771E-02  0.1021185E+00
          1   -1    0    0  502    0 -0.00000000000E+00  0.00000000000E+00  0.21092937811E+04  0.21092937811E+04  0.00000000000E+00 0. -1.
         21   -1    0    0  503  502  0.00000000000E+00 -0.00000000000E+00 -0.15675757761E+03  0.15675757761E+03  0.00000000000E+00 0. -1.
         25    1    1    2    0    0 -0.44616910569E+03  0.93125137139E+02  0.32750122140E+03  0.57499670613E+03  0.12500000000E+03 0.  0.
         21    1    1    2  503  501  0.18974904991E+02 -0.20408782168E+02  0.47370255821E+02  0.54959135233E+02  0.00000000000E+00 0.  1.
          1    1    1    2  501    0  0.42719420069E+03 -0.72716354970E+02  0.15776647263E+04  0.16360955174E+04  0.00000000000E+00 0. -1.
<mgrwt>
<rscale>  4 0.47261418E+03</rscale>
<asrwt>0</asrwt>
<pdfrwt beam="1">  1       21 0.24116552E-01 0.47261418E+03</pdfrwt>
<pdfrwt beam="2">  1        1 0.32450672E+00 0.47261418E+03</pdfrwt>
<totfact> 0.46831343E+02</totfact>
</mgrwt>
</event>
<event>
 5    0  0.2947253E-001  0.2315511E+03  0.7546771E-02  0.1125553E+00
          2   -1    0    0  502    0 -0.00000000000E+00  0.00000000000E+00  0.23541966675E+04  0.23541966675E+04  0.00000000000E+00 0.  1.
         21   -1    0    0  503  502  0.00000000000E+00 -0.00000000000E+00 -0.89506267950E+02  0.89506267950E+02  0.00000000000E+00 0.  1.
         25    1    1    2    0    0  0.19223335892E+03  0.83722504948E+02  0.11365648699E+03  0.26926923172E+03  0.12500000000E+03 0.  0.
         21    1    1    2  503  501 -0.95900077908E+02 -0.12995959798E+03  0.65616364062E+03  0.67574924737E+03  0.00000000000E+00 0.  1.
          2    1    1    2  501    0 -0.96333281010E+02  0.46237093033E+02  0.14948702719E+04  0.14986844563E+04  0.00000000000E+00 0.  1.
<mgrwt>
<rscale>  4 0.23155108E+03</rscale>
<asrwt>0</asrwt>
<pdfrwt beam="1">  1       21 0.13770197E-01 0.23155108E+03</pdfrwt>
<pdfrwt beam="2">  1        2 0.36218406E+00 0.23155108E+03</pdfrwt>
<totfact> 0.28138056E+03</totfact>
</mgrwt>
</event>
<event>
 5    0  0.2947253E-001  0.2649457E+03  0.7546771E-02  0.1104208E+00
          2   -1    0    0  502    0 -0.00000000000E+00  0.00000000000E+00  0.10464209417E+04  0.10464209417E+04  0.00000000000E+00 0.  1.
         21   -1    0    0  503  502  0.00000000000E+00 -0.00000000000E+00 -0.92041332586E+02  0.92041332586E+02  0.00000000000E+00 0.  1.
         25    1    1    2    0    0  0.22249734563E+02 -0.23254282164E+03  0.16317908263E+03  0.31116495238E+03  0.12500000000E+03 0.  0.
         21    1    1    2  503  501 -0.39074856263E+01  0.12129316482E+03  0.30639358590E+03  0.32955171029E+03  0.00000000000E+00 0.  1.
          2    1    1    2  501    0 -0.18342248936E+02  0.11124965682E+03  0.48480694056E+03  0.49774561159E+03  0.00000000000E+00 0.  1.
<mgrwt>
<rscale>  4 0.26494568E+03</rscale>
<asrwt>0</asrwt>
<pdfrwt beam="1">  1       21 0.14160206E-01 0.26494568E+03</pdfrwt>
<pdfrwt beam="2">  1        2 0.16098783E+00 0.26494568E+03</pdfrwt>
<totfact> 0.13394190E+04</totfact>
</mgrwt>
</event>
<event>
 5    0  0.2947253E-001  0.2633667E+03  0.7546771E-02  0.1105137E+00
         21   -1    0    0  503  502  0.00000000000E+00  0.00000000000E+00  0.58088640655E+03  0.58088640655E+03  0.00000000000E+00 0.  1.
          2   -1    0    0  502    0 -0.00000000000E+00 -0.00000000000E+00 -0.19023041393E+03  0.19023041393E+03  0.00000000000E+00 0.  1.
         25    1    1    2    0    0 -0.36273434054E+02  0.22895693077E+03  0.45467737863E+03  0.52544605508E+03  0.12500000000E+03 0.  0.
         21    1    1    2  503  501  0.49044523929E+02 -0.17881520231E+03 -0.51384881762E+02  0.19240750500E+03  0.00000000000E+00 0.  1.
          2    1    1    2  501    0 -0.12771089875E+02 -0.50141728453E+02 -0.12636504253E+02  0.53263260401E+02  0.00000000000E+00 0.  1.
<mgrwt>
<rscale>  4 0.26336674E+03</rscale>
<asrwt>0</asrwt>
<pdfrwt beam="1">  1       21 0.89367139E-01 0.26336674E+03</pdfrwt>
<pdfrwt beam="2">  1        2 0.29266218E-01 0.26336674E+03</pdfrwt>
<totfact> 0.23099924E+03</totfact>
</mgrwt>
</event>
<event>
 5    0  0.2947253E-001  0.4093317E+03  0.7546771E-02  0.1040596E+00
          2   -1    0    0  502    0 -0.00000000000E+00  0.00000000000E+00  0.68211106598E+03  0.68211106598E+03  0.00000000000E+00 0.  1.
         21   -1    0    0  503  502  0.00000000000E+00 -0.00000000000E+00 -0.38441362558E+03  0.38441362558E+03  0.00000000000E+00 0. -1.
         25    1    1    2    0    0  0.80962680898E+02  0.38127740600E+03 -0.18095183540E+03  0.44754439194E+03  0.12500000000E+03 0.  0.
         21    1    1    2  503  501  0.47381637250E+01 -0.30177543059E+02  0.29321606737E+02  0.42342542699E+02  0.00000000000E+00 0. -1.
          2    1    1    2  501    0 -0.85700844623E+02 -0.35109986294E+03  0.44932766906E+03  0.57663775692E+03  0.00000000000E+00 0.  1.
<mgrwt>
<rscale>  4 0.40933167E+03</rscale>
<asrwt>0</asrwt>
<pdfrwt beam="1">  1       21 0.59140557E-01 0.40933167E+03</pdfrwt>
<pdfrwt beam="2">  1        2 0.10494016E+00 0.40933167E+03</pdfrwt>
<totfact> 0.13510294E+03</totfact>
</mgrwt>
</event>
<event>
 5    0  0.2947253E-001  0.8835890E+03  0.7546771E-02  0.9446332E-01
          1   -1    0    0  502    0 -0.00000000000E+00  0.00000000000E+00  0.16412030260E+04  0.16412030260E+04  0.00000000000E+00 0. -1.
         21   -1    0    0  503  502  0.00000000000E+00 -0.00000000000E+00 -0.53476630590E+03  0.53476630590E+03  0.00000000000E+00 0. -1.
         25    1    1    2    0    0  0.49169494723E+03  0.72342280846E+03  0.92496288914E+03  0.12791738847E+04  0.12500000000E+03 0.  0.
         21    1    1    2  503  501 -0.23488927425E+02 -0.37012746076E+02 -0.80404732730E+01  0.44568175800E+02  0.00000000000E+00 0.  1.
          1    1    1    2  501    0 -0.46820601981E+03 -0.68641006239E+03  0.18951430428E+03  0.85222727148E+03  0.00000000000E+00 0. -1.
<mgrwt>
<rscale>  4 0.88358898E+03</rscale>
<asrwt>0</asrwt>
<pdfrwt beam="1">  1       21 0.82271740E-01 0.88358898E+03</pdfrwt>
<pdfrwt beam="2">  1        1 0.25249277E+00 0.88358898E+03</pdfrwt>
<totfact> 0.64671464E+01</totfact>
</mgrwt>
</event>
<event>
 5    0  0.2947253E-001  0.2401409E+03  0.7546771E-02  0.1119699E+00
          2   -1    0    0  502    0 -0.00000000000E+00  0.00000000000E+00  0.16673322457E+04  0.16673322457E+04  0.00000000000E+00 0. -1.
         21   -1    0    0  503  502  0.00000000000E+00 -0.00000000000E+00 -0.55760574140E+02  0.55760574140E+02  0.00000000000E+00 0. -1.
         25    1    1    2    0    0  0.15475848606E+03 -0.13450821374E+03  0.25907738488E+03  0.35325449739E+03  0.12500000000E+03 0.  0.
         21    1    1    2  503  501 -0.40712267386E+02  0.95364396301E+01  0.42387690486E+03  0.42593434103E+03  0.00000000000E+00 0. -1.
          2    1    1    2  501    0 -0.11404621867E+03  0.12497177411E+03  0.92861738181E+03  0.94390398141E+03  0.00000000000E+00 0. -1.
<mgrwt>
<rscale>  4 0.24014089E+03</rscale>
<asrwt>0</asrwt>
<pdfrwt beam="1">  1       21 0.85785511E-02 0.24014089E+03</pdfrwt>
<pdfrwt beam="2">  1        2 0.25651262E+00 0.24014089E+03</pdfrwt>
<totfact> 0.15004283E+04</totfact>
</mgrwt>
</event>
<event>
 5    0  0.2947253E-001  0.2441828E+03  0.7546771E-02  0.1117037E+00
         21   -1    0    0  501  502  0.00000000000E+00  0.00000000000E+00  0.22757950515E+03  0.22757950515E+03  0.00000000000E+00 0.  1.
         -2   -1    0    0    0  501 -0.00000000000E+00 -0.00000000000E+00 -0.70000628275E+03  0.70000628275E+03  0.00000000000E+00 0.  1.
         25    1    1    2    0    0 -0.33500258240E+02  0.22548084949E+03  0.49093224981E+02  0.26457328952E+03  0.12500000000E+03 0.  0.
         21    1    1    2  501  501  0.15845788565E+03 -0.79009698312E+02 -0.10939053651E+03  0.20812910279E+03  0.00000000000E+00 0.  1.
         -2    1    1    2    0  502 -0.12495762741E+03 -0.14647115118E+03 -0.41212946607E+03  0.45488339559E+03  0.00000000000E+00 0.  1.
<mgrwt>
<rscale>  4 0.24418284E+03</rscale>
<asrwt>0</asrwt>
<pdfrwt beam="1">  1       21 0.35012232E-01 0.24418284E+03</pdfrwt>
<pdfrwt beam="2">  1       -2 0.10769327E+00 0.24418284E+03</pdfrwt>
<totfact> 0.45695125E+02</totfact>
</mgrwt>
</event>
<event>
 5    0  0.2947253E-001  0.2992995E+03  0.7546771E-02  0.1085591E+00
         21   -1    0    0  503  502  0.00000000000E+00  0.00000000000E+00  0.14781788509E+03  0.14781788509E+03  0.00000000000E+00 0.  1.
          2   -1    0    0  502    0 -0.00000000000E+00 -0.00000000000E+00 -0.10682374523E+04  0.10682374523E+04  0.00000000000E+00 0.  1.
         25    1    1    2    0    0 -0.26850966701E+03 -0.43101609939E+02 -0.52787670620E+02  0.30391895009E+03  0.12500000000E+03 0.  0.
         21    1    1    2  503  501  0.93823632174E+02 -0.10479346986E+02 -0.22425740198E+03  0.24331887105E+03  0.00000000000E+00 0.  1.
          2    1    1    2  501    0  0.17468603483E+03  0.53580956926E+02 -0.64337449460E+03  0.66881751623E+03  0.00000000000E+00 0.  1.
<mgrwt>
<rscale>  4 0.29929950E+03</rscale>
<asrwt>0</asrwt>
<pdfrwt beam="1">  1       21 0.22741213E-01 0.29929950E+03</pdfrwt>
<pdfrwt beam="2">  1        2 0.16434422E+00 0.29929950E+03</pdfrwt>
<totfact> 0.53239023E+03</totfact>
</mgrwt>
</event>
<event>
 5    0  0.2947253E-001  0.2563407E+03  0.7546771E-02  0.1109362E+00
         21   -1    0    0  503  502  0.00000000000E+00  0.00000000000E+00  0.62141057416E+02  0.62141057416E+02  0.00000000000E+00 0. -1.
          1   -1    0    0  502    0 -0.00000000000E+00 -0.00000000000E+00 -0.10824363776E+04  0.10824363776E+04  0.00000000000E+00 0. -1.
         25    1    1    2    0    0 -0.10739943069E+03  0.19634387929E+03 -0.33193951267E+03  0.41939765941E+03  0.12500000000E+03 0.  0.
         21    1    1    2  503  501  0.29230484841E+01 -0.38388952342E+02 -0.10364789539E+03  0.11056736450E+03  0.00000000000E+00 0. -1.
          1    1    1    2  501    0  0.10447638221E+03 -0.15795492694E+03 -0.58470791215E+03  0.61461241113E+03  0.00000000000E+00 0. -1.
<mgrwt>
<rscale>  4 0.25634070E+03</rscale>
<asrwt>0</asrwt>
<pdfrwt beam="1">  1       21 0.95601630E-02 0.25634070E+03</pdfrwt>
<pdfrwt beam="2">  1        1 0.16652867E+00 0.25634070E+03</pdfrwt>
<totfact> 0.13534153E+04</totfact>
</mgrwt>
</event>
<event>
 5    0  0.2947253E-001  0.4614166E+03  0.7546771E-02  0.1024371E+00
         -1   -1    0    0    0  501 -0.00000000000E+00  0.00000000000E+00  0.21290428838E+03  0.21290428838E+03  0.00000000000E+00 0. -1.
         21   -1    0    0  501  502  0.00000000000E+00 -0.00000000000E+00 -0.97041450493E+03  0.97041450493E+03  0.00000000000E+00 0. -1.
         25    1    1    2    0    0  0.40265975102E+02 -0.44233353763E+03 -0.38269944823E+03  0.59946991162E+03  0.12500000000E+03 0.  0.
         21    1    1    2  501  501 -0.16768417222E+02  0.42059462391E+02 -0.53053507409E+02  0.69748497053E+02  0.00000000000E+00 0.  1.
         -1    1    1    2    0  502 -0.23497557879E+02  0.40027407524E+03 -0.32175726092E+03  0.51410038464E+03  0.00000000000E+00 0. -1.
<mgrwt>
<rscale>  4 0.46141663E+03</rscale>
<asrwt>0</asrwt>
<pdfrwt beam="1">  1       21 0.14929454E+00 0.46141663E+03</pdfrwt>
<pdfrwt beam="2">  1       -1 0.32754506E-01 0.46141663E+03</pdfrwt>
<totfact> 0.21727916E+02</totfact>
</mgrwt>
</event>
<event>
 5    0  0.2947253E-001  0.3670289E+03  0.7546771E-02  0.1057154E+00
         21   -1    0    0  503  502  0.00000000000E+00  0.00000000000E+00  0.72751075029E+02  0.72751075029E+02  0.00000000000E+00 0.  1.
          2   -1    0    0  502    0 -0.00000000000E+00 -0.00000000000E+00 -0.17907974310E+04  0.17907974310E+04  0.00000000000E+00 0.  1.
         25    1    1    2    0    0 -0.40437129990E+02 -0.32832531698E+03 -0.78876640884E+03  0.86441316681E+03  0.12500000000E+03 0.  0.
         21    1    1    2  503  501 -0.56914595667E+02  0.92798934206E+02 -0.34294605951E+03  0.35980955119E+03  0.00000000000E+00 0.  1.
          2    1    1    2  501    0  0.97351725657E+02  0.23552638277E+03 -0.58633388763E+03  0.63932578804E+03  0.00000000000E+00 0.  1.
<mgrwt>
<rscale>  4 0.36363358E+03</rscale>
<asrwt>0</asrwt>
<pdfrwt beam="1">  1       21 0.11192474E-01 0.36702889E+03</pdfrwt>
<pdfrwt beam="2">  1        2 0.27550727E+00 0.36702889E+03</pdfrwt>
<totfact> 0.77756835E+03</totfact>
</mgrwt>
</event>
<event>
 5    0  0.2947253E-001  0.2510262E+03  0.7546771E-02  0.1112658E+00
          2   -1    0    0  502    0 -0.00000000000E+00  0.00000000000E+00  0.41850537195E+04  0.41850537195E+04  0.00000000000E+00 0.  1.
         21   -1    0    0  503  502  0.00000000000E+00 -0.00000000000E+00 -0.14857036880E+02  0.14857036880E+02  0.00000000000E+00 0.  1.
         25    1    1    2    0    0 -0.15851675398E+03  0.14920315718E+03  0.28192339703E+04  0.28303876630E+04  0.12500000000E+03 0.  0.
         21    1    1    2  503  501  0.53144872247E+01 -0.30257364004E+02  0.17713439427E+03  0.17977860129E+03  0.00000000000E+00 0. -1.
          2    1    1    2  501    0  0.15320226675E+03 -0.11894579317E+03  0.11738283180E+04  0.11897444921E+04  0.00000000000E+00 0.  1.
<mgrwt>
<rscale>  4 0.25102618E+03</rscale>
<asrwt>0</asrwt>
<pdfrwt beam="1">  1       21 0.22857013E-02 0.25102618E+03</pdfrwt>
<pdfrwt beam="2">  1        2 0.64385348E+00 0.25102618E+03</pdfrwt>
<totfact> 0.40954431E+03</totfact>
</mgrwt>
</event>
<event>
 5    0  0.2947253E-001  0.3324026E+03  0.7546771E-02  0.1070079E+00
          1   -1    0    0  502    0 -0.00000000000E+00  0.00000000000E+00  0.33792942200E+03  0.33792942200E+03  0.00000000000E+00 0.  1.
         21   -1    0    0  503  502  0.00000000000E+00 -0.00000000000E+00 -0.11239989807E+04  0.11239989807E+04  0.00000000000E+00 0. -1.
         25    1    1    2    0    0 -0.23183311080E+03  0.20278047157E+03 -0.10190023503E+04  0.10718476108E+04  0.12500000000E+03 0.  0.
         21    1    1    2  503  501  0.57693689779E+02 -0.31849640517E+02  0.28705241355E+02  0.71881515862E+02  0.00000000000E+00 0.  1.
          1    1    1    2  501    0  0.17413942102E+03 -0.17093083106E+03  0.20422755026E+03  0.31819927599E+03  0.00000000000E+00 0.  1.
<mgrwt>
<rscale>  4 0.33240263E+03</rscale>
<asrwt>0</asrwt>
<pdfrwt beam="1">  1       21 0.17292291E+00 0.33240263E+03</pdfrwt>
<pdfrwt beam="2">  1        1 0.51989143E-01 0.33240263E+03</pdfrwt>
<totfact> 0.15374995E+02</totfact>
</mgrwt>
</event>
<event>
 5    0  0.2947253E-001  0.3008210E+03  0.7546771E-02  0.1084831E+00
          2   -1    0    0  502    0 -0.00000000000E+00  0.00000000000E+00  0.66410145019E+03  0.66410145019E+03  0.00000000000E+00 0.  1.
         21   -1    0    0  503  502  0.00000000000E+00 -0.00000000000E+00 -0.13357030382E+03  0.13357030382E+03  0.00000000000E+00 0.  1.
         25    1    1    2    0    0  0.23752842832E+03  0.13582537136E+03  0.33375632825E+03  0.44931789683E+03  0.12500000000E+03 0.  0.
         21    1    1    2  503  501 -0.13671115378E+03 -0.49611094624E+02  0.58563264510E+02  0.15678283142E+03  0.00000000000E+00 0.  1.
          2    1    1    2  501    0 -0.10081727454E+03 -0.86214276738E+02  0.13821155361E+03  0.19157102576E+03  0.00000000000E+00 0.  1.
<mgrwt>
<rscale>  4 0.30082102E+03</rscale>
<asrwt>0</asrwt>
<pdfrwt beam="1">  1       21 0.20549278E-01 0.30082102E+03</pdfrwt>
<pdfrwt beam="2">  1        2 0.10216945E+00 0.30082102E+03</pdfrwt>
<totfact> 0.12086999E+04</totfact>
</mgrwt>
</event>
<event>
 5    0  0.2947253E-001  0.4719164E+03  0.7546771E-02  0.1021381E+00
         -3   -1    0    0    0  501 -0.00000000000E+00  0.00000000000E+00  0.83133351132E+03  0.83133351132E+03  0.00000000000E+00 0. -1.
         21   -1    0    0  501  502  0.00000000000E+00 -0.00000000000E+00 -0.51442161123E+03  0.51442161123E+03  0.00000000000E+00 0. -1.
         25    1    1    2    0    0 -0.31375633598E+03  0.32960128444E+03 -0.31014155426E+03  0.56470596663E+03  0.12500000000E+03 0.  0.
         21    1    1    2  501  501  0.59808264091E+02 -0.12647376878E+03  0.17124059768E+03  0.22112436532E+03  0.00000000000E+00 0. -1.
         -3    1    1    2    0  502  0.25394807188E+03 -0.20312751566E+03  0.45581285667E+03  0.55992479061E+03  0.00000000000E+00 0. -1.
<mgrwt>
<rscale>  4 0.47191635E+03</rscale>
<asrwt>0</asrwt>
<pdfrwt beam="1">  1       21 0.79141786E-01 0.47191635E+03</pdfrwt>
<pdfrwt beam="2">  1       -3 0.12789746E+00 0.47191635E+03</pdfrwt>
<totfact> 0.32282284E+01</totfact>
</mgrwt>
</event>
<event>
 5    0  0.2947253E-001  0.4158535E+03  0.7546771E-02  0.1038424E+00
         21   -1    0    0  503  502  0.00000000000E+00  0.00000000000E+00  0.43214953053E+03  0.43214953053E+03  0.00000000000E+00 0. -1.
          2   -1    0    0  502    0 -0.00000000000E+00 -0.00000000000E+00 -0.41607645203E+03  0.41607645203E+03  0.00000000000E+00 0. -1.
         25    1    1    2    0    0 -0.20716481535E+03 -0.33721168197E+03  0.38395415249E+02  0.41680713416E+03  0.12500000000E+03 0.  0.
         21    1    1    2  503  501 -0.26060140608E+02  0.14556978062E+02 -0.14585708407E+02  0.33223176076E+02  0.00000000000E+00 0. -1.
          2    1    1    2  501    0  0.23322495596E+03  0.32265470391E+03 -0.77366283491E+01  0.39819567232E+03  0.00000000000E+00 0. -1.
<mgrwt>
<rscale>  4 0.41585352E+03</rscale>
<asrwt>0</asrwt>
<pdfrwt beam="1">  1       21 0.66484544E-01 0.41585352E+03</pdfrwt>
<pdfrwt beam="2">  1        2 0.64011762E-01 0.41585352E+03</pdfrwt>
<totfact> 0.18487914E+03</totfact>
</mgrwt>
</event>
<event>
 5    0  0.2947253E-001  0.4162482E+03  0.7546771E-02  0.1038294E+00
          2   -1    0    0  502    0 -0.00000000000E+00  0.00000000000E+00  0.11018155997E+04  0.11018155997E+04  0.00000000000E+00 0.  1.
         21   -1    0    0  503  502  0.00000000000E+00 -0.00000000000E+00 -0.16704808082E+03  0.16704808082E+03  0.00000000000E+00 0. -1.
         25    1    1    2    0    0 -0.39659760001E+03  0.18651725824E+02  0.28698042497E+03  0.50558906982E+03  0.12500000000E+03 0.  0.
         21    1    1    2  503  501  0.52634554126E+02  0.10717890979E+02  0.13316117375E+03  0.14358679490E+03  0.00000000000E+00 0. -1.
          2    1    1    2  501    0  0.34396304588E+03 -0.29369616803E+02  0.51462592013E+03  0.61968781576E+03  0.00000000000E+00 0.  1.
<mgrwt>
<rscale>  4 0.41624818E+03</rscale>
<asrwt>0</asrwt>
<pdfrwt beam="1">  1       21 0.25699705E-01 0.41624818E+03</pdfrwt>
<pdfrwt beam="2">  1        2 0.16951009E+00 0.41624818E+03</pdfrwt>
<totfact> 0.39064968E+03</totfact>
</mgrwt>
</event>
<event>
 5    0  0.2947253E-001  0.3048839E+03  0.7546771E-02  0.1082824E+00
         21   -1    0    0  503  502  0.00000000000E+00  0.00000000000E+00  0.85350959811E+03  0.85350959811E+03  0.00000000000E+00 0.  1.
          1   -1    0    0  502    0 -0.00000000000E+00 -0.00000000000E+00 -0.42929711035E+03  0.42929711035E+03  0.00000000000E+00 0.  1.
         25    1    1    2    0    0 -0.27805966945E+03  0.34644974774E+01  0.77339980842E+03  0.83132511461E+03  0.12500000000E+03 0.  0.
         21    1    1    2  503  501  0.20596159134E+03 -0.79425464891E+00 -0.20685085528E+03  0.29190423820E+03  0.00000000000E+00 0.  1.
          1    1    1    2  501    0  0.72098078109E+02 -0.26702428285E+01 -0.14233646537E+03  0.15957735565E+03  0.00000000000E+00 0.  1.
<mgrwt>
<rscale>  4 0.30488388E+03</rscale>
<asrwt>0</asrwt>
<pdfrwt beam="1">  1       21 0.13130917E+00 0.30488388E+03</pdfrwt>
<pdfrwt beam="2">  1        1 0.66045710E-01 0.30488388E+03</pdfrwt>
<totfact> 0.24016871E+02</totfact>
</mgrwt>
</event>
<event>
 5    0  0.2947253E-001  0.2520670E+03  0.7546771E-02  0.1112005E+00
         -1   -1    0    0    0  501 -0.00000000000E+00  0.00000000000E+00  0.28683691357E+03  0.28683691357E+03  0.00000000000E+00 0.  1.
         21   -1    0    0  501  502  0.00000000000E+00 -0.00000000000E+00 -0.33748569735E+03  0.33748569735E+03  0.00000000000E+00 0.  1.
         25    1    1    2    0    0  0.54120299489E+02  0.21209380977E+03 -0.22587792671E+03  0.33846510711E+03  0.12500000000E+03 0.  0.
         21    1    1    2  501  501 -0.15740084567E+02 -0.28695572433E+02  0.57921938104E+01  0.33237563818E+02  0.00000000000E+00 0.  1.
         -1    1    1    2    0  502 -0.38380214922E+02 -0.18339823734E+03  0.16943694912E+03  0.25261993999E+03  0.00000000000E+00 0.  1.
<mgrwt>
<rscale>  4 0.25206704E+03</rscale>
<asrwt>0</asrwt>
<pdfrwt beam="1">  1       21 0.51920877E-01 0.25206704E+03</pdfrwt>
<pdfrwt beam="2">  1       -1 0.44128756E-01 0.25206704E+03</pdfrwt>
<totfact> 0.16475029E+03</totfact>
</mgrwt>
</event>
<event>
 5    0  0.2947253E-001  0.2234497E+03  0.7546771E-02  0.1131337E+00
         21   -1    0    0  501  502  0.00000000000E+00  0.00000000000E+00  0.46753553721E+03  0.46753553721E+03  0.00000000000E+00 0.  1.
         -4   -1    0    0    0  501 -0.00000000000E+00 -0.00000000000E+00 -0.31404737658E+03  0.31404737658E+03  0.00000000000E+00 0.  1.
         25    1    1    2    0    0  0.59851313297E+02  0.19691619843E+03  0.38741904123E+03  0.45615423095E+03  0.12500000000E+03 0.  0.
         21    1    1    2  501  501 -0.35858009832E+00 -0.23115525439E+02  0.53843586236E+01  0.23737047285E+02  0.00000000000E+00 0. -1.
         -4    1    1    2    0  502 -0.59492733199E+02 -0.17380067299E+03 -0.23931523923E+03  0.30169163555E+03  0.00000000000E+00 0.  1.
<mgrwt>
<rscale>  4 0.22344967E+03</rscale>
<asrwt>0</asrwt>
<pdfrwt beam="1">  1       21 0.71928544E-01 0.22344967E+03</pdfrwt>
<pdfrwt beam="2">  1       -4 0.48314981E-01 0.22344967E+03</pdfrwt>
<totfact> 0.30391264E+02</totfact>
</mgrwt>
</event>
<event>
 5    0  0.3494363E-001  0.3148248E+03  0.7546771E-02  0.1078056E+00
         21   -1    0    0  503  502  0.00000000000E+00  0.00000000000E+00  0.16729846775E+03  0.16729846775E+03  0.00000000000E+00 0.  1.
          2   -1    0    0  502    0 -0.00000000000E+00 -0.00000000000E+00 -0.87411462956E+03  0.87411462956E+03  0.00000000000E+00 0. -1.
         25    1    1    2    0    0  0.25671747114E+03 -0.13261150396E+03 -0.46536388374E+02  0.31824566991E+03  0.12500000000E+03 0.  0.
         21    1    1    2  503  501 -0.19580115740E+02  0.52397593196E+01 -0.19418996029E+02  0.28070151708E+02  0.00000000000E+00 0. -1.
          2    1    1    2  501    0 -0.23713735540E+03  0.12737174464E+03 -0.64086077741E+03  0.69509727570E+03  0.00000000000E+00 0. -1.
<mgrwt>
<rscale>  4 0.31482483E+03</rscale>
<asrwt>0</asrwt>
<pdfrwt beam="1">  1       21 0.25738226E-01 0.31482483E+03</pdfrwt>
<pdfrwt beam="2">  1        2 0.13447917E+00 0.31482483E+03</pdfrwt>
<totfact> 0.55344276E+03</totfact>
</mgrwt>
</event>
<event>
 5    0  0.2947253E-001  0.2643453E+03  0.7546771E-02  0.1104560E+00
          2   -1    0    0  502    0 -0.00000000000E+00  0.00000000000E+00  0.71768212067E+03  0.71768212067E+03  0.00000000000E+00 0. -1.
         21   -1    0    0  503  502  0.00000000000E+00 -0.00000000000E+00 -0.11292518454E+03  0.11292518454E+03  0.00000000000E+00 0. -1.
         25    1    1    2    0    0 -0.21694292349E+03  0.10924662492E+03  0.37010726565E+03  0.46000374477E+03  0.12500000000E+03 0.  0.
         21    1    1    2  503  501  0.32691901749E+02  0.26882520093E+02  0.90584985592E+02  0.99985348633E+02  0.00000000000E+00 0. -1.
          2    1    1    2  501    0  0.18425102174E+03 -0.13612914502E+03  0.14406468488E+03  0.27061821181E+03  0.00000000000E+00 0. -1.
<mgrwt>
<rscale>  4 0.26434535E+03</rscale>
<asrwt>0</asrwt>
<pdfrwt beam="1">  1       21 0.17373106E-01 0.26434535E+03</pdfrwt>
<pdfrwt beam="2">  1        2 0.11041263E+00 0.26434535E+03</pdfrwt>
<totfact> 0.15162001E+04</totfact>
</mgrwt>
</event>
<event>
 5    0  0.2947253E-001  0.2384613E+03  0.7546771E-02  0.1120822E+00
          2   -1    0    0  502    0 -0.00000000000E+00  0.00000000000E+00  0.16746455480E+04  0.16746455480E+04  0.00000000000E+00 0.  1.
         21   -1    0    0  503  502  0.00000000000E+00 -0.00000000000E+00 -0.80186000519E+02  0.80186000519E+02  0.00000000000E+00 0.  1.
         25    1    1    2    0    0  0.61674737780E+02 -0.20152735348E+03  0.14714651680E+03  0.28582187615E+03  0.12500000000E+03 0.  0.
         21    1    1    2  503  501 -0.23129507158E+02  0.28470537740E+01  0.33641665062E+02  0.40924826753E+02  0.00000000000E+00 0. -1.
          2    1    1    2  501    0 -0.38545230622E+02  0.19868029971E+03  0.14136713656E+04  0.14280848456E+04  0.00000000000E+00 0.  1.
<mgrwt>
<rscale>  4 0.23846132E+03</rscale>
<asrwt>0</asrwt>
<pdfrwt beam="1">  1       21 0.12336309E-01 0.23846132E+03</pdfrwt>
<pdfrwt beam="2">  1        2 0.25763775E+00 0.23846132E+03</pdfrwt>
<totfact> 0.77971961E+03</totfact>
</mgrwt>
</event>
<event>
 5    0  0.2947253E-001  0.4045864E+03  0.7546771E-02  0.1042203E+00
         21   -1    0    0  503  502  0.00000000000E+00  0.00000000000E+00  0.12430332800E+03  0.12430332800E+03  0.00000000000E+00 0.  1.
          2   -1    0    0  502    0 -0.00000000000E+00 -0.00000000000E+00 -0.29761518018E+04  0.29761518018E+04  0.00000000000E+00 0.  1.
         25    1    1    2    0    0  0.34999258031E+03  0.19477407118E+03 -0.36698866787E+03  0.55743827230E+03  0.12500000000E+03 0.  0.
         21    1    1    2  503  501 -0.14690816587E+03  0.78290640944E+02 -0.44807233683E+03  0.47799608020E+03  0.00000000000E+00 0.  1.
          2    1    1    2  501    0 -0.20308441444E+03 -0.27306471212E+03 -0.20367874691E+04  0.20650207773E+04  0.00000000000E+00 0.  1.
<mgrwt>
<rscale>  4 0.40458639E+03</rscale>
<asrwt>0</asrwt>
<pdfrwt beam="1">  1       21 0.19123593E-01 0.40458639E+03</pdfrwt>
<pdfrwt beam="2">  1        2 0.45786941E+00 0.40458639E+03</pdfrwt>
<totfact> 0.63109707E+02</totfact>
</mgrwt>
</event>
<event>
 5    0  0.2947253E-001  0.3233584E+03  0.7546771E-02  0.1074114E+00
         21   -1    0    0  503  502  0.00000000000E+00  0.00000000000E+00  0.10555126422E+04  0.10555126422E+04  0.00000000000E+00 0.  1.
          1   -1    0    0  502    0 -0.00000000000E+00 -0.00000000000E+00 -0.49060426170E+03  0.49060426170E+03  0.00000000000E+00 0.  1.
         25    1    1    2    0    0 -0.33293129548E+02  0.29635653978E+03  0.98016937940E+03  0.10321301485E+04  0.12500000000E+03 0.  0.
         21    1    1    2  503  501 -0.11548396047E+02 -0.38747915572E+02 -0.42516754754E+02  0.58672317555E+02  0.00000000000E+00 0. -1.
          1    1    1    2  501    0  0.44841525595E+02 -0.25760862421E+03 -0.37274424419E+03  0.45531443779E+03  0.00000000000E+00 0.  1.
<mgrwt>
<rscale>  4 0.32335836E+03</rscale>
<asrwt>0</asrwt>
<pdfrwt beam="1">  1       21 0.16238656E+00 0.32335836E+03</pdfrwt>
<pdfrwt beam="2">  1        1 0.75477579E-01 0.32335836E+03</pdfrwt>
<totfact> 0.11333357E+02</totfact>
</mgrwt>
</event>
<event>
 5    0  0.2947253E-001  0.2854853E+03  0.7546771E-02  0.1092730E+00
         21   -1    0    0  503  502  0.00000000000E+00  0.00000000000E+00  0.20148621828E+03  0.20148621828E+03  0.00000000000E+00 0. -1.
          2   -1    0    0  502    0 -0.00000000000E+00 -0.00000000000E+00 -0.43141012352E+03  0.43141012352E+03  0.00000000000E+00 0. -1.
         25    1    1    2    0    0  0.12573077419E+03 -0.22376022539E+03 -0.70425182275E+01  0.28557216795E+03  0.12500000000E+03 0.  0.
         21    1    1    2  503  501 -0.58110478127E+02  0.59603365174E+02 -0.39699244928E+02  0.92224827763E+02  0.00000000000E+00 0.  1.
          2    1    1    2  501    0 -0.67620296067E+02  0.16415686022E+03 -0.18318214209E+03  0.25509934609E+03  0.00000000000E+00 0. -1.
<mgrwt>
<rscale>  4 0.28548532E+03</rscale>
<asrwt>0</asrwt>
<pdfrwt beam="1">  1       21 0.30997880E-01 0.28548532E+03</pdfrwt>
<pdfrwt beam="2">  1        2 0.66370788E-01 0.28548532E+03</pdfrwt>
<totfact> 0.89835095E+03</totfact>
</mgrwt>
</event>
<event>
 5    0  0.2947253E-001  0.2369856E+03  0.7546771E-02  0.1121817E+00
         21   -1    0    0  501  502  0.00000000000E+00  0.00000000000E+00  0.31829554103E+03  0.31829554103E+03  0.00000000000E+00 0. -1.
         -2   -1    0    0    0  501 -0.00000000000E+00 -0.00000000000E+00 -0.90707590952E+03  0.90707590952E+03  0.00000000000E+00 0. -1.
         25    1    1    2    0    0  0.38722153607E+02  0.19757973785E+03  0.26017341082E+03  0.35192664248E+03  0.12500000000E+03 0.  0.
         21    1    1    2  501  501  0.85064109135E+01 -0.26968841119E+02 -0.10876717975E+03  0.11238316960E+03  0.00000000000E+00 0. -1.
         -2    1    1    2    0  502 -0.47228564521E+02 -0.17061089673E+03 -0.74018659956E+03  0.76106163848E+03  0.00000000000E+00 0. -1.
<mgrwt>
<rscale>  4 0.23698556E+03</rscale>
<asrwt>0</asrwt>
<pdfrwt beam="1">  1       21 0.48968544E-01 0.23698556E+03</pdfrwt>
<pdfrwt beam="2">  1       -2 0.13955014E+00 0.23698556E+03</pdfrwt>
<totfact> 0.12266105E+02</totfact>
</mgrwt>
</event>
<event>
 5    0  0.2947253E-001  0.3913279E+03  0.7546771E-02  0.1046825E+00
         -3   -1    0    0    0  501 -0.00000000000E+00  0.00000000000E+00  0.22144825222E+04  0.22144825222E+04  0.00000000000E+00 0. -1.
         21   -1    0    0  501  502  0.00000000000E+00 -0.00000000000E+00 -0.20348967316E+03  0.20348967316E+03  0.00000000000E+00 0.  1.
         25    1    1    2    0    0  0.32678940493E+03  0.17527476592E+03  0.22254841947E+02  0.39196024892E+03  0.12500000000E+03 0.  0.
         21    1    1    2  501  501 -0.11250196803E+03 -0.46115957989E+02  0.94053309070E+03  0.94835956741E+03  0.00000000000E+00 0. -1.
         -3    1    1    2    0  502 -0.21428743690E+03 -0.12915880793E+03  0.10482049164E+04  0.10776523790E+04  0.00000000000E+00 0. -1.
<mgrwt>
<rscale>  4 0.39132794E+03</rscale>
<asrwt>0</asrwt>
<pdfrwt beam="1">  1       21 0.31306105E-01 0.39132794E+03</pdfrwt>
<pdfrwt beam="2">  1       -3 0.34068960E+00 0.39132794E+03</pdfrwt>
<totfact> 0.11904027E+01</totfact>
</mgrwt>
</event>
<event>
 5    0  0.2947253E-001  0.2914258E+03  0.7546771E-02  0.1089607E+00
          2   -1    0    0  502    0 -0.00000000000E+00  0.00000000000E+00  0.50347673807E+03  0.50347673807E+03  0.00000000000E+00 0.  1.
         21   -1    0    0  503  502  0.00000000000E+00 -0.00000000000E+00 -0.48363207458E+03  0.48363207458E+03  0.00000000000E+00 0. -1.
         25    1    1    2    0    0 -0.14598491124E+03  0.23665109974E+03 -0.37338416062E+03  0.48203326516E+03  0.12500000000E+03 0.  0.
         21    1    1    2  503  501  0.10330255810E+03 -0.13032700526E+03  0.34052332287E+03  0.37896263698E+03  0.00000000000E+00 0. -1.
          2    1    1    2  501    0  0.42682353146E+02 -0.10632409448E+03  0.52705501237E+02  0.12611291051E+03  0.00000000000E+00 0.  1.
<mgrwt>
<rscale>  4 0.29142582E+03</rscale>
<asrwt>0</asrwt>
<pdfrwt beam="1">  1       21 0.74404934E-01 0.29142582E+03</pdfrwt>
<pdfrwt beam="2">  1        2 0.77457960E-01 0.29142582E+03</pdfrwt>
<totfact> 0.12001498E+03</totfact>
</mgrwt>
</event>
<event>
 5    0  0.2947253E-001  0.2387894E+03  0.7546771E-02  0.1120602E+00
         21   -1    0    0  501  502  0.00000000000E+00  0.00000000000E+00  0.11554669147E+04  0.11554669147E+04  0.00000000000E+00 0.  1.
         -3   -1    0    0    0  501 -0.00000000000E+00 -0.00000000000E+00 -0.21492315207E+03  0.21492315207E+03  0.00000000000E+00 0. -1.
         25    1    1    2    0    0  0.19995502984E+03  0.37594832579E+02  0.10830007833E+04  0.11090135626E+04  0.12500000000E+03 0.  0.
         21    1    1    2  501  501 -0.11332291584E+03 -0.37036610574E+02 -0.36861479803E+02  0.12479007360E+03  0.00000000000E+00 0. -1.
         -3    1    1    2    0  502 -0.86632114004E+02 -0.55822200509E+00 -0.10559554081E+03  0.13658643062E+03  0.00000000000E+00 0. -1.
<mgrwt>
<rscale>  4 0.23878942E+03</rscale>
<asrwt>0</asrwt>
<pdfrwt beam="1">  1       21 0.17776414E+00 0.23878942E+03</pdfrwt>
<pdfrwt beam="2">  1       -3 0.33065101E-01 0.23878942E+03</pdfrwt>
<totfact> 0.81220884E+01</totfact>
</mgrwt>
</event>
<event>
 5    0  0.2947253E-001  0.2567815E+03  0.7546771E-02  0.1109093E+00
         21   -1    0    0  503  502  0.00000000000E+00  0.00000000000E+00  0.26171977762E+02  0.26171977762E+02  0.00000000000E+00 0. -1.
          1   -1    0    0  502    0 -0.00000000000E+00 -0.00000000000E+00 -0.25391893076E+04  0.25391893076E+04  0.00000000000E+00 0. -1.
         25    1    1    2    0    0  0.17887030954E+03  0.13534082886E+03 -0.93309532088E+03  0.96778282968E+03  0.12500000000E+03 0.  0.
         21    1    1    2  503  501 -0.58187014639E+02 -0.14625631010E+02 -0.59052258027E+03  0.59356259616E+03  0.00000000000E+00 0.  1.
          1    1    1    2  501    0 -0.12068329490E+03 -0.12071519785E+03 -0.98939942867E+03  0.10040158595E+04  0.00000000000E+00 0. -1.
<mgrwt>
<rscale>  4 0.25678148E+03</rscale>
<asrwt>0</asrwt>
<pdfrwt beam="1">  1       21 0.40264568E-02 0.25678148E+03</pdfrwt>
<pdfrwt beam="2">  1        1 0.39064464E+00 0.25678148E+03</pdfrwt>
<totfact> 0.65026645E+03</totfact>
</mgrwt>
</event>
<event>
 5    0  0.2947253E-001  0.3030140E+03  0.7546771E-02  0.1083744E+00
         21   -1    0    0  501  502  0.00000000000E+00  0.00000000000E+00  0.47151877881E+03  0.47151877881E+03  0.00000000000E+00 0.  1.
         -1   -1    0    0    0  501 -0.00000000000E+00 -0.00000000000E+00 -0.82547211488E+03  0.82547211488E+03  0.00000000000E+00 0.  1.
         25    1    1    2    0    0  0.18789617561E+03  0.20220667546E+03  0.39350600863E+03  0.49665329077E+03  0.12500000000E+03 0.  0.
         21    1    1    2  501  501 -0.21401117883E+01 -0.22737523309E+02 -0.11359640750E+03  0.11586940425E+03  0.00000000000E+00 0.  1.
         -1    1    1    2    0  502 -0.18575606382E+03 -0.17946915215E+03 -0.63386293720E+03  0.68446819866E+03  0.00000000000E+00 0.  1.
<mgrwt>
<rscale>  4 0.30301405E+03</rscale>
<asrwt>0</asrwt>
<pdfrwt beam="1">  1       21 0.72541351E-01 0.30301405E+03</pdfrwt>
<pdfrwt beam="2">  1       -1 0.12699571E+00 0.30301405E+03</pdfrwt>
<totfact> 0.87490444E+01</totfact>
</mgrwt>
</event>
<event>
 5    0  0.2947253E-001  0.3591603E+03  0.7546771E-02  0.1058917E+00
         21   -1    0    0  503  502  0.00000000000E+00  0.00000000000E+00  0.35555439385E+03  0.35555439385E+03  0.00000000000E+00 0.  1.
          2   -1    0    0  502    0 -0.00000000000E+00 -0.00000000000E+00 -0.39109035189E+03  0.39109035189E+03  0.00000000000E+00 0. -1.
         25    1    1    2    0    0 -0.15758689754E+03  0.29755254467E+03  0.11109333566E+03  0.37594930023E+03  0.12500000000E+03 0.  0.
         21    1    1    2  503  501  0.18491623995E+02 -0.52864710555E+02 -0.68039698086E+01  0.56417300407E+02  0.00000000000E+00 0. -1.
          2    1    1    2  501    0  0.13909527354E+03 -0.24468783411E+03 -0.13982532389E+03  0.31427814510E+03  0.00000000000E+00 0. -1.
<mgrwt>
<rscale>  4 0.35916034E+03</rscale>
<asrwt>0</asrwt>
<pdfrwt beam="1">  1       21 0.54700676E-01 0.35916034E+03</pdfrwt>
<pdfrwt beam="2">  1        2 0.60167746E-01 0.35916034E+03</pdfrwt>
<totfact> 0.30697002E+03</totfact>
</mgrwt>
</event>
<event>
 5    0  0.1039613E+000  0.2707087E+03  0.7546771E-02  0.1100875E+00
          2   -1    0    0  502    0 -0.00000000000E+00  0.00000000000E+00  0.11491744493E+04  0.11491744493E+04  0.00000000000E+00 0.  1.
         21   -1    0    0  503  502  0.00000000000E+00 -0.00000000000E+00 -0.13283060527E+04  0.13283060527E+04  0.00000000000E+00 0. -1.
         25    1    1    2    0    0  0.75431924296E+02  0.22827498287E+03 -0.12926990212E+04  0.13207933988E+04  0.12500000000E+03 0.  0.
         21    1    1    2  503  501 -0.13171851441E+02 -0.20675957332E+02  0.24594047121E+01  0.24638213278E+02  0.00000000000E+00 0.  1.
          2    1    1    2  501    0 -0.62260072855E+02 -0.20759902554E+03  0.11111080131E+04  0.11320488898E+04  0.00000000000E+00 0.  1.
<mgrwt>
<rscale>  4 0.27070868E+03</rscale>
<asrwt>0</asrwt>
<pdfrwt beam="1">  1       21 0.20435478E+00 0.27070868E+03</pdfrwt>
<pdfrwt beam="2">  1        2 0.17679607E+00 0.27070868E+03</pdfrwt>
<totfact> 0.31748586E+01</totfact>
</mgrwt>
</event>
<event>
 5    0  0.2947253E-001  0.2751588E+03  0.7546771E-02  0.1098363E+00
         21   -1    0    0  503  502  0.00000000000E+00  0.00000000000E+00  0.25692867372E+03  0.25692867372E+03  0.00000000000E+00 0.  1.
          2   -1    0    0  502    0 -0.00000000000E+00 -0.00000000000E+00 -0.24471601961E+04  0.24471601961E+04  0.00000000000E+00 0. -1.
         25    1    1    2    0    0  0.13288853618E+02 -0.24476681273E+03  0.17467369176E+03  0.32591913849E+03  0.12500000000E+03 0.  0.
         21    1    1    2  503  501  0.18767149208E+02  0.12544779226E+03 -0.12678627547E+04  0.12741920261E+04  0.00000000000E+00 0.  1.
          2    1    1    2  501    0 -0.32056002825E+02  0.11931902047E+03 -0.10970424594E+04  0.11039777053E+04  0.00000000000E+00 0. -1.
<mgrwt>
<rscale>  4 0.27515884E+03</rscale>
<asrwt>0</asrwt>
<pdfrwt beam="1">  1       21 0.39527487E-01 0.27515884E+03</pdfrwt>
<pdfrwt beam="2">  1        2 0.37648620E+00 0.27515884E+03</pdfrwt>
<totfact> 0.32490587E+02</totfact>
</mgrwt>
</event>
<event>
 5    0  0.2947253E-001  0.2692401E+03  0.7546771E-02  0.1101715E+00
         -4   -1    0    0    0  501 -0.00000000000E+00  0.00000000000E+00  0.13959746975E+03  0.13959746975E+03  0.00000000000E+00 0.  1.
         21   -1    0    0  501  502  0.00000000000E+00 -0.00000000000E+00 -0.11401281523E+04  0.11401281523E+04  0.00000000000E+00 0. -1.
         25    1    1    2    0    0 -0.63630902721E+02 -0.22981805980E+03 -0.97854318140E+03  0.10149073801E+04  0.12500000000E+03 0.  0.
         21    1    1    2  501  501  0.21422264348E+02  0.80704397793E+02 -0.62896229990E+02  0.10453730903E+03  0.00000000000E+00 0.  1.
         -4    1    1    2    0  502  0.42208638373E+02  0.14911366200E+03  0.40908728842E+02  0.16028093288E+03  0.00000000000E+00 0.  1.
<mgrwt>
<rscale>  4 0.26924010E+03</rscale>
<asrwt>0</asrwt>
<pdfrwt beam="1">  1       21 0.17540433E+00 0.26924010E+03</pdfrwt>
<pdfrwt beam="2">  1       -4 0.21476534E-01 0.26924010E+03</pdfrwt>
<totfact> 0.15909391E+02</totfact>
</mgrwt>
</event>
<event>
 5    0  0.2947253E-001  0.2367697E+03  0.7546771E-02  0.1121964E+00
          2   -1    0    0  502    0 -0.00000000000E+00  0.00000000000E+00  0.57740236048E+03  0.57740236048E+03  0.00000000000E+00 0. -1.
         21   -1    0    0  503  502  0.00000000000E+00 -0.00000000000E+00 -0.11703875698E+03  0.11703875698E+03  0.00000000000E+00 0. -1.
         25    1    1    2    0    0  0.35540747096E+02  0.21605169359E+03  0.22534674241E+03  0.33815326898E+03  0.12500000000E+03 0.  0.
         21    1    1    2  503  501  0.18173354786E+02 -0.19185063296E+03  0.11988178342E+03  0.22695501357E+03  0.00000000000E+00 0. -1.
          2    1    1    2  501    0 -0.53714101882E+02 -0.24201060630E+02  0.11513507767E+03  0.12933283492E+03  0.00000000000E+00 0. -1.
<mgrwt>
<rscale>  4 0.23676967E+03</rscale>
<asrwt>0</asrwt>
<pdfrwt beam="1">  1       21 0.18005963E-01 0.23676967E+03</pdfrwt>
<pdfrwt beam="2">  1        2 0.88831131E-01 0.23676967E+03</pdfrwt>
<totfact> 0.18454997E+04</totfact>
</mgrwt>
</event>
<event>
 5    0  0.2947253E-001  0.3239105E+03  0.7546771E-02  0.1073864E+00
         -3   -1    0    0    0  501 -0.00000000000E+00  0.00000000000E+00  0.92167071044E+03  0.92167071044E+03  0.00000000000E+00 0. -1.
         21   -1    0    0  501  502  0.00000000000E+00 -0.00000000000E+00 -0.24715316962E+03  0.24715316962E+03  0.00000000000E+00 0.  1.
         25    1    1    2    0    0  0.23884946412E+02 -0.31289378469E+03 -0.62727637791E+02  0.34355897267E+03  0.12500000000E+03 0.  0.
         21    1    1    2  501  501 -0.39231336378E+02  0.55906914655E+02  0.37313661927E+03  0.37933575827E+03  0.00000000000E+00 0.  1.
         -3    1    1    2    0  502  0.15346389965E+02  0.25698687003E+03  0.36410855934E+03  0.44592914912E+03  0.00000000000E+00 0. -1.
<mgrwt>
<rscale>  4 0.32391049E+03</rscale>
<asrwt>0</asrwt>
<pdfrwt beam="1">  1       21 0.38023565E-01 0.32391049E+03</pdfrwt>
<pdfrwt beam="2">  1       -3 0.14179549E+00 0.32391049E+03</pdfrwt>
<totfact> 0.12554679E+02</totfact>
</mgrwt>
</event>
<event>
 5    0  0.2947253E-001  0.4128697E+03  0.7546771E-02  0.1040204E+00
          2   -1    0    0  502    0 -0.00000000000E+00  0.00000000000E+00  0.16640904577E+04  0.16640904577E+04  0.00000000000E+00 0. -1.
         21   -1    0    0  503  502  0.00000000000E+00 -0.00000000000E+00 -0.14143267939E+03  0.14143267939E+03  0.00000000000E+00 0. -1.
         25    1    1    2    0    0  0.25001258159E+03 -0.29095306964E+03  0.26720656464E+03  0.48392595288E+03  0.12500000000E+03 0.  0.
         21    1    1    2  503  501 -0.88685943446E+02  0.20673580098E+03  0.58114373293E+03  0.62316364327E+03  0.00000000000E+00 0. -1.
          2    1    1    2  501    0 -0.16132663814E+03  0.84217268666E+02  0.67430748075E+03  0.69843354094E+03  0.00000000000E+00 0. -1.
<mgrwt>
<rscale>  4 0.41049846E+03</rscale>
<asrwt>0</asrwt>
<pdfrwt beam="1">  1       21 0.21758875E-01 0.41286967E+03</pdfrwt>
<pdfrwt beam="2">  1        2 0.25601390E+00 0.41286967E+03</pdfrwt>
<totfact> 0.26138740E+03</totfact>
</mgrwt>
</event>
<event>
 5    0  0.2947253E-001  0.2177326E+03  0.7546771E-02  0.1135585E+00
         21   -1    0    0  503  502  0.00000000000E+00  0.00000000000E+00  0.10907646278E+04  0.10907646278E+04  0.00000000000E+00 0. -1.
          1   -1    0    0  502    0 -0.00000000000E+00 -0.00000000000E+00 -0.60639045526E+02  0.60639045526E+02  0.00000000000E+00 0. -1.
         25    1    1    2    0    0 -0.12111110179E+03 -0.17414724695E+03  0.33342501009E+03  0.41447846741E+03  0.12500000000E+03 0.  0.
         21    1    1    2  503  501  0.11707467863E+02  0.72041659368E+02  0.37612144107E+03  0.38313757832E+03  0.00000000000E+00 0.  1.
          1    1    1    2  501    0  0.10940363393E+03  0.10210558758E+03  0.32057913111E+03  0.35378762759E+03  0.00000000000E+00 0. -1.
<mgrwt>
<rscale>  4 0.21773255E+03</rscale>
<asrwt>0</asrwt>
<pdfrwt beam="1">  1       21 0.16780993E+00 0.21773255E+03</pdfrwt>
<pdfrwt beam="2">  1        1 0.93290847E-02 0.21773255E+03</pdfrwt>
<totfact> 0.16353204E+03</totfact>
</mgrwt>
</event>
<event>
 5    0  0.2947253E-001  0.2367318E+03  0.7546771E-02  0.1121989E+00
         21   -1    0    0  503  502  0.00000000000E+00  0.00000000000E+00  0.66875140124E+02  0.66875140124E+02  0.00000000000E+00 0.  1.
          1   -1    0    0  502    0 -0.00000000000E+00 -0.00000000000E+00 -0.30082303741E+04  0.30082303741E+04  0.00000000000E+00 0. -1.
         25    1    1    2    0    0  0.73498421966E+02 -0.19755804691E+03 -0.18184151681E+03  0.30515985510E+03  0.12500000000E+03 0.  0.
         21    1    1    2  503  501 -0.15901547365E+02  0.57396398343E+02 -0.15255739997E+04  0.15267361378E+04  0.00000000000E+00 0. -1.
          1    1    1    2  501    0 -0.57596874601E+02  0.14016164857E+03 -0.12339397175E+04  0.12432095214E+04  0.00000000000E+00 0. -1.
<mgrwt>
<rscale>  4 0.23673179E+03</rscale>
<asrwt>0</asrwt>
<pdfrwt beam="1">  1       21 0.10288486E-01 0.23673179E+03</pdfrwt>
<pdfrwt beam="2">  1        1 0.46280456E+00 0.23673179E+03</pdfrwt>
<totfact> 0.62101690E+02</totfact>
</mgrwt>
</event>
<event>
 5    0  0.2947253E-001  0.2697722E+03  0.7546771E-02  0.1101410E+00
         21   -1    0    0  501  502  0.00000000000E+00  0.00000000000E+00  0.35027965587E+03  0.35027965587E+03  0.00000000000E+00 0.  1.
         -2   -1    0    0    0  501 -0.00000000000E+00 -0.00000000000E+00 -0.40826507104E+03  0.40826507104E+03  0.00000000000E+00 0. -1.
         25    1    1    2    0    0  0.28220148571E+00  0.24254785560E+03  0.22802439189E+03  0.35559761696E+03  0.12500000000E+03 0.  0.
         21    1    1    2  501  501  0.41715172757E+02 -0.21304194299E+02 -0.12153754546E+02  0.48391508371E+02  0.00000000000E+00 0. -1.
         -2    1    1    2    0  502 -0.41997374243E+02 -0.22124366130E+03 -0.27385605252E+03  0.35455560158E+03  0.00000000000E+00 0. -1.
<mgrwt>
<rscale>  4 0.26977217E+03</rscale>
<asrwt>0</asrwt>
<pdfrwt beam="1">  1       21 0.53889179E-01 0.26977217E+03</pdfrwt>
<pdfrwt beam="2">  1       -2 0.62810010E-01 0.26977217E+03</pdfrwt>
<totfact> 0.62015490E+02</totfact>
</mgrwt>
</event>
<event>
 5    0  0.2947253E-001  0.2840893E+03  0.7546771E-02  0.1093476E+00
         21   -1    0    0  503  502  0.00000000000E+00  0.00000000000E+00  0.16375770350E+03  0.16375770350E+03  0.00000000000E+00 0. -1.
          4   -1    0    0  502    0 -0.00000000000E+00 -0.00000000000E+00 -0.19066386394E+04  0.19066386394E+04  0.00000000000E+00 0.  1.
         25    1    1    2    0    0  0.78807965060E+02  0.28139026811E+03 -0.24821499320E+02  0.31879818879E+03  0.12500000000E+03 0.  0.
         21    1    1    2  503  501 -0.62835918398E+01 -0.14423617048E+03 -0.12541512561E+04  0.12624337328E+04  0.00000000000E+00 0.  1.
          4    1    1    2  501    0 -0.72524373220E+02 -0.13715409764E+03 -0.46390818043E+03  0.48916442131E+03  0.00000000000E+00 0.  1.
<mgrwt>
<rscale>  4 0.28408932E+03</rscale>
<asrwt>0</asrwt>
<pdfrwt beam="1">  1       21 0.25193494E-01 0.28408932E+03</pdfrwt>
<pdfrwt beam="2">  1        4 0.29332901E+00 0.28408932E+03</pdfrwt>
<totfact> 0.24404634E+01</totfact>
</mgrwt>
</event>
<event>
 5    0  0.2947253E-001  0.3069017E+03  0.7546771E-02  0.1081841E+00
         -3   -1    0    0    0  501 -0.00000000000E+00  0.00000000000E+00  0.31665249208E+03  0.31665249208E+03  0.00000000000E+00 0.  1.
         21   -1    0    0  501  502  0.00000000000E+00 -0.00000000000E+00 -0.78839839671E+03  0.78839839671E+03  0.00000000000E+00 0. -1.
         25    1    1    2    0    0  0.20763910727E+03  0.19349089064E+03 -0.66050791270E+03  0.72969063744E+03  0.12500000000E+03 0.  0.
         21    1    1    2  501  501 -0.50895506026E+02  0.17693623227E+02  0.65772705722E+02  0.85026264498E+02  0.00000000000E+00 0.  1.
         -3    1    1    2    0  502 -0.15674360124E+03 -0.21118451387E+03  0.12298930234E+03  0.29033398685E+03  0.00000000000E+00 0.  1.
<mgrwt>
<rscale>  4 0.30690173E+03</rscale>
<asrwt>0</asrwt>
<pdfrwt beam="1">  1       21 0.12129206E+00 0.30690173E+03</pdfrwt>
<pdfrwt beam="2">  1       -3 0.48715769E-01 0.30690173E+03</pdfrwt>
<totfact> 0.10262631E+02</totfact>
</mgrwt>
</event>
<event>
 5    0  0.2947253E-001  0.2443204E+03  0.7546771E-02  0.1116948E+00
          2   -1    0    0  502    0 -0.00000000000E+00  0.00000000000E+00  0.70593430998E+03  0.70593430998E+03  0.00000000000E+00 0. -1.
         21   -1    0    0  503  502  0.00000000000E+00 -0.00000000000E+00 -0.11921522964E+03  0.11921522964E+03  0.00000000000E+00 0. -1.
         25    1    1    2    0    0 -0.10286818465E+03  0.18299064600E+03  0.53135510904E+02  0.25003164291E+03  0.12500000000E+03 0.  0.
         21    1    1    2  503  501  0.13434457109E+02 -0.63053613847E+02  0.14298000656E+03  0.15684235758E+03  0.00000000000E+00 0. -1.
          2    1    1    2  501    0  0.89433727540E+02 -0.11993703215E+03  0.39060356287E+03  0.41827553913E+03  0.00000000000E+00 0. -1.
<mgrwt>
<rscale>  4 0.24432036E+03</rscale>
<asrwt>0</asrwt>
<pdfrwt beam="1">  1       21 0.18340805E-01 0.24432036E+03</pdfrwt>
<pdfrwt beam="2">  1        2 0.10860528E+00 0.24432036E+03</pdfrwt>
<totfact> 0.14040495E+04</totfact>
</mgrwt>
</event>
<event>
 5    0  0.2947253E-001  0.2783149E+03  0.7546771E-02  0.1096613E+00
         21   -1    0    0  503  502  0.00000000000E+00  0.00000000000E+00  0.54075682728E+03  0.54075682728E+03  0.00000000000E+00 0. -1.
          1   -1    0    0  502    0 -0.00000000000E+00 -0.00000000000E+00 -0.32478853005E+03  0.32478853005E+03  0.00000000000E+00 0. -1.
         25    1    1    2    0    0  0.14252661368E+03 -0.20376537755E+03  0.43944442121E+03  0.52016397802E+03  0.12500000000E+03 0.  0.
         21    1    1    2  503  501 -0.40301380001E+02  0.13095790175E+03 -0.10303751279E+03  0.17143775052E+03  0.00000000000E+00 0. -1.
          1    1    1    2  501    0 -0.10222523368E+03  0.72807475798E+02 -0.12043861119E+03  0.17394362879E+03  0.00000000000E+00 0. -1.
<mgrwt>
<rscale>  4 0.27831487E+03</rscale>
<asrwt>0</asrwt>
<pdfrwt beam="1">  1       21 0.83193358E-01 0.27831487E+03</pdfrwt>
<pdfrwt beam="2">  1        1 0.49967466E-01 0.27831487E+03</pdfrwt>
<totfact> 0.10519716E+03</totfact>
</mgrwt>
</event>
<event>
 5    0  0.2947253E-001  0.2464631E+03  0.7546771E-02  0.1115561E+00
         21   -1    0    0  503  502  0.00000000000E+00  0.00000000000E+00  0.78322297506E+02  0.78322297506E+02  0.00000000000E+00 0. -1.
          2   -1    0    0  502    0 -0.00000000000E+00 -0.00000000000E+00 -0.11714766418E+04  0.11714766418E+04  0.00000000000E+00 0.  1.
         25    1    1    2    0    0  0.15138829798E+03  0.14899885568E+03 -0.16785640735E+03  0.29819431458E+03  0.12500000000E+03 0.  0.
         21    1    1    2  503  501 -0.11679626999E+03 -0.12234747080E+03 -0.82581556149E+03  0.84296003102E+03  0.00000000000E+00 0.  1.
          2    1    1    2  501    0 -0.34592027985E+02 -0.26651384883E+02 -0.99482375453E+02  0.10864459371E+03  0.00000000000E+00 0.  1.
<mgrwt>
<rscale>  4 0.24646313E+03</rscale>
<asrwt>0</asrwt>
<pdfrwt beam="1">  1       21 0.12049585E-01 0.24646313E+03</pdfrwt>
<pdfrwt beam="2">  1        2 0.18022717E+00 0.24646313E+03</pdfrwt>
<totfact> 0.15221834E+04</totfact>
</mgrwt>
</event>
<event>
 5    0  0.2947253E-001  0.2994440E+03  0.7546771E-02  0.1085519E+00
          2   -1    0    0  502    0 -0.00000000000E+00  0.00000000000E+00  0.12055194097E+03  0.12055194097E+03  0.00000000000E+00 0. -1.
         21   -1    0    0  503  502  0.00000000000E+00 -0.00000000000E+00 -0.83902471475E+03  0.83902471475E+03  0.00000000000E+00 0.  1.
         25    1    1    2    0    0 -0.26231891974E+03 -0.72322165505E+02 -0.55884597438E+03  0.63401540545E+03  0.12500000000E+03 0.  0.
         21    1    1    2  503  501  0.11319507288E+02  0.24655144781E+02 -0.72323531257E+01  0.28076936107E+02  0.00000000000E+00 0.  1.
          2    1    1    2  501    0  0.25099941245E+03  0.47667020724E+02 -0.15239444627E+03  0.29748431416E+03  0.00000000000E+00 0. -1.
<mgrwt>
<rscale>  4 0.29944400E+03</rscale>
<asrwt>0</asrwt>
<pdfrwt beam="1">  1       21 0.12908073E+00 0.29944400E+03</pdfrwt>
<pdfrwt beam="2">  1        2 0.18546452E-01 0.29944400E+03</pdfrwt>
<totfact> 0.15630128E+03</totfact>
</mgrwt>
</event>
<event>
 5    0  0.2947253E-001  0.2962288E+03  0.7546771E-02  0.1087141E+00
         21   -1    0    0  501  502  0.00000000000E+00  0.00000000000E+00  0.50010856649E+03  0.50010856649E+03  0.00000000000E+00 0.  1.
         -2   -1    0    0    0  501 -0.00000000000E+00 -0.00000000000E+00 -0.48830507534E+03  0.48830507534E+03  0.00000000000E+00 0.  1.
         25    1    1    2    0    0  0.68603062127E+02 -0.25965383409E+03  0.40985210984E+03  0.50569778093E+03  0.12500000000E+03 0.  0.
         21    1    1    2  501  501  0.74072474905E+01  0.30078057323E+02 -0.52321007006E+02  0.60803327391E+02  0.00000000000E+00 0. -1.
         -2    1    1    2    0  502 -0.76010309617E+02  0.22957577677E+03 -0.34572761169E+03  0.42191253351E+03  0.00000000000E+00 0.  1.
<mgrwt>
<rscale>  4 0.29622879E+03</rscale>
<asrwt>0</asrwt>
<pdfrwt beam="1">  1       21 0.76939779E-01 0.29622879E+03</pdfrwt>
<pdfrwt beam="2">  1       -2 0.75123858E-01 0.29622879E+03</pdfrwt>
<totfact> 0.19169742E+02</totfact>
</mgrwt>
</event>
<event>
 5    0  0.2947253E-001  0.2497779E+03  0.7546771E-02  0.1113445E+00
         21   -1    0    0  503  502  0.00000000000E+00  0.00000000000E+00  0.88651336028E+02  0.88651336028E+02  0.00000000000E+00 0.  1.
          2   -1    0    0  502    0 -0.00000000000E+00 -0.00000000000E+00 -0.65923297186E+03  0.65923297186E+03  0.00000000000E+00 0.  1.
         25    1    1    2    0    0  0.21604160689E+03  0.94879395303E+01 -0.21412602933E+03  0.32899688956E+03  0.12500000000E+03 0.  0.
         21    1    1    2  503  501 -0.33111302744E+02 -0.13114455106E+02 -0.41912409135E+02  0.54999975833E+02  0.00000000000E+00 0. -1.
          2    1    1    2  501    0 -0.18293030415E+03  0.36265155761E+01 -0.31454319737E+03  0.36388744249E+03  0.00000000000E+00 0.  1.
<mgrwt>
<rscale>  4 0.24977790E+03</rscale>
<asrwt>0</asrwt>
<pdfrwt beam="1">  1       21 0.13638667E-01 0.24977790E+03</pdfrwt>
<pdfrwt beam="2">  1        2 0.10142046E+00 0.24977790E+03</pdfrwt>
<totfact> 0.26272434E+04</totfact>
</mgrwt>
</event>
<event>
 5    0  0.2947253E-001  0.4758343E+03  0.7546771E-02  0.1020286E+00
          2   -1    0    0  502    0 -0.00000000000E+00  0.00000000000E+00  0.25276743666E+04  0.25276743666E+04  0.00000000000E+00 0. -1.
         21   -1    0    0  503  502  0.00000000000E+00 -0.00000000000E+00 -0.21293360057E+03  0.21293360057E+03  0.00000000000E+00 0. -1.
         25    1    1    2    0    0 -0.42298247117E+03  0.17854719533E+03  0.11163064953E+03  0.48875318290E+03  0.12500000000E+03 0.  0.
         21    1    1    2  503  501  0.15755365388E+02 -0.21197589192E+02  0.77548674795E+02  0.81922928955E+02  0.00000000000E+00 0. -1.
          2    1    1    2  501    0  0.40722710578E+03 -0.15734960614E+03  0.21255614417E+04  0.21699318553E+04  0.00000000000E+00 0. -1.
<mgrwt>
<rscale>  4 0.47583429E+03</rscale>
<asrwt>0</asrwt>
<pdfrwt beam="1">  1       21 0.32759017E-01 0.47583429E+03</pdfrwt>
<pdfrwt beam="2">  1        2 0.38887296E+00 0.47583429E+03</pdfrwt>
<totfact> 0.39158238E+02</totfact>
</mgrwt>
</event>
<event>
 5    0  0.2947253E-001  0.5524900E+03  0.7546771E-02  0.1000919E+00
         21   -1    0    0  503  502  0.00000000000E+00  0.00000000000E+00  0.31192918019E+03  0.31192918019E+03  0.00000000000E+00 0. -1.
          1   -1    0    0  502    0 -0.00000000000E+00 -0.00000000000E+00 -0.15568869678E+04  0.15568869678E+04  0.00000000000E+00 0.  1.
         25    1    1    2    0    0  0.49425583733E+03 -0.21593340631E+03 -0.63618387657E+02  0.55730455583E+03  0.12500000000E+03 0.  0.
         21    1    1    2  503  501 -0.18092920127E+02 -0.26866290289E+02 -0.10304770539E+03  0.10801842852E+03  0.00000000000E+00 0. -1.
          1    1    1    2  501    0 -0.47616291721E+03  0.24279969660E+03 -0.10782916945E+04  0.12034931636E+04  0.00000000000E+00 0.  1.
<mgrwt>
<rscale>  4 0.55249000E+03</rscale>
<asrwt>0</asrwt>
<pdfrwt beam="1">  1       21 0.47989105E-01 0.55249000E+03</pdfrwt>
<pdfrwt beam="2">  1        1 0.23952107E+00 0.55249000E+03</pdfrwt>
<totfact> 0.26458933E+02</totfact>
</mgrwt>
</event>
<event>
 5    0  0.2947253E-001  0.2358330E+03  0.7546771E-02  0.1122600E+00
         21   -1    0    0  503  502  0.00000000000E+00  0.00000000000E+00  0.59541184236E+03  0.59541184236E+03  0.00000000000E+00 0. -1.
          2   -1    0    0  502    0 -0.00000000000E+00 -0.00000000000E+00 -0.50775262866E+03  0.50775262866E+03  0.00000000000E+00 0. -1.
         25    1    1    2    0    0 -0.16869603445E+03 -0.13240449216E+03  0.50654799939E+03  0.56409678006E+03  0.12500000000E+03 0.  0.
         21    1    1    2  503  501  0.12999716808E+03  0.76632080384E+02 -0.42734927036E+02  0.15683753837E+03  0.00000000000E+00 0. -1.
          2    1    1    2  501    0  0.38698866371E+02  0.55772411780E+02 -0.37615385865E+03  0.38223015260E+03  0.00000000000E+00 0. -1.
<mgrwt>
<rscale>  4 0.23583300E+03</rscale>
<asrwt>0</asrwt>
<pdfrwt beam="1">  1       21 0.91601822E-01 0.23583300E+03</pdfrwt>
<pdfrwt beam="2">  1        2 0.78115789E-01 0.23583300E+03</pdfrwt>
<totfact> 0.75490535E+02</totfact>
</mgrwt>
</event>
<event>
 5    0  0.2947253E-001  0.2651631E+03  0.7546771E-02  0.1104080E+00
          2   -1    0    0  502    0 -0.00000000000E+00  0.00000000000E+00  0.11080180508E+03  0.11080180508E+03  0.00000000000E+00 0.  1.
         21   -1    0    0  503  502  0.00000000000E+00 -0.00000000000E+00 -0.62563126969E+03  0.62563126969E+03  0.00000000000E+00 0.  1.
         25    1    1    2    0    0 -0.22244161400E+03 -0.72154027670E+02 -0.34995497647E+03  0.43906714851E+03  0.12500000000E+03 0.  0.
         21    1    1    2  503  501  0.24505131334E+02  0.22626234623E+02  0.25191182090E+01  0.33448376814E+02  0.00000000000E+00 0.  1.
          2    1    1    2  501    0  0.19793648267E+03  0.49527793047E+02 -0.16739360636E+03  0.26391754945E+03  0.00000000000E+00 0.  1.
<mgrwt>
<rscale>  4 0.26516311E+03</rscale>
<asrwt>0</asrwt>
<pdfrwt beam="1">  1       21 0.96250967E-01 0.26516311E+03</pdfrwt>
<pdfrwt beam="2">  1        2 0.17046431E-01 0.26516311E+03</pdfrwt>
<totfact> 0.35876931E+03</totfact>
</mgrwt>
</event>
<event>
 5    0  0.2947253E-001  0.3147490E+03  0.7546771E-02  0.1078092E+00
         21   -1    0    0  503  502  0.00000000000E+00  0.00000000000E+00  0.67637516927E+02  0.67637516927E+02  0.00000000000E+00 0.  1.
          2   -1    0    0  502    0 -0.00000000000E+00 -0.00000000000E+00 -0.17203657484E+04  0.17203657484E+04  0.00000000000E+00 0. -1.
         25    1    1    2    0    0 -0.28054284340E+03 -0.68830533217E+02 -0.44316040922E+03  0.54356055558E+03  0.12500000000E+03 0.  0.
         21    1    1    2  503  501  0.27678104089E+02 -0.65466727755E+01 -0.13359394616E+03  0.13658798930E+03  0.00000000000E+00 0.  1.
          2    1    1    2  501    0  0.25286473932E+03  0.75377205992E+02 -0.10759738761E+04  0.11078547205E+04  0.00000000000E+00 0. -1.
<mgrwt>
<rscale>  4 0.31474899E+03</rscale>
<asrwt>0</asrwt>
<pdfrwt beam="1">  1       21 0.10405772E-01 0.31474899E+03</pdfrwt>
<pdfrwt beam="2">  1        2 0.26467165E+00 0.31474899E+03</pdfrwt>
<totfact> 0.97864405E+03</totfact>
</mgrwt>
</event>
<event>
 5    0  0.2947253E-001  0.2600643E+03  0.7546771E-02  0.1107105E+00
         21   -1    0    0  501  502  0.00000000000E+00  0.00000000000E+00  0.68585944315E+03  0.68585944315E+03  0.00000000000E+00 0.  1.
         -3   -1    0    0    0  501 -0.00000000000E+00 -0.00000000000E+00 -0.34056303775E+03  0.34056303775E+03  0.00000000000E+00 0.  1.
         25    1    1    2    0    0 -0.57830980383E+02 -0.22160649786E+03  0.61092681597E+03  0.66431200249E+03  0.12500000000E+03 0.  0.
         21    1    1    2  501  501 -0.17890978188E+02  0.16872905056E+02 -0.11644846387E+02  0.27210006853E+02  0.00000000000E+00 0.  1.
         -3    1    1    2    0  502  0.75721958571E+02  0.20473359280E+03 -0.25398556419E+03  0.33490047156E+03  0.00000000000E+00 0.  1.
<mgrwt>
<rscale>  4 0.26006432E+03</rscale>
<asrwt>0</asrwt>
<pdfrwt beam="1">  1       21 0.10551684E+00 0.26006432E+03</pdfrwt>
<pdfrwt beam="2">  1       -3 0.52394314E-01 0.26006432E+03</pdfrwt>
<totfact> 0.12656828E+02</totfact>
</mgrwt>
</event>
<event>
 5    0  0.2947253E-001  0.3180119E+03  0.7546771E-02  0.1076568E+00
          1   -1    0    0  502    0 -0.00000000000E+00  0.00000000000E+00  0.15623352225E+04  0.15623352225E+04  0.00000000000E+00 0. -1.
         21   -1    0    0  503  502  0.00000000000E+00 -0.00000000000E+00 -0.62203232126E+02  0.62203232126E+02  0.00000000000E+00 0. -1.
         25    1    1    2    0    0 -0.28878541754E+03 -0.45930133801E+02  0.83003884213E+03  0.88887348594E+03  0.12500000000E+03 0.  0.
         21    1    1    2  503  501  0.27144318550E+03  0.20986082116E+02  0.61891164900E+03  0.67614602555E+03  0.00000000000E+00 0. -1.
          1    1    1    2  501    0  0.17342232039E+02  0.24944051685E+02  0.51181499269E+02  0.59518943153E+02  0.00000000000E+00 0. -1.
<mgrwt>
<rscale>  4 0.31801194E+03</rscale>
<asrwt>0</asrwt>
<pdfrwt beam="1">  1       21 0.95697292E-02 0.31801194E+03</pdfrwt>
<pdfrwt beam="2">  1        1 0.24035923E+00 0.31801194E+03</pdfrwt>
<totfact> 0.62306179E+03</totfact>
</mgrwt>
</event>
<event>
 5    0  0.2947253E-001  0.3965940E+03  0.7546771E-02  0.1044965E+00
         -1   -1    0    0    0  501 -0.00000000000E+00  0.00000000000E+00  0.69455838490E+03  0.69455838490E+03  0.00000000000E+00 0. -1.
         21   -1    0    0  501  502  0.00000000000E+00 -0.00000000000E+00 -0.45312671767E+03  0.45312671767E+03  0.00000000000E+00 0. -1.
         25    1    1    2    0    0  0.34325918333E+03 -0.15438578094E+03 -0.28696664337E+03  0.48952700713E+03  0.12500000000E+03 0.  0.
         21    1    1    2  501  501 -0.82654577211E+02  0.35152503800E+02  0.56681095233E+02  0.10620839992E+03  0.00000000000E+00 0. -1.
         -1    1    1    2    0  502 -0.26060460612E+03  0.11923327714E+03  0.47171721537E+03  0.55194969552E+03  0.00000000000E+00 0. -1.
<mgrwt>
<rscale>  4 0.39659404E+03</rscale>
<asrwt>0</asrwt>
<pdfrwt beam="1">  1       21 0.69711803E-01 0.39659404E+03</pdfrwt>
<pdfrwt beam="2">  1       -1 0.10685514E+00 0.39659404E+03</pdfrwt>
<totfact> 0.13913975E+02</totfact>
</mgrwt>
</event>
<event>
 5    0  0.2947253E-001  0.2500975E+03  0.7546771E-02  0.1113243E+00
         21   -1    0    0  501  502  0.00000000000E+00  0.00000000000E+00  0.64800692567E+02  0.64800692567E+02  0.00000000000E+00 0. -1.
         -2   -1    0    0    0  501 -0.00000000000E+00 -0.00000000000E+00 -0.86382738120E+03  0.86382738120E+03  0.00000000000E+00 0. -1.
         25    1    1    2    0    0  0.18590425349E+03  0.11119074868E+03 -0.46288003610E+03  0.52612422666E+03  0.12500000000E+03 0.  0.
         21    1    1    2  501  501 -0.34646578508E+02 -0.17593330995E+02 -0.32789021154E+02  0.50843196262E+02  0.00000000000E+00 0.  1.
         -2    1    1    2    0  502 -0.15125767498E+03 -0.93597417683E+02 -0.30335763138E+03  0.35166065085E+03  0.00000000000E+00 0. -1.
<mgrwt>
<rscale>  4 0.25009753E+03</rscale>
<asrwt>0</asrwt>
<pdfrwt beam="1">  1       21 0.99693373E-02 0.25009753E+03</pdfrwt>
<pdfrwt beam="2">  1       -2 0.13289652E+00 0.25009753E+03</pdfrwt>
<totfact> 0.28801104E+03</totfact>
</mgrwt>
</event>
<event>
 5    0  0.2947253E-001  0.2449370E+03  0.7546771E-02  0.1116547E+00
         21   -1    0    0  503  502  0.00000000000E+00  0.00000000000E+00  0.41239116375E+03  0.41239116375E+03  0.00000000000E+00 0.  1.
          1   -1    0    0  502    0 -0.00000000000E+00 -0.00000000000E+00 -0.82031220561E+03  0.82031220561E+03  0.00000000000E+00 0. -1.
         25    1    1    2    0    0  0.16093258991E+03 -0.13801338823E+03  0.35445773376E+03  0.43152320777E+03  0.12500000000E+03 0.  0.
         21    1    1    2  503  501 -0.32060069501E+01  0.38415558662E+02 -0.41861982886E+02  0.56907462068E+02  0.00000000000E+00 0. -1.
          1    1    1    2  501    0 -0.15772658296E+03  0.99597829565E+02 -0.72051679274E+03  0.74427269951E+03  0.00000000000E+00 0. -1.
<mgrwt>
<rscale>  4 0.24493699E+03</rscale>
<asrwt>0</asrwt>
<pdfrwt beam="1">  1       21 0.63444796E-01 0.24493699E+03</pdfrwt>
<pdfrwt beam="2">  1        1 0.12620188E+00 0.24493699E+03</pdfrwt>
<totfact> 0.55234439E+02</totfact>
</mgrwt>
</event>
<event>
 5    0  0.2947253E-001  0.2458814E+03  0.7546771E-02  0.1115936E+00
          4   -1    0    0  502    0 -0.00000000000E+00  0.00000000000E+00  0.28927834188E+03  0.28927834188E+03  0.00000000000E+00 0. -1.
         21   -1    0    0  503  502  0.00000000000E+00 -0.00000000000E+00 -0.23171752507E+03  0.23171752507E+03  0.00000000000E+00 0. -1.
         25    1    1    2    0    0  0.20905797994E+03  0.33577313577E+02 -0.89174978541E+02  0.26155277051E+03  0.12500000000E+03 0.  0.
         21    1    1    2  503  501 -0.21019066345E+02 -0.13201182197E+02  0.16833898127E+02  0.29990873404E+02  0.00000000000E+00 0. -1.
          4    1    1    2  501    0 -0.18803891359E+03 -0.20376131380E+02  0.12990189723E+03  0.22945222304E+03  0.00000000000E+00 0. -1.
<mgrwt>
<rscale>  4 0.24588142E+03</rscale>
<asrwt>0</asrwt>
<pdfrwt beam="1">  1       21 0.35648850E-01 0.24588142E+03</pdfrwt>
<pdfrwt beam="2">  1        4 0.44504360E-01 0.24588142E+03</pdfrwt>
<totfact> 0.15714732E+03</totfact>
</mgrwt>
</event>
<event>
 5    0  0.2947253E-001  0.3682376E+03  0.7546771E-02  0.1055369E+00
          1   -1    0    0  502    0 -0.00000000000E+00  0.00000000000E+00  0.86325669099E+03  0.86325669099E+03  0.00000000000E+00 0.  1.
         21   -1    0    0  503  502  0.00000000000E+00 -0.00000000000E+00 -0.32544055551E+03  0.32544055551E+03  0.00000000000E+00 0.  1.
         25    1    1    2    0    0  0.67425393201E+02 -0.33974657566E+03 -0.16221774586E+03  0.40238478648E+03  0.12500000000E+03 0.  0.
         21    1    1    2  503  501 -0.11513026660E+02  0.12046958998E+03  0.15865320081E+03  0.19954024662E+03  0.00000000000E+00 0.  1.
          1    1    1    2  501    0 -0.55912366541E+02  0.21927698568E+03  0.54138068053E+03  0.58677221341E+03  0.00000000000E+00 0.  1.
<mgrwt>
<rscale>  4 0.36823759E+03</rscale>
<asrwt>0</asrwt>
<pdfrwt beam="1">  1       21 0.50067778E-01 0.36823759E+03</pdfrwt>
<pdfrwt beam="2">  1        1 0.13280872E+00 0.36823759E+03</pdfrwt>
<totfact> 0.80713231E+02</totfact>
</mgrwt>
</event>
<event>
 5    0  0.2947253E-001  0.3727948E+03  0.7546771E-02  0.1053629E+00
         21   -1    0    0  503  502  0.00000000000E+00  0.00000000000E+00  0.63458152913E+03  0.63458152913E+03  0.00000000000E+00 0. -1.
          2   -1    0    0  502    0 -0.00000000000E+00 -0.00000000000E+00 -0.27087268817E+03  0.27087268817E+03  0.00000000000E+00 0. -1.
         25    1    1    2    0    0 -0.33815150015E+03 -0.94892090678E+02  0.40032594924E+03  0.54702542131E+03  0.12500000000E+03 0.  0.
         21    1    1    2  503  501  0.30419727419E+03  0.76864940198E+02 -0.14534329101E+02  0.31409464716E+03  0.00000000000E+00 0. -1.
          2    1    1    2  501    0  0.33954225962E+02  0.18027150480E+02 -0.22082779178E+02  0.44334148816E+02  0.00000000000E+00 0. -1.
<mgrwt>
<rscale>  4 0.37279478E+03</rscale>
<asrwt>0</asrwt>
<pdfrwt beam="1">  1       21 0.97627927E-01 0.37279478E+03</pdfrwt>
<pdfrwt beam="2">  1        2 0.41672722E-01 0.37279478E+03</pdfrwt>
<totfact> 0.12324916E+03</totfact>
</mgrwt>
</event>
<event>
 5    0  0.2947253E-001  0.2797993E+03  0.7546771E-02  0.1095799E+00
         21   -1    0    0  503  502  0.00000000000E+00  0.00000000000E+00  0.76274911199E+03  0.76274911199E+03  0.00000000000E+00 0. -1.
          2   -1    0    0  502    0 -0.00000000000E+00 -0.00000000000E+00 -0.26554567721E+04  0.26554567721E+04  0.00000000000E+00 0. -1.
         25    1    1    2    0    0 -0.21495398778E+03 -0.12828656236E+03  0.73040245455E+03  0.78216072808E+03  0.12500000000E+03 0.  0.
         21    1    1    2  503  501  0.16377847030E+03  0.13067011463E+03 -0.20828649077E+04  0.20933762896E+04  0.00000000000E+00 0. -1.
          2    1    1    2  501    0  0.51175517471E+02 -0.23835522773E+01 -0.54024520692E+03  0.54266886636E+03  0.00000000000E+00 0. -1.
<mgrwt>
<rscale>  4 0.27979932E+03</rscale>
<asrwt>0</asrwt>
<pdfrwt beam="1">  1       21 0.11734602E+00 0.27979932E+03</pdfrwt>
<pdfrwt beam="2">  1        2 0.40853180E+00 0.27979932E+03</pdfrwt>
<totfact> 0.21946349E+01</totfact>
</mgrwt>
</event>
<event>
 5    0  0.2947253E-001  0.2526779E+03  0.7546771E-02  0.1111624E+00
         21   -1    0    0  501  502  0.00000000000E+00  0.00000000000E+00  0.16431790119E+04  0.16431790119E+04  0.00000000000E+00 0.  1.
         -4   -1    0    0    0  501 -0.00000000000E+00 -0.00000000000E+00 -0.90353506211E+02  0.90353506211E+02  0.00000000000E+00 0. -1.
         25    1    1    2    0    0  0.16069544978E+03 -0.16888840247E+03  0.14032329422E+04  0.14279474816E+04  0.12500000000E+03 0.  0.
         21    1    1    2  501  501  0.20561429894E+00  0.21565620409E+02  0.70185456613E+02  0.73424223393E+02  0.00000000000E+00 0. -1.
         -4    1    1    2    0  502 -0.16090106408E+03  0.14732278206E+03  0.79407106880E+02  0.23216081315E+03  0.00000000000E+00 0. -1.
<mgrwt>
<rscale>  4 0.25267789E+03</rscale>
<asrwt>0</asrwt>
<pdfrwt beam="1">  1       21 0.25279675E+00 0.25267789E+03</pdfrwt>
<pdfrwt beam="2">  1       -4 0.13900541E-01 0.25267789E+03</pdfrwt>
<totfact> 0.11243484E+02</totfact>
</mgrwt>
</event>
<event>
 5    0  0.2947253E-001  0.2754826E+03  0.7546771E-02  0.1098182E+00
         21   -1    0    0  503  502  0.00000000000E+00  0.00000000000E+00  0.11409586612E+03  0.11409586612E+03  0.00000000000E+00 0.  1.
          2   -1    0    0  502    0 -0.00000000000E+00 -0.00000000000E+00 -0.96626243075E+03  0.96626243075E+03  0.00000000000E+00 0. -1.
         25    1    1    2    0    0 -0.13137865574E+03 -0.20737718761E+03 -0.10957364615E+03  0.29647433794E+03  0.12500000000E+03 0.  0.
         21    1    1    2  503  501  0.11843448281E+02  0.51664087938E+02 -0.19876691967E+03  0.20571274536E+03  0.00000000000E+00 0. -1.
          2    1    1    2  501    0  0.11953520746E+03  0.15571309967E+03 -0.54382599881E+03  0.57817121358E+03  0.00000000000E+00 0. -1.
<mgrwt>
<rscale>  4 0.27548257E+03</rscale>
<asrwt>0</asrwt>
<pdfrwt beam="1">  1       21 0.17553210E-01 0.27548257E+03</pdfrwt>
<pdfrwt beam="2">  1        2 0.14865576E+00 0.27548257E+03</pdfrwt>
<totfact> 0.10072810E+04</totfact>
</mgrwt>
</event>
<event>
 5    0  0.2947253E-001  0.2401277E+03  0.7546771E-02  0.1119708E+00
          2   -1    0    0  502    0 -0.00000000000E+00  0.00000000000E+00  0.29294750375E+03  0.29294750375E+03  0.00000000000E+00 0. -1.
         21   -1    0    0  503  502  0.00000000000E+00 -0.00000000000E+00 -0.19627063552E+03  0.19627063552E+03  0.00000000000E+00 0. -1.
         25    1    1    2    0    0 -0.87125038315E+02  0.18559512055E+03 -0.25190453420E+02  0.24144539759E+03  0.12500000000E+03 0.  0.
         21    1    1    2  503  501  0.46047354610E+02 -0.43173887184E+02  0.14555368287E+02  0.64778099286E+02  0.00000000000E+00 0. -1.
          2    1    1    2  501    0  0.41077683705E+02 -0.14242123337E+03  0.10731195335E+03  0.18299464239E+03  0.00000000000E+00 0. -1.
<mgrwt>
<rscale>  4 0.24012772E+03</rscale>
<asrwt>0</asrwt>
<pdfrwt beam="1">  1       21 0.30195482E-01 0.24012772E+03</pdfrwt>
<pdfrwt beam="2">  1        2 0.45068847E-01 0.24012772E+03</pdfrwt>
<totfact> 0.14521148E+04</totfact>
</mgrwt>
</event>
<event>
 5    0  0.2947253E-001  0.2451526E+03  0.7546771E-02  0.1116407E+00
         -1   -1    0    0    0  501 -0.00000000000E+00  0.00000000000E+00  0.36161681300E+03  0.36161681300E+03  0.00000000000E+00 0.  1.
         21   -1    0    0  501  502  0.00000000000E+00 -0.00000000000E+00 -0.18085858238E+03  0.18085858238E+03  0.00000000000E+00 0.  1.
         25    1    1    2    0    0  0.59486823840E+02 -0.20275330310E+03 -0.37077125487E+01  0.24553274987E+03  0.12500000000E+03 0.  0.
         21    1    1    2  501  501 -0.20721610047E+02 -0.44770375018E+01  0.10758422708E+02  0.23773360026E+02  0.00000000000E+00 0. -1.
         -1    1    1    2    0  502 -0.38765213793E+02  0.20723034060E+03  0.17370752047E+03  0.27316928548E+03  0.00000000000E+00 0.  1.
<mgrwt>
<rscale>  4 0.24515263E+03</rscale>
<asrwt>0</asrwt>
<pdfrwt beam="1">  1       21 0.27824397E-01 0.24515263E+03</pdfrwt>
<pdfrwt beam="2">  1       -1 0.55633356E-01 0.24515263E+03</pdfrwt>
<totfact> 0.37949398E+03</totfact>
</mgrwt>
</event>
<event>
 5    0  0.2947253E-001  0.2494453E+03  0.7546771E-02  0.1113656E+00
          3   -1    0    0  502    0 -0.00000000000E+00  0.00000000000E+00  0.57770211447E+03  0.57770211447E+03  0.00000000000E+00 0.  1.
         21   -1    0    0  503  502  0.00000000000E+00 -0.00000000000E+00 -0.12989194974E+03  0.12989194974E+03  0.00000000000E+00 0. -1.
         25    1    1    2    0    0 -0.10462945296E+03 -0.18881369883E+03  0.59333751677E+02  0.25640481544E+03  0.12500000000E+03 0.  0.
         21    1    1    2  503  501  0.40322195873E+02  0.16905317348E+02  0.52272671510E+02  0.68147644284E+02  0.00000000000E+00 0. -1.
          3    1    1    2  501    0  0.64307257084E+02  0.17190838149E+03  0.33620374154E+03  0.38304160448E+03  0.00000000000E+00 0.  1.
<mgrwt>
<rscale>  4 0.24944526E+03</rscale>
<asrwt>0</asrwt>
<pdfrwt beam="1">  1       21 0.19983377E-01 0.24944526E+03</pdfrwt>
<pdfrwt beam="2">  1        3 0.88877246E-01 0.24944526E+03</pdfrwt>
<totfact> 0.13475619E+03</totfact>
</mgrwt>
</event>
<event>
 5    0  0.2947253E-001  0.2740068E+03  0.7546771E-02  0.1099008E+00
          2   -1    0    0  502    0 -0.00000000000E+00  0.00000000000E+00  0.71375575085E+03  0.71375575085E+03  0.00000000000E+00 0.  1.
         21   -1    0    0  503  502  0.00000000000E+00 -0.00000000000E+00 -0.95472441465E+02  0.95472441465E+02  0.00000000000E+00 0. -1.
         25    1    1    2    0    0  0.10213562943E+03 -0.22141151900E+03  0.33653401186E+03  0.43397567753E+03  0.12500000000E+03 0.  0.
         21    1    1    2  503  501 -0.89678464702E+01  0.40915368847E+02  0.28756764501E+02  0.50807885046E+02  0.00000000000E+00 0.  1.
          2    1    1    2  501    0 -0.93167782965E+02  0.18049615015E+03  0.25299253302E+03  0.32444462974E+03  0.00000000000E+00 0.  1.
<mgrwt>
<rscale>  4 0.27400684E+03</rscale>
<asrwt>0</asrwt>
<pdfrwt beam="1">  1       21 0.14688068E-01 0.27400684E+03</pdfrwt>
<pdfrwt beam="2">  1        2 0.10980857E+00 0.27400684E+03</pdfrwt>
<totfact> 0.20772733E+04</totfact>
</mgrwt>
</event>
<event>
 5    0  0.2947253E-001  0.2734298E+03  0.7546771E-02  0.1099333E+00
         21   -1    0    0  503  502  0.00000000000E+00  0.00000000000E+00  0.61902519334E+03  0.61902519334E+03  0.00000000000E+00 0. -1.
          3   -1    0    0  502    0 -0.00000000000E+00 -0.00000000000E+00 -0.23324534741E+03  0.23324534741E+03  0.00000000000E+00 0. -1.
         25    1    1    2    0    0  0.24567929720E+03  0.20052420721E+02  0.47938830736E+03  0.55335211745E+03  0.12500000000E+03 0.  0.
         21    1    1    2  503  501 -0.19819009546E+02  0.36604415333E+02 -0.44508739491E+02  0.60940169448E+02  0.00000000000E+00 0.  1.
          3    1    1    2  501    0 -0.22586028766E+03 -0.56656836054E+02 -0.49099721942E+02  0.23797825385E+03  0.00000000000E+00 0. -1.
<mgrwt>
<rscale>  4 0.27342984E+03</rscale>
<asrwt>0</asrwt>
<pdfrwt beam="1">  1       21 0.95234644E-01 0.27342984E+03</pdfrwt>
<pdfrwt beam="2">  1        3 0.35883900E-01 0.27342984E+03</pdfrwt>
<totfact> 0.34108313E+02</totfact>
</mgrwt>
</event>
<event>
 5    0  0.2947253E-001  0.3200629E+03  0.7546771E-02  0.1075620E+00
         21   -1    0    0  503  502  0.00000000000E+00  0.00000000000E+00  0.24591615664E+03  0.24591615664E+03  0.00000000000E+00 0.  1.
          3   -1    0    0  502    0 -0.00000000000E+00 -0.00000000000E+00 -0.50110018183E+03  0.50110018183E+03  0.00000000000E+00 0.  1.
         25    1    1    2    0    0  0.20336357382E+03  0.21750990850E+03  0.29505184525E+02  0.32428823501E+03  0.12500000000E+03 0.  0.
         21    1    1    2  503  501 -0.20919751886E+02  0.58488283798E+01 -0.35331064777E+02  0.41474437316E+02  0.00000000000E+00 0.  1.
          3    1    1    2  501    0 -0.18244382193E+03 -0.22335873688E+03 -0.24935814494E+03  0.38125366614E+03  0.00000000000E+00 0.  1.
<mgrwt>
<rscale>  4 0.32006292E+03</rscale>
<asrwt>0</asrwt>
<pdfrwt beam="1">  1       21 0.37833255E-01 0.32006292E+03</pdfrwt>
<pdfrwt beam="2">  1        3 0.77092335E-01 0.32006292E+03</pdfrwt>
<totfact> 0.52857677E+02</totfact>
</mgrwt>
</event>
<event>
 5    0  0.2947253E-001  0.2506464E+03  0.7546771E-02  0.1112897E+00
          2   -1    0    0  502    0 -0.00000000000E+00  0.00000000000E+00  0.83653894643E+03  0.83653894643E+03  0.00000000000E+00 0.  1.
         21   -1    0    0  503  502  0.00000000000E+00 -0.00000000000E+00 -0.70682301134E+02  0.70682301134E+02  0.00000000000E+00 0.  1.
         25    1    1    2    0    0  0.91373136800E+02  0.19710296696E+03  0.49016180315E+03  0.55052903918E+03  0.12500000000E+03 0.  0.
         21    1    1    2  503  501 -0.48922543785E+02 -0.12668001766E+03  0.12279629102E+03  0.18308514755E+03  0.00000000000E+00 0.  1.
          2    1    1    2  501    0 -0.42450593015E+02 -0.70422949299E+02  0.15289855113E+03  0.17360706084E+03  0.00000000000E+00 0.  1.
<mgrwt>
<rscale>  4 0.25064642E+03</rscale>
<asrwt>0</asrwt>
<pdfrwt beam="1">  1       21 0.10874201E-01 0.25064642E+03</pdfrwt>
<pdfrwt beam="2">  1        2 0.12869829E+00 0.25064642E+03</pdfrwt>
<totfact> 0.29391543E+04</totfact>
</mgrwt>
</event>
<event>
 5    0  0.2947253E-001  0.5906265E+03  0.7546771E-02  0.9925046E-01
         21   -1    0    0  503  502  0.00000000000E+00  0.00000000000E+00  0.68639725436E+03  0.68639725436E+03  0.00000000000E+00 0.  1.
          2   -1    0    0  502    0 -0.00000000000E+00 -0.00000000000E+00 -0.14560879489E+04  0.14560879489E+04  0.00000000000E+00 0.  1.
         25    1    1    2    0    0  0.42432803451E+03 -0.41113542047E+03  0.44604870172E+03  0.75078030018E+03  0.12500000000E+03 0.  0.
         21    1    1    2  503  501 -0.16544140036E+03 -0.93375902716E+01 -0.18228115194E+03  0.24634217239E+03  0.00000000000E+00 0. -1.
          2    1    1    2  501    0 -0.25888663414E+03  0.42047301074E+03 -0.10334582443E+04  0.11453627306E+04  0.00000000000E+00 0.  1.
<mgrwt>
<rscale>  4 0.59062652E+03</rscale>
<asrwt>0</asrwt>
<pdfrwt beam="1">  1       21 0.10559958E+00 0.59062652E+03</pdfrwt>
<pdfrwt beam="2">  1        2 0.22401353E+00 0.59062652E+03</pdfrwt>
<totfact> 0.10948773E+02</totfact>
</mgrwt>
</event>
<event>
 5    0  0.2947253E-001  0.3391399E+03  0.7546771E-02  0.1067163E+00
         21   -1    0    0  503  502  0.00000000000E+00  0.00000000000E+00  0.30017855968E+03  0.30017855968E+03  0.00000000000E+00 0. -1.
          2   -1    0    0  502    0 -0.00000000000E+00 -0.00000000000E+00 -0.83025297466E+03  0.83025297466E+03  0.00000000000E+00 0. -1.
         25    1    1    2    0    0  0.31321789837E+03 -0.35852472621E+02  0.15344928994E+03  0.37223989071E+03  0.12500000000E+03 0.  0.
         21    1    1    2  503  501 -0.68687037372E+02 -0.67886586843E+01 -0.80259818245E+02  0.10585666448E+03  0.00000000000E+00 0.  1.
          2    1    1    2  501    0 -0.24453086100E+03  0.42641131305E+02 -0.60326388668E+03  0.65233497915E+03  0.00000000000E+00 0. -1.
<mgrwt>
<rscale>  4 0.33913987E+03</rscale>
<asrwt>0</asrwt>
<pdfrwt beam="1">  1       21 0.46181317E-01 0.33913987E+03</pdfrwt>
<pdfrwt beam="2">  1        2 0.12773123E+00 0.33913987E+03</pdfrwt>
<totfact> 0.18191570E+03</totfact>
</mgrwt>
</event>
<event>
 5    0  0.2947253E-001  0.3128027E+03  0.7546771E-02  0.1079010E+00
         21   -1    0    0  503  502  0.00000000000E+00  0.00000000000E+00  0.10204493945E+03  0.10204493945E+03  0.00000000000E+00 0.  1.
          4   -1    0    0  502    0 -0.00000000000E+00 -0.00000000000E+00 -0.98699659387E+03  0.98699659387E+03  0.00000000000E+00 0. -1.
         25    1    1    2    0    0 -0.18671141257E+03  0.21762216693E+03 -0.28861390774E+03  0.42560961792E+03  0.12500000000E+03 0.  0.
         21    1    1    2  503  501  0.41574943908E+02 -0.37272693590E+02 -0.16039942941E+03  0.16984023847E+03  0.00000000000E+00 0. -1.
          4    1    1    2  501    0  0.14513646866E+03 -0.18034947334E+03 -0.43593831727E+03  0.49359167693E+03  0.00000000000E+00 0. -1.
<mgrwt>
<rscale>  4 0.31280275E+03</rscale>
<asrwt>0</asrwt>
<pdfrwt beam="1">  1       21 0.15699221E-01 0.31280275E+03</pdfrwt>
<pdfrwt beam="2">  1        4 0.15184563E+00 0.31280275E+03</pdfrwt>
<totfact> 0.46310022E+02</totfact>
</mgrwt>
</event>
<event>
 5    0  0.2947253E-001  0.2438198E+03  0.7546771E-02  0.1117274E+00
         21   -1    0    0  503  502  0.00000000000E+00  0.00000000000E+00  0.52298272869E+03  0.52298272869E+03  0.00000000000E+00 0. -1.
          2   -1    0    0  502    0 -0.00000000000E+00 -0.00000000000E+00 -0.27386846034E+03  0.27386846034E+03  0.00000000000E+00 0.  1.
         25    1    1    2    0    0  0.24107300201E+02 -0.20794691676E+03  0.44376001401E+03  0.50633095120E+03  0.12500000000E+03 0.  0.
         21    1    1    2  503  501 -0.98703846915E+01  0.43021811824E+02 -0.15952035588E+02  0.46933657709E+02  0.00000000000E+00 0.  1.
          2    1    1    2  501    0 -0.14236915509E+02  0.16492510494E+03 -0.17869371007E+03  0.24358658013E+03  0.00000000000E+00 0.  1.
<mgrwt>
<rscale>  4 0.24381977E+03</rscale>
<asrwt>0</asrwt>
<pdfrwt beam="1">  1       21 0.80458881E-01 0.24381977E+03</pdfrwt>
<pdfrwt beam="2">  1        2 0.42133609E-01 0.24381977E+03</pdfrwt>
<totfact> 0.19895051E+03</totfact>
</mgrwt>
</event>
<event>
 5    0  0.2947253E-001  0.2598141E+03  0.7546771E-02  0.1107255E+00
         21   -1    0    0  503  502  0.00000000000E+00  0.00000000000E+00  0.64962566708E+03  0.64962566708E+03  0.00000000000E+00 0. -1.
          2   -1    0    0  502    0 -0.00000000000E+00 -0.00000000000E+00 -0.27637744579E+03  0.27637744579E+03  0.00000000000E+00 0.  1.
         25    1    1    2    0    0  0.21037523554E+03 -0.64513080645E+02  0.49646865632E+03  0.55724842217E+03  0.12500000000E+03 0.  0.
         21    1    1    2  503  501  0.40025925286E+02 -0.28596354230E+02 -0.85928231870E+02  0.99012560832E+02  0.00000000000E+00 0.  1.
          2    1    1    2  501    0 -0.25040116083E+03  0.93109434876E+02 -0.37292203159E+02  0.26974212986E+03  0.00000000000E+00 0.  1.
<mgrwt>
<rscale>  4 0.25981407E+03</rscale>
<asrwt>0</asrwt>
<pdfrwt beam="1">  1       21 0.99942410E-01 0.25981407E+03</pdfrwt>
<pdfrwt beam="2">  1        2 0.42519607E-01 0.25981407E+03</pdfrwt>
<totfact> 0.11813175E+03</totfact>
</mgrwt>
</event>
<event>
 5    0  0.2947253E-001  0.2445170E+03  0.7546771E-02  0.1116820E+00
         21   -1    0    0  503  502  0.00000000000E+00  0.00000000000E+00  0.34659670929E+03  0.34659670929E+03  0.00000000000E+00 0.  1.
          4   -1    0    0  502    0 -0.00000000000E+00 -0.00000000000E+00 -0.53964373534E+03  0.53964373534E+03  0.00000000000E+00 0. -1.
         25    1    1    2    0    0 -0.61046241407E+01  0.21006258877E+03  0.27651051387E+03  0.36911600062E+03  0.12500000000E+03 0.  0.
         21    1    1    2  503  501  0.10708189505E+02 -0.22522470330E+02 -0.28750644695E+02  0.38059513432E+02  0.00000000000E+00 0.  1.
          4    1    1    2  501    0 -0.46035653643E+01 -0.18754011844E+03 -0.44080689522E+03  0.47906493058E+03  0.00000000000E+00 0. -1.
<mgrwt>
<rscale>  4 0.24451699E+03</rscale>
<asrwt>0</asrwt>
<pdfrwt beam="1">  1       21 0.53322571E-01 0.24451699E+03</pdfrwt>
<pdfrwt beam="2">  1        4 0.83022112E-01 0.24451699E+03</pdfrwt>
<totfact> 0.18151558E+02</totfact>
</mgrwt>
</event>
<event>
 5    0  0.2947253E-001  0.2693617E+03  0.7546771E-02  0.1101645E+00
         21   -1    0    0  503  502  0.00000000000E+00  0.00000000000E+00  0.17753712960E+03  0.17753712960E+03  0.00000000000E+00 0. -1.
          2   -1    0    0  502    0 -0.00000000000E+00 -0.00000000000E+00 -0.17615836447E+04  0.17615836447E+04  0.00000000000E+00 0. -1.
         25    1    1    2    0    0 -0.23807456171E+03  0.15849960624E+02  0.60267770162E+02  0.27602159754E+03  0.12500000000E+03 0.  0.
         21    1    1    2  503  501  0.36454065998E+02 -0.16376967420E+02 -0.14952097219E+03  0.15476958717E+03  0.00000000000E+00 0. -1.
          2    1    1    2  501    0  0.20162049572E+03  0.52700679610E+00 -0.14947933131E+04  0.15083295896E+04  0.00000000000E+00 0. -1.
<mgrwt>
<rscale>  4 0.26936169E+03</rscale>
<asrwt>0</asrwt>
<pdfrwt beam="1">  1       21 0.27313404E-01 0.26936169E+03</pdfrwt>
<pdfrwt beam="2">  1        2 0.27101288E+00 0.26936169E+03</pdfrwt>
<totfact> 0.15712371E+03</totfact>
</mgrwt>
</event>
<event>
 5    0  0.2947253E-001  0.2376487E+03  0.7546771E-02  0.1121369E+00
          1   -1    0    0  502    0 -0.00000000000E+00  0.00000000000E+00  0.94015084494E+03  0.94015084494E+03  0.00000000000E+00 0.  1.
         21   -1    0    0  503  502  0.00000000000E+00 -0.00000000000E+00 -0.11541988761E+04  0.11541988761E+04  0.00000000000E+00 0.  1.
         25    1    1    2    0    0 -0.10636050452E+03 -0.17363691598E+03 -0.11147042978E+04  0.11400232485E+04  0.12500000000E+03 0.  0.
         21    1    1    2  503  501  0.14811833613E+03  0.99128258175E+02  0.31045826903E+03  0.35798015291E+03  0.00000000000E+00 0.  1.
          1    1    1    2  501    0 -0.41757831611E+02  0.74508657804E+02  0.59019799761E+03  0.59634631966E+03  0.00000000000E+00 0.  1.
<mgrwt>
<rscale>  4 0.23764873E+03</rscale>
<asrwt>0</asrwt>
<pdfrwt beam="1">  1       21 0.17756906E+00 0.23764873E+03</pdfrwt>
<pdfrwt beam="2">  1        1 0.14463859E+00 0.23764873E+03</pdfrwt>
<totfact> 0.36027293E+01</totfact>
</mgrwt>
</event>
<event>
 5    0  0.2947253E-001  0.2632814E+03  0.7546771E-02  0.1105188E+00
          2   -1    0    0  502    0 -0.00000000000E+00  0.00000000000E+00  0.17992663822E+04  0.17992663822E+04  0.00000000000E+00 0.  1.
         21   -1    0    0  503  502  0.00000000000E+00 -0.00000000000E+00 -0.25108962742E+03  0.25108962742E+03  0.00000000000E+00 0. -1.
         25    1    1    2    0    0  0.43917362380E+02  0.22751566607E+03 -0.17175977658E+03  0.31435415358E+03  0.12500000000E+03 0.  0.
         21    1    1    2  503  501 -0.10639863876E+02 -0.24723565638E+02  0.12393032096E+03  0.12681950108E+03  0.00000000000E+00 0. -1.
          2    1    1    2  501    0 -0.33277498504E+02 -0.20279210043E+03  0.15960062104E+04  0.16091823549E+04  0.00000000000E+00 0.  1.
<mgrwt>
<rscale>  4 0.26328143E+03</rscale>
<asrwt>0</asrwt>
<pdfrwt beam="1">  1       21 0.38629175E-01 0.26328143E+03</pdfrwt>
<pdfrwt beam="2">  1        2 0.27681020E+00 0.26328143E+03</pdfrwt>
<totfact> 0.75721153E+02</totfact>
</mgrwt>
</event>
<event>
 5    0  0.2947253E-001  0.2309844E+03  0.7546771E-02  0.1125949E+00
          2   -1    0    0  502    0 -0.00000000000E+00  0.00000000000E+00  0.50766975833E+03  0.50766975833E+03  0.00000000000E+00 0. -1.
         21   -1    0    0  503  502  0.00000000000E+00 -0.00000000000E+00 -0.31961749511E+03  0.31961749511E+03  0.00000000000E+00 0. -1.
         25    1    1    2    0    0 -0.94750115385E+02 -0.17849007863E+03 -0.22099795187E+03  0.32450175233E+03  0.12500000000E+03 0.  0.
         21    1    1    2  503  501  0.91108570005E+02  0.28167967342E+02  0.38415327570E+02  0.10281022957E+03  0.00000000000E+00 0. -1.
          2    1    1    2  501    0  0.36415453796E+01  0.15032211128E+03  0.37063488752E+03  0.39997527154E+03  0.00000000000E+00 0. -1.
<mgrwt>
<rscale>  4 0.23098438E+03</rscale>
<asrwt>0</asrwt>
<pdfrwt beam="1">  1       21 0.49171922E-01 0.23098438E+03</pdfrwt>
<pdfrwt beam="2">  1        2 0.78103040E-01 0.23098438E+03</pdfrwt>
<totfact> 0.29804005E+03</totfact>
</mgrwt>
</event>
<event>
 5    0  0.2947253E-001  0.2909395E+03  0.7546771E-02  0.1090028E+00
         21   -1    0    0  503  502  0.00000000000E+00  0.00000000000E+00  0.75871506505E+02  0.75871506505E+02  0.00000000000E+00 0.  1.
          2   -1    0    0  502    0 -0.00000000000E+00 -0.00000000000E+00 -0.23786477729E+04  0.23786477729E+04  0.00000000000E+00 0.  1.
         25    1    1    2    0    0 -0.26081697434E+03  0.15609658519E+02 -0.25415701421E+03  0.38534392874E+03  0.12500000000E+03 0.  0.
         21    1    1    2  503  501  0.13409052033E+03 -0.18412787922E+02 -0.60270824555E+03  0.61771880954E+03  0.00000000000E+00 0.  1.
          2    1    1    2  501    0  0.12672645401E+03  0.28031294035E+01 -0.14459110067E+04  0.14514565412E+04  0.00000000000E+00 0.  1.
<mgrwt>
<rscale>  4 0.29061530E+03</rscale>
<asrwt>0</asrwt>
<pdfrwt beam="1">  1       21 0.11672540E-01 0.29093950E+03</pdfrwt>
<pdfrwt beam="2">  1        2 0.36594580E+00 0.29093950E+03</pdfrwt>
<totfact> 0.35830758E+03</totfact>
</mgrwt>
</event>
<event>
 5    0  0.2947253E-001  0.2388250E+03  0.7546771E-02  0.1120578E+00
          2   -1    0    0  502    0 -0.00000000000E+00  0.00000000000E+00  0.64962290838E+03  0.64962290838E+03  0.00000000000E+00 0.  1.
         21   -1    0    0  503  502  0.00000000000E+00 -0.00000000000E+00 -0.92698025363E+02  0.92698025363E+02  0.00000000000E+00 0. -1.
         25    1    1    2    0    0 -0.93084277293E+02 -0.18096322423E+03  0.14821914508E+03  0.28108056882E+03  0.12500000000E+03 0.  0.
         21    1    1    2  503  501 -0.91342878994E+01  0.24234249232E+02  0.63605382901E+02  0.68675896683E+02  0.00000000000E+00 0.  1.
          2    1    1    2  501    0  0.10221856519E+03  0.15672897500E+03  0.34510035503E+03  0.39256446823E+03  0.00000000000E+00 0.  1.
<mgrwt>
<rscale>  4 0.23882498E+03</rscale>
<asrwt>0</asrwt>
<pdfrwt beam="1">  1       21 0.14261235E-01 0.23882498E+03</pdfrwt>
<pdfrwt beam="2">  1        2 0.99941983E-01 0.23882498E+03</pdfrwt>
<totfact> 0.24686545E+04</totfact>
</mgrwt>
</event>
<event>
 5    0  0.2947253E-001  0.2622791E+03  0.7546771E-02  0.1105782E+00
         21   -1    0    0  503  502  0.00000000000E+00  0.00000000000E+00  0.68958365996E+03  0.68958365996E+03  0.00000000000E+00 0. -1.
          4   -1    0    0  502    0 -0.00000000000E+00 -0.00000000000E+00 -0.43117246499E+03  0.43117246499E+03  0.00000000000E+00 0.  1.
         25    1    1    2    0    0  0.14541524348E+03  0.18342918834E+03  0.62125438108E+03  0.67555448795E+03  0.12500000000E+03 0.  0.
         21    1    1    2  503  501 -0.41721591129E+02 -0.31668928364E+02 -0.19755846267E+02  0.55981297339E+02  0.00000000000E+00 0.  1.
          4    1    1    2  501    0 -0.10369365235E+03 -0.15176025998E+03 -0.34308733985E+03  0.38922033967E+03  0.00000000000E+00 0.  1.
<mgrwt>
<rscale>  4 0.26227909E+03</rscale>
<asrwt>0</asrwt>
<pdfrwt beam="1">  1       21 0.10608979E+00 0.26227909E+03</pdfrwt>
<pdfrwt beam="2">  1        4 0.66334225E-01 0.26227909E+03</pdfrwt>
<totfact> 0.62815984E+01</totfact>
</mgrwt>
</event>
<event>
 5    0  0.2947253E-001  0.2515400E+03  0.7546771E-02  0.1112335E+00
         -1   -1    0    0    0  501 -0.00000000000E+00  0.00000000000E+00  0.13227798199E+04  0.13227798199E+04  0.00000000000E+00 0. -1.
         21   -1    0    0  501  502  0.00000000000E+00 -0.00000000000E+00 -0.55156557650E+02  0.55156557650E+02  0.00000000000E+00 0.  1.
         25    1    1    2    0    0  0.21226593663E+03 -0.50897212958E+02  0.34094017534E+03  0.42368922254E+03  0.12500000000E+03 0.  0.
         21    1    1    2  501  501 -0.56222816292E+02 -0.13108197441E+02  0.19432941506E+03  0.20272333726E+03  0.00000000000E+00 0.  1.
         -1    1    1    2    0  502 -0.15604312034E+03  0.64005410399E+02  0.73235367187E+03  0.75152381777E+03  0.00000000000E+00 0. -1.
<mgrwt>
<rscale>  4 0.25153997E+03</rscale>
<asrwt>0</asrwt>
<pdfrwt beam="1">  1       21 0.84856253E-02 0.25153997E+03</pdfrwt>
<pdfrwt beam="2">  1       -1 0.20350456E+00 0.25153997E+03</pdfrwt>
<totfact> 0.16041033E+03</totfact>
</mgrwt>
</event>
<event>
 5    0  0.2947253E-001  0.2700360E+03  0.7546771E-02  0.1101259E+00
          4   -1    0    0  502    0 -0.00000000000E+00  0.00000000000E+00  0.22392212293E+03  0.22392212293E+03  0.00000000000E+00 0.  1.
         21   -1    0    0  503  502  0.00000000000E+00 -0.00000000000E+00 -0.44605035219E+03  0.44605035219E+03  0.00000000000E+00 0.  1.
         25    1    1    2    0    0 -0.20763447406E+03 -0.11908971943E+03 -0.30564330875E+03  0.40784466195E+03  0.12500000000E+03 0.  0.
         21    1    1    2  503  501  0.20336561844E+02  0.65863962711E+01 -0.11036482878E+02  0.24057437889E+02  0.00000000000E+00 0. -1.
          4    1    1    2  501    0  0.18729791222E+03  0.11250332316E+03  0.94551562373E+02  0.23807037529E+03  0.00000000000E+00 0.  1.
<mgrwt>
<rscale>  4 0.27003599E+03</rscale>
<asrwt>0</asrwt>
<pdfrwt beam="1">  1       21 0.68623130E-01 0.27003599E+03</pdfrwt>
<pdfrwt beam="2">  1        4 0.34449558E-01 0.27003599E+03</pdfrwt>
<totfact> 0.65990282E+02</totfact>
</mgrwt>
</event>
<event>
 5    0  0.2947253E-001  0.3165414E+03  0.7546771E-02  0.1077252E+00
          2   -1    0    0  502    0 -0.00000000000E+00  0.00000000000E+00  0.30764867901E+03  0.30764867901E+03  0.00000000000E+00 0. -1.
         21   -1    0    0  503  502  0.00000000000E+00 -0.00000000000E+00 -0.11027149435E+04  0.11027149435E+04  0.00000000000E+00 0. -1.
         25    1    1    2    0    0  0.22700797582E+02  0.29225792603E+03 -0.94160816433E+03  0.99407291315E+03  0.12500000000E+03 0.  0.
         21    1    1    2  503  501 -0.97171216915E+02 -0.16664256333E+02  0.78387036771E+01  0.98900900457E+02  0.00000000000E+00 0. -1.
          2    1    1    2  501    0  0.74470419333E+02 -0.27559366970E+03  0.13870319620E+03  0.31738980886E+03  0.00000000000E+00 0. -1.
<mgrwt>
<rscale>  4 0.31654142E+03</rscale>
<asrwt>0</asrwt>
<pdfrwt beam="1">  1       21 0.16964845E+00 0.31654142E+03</pdfrwt>
<pdfrwt beam="2">  1        2 0.47330566E-01 0.31654142E+03</pdfrwt>
<totfact> 0.26291556E+02</totfact>
</mgrwt>
</event>
<event>
 5    0  0.4576048E-001  0.3372470E+03  0.7546771E-02  0.1067975E+00
         21   -1    0    0  503  502  0.00000000000E+00  0.00000000000E+00  0.21410719014E+04  0.21410719014E+04  0.00000000000E+00 0. -1.
          1   -1    0    0  502    0 -0.00000000000E+00 -0.00000000000E+00 -0.13216133744E+04  0.13216133744E+04  0.00000000000E+00 0.  1.
         25    1    1    2    0    0  0.15741517794E+03 -0.26569195217E+03  0.20694875433E+04  0.20961334508E+04  0.12500000000E+03 0.  0.
         21    1    1    2  503  501 -0.38557441893E+02 -0.24182097336E+02  0.26142141837E+02  0.52486776780E+02  0.00000000000E+00 0.  1.
          1    1    1    2  501    0 -0.11885773605E+03  0.28987404950E+03 -0.12761711581E+04  0.13140650482E+04  0.00000000000E+00 0.  1.
<mgrwt>
<rscale>  4 0.33724700E+03</rscale>
<asrwt>0</asrwt>
<pdfrwt beam="1">  1       21 0.32939568E+00 0.33724700E+03</pdfrwt>
<pdfrwt beam="2">  1        1 0.20332513E+00 0.33724700E+03</pdfrwt>
<totfact> 0.20352721E+00</totfact>
</mgrwt>
</event>
<event>
 5    0  0.2947253E-001  0.3218009E+03  0.7546771E-02  0.1074823E+00
         21   -1    0    0  501  502  0.00000000000E+00  0.00000000000E+00  0.25061559408E+03  0.25061559408E+03  0.00000000000E+00 0. -1.
         -1   -1    0    0    0  501 -0.00000000000E+00 -0.00000000000E+00 -0.72575780650E+03  0.72575780650E+03  0.00000000000E+00 0. -1.
         25    1    1    2    0    0  0.28325395822E+03 -0.87738312903E+02  0.92235063996E+02  0.33475830599E+03  0.12500000000E+03 0.  0.
         21    1    1    2  501  501 -0.25790344791E+02  0.86207646549E+01 -0.29839812751E+02  0.40371696678E+02  0.00000000000E+00 0.  1.
         -1    1    1    2    0  502 -0.25746361343E+03  0.79117548248E+02 -0.53753746366E+03  0.60124339790E+03  0.00000000000E+00 0. -1.
<mgrwt>
<rscale>  4 0.32180090E+03</rscale>
<asrwt>0</asrwt>
<pdfrwt beam="1">  1       21 0.38556246E-01 0.32180090E+03</pdfrwt>
<pdfrwt beam="2">  1       -1 0.11165505E+00 0.32180090E+03</pdfrwt>
<totfact> 0.45471046E+02</totfact>
</mgrwt>
</event>
<event>
 5    0  0.2947253E-001  0.3628872E+03  0.7546771E-02  0.1057446E+00
         -1   -1    0    0    0  501 -0.00000000000E+00  0.00000000000E+00  0.11945314952E+04  0.11945314952E+04  0.00000000000E+00 0.  1.
         21   -1    0    0  501  502  0.00000000000E+00 -0.00000000000E+00 -0.15795257632E+03  0.15795257632E+03  0.00000000000E+00 0. -1.
         25    1    1    2    0    0 -0.15050297187E+03  0.32150539670E+03  0.20257563803E+03  0.42740935153E+03  0.12500000000E+03 0.  0.
         21    1    1    2  501  501  0.12823171365E+01 -0.43703689130E+02  0.31324021502E+03  0.31627691836E+03  0.00000000000E+00 0.  1.
         -1    1    1    2    0  502  0.14922065474E+03 -0.27780170757E+03  0.52076306584E+03  0.60879780163E+03  0.00000000000E+00 0.  1.
<mgrwt>
<rscale>  4 0.36288724E+03</rscale>
<asrwt>0</asrwt>
<pdfrwt beam="1">  1       21 0.24300397E-01 0.36288724E+03</pdfrwt>
<pdfrwt beam="2">  1       -1 0.18377407E+00 0.36288724E+03</pdfrwt>
<totfact> 0.30621153E+02</totfact>
</mgrwt>
</event>
<event>
 5    0  0.2947253E-001  0.4464889E+03  0.7546771E-02  0.1028774E+00
          1   -1    0    0  502    0 -0.00000000000E+00  0.00000000000E+00  0.53513178012E+03  0.53513178012E+03  0.00000000000E+00 0. -1.
         21   -1    0    0  503  502  0.00000000000E+00 -0.00000000000E+00 -0.69919597435E+03  0.69919597435E+03  0.00000000000E+00 0. -1.
         25    1    1    2    0    0  0.17373217278E+03  0.39184749426E+03 -0.50597079373E+03  0.67480276432E+03  0.12500000000E+03 0.  0.
         21    1    1    2  503  501 -0.16113612899E+03 -0.29395177677E+03  0.21298774427E+03  0.39716026783E+03  0.00000000000E+00 0. -1.
          1    1    1    2  501    0 -0.12596043790E+02 -0.97895717493E+02  0.12891885523E+03  0.16236472233E+03  0.00000000000E+00 0. -1.
<mgrwt>
<rscale>  4 0.44648889E+03</rscale>
<asrwt>0</asrwt>
<pdfrwt beam="1">  1       21 0.10756861E+00 0.44648889E+03</pdfrwt>
<pdfrwt beam="2">  1        1 0.82327966E-01 0.44648889E+03</pdfrwt>
<totfact> 0.28047488E+02</totfact>
</mgrwt>
</event>
<event>
 5    0  0.2947253E-001  0.3228668E+03  0.7546771E-02  0.1074337E+00
          1   -1    0    0  502    0 -0.00000000000E+00  0.00000000000E+00  0.12496994384E+04  0.12496994384E+04  0.00000000000E+00 0. -1.
         21   -1    0    0  503  502  0.00000000000E+00 -0.00000000000E+00 -0.71582711950E+03  0.71582711950E+03  0.00000000000E+00 0. -1.
         25    1    1    2    0    0  0.18140171284E+03 -0.25791680846E+03 -0.62946950357E+03  0.71504161937E+03  0.12500000000E+03 0.  0.
         21    1    1    2  503  501  0.13944458894E+02  0.20425500626E+03  0.29669263067E+03  0.36047340070E+03  0.00000000000E+00 0. -1.
          1    1    1    2  501    0 -0.19534617173E+03  0.53661802204E+02  0.86664919185E+03  0.89001153788E+03  0.00000000000E+00 0. -1.
<mgrwt>
<rscale>  4 0.32286681E+03</rscale>
<asrwt>0</asrwt>
<pdfrwt beam="1">  1       21 0.11012725E+00 0.32286681E+03</pdfrwt>
<pdfrwt beam="2">  1        1 0.19226145E+00 0.32286681E+03</pdfrwt>
<totfact> 0.70742290E+01</totfact>
</mgrwt>
</event>
<event>
 5    0  0.2947253E-001  0.2670873E+03  0.7546771E-02  0.1102958E+00
         21   -1    0    0  503  502  0.00000000000E+00  0.00000000000E+00  0.14107251614E+03  0.14107251614E+03  0.00000000000E+00 0.  1.
          2   -1    0    0  502    0 -0.00000000000E+00 -0.00000000000E+00 -0.73437197641E+03  0.73437197641E+03  0.00000000000E+00 0. -1.
         25    1    1    2    0    0  0.94746722423E+02  0.21617974548E+03 -0.41320823673E+02  0.27026474841E+03  0.12500000000E+03 0.  0.
         21    1    1    2  503  501  0.24388780493E+01 -0.50985118347E+02 -0.71201431949E+02  0.87607501566E+02  0.00000000000E+00 0. -1.
          2    1    1    2  501    0 -0.97185600472E+02 -0.16519462713E+03 -0.48077720465E+03  0.51757224258E+03  0.00000000000E+00 0. -1.
<mgrwt>
<rscale>  4 0.26708730E+03</rscale>
<asrwt>0</asrwt>
<pdfrwt beam="1">  1       21 0.21703464E-01 0.26708730E+03</pdfrwt>
<pdfrwt beam="2">  1        2 0.11298030E+00 0.26708730E+03</pdfrwt>
<totfact> 0.97013366E+03</totfact>
</mgrwt>
</event>
<event>
 5    0  0.2947253E-001  0.2327687E+03  0.7546771E-02  0.1124706E+00
          1   -1    0    0  502    0 -0.00000000000E+00  0.00000000000E+00  0.22947420144E+03  0.22947420144E+03  0.00000000000E+00 0. -1.
         21   -1    0    0  503  502  0.00000000000E+00 -0.00000000000E+00 -0.25000814851E+03  0.25000814851E+03  0.00000000000E+00 0. -1.
         25    1    1    2    0    0 -0.66493150104E+02 -0.18944685613E+03 -0.89454593915E+02  0.25286078122E+03  0.12500000000E+03 0.  0.
         21    1    1    2  503  501 -0.17460464092E+02  0.18873334835E+02  0.64744649089E+01  0.26513944821E+02  0.00000000000E+00 0. -1.
          1    1    1    2  501    0  0.83953614196E+02  0.17057352130E+03  0.62446181933E+02  0.20010762390E+03  0.00000000000E+00 0. -1.
<mgrwt>
<rscale>  4 0.23276866E+03</rscale>
<asrwt>0</asrwt>
<pdfrwt beam="1">  1       21 0.38462792E-01 0.23276866E+03</pdfrwt>
<pdfrwt beam="2">  1        1 0.35303723E-01 0.23276866E+03</pdfrwt>
<totfact> 0.86540237E+03</totfact>
</mgrwt>
</event>
<event>
 5    0  0.2947253E-001  0.2674376E+03  0.7546771E-02  0.1102755E+00
         21   -1    0    0  503  502  0.00000000000E+00  0.00000000000E+00  0.36212212967E+02  0.36212212967E+02  0.00000000000E+00 0. -1.
          1   -1    0    0  502    0 -0.00000000000E+00 -0.00000000000E+00 -0.19273879648E+04  0.19273879648E+04  0.00000000000E+00 0.  1.
         25    1    1    2    0    0 -0.21280687251E+03  0.10301020184E+03 -0.71371452950E+03  0.76217537109E+03  0.12500000000E+03 0.  0.
         21    1    1    2  503  501  0.13437109241E+02 -0.16878909944E+02 -0.10903134831E+03  0.11114534817E+03  0.00000000000E+00 0.  1.
          1    1    1    2  501    0  0.19936976327E+03 -0.86131291892E+02 -0.10684298741E+04  0.10902794585E+04  0.00000000000E+00 0.  1.
<mgrwt>
<rscale>  4 0.26743759E+03</rscale>
<asrwt>0</asrwt>
<pdfrwt beam="1">  1       21 0.55711110E-02 0.26743759E+03</pdfrwt>
<pdfrwt beam="2">  1        1 0.29652116E+00 0.26743759E+03</pdfrwt>
<totfact> 0.93827167E+03</totfact>
</mgrwt>
</event>
<event>
 5    0  0.2947253E-001  0.2695590E+03  0.7546771E-02  0.1101532E+00
         21   -1    0    0  503  502  0.00000000000E+00  0.00000000000E+00  0.76474639545E+02  0.76474639545E+02  0.00000000000E+00 0.  1.
          2   -1    0    0  502    0 -0.00000000000E+00 -0.00000000000E+00 -0.29530358748E+04  0.29530358748E+04  0.00000000000E+00 0.  1.
         25    1    1    2    0    0  0.17653486147E+03  0.17524501741E+03 -0.21670046389E+03  0.35278812975E+03  0.12500000000E+03 0.  0.
         21    1    1    2  503  501 -0.84094815131E+02 -0.17911659331E+03 -0.14680192803E+04  0.14812951426E+04  0.00000000000E+00 0.  1.
          2    1    1    2  501    0 -0.92440046342E+02  0.38715758960E+01 -0.11918414910E+04  0.11954272420E+04  0.00000000000E+00 0.  1.
<mgrwt>
<rscale>  4 0.26955899E+03</rscale>
<asrwt>0</asrwt>
<pdfrwt beam="1">  1       21 0.11765330E-01 0.26955899E+03</pdfrwt>
<pdfrwt beam="2">  1        2 0.45431319E+00 0.26955899E+03</pdfrwt>
<totfact> 0.16955680E+03</totfact>
</mgrwt>
</event>
<event>
 5    0  0.2947253E-001  0.2455418E+03  0.7546771E-02  0.1116155E+00
         21   -1    0    0  503  502  0.00000000000E+00  0.00000000000E+00  0.36867402841E+03  0.36867402841E+03  0.00000000000E+00 0. -1.
          1   -1    0    0  502    0 -0.00000000000E+00 -0.00000000000E+00 -0.20720898617E+04  0.20720898617E+04  0.00000000000E+00 0.  1.
         25    1    1    2    0    0  0.21044868825E+03  0.14045359450E+02  0.30956166954E+03  0.39489156709E+03  0.12500000000E+03 0.  0.
         21    1    1    2  503  501  0.59631386043E+01  0.11385267400E+03 -0.62170343913E+03  0.63207053137E+03  0.00000000000E+00 0.  1.
          1    1    1    2  501    0 -0.21641182685E+03 -0.12789803345E+03 -0.13912740637E+04  0.14138017916E+04  0.00000000000E+00 0.  1.
<mgrwt>
<rscale>  4 0.24554177E+03</rscale>
<asrwt>0</asrwt>
<pdfrwt beam="1">  1       21 0.56719080E-01 0.24554177E+03</pdfrwt>
<pdfrwt beam="2">  1        1 0.31878306E+00 0.24554177E+03</pdfrwt>
<totfact> 0.96947011E+01</totfact>
</mgrwt>
</event>
<event>
 5    0  0.2947253E-001  0.2989045E+03  0.7546771E-02  0.1085790E+00
         21   -1    0    0  503  502  0.00000000000E+00  0.00000000000E+00  0.66331735345E+03  0.66331735345E+03  0.00000000000E+00 0.  1.
          2   -1    0    0  502    0 -0.00000000000E+00 -0.00000000000E+00 -0.28565314550E+03  0.28565314550E+03  0.00000000000E+00 0. -1.
         25    1    1    2    0    0  0.13427385909E+03  0.23598607168E+03  0.54739425559E+03  0.62368611201E+03  0.12500000000E+03 0.  0.
         21    1    1    2  503  501 -0.12616629373E+02 -0.61842610174E+02 -0.23316152020E+02  0.67285442072E+02  0.00000000000E+00 0. -1.
          2    1    1    2  501    0 -0.12165722972E+03 -0.17414346150E+03 -0.14641389561E+03  0.25799894488E+03  0.00000000000E+00 0. -1.
<mgrwt>
<rscale>  4 0.29890449E+03</rscale>
<asrwt>0</asrwt>
<pdfrwt beam="1">  1       21 0.10204882E+00 0.29890449E+03</pdfrwt>
<pdfrwt beam="2">  1        2 0.43946638E-01 0.29890449E+03</pdfrwt>
<totfact> 0.10686773E+03</totfact>
</mgrwt>
</event>
<event>
 5    0  0.2947253E-001  0.2523476E+03  0.7546771E-02  0.1111830E+00
         -4   -1    0    0    0  501 -0.00000000000E+00  0.00000000000E+00  0.99488123330E+02  0.99488123330E+02  0.00000000000E+00 0. -1.
         21   -1    0    0  501  502  0.00000000000E+00 -0.00000000000E+00 -0.29164368305E+04  0.29164368305E+04  0.00000000000E+00 0. -1.
         25    1    1    2    0    0  0.13071070313E+03 -0.17598024284E+03 -0.27777954751E+04  0.27892341306E+04  0.12500000000E+03 0.  0.
         21    1    1    2  501  501 -0.22407042219E+02  0.17217118529E+02 -0.17622836522E+02  0.33302688758E+02  0.00000000000E+00 0.  1.
         -4    1    1    2    0  502 -0.10830366091E+03  0.15876312431E+03 -0.21530395500E+02  0.19338813443E+03  0.00000000000E+00 0. -1.
<mgrwt>
<rscale>  4 0.25234764E+03</rscale>
<asrwt>0</asrwt>
<pdfrwt beam="1">  1       21 0.44868263E+00 0.25234764E+03</pdfrwt>
<pdfrwt beam="2">  1       -4 0.15305864E-01 0.25234764E+03</pdfrwt>
<totfact> 0.60804161E+00</totfact>
</mgrwt>
</event>
<event>
 5    0  0.2947253E-001  0.2601116E+03  0.7546771E-02  0.1107076E+00
         -2   -1    0    0    0  501 -0.00000000000E+00  0.00000000000E+00  0.59881903186E+02  0.59881903186E+02  0.00000000000E+00 0.  1.
         21   -1    0    0  501  502  0.00000000000E+00 -0.00000000000E+00 -0.12315991087E+04  0.12315991087E+04  0.00000000000E+00 0.  1.
         25    1    1    2    0    0 -0.23716067057E+02  0.22687125877E+03 -0.88096385284E+03  0.91856155477E+03  0.12500000000E+03 0.  0.
         21    1    1    2  501  501  0.34681776715E+02 -0.16889688409E+03 -0.23714164680E+03  0.29319813051E+03  0.00000000000E+00 0.  1.
         -2    1    1    2    0  502 -0.10965709658E+02 -0.57974374686E+02 -0.53611705885E+02  0.79721326610E+02  0.00000000000E+00 0.  1.
<mgrwt>
<rscale>  4 0.26011155E+03</rscale>
<asrwt>0</asrwt>
<pdfrwt beam="1">  1       21 0.18947680E+00 0.26011155E+03</pdfrwt>
<pdfrwt beam="2">  1       -2 0.92125999E-02 0.26011155E+03</pdfrwt>
<totfact> 0.90171632E+02</totfact>
</mgrwt>
</event>
<event>
 5    0  0.2947253E-001  0.2767205E+03  0.7546771E-02  0.1097494E+00
          2   -1    0    0  502    0 -0.00000000000E+00  0.00000000000E+00  0.29599954702E+04  0.29599954702E+04  0.00000000000E+00 0. -1.
         21   -1    0    0  503  502  0.00000000000E+00 -0.00000000000E+00 -0.41401479488E+02  0.41401479488E+02  0.00000000000E+00 0.  1.
         25    1    1    2    0    0 -0.22641542277E+02  0.24583853670E+03  0.52084422660E+03  0.58979058482E+03  0.12500000000E+03 0.  0.
         21    1    1    2  503  501  0.20113819987E+02 -0.54763560199E+02  0.33670357908E+03  0.34172051950E+03  0.00000000000E+00 0.  1.
          2    1    1    2  501    0  0.25277222904E+01 -0.19107497650E+03  0.20610461850E+04  0.20698858454E+04  0.00000000000E+00 0. -1.
<mgrwt>
<rscale>  4 0.27672048E+03</rscale>
<asrwt>0</asrwt>
<pdfrwt beam="1">  1       21 0.63694607E-02 0.27672048E+03</pdfrwt>
<pdfrwt beam="2">  1        2 0.45538375E+00 0.27672048E+03</pdfrwt>
<totfact> 0.49418849E+03</totfact>
</mgrwt>
</event>
<event>
 5    0  0.5525996E-001  0.2742408E+03  0.7546771E-02  0.1098877E+00
         21   -1    0    0  503  502  0.00000000000E+00  0.00000000000E+00  0.59676523379E+03  0.59676523379E+03  0.00000000000E+00 0. -1.
          1   -1    0    0  502    0 -0.00000000000E+00 -0.00000000000E+00 -0.13017639001E+04  0.13017639001E+04  0.00000000000E+00 0.  1.
         25    1    1    2    0    0 -0.14407073183E+03 -0.20690836627E+03  0.52288833050E+03  0.59380523236E+03  0.12500000000E+03 0.  0.
         21    1    1    2  503  501  0.10614196534E+03  0.15725659506E+03 -0.20271362348E+03  0.27764827866E+03  0.00000000000E+00 0. -1.
          1    1    1    2  501    0  0.37928766491E+02  0.49651771210E+02 -0.10251733733E+04  0.10270756228E+04  0.00000000000E+00 0.  1.
<mgrwt>
<rscale>  4 0.27424079E+03</rscale>
<asrwt>0</asrwt>
<pdfrwt beam="1">  1       21 0.91810036E-01 0.27424079E+03</pdfrwt>
<pdfrwt beam="2">  1        1 0.20027137E+00 0.27424079E+03</pdfrwt>
<totfact> 0.10382986E+02</totfact>
</mgrwt>
</event>
<event>
 5    0  0.2947253E-001  0.2514763E+03  0.7546771E-02  0.1112375E+00
          1   -1    0    0  502    0 -0.00000000000E+00  0.00000000000E+00  0.13849413673E+04  0.13849413673E+04  0.00000000000E+00 0.  1.
         21   -1    0    0  503  502  0.00000000000E+00 -0.00000000000E+00 -0.10350604026E+03  0.10350604026E+03  0.00000000000E+00 0.  1.
         25    1    1    2    0    0  0.18013486691E+03  0.98253467124E+02  0.11558890322E+03  0.26662353352E+03  0.12500000000E+03 0.  0.
         21    1    1    2  503  501 -0.25760341514E+03 -0.89489455552E+02  0.73455398401E+03  0.78354159913E+03  0.00000000000E+00 0.  1.
          1    1    1    2  501    0  0.77468548221E+02 -0.87640115724E+01  0.43129243976E+03  0.43828227486E+03  0.00000000000E+00 0.  1.
<mgrwt>
<rscale>  4 0.25147628E+03</rscale>
<asrwt>0</asrwt>
<pdfrwt beam="1">  1       21 0.15924007E-01 0.25147628E+03</pdfrwt>
<pdfrwt beam="2">  1        1 0.21306789E+00 0.25147628E+03</pdfrwt>
<totfact> 0.33235748E+03</totfact>
</mgrwt>
</event>
<event>
 5    0  0.2947253E-001  0.2446549E+03  0.7546771E-02  0.1116730E+00
         21   -1    0    0  503  502  0.00000000000E+00  0.00000000000E+00  0.36148826825E+02  0.36148826825E+02  0.00000000000E+00 0. -1.
          2   -1    0    0  502    0 -0.00000000000E+00 -0.00000000000E+00 -0.21797833664E+04  0.21797833664E+04  0.00000000000E+00 0. -1.
         25    1    1    2    0    0 -0.76778344985E+02  0.18661918196E+03 -0.12965124706E+04  0.13180634354E+04  0.12500000000E+03 0.  0.
         21    1    1    2  503  501 -0.65708434453E+02 -0.41125086947E+01 -0.20152752952E+03  0.21200909471E+03  0.00000000000E+00 0.  1.
          2    1    1    2  501    0  0.14248677944E+03 -0.18250667327E+03 -0.64559453947E+03  0.68585966312E+03  0.00000000000E+00 0. -1.
<mgrwt>
<rscale>  4 0.24465487E+03</rscale>
<asrwt>0</asrwt>
<pdfrwt beam="1">  1       21 0.55613565E-02 0.24465487E+03</pdfrwt>
<pdfrwt beam="2">  1        2 0.33535137E+00 0.24465487E+03</pdfrwt>
<totfact> 0.17111352E+04</totfact>
</mgrwt>
</event>
<event>
 5    0  0.2947253E-001  0.2477277E+03  0.7546771E-02  0.1114749E+00
         21   -1    0    0  503  502  0.00000000000E+00  0.00000000000E+00  0.15884910733E+03  0.15884910733E+03  0.00000000000E+00 0.  1.
          2   -1    0    0  502    0 -0.00000000000E+00 -0.00000000000E+00 -0.92063389108E+03  0.92063389108E+03  0.00000000000E+00 0.  1.
         25    1    1    2    0    0  0.18439817906E+03  0.10835740828E+03  0.37808782876E+02  0.25059632965E+03  0.12500000000E+03 0.  0.
         21    1    1    2  503  501 -0.15595711468E+02 -0.17802901634E+02 -0.51853060710E+02  0.56999205501E+02  0.00000000000E+00 0.  1.
          2    1    1    2  501    0 -0.16880246759E+03 -0.90554506646E+02 -0.74774050592E+03  0.77188746326E+03  0.00000000000E+00 0.  1.
<mgrwt>
<rscale>  4 0.24772771E+03</rscale>
<asrwt>0</asrwt>
<pdfrwt beam="1">  1       21 0.24438324E-01 0.24772771E+03</pdfrwt>
<pdfrwt beam="2">  1        2 0.14163598E+00 0.24772771E+03</pdfrwt>
<totfact> 0.58056729E+03</totfact>
</mgrwt>
</event>
<event>
 5    0  0.2947253E-001  0.4261113E+03  0.7546771E-02  0.1035095E+00
         21   -1    0    0  503  502  0.00000000000E+00  0.00000000000E+00  0.39071998141E+03  0.39071998141E+03  0.00000000000E+00 0.  1.
          2   -1    0    0  502    0 -0.00000000000E+00 -0.00000000000E+00 -0.89043183944E+03  0.89043183944E+03  0.00000000000E+00 0.  1.
         25    1    1    2    0    0 -0.73408452390E+02 -0.40069566656E+03  0.19783903415E+03  0.46979900118E+03  0.12500000000E+03 0.  0.
         21    1    1    2  503  501  0.20337403292E+02  0.42386407353E+02 -0.45367394549E+02  0.65333130869E+02  0.00000000000E+00 0.  1.
          2    1    1    2  501    0  0.53071049097E+02  0.35830925921E+03 -0.65218349763E+03  0.74601968879E+03  0.00000000000E+00 0.  1.
<mgrwt>
<rscale>  4 0.42611127E+03</rscale>
<asrwt>0</asrwt>
<pdfrwt beam="1">  1       21 0.60110766E-01 0.42611127E+03</pdfrwt>
<pdfrwt beam="2">  1        2 0.13698951E+00 0.42611127E+03</pdfrwt>
<totfact> 0.92086684E+02</totfact>
</mgrwt>
</event>
<event>
 5    0  0.2947253E-001  0.2790328E+03  0.7546771E-02  0.1096218E+00
          4   -1    0    0  502    0 -0.00000000000E+00  0.00000000000E+00  0.11141445712E+03  0.11141445712E+03  0.00000000000E+00 0.  1.
         21   -1    0    0  503  502  0.00000000000E+00 -0.00000000000E+00 -0.79713662248E+03  0.79713662248E+03  0.00000000000E+00 0. -1.
         25    1    1    2    0    0 -0.21353331779E+03 -0.99053636125E+02 -0.34042297522E+03  0.43234350082E+03  0.12500000000E+03 0.  0.
         21    1    1    2  503  501  0.22475628518E+03  0.13845236566E+03 -0.34604177508E+03  0.43523482786E+03  0.00000000000E+00 0.  1.
          4    1    1    2  501    0 -0.11222967386E+02 -0.39398729533E+02  0.74258493876E+00  0.40972750922E+02  0.00000000000E+00 0.  1.
<mgrwt>
<rscale>  4 0.27903281E+03</rscale>
<asrwt>0</asrwt>
<pdfrwt beam="1">  1       21 0.12263641E+00 0.27903281E+03</pdfrwt>
<pdfrwt beam="2">  1        4 0.17140685E-01 0.27903281E+03</pdfrwt>
<totfact> 0.61920140E+02</totfact>
</mgrwt>
</event>
<event>
 5    0  0.2947253E-001  0.5622307E+03  0.7546771E-02  0.9987853E-01
          2   -1    0    0  502    0 -0.00000000000E+00  0.00000000000E+00  0.18609639658E+04  0.18609639658E+04  0.00000000000E+00 0. -1.
         21   -1    0    0  503  502  0.00000000000E+00 -0.00000000000E+00 -0.23028726959E+03  0.23028726959E+03  0.00000000000E+00 0. -1.
         25    1    1    2    0    0  0.58929079248E+02  0.54345678360E+03  0.27695291529E+03  0.62541652465E+03  0.12500000000E+03 0.  0.
         21    1    1    2  503  501 -0.39153257781E+02 -0.32005733984E+03  0.96014653782E+03  0.10128430542E+04  0.00000000000E+00 0. -1.
          2    1    1    2  501    0 -0.19775821467E+02 -0.22339944376E+03  0.39357724308E+03  0.45299165650E+03  0.00000000000E+00 0. -1.
<mgrwt>
<rscale>  4 0.56186066E+03</rscale>
<asrwt>0</asrwt>
<pdfrwt beam="1">  1       21 0.35428812E-01 0.56223067E+03</pdfrwt>
<pdfrwt beam="2">  1        2 0.28630214E+00 0.56223067E+03</pdfrwt>
<totfact> 0.75434162E+02</totfact>
</mgrwt>
</event>
<event>
 5    0  0.2947253E-001  0.2562273E+03  0.7546771E-02  0.1109431E+00
          1   -1    0    0  502    0 -0.00000000000E+00  0.00000000000E+00  0.18701479061E+04  0.18701479061E+04  0.00000000000E+00 0. -1.
         21   -1    0    0  503  502  0.00000000000E+00 -0.00000000000E+00 -0.33079132742E+02  0.33079132742E+02  0.00000000000E+00 0.  1.
         25    1    1    2    0    0  0.19567154218E+03  0.10835170609E+03  0.76286282049E+03  0.80474351660E+03  0.12500000000E+03 0.  0.
         21    1    1    2  503  501 -0.54486950434E+02 -0.12060729836E+02  0.34759791106E+03  0.35204913967E+03  0.00000000000E+00 0.  1.
          1    1    1    2  501    0 -0.14118459174E+03 -0.96290976255E+02  0.72660804180E+03  0.74643438256E+03  0.00000000000E+00 0. -1.
<mgrwt>
<rscale>  4 0.25622733E+03</rscale>
<asrwt>0</asrwt>
<pdfrwt beam="1">  1       21 0.50890988E-02 0.25622733E+03</pdfrwt>
<pdfrwt beam="2">  1        1 0.28771498E+00 0.25622733E+03</pdfrwt>
<totfact> 0.11972241E+04</totfact>
</mgrwt>
</event>
<event>
 5    0  0.2947253E-001  0.2576464E+03  0.7546771E-02  0.1108566E+00
          1   -1    0    0  502    0 -0.00000000000E+00  0.00000000000E+00  0.28825122377E+03  0.28825122377E+03  0.00000000000E+00 0.  1.
         21   -1    0    0  503  502  0.00000000000E+00 -0.00000000000E+00 -0.10047853784E+04  0.10047853784E+04  0.00000000000E+00 0. -1.
         25    1    1    2    0    0  0.12778060889E+03  0.18589620264E+03 -0.90285725592E+03  0.93896832041E+03  0.12500000000E+03 0.  0.
         21    1    1    2  503  501  0.47063077277E+02 -0.37958566042E+02  0.27137127631E+01  0.60523963979E+02  0.00000000000E+00 0. -1.
          1    1    1    2  501    0 -0.17484368617E+03 -0.14793763660E+03  0.18360938856E+03  0.29354431775E+03  0.00000000000E+00 0.  1.
<mgrwt>
<rscale>  4 0.25764641E+03</rscale>
<asrwt>0</asrwt>
<pdfrwt beam="1">  1       21 0.15458237E+00 0.25764641E+03</pdfrwt>
<pdfrwt beam="2">  1        1 0.44346342E-01 0.25764641E+03</pdfrwt>
<totfact> 0.26653808E+02</totfact>
</mgrwt>
</event>
<event>
 5    0  0.2947253E-001  0.2982876E+03  0.7546771E-02  0.1086100E+00
          1   -1    0    0  502    0 -0.00000000000E+00  0.00000000000E+00  0.22145450169E+04  0.22145450169E+04  0.00000000000E+00 0.  1.
         21   -1    0    0  503  502  0.00000000000E+00 -0.00000000000E+00 -0.64432648362E+02  0.64432648362E+02  0.00000000000E+00 0.  1.
         25    1    1    2    0    0 -0.10367563990E+03  0.25020363510E+03  0.35674050493E+03  0.46501536015E+03  0.12500000000E+03 0.  0.
         21    1    1    2  503  501  0.14225150275E+02 -0.14160462595E+02  0.12402644088E+03  0.12564008771E+03  0.00000000000E+00 0. -1.
          1    1    1    2  501    0  0.89450489625E+02 -0.23604317250E+03  0.16693454228E+04  0.16883222174E+04  0.00000000000E+00 0.  1.
<mgrwt>
<rscale>  4 0.29828761E+03</rscale>
<asrwt>0</asrwt>
<pdfrwt beam="1">  1       21 0.99127168E-02 0.29828761E+03</pdfrwt>
<pdfrwt beam="2">  1        1 0.34069917E+00 0.29828761E+03</pdfrwt>
<totfact> 0.22032375E+03</totfact>
</mgrwt>
</event>
<event>
 5    0  0.2947253E-001  0.5668633E+03  0.7546771E-02  0.1023807E+00
          4   -1    0    0  502    0 -0.00000000000E+00  0.00000000000E+00  0.19914415686E+04  0.19914415686E+04  0.00000000000E+00 0.  1.
         21   -1    0    0  503  502  0.00000000000E+00 -0.00000000000E+00 -0.12520137013E+03  0.12520137013E+03  0.00000000000E+00 0. -1.
         25    1    1    2    0    0  0.10444632219E+03 -0.19372131409E+03  0.11887740859E+03  0.27963157909E+03  0.12500000000E+03 0.  0.
         21    1    1    2  503  501 -0.16500733614E+03  0.13316215565E+03  0.17379657112E+04  0.17508524764E+04  0.00000000000E+00 0.  1.
          4    1    1    2  501    0  0.60561013946E+02  0.60559158442E+02  0.93970787064E+01  0.86158883289E+02  0.00000000000E+00 0.  1.
<mgrwt>
<rscale>  4 0.46337629E+03</rscale>
<asrwt>0</asrwt>
<pdfrwt beam="1">  1       21 0.19261751E-01 0.56686331E+03</pdfrwt>
<pdfrwt beam="2">  1        4 0.30637560E+00 0.56686331E+03</pdfrwt>
<totfact> 0.31575751E+01</totfact>
</mgrwt>
</event>
<event>
 5    0  0.2947253E-001  0.2541394E+03  0.7546771E-02  0.1110716E+00
          2   -1    0    0  502    0 -0.00000000000E+00  0.00000000000E+00  0.81223992189E+03  0.81223992189E+03  0.00000000000E+00 0. -1.
         21   -1    0    0  503  502  0.00000000000E+00 -0.00000000000E+00 -0.12007458964E+03  0.12007458964E+03  0.00000000000E+00 0. -1.
         25    1    1    2    0    0  0.22746136137E+03 -0.43201565370E+02  0.10530934760E+03  0.28340801834E+03  0.12500000000E+03 0.  0.
         21    1    1    2  503  501 -0.23111504211E+02  0.63248435928E+02  0.19849005352E+03  0.20960154489E+03  0.00000000000E+00 0. -1.
          2    1    1    2  501    0 -0.20434985716E+03 -0.20046870558E+02  0.38836593113E+03  0.43930494830E+03  0.00000000000E+00 0. -1.
<mgrwt>
<rscale>  4 0.25413938E+03</rscale>
<asrwt>0</asrwt>
<pdfrwt beam="1">  1       21 0.18473014E-01 0.25413938E+03</pdfrwt>
<pdfrwt beam="2">  1        2 0.12495998E+00 0.25413938E+03</pdfrwt>
<totfact> 0.11602938E+04</totfact>
</mgrwt>
</event>
<event>
 5    0  0.2947253E-001  0.2650715E+03  0.7546771E-02  0.1104134E+00
          1   -1    0    0  502    0 -0.00000000000E+00  0.00000000000E+00  0.27303479043E+03  0.27303479043E+03  0.00000000000E+00 0. -1.
         21   -1    0    0  503  502  0.00000000000E+00 -0.00000000000E+00 -0.10912315769E+04  0.10912315769E+04  0.00000000000E+00 0. -1.
         25    1    1    2    0    0  0.22027683065E+03 -0.78205058910E+02 -0.10179947985E+04  0.10519393153E+04  0.12500000000E+03 0.  0.
         21    1    1    2  503  501 -0.16131449219E+03  0.66810320310E+02  0.17545154772E+03  0.24752622061E+03  0.00000000000E+00 0. -1.
          1    1    1    2  501    0 -0.58962338454E+02  0.11394738601E+02  0.24346464322E+02  0.64800831389E+02  0.00000000000E+00 0. -1.
<mgrwt>
<rscale>  4 0.26507152E+03</rscale>
<asrwt>0</asrwt>
<pdfrwt beam="1">  1       21 0.16788178E+00 0.26507152E+03</pdfrwt>
<pdfrwt beam="2">  1        1 0.42005353E-01 0.26507152E+03</pdfrwt>
<totfact> 0.22674870E+02</totfact>
</mgrwt>
</event>
<event>
 5    0  0.2947253E-001  0.7991582E+03  0.7546771E-02  0.9581668E-01
         21   -1    0    0  503  502  0.00000000000E+00  0.00000000000E+00  0.14289010013E+04  0.14289010013E+04  0.00000000000E+00 0.  1.
          1   -1    0    0  502    0 -0.00000000000E+00 -0.00000000000E+00 -0.14985307514E+04  0.14985307514E+04  0.00000000000E+00 0. -1.
         25    1    1    2    0    0 -0.71837844384E+03 -0.15190664701E+03  0.12087561189E+04  0.14198096961E+04  0.12500000000E+03 0.  0.
         21    1    1    2  503  501  0.47730593424E+03  0.24956284359E+03 -0.83824976473E+03  0.99637605142E+03  0.00000000000E+00 0. -1.
          1    1    1    2  501    0  0.24107250960E+03 -0.97656196583E+02 -0.44013610429E+03  0.51124600528E+03  0.00000000000E+00 0. -1.
<mgrwt>
<rscale>  4 0.78521488E+03</rscale>
<asrwt>0</asrwt>
<pdfrwt beam="1">  1       21 0.21983092E+00 0.79915820E+03</pdfrwt>
<pdfrwt beam="2">  1        1 0.23054319E+00 0.79915820E+03</pdfrwt>
<totfact> 0.56656655E+00</totfact>
</mgrwt>
</event>
<event>
 5    0  0.2947253E-001  0.3360396E+03  0.7546771E-02  0.1068495E+00
          2   -1    0    0  502    0 -0.00000000000E+00  0.00000000000E+00  0.31581524119E+04  0.31581524119E+04  0.00000000000E+00 0.  1.
         21   -1    0    0  503  502  0.00000000000E+00 -0.00000000000E+00 -0.20656576359E+03  0.20656576359E+03  0.00000000000E+00 0.  1.
         25    1    1    2    0    0 -0.24432457446E+03  0.19391523245E+03 -0.55818453353E+02  0.34064397073E+03  0.12500000000E+03 0.  0.
         21    1    1    2  503  501  0.23855829109E+02 -0.14626548246E+01  0.18502939246E+03  0.18656665301E+03  0.00000000000E+00 0.  1.
          2    1    1    2  501    0  0.22046874535E+03 -0.19245257763E+03  0.28223757092E+04  0.28375075518E+04  0.00000000000E+00 0.  1.
<mgrwt>
<rscale>  4 0.33603960E+03</rscale>
<asrwt>0</asrwt>
<pdfrwt beam="1">  1       21 0.31779351E-01 0.33603960E+03</pdfrwt>
<pdfrwt beam="2">  1        2 0.48586957E+00 0.33603960E+03</pdfrwt>
<totfact> 0.18902332E+02</totfact>
</mgrwt>
</event>
<event>
 5    0  0.2947253E-001  0.5718974E+03  0.7546771E-02  0.9965489E-01
         21   -1    0    0  503  502  0.00000000000E+00  0.00000000000E+00  0.61922460464E+03  0.61922460464E+03  0.00000000000E+00 0.  1.
          4   -1    0    0  502    0 -0.00000000000E+00 -0.00000000000E+00 -0.16638272776E+04  0.16638272776E+04  0.00000000000E+00 0. -1.
         25    1    1    2    0    0 -0.34586375165E+03  0.44458629773E+03  0.40605262750E+03  0.70553699204E+03  0.12500000000E+03 0.  0.
         21    1    1    2  503  501 -0.69793301493E+01 -0.75479034331E+02 -0.61915010017E+02  0.97873715257E+02  0.00000000000E+00 0.  1.
          4    1    1    2  501    0  0.35284308180E+03 -0.36910726340E+03 -0.13887402905E+04  0.14796411750E+04  0.00000000000E+00 0. -1.
<mgrwt>
<rscale>  4 0.57189741E+03</rscale>
<asrwt>0</asrwt>
<pdfrwt beam="1">  1       21 0.95265324E-01 0.57189741E+03</pdfrwt>
<pdfrwt beam="2">  1        4 0.25597343E+00 0.57189741E+03</pdfrwt>
<totfact> 0.21777177E+00</totfact>
</mgrwt>
</event>
<event>
 5    0  0.2947253E-001  0.4382697E+03  0.7546771E-02  0.1031279E+00
          2   -1    0    0  502    0 -0.00000000000E+00  0.00000000000E+00  0.14908313559E+04  0.14908313559E+04  0.00000000000E+00 0.  1.
         21   -1    0    0  503  502  0.00000000000E+00 -0.00000000000E+00 -0.20861522936E+03  0.20861522936E+03  0.00000000000E+00 0.  1.
         25    1    1    2    0    0  0.31769542591E+03 -0.27481803519E+03  0.11208339513E+03  0.45237487062E+03  0.12500000000E+03 0.  0.
         21    1    1    2  503  501 -0.37507353385E+02  0.26046544502E+02  0.59926066997E+02  0.75341605666E+02  0.00000000000E+00 0. -1.
          2    1    1    2  501    0 -0.28018807252E+03  0.24877149069E+03  0.11102066644E+04  0.11717301090E+04  0.00000000000E+00 0.  1.
<mgrwt>
<rscale>  4 0.43826971E+03</rscale>
<asrwt>0</asrwt>
<pdfrwt beam="1">  1       21 0.32094652E-01 0.43826971E+03</pdfrwt>
<pdfrwt beam="2">  1        2 0.22935866E+00 0.43826971E+03</pdfrwt>
<totfact> 0.15065595E+03</totfact>
</mgrwt>
</event>
<event>
 5    0  0.3261619E-001  0.3176673E+03  0.7546771E-02  0.1076728E+00
          2   -1    0    0  502    0 -0.00000000000E+00  0.00000000000E+00  0.70737184544E+03  0.70737184544E+03  0.00000000000E+00 0.  1.
         21   -1    0    0  503  502  0.00000000000E+00 -0.00000000000E+00 -0.73731559959E+03  0.73731559959E+03  0.00000000000E+00 0. -1.
         25    1    1    2    0    0 -0.83469126019E+02  0.28147804335E+03 -0.65156603729E+03  0.72550691578E+03  0.12500000000E+03 0.  0.
         21    1    1    2  503  501  0.45075628822E+02 -0.16562952353E+02  0.66562601214E+01  0.48481434624E+02  0.00000000000E+00 0. -1.
          2    1    1    2  501    0  0.38393497197E+02 -0.26491509099E+03  0.61496602302E+03  0.67069909463E+03  0.00000000000E+00 0.  1.
<mgrwt>
<rscale>  4 0.31766725E+03</rscale>
<asrwt>0</asrwt>
<pdfrwt beam="1">  1       21 0.11343317E+00 0.31766725E+03</pdfrwt>
<pdfrwt beam="2">  1        2 0.10882644E+00 0.31766725E+03</pdfrwt>
<totfact> 0.29460290E+02</totfact>
</mgrwt>
</event>
<event>
 5    0  0.2947253E-001  0.2640812E+03  0.7546771E-02  0.1104716E+00
         -3   -1    0    0    0  501 -0.00000000000E+00  0.00000000000E+00  0.54097153565E+03  0.54097153565E+03  0.00000000000E+00 0. -1.
         21   -1    0    0  501  502  0.00000000000E+00 -0.00000000000E+00 -0.14233415809E+03  0.14233415809E+03  0.00000000000E+00 0. -1.
         25    1    1    2    0    0 -0.90211393508E+02  0.21441966931E+03  0.67948197607E+02  0.27268268677E+03  0.12500000000E+03 0.  0.
         21    1    1    2  501  501  0.33691873231E+02 -0.24532142804E+02  0.87721086462E+02  0.97118264824E+02  0.00000000000E+00 0.  1.
         -3    1    1    2    0  502  0.56519520276E+02 -0.18988752651E+03  0.24296809349E+03  0.31350474215E+03  0.00000000000E+00 0. -1.
<mgrwt>
<rscale>  4 0.26408122E+03</rscale>
<asrwt>0</asrwt>
<pdfrwt beam="1">  1       21 0.21897563E-01 0.26408122E+03</pdfrwt>
<pdfrwt beam="2">  1       -3 0.83226389E-01 0.26408122E+03</pdfrwt>
<totfact> 0.13093902E+03</totfact>
</mgrwt>
</event>
<event>
 5    0  0.2947253E-001  0.4687955E+03  0.7546771E-02  0.1022261E+00
          2   -1    0    0  502    0 -0.00000000000E+00  0.00000000000E+00  0.26730242013E+04  0.26730242013E+04  0.00000000000E+00 0. -1.
         21   -1    0    0  503  502  0.00000000000E+00 -0.00000000000E+00 -0.81044321047E+03  0.81044321047E+03  0.00000000000E+00 0.  1.
         25    1    1    2    0    0 -0.44982765968E+03  0.42418583402E+02 -0.72026974142E+03  0.85939383290E+03  0.12500000000E+03 0.  0.
         21    1    1    2  503  501  0.11689351667E+03 -0.49041737738E+02  0.57612064854E+03  0.58990184604E+03  0.00000000000E+00 0.  1.
          2    1    1    2  501    0  0.33293414301E+03  0.66231543363E+01  0.20067300837E+04  0.20341717328E+04  0.00000000000E+00 0. -1.
<mgrwt>
<rscale>  4 0.46879554E+03</rscale>
<asrwt>0</asrwt>
<pdfrwt beam="1">  1       21 0.12468357E+00 0.46879554E+03</pdfrwt>
<pdfrwt beam="2">  1        2 0.41123449E+00 0.46879554E+03</pdfrwt>
<totfact> 0.16256041E+01</totfact>
</mgrwt>
</event>
<event>
 5    0  0.2947253E-001  0.3769601E+03  0.7546771E-02  0.1052063E+00
          1   -1    0    0  502    0 -0.00000000000E+00  0.00000000000E+00  0.18007672920E+04  0.18007672920E+04  0.00000000000E+00 0. -1.
         21   -1    0    0  503  502  0.00000000000E+00 -0.00000000000E+00 -0.34489517676E+03  0.34489517676E+03  0.00000000000E+00 0. -1.
         25    1    1    2    0    0 -0.35808054755E+03  0.67900848351E+01 -0.21022081404E+03  0.43368833791E+03  0.12500000000E+03 0.  0.
         21    1    1    2  503  501  0.34467714753E+02 -0.55411136303E+02  0.23079157329E+03  0.23983987927E+03  0.00000000000E+00 0.  1.
          1    1    1    2  501    0  0.32361283280E+03  0.48621051468E+02  0.14353013560E+04  0.14721342516E+04  0.00000000000E+00 0. -1.
<mgrwt>
<rscale>  4 0.37696011E+03</rscale>
<asrwt>0</asrwt>
<pdfrwt beam="1">  1       21 0.53060798E-01 0.37696011E+03</pdfrwt>
<pdfrwt beam="2">  1        1 0.27704112E+00 0.37696011E+03</pdfrwt>
<totfact> 0.15594726E+02</totfact>
</mgrwt>
</event>
<event>
 5    0  0.2947253E-001  0.3156953E+03  0.7546771E-02  0.1077648E+00
         -2   -1    0    0    0  501 -0.00000000000E+00  0.00000000000E+00  0.60607515392E+03  0.60607515392E+03  0.00000000000E+00 0. -1.
         21   -1    0    0  501  502  0.00000000000E+00 -0.00000000000E+00 -0.30440529223E+03  0.30440529223E+03  0.00000000000E+00 0. -1.
         25    1    1    2    0    0 -0.28311177595E+03  0.62339696409E+02 -0.16763134370E+03  0.35744060041E+03  0.12500000000E+03 0.  0.
         21    1    1    2  501  501  0.23384562894E+02 -0.91766680965E+01  0.23693235199E+02  0.34531411979E+02  0.00000000000E+00 0. -1.
         -2    1    1    2    0  502  0.25972721305E+03 -0.53163028312E+02  0.44560797019E+03  0.51850843376E+03  0.00000000000E+00 0. -1.
<mgrwt>
<rscale>  4 0.31569529E+03</rscale>
<asrwt>0</asrwt>
<pdfrwt beam="1">  1       21 0.46831583E-01 0.31569529E+03</pdfrwt>
<pdfrwt beam="2">  1       -2 0.93242331E-01 0.31569529E+03</pdfrwt>
<totfact> 0.34557280E+02</totfact>
</mgrwt>
</event>
<event>
 5    0  0.2947253E-001  0.3123692E+03  0.7546771E-02  0.1079216E+00
          2   -1    0    0  502    0 -0.00000000000E+00  0.00000000000E+00  0.10163603040E+04  0.10163603040E+04  0.00000000000E+00 0. -1.
         21   -1    0    0  503  502  0.00000000000E+00 -0.00000000000E+00 -0.94770825843E+02  0.94770825843E+02  0.00000000000E+00 0.  1.
         25    1    1    2    0    0 -0.26983238625E+03 -0.95603230661E+02  0.35491786086E+03  0.47280141956E+03  0.12500000000E+03 0.  0.
         21    1    1    2  503  501  0.74996928083E+02 -0.33876975291E+01  0.13394476048E+03  0.15354873681E+03  0.00000000000E+00 0. -1.
          2    1    1    2  501    0  0.19483545817E+03  0.98990928190E+02  0.43272685679E+03  0.48478097344E+03  0.00000000000E+00 0. -1.
<mgrwt>
<rscale>  4 0.31236916E+03</rscale>
<asrwt>0</asrwt>
<pdfrwt beam="1">  1       21 0.14580128E-01 0.31236916E+03</pdfrwt>
<pdfrwt beam="2">  1        2 0.15636312E+00 0.31236916E+03</pdfrwt>
<totfact> 0.13115297E+04</totfact>
</mgrwt>
</event>
<event>
 5    0  0.3387609E-001  0.3820254E+03  0.7546771E-02  0.1050188E+00
         21   -1    0    0  501  502  0.00000000000E+00  0.00000000000E+00  0.12490640788E+03  0.12490640788E+03  0.00000000000E+00 0. -1.
         -2   -1    0    0    0  501 -0.00000000000E+00 -0.00000000000E+00 -0.19022740740E+04  0.19022740740E+04  0.00000000000E+00 0. -1.
         25    1    1    2    0    0 -0.34040152753E+03 -0.12018817204E+03 -0.24964278547E+03  0.45636051208E+03  0.12500000000E+03 0.  0.
         21    1    1    2  501  501  0.15764153361E+02  0.19687649978E+02 -0.12460858579E+03  0.12713540713E+03  0.00000000000E+00 0. -1.
         -2    1    1    2    0  502  0.32463737417E+03  0.10050052206E+03 -0.14031162949E+04  0.14436845627E+04  0.00000000000E+00 0. -1.
<mgrwt>
<rscale>  4 0.38202539E+03</rscale>
<asrwt>0</asrwt>
<pdfrwt beam="1">  1       21 0.19216372E-01 0.38202539E+03</pdfrwt>
<pdfrwt beam="2">  1       -2 0.29265752E+00 0.38202539E+03</pdfrwt>
<totfact> 0.77664997E+01</totfact>
</mgrwt>
</event>
<event>
 5    0  0.2947253E-001  0.2753820E+03  0.7546771E-02  0.1098238E+00
         21   -1    0    0  501  502  0.00000000000E+00  0.00000000000E+00  0.15853693860E+03  0.15853693860E+03  0.00000000000E+00 0.  1.
         -1   -1    0    0    0  501 -0.00000000000E+00 -0.00000000000E+00 -0.16082920260E+04  0.16082920260E+04  0.00000000000E+00 0. -1.
         25    1    1    2    0    0  0.23916606091E+03 -0.64407502066E+02  0.16370504304E+02  0.27792395439E+03  0.12500000000E+03 0.  0.
         21    1    1    2  501  501 -0.21434782867E+02  0.74847448407E+01 -0.32544330526E+03  0.32623429657E+03  0.00000000000E+00 0. -1.
         -1    1    1    2    0  502 -0.21773127804E+03  0.56922757225E+02 -0.11406822864E+04  0.11626707136E+04  0.00000000000E+00 0. -1.
<mgrwt>
<rscale>  4 0.27538199E+03</rscale>
<asrwt>0</asrwt>
<pdfrwt beam="1">  1       21 0.24390298E-01 0.27538199E+03</pdfrwt>
<pdfrwt beam="2">  1       -1 0.24742955E+00 0.27538199E+03</pdfrwt>
<totfact> 0.11971963E+02</totfact>
</mgrwt>
</event>
<event>
 5    0  0.2947253E-001  0.2564836E+03  0.7546771E-02  0.1109275E+00
          2   -1    0    0  502    0 -0.00000000000E+00  0.00000000000E+00  0.11883526113E+04  0.11883526113E+04  0.00000000000E+00 0.  1.
         21   -1    0    0  503  502  0.00000000000E+00 -0.00000000000E+00 -0.16081123854E+03  0.16081123854E+03  0.00000000000E+00 0.  1.
         25    1    1    2    0    0 -0.11573890065E+03 -0.19988821260E+03 -0.95805368836E+01  0.26280711053E+03  0.12500000000E+03 0.  0.
         21    1    1    2  503  501 -0.60751997083E+02  0.96081956785E+02  0.28424913898E+03  0.30613742107E+03  0.00000000000E+00 0. -1.
          2    1    1    2  501    0  0.17649089773E+03  0.10380625582E+03  0.75287277071E+03  0.78021931828E+03  0.00000000000E+00 0.  1.
<mgrwt>
<rscale>  4 0.25648363E+03</rscale>
<asrwt>0</asrwt>
<pdfrwt beam="1">  1       21 0.24740191E-01 0.25648363E+03</pdfrwt>
<pdfrwt beam="2">  1        2 0.18282347E+00 0.25648363E+03</pdfrwt>
<totfact> 0.39051276E+03</totfact>
</mgrwt>
</event>
<event>
 5    0  0.2947253E-001  0.2510240E+03  0.7546771E-02  0.1112659E+00
         21   -1    0    0  503  502  0.00000000000E+00  0.00000000000E+00  0.37991345365E+03  0.37991345365E+03  0.00000000000E+00 0. -1.
          2   -1    0    0  502    0 -0.00000000000E+00 -0.00000000000E+00 -0.29592066007E+04  0.29592066007E+04  0.00000000000E+00 0.  1.
         25    1    1    2    0    0 -0.39662686266E+02  0.21404417674E+03  0.33323863085E+03  0.41720621204E+03  0.12500000000E+03 0.  0.
         21    1    1    2  503  501 -0.25238510829E+02 -0.95904617551E+02 -0.12390747215E+04  0.12430369437E+04  0.00000000000E+00 0. -1.
          2    1    1    2  501    0  0.64901197094E+02 -0.11813955919E+03 -0.16734570564E+04  0.16788768986E+04  0.00000000000E+00 0.  1.
<mgrwt>
<rscale>  4 0.25102398E+03</rscale>
<asrwt>0</asrwt>
<pdfrwt beam="1">  1       21 0.58448225E-01 0.25102398E+03</pdfrwt>
<pdfrwt beam="2">  1        2 0.45526254E+00 0.25102398E+03</pdfrwt>
<totfact> 0.75096388E+01</totfact>
</mgrwt>
</event>
<event>
 5    0  0.2947253E-001  0.3621748E+03  0.7546771E-02  0.1057726E+00
          2   -1    0    0  502    0 -0.00000000000E+00  0.00000000000E+00  0.30530946558E+04  0.30530946558E+04  0.00000000000E+00 0.  1.
         21   -1    0    0  503  502  0.00000000000E+00 -0.00000000000E+00 -0.51588634389E+02  0.51588634389E+02  0.00000000000E+00 0.  1.
         25    1    1    2    0    0  0.33513663765E+03  0.56824258052E+02  0.81757725174E+03  0.89420530347E+03  0.12500000000E+03 0.  0.
         21    1    1    2  503  501 -0.20640471274E+02  0.42338661093E+01  0.12088886498E+03  0.12271133751E+03  0.00000000000E+00 0.  1.
          2    1    1    2  501    0 -0.31449616638E+03 -0.61058124161E+02  0.20630399047E+04  0.20877666492E+04  0.00000000000E+00 0.  1.
<mgrwt>
<rscale>  4 0.36217477E+03</rscale>
<asrwt>0</asrwt>
<pdfrwt beam="1">  1       21 0.79367154E-02 0.36217477E+03</pdfrwt>
<pdfrwt beam="2">  1        2 0.46970673E+00 0.36217477E+03</pdfrwt>
<totfact> 0.28634877E+03</totfact>
</mgrwt>
</event>
<event>
 5    0  0.2947253E-001  0.5125482E+03  0.7546771E-02  0.1010555E+00
         -1   -1    0    0    0  501 -0.00000000000E+00  0.00000000000E+00  0.45950705859E+03  0.45950705859E+03  0.00000000000E+00 0. -1.
         21   -1    0    0  501  502  0.00000000000E+00 -0.00000000000E+00 -0.94261588058E+03  0.94261588058E+03  0.00000000000E+00 0.  1.
         25    1    1    2    0    0  0.97418829814E+02  0.48777469086E+03 -0.64498840104E+03  0.82404466804E+03  0.12500000000E+03 0.  0.
         21    1    1    2  501  501 -0.50333765424E+02  0.79142033038E+01  0.41747952248E+02  0.65871193041E+02  0.00000000000E+00 0. -1.
         -1    1    1    2    0  502 -0.47085064389E+02 -0.49568889416E+03  0.12013162681E+03  0.51220707809E+03  0.00000000000E+00 0. -1.
<mgrwt>
<rscale>  4 0.51254817E+03</rscale>
<asrwt>0</asrwt>
<pdfrwt beam="1">  1       21 0.14501783E+00 0.51254817E+03</pdfrwt>
<pdfrwt beam="2">  1       -1 0.70693394E-01 0.51254817E+03</pdfrwt>
<totfact> 0.54793856E+01</totfact>
</mgrwt>
</event>
<event>
 5    0  0.2947253E-001  0.4683154E+03  0.7546771E-02  0.1022397E+00
         21   -1    0    0  503  502  0.00000000000E+00  0.00000000000E+00  0.11696304854E+03  0.11696304854E+03  0.00000000000E+00 0.  1.
          2   -1    0    0  502    0 -0.00000000000E+00 -0.00000000000E+00 -0.40240187642E+04  0.40240187642E+04  0.00000000000E+00 0.  1.
         25    1    1    2    0    0  0.40160976223E+03  0.20592203129E+03 -0.43739273215E+03  0.64080549797E+03  0.12500000000E+03 0.  0.
         21    1    1    2  503  501 -0.44198093077E+02 -0.41585496851E+02 -0.29075107318E+03  0.29701685396E+03  0.00000000000E+00 0. -1.
          2    1    1    2  501    0 -0.35741166915E+03 -0.16433653444E+03 -0.31789119103E+04  0.32031594608E+04  0.00000000000E+00 0.  1.
<mgrwt>
<rscale>  4 0.46831537E+03</rscale>
<asrwt>0</asrwt>
<pdfrwt beam="1">  1       21 0.17994316E-01 0.46831537E+03</pdfrwt>
<pdfrwt beam="2">  1        2 0.61907977E+00 0.46831537E+03</pdfrwt>
<totfact> 0.13421968E+02</totfact>
</mgrwt>
</event>
<event>
 5    0  0.2947253E-001  0.2561658E+03  0.7546771E-02  0.1109469E+00
          2   -1    0    0  502    0 -0.00000000000E+00  0.00000000000E+00  0.50901297723E+03  0.50901297723E+03  0.00000000000E+00 0.  1.
         21   -1    0    0  503  502  0.00000000000E+00 -0.00000000000E+00 -0.17637593535E+03  0.17637593535E+03  0.00000000000E+00 0.  1.
         25    1    1    2    0    0 -0.36230408216E+02 -0.22064285031E+03 -0.23226850206E+02  0.25721663330E+03  0.12500000000E+03 0.  0.
         21    1    1    2  503  501  0.44886434849E+02  0.89717428629E+02  0.20500942550E+03  0.22823863296E+03  0.00000000000E+00 0.  1.
          2    1    1    2  501    0 -0.86560266332E+01  0.13092542168E+03  0.15085446659E+03  0.19993364632E+03  0.00000000000E+00 0.  1.
<mgrwt>
<rscale>  4 0.25616579E+03</rscale>
<asrwt>0</asrwt>
<pdfrwt beam="1">  1       21 0.27134759E-01 0.25616579E+03</pdfrwt>
<pdfrwt beam="2">  1        2 0.78309688E-01 0.25616579E+03</pdfrwt>
<totfact> 0.97492293E+03</totfact>
</mgrwt>
</event>
<event>
 5    0  0.2947253E-001  0.2480162E+03  0.7546771E-02  0.1114565E+00
          2   -1    0    0  502    0 -0.00000000000E+00  0.00000000000E+00  0.17323081207E+03  0.17323081207E+03  0.00000000000E+00 0. -1.
         21   -1    0    0  503  502  0.00000000000E+00 -0.00000000000E+00 -0.37789705531E+03  0.37789705531E+03  0.00000000000E+00 0. -1.
         25    1    1    2    0    0  0.20408423276E+03 -0.65089761186E+02 -0.22014107402E+03  0.33162349667E+03  0.12500000000E+03 0.  0.
         21    1    1    2  503  501 -0.76838815930E+02  0.24424704451E+02 -0.16144720405E+02  0.82227865216E+02  0.00000000000E+00 0. -1.
          2    1    1    2  501    0 -0.12724541683E+03  0.40665056735E+02  0.31619551181E+02  0.13727650549E+03  0.00000000000E+00 0. -1.
<mgrwt>
<rscale>  4 0.24801623E+03</rscale>
<asrwt>0</asrwt>
<pdfrwt beam="1">  1       21 0.58138008E-01 0.24801623E+03</pdfrwt>
<pdfrwt beam="2">  1        2 0.26650894E-01 0.24801623E+03</pdfrwt>
<totfact> 0.67284187E+03</totfact>
</mgrwt>
</event>
<event>
 5    0  0.2947253E-001  0.2880785E+03  0.7546771E-02  0.1091357E+00
          2   -1    0    0  502    0 -0.00000000000E+00  0.00000000000E+00  0.80330892912E+03  0.80330892912E+03  0.00000000000E+00 0. -1.
         21   -1    0    0  503  502  0.00000000000E+00 -0.00000000000E+00 -0.21843776455E+03  0.21843776455E+03  0.00000000000E+00 0.  1.
         25    1    1    2    0    0 -0.27162214807E+02  0.25812095172E+03 -0.83517526438E+02  0.29994064222E+03  0.12500000000E+03 0.  0.
         21    1    1    2  503  501 -0.14711531480E+02 -0.35078787031E+02  0.48207646592E+02  0.61407879365E+02  0.00000000000E+00 0. -1.
          2    1    1    2  501    0  0.41873746288E+02 -0.22304216469E+03  0.62018104441E+03  0.66039817209E+03  0.00000000000E+00 0. -1.
<mgrwt>
<rscale>  4 0.28807848E+03</rscale>
<asrwt>0</asrwt>
<pdfrwt beam="1">  1       21 0.33605810E-01 0.28807848E+03</pdfrwt>
<pdfrwt beam="2">  1        2 0.12358599E+00 0.28807848E+03</pdfrwt>
<totfact> 0.36849249E+03</totfact>
</mgrwt>
</event>
<event>
 5    0  0.2947253E-001  0.4083001E+03  0.7546771E-02  0.1040943E+00
          2   -1    0    0  502    0 -0.00000000000E+00  0.00000000000E+00  0.31300938842E+04  0.31300938842E+04  0.00000000000E+00 0. -1.
         21   -1    0    0  503  502  0.00000000000E+00 -0.00000000000E+00 -0.59396179962E+02  0.59396179962E+02  0.00000000000E+00 0.  1.
         25    1    1    2    0    0 -0.25265273350E+03  0.29538206749E+03  0.96627204765E+03  0.10489950618E+04  0.12500000000E+03 0.  0.
         21    1    1    2  503  501  0.10330191858E+02 -0.25123418526E+02  0.10985109891E+03  0.11315989994E+03  0.00000000000E+00 0. -1.
          2    1    1    2  501    0  0.24232254165E+03 -0.27025864896E+03  0.19945745577E+04  0.20273351025E+04  0.00000000000E+00 0. -1.
<mgrwt>
<rscale>  4 0.40830010E+03</rscale>
<asrwt>0</asrwt>
<pdfrwt beam="1">  1       21 0.91378763E-02 0.40830010E+03</pdfrwt>
<pdfrwt beam="2">  1        2 0.48155278E+00 0.40830010E+03</pdfrwt>
<totfact> 0.19693508E+03</totfact>
</mgrwt>
</event>
<event>
 5    0  0.2947253E-001  0.2275136E+03  0.7546771E-02  0.1128402E+00
         21   -1    0    0  503  502  0.00000000000E+00  0.00000000000E+00  0.30668985624E+03  0.30668985624E+03  0.00000000000E+00 0. -1.
          2   -1    0    0  502    0 -0.00000000000E+00 -0.00000000000E+00 -0.48529438219E+03  0.48529438219E+03  0.00000000000E+00 0.  1.
         25    1    1    2    0    0 -0.51191062940E+02  0.23075686723E+03  0.19224165619E+03  0.32931916293E+03  0.12500000000E+03 0.  0.
         21    1    1    2  503  501  0.86211264823E+01 -0.49530166275E+02 -0.29624240599E+01  0.50362060615E+02  0.00000000000E+00 0.  1.
          2    1    1    2  501    0  0.42569936458E+02 -0.18122670095E+03 -0.36788375808E+03  0.41230301488E+03  0.00000000000E+00 0.  1.
<mgrwt>
<rscale>  4 0.22751358E+03</rscale>
<asrwt>0</asrwt>
<pdfrwt beam="1">  1       21 0.47183055E-01 0.22751358E+03</pdfrwt>
<pdfrwt beam="2">  1        2 0.74660674E-01 0.22751358E+03</pdfrwt>
<totfact> 0.34199361E+03</totfact>
</mgrwt>
</event>
<event>
 5    0  0.2947253E-001  0.3768914E+03  0.7546771E-02  0.1052089E+00
          2   -1    0    0  502    0 -0.00000000000E+00  0.00000000000E+00  0.46169228328E+03  0.46169228328E+03  0.00000000000E+00 0. -1.
         21   -1    0    0  503  502  0.00000000000E+00 -0.00000000000E+00 -0.16387893079E+04  0.16387893079E+04  0.00000000000E+00 0.  1.
         25    1    1    2    0    0  0.22670437361E+03  0.27540532163E+03 -0.15383116809E+04  0.15840677990E+04  0.12500000000E+03 0.  0.
         21    1    1    2  503  501  0.12082882089E-01 -0.26315280081E+02  0.56016410249E+02  0.61889678695E+02  0.00000000000E+00 0. -1.
          2    1    1    2  501    0 -0.22671645649E+03 -0.24909004155E+03  0.30519824599E+03  0.45452411355E+03  0.00000000000E+00 0. -1.
<mgrwt>
<rscale>  4 0.37689139E+03</rscale>
<asrwt>0</asrwt>
<pdfrwt beam="1">  1       21 0.25212143E+00 0.37689139E+03</pdfrwt>
<pdfrwt beam="2">  1        2 0.71029583E-01 0.37689139E+03</pdfrwt>
<totfact> 0.47428992E+01</totfact>
</mgrwt>
</event>
<event>
 5    0  0.2947253E-001  0.1965411E+03  0.7546771E-02  0.1152691E+00
         21   -1    0    0  503  502  0.00000000000E+00  0.00000000000E+00  0.74195156381E+02  0.74195156381E+02  0.00000000000E+00 0. -1.
          2   -1    0    0  502    0 -0.00000000000E+00 -0.00000000000E+00 -0.86713606661E+03  0.86713606661E+03  0.00000000000E+00 0.  1.
         25    1    1    2    0    0  0.20282380902E+03 -0.12760298695E+02 -0.21554155305E+03  0.32153302135E+03  0.12500000000E+03 0.  0.
         21    1    1    2  503  501 -0.61194806309E+02  0.45432538891E+00 -0.70570099453E+02  0.93408509610E+02  0.00000000000E+00 0.  1.
          2    1    1    2  501    0 -0.14162900271E+03  0.12305973306E+02 -0.50682925773E+03  0.52638969203E+03  0.00000000000E+00 0.  1.
<mgrwt>
<rscale>  4 0.19654109E+03</rscale>
<asrwt>0</asrwt>
<pdfrwt beam="1">  1       21 0.11414640E-01 0.19654109E+03</pdfrwt>
<pdfrwt beam="2">  1        2 0.13340554E+00 0.19654109E+03</pdfrwt>
<totfact> 0.25947400E+04</totfact>
</mgrwt>
</event>
<event>
 5    0  0.2947253E-001  0.2867826E+03  0.7546771E-02  0.1092041E+00
         21   -1    0    0  503  502  0.00000000000E+00  0.00000000000E+00  0.38762551890E+02  0.38762551890E+02  0.00000000000E+00 0. -1.
          2   -1    0    0  502    0 -0.00000000000E+00 -0.00000000000E+00 -0.20943451356E+04  0.20943451356E+04  0.00000000000E+00 0. -1.
         25    1    1    2    0    0 -0.43776568226E+02  0.25436762902E+03 -0.12832562193E+04  0.13149109487E+04  0.12500000000E+03 0.  0.
         21    1    1    2  503  501 -0.21153370624E+02 -0.10062771249E+03 -0.27332241134E+03  0.29202489988E+03  0.00000000000E+00 0.  1.
          2    1    1    2  501    0  0.64929938849E+02 -0.15373991653E+03 -0.49900395312E+03  0.52617183897E+03  0.00000000000E+00 0. -1.
<mgrwt>
<rscale>  4 0.28678263E+03</rscale>
<asrwt>0</asrwt>
<pdfrwt beam="1">  1       21 0.59634698E-02 0.28678263E+03</pdfrwt>
<pdfrwt beam="2">  1        2 0.32220693E+00 0.28678263E+03</pdfrwt>
<totfact> 0.16635850E+04</totfact>
</mgrwt>
</event>
<event>
 5    0  0.2947253E-001  0.2425409E+03  0.7546771E-02  0.1118112E+00
          1   -1    0    0  502    0 -0.00000000000E+00  0.00000000000E+00  0.19632698908E+04  0.19632698908E+04  0.00000000000E+00 0.  1.
         21   -1    0    0  503  502  0.00000000000E+00 -0.00000000000E+00 -0.55791569275E+02  0.55791569275E+02  0.00000000000E+00 0.  1.
         25    1    1    2    0    0  0.20364612977E+03  0.41585216490E+02  0.25087522392E+03  0.34894763845E+03  0.12500000000E+03 0.  0.
         21    1    1    2  503  501 -0.21598652896E+02 -0.77217268928E+01  0.10350528267E+03  0.10601636861E+03  0.00000000000E+00 0. -1.
          1    1    1    2  501    0 -0.18204747688E+03 -0.33863489597E+02  0.15530978150E+04  0.15640974530E+04  0.00000000000E+00 0.  1.
<mgrwt>
<rscale>  4 0.24254088E+03</rscale>
<asrwt>0</asrwt>
<pdfrwt beam="1">  1       21 0.85833198E-02 0.24254088E+03</pdfrwt>
<pdfrwt beam="2">  1        1 0.30204147E+00 0.24254088E+03</pdfrwt>
<totfact> 0.42339086E+03</totfact>
</mgrwt>
</event>
<event>
 5    0  0.2947253E-001  0.3223068E+03  0.7546771E-02  0.1074593E+00
         21   -1    0    0  503  502  0.00000000000E+00  0.00000000000E+00  0.96351252464E+02  0.96351252464E+02  0.00000000000E+00 0. -1.
          1   -1    0    0  502    0 -0.00000000000E+00 -0.00000000000E+00 -0.10548686992E+04  0.10548686992E+04  0.00000000000E+00 0. -1.
         25    1    1    2    0    0  0.29461014865E+03  0.38230212979E+02 -0.61684299364E+03  0.69597195897E+03  0.12500000000E+03 0.  0.
         21    1    1    2  503  501 -0.35151069747E+02  0.18218512380E+01 -0.64488669677E+02  0.73469077597E+02  0.00000000000E+00 0.  1.
          1    1    1    2  501    0 -0.25945907891E+03 -0.40052064217E+02 -0.27718578339E+03  0.38177891507E+03  0.00000000000E+00 0. -1.
<mgrwt>
<rscale>  4 0.32230682E+03</rscale>
<asrwt>0</asrwt>
<pdfrwt beam="1">  1       21 0.14823270E-01 0.32230682E+03</pdfrwt>
<pdfrwt beam="2">  1        1 0.16228749E+00 0.32230682E+03</pdfrwt>
<totfact> 0.63298753E+03</totfact>
</mgrwt>
</event>
<event>
 5    0  0.2947253E-001  0.5704216E+03  0.7546771E-02  0.9968746E-01
          2   -1    0    0  502    0 -0.00000000000E+00  0.00000000000E+00  0.75740048999E+03  0.75740048999E+03  0.00000000000E+00 0. -1.
         21   -1    0    0  503  502  0.00000000000E+00 -0.00000000000E+00 -0.45438641872E+03  0.45438641872E+03  0.00000000000E+00 0.  1.
         25    1    1    2    0    0  0.40561937378E+03 -0.38108886912E+03 -0.95904963774E+01  0.57050221751E+03  0.12500000000E+03 0.  0.
         21    1    1    2  503  501 -0.25208260980E+02  0.13291821616E+02  0.41321288749E+01  0.28795892634E+02  0.00000000000E+00 0. -1.
          2    1    1    2  501    0 -0.38041111280E+03  0.36779704751E+03  0.30847243877E+03  0.61248879857E+03  0.00000000000E+00 0. -1.
<mgrwt>
<rscale>  4 0.57042160E+03</rscale>
<asrwt>0</asrwt>
<pdfrwt beam="1">  1       21 0.69905603E-01 0.57042160E+03</pdfrwt>
<pdfrwt beam="2">  1        2 0.11652315E+00 0.57042160E+03</pdfrwt>
<totfact> 0.78875879E+02</totfact>
</mgrwt>
</event>
<event>
 5    0  0.2947253E-001  0.3185600E+03  0.7546771E-02  0.1076314E+00
          1   -1    0    0  502    0 -0.00000000000E+00  0.00000000000E+00  0.36565964654E+04  0.36565964654E+04  0.00000000000E+00 0. -1.
         21   -1    0    0  503  502  0.00000000000E+00 -0.00000000000E+00 -0.10308998947E+03  0.10308998947E+03  0.00000000000E+00 0.  1.
         25    1    1    2    0    0  0.18539828238E+03  0.23189126703E+03  0.18087398912E+03  0.36944077032E+03  0.12500000000E+03 0.  0.
         21    1    1    2  503  501 -0.54557892637E+02 -0.18727565999E+02  0.21122276161E+03  0.21895739403E+03  0.00000000000E+00 0.  1.
          1    1    1    2  501    0 -0.13084038974E+03 -0.21316370103E+03  0.31614097252E+04  0.31712882905E+04  0.00000000000E+00 0. -1.
<mgrwt>
<rscale>  4 0.31856003E+03</rscale>
<asrwt>0</asrwt>
<pdfrwt beam="1">  1       21 0.15860001E-01 0.31856003E+03</pdfrwt>
<pdfrwt beam="2">  1        1 0.56255320E+00 0.31856003E+03</pdfrwt>
<totfact> 0.89743995E+01</totfact>
</mgrwt>
</event>
<event>
 5    0  0.2947253E-001  0.2419504E+03  0.7546771E-02  0.1118500E+00
          2   -1    0    0  502    0 -0.00000000000E+00  0.00000000000E+00  0.15057065610E+04  0.15057065610E+04  0.00000000000E+00 0.  1.
         21   -1    0    0  503  502  0.00000000000E+00 -0.00000000000E+00 -0.17507232312E+03  0.17507232312E+03  0.00000000000E+00 0. -1.
         25    1    1    2    0    0 -0.21703927437E+03 -0.86710126013E+02 -0.40444826902E+02  0.26811467061E+03  0.12500000000E+03 0.  0.
         21    1    1    2  503  501  0.10146573695E+03  0.10596682338E+03  0.28751060859E+03  0.32277951218E+03  0.00000000000E+00 0.  1.
          2    1    1    2  501    0  0.11557353742E+03 -0.19256697367E+02  0.10835684562E+04  0.10898847014E+04  0.00000000000E+00 0.  1.
<mgrwt>
<rscale>  4 0.24195039E+03</rscale>
<asrwt>0</asrwt>
<pdfrwt beam="1">  1       21 0.26934205E-01 0.24195039E+03</pdfrwt>
<pdfrwt beam="2">  1        2 0.23164715E+00 0.24195039E+03</pdfrwt>
<totfact> 0.22321136E+03</totfact>
</mgrwt>
</event>
<event>
 5    0  0.2947253E-001  0.2617120E+03  0.7546771E-02  0.1106119E+00
          2   -1    0    0  502    0 -0.00000000000E+00  0.00000000000E+00  0.76391277092E+03  0.76391277092E+03  0.00000000000E+00 0.  1.
         21   -1    0    0  503  502  0.00000000000E+00 -0.00000000000E+00 -0.28930165094E+03  0.28930165094E+03  0.00000000000E+00 0.  1.
         25    1    1    2    0    0  0.14835044898E+03 -0.17928553172E+03 -0.19490941081E+03  0.32827707203E+03  0.12500000000E+03 0.  0.
         21    1    1    2  503  501 -0.94878215920E+02  0.19324257224E+03  0.45415818271E+03  0.50259747563E+03  0.00000000000E+00 0.  1.
          2    1    1    2  501    0 -0.53472233056E+02 -0.13957040515E+02  0.21536234809E+03  0.22233987420E+03  0.00000000000E+00 0.  1.
<mgrwt>
<rscale>  4 0.26171197E+03</rscale>
<asrwt>0</asrwt>
<pdfrwt beam="1">  1       21 0.44507946E-01 0.26171197E+03</pdfrwt>
<pdfrwt beam="2">  1        2 0.11752504E+00 0.26171197E+03</pdfrwt>
<totfact> 0.22399088E+03</totfact>
</mgrwt>
</event>
<event>
 5    0  0.2947253E-001  0.2442352E+03  0.7546771E-02  0.1117003E+00
         -4   -1    0    0    0  501 -0.00000000000E+00  0.00000000000E+00  0.63689608797E+02  0.63689608797E+02  0.00000000000E+00 0. -1.
         21   -1    0    0  501  502  0.00000000000E+00 -0.00000000000E+00 -0.86426631011E+03  0.86426631011E+03  0.00000000000E+00 0. -1.
         25    1    1    2    0    0  0.99900449248E+02  0.18451485904E+03 -0.45712907269E+03  0.51828353444E+03  0.12500000000E+03 0.  0.
         21    1    1    2  501  501 -0.30397795678E+02 -0.56247949287E+01 -0.57657061055E+02  0.65421716498E+02  0.00000000000E+00 0.  1.
         -4    1    1    2    0  502 -0.69502653570E+02 -0.17889006411E+03 -0.28579056757E+03  0.34425066797E+03  0.00000000000E+00 0. -1.
<mgrwt>
<rscale>  4 0.24423520E+03</rscale>
<asrwt>0</asrwt>
<pdfrwt beam="1">  1       21 0.13296403E+00 0.24423520E+03</pdfrwt>
<pdfrwt beam="2">  1       -4 0.97984023E-02 0.24423520E+03</pdfrwt>
<totfact> 0.13436372E+03</totfact>
</mgrwt>
</event>
<event>
 5    0  0.2947253E-001  0.3407294E+03  0.7546771E-02  0.1066486E+00
         -3   -1    0    0    0  501 -0.00000000000E+00  0.00000000000E+00  0.11312413335E+04  0.11312413335E+04  0.00000000000E+00 0. -1.
         21   -1    0    0  501  502  0.00000000000E+00 -0.00000000000E+00 -0.11009030727E+03  0.11009030727E+03  0.00000000000E+00 0. -1.
         25    1    1    2    0    0  0.20058998838E+03 -0.24542854076E+03  0.34523278288E+03  0.48505895150E+03  0.12500000000E+03 0.  0.
         21    1    1    2  501  501 -0.72330039535E+02  0.54206932209E+02  0.93761633322E+02  0.13023544065E+03  0.00000000000E+00 0. -1.
         -3    1    1    2    0  502 -0.12825994884E+03  0.19122160856E+03  0.58215661007E+03  0.62603724866E+03  0.00000000000E+00 0. -1.
<mgrwt>
<rscale>  4 0.34072938E+03</rscale>
<asrwt>0</asrwt>
<pdfrwt beam="1">  1       21 0.16936971E-01 0.34072938E+03</pdfrwt>
<pdfrwt beam="2">  1       -3 0.17403712E+00 0.34072938E+03</pdfrwt>
<totfact> 0.35356609E+02</totfact>
</mgrwt>
</event>
<event>
 5    0  0.2947253E-001  0.2415137E+03  0.7546771E-02  0.1118789E+00
          1   -1    0    0  502    0 -0.00000000000E+00  0.00000000000E+00  0.11377212244E+04  0.11377212244E+04  0.00000000000E+00 0. -1.
         21   -1    0    0  503  502  0.00000000000E+00 -0.00000000000E+00 -0.13108836584E+03  0.13108836584E+03  0.00000000000E+00 0.  1.
         25    1    1    2    0    0 -0.21280592046E+03 -0.11683166129E+02  0.18338848163E+02  0.24775828847E+03  0.12500000000E+03 0.  0.
         21    1    1    2  503  501  0.48940238248E+02  0.34394316314E+02  0.92824224026E+02  0.11042849488E+03  0.00000000000E+00 0.  1.
          1    1    1    2  501    0  0.16386568221E+03 -0.22711150185E+02  0.89546978638E+03  0.91062280691E+03  0.00000000000E+00 0. -1.
<mgrwt>
<rscale>  4 0.24151369E+03</rscale>
<asrwt>0</asrwt>
<pdfrwt beam="1">  1       21 0.20167442E-01 0.24151369E+03</pdfrwt>
<pdfrwt beam="2">  1        1 0.17503403E+00 0.24151369E+03</pdfrwt>
<totfact> 0.31837310E+03</totfact>
</mgrwt>
</event>
<event>
 5    0  0.2947253E-001  0.2791466E+03  0.7546771E-02  0.1096156E+00
         21   -1    0    0  501  502  0.00000000000E+00  0.00000000000E+00  0.78575931544E+03  0.78575931544E+03  0.00000000000E+00 0.  1.
         -2   -1    0    0    0  501 -0.00000000000E+00 -0.00000000000E+00 -0.25733367501E+03  0.25733367501E+03  0.00000000000E+00 0. -1.
         25    1    1    2    0    0  0.25688434439E+02 -0.31850011015E+03  0.57707947370E+03  0.67137763948E+03  0.12500000000E+03 0.  0.
         21    1    1    2  501  501 -0.25313634359E+02  0.77339278362E+02  0.65915261915E+02  0.10472328211E+03  0.00000000000E+00 0.  1.
         -2    1    1    2    0  502 -0.37480008063E+00  0.24116083179E+03 -0.11456909518E+03  0.26699206886E+03  0.00000000000E+00 0. -1.
<mgrwt>
<rscale>  4 0.27914663E+03</rscale>
<asrwt>0</asrwt>
<pdfrwt beam="1">  1       21 0.12088605E+00 0.27914663E+03</pdfrwt>
<pdfrwt beam="2">  1       -2 0.39589797E-01 0.27914663E+03</pdfrwt>
<totfact> 0.24366980E+02</totfact>
</mgrwt>
</event>
<event>
 5    0  0.2947253E-001  0.2510954E+03  0.7546771E-02  0.1112615E+00
         21   -1    0    0  503  502  0.00000000000E+00  0.00000000000E+00  0.57222092309E+03  0.57222092309E+03  0.00000000000E+00 0. -1.
          1   -1    0    0  502    0 -0.00000000000E+00 -0.00000000000E+00 -0.10254316812E+03  0.10254316812E+03  0.00000000000E+00 0. -1.
         25    1    1    2    0    0  0.18259769114E+03 -0.11866752484E+03  0.18782381130E+03  0.31357085699E+03  0.12500000000E+03 0.  0.
         21    1    1    2  503  501 -0.25173800109E+02 -0.34876229954E+01  0.21166712739E+02  0.33074362492E+02  0.00000000000E+00 0.  1.
          1    1    1    2  501    0 -0.15742389103E+03  0.12215514783E+03  0.26068723094E+03  0.32811887173E+03  0.00000000000E+00 0. -1.
<mgrwt>
<rscale>  4 0.25109540E+03</rscale>
<asrwt>0</asrwt>
<pdfrwt beam="1">  1       21 0.88033986E-01 0.25109540E+03</pdfrwt>
<pdfrwt beam="2">  1        1 0.15775872E-01 0.25109540E+03</pdfrwt>
<totfact> 0.40599666E+03</totfact>
</mgrwt>
</event>
<event>
 5    0  0.2947253E-001  0.3093442E+03  0.7546771E-02  0.1080661E+00
          2   -1    0    0  502    0 -0.00000000000E+00  0.00000000000E+00  0.95283836962E+03  0.95283836962E+03  0.00000000000E+00 0.  1.
         21   -1    0    0  503  502  0.00000000000E+00 -0.00000000000E+00 -0.16234272971E+03  0.16234272971E+03  0.00000000000E+00 0.  1.
         25    1    1    2    0    0  0.20142552335E+03  0.20482999294E+03  0.56942186713E+02  0.31842578427E+03  0.12500000000E+03 0.  0.
         21    1    1    2  503  501  0.12350847394E+01 -0.26688586459E+02  0.16824854034E+03  0.17035661832E+03  0.00000000000E+00 0.  1.
          2    1    1    2  501    0 -0.20266060809E+03 -0.17814140648E+03  0.56530491286E+03  0.62639869674E+03  0.00000000000E+00 0.  1.
<mgrwt>
<rscale>  4 0.30934417E+03</rscale>
<asrwt>0</asrwt>
<pdfrwt beam="1">  1       21 0.24975805E-01 0.30934417E+03</pdfrwt>
<pdfrwt beam="2">  1        2 0.14659051E+00 0.30934417E+03</pdfrwt>
<totfact> 0.52231324E+03</totfact>
</mgrwt>
</event>
<event>
 5    0  0.2947253E-001  0.2390446E+03  0.7546771E-02  0.1120431E+00
         21   -1    0    0  503  502  0.00000000000E+00  0.00000000000E+00  0.17720685784E+03  0.17720685784E+03  0.00000000000E+00 0.  1.
          2   -1    0    0  502    0 -0.00000000000E+00 -0.00000000000E+00 -0.14294160226E+04  0.14294160226E+04  0.00000000000E+00 0. -1.
         25    1    1    2    0    0 -0.18954992036E+03  0.74753765959E+02  0.84467061757E+02  0.25352905624E+03  0.12500000000E+03 0.  0.
         21    1    1    2  503  501  0.52102207445E+02 -0.12666179436E+01 -0.42602182257E+03  0.42919790033E+03  0.00000000000E+00 0. -1.
          2    1    1    2  501    0  0.13744771291E+03 -0.73487148016E+02 -0.91065440398E+03  0.92389592390E+03  0.00000000000E+00 0. -1.
<mgrwt>
<rscale>  4 0.23904455E+03</rscale>
<asrwt>0</asrwt>
<pdfrwt beam="1">  1       21 0.27262593E-01 0.23904455E+03</pdfrwt>
<pdfrwt beam="2">  1        2 0.21991016E+00 0.23904455E+03</pdfrwt>
<totfact> 0.23987971E+03</totfact>
</mgrwt>
</event>
<event>
 5    0  0.2947253E-001  0.2962509E+03  0.7546771E-02  0.1087130E+00
         21   -1    0    0  503  502  0.00000000000E+00  0.00000000000E+00  0.20205340430E+03  0.20205340430E+03  0.00000000000E+00 0.  1.
          1   -1    0    0  502    0 -0.00000000000E+00 -0.00000000000E+00 -0.68615623822E+03  0.68615623822E+03  0.00000000000E+00 0.  1.
         25    1    1    2    0    0 -0.22846717815E+03  0.14121736167E+03  0.36998503121E+02  0.29855231362E+03  0.12500000000E+03 0.  0.
         21    1    1    2  503  501  0.43897462827E+02 -0.44487876965E+02 -0.17310021855E+03  0.18403761600E+03  0.00000000000E+00 0.  1.
          1    1    1    2  501    0  0.18456971533E+03 -0.96729484710E+02 -0.34800111849E+03  0.40561971291E+03  0.00000000000E+00 0.  1.
<mgrwt>
<rscale>  4 0.29625090E+03</rscale>
<asrwt>0</asrwt>
<pdfrwt beam="1">  1       21 0.31085140E-01 0.29625090E+03</pdfrwt>
<pdfrwt beam="2">  1        1 0.10556249E+00 0.29625090E+03</pdfrwt>
<totfact> 0.31045369E+03</totfact>
</mgrwt>
</event>
<event>
 5    0  0.2947253E-001  0.2484584E+03  0.7546771E-02  0.1114283E+00
          2   -1    0    0  502    0 -0.00000000000E+00  0.00000000000E+00  0.24228554728E+04  0.24228554728E+04  0.00000000000E+00 0.  1.
         21   -1    0    0  503  502  0.00000000000E+00 -0.00000000000E+00 -0.23361087679E+02  0.23361087679E+02  0.00000000000E+00 0.  1.
         25    1    1    2    0    0 -0.11726290954E+03  0.17987763653E+03  0.13711080663E+04  0.13934377932E+04  0.12500000000E+03 0.  0.
         21    1    1    2  503  501  0.20607261827E+02 -0.26322574847E+02  0.72655897062E+02  0.79977600392E+02  0.00000000000E+00 0. -1.
          2    1    1    2  501    0  0.96655647712E+02 -0.15355506168E+03  0.95573042175E+03  0.97280116687E+03  0.00000000000E+00 0.  1.
<mgrwt>
<rscale>  4 0.24845835E+03</rscale>
<asrwt>0</asrwt>
<pdfrwt beam="1">  1       21 0.35940154E-02 0.24845835E+03</pdfrwt>
<pdfrwt beam="2">  1        2 0.37274680E+00 0.24845835E+03</pdfrwt>
<totfact> 0.26554111E+04</totfact>
</mgrwt>
</event>
<event>
 5    0  0.2947253E-001  0.2825069E+03  0.7546771E-02  0.1094328E+00
          1   -1    0    0  502    0 -0.00000000000E+00  0.00000000000E+00  0.22954127358E+04  0.22954127358E+04  0.00000000000E+00 0.  1.
         21   -1    0    0  503  502  0.00000000000E+00 -0.00000000000E+00 -0.40656872254E+02  0.40656872254E+02  0.00000000000E+00 0.  1.
         25    1    1    2    0    0  0.36764096117E+02 -0.25066626125E+03  0.62963327227E+03  0.69010740529E+03  0.12500000000E+03 0.  0.
         21    1    1    2  503  501 -0.37952532948E+01  0.14713546194E+03  0.10925119404E+04  0.11023817796E+04  0.00000000000E+00 0.  1.
          1    1    1    2  501    0 -0.32968842823E+02  0.10353079931E+03  0.53261065096E+03  0.54358042323E+03  0.00000000000E+00 0.  1.
<mgrwt>
<rscale>  4 0.28250694E+03</rscale>
<asrwt>0</asrwt>
<pdfrwt beam="1">  1       21 0.62549052E-02 0.28250694E+03</pdfrwt>
<pdfrwt beam="2">  1        1 0.35314032E+00 0.28250694E+03</pdfrwt>
<totfact> 0.44007533E+03</totfact>
</mgrwt>
</event>
<event>
 5    0  0.2947253E-001  0.2314021E+03  0.7546771E-02  0.1125657E+00
          2   -1    0    0  502    0 -0.00000000000E+00  0.00000000000E+00  0.60442801449E+03  0.60442801449E+03  0.00000000000E+00 0.  1.
         21   -1    0    0  503  502  0.00000000000E+00 -0.00000000000E+00 -0.15525620071E+03  0.15525620071E+03  0.00000000000E+00 0.  1.
         25    1    1    2    0    0  0.17581792523E+03  0.97124836873E+02  0.30297586416E+02  0.23851230683E+03  0.12500000000E+03 0.  0.
         21    1    1    2  503  501  0.25588292512E+02 -0.10449288964E+03  0.16593512731E+03  0.19775740485E+03  0.00000000000E+00 0.  1.
          2    1    1    2  501    0 -0.20140621774E+03  0.73680527630E+01  0.25293910005E+03  0.32341450351E+03  0.00000000000E+00 0.  1.
<mgrwt>
<rscale>  4 0.23140210E+03</rscale>
<asrwt>0</asrwt>
<pdfrwt beam="1">  1       21 0.23885570E-01 0.23140210E+03</pdfrwt>
<pdfrwt beam="2">  1        2 0.92988924E-01 0.23140210E+03</pdfrwt>
<totfact> 0.10291627E+04</totfact>
</mgrwt>
</event>
<event>
 5    0  0.2947253E-001  0.2291293E+03  0.7546771E-02  0.1127254E+00
          2   -1    0    0  502    0 -0.00000000000E+00  0.00000000000E+00  0.13038330609E+04  0.13038330609E+04  0.00000000000E+00 0. -1.
         21   -1    0    0  503  502  0.00000000000E+00 -0.00000000000E+00 -0.53042291978E+02  0.53042291978E+02  0.00000000000E+00 0. -1.
         25    1    1    2    0    0  0.18424304740E+03  0.78698069356E+02  0.87770707027E+03  0.90891891159E+03  0.12500000000E+03 0.  0.
         21    1    1    2  503  501 -0.13403486661E+01 -0.64377156347E+02  0.10212914830E+03  0.12073349878E+03  0.00000000000E+00 0. -1.
          2    1    1    2  501    0 -0.18290269874E+03 -0.14320913009E+02  0.27095455036E+03  0.32722294253E+03  0.00000000000E+00 0. -1.
<mgrwt>
<rscale>  4 0.22912932E+03</rscale>
<asrwt>0</asrwt>
<pdfrwt beam="1">  1       21 0.81603536E-02 0.22912932E+03</pdfrwt>
<pdfrwt beam="2">  1        2 0.20058968E+00 0.22912932E+03</pdfrwt>
<totfact> 0.25714744E+04</totfact>
</mgrwt>
</event>
<event>
 5    0  0.2947253E-001  0.2277569E+03  0.7546771E-02  0.1128229E+00
         21   -1    0    0  503  502  0.00000000000E+00  0.00000000000E+00  0.30336842039E+02  0.30336842039E+02  0.00000000000E+00 0.  1.
          2   -1    0    0  502    0 -0.00000000000E+00 -0.00000000000E+00 -0.26148872090E+04  0.26148872090E+04  0.00000000000E+00 0.  1.
         25    1    1    2    0    0 -0.17955327208E+03 -0.10918946560E+03 -0.87991967434E+03  0.91326083361E+03  0.12500000000E+03 0.  0.
         21    1    1    2  503  501 -0.10369178484E+02  0.10273873725E+03 -0.38036977067E+03  0.39413694375E+03  0.00000000000E+00 0.  1.
          2    1    1    2  501    0  0.18992245057E+03  0.64507283557E+01 -0.13242609220E+04  0.13378262737E+04  0.00000000000E+00 0.  1.
<mgrwt>
<rscale>  4 0.22775691E+03</rscale>
<asrwt>0</asrwt>
<pdfrwt beam="1">  1       21 0.46672035E-02 0.22775691E+03</pdfrwt>
<pdfrwt beam="2">  1        2 0.40229060E+00 0.22775691E+03</pdfrwt>
<totfact> 0.13515290E+04</totfact>
</mgrwt>
</event>
<event>
 5    0  0.2947253E-001  0.2677104E+03  0.7546771E-02  0.1102597E+00
         21   -1    0    0  503  502  0.00000000000E+00  0.00000000000E+00  0.30344948458E+03  0.30344948458E+03  0.00000000000E+00 0. -1.
          2   -1    0    0  502    0 -0.00000000000E+00 -0.00000000000E+00 -0.38392372370E+03  0.38392372370E+03  0.00000000000E+00 0.  1.
         25    1    1    2    0    0 -0.23190460721E+03 -0.68172314473E+02  0.17340733152E+03  0.32267989391E+03  0.12500000000E+03 0.  0.
         21    1    1    2  503  501  0.25739326867E+02 -0.13757554003E+02 -0.72434433514E+02  0.78093088031E+02  0.00000000000E+00 0.  1.
          2    1    1    2  501    0  0.20616528034E+03  0.81929868475E+02 -0.18144713713E+03  0.28660022635E+03  0.00000000000E+00 0.  1.
<mgrwt>
<rscale>  4 0.26771040E+03</rscale>
<asrwt>0</asrwt>
<pdfrwt beam="1">  1       21 0.46684536E-01 0.26771040E+03</pdfrwt>
<pdfrwt beam="2">  1        2 0.59065188E-01 0.26771040E+03</pdfrwt>
<totfact> 0.44716564E+03</totfact>
</mgrwt>
</event>
<event>
 5    0  0.2947253E-001  0.2264468E+03  0.7546771E-02  0.1129166E+00
          2   -1    0    0  502    0 -0.00000000000E+00  0.00000000000E+00  0.64448025151E+03  0.64448025151E+03  0.00000000000E+00 0.  1.
         21   -1    0    0  503  502  0.00000000000E+00 -0.00000000000E+00 -0.87519613987E+02  0.87519613987E+02  0.00000000000E+00 0.  1.
         25    1    1    2    0    0  0.96600117264E+02  0.18105270879E+03  0.22302126428E+03  0.32783402864E+03  0.12500000000E+03 0.  0.
         21    1    1    2  503  501 -0.81599427357E+02 -0.15502827753E+03  0.19552893911E+03  0.26253342532E+03  0.00000000000E+00 0.  1.
          2    1    1    2  501    0 -0.15000689907E+02 -0.26024431257E+02  0.13841043413E+03  0.14163241153E+03  0.00000000000E+00 0.  1.
<mgrwt>
<rscale>  4 0.22644679E+03</rscale>
<asrwt>0</asrwt>
<pdfrwt beam="1">  1       21 0.13464556E-01 0.22644679E+03</pdfrwt>
<pdfrwt beam="2">  1        2 0.99150805E-01 0.22644679E+03</pdfrwt>
<totfact> 0.27711755E+04</totfact>
</mgrwt>
</event>
<event>
 5    0  0.2947253E-001  0.3901163E+03  0.7546771E-02  0.1047257E+00
         21   -1    0    0  503  502  0.00000000000E+00  0.00000000000E+00  0.74103235460E+03  0.74103235460E+03  0.00000000000E+00 0. -1.
          1   -1    0    0  502    0 -0.00000000000E+00 -0.00000000000E+00 -0.52579581164E+03  0.52579581164E+03  0.00000000000E+00 0. -1.
         25    1    1    2    0    0 -0.34981225822E+03  0.14637555564E+03  0.58444288112E+03  0.70780851971E+03  0.12500000000E+03 0.  0.
         21    1    1    2  503  501  0.34650493232E+02 -0.93104975387E+02 -0.73462277174E+02  0.12355524793E+03  0.00000000000E+00 0. -1.
          1    1    1    2  501    0  0.31516176499E+03 -0.53270580257E+02 -0.29574406099E+03  0.43546439859E+03  0.00000000000E+00 0. -1.
<mgrwt>
<rscale>  4 0.39011632E+03</rscale>
<asrwt>0</asrwt>
<pdfrwt beam="1">  1       21 0.11400498E+00 0.39011632E+03</pdfrwt>
<pdfrwt beam="2">  1        1 0.80891663E-01 0.39011632E+03</pdfrwt>
<totfact> 0.25332071E+02</totfact>
</mgrwt>
</event>
<event>
 5    0  0.2947253E-001  0.3731411E+03  0.7546771E-02  0.1053498E+00
          4   -1    0    0  502    0 -0.00000000000E+00  0.00000000000E+00  0.92183568251E+03  0.92183568251E+03  0.00000000000E+00 0. -1.
         21   -1    0    0  503  502  0.00000000000E+00 -0.00000000000E+00 -0.18926926086E+03  0.18926926086E+03  0.00000000000E+00 0.  1.
         25    1    1    2    0    0  0.26458788935E+03  0.23152222634E+03  0.10608352799E+03  0.38792783787E+03  0.12500000000E+03 0.  0.
         21    1    1    2  503  501 -0.37931756679E+02 -0.11819688174E+01  0.72391920921E+02  0.81736194123E+02  0.00000000000E+00 0. -1.
          4    1    1    2  501    0 -0.22665613267E+03 -0.23034025753E+03  0.55409097274E+03  0.64144091138E+03  0.00000000000E+00 0. -1.
<mgrwt>
<rscale>  4 0.37314112E+03</rscale>
<asrwt>0</asrwt>
<pdfrwt beam="1">  1       21 0.29118348E-01 0.37314112E+03</pdfrwt>
<pdfrwt beam="2">  1        4 0.14182087E+00 0.37314112E+03</pdfrwt>
<totfact> 0.16931818E+02</totfact>
</mgrwt>
</event>
<event>
 5    0  0.2947253E-001  0.3038181E+03  0.7546771E-02  0.1083347E+00
         21   -1    0    0  503  502  0.00000000000E+00  0.00000000000E+00  0.16887940134E+03  0.16887940134E+03  0.00000000000E+00 0. -1.
          2   -1    0    0  502    0 -0.00000000000E+00 -0.00000000000E+00 -0.96974464429E+03  0.96974464429E+03  0.00000000000E+00 0. -1.
         25    1    1    2    0    0 -0.28267517924E+03 -0.13213249592E+02 -0.29023402212E+02  0.31072046086E+03  0.12500000000E+03 0.  0.
         21    1    1    2  503  501  0.32218741030E+02  0.18347047939E+02 -0.40792856961E+02  0.55124573655E+02  0.00000000000E+00 0.  1.
          2    1    1    2  501    0  0.25045643821E+03 -0.51337983469E+01 -0.73104898378E+03  0.77277901111E+03  0.00000000000E+00 0. -1.
<mgrwt>
<rscale>  4 0.30381810E+03</rscale>
<asrwt>0</asrwt>
<pdfrwt beam="1">  1       21 0.25981446E-01 0.30381810E+03</pdfrwt>
<pdfrwt beam="2">  1        2 0.14919148E+00 0.30381810E+03</pdfrwt>
<totfact> 0.47287339E+03</totfact>
</mgrwt>
</event>
<event>
 5    0  0.2947253E-001  0.2808800E+03  0.7546771E-02  0.1095209E+00
         21   -1    0    0  503  502  0.00000000000E+00  0.00000000000E+00  0.35184859361E+03  0.35184859361E+03  0.00000000000E+00 0. -1.
          2   -1    0    0  502    0 -0.00000000000E+00 -0.00000000000E+00 -0.11777202726E+04  0.11777202726E+04  0.00000000000E+00 0. -1.
         25    1    1    2    0    0  0.95967005074E+02 -0.23250577657E+03  0.27857805644E+03  0.39559996933E+03  0.12500000000E+03 0.  0.
         21    1    1    2  503  501 -0.51639847314E+02  0.88763333131E+02 -0.35409751933E+03  0.36868774909E+03  0.00000000000E+00 0. -1.
          2    1    1    2  501    0 -0.44327157760E+02  0.14374244344E+03 -0.75035221607E+03  0.76528114776E+03  0.00000000000E+00 0. -1.
<mgrwt>
<rscale>  4 0.28088005E+03</rscale>
<asrwt>0</asrwt>
<pdfrwt beam="1">  1       21 0.54130552E-01 0.28088005E+03</pdfrwt>
<pdfrwt beam="2">  1        2 0.18118774E+00 0.28088005E+03</pdfrwt>
<totfact> 0.80851257E+02</totfact>
</mgrwt>
</event>
<event>
 5    0  0.2947253E-001  0.3359480E+03  0.7546771E-02  0.1068535E+00
          2   -1    0    0  502    0 -0.00000000000E+00  0.00000000000E+00  0.87003255361E+03  0.87003255361E+03  0.00000000000E+00 0.  1.
         21   -1    0    0  503  502  0.00000000000E+00 -0.00000000000E+00 -0.70434228507E+03  0.70434228507E+03  0.00000000000E+00 0. -1.
         25    1    1    2    0    0 -0.15800299905E+03 -0.25765376329E+03 -0.44469906895E+03  0.55202596983E+03  0.12500000000E+03 0.  0.
         21    1    1    2  503  501  0.40159527036E+03  0.15322174730E+03  0.91165363936E+02  0.43939366017E+03  0.00000000000E+00 0.  1.
          2    1    1    2  501    0 -0.24359227131E+03  0.10443201599E+03  0.51922397355E+03  0.58295520867E+03  0.00000000000E+00 0.  1.
<mgrwt>
<rscale>  4 0.33594800E+03</rscale>
<asrwt>0</asrwt>
<pdfrwt beam="1">  1       21 0.10836035E+00 0.33594800E+03</pdfrwt>
<pdfrwt beam="2">  1        2 0.13385116E+00 0.33594800E+03</pdfrwt>
<totfact> 0.25094640E+02</totfact>
</mgrwt>
</event>
<event>
 5    0  0.2947253E-001  0.4990406E+03  0.7546771E-02  0.1014069E+00
         21   -1    0    0  501  502  0.00000000000E+00  0.00000000000E+00  0.28810905203E+03  0.28810905203E+03  0.00000000000E+00 0. -1.
         -3   -1    0    0    0  501 -0.00000000000E+00 -0.00000000000E+00 -0.87852493877E+03  0.87852493877E+03  0.00000000000E+00 0. -1.
         25    1    1    2    0    0 -0.43958782309E+03 -0.19892850050E+03 -0.37170206136E+03  0.62176959152E+03  0.12500000000E+03 0.  0.
         21    1    1    2  501  501  0.13936381540E+03  0.26381927785E+01 -0.46269010968E+02  0.14686747251E+03  0.00000000000E+00 0. -1.
         -3    1    1    2    0  502  0.30022400769E+03  0.19629030772E+03 -0.17244481442E+03  0.39799692677E+03  0.00000000000E+00 0. -1.
<mgrwt>
<rscale>  4 0.49888855E+03</rscale>
<asrwt>0</asrwt>
<pdfrwt beam="1">  1       21 0.44324471E-01 0.49904056E+03</pdfrwt>
<pdfrwt beam="2">  1       -3 0.13515768E+00 0.49904056E+03</pdfrwt>
<totfact> 0.99920385E+01</totfact>
</mgrwt>
</event>
<event>
 5    0  0.3413126E-001  0.3157650E+03  0.7546771E-02  0.1077615E+00
         21   -1    0    0  503  502  0.00000000000E+00  0.00000000000E+00  0.15690303534E+03  0.15690303534E+03  0.00000000000E+00 0. -1.
          2   -1    0    0  502    0 -0.00000000000E+00 -0.00000000000E+00 -0.15394526500E+04  0.15394526500E+04  0.00000000000E+00 0. -1.
         25    1    1    2    0    0 -0.59749648592E+02  0.28564773443E+03 -0.40422088340E+02  0.32003686337E+03  0.12500000000E+03 0.  0.
         21    1    1    2  503  501 -0.17141012886E+02 -0.19064319283E+02 -0.78121282673E+02  0.82220419599E+02  0.00000000000E+00 0.  1.
          2    1    1    2  501    0  0.76890661478E+02 -0.26658341515E+03 -0.12640062437E+04  0.12940984024E+04  0.00000000000E+00 0. -1.
<mgrwt>
<rscale>  4 0.31576496E+03</rscale>
<asrwt>0</asrwt>
<pdfrwt beam="1">  1       21 0.24138928E-01 0.31576496E+03</pdfrwt>
<pdfrwt beam="2">  1        2 0.23683888E+00 0.31576496E+03</pdfrwt>
<totfact> 0.25705222E+03</totfact>
</mgrwt>
</event>
<event>
 5    0  0.4390943E-001  0.2778052E+03  0.7546771E-02  0.1096894E+00
          2   -1    0    0  502    0 -0.00000000000E+00  0.00000000000E+00  0.21792221829E+04  0.21792221829E+04  0.00000000000E+00 0. -1.
         21   -1    0    0  503  502  0.00000000000E+00 -0.00000000000E+00 -0.26827837033E+03  0.26827837033E+03  0.00000000000E+00 0.  1.
         25    1    1    2    0    0  0.32911405445E+02  0.24655389994E+03 -0.18418543336E+03  0.33379823254E+03  0.12500000000E+03 0.  0.
         21    1    1    2  503  501  0.92737797085E+01 -0.19883601348E+02  0.39506740902E+02  0.45190078218E+02  0.00000000000E+00 0.  1.
          2    1    1    2  501    0 -0.42185185153E+02 -0.22667029860E+03  0.20556225050E+04  0.20685122425E+04  0.00000000000E+00 0. -1.
<mgrwt>
<rscale>  4 0.27780516E+03</rscale>
<asrwt>0</asrwt>
<pdfrwt beam="1">  1       21 0.41273597E-01 0.27780516E+03</pdfrwt>
<pdfrwt beam="2">  1        2 0.33526494E+00 0.27780516E+03</pdfrwt>
<totfact> 0.41387606E+02</totfact>
</mgrwt>
</event>
<event>
 5    0  0.2947253E-001  0.2341563E+03  0.7546771E-02  0.1123748E+00
          2   -1    0    0  502    0 -0.00000000000E+00  0.00000000000E+00  0.28254361843E+04  0.28254361843E+04  0.00000000000E+00 0. -1.
         21   -1    0    0  503  502  0.00000000000E+00 -0.00000000000E+00 -0.31598050073E+02  0.31598050073E+02  0.00000000000E+00 0. -1.
         25    1    1    2    0    0  0.78204288124E+02 -0.19444380012E+03  0.84960439595E+03  0.88395527698E+03  0.12500000000E+03 0.  0.
         21    1    1    2  503  501 -0.12760797099E+02  0.16431618218E+02  0.13315212491E+04  0.13316837735E+04  0.00000000000E+00 0. -1.
          2    1    1    2  501    0 -0.65443491025E+02  0.17801218190E+03  0.61271248925E+03  0.64139518389E+03  0.00000000000E+00 0. -1.
<mgrwt>
<rscale>  4 0.23415631E+03</rscale>
<asrwt>0</asrwt>
<pdfrwt beam="1">  1       21 0.48612407E-02 0.23415631E+03</pdfrwt>
<pdfrwt beam="2">  1        2 0.43468229E+00 0.23415631E+03</pdfrwt>
<totfact> 0.95779895E+03</totfact>
</mgrwt>
</event>
<event>
 5    0  0.2947253E-001  0.2983409E+03  0.7546771E-02  0.1086073E+00
          2   -1    0    0  502    0 -0.00000000000E+00  0.00000000000E+00  0.12016934989E+04  0.12016934989E+04  0.00000000000E+00 0.  1.
         21   -1    0    0  503  502  0.00000000000E+00 -0.00000000000E+00 -0.92087422442E+02  0.92087422442E+02  0.00000000000E+00 0. -1.
         25    1    1    2    0    0 -0.13200701157E+03 -0.23655112456E+03  0.24950796508E+03  0.38892352754E+03  0.12500000000E+03 0.  0.
         21    1    1    2  503  501  0.37896191796E+02  0.33799191063E+02  0.94295669570E+02  0.10709892609E+03  0.00000000000E+00 0. -1.
          2    1    1    2  501    0  0.94110819777E+02  0.20275193349E+03  0.76580244178E+03  0.79775846769E+03  0.00000000000E+00 0.  1.
<mgrwt>
<rscale>  4 0.29834089E+03</rscale>
<asrwt>0</asrwt>
<pdfrwt beam="1">  1       21 0.14167297E-01 0.29834089E+03</pdfrwt>
<pdfrwt beam="2">  1        2 0.18487591E+00 0.29834089E+03</pdfrwt>
<totfact> 0.10773712E+04</totfact>
</mgrwt>
</event>
<event>
 5    0  0.2947253E-001  0.4657515E+03  0.7546771E-02  0.1023126E+00
         21   -1    0    0  503  502  0.00000000000E+00  0.00000000000E+00  0.12637809071E+03  0.12637809071E+03  0.00000000000E+00 0.  1.
          2   -1    0    0  502    0 -0.00000000000E+00 -0.00000000000E+00 -0.31923555264E+04  0.31923555264E+04  0.00000000000E+00 0. -1.
         25    1    1    2    0    0  0.44657565129E+03 -0.53723105586E+02 -0.40774348845E+03  0.61983524970E+03  0.12500000000E+03 0.  0.
         21    1    1    2  503  501 -0.42553202967E+01  0.20696178002E+02 -0.18533070572E+03  0.18653125748E+03  0.00000000000E+00 0.  1.
          2    1    1    2  501    0 -0.44232033099E+03  0.33026927584E+02 -0.24729032415E+04  0.25123671099E+04  0.00000000000E+00 0. -1.
<mgrwt>
<rscale>  4 0.46575152E+03</rscale>
<asrwt>0</asrwt>
<pdfrwt beam="1">  1       21 0.19442785E-01 0.46575152E+03</pdfrwt>
<pdfrwt beam="2">  1        2 0.49113156E+00 0.46575152E+03</pdfrwt>
<totfact> 0.44078503E+02</totfact>
</mgrwt>
</event>
<event>
 5    0  0.2947253E-001  0.3321685E+03  0.7546771E-02  0.1070181E+00
          2   -1    0    0  502    0 -0.00000000000E+00  0.00000000000E+00  0.10913963435E+04  0.10913963435E+04  0.00000000000E+00 0. -1.
         21   -1    0    0  503  502  0.00000000000E+00 -0.00000000000E+00 -0.20634212504E+03  0.20634212504E+03  0.00000000000E+00 0. -1.
         25    1    1    2    0    0 -0.29912823443E+02 -0.30629419888E+03 -0.26204074641E+02  0.33320049040E+03  0.12500000000E+03 0.  0.
         21    1    1    2  503  501 -0.12942431706E+02  0.26514603278E+02  0.51085671756E+02  0.58993869039E+02  0.00000000000E+00 0. -1.
          2    1    1    2  501    0  0.42855255149E+02  0.27977959560E+03  0.86017262132E+03  0.90554410908E+03  0.00000000000E+00 0. -1.
<mgrwt>
<rscale>  4 0.33216850E+03</rscale>
<asrwt>0</asrwt>
<pdfrwt beam="1">  1       21 0.31744943E-01 0.33216850E+03</pdfrwt>
<pdfrwt beam="2">  1        2 0.16790713E+00 0.33216850E+03</pdfrwt>
<totfact> 0.26690437E+03</totfact>
</mgrwt>
</event>
<event>
 5    0  0.2947253E-001  0.2390034E+03  0.7546771E-02  0.1120459E+00
         21   -1    0    0  503  502  0.00000000000E+00  0.00000000000E+00  0.67324921666E+02  0.67324921666E+02  0.00000000000E+00 0. -1.
          1   -1    0    0  502    0 -0.00000000000E+00 -0.00000000000E+00 -0.16092172878E+04  0.16092172878E+04  0.00000000000E+00 0.  1.
         25    1    1    2    0    0  0.62599803083E+02 -0.19385269736E+03 -0.18036341657E+03  0.29942205272E+03  0.12500000000E+03 0.  0.
         21    1    1    2  503  501 -0.22293968870E+02  0.28122937253E+02 -0.25980916960E+03  0.26227604781E+03  0.00000000000E+00 0.  1.
          1    1    1    2  501    0 -0.40305834214E+02  0.16572976011E+03 -0.11017197800E+04  0.11148441090E+04  0.00000000000E+00 0.  1.
<mgrwt>
<rscale>  4 0.23900335E+03</rscale>
<asrwt>0</asrwt>
<pdfrwt beam="1">  1       21 0.10357679E-01 0.23900335E+03</pdfrwt>
<pdfrwt beam="2">  1        1 0.24757191E+00 0.23900335E+03</pdfrwt>
<totfact> 0.51630416E+03</totfact>
</mgrwt>
</event>
<event>
 5    0  0.2947253E-001  0.3793145E+03  0.7546771E-02  0.1051187E+00
         21   -1    0    0  503  502  0.00000000000E+00  0.00000000000E+00  0.68033330405E+02  0.68033330405E+02  0.00000000000E+00 0. -1.
          2   -1    0    0  502    0 -0.00000000000E+00 -0.00000000000E+00 -0.27164119003E+04  0.27164119003E+04  0.00000000000E+00 0.  1.
         25    1    1    2    0    0 -0.28638088310E+03 -0.21503593006E+03 -0.64123497628E+03  0.74502466820E+03  0.12500000000E+03 0.  0.
         21    1    1    2  503  501  0.31888959483E+02  0.17716637103E+02 -0.29594504549E+03  0.29818493409E+03  0.00000000000E+00 0.  1.
          2    1    1    2  501    0  0.25449192362E+03  0.19731929296E+03 -0.17111985481E+04  0.17412356284E+04  0.00000000000E+00 0.  1.
<mgrwt>
<rscale>  4 0.37931446E+03</rscale>
<asrwt>0</asrwt>
<pdfrwt beam="1">  1       21 0.10466666E-01 0.37931446E+03</pdfrwt>
<pdfrwt beam="2">  1        2 0.41790953E+00 0.37931446E+03</pdfrwt>
<totfact> 0.27413511E+03</totfact>
</mgrwt>
</event>
<event>
 5    0  0.2947253E-001  0.2051715E+03  0.7546771E-02  0.1145448E+00
         21   -1    0    0  503  502  0.00000000000E+00  0.00000000000E+00  0.21992933305E+03  0.21992933305E+03  0.00000000000E+00 0. -1.
          1   -1    0    0  502    0 -0.00000000000E+00 -0.00000000000E+00 -0.92817125535E+03  0.92817125535E+03  0.00000000000E+00 0.  1.
         25    1    1    2    0    0 -0.13003584849E+03  0.16982885090E+03  0.11664281124E+03  0.27382787642E+03  0.12500000000E+03 0.  0.
         21    1    1    2  503  501  0.96568005910E+01 -0.63363170250E+02 -0.45776856075E+02  0.78763352480E+02  0.00000000000E+00 0. -1.
          1    1    1    2  501    0  0.12037904790E+03 -0.10646568065E+03 -0.77910787746E+03  0.79550935950E+03  0.00000000000E+00 0.  1.
<mgrwt>
<rscale>  4 0.20517147E+03</rscale>
<asrwt>0</asrwt>
<pdfrwt beam="1">  1       21 0.33835282E-01 0.20517147E+03</pdfrwt>
<pdfrwt beam="2">  1        1 0.14279558E+00 0.20517147E+03</pdfrwt>
<totfact> 0.17026519E+03</totfact>
</mgrwt>
</event>
<event>
 5    0  0.2947253E-001  0.2807088E+03  0.7546771E-02  0.1095302E+00
         21   -1    0    0  503  502  0.00000000000E+00  0.00000000000E+00  0.82624019074E+02  0.82624019074E+02  0.00000000000E+00 0.  1.
          2   -1    0    0  502    0 -0.00000000000E+00 -0.00000000000E+00 -0.17899046319E+04  0.17899046319E+04  0.00000000000E+00 0. -1.
         25    1    1    2    0    0 -0.25227492852E+03  0.45076611986E+02 -0.23354251124E+03  0.36856701570E+03  0.12500000000E+03 0.  0.
         21    1    1    2  503  501  0.16607163128E+02 -0.58763374359E+02 -0.22692255386E+03  0.23499527119E+03  0.00000000000E+00 0.  1.
          2    1    1    2  501    0  0.23566776539E+03  0.13686762373E+02 -0.12468155477E+04  0.12689663640E+04  0.00000000000E+00 0. -1.
<mgrwt>
<rscale>  4 0.28070876E+03</rscale>
<asrwt>0</asrwt>
<pdfrwt beam="1">  1       21 0.12711389E-01 0.28070876E+03</pdfrwt>
<pdfrwt beam="2">  1        2 0.27536992E+00 0.28070876E+03</pdfrwt>
<totfact> 0.63328216E+03</totfact>
</mgrwt>
</event>
<event>
 5    0  0.2947253E-001  0.2627069E+03  0.7546771E-02  0.1105528E+00
         21   -1    0    0  501  502  0.00000000000E+00  0.00000000000E+00  0.13824967136E+04  0.13824967136E+04  0.00000000000E+00 0.  1.
         -1   -1    0    0    0  501 -0.00000000000E+00 -0.00000000000E+00 -0.15872656064E+03  0.15872656064E+03  0.00000000000E+00 0. -1.
         25    1    1    2    0    0  0.12502914408E+03  0.20240072387E+03  0.12347943913E+04  0.12637011231E+04  0.12500000000E+03 0.  0.
         21    1    1    2  501  501  0.48960516725E+01 -0.55583914699E+02 -0.53078418866E+02  0.77012086354E+02  0.00000000000E+00 0. -1.
         -1    1    1    2    0  502 -0.12992519575E+03 -0.14681680917E+03  0.42054180494E+02  0.20051006469E+03  0.00000000000E+00 0. -1.
<mgrwt>
<rscale>  4 0.26270691E+03</rscale>
<asrwt>0</asrwt>
<pdfrwt beam="1">  1       21 0.21269179E+00 0.26270691E+03</pdfrwt>
<pdfrwt beam="2">  1       -1 0.24419472E-01 0.26270691E+03</pdfrwt>
<totfact> 0.13986318E+02</totfact>
</mgrwt>
</event>
<event>
 5    0  0.2947253E-001  0.4277020E+03  0.7546771E-02  0.1034588E+00
         21   -1    0    0  501  502  0.00000000000E+00  0.00000000000E+00  0.11010589834E+04  0.11010589834E+04  0.00000000000E+00 0. -1.
         -1   -1    0    0    0  501 -0.00000000000E+00 -0.00000000000E+00 -0.34109803110E+03  0.34109803110E+03  0.00000000000E+00 0. -1.
         25    1    1    2    0    0 -0.31102223673E+03 -0.25870118439E+03  0.84098158447E+03  0.94156049193E+03  0.12500000000E+03 0.  0.
         21    1    1    2  501  501 -0.38594869729E+02  0.43774342741E+02  0.42294147748E+02  0.72073240426E+02  0.00000000000E+00 0. -1.
         -1    1    1    2    0  502  0.34961710646E+03  0.21492684165E+03 -0.12331477991E+03  0.42852328214E+03  0.00000000000E+00 0. -1.
<mgrwt>
<rscale>  4 0.42770204E+03</rscale>
<asrwt>0</asrwt>
<pdfrwt beam="1">  1       21 0.16939369E+00 0.42770204E+03</pdfrwt>
<pdfrwt beam="2">  1       -1 0.52476621E-01 0.42770204E+03</pdfrwt>
<totfact> 0.65777215E+01</totfact>
</mgrwt>
</event>
<event>
 5    0  0.2947253E-001  0.3575144E+03  0.7546771E-02  0.1059572E+00
         21   -1    0    0  501  502  0.00000000000E+00  0.00000000000E+00  0.38409246393E+03  0.38409246393E+03  0.00000000000E+00 0.  1.
         -2   -1    0    0    0  501 -0.00000000000E+00 -0.00000000000E+00 -0.63302473061E+03  0.63302473061E+03  0.00000000000E+00 0.  1.
         25    1    1    2    0    0 -0.30017813444E+03  0.19672589552E+03  0.18236721573E+03  0.42153385598E+03  0.12500000000E+03 0.  0.
         21    1    1    2  501  501  0.47630054331E+02 -0.12216161697E+03 -0.70379520561E+02  0.14881317029E+03  0.00000000000E+00 0.  1.
         -2    1    1    2    0  502  0.25254808011E+03 -0.74564278548E+02 -0.36091996185E+03  0.44677016828E+03  0.00000000000E+00 0.  1.
<mgrwt>
<rscale>  4 0.35751437E+03</rscale>
<asrwt>0</asrwt>
<pdfrwt beam="1">  1       21 0.59091150E-01 0.35751437E+03</pdfrwt>
<pdfrwt beam="2">  1       -2 0.97388418E-01 0.35751437E+03</pdfrwt>
<totfact> 0.18818833E+02</totfact>
</mgrwt>
</event>
<event>
 5    0  0.2947253E-001  0.2828282E+03  0.7546771E-02  0.1094154E+00
         21   -1    0    0  503  502  0.00000000000E+00  0.00000000000E+00  0.19166300844E+03  0.19166300844E+03  0.00000000000E+00 0.  1.
          2   -1    0    0  502    0 -0.00000000000E+00 -0.00000000000E+00 -0.80894778803E+03  0.80894778803E+03  0.00000000000E+00 0.  1.
         25    1    1    2    0    0  0.49429460681E+02 -0.24884441936E+03  0.42997688720E+02  0.28607799263E+03  0.12500000000E+03 0.  0.
         21    1    1    2  503  501  0.20859154728E+02  0.10168788097E+03 -0.18614053017E+03  0.21312866171E+03  0.00000000000E+00 0.  1.
          2    1    1    2  501    0 -0.70288615409E+02  0.14715653839E+03 -0.47414193814E+03  0.50140414214E+03  0.00000000000E+00 0.  1.
<mgrwt>
<rscale>  4 0.28282825E+03</rscale>
<asrwt>0</asrwt>
<pdfrwt beam="1">  1       21 0.29486617E-01 0.28282825E+03</pdfrwt>
<pdfrwt beam="2">  1        2 0.12445350E+00 0.28282825E+03</pdfrwt>
<totfact> 0.47369528E+03</totfact>
</mgrwt>
</event>
<event>
 5    0  0.2947253E-001  0.2527410E+03  0.7546771E-02  0.1111585E+00
          2   -1    0    0  502    0 -0.00000000000E+00  0.00000000000E+00  0.37324022705E+03  0.37324022705E+03  0.00000000000E+00 0.  1.
         21   -1    0    0  503  502  0.00000000000E+00 -0.00000000000E+00 -0.15265637741E+03  0.15265637741E+03  0.00000000000E+00 0.  1.
         25    1    1    2    0    0 -0.17677097365E+03 -0.13040331846E+03  0.12497659620E+03  0.28195239348E+03  0.12500000000E+03 0.  0.
         21    1    1    2  503  501  0.17804918621E+02  0.92725579122E+01  0.24817998182E+02  0.31920659315E+02  0.00000000000E+00 0.  1.
          2    1    1    2  501    0  0.15896605503E+03  0.12113076054E+03  0.70789255252E+02  0.21202355167E+03  0.00000000000E+00 0.  1.
<mgrwt>
<rscale>  4 0.25274098E+03</rscale>
<asrwt>0</asrwt>
<pdfrwt beam="1">  1       21 0.23485597E-01 0.25274098E+03</pdfrwt>
<pdfrwt beam="2">  1        2 0.57421573E-01 0.25274098E+03</pdfrwt>
<totfact> 0.18134464E+04</totfact>
</mgrwt>
</event>
<event>
 5    0  0.2947253E-001  0.2240692E+03  0.7546771E-02  0.1130885E+00
          2   -1    0    0  502    0 -0.00000000000E+00  0.00000000000E+00  0.30295692237E+04  0.30295692237E+04  0.00000000000E+00 0. -1.
         21   -1    0    0  503  502  0.00000000000E+00 -0.00000000000E+00 -0.39026304514E+02  0.39026304514E+02  0.00000000000E+00 0.  1.
         25    1    1    2    0    0 -0.18246677075E+03  0.10536703464E+03  0.41399944111E+03  0.48105807514E+03  0.12500000000E+03 0.  0.
         21    1    1    2  503  501  0.15813267165E+02 -0.28536783261E+02  0.12679206866E+03  0.13092225209E+03  0.00000000000E+00 0. -1.
          2    1    1    2  501    0  0.16665350358E+03 -0.76830251383E+02  0.24497514095E+04  0.24566152010E+04  0.00000000000E+00 0. -1.
<mgrwt>
<rscale>  4 0.22406917E+03</rscale>
<asrwt>0</asrwt>
<pdfrwt beam="1">  1       21 0.60040492E-02 0.22406917E+03</pdfrwt>
<pdfrwt beam="2">  1        2 0.46608739E+00 0.22406917E+03</pdfrwt>
<totfact> 0.51049647E+03</totfact>
</mgrwt>
</event>
<event>
 5    0  0.2947253E-001  0.2375097E+03  0.7546771E-02  0.1121463E+00
          2   -1    0    0  502    0 -0.00000000000E+00  0.00000000000E+00  0.19295943466E+04  0.19295943466E+04  0.00000000000E+00 0. -1.
         21   -1    0    0  503  502  0.00000000000E+00 -0.00000000000E+00 -0.25545394109E+02  0.25545394109E+02  0.00000000000E+00 0.  1.
         25    1    1    2    0    0  0.83328524879E+02  0.18396250168E+03  0.10054489044E+04  0.10331206824E+04  0.12500000000E+03 0.  0.
         21    1    1    2  503  501 -0.34077093419E+02 -0.57607215663E+02  0.21816658121E+03  0.22820275360E+03  0.00000000000E+00 0. -1.
          2    1    1    2  501    0 -0.49251431461E+02 -0.12635528602E+03  0.68043346686E+03  0.69381630467E+03  0.00000000000E+00 0. -1.
<mgrwt>
<rscale>  4 0.23750967E+03</rscale>
<asrwt>0</asrwt>
<pdfrwt beam="1">  1       21 0.39300621E-02 0.23750967E+03</pdfrwt>
<pdfrwt beam="2">  1        2 0.29686056E+00 0.23750967E+03</pdfrwt>
<totfact> 0.41845126E+04</totfact>
</mgrwt>
</event>
<event>
 5    0  0.3336937E-001  0.3459491E+03  0.7546771E-02  0.1064290E+00
          2   -1    0    0  502    0 -0.00000000000E+00  0.00000000000E+00  0.18316336713E+04  0.18316336713E+04  0.00000000000E+00 0.  1.
         21   -1    0    0  503  502  0.00000000000E+00 -0.00000000000E+00 -0.16080706197E+03  0.16080706197E+03  0.00000000000E+00 0. -1.
         25    1    1    2    0    0 -0.32150733301E+02  0.32436423578E+03  0.73229724185E+02  0.35669793889E+03  0.12500000000E+03 0.  0.
         21    1    1    2  503  501  0.26303892278E+02 -0.25268452200E+02  0.67978863068E+02  0.77146064382E+02  0.00000000000E+00 0.  1.
          2    1    1    2  501    0  0.58468410229E+01 -0.29909578357E+03  0.15296180221E+04  0.15585967300E+04  0.00000000000E+00 0.  1.
<mgrwt>
<rscale>  4 0.34594914E+03</rscale>
<asrwt>0</asrwt>
<pdfrwt beam="1">  1       21 0.24739549E-01 0.34594914E+03</pdfrwt>
<pdfrwt beam="2">  1        2 0.28178978E+00 0.34594914E+03</pdfrwt>
<totfact> 0.16957117E+03</totfact>
</mgrwt>
</event>
<event>
 5    0  0.2947253E-001  0.5922062E+03  0.7546771E-02  0.9928232E-01
          1   -1    0    0  502    0 -0.00000000000E+00  0.00000000000E+00  0.51070190739E+03  0.51070190739E+03  0.00000000000E+00 0.  1.
         21   -1    0    0  503  502  0.00000000000E+00 -0.00000000000E+00 -0.84189951680E+03  0.84189951680E+03  0.00000000000E+00 0. -1.
         25    1    1    2    0    0  0.40687711132E+03 -0.39394529089E+03 -0.46747683133E+03  0.74491708516E+03  0.12500000000E+03 0.  0.
         21    1    1    2  503  501 -0.61567782445E+02  0.15290890953E+03 -0.73871056601E+00  0.16484014118E+03  0.00000000000E+00 0. -1.
          1    1    1    2  501    0 -0.34530932887E+03  0.24103638136E+03  0.13701793249E+03  0.44284419785E+03  0.00000000000E+00 0.  1.
<mgrwt>
<rscale>  4 0.58912355E+03</rscale>
<asrwt>0</asrwt>
<pdfrwt beam="1">  1       21 0.12952300E+00 0.59220624E+03</pdfrwt>
<pdfrwt beam="2">  1        1 0.78569525E-01 0.59220624E+03</pdfrwt>
<totfact> 0.17956905E+02</totfact>
</mgrwt>
</event>
<event>
 5    0  0.2947253E-001  0.4272737E+03  0.7546771E-02  0.1034725E+00
         21   -1    0    0  503  502  0.00000000000E+00  0.00000000000E+00  0.18907672107E+03  0.18907672107E+03  0.00000000000E+00 0.  1.
          2   -1    0    0  502    0 -0.00000000000E+00 -0.00000000000E+00 -0.22109812159E+04  0.22109812159E+04  0.00000000000E+00 0. -1.
         25    1    1    2    0    0  0.35661733564E+03  0.19940379300E+03 -0.10749294830E+03  0.44058771053E+03  0.12500000000E+03 0.  0.
         21    1    1    2  503  501 -0.47558092602E+02 -0.52657599334E+02 -0.45453198040E+03  0.46003686390E+03  0.00000000000E+00 0. -1.
          2    1    1    2  501    0 -0.30905924304E+03 -0.14674619367E+03 -0.14598795661E+04  0.14994333625E+04  0.00000000000E+00 0. -1.
<mgrwt>
<rscale>  4 0.42727368E+03</rscale>
<asrwt>0</asrwt>
<pdfrwt beam="1">  1       21 0.29088727E-01 0.42727368E+03</pdfrwt>
<pdfrwt beam="2">  1        2 0.34015095E+00 0.42727368E+03</pdfrwt>
<totfact> 0.75345656E+02</totfact>
</mgrwt>
</event>
<event>
 5    0  0.2947253E-001  0.2526776E+03  0.7546771E-02  0.1111624E+00
          2   -1    0    0  502    0 -0.00000000000E+00  0.00000000000E+00  0.27338072758E+04  0.27338072758E+04  0.00000000000E+00 0. -1.
         21   -1    0    0  503  502  0.00000000000E+00 -0.00000000000E+00 -0.92255032571E+02  0.92255032571E+02  0.00000000000E+00 0. -1.
         25    1    1    2    0    0 -0.20111577911E+03 -0.90395969709E+02  0.10978726071E+03  0.27621953327E+03  0.12500000000E+03 0.  0.
         21    1    1    2  503  501  0.31156039075E+02 -0.38759981199E+02  0.13998528364E+03  0.14855609900E+03  0.00000000000E+00 0.  1.
          2    1    1    2  501    0  0.16995974003E+03  0.12915595091E+03  0.23917796989E+04  0.24012866761E+04  0.00000000000E+00 0. -1.
<mgrwt>
<rscale>  4 0.25267762E+03</rscale>
<asrwt>0</asrwt>
<pdfrwt beam="1">  1       21 0.14193084E-01 0.25267762E+03</pdfrwt>
<pdfrwt beam="2">  1        2 0.42058567E+00 0.25267762E+03</pdfrwt>
<totfact> 0.16288495E+03</totfact>
</mgrwt>
</event>
<event>
 5    0  0.3294978E-001  0.3433851E+03  0.7546771E-02  0.1065363E+00
         21   -1    0    0  503  502  0.00000000000E+00  0.00000000000E+00  0.18062124317E+04  0.18062124317E+04  0.00000000000E+00 0.  1.
          1   -1    0    0  502    0 -0.00000000000E+00 -0.00000000000E+00 -0.24982186012E+03  0.24982186012E+03  0.00000000000E+00 0.  1.
         25    1    1    2    0    0 -0.31895251064E+03 -0.12468133777E+03  0.16377876932E+04  0.16778705755E+04  0.12500000000E+03 0.  0.
         21    1    1    2  503  501  0.22212603368E+02  0.95446975537E+01  0.32147388690E+02  0.40223818807E+02  0.00000000000E+00 0. -1.
          1    1    1    2  501    0  0.29673990727E+03  0.11513664022E+03 -0.11354451036E+03  0.33793989750E+03  0.00000000000E+00 0.  1.
<mgrwt>
<rscale>  4 0.34338507E+03</rscale>
<asrwt>0</asrwt>
<pdfrwt beam="1">  1       21 0.27787883E+00 0.34338507E+03</pdfrwt>
<pdfrwt beam="2">  1        1 0.38434133E-01 0.34338507E+03</pdfrwt>
<totfact> 0.48367849E+01</totfact>
</mgrwt>
</event>
<event>
 5    0  0.2947253E-001  0.2419753E+03  0.7546771E-02  0.1118484E+00
         21   -1    0    0  503  502  0.00000000000E+00  0.00000000000E+00  0.65701440131E+03  0.65701440131E+03  0.00000000000E+00 0.  1.
          2   -1    0    0  502    0 -0.00000000000E+00 -0.00000000000E+00 -0.16767760514E+04  0.16767760514E+04  0.00000000000E+00 0. -1.
         25    1    1    2    0    0 -0.20681974889E+03  0.17565648192E+02  0.62499989172E+03  0.67032292604E+03  0.12500000000E+03 0.  0.
         21    1    1    2  503  501  0.27773168682E+02  0.78537350241E+01 -0.44631117940E+02  0.53150416189E+02  0.00000000000E+00 0. -1.
          2    1    1    2  501    0  0.17904658021E+03 -0.25419383216E+02 -0.16001304238E+04  0.16103171104E+04  0.00000000000E+00 0. -1.
<mgrwt>
<rscale>  4 0.24197529E+03</rscale>
<asrwt>0</asrwt>
<pdfrwt beam="1">  1       21 0.10107914E+00 0.24197529E+03</pdfrwt>
<pdfrwt beam="2">  1        2 0.25796554E+00 0.24197529E+03</pdfrwt>
<totfact> 0.10864371E+02</totfact>
</mgrwt>
</event>
<event>
 5    0  0.2947253E-001  0.2674243E+03  0.7546771E-02  0.1102763E+00
         21   -1    0    0  503  502  0.00000000000E+00  0.00000000000E+00  0.33117851023E+03  0.33117851023E+03  0.00000000000E+00 0. -1.
          2   -1    0    0  502    0 -0.00000000000E+00 -0.00000000000E+00 -0.23336782853E+04  0.23336782853E+04  0.00000000000E+00 0.  1.
         25    1    1    2    0    0 -0.12291216440E+02 -0.23609257962E+03  0.26954020524E+03  0.37969422223E+03  0.12500000000E+03 0.  0.
         21    1    1    2  503  501  0.28889063943E+02  0.12953606265E+03 -0.14540705878E+04  0.14601148735E+04  0.00000000000E+00 0.  1.
          2    1    1    2  501    0 -0.16597847503E+02  0.10655651697E+03 -0.81796939249E+03  0.82504769978E+03  0.00000000000E+00 0.  1.
<mgrwt>
<rscale>  4 0.26742434E+03</rscale>
<asrwt>0</asrwt>
<pdfrwt beam="1">  1       21 0.50950542E-01 0.26742434E+03</pdfrwt>
<pdfrwt beam="2">  1        2 0.35902742E+00 0.26742434E+03</pdfrwt>
<totfact> 0.22238544E+02</totfact>
</mgrwt>
</event>
<event>
 5    0  0.2947253E-001  0.2752754E+03  0.7546771E-02  0.1098298E+00
          2   -1    0    0  502    0 -0.00000000000E+00  0.00000000000E+00  0.19374817734E+04  0.19374817734E+04  0.00000000000E+00 0. -1.
         21   -1    0    0  503  502  0.00000000000E+00 -0.00000000000E+00 -0.51628198874E+03  0.51628198874E+03  0.00000000000E+00 0. -1.
         25    1    1    2    0    0 -0.20929930626E+03  0.13236130952E+03 -0.44918971714E+03  0.52794139622E+03  0.12500000000E+03 0.  0.
         21    1    1    2  503  501  0.11569155033E+03 -0.20697805711E+02  0.11512231901E+03  0.16451772644E+03  0.00000000000E+00 0.  1.
          2    1    1    2  501    0  0.93607755926E+02 -0.11166350381E+03  0.17552671828E+04  0.17613046395E+04  0.00000000000E+00 0. -1.
<mgrwt>
<rscale>  4 0.27527542E+03</rscale>
<asrwt>0</asrwt>
<pdfrwt beam="1">  1       21 0.79427999E-01 0.27527542E+03</pdfrwt>
<pdfrwt beam="2">  1        2 0.29807411E+00 0.27527542E+03</pdfrwt>
<totfact> 0.13580362E+02</totfact>
</mgrwt>
</event>
<event>
 5    0  0.2947253E-001  0.3430854E+03  0.7546771E-02  0.1065489E+00
         21   -1    0    0  501  502  0.00000000000E+00  0.00000000000E+00  0.48764540435E+03  0.48764540435E+03  0.00000000000E+00 0.  1.
         -4   -1    0    0    0  501 -0.00000000000E+00 -0.00000000000E+00 -0.30145819144E+03  0.30145819144E+03  0.00000000000E+00 0. -1.
         25    1    1    2    0    0  0.31939430716E+03  0.83593106030E+01  0.27424310258E+03  0.43922304224E+03  0.12500000000E+03 0.  0.
         21    1    1    2  501  501 -0.96151185552E+02  0.20317556732E+02 -0.76441518885E+02  0.12450365217E+03  0.00000000000E+00 0. -1.
         -4    1    1    2    0  502 -0.22324312161E+03 -0.28676867335E+02 -0.11614370785E+02  0.22537690138E+03  0.00000000000E+00 0. -1.
<mgrwt>
<rscale>  4 0.34308541E+03</rscale>
<asrwt>0</asrwt>
<pdfrwt beam="1">  1       21 0.75022370E-01 0.34308541E+03</pdfrwt>
<pdfrwt beam="2">  1       -4 0.46378183E-01 0.34308541E+03</pdfrwt>
<totfact> 0.29607839E+02</totfact>
</mgrwt>
</event>
<event>
 5    0  0.2947253E-001  0.3816533E+03  0.7546771E-02  0.1050324E+00
          1   -1    0    0  502    0 -0.00000000000E+00  0.00000000000E+00  0.85479970635E+03  0.85479970635E+03  0.00000000000E+00 0. -1.
         21   -1    0    0  503  502  0.00000000000E+00 -0.00000000000E+00 -0.16378266177E+03  0.16378266177E+03  0.00000000000E+00 0. -1.
         25    1    1    2    0    0 -0.17545498070E+03  0.31503938574E+03  0.36188403357E+03  0.52594611756E+03  0.12500000000E+03 0.  0.
         21    1    1    2  503  501  0.42074867480E+02 -0.70980528562E+02  0.11542555952E+03  0.14188583333E+03  0.00000000000E+00 0. -1.
          1    1    1    2  501    0  0.13338011322E+03 -0.24405885717E+03  0.21370745149E+03  0.35075041724E+03  0.00000000000E+00 0. -1.
<mgrwt>
<rscale>  4 0.38165333E+03</rscale>
<asrwt>0</asrwt>
<pdfrwt beam="1">  1       21 0.25197333E-01 0.38165333E+03</pdfrwt>
<pdfrwt beam="2">  1        1 0.13150764E+00 0.38165333E+03</pdfrwt>
<totfact> 0.32785487E+03</totfact>
</mgrwt>
</event>
<event>
 5    0  0.2947253E-001  0.2526714E+03  0.7546771E-02  0.1111628E+00
         21   -1    0    0  503  502  0.00000000000E+00  0.00000000000E+00  0.24613298527E+03  0.24613298527E+03  0.00000000000E+00 0. -1.
          2   -1    0    0  502    0 -0.00000000000E+00 -0.00000000000E+00 -0.40468127870E+04  0.40468127870E+04  0.00000000000E+00 0.  1.
         25    1    1    2    0    0  0.21803943755E+03 -0.31273171524E+02  0.17397648820E+03  0.30726539999E+03  0.12500000000E+03 0.  0.
         21    1    1    2  503  501 -0.26332160395E+02  0.71873201758E+02 -0.53517102819E+03  0.54061739633E+03  0.00000000000E+00 0. -1.
          2    1    1    2  501    0 -0.19170727715E+03 -0.40600030234E+02 -0.34394852617E+04  0.34450629759E+04  0.00000000000E+00 0.  1.
<mgrwt>
<rscale>  4 0.25267142E+03</rscale>
<asrwt>0</asrwt>
<pdfrwt beam="1">  1       21 0.37866613E-01 0.25267142E+03</pdfrwt>
<pdfrwt beam="2">  1        2 0.62258659E+00 0.25267142E+03</pdfrwt>
<totfact> 0.34740502E+01</totfact>
</mgrwt>
</event>
<event>
 5    0  0.2947253E-001  0.2690101E+03  0.7546771E-02  0.1101847E+00
         21   -1    0    0  503  502  0.00000000000E+00  0.00000000000E+00  0.22721450210E+02  0.22721450210E+02  0.00000000000E+00 0. -1.
          2   -1    0    0  502    0 -0.00000000000E+00 -0.00000000000E+00 -0.45613697101E+04  0.45613697101E+04  0.00000000000E+00 0.  1.
         25    1    1    2    0    0 -0.22893659773E+03  0.76738614886E+02 -0.10314195912E+04  0.10666546554E+04  0.12500000000E+03 0.  0.
         21    1    1    2  503  501  0.37187381764E+01 -0.26860092347E+02 -0.77950012970E+03  0.77997163139E+03  0.00000000000E+00 0.  1.
          2    1    1    2  501    0  0.22521785955E+03 -0.49878522538E+02 -0.27277285390E+04  0.27374648735E+04  0.00000000000E+00 0.  1.
<mgrwt>
<rscale>  4 0.26901014E+03</rscale>
<asrwt>0</asrwt>
<pdfrwt beam="1">  1       21 0.34956072E-02 0.26901014E+03</pdfrwt>
<pdfrwt beam="2">  1        2 0.70174930E+00 0.26901014E+03</pdfrwt>
<totfact> 0.93245163E+02</totfact>
</mgrwt>
</event>
<event>
 5    0  0.2947253E-001  0.2885698E+03  0.7546771E-02  0.1091098E+00
         21   -1    0    0  503  502  0.00000000000E+00  0.00000000000E+00  0.12423060744E+03  0.12423060744E+03  0.00000000000E+00 0.  1.
          2   -1    0    0  502    0 -0.00000000000E+00 -0.00000000000E+00 -0.11654086853E+04  0.11654086853E+04  0.00000000000E+00 0.  1.
         25    1    1    2    0    0  0.16497108166E+03 -0.20107732382E+03 -0.95254594626E+02  0.30388482314E+03  0.12500000000E+03 0.  0.
         21    1    1    2  503  501 -0.38104228136E+02  0.24997691150E+02 -0.32101454876E+03  0.32423318350E+03  0.00000000000E+00 0.  1.
          2    1    1    2  501    0 -0.12686685352E+03  0.17607963267E+03 -0.62490893450E+03  0.66152128612E+03  0.00000000000E+00 0.  1.
<mgrwt>
<rscale>  4 0.28856983E+03</rscale>
<asrwt>0</asrwt>
<pdfrwt beam="1">  1       21 0.19112401E-01 0.28856983E+03</pdfrwt>
<pdfrwt beam="2">  1        2 0.17929365E+00 0.28856983E+03</pdfrwt>
<totfact> 0.65061453E+03</totfact>
</mgrwt>
</event>
<event>
 5    0  0.2947253E-001  0.2684003E+03  0.7546771E-02  0.1102199E+00
         -2   -1    0    0    0  501 -0.00000000000E+00  0.00000000000E+00  0.10951972538E+04  0.10951972538E+04  0.00000000000E+00 0.  1.
         21   -1    0    0  501  502  0.00000000000E+00 -0.00000000000E+00 -0.69313398798E+02  0.69313398798E+02  0.00000000000E+00 0.  1.
         25    1    1    2    0    0  0.75430249119E+02  0.22521990533E+03  0.75709161626E+03  0.80325988550E+03  0.12500000000E+03 0.  0.
         21    1    1    2  501  501 -0.75012855651E+01 -0.28240646373E+02  0.14882191284E+02  0.32791508201E+02  0.00000000000E+00 0. -1.
         -2    1    1    2    0  502 -0.67928963554E+02 -0.19697925896E+03  0.25391004742E+03  0.32845925886E+03  0.00000000000E+00 0.  1.
<mgrwt>
<rscale>  4 0.26840031E+03</rscale>
<asrwt>0</asrwt>
<pdfrwt beam="1">  1       21 0.10663601E-01 0.26840031E+03</pdfrwt>
<pdfrwt beam="2">  1       -2 0.16849187E+00 0.26840031E+03</pdfrwt>
<totfact> 0.13763109E+03</totfact>
</mgrwt>
</event>
<event>
 5    0  0.2947253E-001  0.1837993E+03  0.7546771E-02  0.1164176E+00
         21   -1    0    0  501  502  0.00000000000E+00  0.00000000000E+00  0.24306432463E+03  0.24306432463E+03  0.00000000000E+00 0. -1.
         -2   -1    0    0    0  501 -0.00000000000E+00 -0.00000000000E+00 -0.34801797046E+03  0.34801797046E+03  0.00000000000E+00 0.  1.
         25    1    1    2    0    0 -0.16324322621E+03 -0.15052381326E+03  0.90635525546E+02  0.27045437278E+03  0.12500000000E+03 0.  0.
         21    1    1    2  501  501  0.57086757429E+02  0.83627133314E+02 -0.17470295200E+02  0.10275021418E+03  0.00000000000E+00 0. -1.
         -2    1    1    2    0  502  0.10615646878E+03  0.66896679948E+02 -0.17811887618E+03  0.21787770814E+03  0.00000000000E+00 0.  1.
<mgrwt>
<rscale>  4 0.18379926E+03</rscale>
<asrwt>0</asrwt>
<pdfrwt beam="1">  1       21 0.37394512E-01 0.18379926E+03</pdfrwt>
<pdfrwt beam="2">  1       -2 0.53541226E-01 0.18379926E+03</pdfrwt>
<totfact> 0.18774722E+03</totfact>
</mgrwt>
</event>
<event>
 5    0  0.2947253E-001  0.3531223E+03  0.7546771E-02  0.1061341E+00
         21   -1    0    0  503  502  0.00000000000E+00  0.00000000000E+00  0.14570551333E+04  0.14570551333E+04  0.00000000000E+00 0.  1.
          4   -1    0    0  502    0 -0.00000000000E+00 -0.00000000000E+00 -0.12370652319E+03  0.12370652319E+03  0.00000000000E+00 0.  1.
         25    1    1    2    0    0 -0.29284942991E+03  0.15267478291E+03  0.11446274966E+04  0.11978595426E+04  0.12500000000E+03 0.  0.
         21    1    1    2  503  501  0.37050115790E+02 -0.91458190734E+01  0.34832361174E+02  0.51668660439E+02  0.00000000000E+00 0.  1.
          4    1    1    2  501    0  0.25579931412E+03 -0.14352896383E+03  0.15388875233E+03  0.33123345340E+03  0.00000000000E+00 0.  1.
<mgrwt>
<rscale>  4 0.35312233E+03</rscale>
<asrwt>0</asrwt>
<pdfrwt beam="1">  1       21 0.22416232E+00 0.35312233E+03</pdfrwt>
<pdfrwt beam="2">  1        4 0.19031774E-01 0.35312233E+03</pdfrwt>
<totfact> 0.92350602E+01</totfact>
</mgrwt>
</event>
<event>
 5    0  0.2947253E-001  0.2968206E+03  0.7546771E-02  0.1086841E+00
          2   -1    0    0  502    0 -0.00000000000E+00  0.00000000000E+00  0.10621786300E+04  0.10621786300E+04  0.00000000000E+00 0.  1.
         21   -1    0    0  503  502  0.00000000000E+00 -0.00000000000E+00 -0.39485005709E+03  0.39485005709E+03  0.00000000000E+00 0.  1.
         25    1    1    2    0    0  0.16325327993E+03  0.21406969388E+03 -0.31533840510E+03  0.43305978453E+03  0.12500000000E+03 0.  0.
         21    1    1    2  503  501 -0.59455111300E+02 -0.66976765790E+02  0.17622589611E+03  0.19767742379E+03  0.00000000000E+00 0.  1.
          2    1    1    2  501    0 -0.10379816863E+03 -0.14709292809E+03  0.80644108194E+03  0.82629147880E+03  0.00000000000E+00 0.  1.
<mgrwt>
<rscale>  4 0.29682060E+03</rscale>
<asrwt>0</asrwt>
<pdfrwt beam="1">  1       21 0.60746163E-01 0.29682060E+03</pdfrwt>
<pdfrwt beam="2">  1        2 0.16341210E+00 0.29682060E+03</pdfrwt>
<totfact> 0.73237950E+02</totfact>
</mgrwt>
</event>
<event>
 5    0  0.2947253E-001  0.2371206E+03  0.7546771E-02  0.1121726E+00
         21   -1    0    0  501  502  0.00000000000E+00  0.00000000000E+00  0.14699875248E+03  0.14699875248E+03  0.00000000000E+00 0. -1.
         -2   -1    0    0    0  501 -0.00000000000E+00 -0.00000000000E+00 -0.34493881558E+03  0.34493881558E+03  0.00000000000E+00 0. -1.
         25    1    1    2    0    0  0.17862478141E+03  0.93243637241E+02 -0.65073268900E+02  0.24588761406E+03  0.12500000000E+03 0.  0.
         21    1    1    2  501  501 -0.15429732322E+03 -0.62372151994E+02 -0.95833900524E+02  0.19204709263E+03  0.00000000000E+00 0. -1.
         -2    1    1    2    0  502 -0.24327458191E+02 -0.30871485247E+02 -0.37032893669E+02  0.54002861377E+02  0.00000000000E+00 0. -1.
<mgrwt>
<rscale>  4 0.23712062E+03</rscale>
<asrwt>0</asrwt>
<pdfrwt beam="1">  1       21 0.22615193E-01 0.23712062E+03</pdfrwt>
<pdfrwt beam="2">  1       -2 0.53067509E-01 0.23712062E+03</pdfrwt>
<totfact> 0.50322750E+03</totfact>
</mgrwt>
</event>
<event>
 5    0  0.2947253E-001  0.2406004E+03  0.7546771E-02  0.1119393E+00
          4   -1    0    0  502    0 -0.00000000000E+00  0.00000000000E+00  0.38674363521E+03  0.38674363521E+03  0.00000000000E+00 0.  1.
         21   -1    0    0  503  502  0.00000000000E+00 -0.00000000000E+00 -0.13751025142E+03  0.13751025142E+03  0.00000000000E+00 0.  1.
         25    1    1    2    0    0 -0.19959920416E+03 -0.49231304745E+02  0.74290543037E+02  0.25180875373E+03  0.12500000000E+03 0.  0.
         21    1    1    2  503  501  0.31575284565E+02 -0.44474094992E+01  0.34446850020E+02  0.46939999179E+02  0.00000000000E+00 0. -1.
          4    1    1    2  501    0  0.16802391960E+03  0.53678714244E+02  0.14049599073E+03  0.22550513372E+03  0.00000000000E+00 0.  1.
<mgrwt>
<rscale>  4 0.24060042E+03</rscale>
<asrwt>0</asrwt>
<pdfrwt beam="1">  1       21 0.21155423E-01 0.24060042E+03</pdfrwt>
<pdfrwt beam="2">  1        4 0.59499020E-01 0.24060042E+03</pdfrwt>
<totfact> 0.23711301E+03</totfact>
</mgrwt>
</event>
<event>
 5    0  0.2947253E-001  0.2911729E+03  0.7546771E-02  0.1089738E+00
          1   -1    0    0  502    0 -0.00000000000E+00  0.00000000000E+00  0.60174833710E+02  0.60174833710E+02  0.00000000000E+00 0. -1.
         21   -1    0    0  503  502  0.00000000000E+00 -0.00000000000E+00 -0.14717561647E+04  0.14717561647E+04  0.00000000000E+00 0. -1.
         25    1    1    2    0    0  0.22199216402E+03  0.14098268517E+03 -0.48953815328E+03  0.56958690463E+03  0.12500000000E+03 0.  0.
         21    1    1    2  503  501 -0.49800689669E+02 -0.75663548662E+02 -0.26982605267E+03  0.28462462997E+03  0.00000000000E+00 0.  1.
          1    1    1    2  501    0 -0.17219147435E+03 -0.65319136505E+02 -0.65221712504E+03  0.67771946381E+03  0.00000000000E+00 0. -1.
<mgrwt>
<rscale>  4 0.29117287E+03</rscale>
<asrwt>0</asrwt>
<pdfrwt beam="1">  1       21 0.22642402E+00 0.29117287E+03</pdfrwt>
<pdfrwt beam="2">  1        1 0.92576669E-02 0.29117287E+03</pdfrwt>
<totfact> 0.65598592E+02</totfact>
</mgrwt>
</event>
<event>
 5    0  0.2947253E-001  0.2842326E+03  0.7546771E-02  0.1093399E+00
          1   -1    0    0  502    0 -0.00000000000E+00  0.00000000000E+00  0.16399447600E+04  0.16399447600E+04  0.00000000000E+00 0.  1.
         21   -1    0    0  503  502  0.00000000000E+00 -0.00000000000E+00 -0.10196303917E+03  0.10196303917E+03  0.00000000000E+00 0. -1.
         25    1    1    2    0    0  0.17461565316E+03 -0.18620568086E+03  0.13551871267E+03  0.31488649288E+03  0.12500000000E+03 0.  0.
         21    1    1    2  503  501 -0.44266682977E+02  0.86258496112E+02  0.43106254567E+03  0.44183139957E+03  0.00000000000E+00 0.  1.
          1    1    1    2  501    0 -0.13034897018E+03  0.99947184747E+02  0.97140046249E+03  0.98518990672E+03  0.00000000000E+00 0.  1.
<mgrwt>
<rscale>  4 0.28423262E+03</rscale>
<asrwt>0</asrwt>
<pdfrwt beam="1">  1       21 0.15686623E-01 0.28423262E+03</pdfrwt>
<pdfrwt beam="2">  1        1 0.25229917E+00 0.28423262E+03</pdfrwt>
<totfact> 0.22864640E+03</totfact>
</mgrwt>
</event>
<event>
 5    0  0.2947253E-001  0.2664580E+03  0.7546771E-02  0.1105581E+00
         -2   -1    0    0    0  501 -0.00000000000E+00  0.00000000000E+00  0.73678573620E+03  0.73678573620E+03  0.00000000000E+00 0. -1.
         21   -1    0    0  501  502  0.00000000000E+00 -0.00000000000E+00 -0.91060252179E+02  0.91060252179E+02  0.00000000000E+00 0.  1.
         25    1    1    2    0    0  0.18295086112E+03 -0.11881646335E+03  0.30316883857E+03  0.39385874908E+03  0.12500000000E+03 0.  0.
         21    1    1    2  501  501 -0.11950658768E+03  0.35920098430E+02  0.29293068090E+03  0.31840298645E+03  0.00000000000E+00 0. -1.
         -2    1    1    2    0  502 -0.63444273436E+02  0.82896364921E+02  0.49625964556E+02  0.11558425285E+03  0.00000000000E+00 0. -1.
<mgrwt>
<rscale>  4 0.26261692E+03</rscale>
<asrwt>0</asrwt>
<pdfrwt beam="1">  1       21 0.14009270E-01 0.26645801E+03</pdfrwt>
<pdfrwt beam="2">  1       -2 0.11335165E+00 0.26645801E+03</pdfrwt>
<totfact> 0.22984338E+03</totfact>
</mgrwt>
</event>
<event>
 5    0  0.2947253E-001  0.2393803E+03  0.7546771E-02  0.1120206E+00
         21   -1    0    0  501  502  0.00000000000E+00  0.00000000000E+00  0.16476853271E+04  0.16476853271E+04  0.00000000000E+00 0. -1.
         -2   -1    0    0    0  501 -0.00000000000E+00 -0.00000000000E+00 -0.30973985739E+02  0.30973985739E+02  0.00000000000E+00 0.  1.
         25    1    1    2    0    0 -0.19653828161E+03 -0.55232347662E+02  0.84341505976E+03  0.87672793465E+03  0.12500000000E+03 0.  0.
         21    1    1    2  501  501  0.71801292577E+02  0.11833777130E+02  0.38422044888E+03  0.39105091387E+03  0.00000000000E+00 0.  1.
         -2    1    1    2    0  502  0.12473698903E+03  0.43398570532E+02  0.38907583275E+03  0.41088046436E+03  0.00000000000E+00 0.  1.
<mgrwt>
<rscale>  4 0.23938026E+03</rscale>
<asrwt>0</asrwt>
<pdfrwt beam="1">  1       21 0.25348998E+00 0.23938026E+03</pdfrwt>
<pdfrwt beam="2">  1       -2 0.47652298E-02 0.23938026E+03</pdfrwt>
<totfact> 0.10077537E+03</totfact>
</mgrwt>
</event>
<event>
 5    0  0.2947253E-001  0.2859806E+03  0.7546771E-02  0.1092467E+00
         21   -1    0    0  503  502  0.00000000000E+00  0.00000000000E+00  0.30747098267E+03  0.30747098267E+03  0.00000000000E+00 0. -1.
          2   -1    0    0  502    0 -0.00000000000E+00 -0.00000000000E+00 -0.28807293540E+04  0.28807293540E+04  0.00000000000E+00 0.  1.
         25    1    1    2    0    0  0.18094356449E+03  0.18280953329E+03  0.23306272783E+03  0.36892158258E+03  0.12500000000E+03 0.  0.
         21    1    1    2  503  501 -0.31936831045E+02 -0.30889636513E+02 -0.90429600801E+03  0.90538687915E+03  0.00000000000E+00 0.  1.
          2    1    1    2  501    0 -0.14900673344E+03 -0.15191989678E+03 -0.19020250912E+04  0.19138918750E+04  0.00000000000E+00 0.  1.
<mgrwt>
<rscale>  4 0.28598059E+03</rscale>
<asrwt>0</asrwt>
<pdfrwt beam="1">  1       21 0.47303227E-01 0.28598059E+03</pdfrwt>
<pdfrwt beam="2">  1        2 0.44318914E+00 0.28598059E+03</pdfrwt>
<totfact> 0.12716379E+02</totfact>
</mgrwt>
</event>
<event>
 5    0  0.2947253E-001  0.6645043E+03  0.7546771E-02  0.9779937E-01
         21   -1    0    0  503  502  0.00000000000E+00  0.00000000000E+00  0.97551154727E+03  0.97551154727E+03  0.00000000000E+00 0. -1.
          2   -1    0    0  502    0 -0.00000000000E+00 -0.00000000000E+00 -0.15230908979E+04  0.15230908979E+04  0.00000000000E+00 0.  1.
         25    1    1    2    0    0  0.28741366820E+03 -0.59382154241E+03  0.76126443239E+03  0.10150759464E+04  0.12500000000E+03 0.  0.
         21    1    1    2  503  501 -0.46164421921E+01  0.87169965693E+02 -0.58416845839E+02  0.10503543371E+03  0.00000000000E+00 0. -1.
          2    1    1    2  501    0 -0.28279722601E+03  0.50665157672E+03 -0.12504269371E+04  0.13784910650E+04  0.00000000000E+00 0.  1.
<mgrwt>
<rscale>  4 0.66450432E+03</rscale>
<asrwt>0</asrwt>
<pdfrwt beam="1">  1       21 0.15007870E+00 0.66450432E+03</pdfrwt>
<pdfrwt beam="2">  1        2 0.23432168E+00 0.66450432E+03</pdfrwt>
<totfact> 0.39404644E+01</totfact>
</mgrwt>
</event>
<event>
 5    0  0.2947253E-001  0.4018570E+03  0.7546771E-02  0.1043139E+00
          2   -1    0    0  502    0 -0.00000000000E+00  0.00000000000E+00  0.28245531161E+04  0.28245531161E+04  0.00000000000E+00 0.  1.
         21   -1    0    0  503  502  0.00000000000E+00 -0.00000000000E+00 -0.10337515502E+03  0.10337515502E+03  0.00000000000E+00 0.  1.
         25    1    1    2    0    0  0.24011867945E+03  0.29699669858E+03  0.37334570046E+03  0.54852167800E+03  0.12500000000E+03 0.  0.
         21    1    1    2  503  501 -0.35699239636E+02 -0.53518711850E+02  0.28122670747E+03  0.28849115970E+03  0.00000000000E+00 0.  1.
          2    1    1    2  501    0 -0.20441943981E+03 -0.24347798673E+03  0.20666055531E+04  0.20909154334E+04  0.00000000000E+00 0.  1.
<mgrwt>
<rscale>  4 0.40185696E+03</rscale>
<asrwt>0</asrwt>
<pdfrwt beam="1">  1       21 0.15903872E-01 0.40185696E+03</pdfrwt>
<pdfrwt beam="2">  1        2 0.43454658E+00 0.40185696E+03</pdfrwt>
<totfact> 0.10966543E+03</totfact>
</mgrwt>
</event>
<event>
 5    0  0.2947253E-001  0.2474452E+03  0.7546771E-02  0.1114930E+00
          2   -1    0    0  502    0 -0.00000000000E+00  0.00000000000E+00  0.36363752428E+03  0.36363752428E+03  0.00000000000E+00 0.  1.
         21   -1    0    0  503  502  0.00000000000E+00 -0.00000000000E+00 -0.20702772277E+03  0.20702772277E+03  0.00000000000E+00 0. -1.
         25    1    1    2    0    0 -0.71966061744E+02  0.23165267413E+03  0.54419806982E+02  0.27825993399E+03  0.12500000000E+03 0.  0.
         21    1    1    2  503  501 -0.27202427527E+02 -0.57941618660E+02 -0.72162076283E+01  0.64414880958E+02  0.00000000000E+00 0.  1.
          2    1    1    2  501    0  0.99168489271E+02 -0.17371105547E+03  0.10940620215E+03  0.22799043209E+03  0.00000000000E+00 0.  1.
<mgrwt>
<rscale>  4 0.24744519E+03</rscale>
<asrwt>0</asrwt>
<pdfrwt beam="1">  1       21 0.31850419E-01 0.24744519E+03</pdfrwt>
<pdfrwt beam="2">  1        2 0.55944234E-01 0.24744519E+03</pdfrwt>
<totfact> 0.10336810E+04</totfact>
</mgrwt>
</event>
<event>
 5    0  0.2947253E-001  0.2427607E+03  0.7546771E-02  0.1117967E+00
          2   -1    0    0  502    0 -0.00000000000E+00  0.00000000000E+00  0.18074962503E+04  0.18074962503E+04  0.00000000000E+00 0.  1.
         21   -1    0    0  503  502  0.00000000000E+00 -0.00000000000E+00 -0.71748227182E+02  0.71748227182E+02  0.00000000000E+00 0. -1.
         25    1    1    2    0    0 -0.21566034624E+03 -0.40218532070E+02  0.24603303180E+03  0.35253959777E+03  0.12500000000E+03 0.  0.
         21    1    1    2  503  501  0.23913358407E+02  0.91866207915E+02  0.88819691401E+03  0.89325528654E+03  0.00000000000E+00 0.  1.
          2    1    1    2  501    0  0.19174698783E+03 -0.51647675845E+02  0.60151807728E+03  0.63344959314E+03  0.00000000000E+00 0.  1.
<mgrwt>
<rscale>  4 0.24276070E+03</rscale>
<asrwt>0</asrwt>
<pdfrwt beam="1">  1       21 0.11038190E-01 0.24276070E+03</pdfrwt>
<pdfrwt beam="2">  1        2 0.27807631E+00 0.24276070E+03</pdfrwt>
<totfact> 0.80966341E+03</totfact>
</mgrwt>
</event>
<event>
 5    0  0.2947253E-001  0.2370790E+03  0.7546771E-02  0.1121754E+00
          3   -1    0    0  502    0 -0.00000000000E+00  0.00000000000E+00  0.33282034858E+03  0.33282034858E+03  0.00000000000E+00 0.  1.
         21   -1    0    0  503  502  0.00000000000E+00 -0.00000000000E+00 -0.15828954382E+03  0.15828954382E+03  0.00000000000E+00 0.  1.
         25    1    1    2    0    0 -0.15280743132E+03 -0.13126825084E+03  0.35433895996E+02  0.23971238126E+03  0.12500000000E+03 0.  0.
         21    1    1    2  503  501  0.13139609079E+03  0.93433909435E+02  0.85859836453E+02  0.18266564982E+03  0.00000000000E+00 0.  1.
          3    1    1    2  501    0  0.21411340528E+02  0.37834341402E+02  0.53237072311E+02  0.68731861322E+02  0.00000000000E+00 0.  1.
<mgrwt>
<rscale>  4 0.23707903E+03</rscale>
<asrwt>0</asrwt>
<pdfrwt beam="1">  1       21 0.24352238E-01 0.23707903E+03</pdfrwt>
<pdfrwt beam="2">  1        3 0.51203130E-01 0.23707903E+03</pdfrwt>
<totfact> 0.29970641E+03</totfact>
</mgrwt>
</event>
<event>
 5    0  0.2947253E-001  0.2405335E+03  0.7546771E-02  0.1119438E+00
          2   -1    0    0  502    0 -0.00000000000E+00  0.00000000000E+00  0.19072483322E+04  0.19072483322E+04  0.00000000000E+00 0.  1.
         21   -1    0    0  503  502  0.00000000000E+00 -0.00000000000E+00 -0.31942255010E+02  0.31942255010E+02  0.00000000000E+00 0.  1.
         25    1    1    2    0    0  0.62107250146E+02 -0.19589302523E+03  0.59829564152E+03  0.64483646184E+03  0.12500000000E+03 0.  0.
         21    1    1    2  503  501  0.67222981176E+01  0.39867585969E+02  0.22245361262E+03  0.22609781837E+03  0.00000000000E+00 0.  1.
          2    1    1    2  501    0 -0.68829548264E+02  0.15602543927E+03  0.10545568231E+04  0.10682563070E+04  0.00000000000E+00 0.  1.
<mgrwt>
<rscale>  4 0.24053355E+03</rscale>
<asrwt>0</asrwt>
<pdfrwt beam="1">  1       21 0.49141946E-02 0.24053355E+03</pdfrwt>
<pdfrwt beam="2">  1        2 0.29342273E+00 0.24053355E+03</pdfrwt>
<totfact> 0.29428500E+04</totfact>
</mgrwt>
</event>
<event>
 5    0  0.2947253E-001  0.2641544E+03  0.7546771E-02  0.1104673E+00
         21   -1    0    0  501  502  0.00000000000E+00  0.00000000000E+00  0.85652543448E+03  0.85652543448E+03  0.00000000000E+00 0.  1.
         -2   -1    0    0    0  501 -0.00000000000E+00 -0.00000000000E+00 -0.17380183346E+03  0.17380183346E+03  0.00000000000E+00 0.  1.
         25    1    1    2    0    0 -0.22522161636E+03  0.58547176077E+02  0.73839523254E+03  0.78422258814E+03  0.12500000000E+03 0.  0.
         21    1    1    2  501  501  0.44329539786E+02 -0.15792006669E+02  0.11535368419E+02  0.48451628423E+02  0.00000000000E+00 0.  1.
         -2    1    1    2    0  502  0.18089207657E+03 -0.42755169408E+02 -0.67206999941E+02  0.19765305138E+03  0.00000000000E+00 0.  1.
<mgrwt>
<rscale>  4 0.26415440E+03</rscale>
<asrwt>0</asrwt>
<pdfrwt beam="1">  1       21 0.13177314E+00 0.26415440E+03</pdfrwt>
<pdfrwt beam="2">  1       -2 0.26738744E-01 0.26415440E+03</pdfrwt>
<totfact> 0.40714229E+02</totfact>
</mgrwt>
</event>
<event>
 5    0  0.2947253E-001  0.2554495E+03  0.7546771E-02  0.1109908E+00
          2   -1    0    0  502    0 -0.00000000000E+00  0.00000000000E+00  0.25261243401E+04  0.25261243401E+04  0.00000000000E+00 0.  1.
         21   -1    0    0  503  502  0.00000000000E+00 -0.00000000000E+00 -0.28665830770E+02  0.28665830770E+02  0.00000000000E+00 0.  1.
         25    1    1    2    0    0 -0.17139462082E+03 -0.14231422158E+03  0.76866051915E+03  0.80999595519E+03  0.12500000000E+03 0.  0.
         21    1    1    2  503  501  0.11564052382E+03  0.13161309682E+03  0.11577559182E+04  0.11709370197E+04  0.00000000000E+00 0.  1.
          2    1    1    2  501    0  0.55754097006E+02  0.10701124751E+02  0.57104207192E+03  0.57385719592E+03  0.00000000000E+00 0.  1.
<mgrwt>
<rscale>  4 0.25544951E+03</rscale>
<asrwt>0</asrwt>
<pdfrwt beam="1">  1       21 0.44101298E-02 0.25544951E+03</pdfrwt>
<pdfrwt beam="2">  1        2 0.38863434E+00 0.25544951E+03</pdfrwt>
<totfact> 0.16483706E+04</totfact>
</mgrwt>
</event>
<event>
 5    0  0.2947253E-001  0.2423792E+03  0.7546771E-02  0.1118218E+00
          1   -1    0    0  502    0 -0.00000000000E+00  0.00000000000E+00  0.54628885299E+02  0.54628885299E+02  0.00000000000E+00 0.  1.
         21   -1    0    0  503  502  0.00000000000E+00 -0.00000000000E+00 -0.10136148679E+04  0.10136148679E+04  0.00000000000E+00 0.  1.
         25    1    1    2    0    0 -0.20234271264E+03 -0.46691783696E+02 -0.37269087228E+03  0.44457415838E+03  0.12500000000E+03 0.  0.
         21    1    1    2  503  501  0.49880578177E+02  0.22878232988E+02 -0.20787856032E+03  0.21499995689E+03  0.00000000000E+00 0.  1.
          1    1    1    2  501    0  0.15246213446E+03  0.23813550708E+02 -0.37841655001E+03  0.40866963793E+03  0.00000000000E+00 0.  1.
<mgrwt>
<rscale>  4 0.24237924E+03</rscale>
<asrwt>0</asrwt>
<pdfrwt beam="1">  1       21 0.15594074E+00 0.24237924E+03</pdfrwt>
<pdfrwt beam="2">  1        1 0.84044445E-02 0.24237924E+03</pdfrwt>
<totfact> 0.22773320E+03</totfact>
</mgrwt>
</event>
<event>
 5    0  0.2947253E-001  0.3534894E+03  0.7546771E-02  0.1061192E+00
         -2   -1    0    0    0  501 -0.00000000000E+00  0.00000000000E+00  0.14244218786E+04  0.14244218786E+04  0.00000000000E+00 0.  1.
         21   -1    0    0  501  502  0.00000000000E+00 -0.00000000000E+00 -0.45932487254E+03  0.45932487254E+03  0.00000000000E+00 0.  1.
         25    1    1    2    0    0  0.25321530015E+03 -0.21551796333E+03 -0.35691008138E+03  0.50356309132E+03  0.12500000000E+03 0.  0.
         21    1    1    2  501  501  0.32318065903E+01  0.57097673378E+02  0.60861500773E+02  0.83514736157E+02  0.00000000000E+00 0. -1.
         -2    1    1    2    0  502 -0.25644710674E+03  0.15842028995E+03  0.12611455867E+04  0.12966689237E+04  0.00000000000E+00 0.  1.
<mgrwt>
<rscale>  4 0.35348943E+03</rscale>
<asrwt>0</asrwt>
<pdfrwt beam="1">  1       21 0.70665366E-01 0.35348943E+03</pdfrwt>
<pdfrwt beam="2">  1       -2 0.21914183E+00 0.35348943E+03</pdfrwt>
<totfact> 0.15080120E+01</totfact>
</mgrwt>
</event>
<event>
 5    0  0.2947253E-001  0.2620645E+03  0.7546771E-02  0.1105909E+00
         21   -1    0    0  501  502  0.00000000000E+00  0.00000000000E+00  0.74624546894E+03  0.74624546894E+03  0.00000000000E+00 0.  1.
         -4   -1    0    0    0  501 -0.00000000000E+00 -0.00000000000E+00 -0.18807396791E+03  0.18807396791E+03  0.00000000000E+00 0.  1.
         25    1    1    2    0    0 -0.21092121900E+03 -0.12731141731E+03  0.59225719090E+03  0.65352087784E+03  0.12500000000E+03 0.  0.
         21    1    1    2  501  501  0.29133330342E+02  0.78134832674E+02 -0.39777091702E+02  0.92390584141E+02  0.00000000000E+00 0.  1.
         -4    1    1    2    0  502  0.18178788866E+03  0.49176584639E+02  0.56914018397E+01  0.18840797487E+03  0.00000000000E+00 0.  1.
<mgrwt>
<rscale>  4 0.26206454E+03</rscale>
<asrwt>0</asrwt>
<pdfrwt beam="1">  1       21 0.11480699E+00 0.26206454E+03</pdfrwt>
<pdfrwt beam="2">  1       -4 0.28934457E-01 0.26206454E+03</pdfrwt>
<totfact> 0.27816257E+02</totfact>
</mgrwt>
</event>
<event>
 5    0  0.2947253E-001  0.2371172E+03  0.7546771E-02  0.1121728E+00
          2   -1    0    0  502    0 -0.00000000000E+00  0.00000000000E+00  0.77775799817E+03  0.77775799817E+03  0.00000000000E+00 0. -1.
         21   -1    0    0  503  502  0.00000000000E+00 -0.00000000000E+00 -0.74081427121E+02  0.74081427121E+02  0.00000000000E+00 0.  1.
         25    1    1    2    0    0  0.20656668904E+03  0.39917983230E+02  0.36240237839E+03  0.43729135170E+03  0.12500000000E+03 0.  0.
         21    1    1    2  503  501 -0.17814275734E+02  0.11153720871E+02 -0.23588012377E+00  0.21019266129E+02  0.00000000000E+00 0. -1.
          2    1    1    2  501    0 -0.18875241331E+03 -0.51071704101E+02  0.34151007278E+03  0.39352880746E+03  0.00000000000E+00 0. -1.
<mgrwt>
<rscale>  4 0.23711718E+03</rscale>
<asrwt>0</asrwt>
<pdfrwt beam="1">  1       21 0.11397143E-01 0.23711718E+03</pdfrwt>
<pdfrwt beam="2">  1        2 0.11965507E+00 0.23711718E+03</pdfrwt>
<totfact> 0.29716002E+04</totfact>
</mgrwt>
</event>
<event>
 5    0  0.2947253E-001  0.3619710E+03  0.7546771E-02  0.1057806E+00
          2   -1    0    0  502    0 -0.00000000000E+00  0.00000000000E+00  0.25367887480E+04  0.25367887480E+04  0.00000000000E+00 0. -1.
         21   -1    0    0  503  502  0.00000000000E+00 -0.00000000000E+00 -0.17031002556E+03  0.17031002556E+03  0.00000000000E+00 0.  1.
         25    1    1    2    0    0 -0.20569931711E+03 -0.27223643213E+03  0.71823452589E+02  0.37041664701E+03  0.12500000000E+03 0.  0.
         21    1    1    2  503  501  0.61631033272E+02 -0.25293404552E+02  0.12184003897E+03  0.13886373058E+03  0.00000000000E+00 0. -1.
          2    1    1    2  501    0  0.14406828384E+03  0.29752983668E+03  0.21728152309E+04  0.21978183960E+04  0.00000000000E+00 0. -1.
<mgrwt>
<rscale>  4 0.36197099E+03</rscale>
<asrwt>0</asrwt>
<pdfrwt beam="1">  1       21 0.26201544E-01 0.36197099E+03</pdfrwt>
<pdfrwt beam="2">  1        2 0.39027516E+00 0.36197099E+03</pdfrwt>
<totfact> 0.62843313E+02</totfact>
</mgrwt>
</event>
<event>
 5    0  0.2947253E-001  0.2709415E+03  0.7546771E-02  0.1100742E+00
          3   -1    0    0  502    0 -0.00000000000E+00  0.00000000000E+00  0.38509527343E+03  0.38509527343E+03  0.00000000000E+00 0.  1.
         21   -1    0    0  503  502  0.00000000000E+00 -0.00000000000E+00 -0.31634871346E+03  0.31634871346E+03  0.00000000000E+00 0. -1.
         25    1    1    2    0    0  0.30758235102E+02  0.24193038976E+03 -0.18988484169E+03  0.33340311280E+03  0.12500000000E+03 0.  0.
         21    1    1    2  503  501 -0.55202442097E+02 -0.22207110617E+03  0.21317733634E+03  0.31274184648E+03  0.00000000000E+00 0.  1.
          3    1    1    2  501    0  0.24444206995E+02 -0.19859283589E+02  0.45454065326E+02  0.55299027613E+02  0.00000000000E+00 0.  1.
<mgrwt>
<rscale>  4 0.27094148E+03</rscale>
<asrwt>0</asrwt>
<pdfrwt beam="1">  1       21 0.48669033E-01 0.27094148E+03</pdfrwt>
<pdfrwt beam="2">  1        3 0.59245426E-01 0.27094148E+03</pdfrwt>
<totfact> 0.55562921E+02</totfact>
</mgrwt>
</event>
<event>
 5    0  0.2947253E-001  0.3780191E+03  0.7546771E-02  0.1051668E+00
          1   -1    0    0  502    0 -0.00000000000E+00  0.00000000000E+00  0.11182936545E+04  0.11182936545E+04  0.00000000000E+00 0. -1.
         21   -1    0    0  503  502  0.00000000000E+00 -0.00000000000E+00 -0.45464990907E+03  0.45464990907E+03  0.00000000000E+00 0. -1.
         25    1    1    2    0    0  0.24772120687E+03  0.25672481030E+03 -0.33875447700E+03  0.50759533119E+03  0.12500000000E+03 0.  0.
         21    1    1    2  503  501 -0.15651560711E+02 -0.40843244731E+02  0.11406479745E+03  0.12216349704E+03  0.00000000000E+00 0. -1.
          1    1    1    2  501    0 -0.23206964616E+03 -0.21588156557E+03  0.88833342495E+03  0.94318473530E+03  0.00000000000E+00 0. -1.
<mgrwt>
<rscale>  4 0.37801908E+03</rscale>
<asrwt>0</asrwt>
<pdfrwt beam="1">  1       21 0.69946140E-01 0.37801908E+03</pdfrwt>
<pdfrwt beam="2">  1        1 0.17204518E+00 0.37801908E+03</pdfrwt>
<totfact> 0.24789591E+02</totfact>
</mgrwt>
</event>
<event>
 5    0  0.2947253E-001  0.2435569E+03  0.7546771E-02  0.1117446E+00
         21   -1    0    0  503  502  0.00000000000E+00  0.00000000000E+00  0.32154512479E+03  0.32154512479E+03  0.00000000000E+00 0.  1.
          2   -1    0    0  502    0 -0.00000000000E+00 -0.00000000000E+00 -0.49596899665E+03  0.49596899665E+03  0.00000000000E+00 0.  1.
         25    1    1    2    0    0 -0.18082534735E+03 -0.16260551756E+03  0.19557172128E+03  0.33617206718E+03  0.12500000000E+03 0.  0.
         21    1    1    2  503  501  0.13744241033E+03  0.16321803749E+02 -0.25549717316E+03  0.29057808405E+03  0.00000000000E+00 0.  1.
          2    1    1    2  501    0  0.43382937015E+02  0.14628371381E+03 -0.11449841999E+03  0.19076397021E+03  0.00000000000E+00 0.  1.
<mgrwt>
<rscale>  4 0.24355685E+03</rscale>
<asrwt>0</asrwt>
<pdfrwt beam="1">  1       21 0.49468481E-01 0.24355685E+03</pdfrwt>
<pdfrwt beam="2">  1        2 0.76302922E-01 0.24355685E+03</pdfrwt>
<totfact> 0.30083962E+03</totfact>
</mgrwt>
</event>
<event>
 5    0  0.2947253E-001  0.2641371E+03  0.7546771E-02  0.1104683E+00
          2   -1    0    0  502    0 -0.00000000000E+00  0.00000000000E+00  0.67004351675E+03  0.67004351675E+03  0.00000000000E+00 0. -1.
         21   -1    0    0  503  502  0.00000000000E+00 -0.00000000000E+00 -0.21582507989E+03  0.21582507989E+03  0.00000000000E+00 0.  1.
         25    1    1    2    0    0 -0.22444322082E+03 -0.61389310417E+02 -0.98811987854E+02  0.28201456655E+03  0.12500000000E+03 0.  0.
         21    1    1    2  503  501  0.86341910581E+02  0.40905480394E+02  0.15534224988E+03  0.18237159440E+03  0.00000000000E+00 0.  1.
          2    1    1    2  501    0  0.13810131023E+03  0.20483830024E+02  0.39768817484E+03  0.42148243568E+03  0.00000000000E+00 0. -1.
<mgrwt>
<rscale>  4 0.26413710E+03</rscale>
<asrwt>0</asrwt>
<pdfrwt beam="1">  1       21 0.33203859E-01 0.26413710E+03</pdfrwt>
<pdfrwt beam="2">  1        2 0.10308362E+00 0.26413710E+03</pdfrwt>
<totfact> 0.47586030E+03</totfact>
</mgrwt>
</event>
<event>
 5    0  0.2947253E-001  0.4032094E+03  0.7546771E-02  0.1042674E+00
         21   -1    0    0  501  502  0.00000000000E+00  0.00000000000E+00  0.13862928107E+04  0.13862928107E+04  0.00000000000E+00 0.  1.
         -1   -1    0    0    0  501 -0.00000000000E+00 -0.00000000000E+00 -0.13255212187E+03  0.13255212187E+03  0.00000000000E+00 0.  1.
         25    1    1    2    0    0 -0.36551370149E+01 -0.38332678890E+03  0.89597899267E+03  0.98252539022E+03  0.12500000000E+03 0.  0.
         21    1    1    2  501  501  0.10670757737E+02  0.98710626568E+02  0.16476439615E+03  0.19236673077E+03  0.00000000000E+00 0.  1.
         -1    1    1    2    0  502 -0.70156207216E+01  0.28461616233E+03  0.19299730002E+03  0.34395281160E+03  0.00000000000E+00 0.  1.
<mgrwt>
<rscale>  4 0.40320936E+03</rscale>
<asrwt>0</asrwt>
<pdfrwt beam="1">  1       21 0.21327581E+00 0.40320936E+03</pdfrwt>
<pdfrwt beam="2">  1       -1 0.20392635E-01 0.40320936E+03</pdfrwt>
<totfact> 0.17466521E+02</totfact>
</mgrwt>
</event>
<event>
 5    0  0.2947253E-001  0.2501889E+03  0.7546771E-02  0.1113185E+00
         21   -1    0    0  503  502  0.00000000000E+00  0.00000000000E+00  0.20738001035E+04  0.20738001035E+04  0.00000000000E+00 0.  1.
          1   -1    0    0  502    0 -0.00000000000E+00 -0.00000000000E+00 -0.24491085330E+03  0.24491085330E+03  0.00000000000E+00 0. -1.
         25    1    1    2    0    0 -0.14781715887E+02 -0.21694125720E+03  0.20078356193E+04  0.20234403580E+04  0.12500000000E+03 0.  0.
         21    1    1    2  503  501  0.69443175503E+01  0.21460220995E+02  0.87125044243E+01  0.24179999271E+02  0.00000000000E+00 0. -1.
          1    1    1    2  501    0  0.78373983367E+01  0.19548103621E+03 -0.18765887355E+03  0.27109059953E+03  0.00000000000E+00 0. -1.
<mgrwt>
<rscale>  4 0.25018892E+03</rscale>
<asrwt>0</asrwt>
<pdfrwt beam="1">  1       21 0.31904616E+00 0.25018892E+03</pdfrwt>
<pdfrwt beam="2">  1        1 0.37678594E-01 0.25018892E+03</pdfrwt>
<totfact> 0.30583688E+01</totfact>
</mgrwt>
</event>
<event>
 5    0  0.2947253E-001  0.2407763E+03  0.7546771E-02  0.1119277E+00
         21   -1    0    0  503  502  0.00000000000E+00  0.00000000000E+00  0.48347395509E+03  0.48347395509E+03  0.00000000000E+00 0.  1.
          2   -1    0    0  502    0 -0.00000000000E+00 -0.00000000000E+00 -0.20760443854E+04  0.20760443854E+04  0.00000000000E+00 0. -1.
         25    1    1    2    0    0  0.20200604670E+03 -0.44914038286E+02  0.44627964433E+03  0.50755712455E+03  0.12500000000E+03 0.  0.
         21    1    1    2  503  501 -0.67262223248E+02  0.40889599489E+01 -0.30261695081E+03  0.31002894250E+03  0.00000000000E+00 0.  1.
          2    1    1    2  501    0 -0.13474382346E+03  0.40825078337E+02 -0.17362331238E+04  0.17419322734E+04  0.00000000000E+00 0. -1.
<mgrwt>
<rscale>  4 0.24077634E+03</rscale>
<asrwt>0</asrwt>
<pdfrwt beam="1">  1       21 0.74380607E-01 0.24077634E+03</pdfrwt>
<pdfrwt beam="2">  1        2 0.31939145E+00 0.24077634E+03</pdfrwt>
<totfact> 0.13657311E+02</totfact>
</mgrwt>
</event>
<event>
 5    0  0.2947253E-001  0.2689542E+03  0.7546771E-02  0.1101880E+00
         21   -1    0    0  501  502  0.00000000000E+00  0.00000000000E+00  0.19401190316E+04  0.19401190316E+04  0.00000000000E+00 0.  1.
         -2   -1    0    0    0  501 -0.00000000000E+00 -0.00000000000E+00 -0.14435631208E+03  0.14435631208E+03  0.00000000000E+00 0. -1.
         25    1    1    2    0    0  0.24030759202E+03  0.48305439090E+00  0.17931200329E+04  0.18134642055E+04  0.12500000000E+03 0.  0.
         21    1    1    2  501  501 -0.29818065980E+02 -0.25148819624E+01  0.47163223396E+02  0.55855271292E+02  0.00000000000E+00 0. -1.
         -2    1    1    2    0  502 -0.21048952604E+03  0.20318275715E+01 -0.44520536730E+02  0.21515586696E+03  0.00000000000E+00 0. -1.
<mgrwt>
<rscale>  4 0.26895416E+03</rscale>
<asrwt>0</asrwt>
<pdfrwt beam="1">  1       21 0.29847983E+00 0.26895416E+03</pdfrwt>
<pdfrwt beam="2">  1       -2 0.22208665E-01 0.26895416E+03</pdfrwt>
<totfact> 0.45181320E+01</totfact>
</mgrwt>
</event>
<event>
 5    0  0.2947253E-001  0.2848525E+03  0.7546771E-02  0.1093068E+00
          2   -1    0    0  502    0 -0.00000000000E+00  0.00000000000E+00  0.16989540908E+04  0.16989540908E+04  0.00000000000E+00 0.  1.
         21   -1    0    0  503  502  0.00000000000E+00 -0.00000000000E+00 -0.44801700533E+03  0.44801700533E+03  0.00000000000E+00 0.  1.
         25    1    1    2    0    0 -0.25653400142E+03  0.12517642749E+02 -0.38908964743E+03  0.48268223398E+03  0.12500000000E+03 0.  0.
         21    1    1    2  503  501  0.23369076377E+03 -0.16855531948E+02  0.11455023641E+04  0.11692181782E+04  0.00000000000E+00 0.  1.
          2    1    1    2  501    0  0.22843237645E+02  0.43378891990E+01  0.49452436880E+03  0.49507068397E+03  0.00000000000E+00 0.  1.
<mgrwt>
<rscale>  4 0.28485251E+03</rscale>
<asrwt>0</asrwt>
<pdfrwt beam="1">  1       21 0.68925694E-01 0.28485251E+03</pdfrwt>
<pdfrwt beam="2">  1        2 0.26137755E+00 0.28485251E+03</pdfrwt>
<totfact> 0.24800404E+02</totfact>
</mgrwt>
</event>
<event>
 5    0  0.2947253E-001  0.2160029E+03  0.7546771E-02  0.1136899E+00
         21   -1    0    0  503  502  0.00000000000E+00  0.00000000000E+00  0.58212919692E+02  0.58212919692E+02  0.00000000000E+00 0. -1.
          1   -1    0    0  502    0 -0.00000000000E+00 -0.00000000000E+00 -0.10158393428E+04  0.10158393428E+04  0.00000000000E+00 0. -1.
         25    1    1    2    0    0 -0.20791650179E+03 -0.51734294161E+02 -0.53901239485E+03  0.59335071477E+03  0.12500000000E+03 0.  0.
         21    1    1    2  503  501  0.59387510517E+02 -0.92042166200E+01 -0.20410051166E+03  0.21276421896E+03  0.00000000000E+00 0. -1.
          1    1    1    2  501    0  0.14852899127E+03  0.60938510781E+02 -0.21451351659E+03  0.26793732876E+03  0.00000000000E+00 0. -1.
<mgrwt>
<rscale>  4 0.21600294E+03</rscale>
<asrwt>0</asrwt>
<pdfrwt beam="1">  1       21 0.89558343E-02 0.21600294E+03</pdfrwt>
<pdfrwt beam="2">  1        1 0.15628297E+00 0.21600294E+03</pdfrwt>
<totfact> 0.17145104E+04</totfact>
</mgrwt>
</event>
<event>
 5    0  0.2947253E-001  0.3299041E+03  0.7546771E-02  0.1071179E+00
         21   -1    0    0  503  502  0.00000000000E+00  0.00000000000E+00  0.23505013240E+03  0.23505013240E+03  0.00000000000E+00 0. -1.
          1   -1    0    0  502    0 -0.00000000000E+00 -0.00000000000E+00 -0.14525423450E+04  0.14525423450E+04  0.00000000000E+00 0. -1.
         25    1    1    2    0    0  0.21261241794E+03  0.22750171701E+03  0.76111100669E+02  0.34406245240E+03  0.12500000000E+03 0.  0.
         21    1    1    2  503  501 -0.35291945989E+02 -0.52284064386E+02 -0.67684256394E+02  0.92521907697E+02  0.00000000000E+00 0. -1.
          1    1    1    2  501    0 -0.17732047195E+03 -0.17521765263E+03 -0.12259190569E+04  0.12510081173E+04  0.00000000000E+00 0. -1.
<mgrwt>
<rscale>  4 0.32990413E+03</rscale>
<asrwt>0</asrwt>
<pdfrwt beam="1">  1       21 0.36161558E-01 0.32990413E+03</pdfrwt>
<pdfrwt beam="2">  1        1 0.22346806E+00 0.32990413E+03</pdfrwt>
<totfact> 0.59984434E+02</totfact>
</mgrwt>
</event>
<event>
 5    0  0.2947253E-001  0.3282512E+03  0.7546771E-02  0.1071913E+00
         21   -1    0    0  503  502  0.00000000000E+00  0.00000000000E+00  0.18960739827E+03  0.18960739827E+03  0.00000000000E+00 0.  1.
          4   -1    0    0  502    0 -0.00000000000E+00 -0.00000000000E+00 -0.83896776080E+03  0.83896776080E+03  0.00000000000E+00 0.  1.
         25    1    1    2    0    0  0.26993200859E+03  0.12217199566E+03 -0.48423795522E+02  0.32520631876E+03  0.12500000000E+03 0.  0.
         21    1    1    2  503  501  0.36783375299E+02 -0.83595074721E+01 -0.50209529440E+02  0.62800437181E+02  0.00000000000E+00 0. -1.
          4    1    1    2  501    0 -0.30671538389E+03 -0.11381248819E+03 -0.55072703756E+03  0.64056840313E+03  0.00000000000E+00 0.  1.
<mgrwt>
<rscale>  4 0.32825124E+03</rscale>
<asrwt>0</asrwt>
<pdfrwt beam="1">  1       21 0.29170369E-01 0.32825124E+03</pdfrwt>
<pdfrwt beam="2">  1        4 0.12907196E+00 0.32825124E+03</pdfrwt>
<totfact> 0.21547468E+02</totfact>
</mgrwt>
</event>
<event>
 5    0  0.5140656E-001  0.4877129E+03  0.7546771E-02  0.1017037E+00
         -3   -1    0    0    0  501 -0.00000000000E+00  0.00000000000E+00  0.18271715408E+04  0.18271715408E+04  0.00000000000E+00 0.  1.
         21   -1    0    0  501  502  0.00000000000E+00 -0.00000000000E+00 -0.16029741048E+04  0.16029741048E+04  0.00000000000E+00 0. -1.
         25    1    1    2    0    0 -0.38804297597E+03 -0.26834697486E+03 -0.15270014289E+04  0.16031050539E+04  0.12500000000E+03 0.  0.
         21    1    1    2  501  501  0.39934136143E+01  0.25121891115E+02  0.97596644716E+01  0.27245326499E+02  0.00000000000E+00 0. -1.
         -3    1    1    2    0  502  0.38404956236E+03  0.24322508375E+03  0.17414392004E+04  0.17997952651E+04  0.00000000000E+00 0.  1.
<mgrwt>
<rscale>  4 0.48771290E+03</rscale>
<asrwt>0</asrwt>
<pdfrwt beam="1">  1       21 0.24661140E+00 0.48771290E+03</pdfrwt>
<pdfrwt beam="2">  1       -3 0.28110331E+00 0.48771290E+03</pdfrwt>
<totfact> 0.14925917E-01</totfact>
</mgrwt>
</event>
<event>
 5    0  0.2947253E-001  0.4811750E+03  0.7546771E-02  0.1019173E+00
          1   -1    0    0  502    0 -0.00000000000E+00  0.00000000000E+00  0.75191083574E+03  0.75191083574E+03  0.00000000000E+00 0. -1.
         21   -1    0    0  503  502  0.00000000000E+00 -0.00000000000E+00 -0.39828245527E+03  0.39828245527E+03  0.00000000000E+00 0.  1.
         25    1    1    2    0    0 -0.33300794286E+03  0.31623322021E+03 -0.10286358892E+03  0.48693290862E+03  0.12500000000E+03 0.  0.
         21    1    1    2  503  501  0.86168479176E+02 -0.12846839980E+03  0.23812569650E+03  0.28395947578E+03  0.00000000000E+00 0. -1.
          1    1    1    2  501    0  0.24683946369E+03 -0.18776482040E+03  0.21836627289E+03  0.37930090660E+03  0.00000000000E+00 0. -1.
<mgrwt>
<rscale>  4 0.47986193E+03</rscale>
<asrwt>0</asrwt>
<pdfrwt beam="1">  1       21 0.61274224E-01 0.48117504E+03</pdfrwt>
<pdfrwt beam="2">  1        1 0.11567859E+00 0.48117504E+03</pdfrwt>
<totfact> 0.62902143E+02</totfact>
</mgrwt>
</event>
<event>
 5    0  0.2947253E-001  0.2753069E+03  0.7546771E-02  0.1098280E+00
          2   -1    0    0  502    0 -0.00000000000E+00  0.00000000000E+00  0.15757948917E+04  0.15757948917E+04  0.00000000000E+00 0. -1.
         21   -1    0    0  503  502  0.00000000000E+00 -0.00000000000E+00 -0.12052033523E+03  0.12052033523E+03  0.00000000000E+00 0.  1.
         25    1    1    2    0    0 -0.62481441147E+02  0.23720230981E+03  0.65072274330E+02  0.28289267780E+03  0.12500000000E+03 0.  0.
         21    1    1    2  503  501  0.74751340507E+01 -0.12827445938E+03  0.84634162185E+03  0.85603992631E+03  0.00000000000E+00 0.  1.
          2    1    1    2  501    0  0.55006307097E+02 -0.10892785042E+03  0.54386066028E+03  0.55738262282E+03  0.00000000000E+00 0. -1.
<mgrwt>
<rscale>  4 0.27530686E+03</rscale>
<asrwt>0</asrwt>
<pdfrwt beam="1">  1       21 0.18541591E-01 0.27530686E+03</pdfrwt>
<pdfrwt beam="2">  1        2 0.24242997E+00 0.27530686E+03</pdfrwt>
<totfact> 0.41106104E+03</totfact>
</mgrwt>
</event>
<event>
 5    0  0.2947253E-001  0.2447339E+03  0.7546771E-02  0.1116679E+00
          2   -1    0    0  502    0 -0.00000000000E+00  0.00000000000E+00  0.11559514361E+04  0.11559514361E+04  0.00000000000E+00 0. -1.
         21   -1    0    0  503  502  0.00000000000E+00 -0.00000000000E+00 -0.97285758203E+02  0.97285758203E+02  0.00000000000E+00 0.  1.
         25    1    1    2    0    0  0.20796647405E+02  0.20937326654E+03  0.90081961871E+02  0.26078616747E+03  0.12500000000E+03 0.  0.
         21    1    1    2  503  501 -0.26910496316E+02 -0.11657510011E+03  0.45217920433E+03  0.46773920256E+03  0.00000000000E+00 0. -1.
          2    1    1    2  501    0  0.61138489111E+01 -0.92798166433E+02  0.51640451166E+03  0.52471182425E+03  0.00000000000E+00 0. -1.
<mgrwt>
<rscale>  4 0.24473387E+03</rscale>
<asrwt>0</asrwt>
<pdfrwt beam="1">  1       21 0.14967041E-01 0.24473387E+03</pdfrwt>
<pdfrwt beam="2">  1        2 0.17783867E+00 0.24473387E+03</pdfrwt>
<totfact> 0.10487059E+04</totfact>
</mgrwt>
</event>
<event>
 5    0  0.2947253E-001  0.2117343E+03  0.7546771E-02  0.1140200E+00
         21   -1    0    0  501  502  0.00000000000E+00  0.00000000000E+00  0.16042893299E+03  0.16042893299E+03  0.00000000000E+00 0. -1.
         -2   -1    0    0    0  501 -0.00000000000E+00 -0.00000000000E+00 -0.71046141578E+03  0.71046141578E+03  0.00000000000E+00 0.  1.
         25    1    1    2    0    0 -0.97334292244E+02 -0.17622449076E+03  0.32516320960E+02  0.23918893519E+03  0.12500000000E+03 0.  0.
         21    1    1    2  501  501  0.30357752810E+02  0.21895966219E+02 -0.16008701741E+02  0.40710011346E+02  0.00000000000E+00 0.  1.
         -2    1    1    2    0  502  0.66976539434E+02  0.15432852454E+03 -0.56654010201E+03  0.59099140223E+03  0.00000000000E+00 0.  1.
<mgrwt>
<rscale>  4 0.21173432E+03</rscale>
<asrwt>0</asrwt>
<pdfrwt beam="1">  1       21 0.24681374E-01 0.21173432E+03</pdfrwt>
<pdfrwt beam="2">  1       -2 0.10930176E+00 0.21173432E+03</pdfrwt>
<totfact> 0.88217681E+02</totfact>
</mgrwt>
</event>
<event>
 5    0  0.2947253E-001  0.3268279E+03  0.7546771E-02  0.1072549E+00
         21   -1    0    0  503  502  0.00000000000E+00  0.00000000000E+00  0.13610665291E+04  0.13610665291E+04  0.00000000000E+00 0. -1.
          2   -1    0    0  502    0 -0.00000000000E+00 -0.00000000000E+00 -0.22360164725E+03  0.22360164725E+03  0.00000000000E+00 0. -1.
         25    1    1    2    0    0 -0.28916859579E+03 -0.11655451303E+03  0.11584042994E+04  0.12061214500E+04  0.12500000000E+03 0.  0.
         21    1    1    2  503  501  0.27120419794E+02  0.11223229980E+03 -0.14641997442E+02  0.11638726037E+03  0.00000000000E+00 0. -1.
          2    1    1    2  501    0  0.26204817599E+03  0.43222132277E+01 -0.62974201568E+01  0.26215946592E+03  0.00000000000E+00 0. -1.
<mgrwt>
<rscale>  4 0.32682793E+03</rscale>
<asrwt>0</asrwt>
<pdfrwt beam="1">  1       21 0.20939485E+00 0.32682793E+03</pdfrwt>
<pdfrwt beam="2">  1        2 0.34400254E-01 0.32682793E+03</pdfrwt>
<totfact> 0.19930474E+02</totfact>
</mgrwt>
</event>
<event>
 5    0  0.2947253E-001  0.2783172E+03  0.7546771E-02  0.1096612E+00
         21   -1    0    0  503  502  0.00000000000E+00  0.00000000000E+00  0.31606541769E+03  0.31606541769E+03  0.00000000000E+00 0. -1.
          2   -1    0    0  502    0 -0.00000000000E+00 -0.00000000000E+00 -0.96240919155E+03  0.96240919155E+03  0.00000000000E+00 0.  1.
         25    1    1    2    0    0  0.10593418517E+03  0.22659283579E+03  0.23059764948E+03  0.36244536245E+03  0.12500000000E+03 0.  0.
         21    1    1    2  503  501 -0.25150196853E+02 -0.79752545926E+01 -0.15986742590E+03  0.16203003102E+03  0.00000000000E+00 0.  1.
          2    1    1    2  501    0 -0.80783988318E+02 -0.21861758119E+03 -0.71707399744E+03  0.75399921577E+03  0.00000000000E+00 0.  1.
<mgrwt>
<rscale>  4 0.27831724E+03</rscale>
<asrwt>0</asrwt>
<pdfrwt beam="1">  1       21 0.48625449E-01 0.27831724E+03</pdfrwt>
<pdfrwt beam="2">  1        2 0.14806295E+00 0.27831724E+03</pdfrwt>
<totfact> 0.13658018E+03</totfact>
</mgrwt>
</event>
<event>
 5    0  0.2947253E-001  0.2411788E+03  0.7546771E-02  0.1119010E+00
          2   -1    0    0  502    0 -0.00000000000E+00  0.00000000000E+00  0.12521460543E+04  0.12521460543E+04  0.00000000000E+00 0.  1.
         21   -1    0    0  503  502  0.00000000000E+00 -0.00000000000E+00 -0.69994082234E+02  0.69994082234E+02  0.00000000000E+00 0.  1.
         25    1    1    2    0    0 -0.19147104631E+03 -0.76688043868E+02  0.19487570996E+03  0.31007057258E+03  0.12500000000E+03 0.  0.
         21    1    1    2  503  501  0.56890712414E+02  0.25078563546E+02  0.14835475098E+03  0.16085589714E+03  0.00000000000E+00 0. -1.
          2    1    1    2  501    0  0.13458033390E+03  0.51609480322E+02  0.83892151113E+03  0.85121366681E+03  0.00000000000E+00 0.  1.
<mgrwt>
<rscale>  4 0.24117881E+03</rscale>
<asrwt>0</asrwt>
<pdfrwt beam="1">  1       21 0.10768321E-01 0.24117881E+03</pdfrwt>
<pdfrwt beam="2">  1        2 0.19263784E+00 0.24117881E+03</pdfrwt>
<totfact> 0.16783034E+04</totfact>
</mgrwt>
</event>
<event>
 5    0  0.2947253E-001  0.5518931E+03  0.7546771E-02  0.1001805E+00
          2   -1    0    0  502    0 -0.00000000000E+00  0.00000000000E+00  0.23267139836E+03  0.23267139836E+03  0.00000000000E+00 0.  1.
         21   -1    0    0  503  502  0.00000000000E+00 -0.00000000000E+00 -0.16758657961E+04  0.16758657961E+04  0.00000000000E+00 0.  1.
         25    1    1    2    0    0  0.11984590071E+02 -0.52422873354E+03 -0.11795814953E+04  0.12969182316E+04  0.12500000000E+03 0.  0.
         21    1    1    2  503  501 -0.54735762880E+02  0.47864031464E+03 -0.26351753240E+03  0.54912115641E+03  0.00000000000E+00 0.  1.
          2    1    1    2  501    0  0.42751172808E+02  0.45588418901E+02 -0.95370055620E-01  0.62497806440E+02  0.00000000000E+00 0.  1.
<mgrwt>
<rscale>  4 0.54865616E+03</rscale>
<asrwt>0</asrwt>
<pdfrwt beam="1">  1       21 0.25782551E+00 0.55189310E+03</pdfrwt>
<pdfrwt beam="2">  1        2 0.35795600E-01 0.55189310E+03</pdfrwt>
<totfact> 0.86450431E+01</totfact>
</mgrwt>
</event>
<event>
 5    0  0.3117096E-001  0.2842140E+03  0.7546771E-02  0.1093409E+00
          2   -1    0    0  502    0 -0.00000000000E+00  0.00000000000E+00  0.20755691375E+04  0.20755691375E+04  0.00000000000E+00 0. -1.
         21   -1    0    0  503  502  0.00000000000E+00 -0.00000000000E+00 -0.13725007725E+03  0.13725007725E+03  0.00000000000E+00 0. -1.
         25    1    1    2    0    0 -0.27325364099E+03 -0.43381222385E+02  0.61235491072E+02  0.30971643181E+03  0.12500000000E+03 0.  0.
         21    1    1    2  503  501  0.26952364784E+02 -0.17850393177E+02  0.58010465285E+02  0.66409943432E+02  0.00000000000E+00 0.  1.
          2    1    1    2  501    0  0.24630127620E+03  0.61231615563E+02  0.18190731039E+04  0.18366928395E+04  0.00000000000E+00 0. -1.
<mgrwt>
<rscale>  4 0.28421397E+03</rscale>
<asrwt>0</asrwt>
<pdfrwt beam="1">  1       21 0.21115398E-01 0.28421397E+03</pdfrwt>
<pdfrwt beam="2">  1        2 0.31931830E+00 0.28421397E+03</pdfrwt>
<totfact> 0.17474216E+03</totfact>
</mgrwt>
</event>
<event>
 5    0  0.2947253E-001  0.2359904E+03  0.7546771E-02  0.1122493E+00
         -4   -1    0    0    0  501 -0.00000000000E+00  0.00000000000E+00  0.91413164501E+03  0.91413164501E+03  0.00000000000E+00 0. -1.
         21   -1    0    0  501  502  0.00000000000E+00 -0.00000000000E+00 -0.11475604991E+03  0.11475604991E+03  0.00000000000E+00 0. -1.
         25    1    1    2    0    0  0.17016169352E+03  0.10541098439E+03  0.37098968027E+02  0.23888870002E+03  0.12500000000E+03 0.  0.
         21    1    1    2  501  501 -0.20980011987E+02  0.50539146033E+01  0.68557852574E+02  0.71874071162E+02  0.00000000000E+00 0.  1.
         -4    1    1    2    0  502 -0.14918168153E+03 -0.11046489899E+03  0.69371877450E+03  0.71812492375E+03  0.00000000000E+00 0. -1.
<mgrwt>
<rscale>  4 0.23599042E+03</rscale>
<asrwt>0</asrwt>
<pdfrwt beam="1">  1       21 0.17654777E-01 0.23599042E+03</pdfrwt>
<pdfrwt beam="2">  1       -4 0.14063563E+00 0.23599042E+03</pdfrwt>
<totfact> 0.45678649E+02</totfact>
</mgrwt>
</event>
<event>
 5    0  0.2947253E-001  0.2736663E+03  0.7546771E-02  0.1099199E+00
         21   -1    0    0  501  502  0.00000000000E+00  0.00000000000E+00  0.48425840865E+03  0.48425840865E+03  0.00000000000E+00 0. -1.
         -2   -1    0    0    0  501 -0.00000000000E+00 -0.00000000000E+00 -0.21142134808E+03  0.21142134808E+03  0.00000000000E+00 0.  1.
         25    1    1    2    0    0  0.15404914499E+03  0.18851283473E+03  0.33131981249E+03  0.42972787445E+03  0.12500000000E+03 0.  0.
         21    1    1    2  501  501 -0.86605498613E+02 -0.38136808552E+02 -0.22025120548E+02  0.97159839912E+02  0.00000000000E+00 0.  1.
         -2    1    1    2    0  502 -0.67443646376E+02 -0.15037602618E+03 -0.36457631371E+02  0.16879204238E+03  0.00000000000E+00 0.  1.
<mgrwt>
<rscale>  4 0.27366627E+03</rscale>
<asrwt>0</asrwt>
<pdfrwt beam="1">  1       21 0.74501294E-01 0.27366627E+03</pdfrwt>
<pdfrwt beam="2">  1       -2 0.32526361E-01 0.27366627E+03</pdfrwt>
<totfact> 0.11127943E+03</totfact>
</mgrwt>
</event>
<event>
 5    0  0.2947253E-001  0.2602957E+03  0.7546771E-02  0.1106966E+00
         21   -1    0    0  503  502  0.00000000000E+00  0.00000000000E+00  0.15677214110E+03  0.15677214110E+03  0.00000000000E+00 0. -1.
          2   -1    0    0  502    0 -0.00000000000E+00 -0.00000000000E+00 -0.12797153346E+04  0.12797153346E+04  0.00000000000E+00 0.  1.
         25    1    1    2    0    0  0.20234239356E+03  0.11685136318E+03  0.17276415651E+02  0.26555632142E+03  0.12500000000E+03 0.  0.
         21    1    1    2  503  501 -0.44934369901E+02 -0.24825592315E+02 -0.79363765185E+02  0.94519917777E+02  0.00000000000E+00 0. -1.
          2    1    1    2  501    0 -0.15740802365E+03 -0.92025770865E+02 -0.10608558440E+04  0.10764112366E+04  0.00000000000E+00 0.  1.
<mgrwt>
<rscale>  4 0.26029568E+03</rscale>
<asrwt>0</asrwt>
<pdfrwt beam="1">  1       21 0.24118791E-01 0.26029568E+03</pdfrwt>
<pdfrwt beam="2">  1        2 0.19687928E+00 0.26029568E+03</pdfrwt>
<totfact> 0.36370337E+03</totfact>
</mgrwt>
</event>
<event>
 5    0  0.2947253E-001  0.3392249E+03  0.7546771E-02  0.1067127E+00
         21   -1    0    0  503  502  0.00000000000E+00  0.00000000000E+00  0.73482584454E+02  0.73482584454E+02  0.00000000000E+00 0.  1.
          1   -1    0    0  502    0 -0.00000000000E+00 -0.00000000000E+00 -0.25325840693E+04  0.25325840693E+04  0.00000000000E+00 0.  1.
         25    1    1    2    0    0 -0.27520603793E+02  0.32835187649E+03 -0.53608688268E+03  0.64155006368E+03  0.12500000000E+03 0.  0.
         21    1    1    2  503  501  0.30538994841E+02 -0.28884684373E+03 -0.10177571378E+04  0.10583925174E+04  0.00000000000E+00 0.  1.
          1    1    1    2  501    0 -0.30183910485E+01 -0.39505032753E+02 -0.90525746435E+03  0.90612407267E+03  0.00000000000E+00 0.  1.
<mgrwt>
<rscale>  4 0.33922493E+03</rscale>
<asrwt>0</asrwt>
<pdfrwt beam="1">  1       21 0.11305013E-01 0.33922493E+03</pdfrwt>
<pdfrwt beam="2">  1        1 0.38962830E+00 0.33922493E+03</pdfrwt>
<totfact> 0.10546604E+03</totfact>
</mgrwt>
</event>
<event>
 5    0  0.2947253E-001  0.2974928E+03  0.7546771E-02  0.1086501E+00
         21   -1    0    0  503  502  0.00000000000E+00  0.00000000000E+00  0.17565746734E+03  0.17565746734E+03  0.00000000000E+00 0.  1.
          1   -1    0    0  502    0 -0.00000000000E+00 -0.00000000000E+00 -0.55815502690E+03  0.55815502690E+03  0.00000000000E+00 0.  1.
         25    1    1    2    0    0  0.23800757049E+03 -0.12739447828E+03 -0.53103234354E+02  0.30219515252E+03  0.12500000000E+03 0.  0.
         21    1    1    2  503  501 -0.13806905002E+03  0.11190839044E+03 -0.21409385680E+03  0.27824940242E+03  0.00000000000E+00 0.  1.
          1    1    1    2  501    0 -0.99938520475E+02  0.15486087842E+02 -0.11530046841E+03  0.15336793931E+03  0.00000000000E+00 0.  1.
<mgrwt>
<rscale>  4 0.29749278E+03</rscale>
<asrwt>0</asrwt>
<pdfrwt beam="1">  1       21 0.27024225E-01 0.29749278E+03</pdfrwt>
<pdfrwt beam="2">  1        1 0.85870005E-01 0.29749278E+03</pdfrwt>
<totfact> 0.54678007E+03</totfact>
</mgrwt>
</event>
<event>
 5    0  0.2947253E-001  0.2439855E+03  0.7546771E-02  0.1117166E+00
          1   -1    0    0  502    0 -0.00000000000E+00  0.00000000000E+00  0.10055887671E+04  0.10055887671E+04  0.00000000000E+00 0. -1.
         21   -1    0    0  503  502  0.00000000000E+00 -0.00000000000E+00 -0.72965957159E+02  0.72965957159E+02  0.00000000000E+00 0. -1.
         25    1    1    2    0    0 -0.21434878901E+03  0.61486665144E+02  0.25894577990E+03  0.36387350861E+03  0.12500000000E+03 0.  0.
         21    1    1    2  503  501  0.35693290763E+02  0.14665170325E+01  0.22256089791E+03  0.22540966030E+03  0.00000000000E+00 0. -1.
          1    1    1    2  501    0  0.17865549825E+03 -0.62953182177E+02  0.45111613212E+03  0.48927155533E+03  0.00000000000E+00 0. -1.
<mgrwt>
<rscale>  4 0.24398547E+03</rscale>
<asrwt>0</asrwt>
<pdfrwt beam="1">  1       21 0.11225533E-01 0.24398547E+03</pdfrwt>
<pdfrwt beam="2">  1        1 0.15470595E+00 0.24398547E+03</pdfrwt>
<totfact> 0.11612576E+04</totfact>
</mgrwt>
</event>
<event>
 5    0  0.2947253E-001  0.2606218E+03  0.7546771E-02  0.1106770E+00
         -2   -1    0    0    0  501 -0.00000000000E+00  0.00000000000E+00  0.33100952777E+02  0.33100952777E+02  0.00000000000E+00 0. -1.
         21   -1    0    0  501  502  0.00000000000E+00 -0.00000000000E+00 -0.24427716504E+04  0.24427716504E+04  0.00000000000E+00 0. -1.
         25    1    1    2    0    0  0.17244465200E+03 -0.15020512859E+03 -0.18635399210E+04  0.18816760550E+04  0.12500000000E+03 0.  0.
         21    1    1    2  501  501 -0.49437314231E+02  0.20083971658E+02 -0.15763402808E+03  0.16642085436E+03  0.00000000000E+00 0.  1.
         -2    1    1    2    0  502 -0.12300733777E+03  0.13012115693E+03 -0.38849674851E+03  0.42777569383E+03  0.00000000000E+00 0. -1.
<mgrwt>
<rscale>  4 0.26062183E+03</rscale>
<asrwt>0</asrwt>
<pdfrwt beam="1">  1       21 0.37581116E+00 0.26062183E+03</pdfrwt>
<pdfrwt beam="2">  1       -2 0.50924524E-02 0.26062183E+03</pdfrwt>
<totfact> 0.16956109E+02</totfact>
</mgrwt>
</event>
<event>
 5    0  0.2947253E-001  0.3115070E+03  0.7546771E-02  0.1079626E+00
         21   -1    0    0  501  502  0.00000000000E+00  0.00000000000E+00  0.46605777140E+02  0.46605777140E+02  0.00000000000E+00 0.  1.
         -1   -1    0    0    0  501 -0.00000000000E+00 -0.00000000000E+00 -0.19502313898E+04  0.19502313898E+04  0.00000000000E+00 0.  1.
         25    1    1    2    0    0 -0.11925217495E+03 -0.25921138556E+03 -0.96817619320E+03  0.10170554384E+04  0.12500000000E+03 0.  0.
         21    1    1    2  501  501  0.31080537940E+02  0.24839831268E+02 -0.16161670946E+03  0.16644211557E+03  0.00000000000E+00 0.  1.
         -1    1    1    2    0  502  0.88171637006E+02  0.23437155429E+03 -0.77383271004E+03  0.81333961305E+03  0.00000000000E+00 0.  1.
<mgrwt>
<rscale>  4 0.31150702E+03</rscale>
<asrwt>0</asrwt>
<pdfrwt beam="1">  1       21 0.71701205E-02 0.31150702E+03</pdfrwt>
<pdfrwt beam="2">  1       -1 0.30003556E+00 0.31150702E+03</pdfrwt>
<totfact> 0.51564439E+02</totfact>
</mgrwt>
</event>
<event>
 5    0  0.2947253E-001  0.2463748E+03  0.7546771E-02  0.1115618E+00
         21   -1    0    0  503  502  0.00000000000E+00  0.00000000000E+00  0.35646886531E+02  0.35646886531E+02  0.00000000000E+00 0. -1.
          1   -1    0    0  502    0 -0.00000000000E+00 -0.00000000000E+00 -0.31953129810E+04  0.31953129810E+04  0.00000000000E+00 0. -1.
         25    1    1    2    0    0 -0.14812690788E+03  0.15273859792E+03 -0.48754853983E+03  0.54644234721E+03  0.12500000000E+03 0.  0.
         21    1    1    2  503  501 -0.20757404619E+02 -0.23837529448E+02 -0.75544546331E+03  0.75610643807E+03  0.00000000000E+00 0. -1.
          1    1    1    2  501    0  0.16888431250E+03 -0.12890106848E+03 -0.19166720913E+04  0.19284110823E+04  0.00000000000E+00 0. -1.
<mgrwt>
<rscale>  4 0.24637483E+03</rscale>
<asrwt>0</asrwt>
<pdfrwt beam="1">  1       21 0.54841346E-02 0.24637483E+03</pdfrwt>
<pdfrwt beam="2">  1        1 0.49158677E+00 0.24637483E+03</pdfrwt>
<totfact> 0.13639904E+03</totfact>
</mgrwt>
</event>
<event>
 5    0  0.2947253E-001  0.2181939E+03  0.7546771E-02  0.1135237E+00
          1   -1    0    0  502    0 -0.00000000000E+00  0.00000000000E+00  0.10597946624E+04  0.10597946624E+04  0.00000000000E+00 0.  1.
         21   -1    0    0  503  502  0.00000000000E+00 -0.00000000000E+00 -0.67278586442E+02  0.67278586442E+02  0.00000000000E+00 0. -1.
         25    1    1    2    0    0  0.15856129952E+03  0.12215894563E+03  0.29720518697E+03  0.37950021985E+03  0.12500000000E+03 0.  0.
         21    1    1    2  503  501 -0.91690733503E+02  0.32025837493E+02  0.35470201130E+03  0.36775856441E+03  0.00000000000E+00 0.  1.
          1    1    1    2  501    0 -0.66870566017E+02 -0.15418478313E+03  0.34060887770E+03  0.37981446460E+03  0.00000000000E+00 0.  1.
<mgrwt>
<rscale>  4 0.21819391E+03</rscale>
<asrwt>0</asrwt>
<pdfrwt beam="1">  1       21 0.10350553E-01 0.21819391E+03</pdfrwt>
<pdfrwt beam="2">  1        1 0.16304532E+00 0.21819391E+03</pdfrwt>
<totfact> 0.12319679E+04</totfact>
</mgrwt>
</event>
<event>
 5    0  0.2947253E-001  0.2420976E+03  0.7546771E-02  0.1118403E+00
         -4   -1    0    0    0  501 -0.00000000000E+00  0.00000000000E+00  0.22286040612E+03  0.22286040612E+03  0.00000000000E+00 0.  1.
         21   -1    0    0  501  502  0.00000000000E+00 -0.00000000000E+00 -0.37533102119E+03  0.37533102119E+03  0.00000000000E+00 0. -1.
         25    1    1    2    0    0  0.15148450188E+03  0.14155816634E+03 -0.25188847449E+03  0.34936953552E+03  0.12500000000E+03 0.  0.
         21    1    1    2  501  501 -0.96224363142E+01 -0.66977343839E+02  0.25279944412E+02  0.72233174220E+02  0.00000000000E+00 0.  1.
         -4    1    1    2    0  502 -0.14186206556E+03 -0.74580822502E+02  0.74137915013E+02  0.17658871757E+03  0.00000000000E+00 0.  1.
<mgrwt>
<rscale>  4 0.24209764E+03</rscale>
<asrwt>0</asrwt>
<pdfrwt beam="1">  1       21 0.57743233E-01 0.24209764E+03</pdfrwt>
<pdfrwt beam="2">  1       -4 0.34286217E-01 0.24209764E+03</pdfrwt>
<totfact> 0.97194165E+02</totfact>
</mgrwt>
</event>
<event>
 5    0  0.2947253E-001  0.2465161E+03  0.7546771E-02  0.1115527E+00
          1   -1    0    0  502    0 -0.00000000000E+00  0.00000000000E+00  0.46456000469E+03  0.46456000469E+03  0.00000000000E+00 0. -1.
         21   -1    0    0  503  502  0.00000000000E+00 -0.00000000000E+00 -0.44506355594E+03  0.44506355594E+03  0.00000000000E+00 0.  1.
         25    1    1    2    0    0 -0.19373110776E+03 -0.90818234712E+02 -0.37878338257E+03  0.45263842610E+03  0.12500000000E+03 0.  0.
         21    1    1    2  503  501  0.11875670529E+02  0.17052989007E+02  0.12746892485E+02  0.24378663881E+02  0.00000000000E+00 0. -1.
          1    1    1    2  501    0  0.18185543723E+03  0.73765245705E+02  0.38553293884E+03  0.43260647065E+03  0.00000000000E+00 0. -1.
<mgrwt>
<rscale>  4 0.24651615E+03</rscale>
<asrwt>0</asrwt>
<pdfrwt beam="1">  1       21 0.68471316E-01 0.24651615E+03</pdfrwt>
<pdfrwt beam="2">  1        1 0.71470770E-01 0.24651615E+03</pdfrwt>
<totfact> 0.10423452E+03</totfact>
</mgrwt>
</event>
<event>
 5    0  0.2947253E-001  0.2592616E+03  0.7546771E-02  0.1107588E+00
          2   -1    0    0  502    0 -0.00000000000E+00  0.00000000000E+00  0.17597992740E+04  0.17597992740E+04  0.00000000000E+00 0.  1.
         21   -1    0    0  503  502  0.00000000000E+00 -0.00000000000E+00 -0.62652575622E+02  0.62652575622E+02  0.00000000000E+00 0.  1.
         25    1    1    2    0    0 -0.15602253142E+03 -0.16507133160E+03  0.26311486059E+03  0.36938598335E+03  0.12500000000E+03 0.  0.
         21    1    1    2  503  501  0.82807892723E+01  0.37511766499E+02  0.19413093747E+03  0.19789523738E+03  0.00000000000E+00 0.  1.
          2    1    1    2  501    0  0.14774174215E+03  0.12755956510E+03  0.12399009003E+04  0.12551706289E+04  0.00000000000E+00 0.  1.
<mgrwt>
<rscale>  4 0.25926160E+03</rscale>
<asrwt>0</asrwt>
<pdfrwt beam="1">  1       21 0.96388591E-02 0.25926160E+03</pdfrwt>
<pdfrwt beam="2">  1        2 0.27073831E+00 0.25926160E+03</pdfrwt>
<totfact> 0.10859278E+04</totfact>
</mgrwt>
</event>
<event>
 5    0  0.2947253E-001  0.2436773E+03  0.7546771E-02  0.1117367E+00
         21   -1    0    0  503  502  0.00000000000E+00  0.00000000000E+00  0.34583909191E+03  0.34583909191E+03  0.00000000000E+00 0.  1.
          2   -1    0    0  502    0 -0.00000000000E+00 -0.00000000000E+00 -0.27780833074E+04  0.27780833074E+04  0.00000000000E+00 0.  1.
         25    1    1    2    0    0  0.20363206519E+03 -0.49318221723E+02  0.29731901247E+03  0.38460616238E+03  0.12500000000E+03 0.  0.
         21    1    1    2  503  501 -0.11516378359E+02  0.34875905723E+02 -0.33217175475E+03  0.33419609576E+03  0.00000000000E+00 0.  1.
          2    1    1    2  501    0 -0.19211568683E+03  0.14442316000E+02 -0.23973914732E+04  0.24051201412E+04  0.00000000000E+00 0.  1.
<mgrwt>
<rscale>  4 0.24367725E+03</rscale>
<asrwt>0</asrwt>
<pdfrwt beam="1">  1       21 0.53206011E-01 0.24367725E+03</pdfrwt>
<pdfrwt beam="2">  1        2 0.42739745E+00 0.24367725E+03</pdfrwt>
<totfact> 0.11746881E+02</totfact>
</mgrwt>
</event>
<event>
 5    0  0.2947253E-001  0.4063109E+03  0.7546771E-02  0.1041616E+00
         21   -1    0    0  503  502  0.00000000000E+00  0.00000000000E+00  0.11597920071E+04  0.11597920071E+04  0.00000000000E+00 0. -1.
          2   -1    0    0  502    0 -0.00000000000E+00 -0.00000000000E+00 -0.78394903741E+03  0.78394903741E+03  0.00000000000E+00 0. -1.
         25    1    1    2    0    0 -0.28433169322E+03  0.26304932250E+03  0.10606190385E+04  0.11360357400E+04  0.12500000000E+03 0.  0.
         21    1    1    2  503  501  0.43242696047E+02  0.25702635490E+02 -0.58629968814E+02  0.77253022437E+02  0.00000000000E+00 0. -1.
          2    1    1    2  501    0  0.24108899717E+03 -0.28875195799E+03 -0.62614609999E+03  0.73045228203E+03  0.00000000000E+00 0. -1.
<mgrwt>
<rscale>  4 0.40631092E+03</rscale>
<asrwt>0</asrwt>
<pdfrwt beam="1">  1       21 0.17842954E+00 0.40631092E+03</pdfrwt>
<pdfrwt beam="2">  1        2 0.12060754E+00 0.40631092E+03</pdfrwt>
<totfact> 0.74460396E+01</totfact>
</mgrwt>
</event>
<event>
 5    0  0.2947253E-001  0.2410656E+03  0.7546771E-02  0.1119085E+00
          2   -1    0    0  502    0 -0.00000000000E+00  0.00000000000E+00  0.21463342172E+04  0.21463342172E+04  0.00000000000E+00 0. -1.
         21   -1    0    0  503  502  0.00000000000E+00 -0.00000000000E+00 -0.43862677683E+02  0.43862677683E+02  0.00000000000E+00 0. -1.
         25    1    1    2    0    0 -0.14146036367E+03  0.14885871450E+03  0.37014794209E+03  0.44136657146E+03  0.12500000000E+03 0.  0.
         21    1    1    2  503  501  0.14553313544E+02  0.18170790040E+02  0.33964328624E+03  0.34044021272E+03  0.00000000000E+00 0. -1.
          2    1    1    2  501    0  0.12690705012E+03 -0.16702950454E+03  0.13926803111E+04  0.14083901107E+04  0.00000000000E+00 0. -1.
<mgrwt>
<rscale>  4 0.24106556E+03</rscale>
<asrwt>0</asrwt>
<pdfrwt beam="1">  1       21 0.67481059E-02 0.24106556E+03</pdfrwt>
<pdfrwt beam="2">  1        2 0.33020518E+00 0.24106556E+03</pdfrwt>
<totfact> 0.12786965E+04</totfact>
</mgrwt>
</event>
<event>
 5    0  0.2947253E-001  0.2084931E+03  0.7546771E-02  0.1142765E+00
         21   -1    0    0  503  502  0.00000000000E+00  0.00000000000E+00  0.48083000691E+03  0.48083000691E+03  0.00000000000E+00 0.  1.
          2   -1    0    0  502    0 -0.00000000000E+00 -0.00000000000E+00 -0.20588001256E+03  0.20588001256E+03  0.00000000000E+00 0.  1.
         25    1    1    2    0    0  0.20496207260E+03  0.34180783198E+02  0.35970505305E+03  0.43380929259E+03  0.12500000000E+03 0.  0.
         21    1    1    2  503  501 -0.43009152817E+02 -0.20386433237E+02  0.27869371503E+02  0.55155196982E+02  0.00000000000E+00 0. -1.
          2    1    1    2  501    0 -0.16195291978E+03 -0.13794349961E+02 -0.11262443021E+03  0.19774552990E+03  0.00000000000E+00 0.  1.
<mgrwt>
<rscale>  4 0.20849315E+03</rscale>
<asrwt>0</asrwt>
<pdfrwt beam="1">  1       21 0.73973847E-01 0.20849315E+03</pdfrwt>
<pdfrwt beam="2">  1        2 0.31673848E-01 0.20849315E+03</pdfrwt>
<totfact> 0.33179223E+03</totfact>
</mgrwt>
</event>
<event>
 5    0  0.2947253E-001  0.2170783E+03  0.7546771E-02  0.1136080E+00
         21   -1    0    0  503  502  0.00000000000E+00  0.00000000000E+00  0.51343707976E+02  0.51343707976E+02  0.00000000000E+00 0.  1.
          1   -1    0    0  502    0 -0.00000000000E+00 -0.00000000000E+00 -0.15564165943E+04  0.15564165943E+04  0.00000000000E+00 0. -1.
         25    1    1    2    0    0  0.22151522785E+03  0.17811516394E+01 -0.42355372714E+03  0.49405964057E+03  0.12500000000E+03 0.  0.
         21    1    1    2  503  501 -0.93070094921E+02  0.60533142289E+02 -0.64338574832E+03  0.65289472737E+03  0.00000000000E+00 0. -1.
          1    1    1    2  501    0 -0.12844513293E+03 -0.62314293928E+02 -0.43813341086E+03  0.46080593433E+03  0.00000000000E+00 0. -1.
<mgrwt>
<rscale>  4 0.21707827E+03</rscale>
<asrwt>0</asrwt>
<pdfrwt beam="1">  1       21 0.78990331E-02 0.21707827E+03</pdfrwt>
<pdfrwt beam="2">  1        1 0.23944867E+00 0.21707827E+03</pdfrwt>
<totfact> 0.90810339E+03</totfact>
</mgrwt>
</event>
<event>
 5    0  0.2947253E-001  0.2880914E+03  0.7546771E-02  0.1091350E+00
          2   -1    0    0  502    0 -0.00000000000E+00  0.00000000000E+00  0.87527596717E+03  0.87527596717E+03  0.00000000000E+00 0.  1.
         21   -1    0    0  503  502  0.00000000000E+00 -0.00000000000E+00 -0.94474595979E+02  0.94474595979E+02  0.00000000000E+00 0. -1.
         25    1    1    2    0    0  0.15629167947E+03 -0.20723071896E+03  0.28029557083E+03  0.40194808991E+03  0.12500000000E+03 0.  0.
         21    1    1    2  503  501 -0.29859724611E+02  0.21719140123E+02  0.12465739665E+03  0.13001073318E+03  0.00000000000E+00 0. -1.
          2    1    1    2  501    0 -0.12643195486E+03  0.18551157884E+03  0.37584840370E+03  0.43779174005E+03  0.00000000000E+00 0.  1.
<mgrwt>
<rscale>  4 0.28809141E+03</rscale>
<asrwt>0</asrwt>
<pdfrwt beam="1">  1       21 0.14534554E-01 0.28809141E+03</pdfrwt>
<pdfrwt beam="2">  1        2 0.13465784E+00 0.28809141E+03</pdfrwt>
<totfact> 0.16286047E+04</totfact>
</mgrwt>
</event>
<event>
 5    0  0.2947253E-001  0.2974739E+03  0.7546771E-02  0.1086510E+00
          1   -1    0    0  502    0 -0.00000000000E+00  0.00000000000E+00  0.88376588397E+03  0.88376588397E+03  0.00000000000E+00 0. -1.
         21   -1    0    0  503  502  0.00000000000E+00 -0.00000000000E+00 -0.30408159775E+03  0.30408159775E+03  0.00000000000E+00 0.  1.
         25    1    1    2    0    0 -0.25186895460E+03  0.20588161082E+03 -0.12260417379E+03  0.36943469165E+03  0.12500000000E+03 0.  0.
         21    1    1    2  503  501  0.77639400238E+02 -0.64443254670E+01  0.11688804085E+02  0.78778384986E+02  0.00000000000E+00 0.  1.
          1    1    1    2  501    0  0.17422955436E+03 -0.19943728535E+03  0.69059965593E+03  0.73963440507E+03  0.00000000000E+00 0. -1.
<mgrwt>
<rscale>  4 0.29747394E+03</rscale>
<asrwt>0</asrwt>
<pdfrwt beam="1">  1       21 0.46781784E-01 0.29747394E+03</pdfrwt>
<pdfrwt beam="2">  1        1 0.13596398E+00 0.29747394E+03</pdfrwt>
<totfact> 0.91803635E+02</totfact>
</mgrwt>
</event>
<event>
 5    0  0.2947253E-001  0.2481137E+03  0.7546771E-02  0.1114503E+00
         21   -1    0    0  501  502  0.00000000000E+00  0.00000000000E+00  0.41617485329E+03  0.41617485329E+03  0.00000000000E+00 0.  1.
         -4   -1    0    0    0  501 -0.00000000000E+00 -0.00000000000E+00 -0.26690236030E+03  0.26690236030E+03  0.00000000000E+00 0. -1.
         25    1    1    2    0    0  0.18490141603E+03  0.10838292942E+03  0.32087699284E+03  0.40561365555E+03  0.12500000000E+03 0.  0.
         21    1    1    2  501  501 -0.29293445388E+02 -0.24946237819E+02 -0.14486535824E+02  0.41113020373E+02  0.00000000000E+00 0.  1.
         -4    1    1    2    0  502 -0.15560797064E+03 -0.83436691606E+02 -0.15711796402E+03  0.23635053766E+03  0.00000000000E+00 0. -1.
<mgrwt>
<rscale>  4 0.24811367E+03</rscale>
<asrwt>0</asrwt>
<pdfrwt beam="1">  1       21 0.64026900E-01 0.24811367E+03</pdfrwt>
<pdfrwt beam="2">  1       -4 0.41061902E-01 0.24811367E+03</pdfrwt>
<totfact> 0.54432005E+02</totfact>
</mgrwt>
</event>
<event>
 5    0  0.2947253E-001  0.4318263E+03  0.7546771E-02  0.1033285E+00
         21   -1    0    0  503  502  0.00000000000E+00  0.00000000000E+00  0.25419364074E+03  0.25419364074E+03  0.00000000000E+00 0.  1.
          1   -1    0    0  502    0 -0.00000000000E+00 -0.00000000000E+00 -0.78520774517E+03  0.78520774517E+03  0.00000000000E+00 0.  1.
         25    1    1    2    0    0 -0.39989202072E+03  0.75746126435E+02 -0.20211544153E+03  0.47130325228E+03  0.12500000000E+03 0.  0.
         21    1    1    2  503  501  0.40657673423E+03 -0.11043884372E+03 -0.27318698111E+03  0.50212797737E+03  0.00000000000E+00 0.  1.
          1    1    1    2  501    0 -0.66847135053E+01  0.34692717286E+02 -0.55711681801E+02  0.65970156256E+02  0.00000000000E+00 0.  1.
<mgrwt>
<rscale>  4 0.43182632E+03</rscale>
<asrwt>0</asrwt>
<pdfrwt beam="1">  1       21 0.39106714E-01 0.43182632E+03</pdfrwt>
<pdfrwt beam="2">  1        1 0.12080119E+00 0.43182632E+03</pdfrwt>
<totfact> 0.15440194E+03</totfact>
</mgrwt>
</event>
<event>
 5    0  0.2947253E-001  0.2583617E+03  0.7546771E-02  0.1108132E+00
         21   -1    0    0  503  502  0.00000000000E+00  0.00000000000E+00  0.15934644813E+03  0.15934644813E+03  0.00000000000E+00 0. -1.
          1   -1    0    0  502    0 -0.00000000000E+00 -0.00000000000E+00 -0.69334412753E+03  0.69334412753E+03  0.00000000000E+00 0. -1.
         25    1    1    2    0    0  0.99880881301E+02 -0.20285359049E+03 -0.56024623025E+03  0.61694943726E+03  0.12500000000E+03 0.  0.
         21    1    1    2  503  501 -0.68549771607E+02  0.18147445812E+03  0.34213019136E+02  0.19698370698E+03  0.00000000000E+00 0. -1.
          1    1    1    2  501    0 -0.31331109694E+02  0.21379132377E+02 -0.79644682834E+01  0.38757431428E+02  0.00000000000E+00 0. -1.
<mgrwt>
<rscale>  4 0.25836170E+03</rscale>
<asrwt>0</asrwt>
<pdfrwt beam="1">  1       21 0.24514838E-01 0.25836170E+03</pdfrwt>
<pdfrwt beam="2">  1        1 0.10666833E+00 0.25836170E+03</pdfrwt>
<totfact> 0.49051448E+03</totfact>
</mgrwt>
</event>
<event>
 5    0  0.2947253E-001  0.3461806E+03  0.7546771E-02  0.1064194E+00
         21   -1    0    0  503  502  0.00000000000E+00  0.00000000000E+00  0.11367686484E+04  0.11367686484E+04  0.00000000000E+00 0. -1.
          1   -1    0    0  502    0 -0.00000000000E+00 -0.00000000000E+00 -0.12092315673E+03  0.12092315673E+03  0.00000000000E+00 0. -1.
         25    1    1    2    0    0 -0.20018142689E+03  0.25326546203E+03  0.77441248117E+03  0.84826628421E+03  0.12500000000E+03 0.  0.
         21    1    1    2  503  501  0.11898331335E+03 -0.20192524099E+03  0.16432583384E+03  0.28624082775E+03  0.00000000000E+00 0. -1.
          1    1    1    2  501    0  0.81198113538E+02 -0.51340221032E+02  0.77107176648E+02  0.12318469316E+03  0.00000000000E+00 0. -1.
<mgrwt>
<rscale>  4 0.34618059E+03</rscale>
<asrwt>0</asrwt>
<pdfrwt beam="1">  1       21 0.17488748E+00 0.34618059E+03</pdfrwt>
<pdfrwt beam="2">  1        1 0.18603563E-01 0.34618059E+03</pdfrwt>
<totfact> 0.55198577E+02</totfact>
</mgrwt>
</event>
<event>
 5    0  0.2947253E-001  0.2423292E+03  0.7546771E-02  0.1118251E+00
          2   -1    0    0  502    0 -0.00000000000E+00  0.00000000000E+00  0.19531930910E+03  0.19531930910E+03  0.00000000000E+00 0. -1.
         21   -1    0    0  503  502  0.00000000000E+00 -0.00000000000E+00 -0.13286335545E+04  0.13286335545E+04  0.00000000000E+00 0.  1.
         25    1    1    2    0    0 -0.62148896413E+02  0.20113878069E+03 -0.12421473333E+04  0.12660467179E+04  0.12500000000E+03 0.  0.
         21    1    1    2  503  501  0.13656766808E+02 -0.42014415226E+02 -0.19021728413E+02  0.48099319312E+02  0.00000000000E+00 0. -1.
          2    1    1    2  501    0  0.48492129604E+02 -0.15912436546E+03  0.12785481632E+03  0.20980682632E+03  0.00000000000E+00 0. -1.
<mgrwt>
<rscale>  4 0.24232916E+03</rscale>
<asrwt>0</asrwt>
<pdfrwt beam="1">  1       21 0.20440516E+00 0.24232916E+03</pdfrwt>
<pdfrwt beam="2">  1        2 0.30049124E-01 0.24232916E+03</pdfrwt>
<totfact> 0.26141200E+02</totfact>
</mgrwt>
</event>
<event>
 5    0  0.2947253E-001  0.2517110E+03  0.7546771E-02  0.1112228E+00
         21   -1    0    0  503  502  0.00000000000E+00  0.00000000000E+00  0.54646488984E+02  0.54646488984E+02  0.00000000000E+00 0. -1.
          1   -1    0    0  502    0 -0.00000000000E+00 -0.00000000000E+00 -0.11539114931E+04  0.11539114931E+04  0.00000000000E+00 0. -1.
         25    1    1    2    0    0 -0.90342465202E+02  0.19892627022E+03 -0.41747669862E+03  0.48748868284E+03  0.12500000000E+03 0.  0.
         21    1    1    2  503  501  0.31721042399E+02 -0.12672336510E+03 -0.28477370798E+03  0.31330671961E+03  0.00000000000E+00 0. -1.
          1    1    1    2  501    0  0.58621422803E+02 -0.72202905118E+02 -0.39701459755E+03  0.40776257968E+03  0.00000000000E+00 0. -1.
<mgrwt>
<rscale>  4 0.25171099E+03</rscale>
<asrwt>0</asrwt>
<pdfrwt beam="1">  1       21 0.84071528E-02 0.25171099E+03</pdfrwt>
<pdfrwt beam="2">  1        1 0.17752483E+00 0.25171099E+03</pdfrwt>
<totfact> 0.15105286E+04</totfact>
</mgrwt>
</event>
<event>
 5    0  0.2947253E-001  0.3897837E+03  0.7546771E-02  0.1047376E+00
          2   -1    0    0  502    0 -0.00000000000E+00  0.00000000000E+00  0.16862380686E+04  0.16862380686E+04  0.00000000000E+00 0. -1.
         21   -1    0    0  503  502  0.00000000000E+00 -0.00000000000E+00 -0.24488248640E+03  0.24488248640E+03  0.00000000000E+00 0. -1.
         25    1    1    2    0    0 -0.23735238089E+03 -0.38271523368E+03  0.11755269340E+03  0.48192399663E+03  0.12500000000E+03 0.  0.
         21    1    1    2  503  501  0.18896353694E+03  0.20253483520E+03  0.29915458688E+03  0.40770215184E+03  0.00000000000E+00 0. -1.
          2    1    1    2  501    0  0.48388843947E+02  0.18018039848E+03  0.10246483019E+04  0.10414944065E+04  0.00000000000E+00 0. -1.
<mgrwt>
<rscale>  4 0.38978374E+03</rscale>
<asrwt>0</asrwt>
<pdfrwt beam="1">  1       21 0.37674230E-01 0.38978374E+03</pdfrwt>
<pdfrwt beam="2">  1        2 0.25942123E+00 0.38978374E+03</pdfrwt>
<totfact> 0.86715509E+02</totfact>
</mgrwt>
</event>
<event>
 5    0  0.2947253E-001  0.2270579E+03  0.7546771E-02  0.1128728E+00
         21   -1    0    0  503  502  0.00000000000E+00  0.00000000000E+00  0.13887304784E+03  0.13887304784E+03  0.00000000000E+00 0. -1.
          2   -1    0    0  502    0 -0.00000000000E+00 -0.00000000000E+00 -0.18767790476E+04  0.18767790476E+04  0.00000000000E+00 0.  1.
         25    1    1    2    0    0  0.69531794759E+01  0.20341161303E+03  0.11683309794E+02  0.23913621798E+03  0.12500000000E+03 0.  0.
         21    1    1    2  503  501 -0.11441370531E+02 -0.14099288804E+03 -0.37963302898E+03  0.40513101107E+03  0.00000000000E+00 0. -1.
          2    1    1    2  501    0  0.44881910548E+01 -0.62418724991E+02 -0.13699562805E+04  0.13713848664E+04  0.00000000000E+00 0.  1.
<mgrwt>
<rscale>  4 0.22705795E+03</rscale>
<asrwt>0</asrwt>
<pdfrwt beam="1">  1       21 0.21365086E-01 0.22705795E+03</pdfrwt>
<pdfrwt beam="2">  1        2 0.28873522E+00 0.22705795E+03</pdfrwt>
<totfact> 0.22335023E+03</totfact>
</mgrwt>
</event>
<event>
 5    0  0.2947253E-001  0.2673613E+03  0.7546771E-02  0.1102799E+00
          1   -1    0    0  502    0 -0.00000000000E+00  0.00000000000E+00  0.31077799606E+03  0.31077799606E+03  0.00000000000E+00 0.  1.
         21   -1    0    0  503  502  0.00000000000E+00 -0.00000000000E+00 -0.57849295810E+03  0.57849295810E+03  0.00000000000E+00 0.  1.
         25    1    1    2    0    0  0.21874834351E+03 -0.77262199657E+02 -0.44826228848E+03  0.51998496571E+03  0.12500000000E+03 0.  0.
         21    1    1    2  503  501  0.43132641391E+02  0.18740852408E+02  0.21913671298E+01  0.47079150293E+02  0.00000000000E+00 0.  1.
          1    1    1    2  501    0 -0.26188098490E+03  0.58521347249E+02  0.17835595931E+03  0.32220683817E+03  0.00000000000E+00 0.  1.
<mgrwt>
<rscale>  4 0.26736127E+03</rscale>
<asrwt>0</asrwt>
<pdfrwt beam="1">  1       21 0.88998915E-01 0.26736127E+03</pdfrwt>
<pdfrwt beam="2">  1        1 0.47812000E-01 0.26736127E+03</pdfrwt>
<totfact> 0.95543798E+02</totfact>
</mgrwt>
</event>
<event>
 5    0  0.2947253E-001  0.3806626E+03  0.7546771E-02  0.1050689E+00
         21   -1    0    0  503  502  0.00000000000E+00  0.00000000000E+00  0.18034015995E+03  0.18034015995E+03  0.00000000000E+00 0.  1.
          1   -1    0    0  502    0 -0.00000000000E+00 -0.00000000000E+00 -0.80348240347E+03  0.80348240347E+03  0.00000000000E+00 0.  1.
         25    1    1    2    0    0 -0.10056907556E+03 -0.34520263279E+03 -0.22595460960E+03  0.44267310992E+03  0.12500000000E+03 0.  0.
         21    1    1    2  503  501  0.17868139920E+02  0.12502741553E+02 -0.43045777752E+02  0.48254823105E+02  0.00000000000E+00 0.  1.
          1    1    1    2  501    0  0.82700935642E+02  0.33269989124E+03 -0.35414185617E+03  0.49289463040E+03  0.00000000000E+00 0.  1.
<mgrwt>
<rscale>  4 0.38066258E+03</rscale>
<asrwt>0</asrwt>
<pdfrwt beam="1">  1       21 0.27744640E-01 0.38066258E+03</pdfrwt>
<pdfrwt beam="2">  1        1 0.12361268E+00 0.38066258E+03</pdfrwt>
<totfact> 0.29982833E+03</totfact>
</mgrwt>
</event>
<event>
 5    0  0.2947253E-001  0.2614596E+03  0.7546771E-02  0.1106269E+00
          2   -1    0    0  502    0 -0.00000000000E+00  0.00000000000E+00  0.34057729652E+04  0.34057729652E+04  0.00000000000E+00 0.  1.
         21   -1    0    0  503  502  0.00000000000E+00 -0.00000000000E+00 -0.80357609069E+02  0.80357609069E+02  0.00000000000E+00 0.  1.
         25    1    1    2    0    0  0.10888212337E+03  0.17626744520E+03  0.13138054579E+03  0.27533865845E+03  0.12500000000E+03 0.  0.
         21    1    1    2  503  501  0.39490735528E+02  0.91981260568E+00  0.91511876721E+02  0.99673405825E+02  0.00000000000E+00 0.  1.
          2    1    1    2  501    0 -0.14837285889E+03 -0.17718725781E+03  0.31025229337E+04  0.31111185100E+04  0.00000000000E+00 0.  1.
<mgrwt>
<rscale>  4 0.26145962E+03</rscale>
<asrwt>0</asrwt>
<pdfrwt beam="1">  1       21 0.12362712E-01 0.26145962E+03</pdfrwt>
<pdfrwt beam="2">  1        2 0.52396496E+00 0.26145962E+03</pdfrwt>
<totfact> 0.82060314E+02</totfact>
</mgrwt>
</event>
<event>
 5    0  0.2947253E-001  0.4669978E+03  0.7546771E-02  0.1022771E+00
          2   -1    0    0  502    0 -0.00000000000E+00  0.00000000000E+00  0.47428378677E+03  0.47428378677E+03  0.00000000000E+00 0. -1.
         21   -1    0    0  503  502  0.00000000000E+00 -0.00000000000E+00 -0.48674868094E+03  0.48674868094E+03  0.00000000000E+00 0. -1.
         25    1    1    2    0    0 -0.23915424076E+03  0.38113927633E+03 -0.14481999297E+03  0.48893734690E+03  0.12500000000E+03 0.  0.
         21    1    1    2  503  501  0.27416510263E+02 -0.23071022054E+02  0.20707877647E+02  0.41385423645E+02  0.00000000000E+00 0.  1.
          2    1    1    2  501    0  0.21173773050E+03 -0.35806825427E+03  0.11164722114E+03  0.43070969716E+03  0.00000000000E+00 0. -1.
<mgrwt>
<rscale>  4 0.46699775E+03</rscale>
<asrwt>0</asrwt>
<pdfrwt beam="1">  1       21 0.74884413E-01 0.46699775E+03</pdfrwt>
<pdfrwt beam="2">  1        2 0.72966736E-01 0.46699775E+03</pdfrwt>
<totfact> 0.12074235E+03</totfact>
</mgrwt>
</event>
<event>
 5    0  0.2947253E-001  0.2710962E+03  0.7546771E-02  0.1100654E+00
          4   -1    0    0  502    0 -0.00000000000E+00  0.00000000000E+00  0.22163261449E+04  0.22163261449E+04  0.00000000000E+00 0.  1.
         21   -1    0    0  503  502  0.00000000000E+00 -0.00000000000E+00 -0.15907978775E+03  0.15907978775E+03  0.00000000000E+00 0. -1.
         25    1    1    2    0    0 -0.28531152583E+02 -0.24706552467E+03 -0.10489649590E+02  0.27855059306E+03  0.12500000000E+03 0.  0.
         21    1    1    2  503  501  0.28536277533E+02  0.11474210143E+03  0.27625899139E+03  0.30049808535E+03  0.00000000000E+00 0. -1.
          4    1    1    2  501    0 -0.51249497619E-02  0.13232342324E+03  0.17914770154E+04  0.17963572543E+04  0.00000000000E+00 0.  1.
<mgrwt>
<rscale>  4 0.27109621E+03</rscale>
<asrwt>0</asrwt>
<pdfrwt beam="1">  1       21 0.24473815E-01 0.27109621E+03</pdfrwt>
<pdfrwt beam="2">  1        4 0.34097323E+00 0.27109621E+03</pdfrwt>
<totfact> 0.13392238E+01</totfact>
</mgrwt>
</event>
<event>
 5    0  0.2947253E-001  0.7151781E+03  0.7546771E-02  0.9703048E-01
         21   -1    0    0  503  502  0.00000000000E+00  0.00000000000E+00  0.21825064653E+04  0.21825064653E+04  0.00000000000E+00 0. -1.
          1   -1    0    0  502    0 -0.00000000000E+00 -0.00000000000E+00 -0.39425784386E+03  0.39425784386E+03  0.00000000000E+00 0. -1.
         25    1    1    2    0    0  0.42781659738E+03 -0.52447445480E+03  0.17268433657E+04  0.18589549496E+04  0.12500000000E+03 0.  0.
         21    1    1    2  503  501 -0.29195059589E+03  0.33631158772E+03  0.14918314924E+03  0.46967674681E+03  0.00000000000E+00 0. -1.
          1    1    1    2  501    0 -0.13586600149E+03  0.18816286708E+03 -0.87777893562E+02  0.24813261275E+03  0.00000000000E+00 0. -1.
<mgrwt>
<rscale>  4 0.70835585E+03</rscale>
<asrwt>0</asrwt>
<pdfrwt beam="1">  1       21 0.33577022E+00 0.71517807E+03</pdfrwt>
<pdfrwt beam="2">  1        1 0.60655054E-01 0.71517807E+03</pdfrwt>
<totfact> 0.10072927E+01</totfact>
</mgrwt>
</event>
<event>
 5    0  0.2947253E-001  0.2394429E+03  0.7546771E-02  0.1120164E+00
          2   -1    0    0  502    0 -0.00000000000E+00  0.00000000000E+00  0.54236848863E+03  0.54236848863E+03  0.00000000000E+00 0.  1.
         21   -1    0    0  503  502  0.00000000000E+00 -0.00000000000E+00 -0.98848051511E+02  0.98848051511E+02  0.00000000000E+00 0.  1.
         25    1    1    2    0    0 -0.20328975727E+03  0.19524296345E+02  0.15766786577E+03  0.28669161037E+03  0.12500000000E+03 0.  0.
         21    1    1    2  503  501  0.20925202829E+02  0.12562325330E+02  0.29378408876E+02  0.38193808912E+02  0.00000000000E+00 0. -1.
          2    1    1    2  501    0  0.18236455444E+03 -0.32086621675E+02  0.25647416248E+03  0.31633112086E+03  0.00000000000E+00 0.  1.
<mgrwt>
<rscale>  4 0.23944294E+03</rscale>
<asrwt>0</asrwt>
<pdfrwt beam="1">  1       21 0.15207393E-01 0.23944294E+03</pdfrwt>
<pdfrwt beam="2">  1        2 0.83441304E-01 0.23944294E+03</pdfrwt>
<totfact> 0.27063778E+04</totfact>
</mgrwt>
</event>
<event>
 5    0  0.2947253E-001  0.2527835E+03  0.7546771E-02  0.1111558E+00
          2   -1    0    0  502    0 -0.00000000000E+00  0.00000000000E+00  0.19079873630E+04  0.19079873630E+04  0.00000000000E+00 0.  1.
         21   -1    0    0  503  502  0.00000000000E+00 -0.00000000000E+00 -0.12767121463E+03  0.12767121463E+03  0.00000000000E+00 0. -1.
         25    1    1    2    0    0 -0.21409080097E+03 -0.49392750021E+02  0.12775979914E+02  0.25310618419E+03  0.12500000000E+03 0.  0.
         21    1    1    2  503  501  0.54220977081E+02  0.38146930060E+02  0.37440288760E+03  0.38022707015E+03  0.00000000000E+00 0. -1.
          2    1    1    2  501    0  0.15986982389E+03  0.11245819962E+02  0.13931372808E+04  0.14023253233E+04  0.00000000000E+00 0.  1.
<mgrwt>
<rscale>  4 0.25278353E+03</rscale>
<asrwt>0</asrwt>
<pdfrwt beam="1">  1       21 0.19641727E-01 0.25278353E+03</pdfrwt>
<pdfrwt beam="2">  1        2 0.29353650E+00 0.25278353E+03</pdfrwt>
<totfact> 0.24887958E+03</totfact>
</mgrwt>
</event>
<event>
 5    0  0.2947253E-001  0.2767540E+03  0.7546771E-02  0.1097475E+00
         21   -1    0    0  503  502  0.00000000000E+00  0.00000000000E+00  0.30990369567E+03  0.30990369567E+03  0.00000000000E+00 0. -1.
          2   -1    0    0  502    0 -0.00000000000E+00 -0.00000000000E+00 -0.31813899606E+03  0.31813899606E+03  0.00000000000E+00 0. -1.
         25    1    1    2    0    0  0.17594645936E+03 -0.17831739901E+03  0.14950505988E+03  0.31738149644E+03  0.12500000000E+03 0.  0.
         21    1    1    2  503  501  0.75921101496E+01  0.25007731201E+02 -0.29098296642E+02  0.39111860398E+02  0.00000000000E+00 0.  1.
          2    1    1    2  501    0 -0.18353856951E+03  0.15330966781E+03 -0.12864206364E+03  0.27154933489E+03  0.00000000000E+00 0. -1.
<mgrwt>
<rscale>  4 0.27675399E+03</rscale>
<asrwt>0</asrwt>
<pdfrwt beam="1">  1       21 0.47677491E-01 0.27675399E+03</pdfrwt>
<pdfrwt beam="2">  1        2 0.48944461E-01 0.27675399E+03</pdfrwt>
<totfact> 0.52380388E+03</totfact>
</mgrwt>
</event>
<event>
 5    0  0.2947253E-001  0.5103728E+03  0.7546771E-02  0.1011137E+00
         21   -1    0    0  503  502  0.00000000000E+00  0.00000000000E+00  0.75133944558E+03  0.75133944558E+03  0.00000000000E+00 0.  1.
          2   -1    0    0  502    0 -0.00000000000E+00 -0.00000000000E+00 -0.34864263590E+03  0.34864263590E+03  0.00000000000E+00 0.  1.
         25    1    1    2    0    0  0.35049893483E+03  0.34859214646E+03  0.15677403382E+03  0.53345017159E+03  0.12500000000E+03 0.  0.
         21    1    1    2  503  501 -0.23696411621E+03 -0.18799057509E+03  0.90115311308E+02  0.31561561752E+03  0.00000000000E+00 0.  1.
          2    1    1    2  501    0 -0.11353481863E+03 -0.16060157137E+03  0.15580746455E+03  0.25091629237E+03  0.00000000000E+00 0.  1.
<mgrwt>
<rscale>  4 0.51025290E+03</rscale>
<asrwt>0</asrwt>
<pdfrwt beam="1">  1       21 0.11559068E+00 0.51037280E+03</pdfrwt>
<pdfrwt beam="2">  1        2 0.53637329E-01 0.51037280E+03</pdfrwt>
<totfact> 0.59630146E+02</totfact>
</mgrwt>
</event>
<event>
 5    0  0.2947253E-001  0.3596466E+03  0.7546771E-02  0.1058724E+00
          1   -1    0    0  502    0 -0.00000000000E+00  0.00000000000E+00  0.89801262253E+02  0.89801262253E+02  0.00000000000E+00 0. -1.
         21   -1    0    0  503  502  0.00000000000E+00 -0.00000000000E+00 -0.19757415394E+04  0.19757415394E+04  0.00000000000E+00 0. -1.
         25    1    1    2    0    0 -0.31593992300E+03  0.11790946514E+03 -0.14829602672E+04  0.15259478467E+04  0.12500000000E+03 0.  0.
         21    1    1    2  503  501  0.35548895548E+02 -0.51498877359E+02 -0.33314094750E+02  0.70892081736E+02  0.00000000000E+00 0.  1.
          1    1    1    2  501    0  0.28039102746E+03 -0.66410587779E+02 -0.36966591517E+03  0.46870287314E+03  0.00000000000E+00 0. -1.
<mgrwt>
<rscale>  4 0.35964660E+03</rscale>
<asrwt>0</asrwt>
<pdfrwt beam="1">  1       21 0.30396022E+00 0.35964660E+03</pdfrwt>
<pdfrwt beam="2">  1        1 0.13815580E-01 0.35964660E+03</pdfrwt>
<totfact> 0.12624447E+02</totfact>
</mgrwt>
</event>
<event>
 5    0  0.2947253E-001  0.2396059E+03  0.7546771E-02  0.1120056E+00
          1   -1    0    0  502    0 -0.00000000000E+00  0.00000000000E+00  0.74857547949E+03  0.74857547949E+03  0.00000000000E+00 0. -1.
         21   -1    0    0  503  502  0.00000000000E+00 -0.00000000000E+00 -0.75790243007E+02  0.75790243007E+02  0.00000000000E+00 0. -1.
         25    1    1    2    0    0 -0.19124456626E+03  0.72190747928E+02  0.24300022630E+03  0.34126250628E+03  0.12500000000E+03 0.  0.
         21    1    1    2  503  501  0.64588818335E+02 -0.77209897543E+01  0.66575366916E+02  0.93078507813E+02  0.00000000000E+00 0. -1.
          1    1    1    2  501    0  0.12665574793E+03 -0.64469758174E+02  0.36320964327E+03  0.39002470840E+03  0.00000000000E+00 0. -1.
<mgrwt>
<rscale>  4 0.23960590E+03</rscale>
<asrwt>0</asrwt>
<pdfrwt beam="1">  1       21 0.11660038E-01 0.23960590E+03</pdfrwt>
<pdfrwt beam="2">  1        1 0.11516545E+00 0.23960590E+03</pdfrwt>
<totfact> 0.17424360E+04</totfact>
</mgrwt>
</event>
<event>
 5    0  0.2947253E-001  0.2902897E+03  0.7546771E-02  0.1090198E+00
          2   -1    0    0  502    0 -0.00000000000E+00  0.00000000000E+00  0.43418610988E+04  0.43418610988E+04  0.00000000000E+00 0. -1.
         21   -1    0    0  503  502  0.00000000000E+00 -0.00000000000E+00 -0.58252785036E+02  0.58252785036E+02  0.00000000000E+00 0. -1.
         25    1    1    2    0    0  0.16947091461E+03 -0.19617733538E+03  0.37021035184E+03  0.46892072083E+03  0.12500000000E+03 0.  0.
         21    1    1    2  503  501 -0.13431451324E+03  0.25016331291E+03  0.24536701072E+04  0.24700443451E+04  0.00000000000E+00 0. -1.
          2    1    1    2  501    0 -0.35156401370E+02 -0.53985977530E+02  0.14597278547E+04  0.14611488179E+04  0.00000000000E+00 0. -1.
<mgrwt>
<rscale>  4 0.29028971E+03</rscale>
<asrwt>0</asrwt>
<pdfrwt beam="1">  1       21 0.89619703E-02 0.29028971E+03</pdfrwt>
<pdfrwt beam="2">  1        2 0.66797838E+00 0.29028971E+03</pdfrwt>
<totfact> 0.28810198E+02</totfact>
</mgrwt>
</event>
<event>
 5    0  0.2947253E-001  0.2329569E+03  0.7546771E-02  0.1124576E+00
         -3   -1    0    0    0  501 -0.00000000000E+00  0.00000000000E+00  0.84647117758E+02  0.84647117758E+02  0.00000000000E+00 0. -1.
         21   -1    0    0  501  502  0.00000000000E+00 -0.00000000000E+00 -0.73542593767E+03  0.73542593767E+03  0.00000000000E+00 0.  1.
         25    1    1    2    0    0 -0.80129774846E+02 -0.18757501570E+03 -0.50419099047E+03  0.55806695136E+03  0.12500000000E+03 0.  0.
         21    1    1    2  501  501  0.14861969557E+02  0.14709303141E+02  0.66640661277E+01  0.21946560445E+02  0.00000000000E+00 0.  1.
         -3    1    1    2    0  502  0.65267805289E+02  0.17286571256E+03 -0.15325189556E+03  0.24005954362E+03  0.00000000000E+00 0. -1.
<mgrwt>
<rscale>  4 0.23295693E+03</rscale>
<asrwt>0</asrwt>
<pdfrwt beam="1">  1       21 0.11314245E+00 0.23295693E+03</pdfrwt>
<pdfrwt beam="2">  1       -3 0.13022633E-01 0.23295693E+03</pdfrwt>
<totfact> 0.14124713E+03</totfact>
</mgrwt>
</event>
<event>
 5    0  0.2947253E-001  0.2504399E+03  0.7546771E-02  0.1113027E+00
         21   -1    0    0  503  502  0.00000000000E+00  0.00000000000E+00  0.21908618798E+03  0.21908618798E+03  0.00000000000E+00 0. -1.
          2   -1    0    0  502    0 -0.00000000000E+00 -0.00000000000E+00 -0.42471403401E+03  0.42471403401E+03  0.00000000000E+00 0.  1.
         25    1    1    2    0    0  0.37834330092E+02 -0.21569274981E+03  0.83903020058E+02  0.26574332660E+03  0.12500000000E+03 0.  0.
         21    1    1    2  503  501 -0.26434608426E+02  0.45854012744E+01 -0.12573498955E+02  0.29629500560E+02  0.00000000000E+00 0. -1.
          2    1    1    2  501    0 -0.11399721666E+02  0.21110734854E+03 -0.27695736713E+03  0.34842739483E+03  0.00000000000E+00 0.  1.
<mgrwt>
<rscale>  4 0.25043989E+03</rscale>
<asrwt>0</asrwt>
<pdfrwt beam="1">  1       21 0.33705568E-01 0.25043989E+03</pdfrwt>
<pdfrwt beam="2">  1        2 0.65340620E-01 0.25043989E+03</pdfrwt>
<totfact> 0.77966702E+03</totfact>
</mgrwt>
</event>
<event>
 5    0  0.2947253E-001  0.2369218E+03  0.7546771E-02  0.1121861E+00
         21   -1    0    0  503  502  0.00000000000E+00  0.00000000000E+00  0.68881924144E+02  0.68881924144E+02  0.00000000000E+00 0.  1.
          2   -1    0    0  502    0 -0.00000000000E+00 -0.00000000000E+00 -0.99813389425E+03  0.99813389425E+03  0.00000000000E+00 0.  1.
         25    1    1    2    0    0 -0.36523180026E+02  0.19792166419E+03 -0.20663303623E+03  0.31437102203E+03  0.12500000000E+03 0.  0.
         21    1    1    2  503  501  0.16708716982E+02 -0.77038317749E+02 -0.18229075852E+03  0.19860514663E+03  0.00000000000E+00 0.  1.
          2    1    1    2  501    0  0.19814463044E+02 -0.12088334644E+03 -0.54032817535E+03  0.55403964973E+03  0.00000000000E+00 0.  1.
<mgrwt>
<rscale>  4 0.23692178E+03</rscale>
<asrwt>0</asrwt>
<pdfrwt beam="1">  1       21 0.10597218E-01 0.23692178E+03</pdfrwt>
<pdfrwt beam="2">  1        2 0.15355907E+00 0.23692178E+03</pdfrwt>
<totfact> 0.24302387E+04</totfact>
</mgrwt>
</event>
<event>
 5    0  0.2947253E-001  0.2898491E+03  0.7546771E-02  0.1090428E+00
         21   -1    0    0  503  502  0.00000000000E+00  0.00000000000E+00  0.18569275218E+03  0.18569275218E+03  0.00000000000E+00 0.  1.
          2   -1    0    0  502    0 -0.00000000000E+00 -0.00000000000E+00 -0.17020540300E+04  0.17020540300E+04  0.00000000000E+00 0. -1.
         25    1    1    2    0    0 -0.81143671094E+02 -0.26657065671E+03  0.22798614721E+02  0.30624987708E+03  0.12500000000E+03 0.  0.
         21    1    1    2  503  501 -0.75948779217E+02  0.14563057742E+03 -0.75563868031E+03  0.77328280553E+03  0.00000000000E+00 0. -1.
          2    1    1    2  501    0  0.15709245031E+03  0.12094007929E+03 -0.78352121222E+03  0.80821409956E+03  0.00000000000E+00 0. -1.
<mgrwt>
<rscale>  4 0.28984906E+03</rscale>
<asrwt>0</asrwt>
<pdfrwt beam="1">  1       21 0.28568115E-01 0.28984906E+03</pdfrwt>
<pdfrwt beam="2">  1        2 0.26185447E+00 0.28984906E+03</pdfrwt>
<totfact> 0.15335869E+03</totfact>
</mgrwt>
</event>
<event>
 5    0  0.2947253E-001  0.2346078E+03  0.7546771E-02  0.1123438E+00
         21   -1    0    0  503  502  0.00000000000E+00  0.00000000000E+00  0.86222189277E+02  0.86222189277E+02  0.00000000000E+00 0. -1.
          2   -1    0    0  502    0 -0.00000000000E+00 -0.00000000000E+00 -0.10118330960E+04  0.10118330960E+04  0.00000000000E+00 0.  1.
         25    1    1    2    0    0  0.20293616078E+03  0.48664575327E+02 -0.18476744794E+03  0.30547558996E+03  0.12500000000E+03 0.  0.
         21    1    1    2  503  501 -0.17281565111E+02 -0.89662399631E+02 -0.22583866709E+03  0.24360029137E+03  0.00000000000E+00 0. -1.
          2    1    1    2  501    0 -0.18565459567E+03  0.40997824304E+02 -0.51500479169E+03  0.54897940395E+03  0.00000000000E+00 0.  1.
<mgrwt>
<rscale>  4 0.23460781E+03</rscale>
<asrwt>0</asrwt>
<pdfrwt beam="1">  1       21 0.13264953E-01 0.23460781E+03</pdfrwt>
<pdfrwt beam="2">  1        2 0.15566662E+00 0.23460781E+03</pdfrwt>
<totfact> 0.15935001E+04</totfact>
</mgrwt>
</event>
<event>
 5    0  0.2947253E-001  0.2969894E+03  0.7546771E-02  0.1086755E+00
         21   -1    0    0  503  502  0.00000000000E+00  0.00000000000E+00  0.14161445971E+03  0.14161445971E+03  0.00000000000E+00 0. -1.
          1   -1    0    0  502    0 -0.00000000000E+00 -0.00000000000E+00 -0.61663713319E+03  0.61663713319E+03  0.00000000000E+00 0. -1.
         25    1    1    2    0    0 -0.21937458184E+03 -0.15637297646E+03 -0.17135381972E+03  0.34287730526E+03  0.12500000000E+03 0.  0.
         21    1    1    2  503  501  0.12447329817E+02  0.47907729299E+02 -0.46268231513E+02  0.67755706723E+02  0.00000000000E+00 0.  1.
          1    1    1    2  501    0  0.20692725202E+03  0.10846524716E+03 -0.25740062224E+03  0.34761858092E+03  0.00000000000E+00 0. -1.
<mgrwt>
<rscale>  4 0.29698942E+03</rscale>
<asrwt>0</asrwt>
<pdfrwt beam="1">  1       21 0.21786840E-01 0.29698942E+03</pdfrwt>
<pdfrwt beam="2">  1        1 0.94867250E-01 0.29698942E+03</pdfrwt>
<totfact> 0.72040980E+03</totfact>
</mgrwt>
</event>
<event>
 5    0  0.2947253E-001  0.2352334E+03  0.7546771E-02  0.1123010E+00
         -4   -1    0    0    0  501 -0.00000000000E+00  0.00000000000E+00  0.32234520569E+03  0.32234520569E+03  0.00000000000E+00 0.  1.
         21   -1    0    0  501  502  0.00000000000E+00 -0.00000000000E+00 -0.32707918060E+03  0.32707918060E+03  0.00000000000E+00 0. -1.
         25    1    1    2    0    0  0.19660094035E+03  0.95338904237E+02 -0.18325923388E+03  0.31136856490E+03  0.12500000000E+03 0.  0.
         21    1    1    2  501  501 -0.28511613366E+02 -0.11273923619E+03  0.54421680332E+02  0.12839301680E+03  0.00000000000E+00 0.  1.
         -4    1    1    2    0  502 -0.16808932698E+03  0.17400331955E+02  0.12410357864E+03  0.20966280459E+03  0.00000000000E+00 0.  1.
<mgrwt>
<rscale>  4 0.23523339E+03</rscale>
<asrwt>0</asrwt>
<pdfrwt beam="1">  1       21 0.50319874E-01 0.23523339E+03</pdfrwt>
<pdfrwt beam="2">  1       -4 0.49591570E-01 0.23523339E+03</pdfrwt>
<totfact> 0.62221602E+02</totfact>
</mgrwt>
</event>
<event>
 5    0  0.2947253E-001  0.2473264E+03  0.7546771E-02  0.1115006E+00
         21   -1    0    0  503  502  0.00000000000E+00  0.00000000000E+00  0.76474070983E+03  0.76474070983E+03  0.00000000000E+00 0.  1.
          1   -1    0    0  502    0 -0.00000000000E+00 -0.00000000000E+00 -0.65062263333E+03  0.65062263333E+03  0.00000000000E+00 0.  1.
         25    1    1    2    0    0 -0.15317187406E+03  0.14922287238E+03  0.71635079100E+03  0.75796605755E+03  0.12500000000E+03 0.  0.
         21    1    1    2  503  501  0.24875584300E+02  0.66567133421E+01 -0.40535106597E+01  0.26067939609E+02  0.00000000000E+00 0.  1.
          1    1    1    2  501    0  0.12829628976E+03 -0.15587958572E+03 -0.59817920384E+03  0.63132934599E+03  0.00000000000E+00 0.  1.
<mgrwt>
<rscale>  4 0.24732641E+03</rscale>
<asrwt>0</asrwt>
<pdfrwt beam="1">  1       21 0.11765242E+00 0.24732641E+03</pdfrwt>
<pdfrwt beam="2">  1        1 0.10009579E+00 0.24732641E+03</pdfrwt>
<totfact> 0.18604070E+02</totfact>
</mgrwt>
</event>
<event>
 5    0  0.2947253E-001  0.2549448E+03  0.7546771E-02  0.1110219E+00
          2   -1    0    0  502    0 -0.00000000000E+00  0.00000000000E+00  0.15285914221E+04  0.15285914221E+04  0.00000000000E+00 0. -1.
         21   -1    0    0  503  502  0.00000000000E+00 -0.00000000000E+00 -0.69706065230E+03  0.69706065230E+03  0.00000000000E+00 0.  1.
         25    1    1    2    0    0  0.20642924447E+03 -0.82212040377E+02 -0.66465098052E+03  0.71186921444E+03  0.12500000000E+03 0.  0.
         21    1    1    2  503  501 -0.22774093723E+02 -0.26464233294E+01  0.79908043630E+02  0.83132173905E+02  0.00000000000E+00 0.  1.
          2    1    1    2  501    0 -0.18365515075E+03  0.84858463707E+02  0.14162737067E+04  0.14306506861E+04  0.00000000000E+00 0. -1.
<mgrwt>
<rscale>  4 0.25494480E+03</rscale>
<asrwt>0</asrwt>
<pdfrwt beam="1">  1       21 0.10724010E+00 0.25494480E+03</pdfrwt>
<pdfrwt beam="2">  1        2 0.23516791E+00 0.25494480E+03</pdfrwt>
<totfact> 0.11171530E+02</totfact>
</mgrwt>
</event>
<event>
 5    0  0.2947253E-001  0.2742270E+03  0.7546771E-02  0.1098884E+00
          2   -1    0    0  502    0 -0.00000000000E+00  0.00000000000E+00  0.14781096449E+04  0.14781096449E+04  0.00000000000E+00 0. -1.
         21   -1    0    0  503  502  0.00000000000E+00 -0.00000000000E+00 -0.64317023893E+02  0.64317023893E+02  0.00000000000E+00 0.  1.
         25    1    1    2    0    0  0.80804895830E+02 -0.23031723100E+03  0.35383475936E+03  0.44766002169E+03  0.12500000000E+03 0.  0.
         21    1    1    2  503  501 -0.68378736868E+02  0.21442477491E+03  0.10467069843E+04  0.10706302568E+04  0.00000000000E+00 0. -1.
          2    1    1    2  501    0 -0.12426158963E+02  0.15892456090E+02  0.13250877332E+02  0.24136390310E+02  0.00000000000E+00 0. -1.
<mgrwt>
<rscale>  4 0.27422702E+03</rscale>
<asrwt>0</asrwt>
<pdfrwt beam="1">  1       21 0.98949279E-02 0.27422702E+03</pdfrwt>
<pdfrwt beam="2">  1        2 0.22740146E+00 0.27422702E+03</pdfrwt>
<totfact> 0.14561169E+04</totfact>
</mgrwt>
</event>
<event>
 5    0  0.2947253E-001  0.3120995E+03  0.7546771E-02  0.1079344E+00
          2   -1    0    0  502    0 -0.00000000000E+00  0.00000000000E+00  0.30369434333E+04  0.30369434333E+04  0.00000000000E+00 0.  1.
         21   -1    0    0  503  502  0.00000000000E+00 -0.00000000000E+00 -0.83350899272E+02  0.83350899272E+02  0.00000000000E+00 0. -1.
         25    1    1    2    0    0 -0.29319218527E+03 -0.82235875875E+01  0.26937647393E+03  0.41739426158E+03  0.12500000000E+03 0.  0.
         21    1    1    2  503  501  0.59359432082E+02  0.12028420508E+02  0.24010772743E+03  0.24762864505E+03  0.00000000000E+00 0.  1.
          2    1    1    2  501    0  0.23383275319E+03 -0.38048329203E+01  0.24441083326E+04  0.24552714259E+04  0.00000000000E+00 0.  1.
<mgrwt>
<rscale>  4 0.31209954E+03</rscale>
<asrwt>0</asrwt>
<pdfrwt beam="1">  1       21 0.12823218E-01 0.31209954E+03</pdfrwt>
<pdfrwt beam="2">  1        2 0.46722198E+00 0.31209954E+03</pdfrwt>
<totfact> 0.12667067E+03</totfact>
</mgrwt>
</event>
<event>
 5    0  0.2947253E-001  0.3474703E+03  0.7546771E-02  0.1063658E+00
          2   -1    0    0  502    0 -0.00000000000E+00  0.00000000000E+00  0.32847774166E+04  0.32847774166E+04  0.00000000000E+00 0.  1.
         21   -1    0    0  503  502  0.00000000000E+00 -0.00000000000E+00 -0.63545340019E+02  0.63545340019E+02  0.00000000000E+00 0.  1.
         25    1    1    2    0    0  0.19949125461E+03  0.29227098022E+03  0.67888476933E+03  0.77571168392E+03  0.12500000000E+03 0.  0.
         21    1    1    2  503  501  0.49042293237E+01 -0.48484673057E+02  0.12085716507E+03  0.13031219949E+03  0.00000000000E+00 0. -1.
          2    1    1    2  501    0 -0.20439548393E+03 -0.24378630716E+03  0.24214901422E+04  0.24422988732E+04  0.00000000000E+00 0.  1.
<mgrwt>
<rscale>  4 0.34747033E+03</rscale>
<asrwt>0</asrwt>
<pdfrwt beam="1">  1       21 0.97762087E-02 0.34747033E+03</pdfrwt>
<pdfrwt beam="2">  1        2 0.50535024E+00 0.34747033E+03</pdfrwt>
<totfact> 0.14299365E+03</totfact>
</mgrwt>
</event>
<event>
 5    0  0.2947253E-001  0.5337665E+03  0.7546771E-02  0.1005875E+00
         21   -1    0    0  503  502  0.00000000000E+00  0.00000000000E+00  0.86611592305E+03  0.86611592305E+03  0.00000000000E+00 0.  1.
          2   -1    0    0  502    0 -0.00000000000E+00 -0.00000000000E+00 -0.96941438319E+03  0.96941438319E+03  0.00000000000E+00 0.  1.
         25    1    1    2    0    0  0.50622578333E+03  0.58063892633E+02  0.69771613378E+03  0.87296549913E+03  0.12500000000E+03 0.  0.
         21    1    1    2  503  501 -0.15033098047E+03 -0.70681008770E+02 -0.16804463156E+03  0.23629262978E+03  0.00000000000E+00 0. -1.
          2    1    1    2  501    0 -0.35589480285E+03  0.12617116137E+02 -0.63296996236E+03  0.72627217733E+03  0.00000000000E+00 0.  1.
<mgrwt>
<rscale>  4 0.53147340E+03</rscale>
<asrwt>0</asrwt>
<pdfrwt beam="1">  1       21 0.13324860E+00 0.53376645E+03</pdfrwt>
<pdfrwt beam="2">  1        2 0.14914067E+00 0.53376645E+03</pdfrwt>
<totfact> 0.11904640E+02</totfact>
</mgrwt>
</event>
<event>
 5    0  0.2947253E-001  0.2445872E+03  0.7546771E-02  0.1116774E+00
          2   -1    0    0  502    0 -0.00000000000E+00  0.00000000000E+00  0.79036960859E+03  0.79036960859E+03  0.00000000000E+00 0. -1.
         21   -1    0    0  503  502  0.00000000000E+00 -0.00000000000E+00 -0.29765553051E+03  0.29765553051E+03  0.00000000000E+00 0. -1.
         25    1    1    2    0    0  0.51117626759E+01 -0.21017086513E+03 -0.22552359672E+03  0.33269177228E+03  0.12500000000E+03 0.  0.
         21    1    1    2  503  501 -0.44045275585E+02  0.46487064915E+02  0.16170229233E+03  0.17392143299E+03  0.00000000000E+00 0. -1.
          2    1    1    2  501    0  0.38933512910E+02  0.16368380022E+03  0.55653538245E+03  0.58141193383E+03  0.00000000000E+00 0. -1.
<mgrwt>
<rscale>  4 0.24458725E+03</rscale>
<asrwt>0</asrwt>
<pdfrwt beam="1">  1       21 0.45793159E-01 0.24458725E+03</pdfrwt>
<pdfrwt beam="2">  1        2 0.12159532E+00 0.24458725E+03</pdfrwt>
<totfact> 0.20359516E+03</totfact>
</mgrwt>
</event>
<event>
 5    0  0.2947253E-001  0.2671713E+03  0.7546771E-02  0.1102910E+00
         21   -1    0    0  503  502  0.00000000000E+00  0.00000000000E+00  0.32618362797E+02  0.32618362797E+02  0.00000000000E+00 0.  1.
          1   -1    0    0  502    0 -0.00000000000E+00 -0.00000000000E+00 -0.24424843840E+04  0.24424843840E+04  0.00000000000E+00 0. -1.
         25    1    1    2    0    0  0.23588270221E+03 -0.10716431052E+02 -0.71655749958E+03  0.76474514795E+03  0.12500000000E+03 0.  0.
         21    1    1    2  503  501 -0.13340398231E+03  0.26022757411E+02 -0.10494371829E+04  0.10582023470E+04  0.00000000000E+00 0. -1.
          1    1    1    2  501    0 -0.10247871990E+03 -0.15306326359E+02 -0.64387133878E+03  0.65215525189E+03  0.00000000000E+00 0. -1.
<mgrwt>
<rscale>  4 0.26717128E+03</rscale>
<asrwt>0</asrwt>
<pdfrwt beam="1">  1       21 0.50182088E-02 0.26717128E+03</pdfrwt>
<pdfrwt beam="2">  1        1 0.37576689E+00 0.26717128E+03</pdfrwt>
<totfact> 0.51683012E+03</totfact>
</mgrwt>
</event>
<event>
 5    0  0.2947253E-001  0.3970442E+03  0.7546771E-02  0.1044808E+00
         21   -1    0    0  503  502  0.00000000000E+00  0.00000000000E+00  0.58298183943E+03  0.58298183943E+03  0.00000000000E+00 0. -1.
          2   -1    0    0  502    0 -0.00000000000E+00 -0.00000000000E+00 -0.27293016987E+04  0.27293016987E+04  0.00000000000E+00 0.  1.
         25    1    1    2    0    0 -0.34449953869E+03  0.15042378398E+03  0.48341930585E+03  0.62500117777E+03  0.12500000000E+03 0.  0.
         21    1    1    2  503  501 -0.65484578424E+02 -0.66148438134E+02 -0.18635353041E+03  0.20830622693E+03  0.00000000000E+00 0.  1.
          2    1    1    2  501    0  0.40998411712E+03 -0.84275345842E+02 -0.24433856347E+04  0.24789761334E+04  0.00000000000E+00 0.  1.
<mgrwt>
<rscale>  4 0.39704419E+03</rscale>
<asrwt>0</asrwt>
<pdfrwt beam="1">  1       21 0.89689512E-01 0.39704419E+03</pdfrwt>
<pdfrwt beam="2">  1        2 0.41989258E+00 0.39704419E+03</pdfrwt>
<totfact> 0.35247781E+01</totfact>
</mgrwt>
</event>
<event>
 5    0  0.2947253E-001  0.2946905E+03  0.7546771E-02  0.1087925E+00
         21   -1    0    0  503  502  0.00000000000E+00  0.00000000000E+00  0.15573082428E+03  0.15573082428E+03  0.00000000000E+00 0.  1.
          2   -1    0    0  502    0 -0.00000000000E+00 -0.00000000000E+00 -0.33865491888E+04  0.33865491888E+04  0.00000000000E+00 0.  1.
         25    1    1    2    0    0  0.22663370798E+03  0.14090655384E+03  0.54678509405E+01  0.29474122871E+03  0.12500000000E+03 0.  0.
         21    1    1    2  503  501 -0.36512270040E+02 -0.64475423401E+01 -0.40632088579E+03  0.40800904266E+03  0.00000000000E+00 0.  1.
          2    1    1    2  501    0 -0.19012143794E+03 -0.13445901150E+03 -0.28299653297E+04  0.28395297417E+04  0.00000000000E+00 0.  1.
<mgrwt>
<rscale>  4 0.29469051E+03</rscale>
<asrwt>0</asrwt>
<pdfrwt beam="1">  1       21 0.23958589E-01 0.29469051E+03</pdfrwt>
<pdfrwt beam="2">  1        2 0.52100754E+00 0.29469051E+03</pdfrwt>
<totfact> 0.24154600E+02</totfact>
</mgrwt>
</event>
<event>
 5    0  0.2947253E-001  0.6028244E+03  0.7546771E-02  0.9899564E-01
         21   -1    0    0  503  502  0.00000000000E+00  0.00000000000E+00  0.14978739484E+04  0.14978739484E+04  0.00000000000E+00 0. -1.
          2   -1    0    0  502    0 -0.00000000000E+00 -0.00000000000E+00 -0.15357089662E+04  0.15357089662E+04  0.00000000000E+00 0. -1.
         25    1    1    2    0    0  0.57453177608E+03 -0.16273090041E+03  0.12396954203E+04  0.13816793560E+04  0.12500000000E+03 0.  0.
         21    1    1    2  503  501 -0.22300745040E+03 -0.28429870501E+03 -0.15425957794E+03  0.39287923588E+03  0.00000000000E+00 0.  1.
          2    1    1    2  501    0 -0.35152432568E+03  0.44702960542E+03 -0.11232708602E+04  0.12590243226E+04  0.00000000000E+00 0. -1.
<mgrwt>
<rscale>  4 0.60282441E+03</rscale>
<asrwt>0</asrwt>
<pdfrwt beam="1">  1       21 0.23044215E+00 0.60282441E+03</pdfrwt>
<pdfrwt beam="2">  1        2 0.23626292E+00 0.60282441E+03</pdfrwt>
<totfact> 0.10831422E+01</totfact>
</mgrwt>
</event>
<event>
 5    0  0.2947253E-001  0.2510417E+03  0.7546771E-02  0.1112648E+00
         21   -1    0    0  503  502  0.00000000000E+00  0.00000000000E+00  0.33908983966E+03  0.33908983966E+03  0.00000000000E+00 0. -1.
          1   -1    0    0  502    0 -0.00000000000E+00 -0.00000000000E+00 -0.59236800212E+03  0.59236800212E+03  0.00000000000E+00 0. -1.
         25    1    1    2    0    0  0.15005136963E+03  0.16229658249E+03  0.25990129448E+03  0.36335833153E+03  0.12500000000E+03 0.  0.
         21    1    1    2  503  501 -0.47383339624E+02  0.30722205164E+01 -0.12818514962E+03  0.13669693484E+03  0.00000000000E+00 0. -1.
          1    1    1    2  501    0 -0.10266803001E+03 -0.16536880301E+03 -0.38499430733E+03  0.43140257541E+03  0.00000000000E+00 0. -1.
<mgrwt>
<rscale>  4 0.25104173E+03</rscale>
<asrwt>0</asrwt>
<pdfrwt beam="1">  1       21 0.52167668E-01 0.25104173E+03</pdfrwt>
<pdfrwt beam="2">  1        1 0.91133538E-01 0.25104173E+03</pdfrwt>
<totfact> 0.13496850E+03</totfact>
</mgrwt>
</event>
<event>
 5    0  0.2947253E-001  0.2940307E+03  0.7546771E-02  0.1088649E+00
         21   -1    0    0  503  502  0.00000000000E+00  0.00000000000E+00  0.37905421591E+03  0.37905421591E+03  0.00000000000E+00 0. -1.
          1   -1    0    0  502    0 -0.00000000000E+00 -0.00000000000E+00 -0.30842055041E+03  0.30842055041E+03  0.00000000000E+00 0. -1.
         25    1    1    2    0    0  0.19944393080E+03  0.17117733802E+03  0.21313047433E+03  0.36073419809E+03  0.12500000000E+03 0.  0.
         21    1    1    2  503  501 -0.12722998165E+03 -0.71498307322E+02 -0.10594860754E+02  0.14632746582E+03  0.00000000000E+00 0. -1.
          1    1    1    2  501    0 -0.72213949150E+02 -0.99679030700E+02 -0.13190194807E+03  0.18041310240E+03  0.00000000000E+00 0. -1.
<mgrwt>
<rscale>  4 0.29328029E+03</rscale>
<asrwt>0</asrwt>
<pdfrwt beam="1">  1       21 0.58316033E-01 0.29403071E+03</pdfrwt>
<pdfrwt beam="2">  1        1 0.47449316E-01 0.29403071E+03</pdfrwt>
<totfact> 0.24662638E+03</totfact>
</mgrwt>
</event>
<event>
 5    0  0.2947253E-001  0.6638466E+03  0.7546771E-02  0.9781138E-01
         21   -1    0    0  503  502  0.00000000000E+00  0.00000000000E+00  0.67853401106E+03  0.67853401106E+03  0.00000000000E+00 0. -1.
          2   -1    0    0  502    0 -0.00000000000E+00 -0.00000000000E+00 -0.78577980294E+03  0.78577980294E+03  0.00000000000E+00 0. -1.
         25    1    1    2    0    0 -0.60897927159E+03  0.23283366135E+03  0.25754886942E+03  0.71205595793E+03  0.12500000000E+03 0.  0.
         21    1    1    2  503  501  0.32984147159E+02 -0.36848195576E+02 -0.26396604821E+02  0.56058221762E+02  0.00000000000E+00 0. -1.
          2    1    1    2  501    0  0.57599512443E+03 -0.19598546578E+03 -0.33839805649E+03  0.69619963430E+03  0.00000000000E+00 0. -1.
<mgrwt>
<rscale>  4 0.66384657E+03</rscale>
<asrwt>0</asrwt>
<pdfrwt beam="1">  1       21 0.10438985E+00 0.66384657E+03</pdfrwt>
<pdfrwt beam="2">  1        2 0.12088920E+00 0.66384657E+03</pdfrwt>
<totfact> 0.28604950E+02</totfact>
</mgrwt>
</event>
<event>
 5    0  0.2947253E-001  0.4533150E+03  0.7546771E-02  0.1026738E+00
         21   -1    0    0  503  502  0.00000000000E+00  0.00000000000E+00  0.17838181627E+03  0.17838181627E+03  0.00000000000E+00 0.  1.
          2   -1    0    0  502    0 -0.00000000000E+00 -0.00000000000E+00 -0.11258921672E+04  0.11258921672E+04  0.00000000000E+00 0.  1.
         25    1    1    2    0    0  0.14409520073E+03  0.41122512276E+03 -0.46956350288E+03  0.65267481313E+03  0.12500000000E+03 0.  0.
         21    1    1    2  503  501  0.58935626999E+01 -0.41766877827E+02 -0.29258469592E+02  0.51334824511E+02  0.00000000000E+00 0.  1.
          2    1    1    2  501    0 -0.14998876343E+03 -0.36945824493E+03 -0.44868837846E+03  0.60026434582E+03  0.00000000000E+00 0.  1.
<mgrwt>
<rscale>  4 0.45331504E+03</rscale>
<asrwt>0</asrwt>
<pdfrwt beam="1">  1       21 0.27443357E-01 0.45331504E+03</pdfrwt>
<pdfrwt beam="2">  1        2 0.17321418E+00 0.45331504E+03</pdfrwt>
<totfact> 0.32988334E+03</totfact>
</mgrwt>
</event>
<event>
 5    0  0.2947253E-001  0.3319360E+03  0.7546771E-02  0.1070283E+00
          1   -1    0    0  502    0 -0.00000000000E+00  0.00000000000E+00  0.16167756259E+03  0.16167756259E+03  0.00000000000E+00 0.  1.
         21   -1    0    0  503  502  0.00000000000E+00 -0.00000000000E+00 -0.73671804909E+03  0.73671804909E+03  0.00000000000E+00 0. -1.
         25    1    1    2    0    0 -0.63328406721E+02  0.30090868679E+03 -0.45183516050E+03  0.56065723677E+03  0.12500000000E+03 0.  0.
         21    1    1    2  503  501  0.50793107995E+02 -0.10193515094E+03 -0.59146866606E+02  0.12833186138E+03  0.00000000000E+00 0.  1.
          1    1    1    2  501    0  0.12535298726E+02 -0.19897353585E+03 -0.64058459398E+02  0.20940651352E+03  0.00000000000E+00 0.  1.
<mgrwt>
<rscale>  4 0.33193603E+03</rscale>
<asrwt>0</asrwt>
<pdfrwt beam="1">  1       21 0.11334124E+00 0.33193603E+03</pdfrwt>
<pdfrwt beam="2">  1        1 0.24873471E-01 0.33193603E+03</pdfrwt>
<totfact> 0.11988347E+03</totfact>
</mgrwt>
</event>
<event>
 5    0  0.2947253E-001  0.2246579E+03  0.7546771E-02  0.1130457E+00
         21   -1    0    0  503  502  0.00000000000E+00  0.00000000000E+00  0.33137818055E+03  0.33137818055E+03  0.00000000000E+00 0. -1.
          1   -1    0    0  502    0 -0.00000000000E+00 -0.00000000000E+00 -0.10200708198E+04  0.10200708198E+04  0.00000000000E+00 0. -1.
         25    1    1    2    0    0  0.17554533498E+03  0.10509054245E+03  0.26734736943E+03  0.35910973627E+03  0.12500000000E+03 0.  0.
         21    1    1    2  503  501 -0.81959465219E+02 -0.73084609210E+02 -0.18618260744E+03  0.21615429063E+03  0.00000000000E+00 0.  1.
          1    1    1    2  501    0 -0.93585869761E+02 -0.32005933244E+02 -0.76985740125E+03  0.77618497347E+03  0.00000000000E+00 0. -1.
<mgrwt>
<rscale>  4 0.22465789E+03</rscale>
<asrwt>0</asrwt>
<pdfrwt beam="1">  1       21 0.50981259E-01 0.22465789E+03</pdfrwt>
<pdfrwt beam="2">  1        1 0.15693397E+00 0.22465789E+03</pdfrwt>
<totfact> 0.62333960E+02</totfact>
</mgrwt>
</event>
<event>
 5    0  0.2947253E-001  0.2615285E+03  0.7546771E-02  0.1106228E+00
          1   -1    0    0  502    0 -0.00000000000E+00  0.00000000000E+00  0.50974954595E+03  0.50974954595E+03  0.00000000000E+00 0.  1.
         21   -1    0    0  503  502  0.00000000000E+00 -0.00000000000E+00 -0.16561721378E+03  0.16561721378E+03  0.00000000000E+00 0. -1.
         25    1    1    2    0    0  0.20785556926E+03 -0.10409137606E+03  0.51669583609E+02  0.26894924821E+03  0.12500000000E+03 0.  0.
         21    1    1    2  503  501 -0.32026007108E+02 -0.41992557715E+02  0.43450985495E+02  0.68388801534E+02  0.00000000000E+00 0.  1.
          1    1    1    2  501    0 -0.17582956215E+03  0.14608393377E+03  0.24901176307E+03  0.33802870999E+03  0.00000000000E+00 0.  1.
<mgrwt>
<rscale>  4 0.26152850E+03</rscale>
<asrwt>0</asrwt>
<pdfrwt beam="1">  1       21 0.25479572E-01 0.26152850E+03</pdfrwt>
<pdfrwt beam="2">  1        1 0.78423006E-01 0.26152850E+03</pdfrwt>
<totfact> 0.69836447E+03</totfact>
</mgrwt>
</event>
<event>
 5    0  0.2947253E-001  0.2325215E+03  0.7546771E-02  0.1124877E+00
          2   -1    0    0  502    0 -0.00000000000E+00  0.00000000000E+00  0.94968127501E+03  0.94968127501E+03  0.00000000000E+00 0.  1.
         21   -1    0    0  503  502  0.00000000000E+00 -0.00000000000E+00 -0.35098259767E+03  0.35098259767E+03  0.00000000000E+00 0. -1.
         25    1    1    2    0    0 -0.19775783541E+03 -0.32151238432E+02 -0.28210439418E+03  0.36789910684E+03  0.12500000000E+03 0.  0.
         21    1    1    2  503  501  0.90933484378E+02 -0.37916999497E+02  0.95751037722E+02  0.13738580224E+03  0.00000000000E+00 0. -1.
          2    1    1    2  501    0  0.10682435103E+03  0.70068237929E+02  0.78505203381E+03  0.79537896359E+03  0.00000000000E+00 0.  1.
<mgrwt>
<rscale>  4 0.23252151E+03</rscale>
<asrwt>0</asrwt>
<pdfrwt beam="1">  1       21 0.53997323E-01 0.23252151E+03</pdfrwt>
<pdfrwt beam="2">  1        2 0.14610481E+00 0.23252151E+03</pdfrwt>
<totfact> 0.11379707E+03</totfact>
</mgrwt>
</event>
<event>
 5    0  0.2947253E-001  0.2625961E+03  0.7546771E-02  0.1105593E+00
          2   -1    0    0  502    0 -0.00000000000E+00  0.00000000000E+00  0.10449899556E+04  0.10449899556E+04  0.00000000000E+00 0. -1.
         21   -1    0    0  503  502  0.00000000000E+00 -0.00000000000E+00 -0.11153070138E+03  0.11153070138E+03  0.00000000000E+00 0.  1.
         25    1    1    2    0    0  0.22760484841E+03  0.39086580115E+02  0.86711368758E+02  0.27654220154E+03  0.12500000000E+03 0.  0.
         21    1    1    2  503  501 -0.64380765506E+02 -0.39126152404E+02  0.23169203333E+03  0.24363279146E+03  0.00000000000E+00 0. -1.
          2    1    1    2  501    0 -0.16322408290E+03  0.39572288959E-01  0.61505585212E+03  0.63634566395E+03  0.00000000000E+00 0. -1.
<mgrwt>
<rscale>  4 0.26259613E+03</rscale>
<asrwt>0</asrwt>
<pdfrwt beam="1">  1       21 0.17158570E-01 0.26259613E+03</pdfrwt>
<pdfrwt beam="2">  1        2 0.16076768E+00 0.26259613E+03</pdfrwt>
<totfact> 0.94306759E+03</totfact>
</mgrwt>
</event>
<event>
 5    0  0.2947253E-001  0.2725747E+03  0.7546771E-02  0.1099815E+00
         21   -1    0    0  503  502  0.00000000000E+00  0.00000000000E+00  0.18774335273E+03  0.18774335273E+03  0.00000000000E+00 0.  1.
          2   -1    0    0  502    0 -0.00000000000E+00 -0.00000000000E+00 -0.71261353295E+03  0.71261353295E+03  0.00000000000E+00 0.  1.
         25    1    1    2    0    0 -0.87210186200E+02 -0.22597870503E+03  0.47999400410E+02  0.27676873765E+03  0.12500000000E+03 0.  0.
         21    1    1    2  503  501  0.35624981043E+02  0.41810487848E+02 -0.11887718912E+03  0.13095435182E+03  0.00000000000E+00 0. -1.
          2    1    1    2  501    0  0.51585205157E+02  0.18416821718E+03 -0.45399239152E+03  0.49263379621E+03  0.00000000000E+00 0.  1.
<mgrwt>
<rscale>  4 0.27257475E+03</rscale>
<asrwt>0</asrwt>
<pdfrwt beam="1">  1       21 0.28883593E-01 0.27257475E+03</pdfrwt>
<pdfrwt beam="2">  1        2 0.10963285E+00 0.27257475E+03</pdfrwt>
<totfact> 0.57994889E+03</totfact>
</mgrwt>
</event>
<event>
 5    0  0.2947253E-001  0.2922597E+03  0.7546771E-02  0.1089175E+00
         21   -1    0    0  501  502  0.00000000000E+00  0.00000000000E+00  0.62097698754E+03  0.62097698754E+03  0.00000000000E+00 0.  1.
         -1   -1    0    0    0  501 -0.00000000000E+00 -0.00000000000E+00 -0.15424575668E+03  0.15424575668E+03  0.00000000000E+00 0.  1.
         25    1    1    2    0    0 -0.23981175322E+03 -0.11081988569E+03  0.38994532939E+03  0.48731210118E+03  0.12500000000E+03 0.  0.
         21    1    1    2  501  501  0.50676238066E+02  0.22231010925E+02  0.54836314256E+02  0.77905842608E+02  0.00000000000E+00 0.  1.
         -1    1    1    2    0  502  0.18913551516E+03  0.88588874764E+02  0.21949587215E+02  0.21000480043E+03  0.00000000000E+00 0.  1.
<mgrwt>
<rscale>  4 0.29225969E+03</rscale>
<asrwt>0</asrwt>
<pdfrwt beam="1">  1       21 0.95534919E-01 0.29225969E+03</pdfrwt>
<pdfrwt beam="2">  1       -1 0.23730117E-01 0.29225969E+03</pdfrwt>
<totfact> 0.12208386E+03</totfact>
</mgrwt>
</event>
<event>
 5    0  0.2947253E-001  0.2787575E+03  0.7546771E-02  0.1096369E+00
          2   -1    0    0  502    0 -0.00000000000E+00  0.00000000000E+00  0.16111788898E+04  0.16111788898E+04  0.00000000000E+00 0. -1.
         21   -1    0    0  503  502  0.00000000000E+00 -0.00000000000E+00 -0.88551023179E+02  0.88551023179E+02  0.00000000000E+00 0. -1.
         25    1    1    2    0    0  0.28413878985E+03  0.11720054394E+02  0.31716730856E+03  0.44395080042E+03  0.12500000000E+03 0.  0.
         21    1    1    2  503  501 -0.11728085836E+03  0.95266558766E+02  0.44701398175E+03  0.47186016661E+03  0.00000000000E+00 0. -1.
          2    1    1    2  501    0 -0.16685793149E+03 -0.10698661316E+03  0.75844657628E+03  0.78391894592E+03  0.00000000000E+00 0. -1.
<mgrwt>
<rscale>  4 0.27875752E+03</rscale>
<asrwt>0</asrwt>
<pdfrwt beam="1">  1       21 0.13623236E-01 0.27875752E+03</pdfrwt>
<pdfrwt beam="2">  1        2 0.24787365E+00 0.27875752E+03</pdfrwt>
<totfact> 0.69438822E+03</totfact>
</mgrwt>
</event>
<event>
 5    0  0.2947253E-001  0.5595959E+03  0.7546771E-02  0.9992969E-01
          2   -1    0    0  502    0 -0.00000000000E+00  0.00000000000E+00  0.83808855835E+03  0.83808855835E+03  0.00000000000E+00 0.  1.
         21   -1    0    0  503  502  0.00000000000E+00 -0.00000000000E+00 -0.65300254974E+03  0.65300254974E+03  0.00000000000E+00 0.  1.
         25    1    1    2    0    0  0.21685565705E+03 -0.50049591134E+03 -0.39802023287E+03  0.68670782655E+03  0.12500000000E+03 0.  0.
         21    1    1    2  503  501 -0.21751876848E+02  0.70192098253E+01  0.17214467472E+02  0.28613831329E+02  0.00000000000E+00 0.  1.
          2    1    1    2  501    0 -0.19510378020E+03  0.49347670152E+03  0.56589177401E+03  0.77576945021E+03  0.00000000000E+00 0.  1.
<mgrwt>
<rscale>  4 0.55959587E+03</rscale>
<asrwt>0</asrwt>
<pdfrwt beam="1">  1       21 0.10046193E+00 0.55959587E+03</pdfrwt>
<pdfrwt beam="2">  1        2 0.12893670E+00 0.55959587E+03</pdfrwt>
<totfact> 0.29548986E+02</totfact>
</mgrwt>
</event>
<event>
 5    0  0.2947253E-001  0.2400389E+03  0.7546771E-02  0.1119767E+00
         21   -1    0    0  503  502  0.00000000000E+00  0.00000000000E+00  0.57186092465E+02  0.57186092465E+02  0.00000000000E+00 0.  1.
          2   -1    0    0  502    0 -0.00000000000E+00 -0.00000000000E+00 -0.92416128041E+03  0.92416128041E+03  0.00000000000E+00 0.  1.
         25    1    1    2    0    0 -0.19473147938E+02  0.20399627993E+03 -0.51162273309E+03  0.56513406085E+03  0.12500000000E+03 0.  0.
         21    1    1    2  503  501 -0.87954574434E+01 -0.66373562365E+02 -0.63371910509E+02  0.92188984669E+02  0.00000000000E+00 0.  1.
          2    1    1    2  501    0  0.28268605381E+02 -0.13762271757E+03 -0.29198054434E+03  0.32402432735E+03  0.00000000000E+00 0.  1.
<mgrwt>
<rscale>  4 0.24003893E+03</rscale>
<asrwt>0</asrwt>
<pdfrwt beam="1">  1       21 0.87978608E-02 0.24003893E+03</pdfrwt>
<pdfrwt beam="2">  1        2 0.14217865E+00 0.24003893E+03</pdfrwt>
<totfact> 0.37559867E+04</totfact>
</mgrwt>
</event>
<event>
 5    0  0.2947253E-001  0.2857465E+03  0.7546771E-02  0.1092591E+00
         21   -1    0    0  503  502  0.00000000000E+00  0.00000000000E+00  0.31263057773E+03  0.31263057773E+03  0.00000000000E+00 0. -1.
          2   -1    0    0  502    0 -0.00000000000E+00 -0.00000000000E+00 -0.64419382337E+03  0.64419382337E+03  0.00000000000E+00 0.  1.
         25    1    1    2    0    0 -0.13485538577E+03  0.22297706402E+03  0.20061751750E+03  0.35181974714E+03  0.12500000000E+03 0.  0.
         21    1    1    2  503  501 -0.21772242214E+01 -0.36002733377E+02 -0.16595174464E+02  0.39703109846E+02  0.00000000000E+00 0. -1.
          2    1    1    2  501    0  0.13703260999E+03 -0.18697433064E+03 -0.51558558868E+03  0.56530154411E+03  0.00000000000E+00 0.  1.
<mgrwt>
<rscale>  4 0.28574650E+03</rscale>
<asrwt>0</asrwt>
<pdfrwt beam="1">  1       21 0.48097012E-01 0.28574650E+03</pdfrwt>
<pdfrwt beam="2">  1        2 0.99106742E-01 0.28574650E+03</pdfrwt>
<totfact> 0.23290796E+03</totfact>
</mgrwt>
</event>
<event>
 5    0  0.2947253E-001  0.2592904E+03  0.7546771E-02  0.1107570E+00
         21   -1    0    0  501  502  0.00000000000E+00  0.00000000000E+00  0.27452123966E+03  0.27452123966E+03  0.00000000000E+00 0. -1.
         -4   -1    0    0    0  501 -0.00000000000E+00 -0.00000000000E+00 -0.36014612015E+03  0.36014612015E+03  0.00000000000E+00 0.  1.
         25    1    1    2    0    0 -0.16820502145E+03  0.15268781505E+03  0.15109257144E+03  0.30010075516E+03  0.12500000000E+03 0.  0.
         21    1    1    2  501  501  0.13282998151E+03 -0.96928393295E+02 -0.20031928876E+03  0.25916545846E+03  0.00000000000E+00 0.  1.
         -4    1    1    2    0  502  0.35375039944E+02 -0.55759421751E+02 -0.36398163172E+02  0.75401146194E+02  0.00000000000E+00 0.  1.
<mgrwt>
<rscale>  4 0.25929037E+03</rscale>
<asrwt>0</asrwt>
<pdfrwt beam="1">  1       21 0.42234037E-01 0.25929037E+03</pdfrwt>
<pdfrwt beam="2">  1       -4 0.55407095E-01 0.25929037E+03</pdfrwt>
<totfact> 0.70968895E+02</totfact>
</mgrwt>
</event>
<event>
 5    0  0.2947253E-001  0.2364542E+03  0.7546771E-02  0.1122178E+00
         21   -1    0    0  501  502  0.00000000000E+00  0.00000000000E+00  0.21031803445E+03  0.21031803445E+03  0.00000000000E+00 0.  1.
         -3   -1    0    0    0  501 -0.00000000000E+00 -0.00000000000E+00 -0.23768539864E+03  0.23768539864E+03  0.00000000000E+00 0.  1.
         25    1    1    2    0    0 -0.16380421024E+03 -0.11599035990E+03  0.59968141341E+01  0.23653021934E+03  0.12500000000E+03 0.  0.
         21    1    1    2  501  501  0.17361734448E+02  0.30664821068E+02  0.98003094422E+01  0.36576045977E+02  0.00000000000E+00 0.  1.
         -3    1    1    2    0  502  0.14644247579E+03  0.85325538832E+02 -0.43164487758E+02  0.17489716777E+03  0.00000000000E+00 0.  1.
<mgrwt>
<rscale>  4 0.23645419E+03</rscale>
<asrwt>0</asrwt>
<pdfrwt beam="1">  1       21 0.32356621E-01 0.23645419E+03</pdfrwt>
<pdfrwt beam="2">  1       -3 0.36566984E-01 0.23645419E+03</pdfrwt>
<totfact> 0.33502078E+03</totfact>
</mgrwt>
</event>
<event>
 5    0  0.2947253E-001  0.2662394E+03  0.7546771E-02  0.1103451E+00
         21   -1    0    0  503  502  0.00000000000E+00  0.00000000000E+00  0.12079983677E+04  0.12079983677E+04  0.00000000000E+00 0. -1.
          2   -1    0    0  502    0 -0.00000000000E+00 -0.00000000000E+00 -0.11854754215E+04  0.11854754215E+04  0.00000000000E+00 0. -1.
         25    1    1    2    0    0  0.12332024169E+01  0.23506784099E+03  0.11805766465E+04  0.12102250323E+04  0.12500000000E+03 0.  0.
         21    1    1    2  503  501 -0.13866340950E+02 -0.22606617915E+02 -0.76899094796E+02  0.81343748164E+02  0.00000000000E+00 0. -1.
          2    1    1    2  501    0  0.12633138533E+02 -0.21246122308E+03 -0.10811546055E+04  0.11019050088E+04  0.00000000000E+00 0. -1.
<mgrwt>
<rscale>  4 0.26623939E+03</rscale>
<asrwt>0</asrwt>
<pdfrwt beam="1">  1       21 0.18584590E+00 0.26623939E+03</pdfrwt>
<pdfrwt beam="2">  1        2 0.18238083E+00 0.26623939E+03</pdfrwt>
<totfact> 0.40248827E+01</totfact>
</mgrwt>
</event>
<event>
 5    0  0.2947253E-001  0.3824917E+03  0.7546771E-02  0.1050017E+00
          2   -1    0    0  502    0 -0.00000000000E+00  0.00000000000E+00  0.14692792233E+04  0.14692792233E+04  0.00000000000E+00 0. -1.
         21   -1    0    0  503  502  0.00000000000E+00 -0.00000000000E+00 -0.28701091273E+03  0.28701091273E+03  0.00000000000E+00 0. -1.
         25    1    1    2    0    0 -0.29020023220E+03  0.22184217523E+03 -0.11124807978E+03  0.40178509272E+03  0.12500000000E+03 0.  0.
         21    1    1    2  503  501  0.20652941741E+02 -0.19915685130E+02  0.37659404499E+03  0.37768538923E+03  0.00000000000E+00 0. -1.
          2    1    1    2  501    0  0.26954729046E+03 -0.20192649010E+03  0.91692234538E+03  0.97681965411E+03  0.00000000000E+00 0. -1.
<mgrwt>
<rscale>  4 0.38249174E+03</rscale>
<asrwt>0</asrwt>
<pdfrwt beam="1">  1       21 0.44155526E-01 0.38249174E+03</pdfrwt>
<pdfrwt beam="2">  1        2 0.22604295E+00 0.38249174E+03</pdfrwt>
<totfact> 0.82091913E+02</totfact>
</mgrwt>
</event>
<event>
 5    0  0.2947253E-001  0.2728929E+03  0.7546771E-02  0.1099635E+00
         21   -1    0    0  503  502  0.00000000000E+00  0.00000000000E+00  0.17383752404E+02  0.17383752404E+02  0.00000000000E+00 0. -1.
          2   -1    0    0  502    0 -0.00000000000E+00 -0.00000000000E+00 -0.41423805216E+04  0.41423805216E+04  0.00000000000E+00 0.  1.
         25    1    1    2    0    0  0.19508468370E+03 -0.14417872635E+03 -0.25879886913E+04  0.26023366433E+04  0.12500000000E+03 0.  0.
         21    1    1    2  503  501 -0.10916108793E+02  0.31479854159E+02 -0.28464183467E+03  0.28658526950E+03  0.00000000000E+00 0.  1.
          2    1    1    2  501    0 -0.18416857491E+03  0.11269887219E+03 -0.12523662433E+04  0.12708423612E+04  0.00000000000E+00 0.  1.
<mgrwt>
<rscale>  4 0.27289291E+03</rscale>
<asrwt>0</asrwt>
<pdfrwt beam="1">  1       21 0.26744234E-02 0.27289291E+03</pdfrwt>
<pdfrwt beam="2">  1        2 0.63728932E+00 0.27289291E+03</pdfrwt>
<totfact> 0.33800156E+03</totfact>
</mgrwt>
</event>
<event>
 5    0  0.2947253E-001  0.2908877E+03  0.7546771E-02  0.1089887E+00
         21   -1    0    0  503  502  0.00000000000E+00  0.00000000000E+00  0.36163078398E+03  0.36163078398E+03  0.00000000000E+00 0. -1.
          2   -1    0    0  502    0 -0.00000000000E+00 -0.00000000000E+00 -0.94300454429E+03  0.94300454429E+03  0.00000000000E+00 0.  1.
         25    1    1    2    0    0  0.17407723298E+03  0.20102127947E+03  0.27385309768E+03  0.40166274030E+03  0.12500000000E+03 0.  0.
         21    1    1    2  503  501 -0.40720007430E+02 -0.24089709731E+02 -0.54562063468E+02  0.72218085615E+02  0.00000000000E+00 0. -1.
          2    1    1    2  501    0 -0.13335722555E+03 -0.17693156974E+03 -0.80066479452E+03  0.83075450234E+03  0.00000000000E+00 0.  1.
<mgrwt>
<rscale>  4 0.29088771E+03</rscale>
<asrwt>0</asrwt>
<pdfrwt beam="1">  1       21 0.55635505E-01 0.29088771E+03</pdfrwt>
<pdfrwt beam="2">  1        2 0.14507762E+00 0.29088771E+03</pdfrwt>
<totfact> 0.10510766E+03</totfact>
</mgrwt>
</event>
<event>
 5    0  0.2947253E-001  0.2504691E+03  0.7546771E-02  0.1113009E+00
          2   -1    0    0  502    0 -0.00000000000E+00  0.00000000000E+00  0.18890031150E+04  0.18890031150E+04  0.00000000000E+00 0. -1.
         21   -1    0    0  503  502  0.00000000000E+00 -0.00000000000E+00 -0.47373090673E+03  0.47373090673E+03  0.00000000000E+00 0. -1.
         25    1    1    2    0    0 -0.64513041164E+02 -0.20723856003E+03 -0.43337863137E+03  0.50055148723E+03  0.12500000000E+03 0.  0.
         21    1    1    2  503  501  0.17854716404E+02  0.11416540253E+02  0.12081932336E+03  0.12266391966E+03  0.00000000000E+00 0.  1.
          2    1    1    2  501    0  0.46658324760E+02  0.19582201978E+03  0.17278315163E+04  0.17395186148E+04  0.00000000000E+00 0. -1.
<mgrwt>
<rscale>  4 0.25046907E+03</rscale>
<asrwt>0</asrwt>
<pdfrwt beam="1">  1       21 0.72881679E-01 0.25046907E+03</pdfrwt>
<pdfrwt beam="2">  1        2 0.29061586E+00 0.25046907E+03</pdfrwt>
<totfact> 0.17788266E+02</totfact>
</mgrwt>
</event>
<event>
 5    0  0.2947253E-001  0.2471992E+03  0.7546771E-02  0.1115088E+00
          1   -1    0    0  502    0 -0.00000000000E+00  0.00000000000E+00  0.64724236297E+03  0.64724236297E+03  0.00000000000E+00 0.  1.
         21   -1    0    0  503  502  0.00000000000E+00 -0.00000000000E+00 -0.13833510750E+03  0.13833510750E+03  0.00000000000E+00 0.  1.
         25    1    1    2    0    0  0.16902463546E+03  0.14087598193E+03  0.10396547980E+03  0.27358580129E+03  0.12500000000E+03 0.  0.
         21    1    1    2  503  501  0.15376502030E+02 -0.44170241194E+02  0.24502300813E+03  0.24944683108E+03  0.00000000000E+00 0. -1.
          1    1    1    2  501    0 -0.18440113749E+03 -0.96705740736E+02  0.15991876754E+03  0.26254483810E+03  0.00000000000E+00 0.  1.
<mgrwt>
<rscale>  4 0.24719923E+03</rscale>
<asrwt>0</asrwt>
<pdfrwt beam="1">  1       21 0.21282325E-01 0.24719923E+03</pdfrwt>
<pdfrwt beam="2">  1        1 0.99575747E-01 0.24719923E+03</pdfrwt>
<totfact> 0.71098365E+03</totfact>
</mgrwt>
</event>
<event>
 5    0  0.2947253E-001  0.2406238E+03  0.7546771E-02  0.1119378E+00
         -3   -1    0    0    0  501 -0.00000000000E+00  0.00000000000E+00  0.77735579140E+02  0.77735579140E+02  0.00000000000E+00 0. -1.
         21   -1    0    0  501  502  0.00000000000E+00 -0.00000000000E+00 -0.70645111436E+03  0.70645111436E+03  0.00000000000E+00 0.  1.
         25    1    1    2    0    0  0.19870162665E+03  0.52843925402E+02 -0.43372359912E+03  0.49599997713E+03  0.12500000000E+03 0.  0.
         21    1    1    2  501  501 -0.38737417288E+02 -0.14340856389E+02 -0.71088117093E+02  0.82217808606E+02  0.00000000000E+00 0.  1.
         -3    1    1    2    0  502 -0.15996420936E+03 -0.38503069012E+02 -0.12390381901E+03  0.20596890776E+03  0.00000000000E+00 0. -1.
<mgrwt>
<rscale>  4 0.24062381E+03</rscale>
<asrwt>0</asrwt>
<pdfrwt beam="1">  1       21 0.10868479E+00 0.24062381E+03</pdfrwt>
<pdfrwt beam="2">  1       -3 0.11959319E-01 0.24062381E+03</pdfrwt>
<totfact> 0.17992572E+03</totfact>
</mgrwt>
</event>
<event>
 5    0  0.2947253E-001  0.3658208E+03  0.7546771E-02  0.1056303E+00
         21   -1    0    0  501  502  0.00000000000E+00  0.00000000000E+00  0.26370727918E+03  0.26370727918E+03  0.00000000000E+00 0.  1.
         -2   -1    0    0    0  501 -0.00000000000E+00 -0.00000000000E+00 -0.97114764643E+03  0.97114764643E+03  0.00000000000E+00 0.  1.
         25    1    1    2    0    0 -0.33342962423E+03  0.18981268121E+03 -0.71529582759E+02  0.40981172442E+03  0.12500000000E+03 0.  0.
         21    1    1    2  501  501  0.24880735193E+02 -0.21462366219E+03 -0.25583302247E+03  0.33486251319E+03  0.00000000000E+00 0.  1.
         -2    1    1    2    0  502  0.30854888903E+03  0.24810980973E+02 -0.38007776202E+03  0.49018068800E+03  0.00000000000E+00 0.  1.
<mgrwt>
<rscale>  4 0.36582081E+03</rscale>
<asrwt>0</asrwt>
<pdfrwt beam="1">  1       21 0.40570350E-01 0.36582081E+03</pdfrwt>
<pdfrwt beam="2">  1       -2 0.14940733E+00 0.36582081E+03</pdfrwt>
<totfact> 0.14521997E+02</totfact>
</mgrwt>
</event>
<event>
 5    0  0.2947253E-001  0.3069563E+03  0.7546771E-02  0.1081814E+00
          2   -1    0    0  502    0 -0.00000000000E+00  0.00000000000E+00  0.14322439268E+04  0.14322439268E+04  0.00000000000E+00 0. -1.
         21   -1    0    0  503  502  0.00000000000E+00 -0.00000000000E+00 -0.20219442884E+03  0.20219442884E+03  0.00000000000E+00 0. -1.
         25    1    1    2    0    0 -0.25481143274E+03 -0.11691153009E+03 -0.58778851880E+02  0.31253339910E+03  0.12500000000E+03 0.  0.
         21    1    1    2  503  501  0.39636637673E+02 -0.12696474047E+02  0.22553654308E+03  0.22934470948E+03  0.00000000000E+00 0. -1.
          2    1    1    2  501    0  0.21517479506E+03  0.12960800414E+03  0.10632918067E+04  0.10925602470E+04  0.00000000000E+00 0. -1.
<mgrwt>
<rscale>  4 0.30695630E+03</rscale>
<asrwt>0</asrwt>
<pdfrwt beam="1">  1       21 0.31106836E-01 0.30695630E+03</pdfrwt>
<pdfrwt beam="2">  1        2 0.22034521E+00 0.30695630E+03</pdfrwt>
<totfact> 0.17965781E+03</totfact>
</mgrwt>
</event>
<event>
 5    0  0.2947253E-001  0.2482622E+03  0.7546771E-02  0.1114408E+00
          1   -1    0    0  502    0 -0.00000000000E+00  0.00000000000E+00  0.18140084421E+04  0.18140084421E+04  0.00000000000E+00 0. -1.
         21   -1    0    0  503  502  0.00000000000E+00 -0.00000000000E+00 -0.32158175532E+02  0.32158175532E+02  0.00000000000E+00 0. -1.
         25    1    1    2    0    0 -0.75777961863E+02  0.20066590128E+03  0.88366608399E+03  0.91787790660E+03  0.12500000000E+03 0.  0.
         21    1    1    2  503  501  0.65277849534E+02 -0.51588690508E+02  0.37889011022E+03  0.38791791175E+03  0.00000000000E+00 0.  1.
          1    1    1    2  501    0  0.10500112329E+02 -0.14907721077E+03  0.51929407232E+03  0.54037079925E+03  0.00000000000E+00 0. -1.
<mgrwt>
<rscale>  4 0.24826217E+03</rscale>
<asrwt>0</asrwt>
<pdfrwt beam="1">  1       21 0.49474130E-02 0.24826217E+03</pdfrwt>
<pdfrwt beam="2">  1        1 0.27907814E+00 0.24826217E+03</pdfrwt>
<totfact> 0.13692235E+04</totfact>
</mgrwt>
</event>
<event>
 5    0  0.2947253E-001  0.3639704E+03  0.7546771E-02  0.1057785E+00
         -2   -1    0    0    0  501 -0.00000000000E+00  0.00000000000E+00  0.12665065222E+04  0.12665065222E+04  0.00000000000E+00 0. -1.
         21   -1    0    0  501  502  0.00000000000E+00 -0.00000000000E+00 -0.10469978646E+03  0.10469978646E+03  0.00000000000E+00 0.  1.
         25    1    1    2    0    0  0.33359329983E+03 -0.13265986668E+01  0.47298967637E+03  0.59214059438E+03  0.12500000000E+03 0.  0.
         21    1    1    2  501  501 -0.78780472158E+02 -0.41544875395E+02  0.88767916618E+02  0.12574610326E+03  0.00000000000E+00 0. -1.
         -2    1    1    2    0  502 -0.25481282767E+03  0.42871474061E+02  0.60004914272E+03  0.65331961099E+03  0.00000000000E+00 0. -1.
<mgrwt>
<rscale>  4 0.36202375E+03</rscale>
<asrwt>0</asrwt>
<pdfrwt beam="1">  1       21 0.16107660E-01 0.36397039E+03</pdfrwt>
<pdfrwt beam="2">  1       -2 0.19484715E+00 0.36397039E+03</pdfrwt>
<totfact> 0.42373894E+02</totfact>
</mgrwt>
</event>
<event>
 5    0  0.2947253E-001  0.2815112E+03  0.7546771E-02  0.1094982E+00
         21   -1    0    0  503  502  0.00000000000E+00  0.00000000000E+00  0.11478540019E+03  0.11478540019E+03  0.00000000000E+00 0. -1.
          2   -1    0    0  502    0 -0.00000000000E+00 -0.00000000000E+00 -0.10300207333E+04  0.10300207333E+04  0.00000000000E+00 0. -1.
         25    1    1    2    0    0  0.17598361271E+03  0.17937685778E+03 -0.12747179680E+03  0.30825370724E+03  0.12500000000E+03 0.  0.
         21    1    1    2  503  501 -0.42747576517E+02 -0.12003960805E+03 -0.46906957532E+03  0.48606905815E+03  0.00000000000E+00 0. -1.
          2    1    1    2  501    0 -0.13323603619E+03 -0.59337249738E+02 -0.31869396101E+03  0.35048336812E+03  0.00000000000E+00 0. -1.
<mgrwt>
<rscale>  4 0.28129874E+03</rscale>
<asrwt>0</asrwt>
<pdfrwt beam="1">  1       21 0.17659293E-01 0.28151123E+03</pdfrwt>
<pdfrwt beam="2">  1        2 0.15846473E+00 0.28151123E+03</pdfrwt>
<totfact> 0.90862011E+03</totfact>
</mgrwt>
</event>
<event>
 5    0  0.2947253E-001  0.2915279E+03  0.7546771E-02  0.1089554E+00
          1   -1    0    0  502    0 -0.00000000000E+00  0.00000000000E+00  0.11729580007E+04  0.11729580007E+04  0.00000000000E+00 0.  1.
         21   -1    0    0  503  502  0.00000000000E+00 -0.00000000000E+00 -0.67700847903E+02  0.67700847903E+02  0.00000000000E+00 0.  1.
         25    1    1    2    0    0  0.16322588850E+03  0.20669016833E+03  0.53297202474E+03  0.60749295923E+03  0.12500000000E+03 0.  0.
         21    1    1    2  503  501 -0.14809291663E+03 -0.15098289666E+03  0.41848094855E+03  0.46888554184E+03  0.00000000000E+00 0.  1.
          1    1    1    2  501    0 -0.15132971868E+02 -0.55707271669E+02  0.15380417955E+03  0.16428034758E+03  0.00000000000E+00 0.  1.
<mgrwt>
<rscale>  4 0.29152790E+03</rscale>
<asrwt>0</asrwt>
<pdfrwt beam="1">  1       21 0.10415516E-01 0.29152790E+03</pdfrwt>
<pdfrwt beam="2">  1        1 0.18045506E+00 0.29152790E+03</pdfrwt>
<totfact> 0.99300212E+03</totfact>
</mgrwt>
</event>
<event>
 5    0  0.2947253E-001  0.2626773E+03  0.7546771E-02  0.1105545E+00
         21   -1    0    0  503  502  0.00000000000E+00  0.00000000000E+00  0.16427303933E+03  0.16427303933E+03  0.00000000000E+00 0.  1.
          1   -1    0    0  502    0 -0.00000000000E+00 -0.00000000000E+00 -0.44497849235E+03  0.44497849235E+03  0.00000000000E+00 0.  1.
         25    1    1    2    0    0  0.58574397073E+02  0.22348022154E+03 -0.30359391398E+02  0.26442591034E+03  0.12500000000E+03 0.  0.
         21    1    1    2  503  501 -0.30487389905E+02 -0.17484793224E+03 -0.16296890061E+03  0.24095672416E+03  0.00000000000E+00 0.  1.
          1    1    1    2  501    0 -0.28087007168E+02 -0.48632289296E+02 -0.87377161017E+02  0.10386889718E+03  0.00000000000E+00 0.  1.
<mgrwt>
<rscale>  4 0.26267731E+03</rscale>
<asrwt>0</asrwt>
<pdfrwt beam="1">  1       21 0.25272776E-01 0.26267731E+03</pdfrwt>
<pdfrwt beam="2">  1        1 0.68458228E-01 0.26267731E+03</pdfrwt>
<totfact> 0.84876811E+03</totfact>
</mgrwt>
</event>
<event>
 5    0  0.2947253E-001  0.2644308E+03  0.7546771E-02  0.1104510E+00
          1   -1    0    0  502    0 -0.00000000000E+00  0.00000000000E+00  0.14776786181E+04  0.14776786181E+04  0.00000000000E+00 0. -1.
         21   -1    0    0  503  502  0.00000000000E+00 -0.00000000000E+00 -0.18916255307E+03  0.18916255307E+03  0.00000000000E+00 0. -1.
         25    1    1    2    0    0 -0.89353297874E+02 -0.21520835527E+03 -0.80095599935E+02  0.27629504727E+03  0.12500000000E+03 0.  0.
         21    1    1    2  503  501 -0.69539653541E+01  0.39895134422E+02  0.13928554050E+03  0.14505323566E+03  0.00000000000E+00 0. -1.
          1    1    1    2  501    0  0.96307263229E+02  0.17531322085E+03  0.12293261244E+04  0.12454928882E+04  0.00000000000E+00 0. -1.
<mgrwt>
<rscale>  4 0.26443080E+03</rscale>
<asrwt>0</asrwt>
<pdfrwt beam="1">  1       21 0.29101932E-01 0.26443080E+03</pdfrwt>
<pdfrwt beam="2">  1        1 0.22733516E+00 0.26443080E+03</pdfrwt>
<totfact> 0.91390072E+02</totfact>
</mgrwt>
</event>
<event>
 5    0  0.2947253E-001  0.3039848E+03  0.7546771E-02  0.1083265E+00
         21   -1    0    0  501  502  0.00000000000E+00  0.00000000000E+00  0.11537398990E+03  0.11537398990E+03  0.00000000000E+00 0.  1.
         -4   -1    0    0    0  501 -0.00000000000E+00 -0.00000000000E+00 -0.11361992685E+04  0.11361992685E+04  0.00000000000E+00 0.  1.
         25    1    1    2    0    0  0.28830180071E+03 -0.13306641628E+03 -0.43488376382E+03  0.55278701818E+03  0.12500000000E+03 0.  0.
         21    1    1    2  501  501 -0.97425084948E+02 -0.43640022054E+02 -0.93684371402E+02  0.14203119427E+03  0.00000000000E+00 0.  1.
         -4    1    1    2    0  502 -0.19087671576E+03  0.17670643834E+03 -0.49225714336E+03  0.55675504592E+03  0.00000000000E+00 0.  1.
<mgrwt>
<rscale>  4 0.30398483E+03</rscale>
<asrwt>0</asrwt>
<pdfrwt beam="1">  1       21 0.17749845E-01 0.30398483E+03</pdfrwt>
<pdfrwt beam="2">  1       -4 0.17479988E+00 0.30398483E+03</pdfrwt>
<totfact> 0.25276212E+02</totfact>
</mgrwt>
</event>
<event>
 5    0  0.2947253E-001  0.2883279E+03  0.7546771E-02  0.1091225E+00
         21   -1    0    0  503  502  0.00000000000E+00  0.00000000000E+00  0.10565043247E+03  0.10565043247E+03  0.00000000000E+00 0.  1.
          2   -1    0    0  502    0 -0.00000000000E+00 -0.00000000000E+00 -0.23219650300E+04  0.23219650300E+04  0.00000000000E+00 0. -1.
         25    1    1    2    0    0 -0.18710736835E+03 -0.18027427704E+03 -0.11912609100E+03  0.31196795959E+03  0.12500000000E+03 0.  0.
         21    1    1    2  503  501  0.84326764047E+02  0.17240459214E+02 -0.62658223529E+03  0.63246623162E+03  0.00000000000E+00 0. -1.
          2    1    1    2  501    0  0.10278060430E+03  0.16303381782E+03 -0.14706062713E+04  0.14831812713E+04  0.00000000000E+00 0. -1.
<mgrwt>
<rscale>  4 0.28832791E+03</rscale>
<asrwt>0</asrwt>
<pdfrwt beam="1">  1       21 0.16253914E-01 0.28832791E+03</pdfrwt>
<pdfrwt beam="2">  1        2 0.35722537E+00 0.28832791E+03</pdfrwt>
<totfact> 0.21030836E+03</totfact>
</mgrwt>
</event>
<event>
 5    0  0.2947253E-001  0.3011059E+03  0.7546771E-02  0.1084689E+00
          2   -1    0    0  502    0 -0.00000000000E+00  0.00000000000E+00  0.25771149097E+04  0.25771149097E+04  0.00000000000E+00 0.  1.
         21   -1    0    0  503  502  0.00000000000E+00 -0.00000000000E+00 -0.14838508188E+03  0.14838508188E+03  0.00000000000E+00 0.  1.
         25    1    1    2    0    0  0.13737545701E+02 -0.26613640419E+03  0.67149078490E+02  0.30191274326E+03  0.12500000000E+03 0.  0.
         21    1    1    2  503  501 -0.79675511721E+02 -0.10403773540E+01  0.46602533844E+02  0.92309618750E+02  0.00000000000E+00 0.  1.
          2    1    1    2  501    0  0.65937966020E+02  0.26717678155E+03  0.23149782154E+04  0.23312776295E+04  0.00000000000E+00 0.  1.
<mgrwt>
<rscale>  4 0.30110591E+03</rscale>
<asrwt>0</asrwt>
<pdfrwt beam="1">  1       21 0.22828476E-01 0.30110591E+03</pdfrwt>
<pdfrwt beam="2">  1        2 0.39647918E+00 0.30110591E+03</pdfrwt>
<totfact> 0.80067828E+02</totfact>
</mgrwt>
</event>
<event>
 5    0  0.2947253E-001  0.2673151E+03  0.7546771E-02  0.1102826E+00
         21   -1    0    0  503  502  0.00000000000E+00  0.00000000000E+00  0.33802590577E+03  0.33802590577E+03  0.00000000000E+00 0. -1.
          1   -1    0    0  502    0 -0.00000000000E+00 -0.00000000000E+00 -0.19067943225E+04  0.19067943225E+04  0.00000000000E+00 0.  1.
         25    1    1    2    0    0  0.23379915941E+03 -0.48383219849E+02  0.26120463116E+03  0.37530766345E+03  0.12500000000E+03 0.  0.
         21    1    1    2  503  501 -0.26872694662E+02  0.14834935066E+03 -0.63604211509E+03  0.65366600320E+03  0.00000000000E+00 0.  1.
          1    1    1    2  501    0 -0.20692646474E+03 -0.99966130809E+02 -0.11939309328E+04  0.12158465616E+04  0.00000000000E+00 0.  1.
<mgrwt>
<rscale>  4 0.26731510E+03</rscale>
<asrwt>0</asrwt>
<pdfrwt beam="1">  1       21 0.52003986E-01 0.26731510E+03</pdfrwt>
<pdfrwt beam="2">  1        1 0.29335297E+00 0.26731510E+03</pdfrwt>
<totfact> 0.14701015E+02</totfact>
</mgrwt>
</event>
<event>
 5    0  0.2947253E-001  0.2631030E+03  0.7546771E-02  0.1105293E+00
         21   -1    0    0  501  502  0.00000000000E+00  0.00000000000E+00  0.34070013580E+03  0.34070013580E+03  0.00000000000E+00 0.  1.
         -3   -1    0    0    0  501 -0.00000000000E+00 -0.00000000000E+00 -0.33335738137E+03  0.33335738137E+03  0.00000000000E+00 0.  1.
         25    1    1    2    0    0 -0.17302870297E+03 -0.15381569143E+03  0.23113380480E+03  0.35020855886E+03  0.12500000000E+03 0.  0.
         21    1    1    2  501  501  0.15259325683E+02  0.20941663362E+02 -0.13242253803E+02  0.29099099135E+02  0.00000000000E+00 0.  1.
         -3    1    1    2    0  502  0.15776937728E+03  0.13287402807E+03 -0.21054879657E+03  0.29474985917E+03  0.00000000000E+00 0.  1.
<mgrwt>
<rscale>  4 0.26310302E+03</rscale>
<asrwt>0</asrwt>
<pdfrwt beam="1">  1       21 0.52415405E-01 0.26310302E+03</pdfrwt>
<pdfrwt beam="2">  1       -3 0.51285751E-01 0.26310302E+03</pdfrwt>
<totfact> 0.63984772E+02</totfact>
</mgrwt>
</event>
<event>
 5    0  0.2947253E-001  0.3078675E+03  0.7546771E-02  0.1081373E+00
         21   -1    0    0  503  502  0.00000000000E+00  0.00000000000E+00  0.49590821112E+03  0.49590821112E+03  0.00000000000E+00 0.  1.
          2   -1    0    0  502    0 -0.00000000000E+00 -0.00000000000E+00 -0.67768386764E+03  0.67768386764E+03  0.00000000000E+00 0.  1.
         25    1    1    2    0    0 -0.27869147081E+03 -0.37864108150E+02  0.40284677504E+03  0.50696464447E+03  0.12500000000E+03 0.  0.
         21    1    1    2  503  501  0.21640238848E+01 -0.22960857227E+02 -0.12259267780E+03  0.12474313053E+03  0.00000000000E+00 0.  1.
          2    1    1    2  501    0  0.27652744692E+03  0.60824965376E+02 -0.46202975375E+03  0.54188430376E+03  0.00000000000E+00 0.  1.
<mgrwt>
<rscale>  4 0.30786745E+03</rscale>
<asrwt>0</asrwt>
<pdfrwt beam="1">  1       21 0.76293571E-01 0.30786745E+03</pdfrwt>
<pdfrwt beam="2">  1        2 0.10425906E+00 0.30786745E+03</pdfrwt>
<totfact> 0.79704736E+02</totfact>
</mgrwt>
</event>
<event>
 5    0  0.2947253E-001  0.2345600E+03  0.7546771E-02  0.1123471E+00
          2   -1    0    0  502    0 -0.00000000000E+00  0.00000000000E+00  0.92873761922E+03  0.92873761922E+03  0.00000000000E+00 0.  1.
         21   -1    0    0  503  502  0.00000000000E+00 -0.00000000000E+00 -0.43686449270E+03  0.43686449270E+03  0.00000000000E+00 0.  1.
         25    1    1    2    0    0  0.13589943265E+03  0.15104754830E+03 -0.31782140727E+03  0.39739082093E+03  0.12500000000E+03 0.  0.
         21    1    1    2  503  501  0.53034498250E+01 -0.22762305457E+03  0.11479267903E+03  0.25498576571E+03  0.00000000000E+00 0.  1.
          2    1    1    2  501    0 -0.14120288247E+03  0.76575506269E+02  0.69490185476E+03  0.71322552529E+03  0.00000000000E+00 0.  1.
<mgrwt>
<rscale>  4 0.23456003E+03</rscale>
<asrwt>0</asrwt>
<pdfrwt beam="1">  1       21 0.67209922E-01 0.23456003E+03</pdfrwt>
<pdfrwt beam="2">  1        2 0.14288271E+00 0.23456003E+03</pdfrwt>
<totfact> 0.73049886E+02</totfact>
</mgrwt>
</event>
<event>
 5    0  0.2947253E-001  0.2448316E+03  0.7546771E-02  0.1116615E+00
         21   -1    0    0  503  502  0.00000000000E+00  0.00000000000E+00  0.19108047728E+03  0.19108047728E+03  0.00000000000E+00 0. -1.
          1   -1    0    0  502    0 -0.00000000000E+00 -0.00000000000E+00 -0.29177125730E+03  0.29177125730E+03  0.00000000000E+00 0. -1.
         25    1    1    2    0    0 -0.17389294877E+03  0.11865397400E+03 -0.35167846983E+01  0.24485687851E+03  0.12500000000E+03 0.  0.
         21    1    1    2  503  501  0.10927769420E+03 -0.43557360096E+02 -0.44334801826E+02  0.12571568208E+03  0.00000000000E+00 0. -1.
          1    1    1    2  501    0  0.64615254569E+02 -0.75096613903E+02 -0.52839193490E+02  0.11227917399E+03  0.00000000000E+00 0. -1.
<mgrwt>
<rscale>  4 0.24483162E+03</rscale>
<asrwt>0</asrwt>
<pdfrwt beam="1">  1       21 0.29396997E-01 0.24483162E+03</pdfrwt>
<pdfrwt beam="2">  1        1 0.44887886E-01 0.24483162E+03</pdfrwt>
<totfact> 0.10887543E+04</totfact>
</mgrwt>
</event>
<event>
 5    0  0.2947253E-001  0.2714546E+03  0.7546771E-02  0.1100450E+00
         -2   -1    0    0    0  501 -0.00000000000E+00  0.00000000000E+00  0.26182120677E+03  0.26182120677E+03  0.00000000000E+00 0.  1.
         21   -1    0    0  501  502  0.00000000000E+00 -0.00000000000E+00 -0.39628983601E+03  0.39628983601E+03  0.00000000000E+00 0.  1.
         25    1    1    2    0    0 -0.23987071625E+03 -0.22904433537E+02 -0.25065712788E+03  0.36948148715E+03  0.12500000000E+03 0.  0.
         21    1    1    2  501  501  0.59914883773E+02  0.35744056389E+02 -0.70801058588E+01  0.70125307583E+02  0.00000000000E+00 0.  1.
         -2    1    1    2    0  502  0.17995583248E+03 -0.12839622852E+02  0.12326860450E+03  0.21850424804E+03  0.00000000000E+00 0.  1.
<mgrwt>
<rscale>  4 0.27145455E+03</rscale>
<asrwt>0</asrwt>
<pdfrwt beam="1">  1       21 0.60967667E-01 0.27145455E+03</pdfrwt>
<pdfrwt beam="2">  1       -2 0.40280186E-01 0.27145455E+03</pdfrwt>
<totfact> 0.11594036E+03</totfact>
</mgrwt>
</event>
<event>
 5    0  0.2947253E-001  0.4063124E+03  0.7546771E-02  0.1041616E+00
         21   -1    0    0  503  502  0.00000000000E+00  0.00000000000E+00  0.12478262321E+04  0.12478262321E+04  0.00000000000E+00 0. -1.
          2   -1    0    0  502    0 -0.00000000000E+00 -0.00000000000E+00 -0.61207327341E+03  0.61207327341E+03  0.00000000000E+00 0.  1.
         25    1    1    2    0    0 -0.12110479263E+03 -0.36758196465E+03  0.11172314617E+04  0.11889550078E+04  0.12500000000E+03 0.  0.
         21    1    1    2  503  501  0.35508907829E+02 -0.95032212252E+01  0.16645339155E+02  0.40351716995E+02  0.00000000000E+00 0.  1.
          2    1    1    2  501    0  0.85595884803E+02  0.37708518587E+03 -0.49812384220E+03  0.63059278070E+03  0.00000000000E+00 0.  1.
<mgrwt>
<rscale>  4 0.40631240E+03</rscale>
<asrwt>0</asrwt>
<pdfrwt beam="1">  1       21 0.19197327E+00 0.40631240E+03</pdfrwt>
<pdfrwt beam="2">  1        2 0.94165119E-01 0.40631240E+03</pdfrwt>
<totfact> 0.81491537E+01</totfact>
</mgrwt>
</event>
<event>
 5    0  0.2947253E-001  0.2875689E+03  0.7546771E-02  0.1091625E+00
          2   -1    0    0  502    0 -0.00000000000E+00  0.00000000000E+00  0.11304303281E+04  0.11304303281E+04  0.00000000000E+00 0.  1.
         21   -1    0    0  503  502  0.00000000000E+00 -0.00000000000E+00 -0.45428488976E+03  0.45428488976E+03  0.00000000000E+00 0. -1.
         25    1    1    2    0    0  0.48431055105E+02  0.25441164484E+03 -0.38808961410E+03  0.48302111828E+03  0.12500000000E+03 0.  0.
         21    1    1    2  503  501 -0.61922439305E+02 -0.48948207516E+02  0.29335541579E+03  0.30378893246E+03  0.00000000000E+00 0.  1.
          2    1    1    2  501    0  0.13491384200E+02 -0.20546343733E+03  0.77087963669E+03  0.79790516716E+03  0.00000000000E+00 0.  1.
<mgrwt>
<rscale>  4 0.28756887E+03</rscale>
<asrwt>0</asrwt>
<pdfrwt beam="1">  1       21 0.69889983E-01 0.28756887E+03</pdfrwt>
<pdfrwt beam="2">  1        2 0.17391236E+00 0.28756887E+03</pdfrwt>
<totfact> 0.49214252E+02</totfact>
</mgrwt>
</event>
<event>
 5    0  0.2947253E-001  0.3520421E+03  0.7546771E-02  0.1061780E+00
          1   -1    0    0  502    0 -0.00000000000E+00  0.00000000000E+00  0.67564587473E+03  0.67564587473E+03  0.00000000000E+00 0. -1.
         21   -1    0    0  503  502  0.00000000000E+00 -0.00000000000E+00 -0.52219556173E+03  0.52219556173E+03  0.00000000000E+00 0. -1.
         25    1    1    2    0    0  0.14188993986E+03 -0.30483740052E+03 -0.38384008109E+03  0.52537301382E+03  0.12500000000E+03 0.  0.
         21    1    1    2  503  501  0.59592077735E+02  0.89566178622E+02  0.11551939741E+03  0.15785451295E+03  0.00000000000E+00 0.  1.
          1    1    1    2  501    0 -0.20148201760E+03  0.21527122190E+03  0.42177099669E+03  0.51461390969E+03  0.00000000000E+00 0. -1.
<mgrwt>
<rscale>  4 0.35204213E+03</rscale>
<asrwt>0</asrwt>
<pdfrwt beam="1">  1       21 0.80337778E-01 0.35204213E+03</pdfrwt>
<pdfrwt beam="2">  1        1 0.10394552E+00 0.35204213E+03</pdfrwt>
<totfact> 0.41672291E+02</totfact>
</mgrwt>
</event>
<event>
 5    0  0.2947253E-001  0.2794821E+03  0.7546771E-02  0.1095972E+00
         21   -1    0    0  503  502  0.00000000000E+00  0.00000000000E+00  0.14580953893E+04  0.14580953893E+04  0.00000000000E+00 0.  1.
          4   -1    0    0  502    0 -0.00000000000E+00 -0.00000000000E+00 -0.67774163262E+02  0.67774163262E+02  0.00000000000E+00 0. -1.
         25    1    1    2    0    0  0.15521996546E+03 -0.19593878770E+03  0.11118381513E+04  0.11464267621E+04  0.12500000000E+03 0.  0.
         21    1    1    2  503  501 -0.34697052648E+01  0.29582749700E+02  0.16722500569E+02  0.34158746460E+02  0.00000000000E+00 0.  1.
          4    1    1    2  501    0 -0.15175026020E+03  0.16635603800E+03  0.26176057420E+03  0.34528404402E+03  0.00000000000E+00 0. -1.
<mgrwt>
<rscale>  4 0.27948210E+03</rscale>
<asrwt>0</asrwt>
<pdfrwt beam="1">  1       21 0.22432235E+00 0.27948210E+03</pdfrwt>
<pdfrwt beam="2">  1        4 0.10426795E-01 0.27948210E+03</pdfrwt>
<totfact> 0.27272738E+02</totfact>
</mgrwt>
</event>
<event>
 5    0  0.2947253E-001  0.2748698E+03  0.7546771E-02  0.1098524E+00
         21   -1    0    0  503  502  0.00000000000E+00  0.00000000000E+00  0.52941736883E+02  0.52941736883E+02  0.00000000000E+00 0.  1.
          2   -1    0    0  502    0 -0.00000000000E+00 -0.00000000000E+00 -0.14248124290E+04  0.14248124290E+04  0.00000000000E+00 0. -1.
         25    1    1    2    0    0 -0.74098006688E+02 -0.23331929874E+03 -0.49957989350E+03  0.57020477001E+03  0.12500000000E+03 0.  0.
         21    1    1    2  503  501  0.22698586382E+02  0.15602775585E+03 -0.54395678926E+03  0.56634695638E+03  0.00000000000E+00 0. -1.
          2    1    1    2  501    0  0.51399420306E+02  0.77291542894E+02 -0.32833400932E+03  0.34120243945E+03  0.00000000000E+00 0. -1.
<mgrwt>
<rscale>  4 0.27486981E+03</rscale>
<asrwt>0</asrwt>
<pdfrwt beam="1">  1       21 0.81448822E-02 0.27486981E+03</pdfrwt>
<pdfrwt beam="2">  1        2 0.21920192E+00 0.27486981E+03</pdfrwt>
<totfact> 0.21946050E+04</totfact>
</mgrwt>
</event>
<event>
 5    0  0.2947253E-001  0.3911289E+03  0.7546771E-02  0.1046895E+00
         21   -1    0    0  503  502  0.00000000000E+00  0.00000000000E+00  0.10055932400E+03  0.10055932400E+03  0.00000000000E+00 0. -1.
          2   -1    0    0  502    0 -0.00000000000E+00 -0.00000000000E+00 -0.24152165343E+04  0.24152165343E+04  0.00000000000E+00 0. -1.
         25    1    1    2    0    0  0.38320006062E+03  0.19817796669E+03 -0.90797338430E+03  0.10129943038E+04  0.12500000000E+03 0.  0.
         21    1    1    2  503  501 -0.18458970208E+03  0.67899625020E+02 -0.53376857933E+03  0.56885201369E+03  0.00000000000E+00 0. -1.
          2    1    1    2  501    0 -0.19861035855E+03 -0.26607759171E+03 -0.87291524665E+03  0.93392954079E+03  0.00000000000E+00 0. -1.
<mgrwt>
<rscale>  4 0.39112890E+03</rscale>
<asrwt>0</asrwt>
<pdfrwt beam="1">  1       21 0.15470665E-01 0.39112890E+03</pdfrwt>
<pdfrwt beam="2">  1        2 0.37157178E+00 0.39112890E+03</pdfrwt>
<totfact> 0.19729958E+03</totfact>
</mgrwt>
</event>
<event>
 5    0  0.2947253E-001  0.3457291E+03  0.7546771E-02  0.1068561E+00
         21   -1    0    0  503  502  0.00000000000E+00  0.00000000000E+00  0.14513976967E+03  0.14513976967E+03  0.00000000000E+00 0.  1.
          2   -1    0    0  502    0 -0.00000000000E+00 -0.00000000000E+00 -0.88210120274E+03  0.88210120274E+03  0.00000000000E+00 0.  1.
         25    1    1    2    0    0 -0.51702646819E+01 -0.28146516643E+03 -0.55936777373E+03  0.63856611078E+03  0.12500000000E+03 0.  0.
         21    1    1    2  503  501 -0.92046712653E+02  0.18085988253E+03 -0.80189877297E+02  0.21820474522E+03  0.00000000000E+00 0.  1.
          2    1    1    2  501    0  0.97216977334E+02  0.10060528391E+03 -0.97403782041E+02  0.17047011641E+03  0.00000000000E+00 0.  1.
<mgrwt>
<rscale>  4 0.33588891E+03</rscale>
<asrwt>0</asrwt>
<pdfrwt beam="1">  1       21 0.22329195E-01 0.34572914E+03</pdfrwt>
<pdfrwt beam="2">  1        2 0.13570788E+00 0.34572914E+03</pdfrwt>
<totfact> 0.71393591E+03</totfact>
</mgrwt>
</event>
<event>
 5    0  0.2947253E-001  0.3916216E+03  0.7546771E-02  0.1046720E+00
          2   -1    0    0  502    0 -0.00000000000E+00  0.00000000000E+00  0.15155463326E+04  0.15155463326E+04  0.00000000000E+00 0.  1.
         21   -1    0    0  503  502  0.00000000000E+00 -0.00000000000E+00 -0.80961620001E+03  0.80961620001E+03  0.00000000000E+00 0.  1.
         25    1    1    2    0    0 -0.24378550828E+03  0.27672264897E+03 -0.71530399062E+03  0.81442715911E+03  0.12500000000E+03 0.  0.
         21    1    1    2  503  501  0.28530788791E+03 -0.30734893154E+03  0.97277859729E+03  0.10593215546E+04  0.00000000000E+00 0.  1.
          2    1    1    2  501    0 -0.41522379630E+02  0.30626282569E+02  0.44845552589E+03  0.45141381890E+03  0.00000000000E+00 0.  1.
<mgrwt>
<rscale>  4 0.39162163E+03</rscale>
<asrwt>0</asrwt>
<pdfrwt beam="1">  1       21 0.12455634E+00 0.39162163E+03</pdfrwt>
<pdfrwt beam="2">  1        2 0.23316097E+00 0.39162163E+03</pdfrwt>
<totfact> 0.72189359E+01</totfact>
</mgrwt>
</event>
<event>
 5    0  0.2947253E-001  0.2816490E+03  0.7546771E-02  0.1094792E+00
         21   -1    0    0  503  502  0.00000000000E+00  0.00000000000E+00  0.27626114111E+03  0.27626114111E+03  0.00000000000E+00 0. -1.
          2   -1    0    0  502    0 -0.00000000000E+00 -0.00000000000E+00 -0.11587602124E+04  0.11587602124E+04  0.00000000000E+00 0. -1.
         25    1    1    2    0    0 -0.82599968811E+02  0.24393033886E+03  0.17283539337E+03  0.33439772467E+03  0.12500000000E+03 0.  0.
         21    1    1    2  503  501  0.70440449640E+02 -0.44742770975E+02 -0.13349585909E+03  0.15743226129E+03  0.00000000000E+00 0.  1.
          2    1    1    2  501    0  0.12159519171E+02 -0.19918756788E+03 -0.92183860556E+03  0.94319136754E+03  0.00000000000E+00 0. -1.
<mgrwt>
<rscale>  4 0.28164899E+03</rscale>
<asrwt>0</asrwt>
<pdfrwt beam="1">  1       21 0.42501714E-01 0.28164899E+03</pdfrwt>
<pdfrwt beam="2">  1        2 0.17827080E+00 0.28164899E+03</pdfrwt>
<totfact> 0.13747948E+03</totfact>
</mgrwt>
</event>
<event>
 5    0  0.2947253E-001  0.2845433E+03  0.7546771E-02  0.1093233E+00
         21   -1    0    0  501  502  0.00000000000E+00  0.00000000000E+00  0.75926248741E+03  0.75926248741E+03  0.00000000000E+00 0.  1.
         -2   -1    0    0    0  501 -0.00000000000E+00 -0.00000000000E+00 -0.14904642579E+03  0.14904642579E+03  0.00000000000E+00 0. -1.
         25    1    1    2    0    0 -0.25555139948E+03 -0.57751582032E+01  0.57013492182E+03  0.63719596618E+03  0.12500000000E+03 0.  0.
         21    1    1    2  501  501  0.46114054172E+02 -0.26364023712E+02  0.24944959656E+02  0.58684058745E+02  0.00000000000E+00 0.  1.
         -2    1    1    2    0  502  0.20943734531E+03  0.32139181916E+02  0.15136180140E+02  0.21242888827E+03  0.00000000000E+00 0. -1.
<mgrwt>
<rscale>  4 0.28454327E+03</rscale>
<asrwt>0</asrwt>
<pdfrwt beam="1">  1       21 0.11680961E+00 0.28454327E+03</pdfrwt>
<pdfrwt beam="2">  1       -2 0.22930220E-01 0.28454327E+03</pdfrwt>
<totfact> 0.71901459E+02</totfact>
</mgrwt>
</event>
<event>
 5    0  0.2947253E-001  0.3441511E+03  0.7546771E-02  0.1065042E+00
          1   -1    0    0  502    0 -0.00000000000E+00  0.00000000000E+00  0.14875147611E+04  0.14875147611E+04  0.00000000000E+00 0.  1.
         21   -1    0    0  503  502  0.00000000000E+00 -0.00000000000E+00 -0.13267655259E+03  0.13267655259E+03  0.00000000000E+00 0.  1.
         25    1    1    2    0    0  0.20403922691E+03 -0.29560157441E+03  0.44021751188E+03  0.58174629752E+03  0.12500000000E+03 0.  0.
         21    1    1    2  503  501 -0.20162998140E+02  0.30313858799E+03  0.50426479713E+03  0.58871260871E+03  0.00000000000E+00 0.  1.
          1    1    1    2  501    0 -0.18387622877E+03 -0.75370135824E+01  0.41035589948E+03  0.44973240746E+03  0.00000000000E+00 0.  1.
<mgrwt>
<rscale>  4 0.34415114E+03</rscale>
<asrwt>0</asrwt>
<pdfrwt beam="1">  1       21 0.20411778E-01 0.34415114E+03</pdfrwt>
<pdfrwt beam="2">  1        1 0.22884841E+00 0.34415114E+03</pdfrwt>
<totfact> 0.17283486E+03</totfact>
</mgrwt>
</event>
<event>
 5    0  0.2947253E-001  0.2403274E+03  0.7546771E-02  0.1119575E+00
          2   -1    0    0  502    0 -0.00000000000E+00  0.00000000000E+00  0.22024732746E+04  0.22024732746E+04  0.00000000000E+00 0.  1.
         21   -1    0    0  503  502  0.00000000000E+00 -0.00000000000E+00 -0.32239674057E+02  0.32239674057E+02  0.00000000000E+00 0.  1.
         25    1    1    2    0    0 -0.17218183586E+03 -0.13046097611E+03  0.10858649857E+04  0.11141788088E+04  0.12500000000E+03 0.  0.
         21    1    1    2  503  501  0.53491860753E+01  0.20264848589E+02  0.54331851842E+03  0.54372262261E+03  0.00000000000E+00 0. -1.
          2    1    1    2  501    0  0.16683264978E+03  0.11019612752E+03  0.54105009647E+03  0.57681151726E+03  0.00000000000E+00 0.  1.
<mgrwt>
<rscale>  4 0.24032743E+03</rscale>
<asrwt>0</asrwt>
<pdfrwt beam="1">  1       21 0.49599516E-02 0.24032743E+03</pdfrwt>
<pdfrwt beam="2">  1        2 0.33884193E+00 0.24032743E+03</pdfrwt>
<totfact> 0.20265611E+04</totfact>
</mgrwt>
</event>
<event>
 5    0  0.2947253E-001  0.2727627E+03  0.7546771E-02  0.1099709E+00
          2   -1    0    0  502    0 -0.00000000000E+00  0.00000000000E+00  0.10789010283E+04  0.10789010283E+04  0.00000000000E+00 0. -1.
         21   -1    0    0  503  502  0.00000000000E+00 -0.00000000000E+00 -0.67540860751E+02  0.67540860751E+02  0.00000000000E+00 0.  1.
         25    1    1    2    0    0  0.21552658381E+03 -0.11100792643E+03  0.40116437783E+03  0.48511063284E+03  0.12500000000E+03 0.  0.
         21    1    1    2  503  501 -0.25459525291E+02  0.39036399792E+02  0.69303053178E+02  0.83516112915E+02  0.00000000000E+00 0. -1.
          2    1    1    2  501    0 -0.19006705852E+03  0.71971526633E+02  0.54089273657E+03  0.57781514332E+03  0.00000000000E+00 0. -1.
<mgrwt>
<rscale>  4 0.27276266E+03</rscale>
<asrwt>0</asrwt>
<pdfrwt beam="1">  1       21 0.10390902E-01 0.27276266E+03</pdfrwt>
<pdfrwt beam="2">  1        2 0.16598476E+00 0.27276266E+03</pdfrwt>
<totfact> 0.22356800E+04</totfact>
</mgrwt>
</event>
<event>
 5    0  0.2947253E-001  0.2537691E+03  0.7546771E-02  0.1110946E+00
         21   -1    0    0  503  502  0.00000000000E+00  0.00000000000E+00  0.34269691076E+03  0.34269691076E+03  0.00000000000E+00 0. -1.
          2   -1    0    0  502    0 -0.00000000000E+00 -0.00000000000E+00 -0.19094016659E+04  0.19094016659E+04  0.00000000000E+00 0.  1.
         25    1    1    2    0    0  0.20891061341E+03  0.71624930344E+02  0.28629965442E+03  0.38257844577E+03  0.12500000000E+03 0.  0.
         21    1    1    2  503  501 -0.57139581896E+02 -0.76923169307E+02 -0.67522362842E+03  0.68198904257E+03  0.00000000000E+00 0. -1.
          2    1    1    2  501    0 -0.15177103152E+03  0.52982389627E+01 -0.11777807812E+04  0.11875310884E+04  0.00000000000E+00 0.  1.
<mgrwt>
<rscale>  4 0.25376914E+03</rscale>
<asrwt>0</asrwt>
<pdfrwt beam="1">  1       21 0.52722601E-01 0.25376914E+03</pdfrwt>
<pdfrwt beam="2">  1        2 0.29375410E+00 0.25376914E+03</pdfrwt>
<totfact> 0.35015513E+02</totfact>
</mgrwt>
</event>
<event>
 5    0  0.2947253E-001  0.4573795E+03  0.7546771E-02  0.1025544E+00
         21   -1    0    0  501  502  0.00000000000E+00  0.00000000000E+00  0.49299514544E+03  0.49299514544E+03  0.00000000000E+00 0. -1.
         -2   -1    0    0    0  501 -0.00000000000E+00 -0.00000000000E+00 -0.86336007040E+03  0.86336007040E+03  0.00000000000E+00 0.  1.
         25    1    1    2    0    0 -0.21120811270E+03  0.37113638926E+03  0.20962561065E+03  0.49185260287E+03  0.12500000000E+03 0.  0.
         21    1    1    2  501  501  0.68406856767E+02  0.11365129330E+03 -0.87971395171E+02  0.15916997484E+03  0.00000000000E+00 0.  1.
         -2    1    1    2    0  502  0.14280125593E+03 -0.48478768256E+03 -0.49201914045E+03  0.70533263814E+03  0.00000000000E+00 0.  1.
<mgrwt>
<rscale>  4 0.45737949E+03</rscale>
<asrwt>0</asrwt>
<pdfrwt beam="1">  1       21 0.75845407E-01 0.45737949E+03</pdfrwt>
<pdfrwt beam="2">  1       -2 0.13282463E+00 0.45737949E+03</pdfrwt>
<totfact> 0.49475758E+01</totfact>
</mgrwt>
</event>
<event>
 5    0  0.2947253E-001  0.2436813E+03  0.7546771E-02  0.1117364E+00
          2   -1    0    0  502    0 -0.00000000000E+00  0.00000000000E+00  0.15707256366E+04  0.15707256366E+04  0.00000000000E+00 0.  1.
         21   -1    0    0  503  502  0.00000000000E+00 -0.00000000000E+00 -0.90123679721E+02  0.90123679721E+02  0.00000000000E+00 0. -1.
         25    1    1    2    0    0  0.20965335601E+03 -0.15377715657E+02  0.10449479110E+03  0.26596083395E+03  0.12500000000E+03 0.  0.
         21    1    1    2  503  501 -0.98771449990E+01 -0.17785787753E+02  0.61572422014E+02  0.64846398451E+02  0.00000000000E+00 0.  1.
          2    1    1    2  501    0 -0.19977621101E+03  0.33163503410E+02  0.13145347438E+04  0.13300420839E+04  0.00000000000E+00 0.  1.
<mgrwt>
<rscale>  4 0.24368133E+03</rscale>
<asrwt>0</asrwt>
<pdfrwt beam="1">  1       21 0.13865183E-01 0.24368133E+03</pdfrwt>
<pdfrwt beam="2">  1        2 0.24165008E+00 0.24368133E+03</pdfrwt>
<totfact> 0.71466743E+03</totfact>
</mgrwt>
</event>
<event>
 5    0  0.2947253E-001  0.2634985E+03  0.7546771E-02  0.1105059E+00
          1   -1    0    0  502    0 -0.00000000000E+00  0.00000000000E+00  0.11000627162E+04  0.11000627162E+04  0.00000000000E+00 0.  1.
         21   -1    0    0  503  502  0.00000000000E+00 -0.00000000000E+00 -0.85708283339E+02  0.85708283339E+02  0.00000000000E+00 0.  1.
         25    1    1    2    0    0 -0.11342616314E+03 -0.19639629178E+03  0.20218249017E+03  0.32854186528E+03  0.12500000000E+03 0.  0.
         21    1    1    2  503  501  0.13833029305E+03  0.20401480864E+03  0.70187051835E+03  0.74389484246E+03  0.00000000000E+00 0.  1.
          1    1    1    2  501    0 -0.24904129911E+02 -0.76185168618E+01  0.11030142437E+03  0.11333429183E+03  0.00000000000E+00 0.  1.
<mgrwt>
<rscale>  4 0.26349849E+03</rscale>
<asrwt>0</asrwt>
<pdfrwt beam="1">  1       21 0.13185891E-01 0.26349849E+03</pdfrwt>
<pdfrwt beam="2">  1        1 0.16924041E+00 0.26349849E+03</pdfrwt>
<totfact> 0.73710156E+03</totfact>
</mgrwt>
</event>
<event>
 5    0  0.2947253E-001  0.2383724E+03  0.7546771E-02  0.1120882E+00
         21   -1    0    0  503  502  0.00000000000E+00  0.00000000000E+00  0.18828272420E+03  0.18828272420E+03  0.00000000000E+00 0. -1.
          3   -1    0    0  502    0 -0.00000000000E+00 -0.00000000000E+00 -0.30066046524E+03  0.30066046524E+03  0.00000000000E+00 0. -1.
         25    1    1    2    0    0  0.19828300704E+03 -0.60483311301E+02 -0.92785478826E+02  0.25924607405E+03  0.12500000000E+03 0.  0.
         21    1    1    2  503  501 -0.15542539046E+01  0.29418869389E+02 -0.60219121642E+01  0.30069070611E+02  0.00000000000E+00 0. -1.
          3    1    1    2  501    0 -0.19672875314E+03  0.31064441912E+02 -0.13570350043E+02  0.19962804478E+03  0.00000000000E+00 0. -1.
<mgrwt>
<rscale>  4 0.23837243E+03</rscale>
<asrwt>0</asrwt>
<pdfrwt beam="1">  1       21 0.28966573E-01 0.23837243E+03</pdfrwt>
<pdfrwt beam="2">  1        3 0.46255456E-01 0.23837243E+03</pdfrwt>
<totfact> 0.26289334E+03</totfact>
</mgrwt>
</event>
<event>
 5    0  0.2947253E-001  0.2422924E+03  0.7546771E-02  0.1118275E+00
          1   -1    0    0  502    0 -0.00000000000E+00  0.00000000000E+00  0.33984529882E+04  0.33984529882E+04  0.00000000000E+00 0. -1.
         21   -1    0    0  503  502  0.00000000000E+00 -0.00000000000E+00 -0.16386429728E+03  0.16386429728E+03  0.00000000000E+00 0.  1.
         25    1    1    2    0    0  0.12468650845E+03  0.16370259332E+03 -0.62699802012E+02  0.24880018011E+03  0.12500000000E+03 0.  0.
         21    1    1    2  503  501  0.36300052052E+02  0.20722775806E+02  0.13839725592E+04  0.13846036154E+04  0.00000000000E+00 0. -1.
          1    1    1    2  501    0 -0.16098656050E+03 -0.18442536913E+03  0.19133159338E+04  0.19289134900E+04  0.00000000000E+00 0. -1.
<mgrwt>
<rscale>  4 0.24229245E+03</rscale>
<asrwt>0</asrwt>
<pdfrwt beam="1">  1       21 0.25209894E-01 0.24229245E+03</pdfrwt>
<pdfrwt beam="2">  1        1 0.52283887E+00 0.24229245E+03</pdfrwt>
<totfact> 0.62138676E+01</totfact>
</mgrwt>
</event>
<event>
 5    0  0.2947253E-001  0.2863155E+03  0.7546771E-02  0.1092289E+00
          2   -1    0    0  502    0 -0.00000000000E+00  0.00000000000E+00  0.11951079095E+04  0.11951079095E+04  0.00000000000E+00 0.  1.
         21   -1    0    0  503  502  0.00000000000E+00 -0.00000000000E+00 -0.25949511230E+03  0.25949511230E+03  0.00000000000E+00 0. -1.
         25    1    1    2    0    0  0.53976790064E+01  0.25784744898E+03 -0.15022178900E+03  0.32358310798E+03  0.12500000000E+03 0.  0.
         21    1    1    2  503  501  0.49028346136E+02 -0.53886919514E+01  0.94505878357E+02  0.10660289757E+03  0.00000000000E+00 0. -1.
          2    1    1    2  501    0 -0.54426025142E+02 -0.25245875703E+03  0.99132870787E+03  0.10244170163E+04  0.00000000000E+00 0.  1.
<mgrwt>
<rscale>  4 0.28631546E+03</rscale>
<asrwt>0</asrwt>
<pdfrwt beam="1">  1       21 0.39922326E-01 0.28631546E+03</pdfrwt>
<pdfrwt beam="2">  1        2 0.18386275E+00 0.28631546E+03</pdfrwt>
<totfact> 0.14867068E+03</totfact>
</mgrwt>
</event>
<event>
 5    0  0.2947253E-001  0.2809257E+03  0.7546771E-02  0.1095184E+00
          1   -1    0    0  502    0 -0.00000000000E+00  0.00000000000E+00  0.17710108267E+03  0.17710108267E+03  0.00000000000E+00 0. -1.
         21   -1    0    0  503  502  0.00000000000E+00 -0.00000000000E+00 -0.47422786322E+03  0.47422786322E+03  0.00000000000E+00 0. -1.
         25    1    1    2    0    0  0.16467000309E+03 -0.19020523725E+03 -0.26918504374E+03  0.38907560958E+03  0.12500000000E+03 0.  0.
         21    1    1    2  503  501 -0.60170477004E+02  0.89010114086E+02 -0.43593474085E+02  0.11594687445E+03  0.00000000000E+00 0. -1.
          1    1    1    2  501    0 -0.10449952609E+03  0.10119512316E+03  0.15651737276E+02  0.14630646186E+03  0.00000000000E+00 0. -1.
<mgrwt>
<rscale>  4 0.28092569E+03</rscale>
<asrwt>0</asrwt>
<pdfrwt beam="1">  1       21 0.72958132E-01 0.28092569E+03</pdfrwt>
<pdfrwt beam="2">  1        1 0.27246321E-01 0.28092569E+03</pdfrwt>
<totfact> 0.30519301E+03</totfact>
</mgrwt>
</event>
<event>
 5    0  0.2947253E-001  0.2232176E+03  0.7546771E-02  0.1131507E+00
          2   -1    0    0  502    0 -0.00000000000E+00  0.00000000000E+00  0.20545943473E+04  0.20545943473E+04  0.00000000000E+00 0. -1.
         21   -1    0    0  503  502  0.00000000000E+00 -0.00000000000E+00 -0.75698657815E+02  0.75698657815E+02  0.00000000000E+00 0. -1.
         25    1    1    2    0    0 -0.64142122834E+02 -0.20492919621E+03  0.42301412662E+03  0.49058754438E+03  0.12500000000E+03 0.  0.
         21    1    1    2  503  501  0.92614568671E+02  0.28664968050E+02  0.13980209892E+04  0.14013785444E+04  0.00000000000E+00 0. -1.
          2    1    1    2  501    0 -0.28472445837E+02  0.17626422816E+03  0.15786057375E+03  0.23832691633E+03  0.00000000000E+00 0. -1.
<mgrwt>
<rscale>  4 0.22321764E+03</rscale>
<asrwt>0</asrwt>
<pdfrwt beam="1">  1       21 0.11645949E-01 0.22321764E+03</pdfrwt>
<pdfrwt beam="2">  1        2 0.31609139E+00 0.22321764E+03</pdfrwt>
<totfact> 0.55062881E+03</totfact>
</mgrwt>
</event>
<event>
 5    0  0.2947253E-001  0.2403278E+03  0.7546771E-02  0.1119575E+00
         -2   -1    0    0    0  501 -0.00000000000E+00  0.00000000000E+00  0.28474799961E+03  0.28474799961E+03  0.00000000000E+00 0.  1.
         21   -1    0    0  501  502  0.00000000000E+00 -0.00000000000E+00 -0.23129630348E+03  0.23129630348E+03  0.00000000000E+00 0.  1.
         25    1    1    2    0    0  0.97484751003E+02 -0.18321165129E+03 -0.44232450758E+02  0.24627483742E+03  0.12500000000E+03 0.  0.
         21    1    1    2  501  501 -0.33094708843E+02 -0.10340675301E+02  0.49054477538E+02  0.60071050312E+02  0.00000000000E+00 0. -1.
         -2    1    1    2    0  502 -0.64390042160E+02  0.19355232660E+03  0.48629669345E+02  0.20969841535E+03  0.00000000000E+00 0.  1.
<mgrwt>
<rscale>  4 0.24032780E+03</rscale>
<asrwt>0</asrwt>
<pdfrwt beam="1">  1       21 0.35584047E-01 0.24032780E+03</pdfrwt>
<pdfrwt beam="2">  1       -2 0.43807385E-01 0.24032780E+03</pdfrwt>
<totfact> 0.30438234E+03</totfact>
</mgrwt>
</event>
<event>
 5    0  0.2947253E-001  0.3576278E+03  0.7546771E-02  0.1059527E+00
         21   -1    0    0  503  502  0.00000000000E+00  0.00000000000E+00  0.30691698010E+03  0.30691698010E+03  0.00000000000E+00 0. -1.
          2   -1    0    0  502    0 -0.00000000000E+00 -0.00000000000E+00 -0.18289205167E+04  0.18289205167E+04  0.00000000000E+00 0. -1.
         25    1    1    2    0    0 -0.18147866532E+01  0.33506621526E+03  0.17943278236E+03  0.40011721463E+03  0.12500000000E+03 0.  0.
         21    1    1    2  503  501  0.19855481938E+02 -0.72918452132E+02 -0.27055629183E+03  0.28091288307E+03  0.00000000000E+00 0.  1.
          2    1    1    2  501    0 -0.18040695285E+02 -0.26214776313E+03 -0.14308800271E+04  0.14548073991E+04  0.00000000000E+00 0. -1.
<mgrwt>
<rscale>  4 0.35762783E+03</rscale>
<asrwt>0</asrwt>
<pdfrwt beam="1">  1       21 0.47217997E-01 0.35762783E+03</pdfrwt>
<pdfrwt beam="2">  1        2 0.28137239E+00 0.35762783E+03</pdfrwt>
<totfact> 0.46191864E+02</totfact>
</mgrwt>
</event>
<event>
 5    0  0.2947253E-001  0.2539503E+03  0.7546771E-02  0.1110833E+00
          2   -1    0    0  502    0 -0.00000000000E+00  0.00000000000E+00  0.10500545335E+04  0.10500545335E+04  0.00000000000E+00 0.  1.
         21   -1    0    0  503  502  0.00000000000E+00 -0.00000000000E+00 -0.15670621818E+04  0.15670621818E+04  0.00000000000E+00 0.  1.
         25    1    1    2    0    0 -0.29772431934E+02 -0.22136368190E+03 -0.15380145292E+04  0.15591670756E+04  0.12500000000E+03 0.  0.
         21    1    1    2  503  501 -0.62719919659E+02  0.12880145071E+03  0.45532792916E+03  0.47733334799E+03  0.00000000000E+00 0.  1.
          2    1    1    2  501    0  0.92492351593E+02  0.92562231194E+02  0.56567895176E+03  0.58061629172E+03  0.00000000000E+00 0.  1.
<mgrwt>
<rscale>  4 0.25395031E+03</rscale>
<asrwt>0</asrwt>
<pdfrwt beam="1">  1       21 0.24108649E+00 0.25395031E+03</pdfrwt>
<pdfrwt beam="2">  1        2 0.16154685E+00 0.25395031E+03</pdfrwt>
<totfact> 0.21801005E+01</totfact>
</mgrwt>
</event>
<event>
 5    0  0.2947253E-001  0.4995735E+03  0.7546771E-02  0.1013890E+00
         21   -1    0    0  503  502  0.00000000000E+00  0.00000000000E+00  0.17324558623E+03  0.17324558623E+03  0.00000000000E+00 0.  1.
          2   -1    0    0  502    0 -0.00000000000E+00 -0.00000000000E+00 -0.18475085756E+04  0.18475085756E+04  0.00000000000E+00 0. -1.
         25    1    1    2    0    0  0.30553475547E+03  0.37496287383E+03 -0.35922536954E+03  0.61531821822E+03  0.12500000000E+03 0.  0.
         21    1    1    2  503  501 -0.19236873832E+02 -0.32066472697E+02 -0.41671740519E+02  0.55989730701E+02  0.00000000000E+00 0. -1.
          2    1    1    2  501    0 -0.28629788164E+03 -0.34289640114E+03 -0.12733658793E+04  0.13494462129E+04  0.00000000000E+00 0. -1.
<mgrwt>
<rscale>  4 0.49957346E+03</rscale>
<asrwt>0</asrwt>
<pdfrwt beam="1">  1       21 0.26653169E-01 0.49957346E+03</pdfrwt>
<pdfrwt beam="2">  1        2 0.28423207E+00 0.49957346E+03</pdfrwt>
<totfact> 0.13756659E+03</totfact>
</mgrwt>
</event>
<event>
 5    0  0.2947253E-001  0.3483551E+03  0.7546771E-02  0.1063292E+00
          2   -1    0    0  502    0 -0.00000000000E+00  0.00000000000E+00  0.65736488006E+03  0.65736488006E+03  0.00000000000E+00 0.  1.
         21   -1    0    0  503  502  0.00000000000E+00 -0.00000000000E+00 -0.56462675058E+03  0.56462675058E+03  0.00000000000E+00 0. -1.
         25    1    1    2    0    0  0.28432150595E+03 -0.15775790548E+03 -0.45663161314E+03  0.57433762336E+03  0.12500000000E+03 0.  0.
         21    1    1    2  503  501 -0.67460454316E+02  0.66489326079E+02  0.85841905013E+02  0.12783026260E+03  0.00000000000E+00 0. -1.
          2    1    1    2  501    0 -0.21686105163E+03  0.91268579406E+02  0.46352783760E+03  0.51982374468E+03  0.00000000000E+00 0.  1.
<mgrwt>
<rscale>  4 0.34835510E+03</rscale>
<asrwt>0</asrwt>
<pdfrwt beam="1">  1       21 0.86865654E-01 0.34835510E+03</pdfrwt>
<pdfrwt beam="2">  1        2 0.10113306E+00 0.34835510E+03</pdfrwt>
<totfact> 0.60464361E+02</totfact>
</mgrwt>
</event>
<event>
 5    0  0.2947253E-001  0.2305790E+03  0.7546771E-02  0.1126233E+00
          1   -1    0    0  502    0 -0.00000000000E+00  0.00000000000E+00  0.81133668466E+03  0.81133668466E+03  0.00000000000E+00 0.  1.
         21   -1    0    0  503  502  0.00000000000E+00 -0.00000000000E+00 -0.24858914014E+03  0.24858914014E+03  0.00000000000E+00 0.  1.
         25    1    1    2    0    0  0.71662955540E+02  0.21853522558E+03 -0.12649390177E+03  0.29072139791E+03  0.12500000000E+03 0.  0.
         21    1    1    2  503  501  0.48385112529E+02 -0.68391824391E+02  0.41409059355E+02  0.93451971379E+02  0.00000000000E+00 0.  1.
          1    1    1    2  501    0 -0.12004806807E+03 -0.15014340119E+03  0.64783238694E+03  0.67575245551E+03  0.00000000000E+00 0.  1.
<mgrwt>
<rscale>  4 0.23057902E+03</rscale>
<asrwt>0</asrwt>
<pdfrwt beam="1">  1       21 0.38244483E-01 0.23057902E+03</pdfrwt>
<pdfrwt beam="2">  1        1 0.12482103E+00 0.23057902E+03</pdfrwt>
<totfact> 0.16324944E+03</totfact>
</mgrwt>
</event>
<event>
 5    0  0.3660327E-001  0.2479670E+03  0.7546771E-02  0.1114596E+00
         21   -1    0    0  501  502  0.00000000000E+00  0.00000000000E+00  0.23077994002E+03  0.23077994002E+03  0.00000000000E+00 0.  1.
         -2   -1    0    0    0  501 -0.00000000000E+00 -0.00000000000E+00 -0.60268768704E+03  0.60268768704E+03  0.00000000000E+00 0.  1.
         25    1    1    2    0    0 -0.45325738875E+02 -0.23763194650E+03  0.10249275744E+03  0.29095210934E+03  0.12500000000E+03 0.  0.
         21    1    1    2  501  501  0.75799874310E+01  0.30103333317E+02 -0.10263073711E+02  0.32695528261E+02  0.00000000000E+00 0.  1.
         -2    1    1    2    0  502  0.37745751444E+02  0.20752861318E+03 -0.46413743074E+03  0.50981998947E+03  0.00000000000E+00 0.  1.
<mgrwt>
<rscale>  4 0.24796702E+03</rscale>
<asrwt>0</asrwt>
<pdfrwt beam="1">  1       21 0.35504606E-01 0.24796702E+03</pdfrwt>
<pdfrwt beam="2">  1       -2 0.92721183E-01 0.24796702E+03</pdfrwt>
<totfact> 0.62881945E+02</totfact>
</mgrwt>
</event>
<event>
 5    0  0.2947253E-001  0.6073767E+03  0.7546771E-02  0.9898448E-01
         21   -1    0    0  503  502  0.00000000000E+00  0.00000000000E+00  0.31028420113E+03  0.31028420113E+03  0.00000000000E+00 0.  1.
          1   -1    0    0  502    0 -0.00000000000E+00 -0.00000000000E+00 -0.16034105838E+04  0.16034105838E+04  0.00000000000E+00 0.  1.
         25    1    1    2    0    0  0.43318560725E+03 -0.38286697928E+03 -0.13611600135E+03  0.60695095352E+03  0.12500000000E+03 0.  0.
         21    1    1    2  503  501 -0.37290662600E+03  0.31018212875E+03 -0.78357010691E+03  0.92155000795E+03  0.00000000000E+00 0.  1.
          1    1    1    2  501    0 -0.60278981244E+02  0.72684850534E+02 -0.37344027445E+03  0.38519382350E+03  0.00000000000E+00 0.  1.
<mgrwt>
<rscale>  4 0.60336576E+03</rscale>
<asrwt>0</asrwt>
<pdfrwt beam="1">  1       21 0.47736030E-01 0.60737667E+03</pdfrwt>
<pdfrwt beam="2">  1        1 0.24667856E+00 0.60737667E+03</pdfrwt>
<totfact> 0.24553390E+02</totfact>
</mgrwt>
</event>
<event>
 5    0  0.3035367E-001  0.3728680E+03  0.7546771E-02  0.1053602E+00
         21   -1    0    0  503  502  0.00000000000E+00  0.00000000000E+00  0.26863644697E+03  0.26863644697E+03  0.00000000000E+00 0. -1.
          2   -1    0    0  502    0 -0.00000000000E+00 -0.00000000000E+00 -0.19413971830E+04  0.19413971830E+04  0.00000000000E+00 0.  1.
         25    1    1    2    0    0 -0.32770917688E+03 -0.13241264713E+03  0.10803475707E+03  0.39015756108E+03  0.12500000000E+03 0.  0.
         21    1    1    2  503  501  0.34220102404E+02 -0.83027641260E+01 -0.69590205390E+02  0.77991973862E+02  0.00000000000E+00 0. -1.
          2    1    1    2  501    0  0.29348907448E+03  0.14071541125E+03 -0.17112052877E+04  0.17418840951E+04  0.00000000000E+00 0.  1.
<mgrwt>
<rscale>  4 0.37286797E+03</rscale>
<asrwt>0</asrwt>
<pdfrwt beam="1">  1       21 0.41328684E-01 0.37286797E+03</pdfrwt>
<pdfrwt beam="2">  1        2 0.29867649E+00 0.37286797E+03</pdfrwt>
<totfact> 0.52778010E+02</totfact>
</mgrwt>
</event>
<event>
 5    0  0.2947253E-001  0.2317564E+03  0.7546771E-02  0.1125410E+00
         21   -1    0    0  503  502  0.00000000000E+00  0.00000000000E+00  0.13082880942E+03  0.13082880942E+03  0.00000000000E+00 0. -1.
          1   -1    0    0  502    0 -0.00000000000E+00 -0.00000000000E+00 -0.94796274726E+03  0.94796274726E+03  0.00000000000E+00 0. -1.
         25    1    1    2    0    0 -0.15854913456E+03 -0.14695309289E+03 -0.37990776467E+02  0.25258926873E+03  0.12500000000E+03 0.  0.
         21    1    1    2  503  501  0.45898109112E+02 -0.99733988221E+01 -0.38350478989E+02  0.60637153156E+02  0.00000000000E+00 0.  1.
          1    1    1    2  501    0  0.11265102544E+03  0.15692649171E+03 -0.74079268239E+03  0.76556513480E+03  0.00000000000E+00 0. -1.
<mgrwt>
<rscale>  4 0.23175643E+03</rscale>
<asrwt>0</asrwt>
<pdfrwt beam="1">  1       21 0.20127508E-01 0.23175643E+03</pdfrwt>
<pdfrwt beam="2">  1        1 0.14584043E+00 0.23175643E+03</pdfrwt>
<totfact> 0.44217965E+03</totfact>
</mgrwt>
</event>
<event>
 5    0  0.2947253E-001  0.2623142E+03  0.7546771E-02  0.1105761E+00
         21   -1    0    0  503  502  0.00000000000E+00  0.00000000000E+00  0.16140252804E+03  0.16140252804E+03  0.00000000000E+00 0. -1.
          2   -1    0    0  502    0 -0.00000000000E+00 -0.00000000000E+00 -0.81026037530E+03  0.81026037530E+03  0.00000000000E+00 0. -1.
         25    1    1    2    0    0 -0.84921085112E+02  0.22011437504E+03  0.77414877391E+01  0.26710832901E+03  0.12500000000E+03 0.  0.
         21    1    1    2  503  501 -0.20497453380E+02 -0.37424133911E+02 -0.14592938584E+03  0.15203978771E+03  0.00000000000E+00 0. -1.
          2    1    1    2  501    0  0.10541853849E+03 -0.18269024113E+03 -0.51066994916E+03  0.55251478662E+03  0.00000000000E+00 0. -1.
<mgrwt>
<rscale>  4 0.26231416E+03</rscale>
<asrwt>0</asrwt>
<pdfrwt beam="1">  1       21 0.24831158E-01 0.26231416E+03</pdfrwt>
<pdfrwt beam="2">  1        2 0.12465544E+00 0.26231416E+03</pdfrwt>
<totfact> 0.66354450E+03</totfact>
</mgrwt>
</event>
<event>
 5    0  0.2947253E-001  0.2525711E+03  0.7546771E-02  0.1111691E+00
          2   -1    0    0  502    0 -0.00000000000E+00  0.00000000000E+00  0.14642695009E+04  0.14642695009E+04  0.00000000000E+00 0. -1.
         21   -1    0    0  503  502  0.00000000000E+00 -0.00000000000E+00 -0.90337830125E+02  0.90337830125E+02  0.00000000000E+00 0.  1.
         25    1    1    2    0    0  0.39884716044E+02 -0.21581554815E+03  0.12039956613E+03  0.27980028042E+03  0.12500000000E+03 0.  0.
         21    1    1    2  503  501 -0.39223533480E+02  0.41730795419E+02  0.27325930397E+03  0.27919633248E+03  0.00000000000E+00 0.  1.
          2    1    1    2  501    0 -0.66118256427E+00  0.17408475273E+03  0.98027280067E+03  0.99561071811E+03  0.00000000000E+00 0. -1.
<mgrwt>
<rscale>  4 0.25257106E+03</rscale>
<asrwt>0</asrwt>
<pdfrwt beam="1">  1       21 0.13898129E-01 0.25257106E+03</pdfrwt>
<pdfrwt beam="2">  1        2 0.22527221E+00 0.25257106E+03</pdfrwt>
<totfact> 0.80863043E+03</totfact>
</mgrwt>
</event>
<event>
 5    0  0.2947253E-001  0.2634698E+03  0.7546771E-02  0.1105076E+00
          2   -1    0    0  502    0 -0.00000000000E+00  0.00000000000E+00  0.31340584881E+04  0.31340584881E+04  0.00000000000E+00 0. -1.
         21   -1    0    0  503  502  0.00000000000E+00 -0.00000000000E+00 -0.26193222052E+02  0.26193222052E+02  0.00000000000E+00 0. -1.
         25    1    1    2    0    0 -0.51717362232E+02 -0.23312509170E+03  0.17699390741E+04  0.17903439111E+04  0.12500000000E+03 0.  0.
         21    1    1    2  503  501  0.57815871951E+02  0.25047063418E+01  0.39237360706E+03  0.39661819944E+03  0.00000000000E+00 0.  1.
          2    1    1    2  501    0 -0.60985097187E+01  0.23062038536E+03  0.94555258481E+03  0.97328959955E+03  0.00000000000E+00 0. -1.
<mgrwt>
<rscale>  4 0.26346977E+03</rscale>
<asrwt>0</asrwt>
<pdfrwt beam="1">  1       21 0.40297289E-02 0.26346977E+03</pdfrwt>
<pdfrwt beam="2">  1        2 0.48216255E+00 0.26346977E+03</pdfrwt>
<totfact> 0.85521254E+03</totfact>
</mgrwt>
</event>
<event>
 5    0  0.2990680E-001  0.2955049E+03  0.7546771E-02  0.1087510E+00
         21   -1    0    0  503  502  0.00000000000E+00  0.00000000000E+00  0.28534623417E+03  0.28534623417E+03  0.00000000000E+00 0.  1.
          2   -1    0    0  502    0 -0.00000000000E+00 -0.00000000000E+00 -0.77427604722E+03  0.77427604722E+03  0.00000000000E+00 0. -1.
         25    1    1    2    0    0  0.14805784074E+03 -0.22714813127E+03  0.16749771501E+03  0.34234176239E+03  0.12500000000E+03 0.  0.
         21    1    1    2  503  501 -0.51623182165E+01  0.30944250914E+02 -0.22882328033E+02  0.38830363508E+02  0.00000000000E+00 0. -1.
          2    1    1    2  501    0 -0.14289552252E+03  0.19620388036E+03 -0.63354520002E+03  0.67845015549E+03  0.00000000000E+00 0. -1.
<mgrwt>
<rscale>  4 0.29550486E+03</rscale>
<asrwt>0</asrwt>
<pdfrwt beam="1">  1       21 0.43899422E-01 0.29550486E+03</pdfrwt>
<pdfrwt beam="2">  1        2 0.11911939E+00 0.29550486E+03</pdfrwt>
<totfact> 0.22404661E+03</totfact>
</mgrwt>
</event>
<event>
 5    0  0.2947253E-001  0.2681192E+03  0.7546771E-02  0.1102361E+00
         21   -1    0    0  503  502  0.00000000000E+00  0.00000000000E+00  0.71104066584E+03  0.71104066584E+03  0.00000000000E+00 0.  1.
          3   -1    0    0  502    0 -0.00000000000E+00 -0.00000000000E+00 -0.22354122281E+03  0.22354122281E+03  0.00000000000E+00 0.  1.
         25    1    1    2    0    0 -0.75280106330E+02 -0.22493518009E+03  0.60103680219E+03  0.65812853398E+03  0.12500000000E+03 0.  0.
         21    1    1    2  503  501  0.60007242346E+02  0.85199603975E+02 -0.16171085615E+02  0.10545779090E+03  0.00000000000E+00 0.  1.
          3    1    1    2  501    0  0.15272863984E+02  0.13973557611E+03 -0.97366273537E+02  0.17099556377E+03  0.00000000000E+00 0.  1.
<mgrwt>
<rscale>  4 0.26811925E+03</rscale>
<asrwt>0</asrwt>
<pdfrwt beam="1">  1       21 0.10939087E+00 0.26811925E+03</pdfrwt>
<pdfrwt beam="2">  1        3 0.34390958E-01 0.26811925E+03</pdfrwt>
<totfact> 0.26536635E+02</totfact>
</mgrwt>
</event>
<event>
 5    0  0.2947253E-001  0.3218459E+03  0.7546771E-02  0.1074803E+00
          2   -1    0    0  502    0 -0.00000000000E+00  0.00000000000E+00  0.86530315954E+03  0.86530315954E+03  0.00000000000E+00 0. -1.
         21   -1    0    0  503  502  0.00000000000E+00 -0.00000000000E+00 -0.23915943422E+03  0.23915943422E+03  0.00000000000E+00 0. -1.
         25    1    1    2    0    0 -0.21567181262E+03 -0.21100097105E+03 -0.57262200232E+02  0.33157156108E+03  0.12500000000E+03 0.  0.
         21    1    1    2  503  501  0.16145015630E+03  0.23171632370E+03  0.44135528831E+03  0.52397814664E+03  0.00000000000E+00 0. -1.
          2    1    1    2  501    0  0.54221656318E+02 -0.20715352644E+02  0.24205063725E+03  0.24891288605E+03  0.00000000000E+00 0. -1.
<mgrwt>
<rscale>  4 0.32184589E+03</rscale>
<asrwt>0</asrwt>
<pdfrwt beam="1">  1       21 0.36793760E-01 0.32184589E+03</pdfrwt>
<pdfrwt beam="2">  1        2 0.13312356E+00 0.32184589E+03</pdfrwt>
<totfact> 0.27613844E+03</totfact>
</mgrwt>
</event>
<event>
 5    0  0.2947253E-001  0.2669572E+03  0.7546771E-02  0.1103034E+00
         21   -1    0    0  501  502  0.00000000000E+00  0.00000000000E+00  0.24035029173E+04  0.24035029173E+04  0.00000000000E+00 0. -1.
         -1   -1    0    0    0  501 -0.00000000000E+00 -0.00000000000E+00 -0.47358716432E+02  0.47358716432E+02  0.00000000000E+00 0. -1.
         25    1    1    2    0    0 -0.16458651753E+03  0.18978337162E+03  0.83755763194E+03  0.88330868711E+03  0.12500000000E+03 0.  0.
         21    1    1    2  501  501  0.24584551432E+02 -0.11627793962E+02  0.10147204678E+04  0.10150848405E+04  0.00000000000E+00 0. -1.
         -1    1    1    2    0  502  0.14000196609E+03 -0.17815557765E+03  0.50386610115E+03  0.55246810610E+03  0.00000000000E+00 0. -1.
<mgrwt>
<rscale>  4 0.26695719E+03</rscale>
<asrwt>0</asrwt>
<pdfrwt beam="1">  1       21 0.36976958E+00 0.26695719E+03</pdfrwt>
<pdfrwt beam="2">  1       -1 0.72859583E-02 0.26695719E+03</pdfrwt>
<totfact> 0.10916582E+02</totfact>
</mgrwt>
</event>
<event>
 5    0  0.2947253E-001  0.2600292E+03  0.7546771E-02  0.1107126E+00
          2   -1    0    0  502    0 -0.00000000000E+00  0.00000000000E+00  0.12754434333E+04  0.12754434333E+04  0.00000000000E+00 0.  1.
         21   -1    0    0  503  502  0.00000000000E+00 -0.00000000000E+00 -0.54577039923E+02  0.54577039923E+02  0.00000000000E+00 0. -1.
         25    1    1    2    0    0  0.22799866385E+03 -0.26093524381E+01  0.41539539580E+03  0.49006992796E+03  0.12500000000E+03 0.  0.
         21    1    1    2  503  501 -0.20670843943E+02 -0.13068160326E+02  0.15890760302E+03  0.16077837822E+03  0.00000000000E+00 0. -1.
          2    1    1    2  501    0 -0.20732781991E+03  0.15677512764E+02  0.64656339455E+03  0.67917216705E+03  0.00000000000E+00 0.  1.
<mgrwt>
<rscale>  4 0.26002923E+03</rscale>
<asrwt>0</asrwt>
<pdfrwt beam="1">  1       21 0.83964687E-02 0.26002923E+03</pdfrwt>
<pdfrwt beam="2">  1        2 0.19622204E+00 0.26002923E+03</pdfrwt>
<totfact> 0.25204759E+04</totfact>
</mgrwt>
</event>
<event>
 5    0  0.2947253E-001  0.2841029E+03  0.7546771E-02  0.1093469E+00
         21   -1    0    0  503  502  0.00000000000E+00  0.00000000000E+00  0.11115023900E+04  0.11115023900E+04  0.00000000000E+00 0. -1.
          2   -1    0    0  502    0 -0.00000000000E+00 -0.00000000000E+00 -0.38618634851E+03  0.38618634851E+03  0.00000000000E+00 0. -1.
         25    1    1    2    0    0  0.15307161952E+03  0.20410425807E+03  0.10434276126E+04  0.10814137282E+04  0.12500000000E+03 0.  0.
         21    1    1    2  503  501 -0.69805662244E+01 -0.36615182064E+02 -0.91809041556E+02  0.99087335083E+02  0.00000000000E+00 0. -1.
          2    1    1    2  501    0 -0.14609105330E+03 -0.16748907600E+03 -0.22630252953E+03  0.31718767521E+03  0.00000000000E+00 0. -1.
<mgrwt>
<rscale>  4 0.28410292E+03</rscale>
<asrwt>0</asrwt>
<pdfrwt beam="1">  1       21 0.17100037E+00 0.28410292E+03</pdfrwt>
<pdfrwt beam="2">  1        2 0.59413285E-01 0.28410292E+03</pdfrwt>
<totfact> 0.20403972E+02</totfact>
</mgrwt>
</event>
<event>
 5    0  0.2947253E-001  0.2505406E+03  0.7546771E-02  0.1112964E+00
          4   -1    0    0  502    0 -0.00000000000E+00  0.00000000000E+00  0.40208474354E+03  0.40208474354E+03  0.00000000000E+00 0. -1.
         21   -1    0    0  503  502  0.00000000000E+00 -0.00000000000E+00 -0.20470927430E+03  0.20470927430E+03  0.00000000000E+00 0. -1.
         25    1    1    2    0    0 -0.10722183714E+03  0.18880956724E+03 -0.58281140827E+02  0.25722998740E+03  0.12500000000E+03 0.  0.
         21    1    1    2  503  501  0.77453132718E+02 -0.77912670789E+02  0.18373926019E+03  0.21407822816E+03  0.00000000000E+00 0. -1.
          4    1    1    2  501    0  0.29768704424E+02 -0.11089689645E+03  0.71917349872E+02  0.13548580228E+03  0.00000000000E+00 0. -1.
<mgrwt>
<rscale>  4 0.25054057E+03</rscale>
<asrwt>0</asrwt>
<pdfrwt beam="1">  1       21 0.31493734E-01 0.25054057E+03</pdfrwt>
<pdfrwt beam="2">  1        4 0.61859191E-01 0.25054057E+03</pdfrwt>
<totfact> 0.10137800E+03</totfact>
</mgrwt>
</event>
<event>
 5    0  0.2947253E-001  0.3729169E+03  0.7546771E-02  0.1053583E+00
         21   -1    0    0  503  502  0.00000000000E+00  0.00000000000E+00  0.99350797085E+03  0.99350797085E+03  0.00000000000E+00 0.  1.
          1   -1    0    0  502    0 -0.00000000000E+00 -0.00000000000E+00 -0.77553340867E+03  0.77553340867E+03  0.00000000000E+00 0.  1.
         25    1    1    2    0    0  0.33473061213E+03 -0.11766241719E+03  0.89558942687E+03  0.97138789813E+03  0.12500000000E+03 0.  0.
         21    1    1    2  503  501 -0.48327445699E+02  0.62014412388E+02 -0.24527174885E+02  0.82358434052E+02  0.00000000000E+00 0.  1.
          1    1    1    2  501    0 -0.28640316643E+03  0.55648004803E+02 -0.65308768980E+03  0.71529504734E+03  0.00000000000E+00 0.  1.
<mgrwt>
<rscale>  4 0.37291692E+03</rscale>
<asrwt>0</asrwt>
<pdfrwt beam="1">  1       21 0.15284738E+00 0.37291692E+03</pdfrwt>
<pdfrwt beam="2">  1        1 0.11931283E+00 0.37291692E+03</pdfrwt>
<totfact> 0.68004582E+01</totfact>
</mgrwt>
</event>
<event>
 5    0  0.2947253E-001  0.2456473E+03  0.7546771E-02  0.1116087E+00
          2   -1    0    0  502    0 -0.00000000000E+00  0.00000000000E+00  0.20052424036E+04  0.20052424036E+04  0.00000000000E+00 0.  1.
         21   -1    0    0  503  502  0.00000000000E+00 -0.00000000000E+00 -0.40330884564E+02  0.40330884564E+02  0.00000000000E+00 0.  1.
         25    1    1    2    0    0  0.34134806018E+02 -0.20869212682E+03  0.42605278655E+03  0.49179626443E+03  0.12500000000E+03 0.  0.
         21    1    1    2  503  501 -0.12852903598E+02  0.16514338430E+02  0.12117030271E+03  0.12296407103E+03  0.00000000000E+00 0. -1.
          2    1    1    2  501    0 -0.21281902419E+02  0.19217778839E+03  0.14176884298E+04  0.14308129527E+04  0.00000000000E+00 0.  1.
<mgrwt>
<rscale>  4 0.24564729E+03</rscale>
<asrwt>0</asrwt>
<pdfrwt beam="1">  1       21 0.62047530E-02 0.24564729E+03</pdfrwt>
<pdfrwt beam="2">  1        2 0.30849875E+00 0.24564729E+03</pdfrwt>
<totfact> 0.17513295E+04</totfact>
</mgrwt>
</event>
<event>
 5    0  0.2947253E-001  0.2730500E+03  0.7546771E-02  0.1099547E+00
          1   -1    0    0  502    0 -0.00000000000E+00  0.00000000000E+00  0.10413162186E+04  0.10413162186E+04  0.00000000000E+00 0. -1.
         21   -1    0    0  503  502  0.00000000000E+00 -0.00000000000E+00 -0.12338712141E+03  0.12338712141E+03  0.00000000000E+00 0.  1.
         25    1    1    2    0    0 -0.24272651286E+03 -0.38917381266E+01  0.74519710159E+02  0.28303620417E+03  0.12500000000E+03 0.  0.
         21    1    1    2  503  501  0.86855896573E+02  0.41041340116E+02  0.28747547813E+03  0.30310144983E+03  0.00000000000E+00 0.  1.
          1    1    1    2  501    0  0.15587061628E+03 -0.37149601989E+02  0.55593390891E+03  0.57856568601E+03  0.00000000000E+00 0. -1.
<mgrwt>
<rscale>  4 0.27305001E+03</rscale>
<asrwt>0</asrwt>
<pdfrwt beam="1">  1       21 0.18982635E-01 0.27305001E+03</pdfrwt>
<pdfrwt beam="2">  1        1 0.16020249E+00 0.27305001E+03</pdfrwt>
<totfact> 0.41451731E+03</totfact>
</mgrwt>
</event>
<event>
 5    0  0.2947253E-001  0.4419989E+03  0.7546771E-02  0.1030135E+00
         21   -1    0    0  503  502  0.00000000000E+00  0.00000000000E+00  0.26303450843E+03  0.26303450843E+03  0.00000000000E+00 0.  1.
          2   -1    0    0  502    0 -0.00000000000E+00 -0.00000000000E+00 -0.38328473991E+04  0.38328473991E+04  0.00000000000E+00 0.  1.
         25    1    1    2    0    0 -0.29482515645E+03  0.30604856057E+03  0.51256281778E+02  0.44591456662E+03  0.12500000000E+03 0.  0.
         21    1    1    2  503  501 -0.55376156026E+01 -0.27640904676E+02 -0.67262533114E+03  0.67321580559E+03  0.00000000000E+00 0. -1.
          2    1    1    2  501    0  0.30036277205E+03 -0.27840765589E+03 -0.29484438413E+04  0.29767515353E+04  0.00000000000E+00 0.  1.
<mgrwt>
<rscale>  4 0.44199893E+03</rscale>
<asrwt>0</asrwt>
<pdfrwt beam="1">  1       21 0.40466851E-01 0.44199893E+03</pdfrwt>
<pdfrwt beam="2">  1        2 0.58966878E+00 0.44199893E+03</pdfrwt>
<totfact> 0.38580786E+01</totfact>
</mgrwt>
</event>
<event>
 5    0  0.3083439E-001  0.3279355E+03  0.7546771E-02  0.1072054E+00
         21   -1    0    0  501  502  0.00000000000E+00  0.00000000000E+00  0.17701777682E+03  0.17701777682E+03  0.00000000000E+00 0. -1.
         -2   -1    0    0    0  501 -0.00000000000E+00 -0.00000000000E+00 -0.10334668509E+04  0.10334668509E+04  0.00000000000E+00 0. -1.
         25    1    1    2    0    0  0.52561738512E+02 -0.29830947930E+03 -0.45149510302E+02  0.33077902000E+03  0.12500000000E+03 0.  0.
         21    1    1    2  501  501 -0.33540947084E+02 -0.69257252308E+01 -0.78001691418E+02  0.85189345962E+02  0.00000000000E+00 0.  1.
         -2    1    1    2    0  502 -0.19020791428E+02  0.30523520453E+03 -0.73329787235E+03  0.79451626174E+03  0.00000000000E+00 0. -1.
<mgrwt>
<rscale>  4 0.32793551E+03</rscale>
<asrwt>0</asrwt>
<pdfrwt beam="1">  1       21 0.27233504E-01 0.32793551E+03</pdfrwt>
<pdfrwt beam="2">  1       -2 0.15899490E+00 0.32793551E+03</pdfrwt>
<totfact> 0.27660549E+02</totfact>
</mgrwt>
</event>
<event>
 5    0  0.2947253E-001  0.2658476E+03  0.7546771E-02  0.1103680E+00
          1   -1    0    0  502    0 -0.00000000000E+00  0.00000000000E+00  0.42786721760E+04  0.42786721760E+04  0.00000000000E+00 0. -1.
         21   -1    0    0  503  502  0.00000000000E+00 -0.00000000000E+00 -0.20933677096E+02  0.20933677096E+02  0.00000000000E+00 0.  1.
         25    1    1    2    0    0 -0.70393505415E+02  0.22381847493E+03  0.10532684561E+04  0.10863007852E+04  0.12500000000E+03 0.  0.
         21    1    1    2  503  501  0.11009010544E+02 -0.17763777612E+02  0.17254376293E+03  0.17380477622E+03  0.00000000000E+00 0.  1.
          1    1    1    2  501    0  0.59384494871E+02 -0.20605469732E+03  0.30319262798E+04  0.30395002916E+04  0.00000000000E+00 0. -1.
<mgrwt>
<rscale>  4 0.26584762E+03</rscale>
<asrwt>0</asrwt>
<pdfrwt beam="1">  1       21 0.32205691E-02 0.26584762E+03</pdfrwt>
<pdfrwt beam="2">  1        1 0.65825656E+00 0.26584762E+03</pdfrwt>
<totfact> 0.45248206E+02</totfact>
</mgrwt>
</event>
<event>
 5    0  0.2947253E-001  0.2312689E+03  0.7546771E-02  0.1125750E+00
          2   -1    0    0  502    0 -0.00000000000E+00  0.00000000000E+00  0.49471935797E+03  0.49471935797E+03  0.00000000000E+00 0. -1.
         21   -1    0    0  503  502  0.00000000000E+00 -0.00000000000E+00 -0.13207729667E+03  0.13207729667E+03  0.00000000000E+00 0. -1.
         25    1    1    2    0    0  0.17300959221E+03 -0.13369314507E+03  0.10599463596E+03  0.27325087170E+03  0.12500000000E+03 0.  0.
         21    1    1    2  503  501 -0.99784688303E+01  0.43751103414E+02  0.12656776810E+02  0.46625345997E+02  0.00000000000E+00 0.  1.
          2    1    1    2  501    0 -0.16303112338E+03  0.89942041653E+02  0.24399064852E+03  0.30692043694E+03  0.00000000000E+00 0. -1.
<mgrwt>
<rscale>  4 0.23126890E+03</rscale>
<asrwt>0</asrwt>
<pdfrwt beam="1">  1       21 0.20319584E-01 0.23126890E+03</pdfrwt>
<pdfrwt beam="2">  1        2 0.76110670E-01 0.23126890E+03</pdfrwt>
<totfact> 0.17559022E+04</totfact>
</mgrwt>
</event>
<event>
 5    0  0.2947253E-001  0.2370340E+03  0.7546771E-02  0.1121785E+00
          2   -1    0    0  502    0 -0.00000000000E+00  0.00000000000E+00  0.31367962133E+03  0.31367962133E+03  0.00000000000E+00 0.  1.
         21   -1    0    0  503  502  0.00000000000E+00 -0.00000000000E+00 -0.18104937984E+03  0.18104937984E+03  0.00000000000E+00 0. -1.
         25    1    1    2    0    0  0.14797754622E+02  0.20085100090E+03 -0.21875023938E+02  0.23804120394E+03  0.12500000000E+03 0.  0.
         21    1    1    2  503  501 -0.20344670832E+02 -0.49694003749E+02  0.42209402144E+02  0.68301048814E+02  0.00000000000E+00 0.  1.
          2    1    1    2  501    0  0.55469162102E+01 -0.15115699715E+03  0.11229586328E+03  0.18838674841E+03  0.00000000000E+00 0.  1.
<mgrwt>
<rscale>  4 0.23703396E+03</rscale>
<asrwt>0</asrwt>
<pdfrwt beam="1">  1       21 0.27853751E-01 0.23703396E+03</pdfrwt>
<pdfrwt beam="2">  1        2 0.48258403E-01 0.23703396E+03</pdfrwt>
<totfact> 0.15797967E+04</totfact>
</mgrwt>
</event>
<event>
 5    0  0.2947253E-001  0.2314220E+03  0.7546771E-02  0.1125643E+00
         21   -1    0    0  503  502  0.00000000000E+00  0.00000000000E+00  0.55620566462E+02  0.55620566462E+02  0.00000000000E+00 0. -1.
          2   -1    0    0  502    0 -0.00000000000E+00 -0.00000000000E+00 -0.13313426398E+04  0.13313426398E+04  0.00000000000E+00 0. -1.
         25    1    1    2    0    0  0.54937323411E+02 -0.22161627474E+03 -0.41838525346E+03  0.49275054850E+03  0.12500000000E+03 0.  0.
         21    1    1    2  503  501 -0.33205878178E+02  0.16073578047E+03 -0.40052478001E+03  0.43284953606E+03  0.00000000000E+00 0. -1.
          2    1    1    2  501    0 -0.21731445232E+02  0.60880494271E+02 -0.45681203983E+03  0.46136312166E+03  0.00000000000E+00 0. -1.
<mgrwt>
<rscale>  4 0.23142204E+03</rscale>
<asrwt>0</asrwt>
<pdfrwt beam="1">  1       21 0.85570106E-02 0.23142204E+03</pdfrwt>
<pdfrwt beam="2">  1        2 0.20482194E+00 0.23142204E+03</pdfrwt>
<totfact> 0.22841442E+04</totfact>
</mgrwt>
</event>
<event>
 5    0  0.2947253E-001  0.2426649E+03  0.7546771E-02  0.1118030E+00
          1   -1    0    0  502    0 -0.00000000000E+00  0.00000000000E+00  0.54736520964E+03  0.54736520964E+03  0.00000000000E+00 0.  1.
         21   -1    0    0  503  502  0.00000000000E+00 -0.00000000000E+00 -0.11120185610E+03  0.11120185610E+03  0.00000000000E+00 0.  1.
         25    1    1    2    0    0 -0.20791050301E+03 -0.58731918230E+01  0.10879571397E+03  0.26593754722E+03  0.12500000000E+03 0.  0.
         21    1    1    2  503  501  0.28645952741E+02 -0.78225140326E+01  0.17742205301E+02  0.34591446676E+02  0.00000000000E+00 0.  1.
          1    1    1    2  501    0  0.17926455027E+03  0.13695705856E+02  0.30962543426E+03  0.35803807184E+03  0.00000000000E+00 0.  1.
<mgrwt>
<rscale>  4 0.24266494E+03</rscale>
<asrwt>0</asrwt>
<pdfrwt beam="1">  1       21 0.17107978E-01 0.24266494E+03</pdfrwt>
<pdfrwt beam="2">  1        1 0.84210031E-01 0.24266494E+03</pdfrwt>
<totfact> 0.13508557E+04</totfact>
</mgrwt>
</event>
<event>
 5    0  0.2947253E-001  0.4569816E+03  0.7546771E-02  0.1026303E+00
          1   -1    0    0  502    0 -0.00000000000E+00  0.00000000000E+00  0.35846786579E+03  0.35846786579E+03  0.00000000000E+00 0.  1.
         21   -1    0    0  503  502  0.00000000000E+00 -0.00000000000E+00 -0.67808528587E+03  0.67808528587E+03  0.00000000000E+00 0.  1.
         25    1    1    2    0    0  0.29212986603E+03  0.31620372284E+03 -0.36396401812E+03  0.57742485178E+03  0.12500000000E+03 0.  0.
         21    1    1    2  503  501 -0.82678144945E+02 -0.19256535028E+03 -0.10399974328E+02  0.20982194653E+03  0.00000000000E+00 0.  1.
          1    1    1    2  501    0 -0.20945172109E+03 -0.12363837255E+03  0.54746572369E+02  0.24930635335E+03  0.00000000000E+00 0.  1.
<mgrwt>
<rscale>  4 0.45478898E+03</rscale>
<asrwt>0</asrwt>
<pdfrwt beam="1">  1       21 0.10432081E+00 0.45698159E+03</pdfrwt>
<pdfrwt beam="2">  1        1 0.55148903E-01 0.45698159E+03</pdfrwt>
<totfact> 0.51349626E+02</totfact>
</mgrwt>
</event>
<event>
 5    0  0.2947253E-001  0.3764493E+03  0.7546771E-02  0.1052254E+00
          1   -1    0    0  502    0 -0.00000000000E+00  0.00000000000E+00  0.20844091132E+04  0.20844091132E+04  0.00000000000E+00 0. -1.
         21   -1    0    0  503  502  0.00000000000E+00 -0.00000000000E+00 -0.77994008987E+02  0.77994008987E+02  0.00000000000E+00 0.  1.
         25    1    1    2    0    0 -0.29625910367E+03 -0.19575402694E+03  0.58772020183E+03  0.69794636700E+03  0.12500000000E+03 0.  0.
         21    1    1    2  503  501  0.14672996400E+02  0.13844206257E+02  0.32097907803E+02  0.37910876481E+02  0.00000000000E+00 0.  1.
          1    1    1    2  501    0  0.28158610727E+03  0.18190982069E+03  0.13865969946E+04  0.14265458787E+04  0.00000000000E+00 0. -1.
<mgrwt>
<rscale>  4 0.37644933E+03</rscale>
<asrwt>0</asrwt>
<pdfrwt beam="1">  1       21 0.11999080E-01 0.37644933E+03</pdfrwt>
<pdfrwt beam="2">  1        1 0.32067828E+00 0.37644933E+03</pdfrwt>
<totfact> 0.18526083E+03</totfact>
</mgrwt>
</event>
<event>
 5    0  0.2947253E-001  0.2622148E+03  0.7546771E-02  0.1105820E+00
         21   -1    0    0  503  502  0.00000000000E+00  0.00000000000E+00  0.45349143317E+02  0.45349143317E+02  0.00000000000E+00 0.  1.
          2   -1    0    0  502    0 -0.00000000000E+00 -0.00000000000E+00 -0.14580878717E+04  0.14580878717E+04  0.00000000000E+00 0.  1.
         25    1    1    2    0    0 -0.19346274110E+03  0.12531477478E+03 -0.92941054555E+03  0.96569176612E+03  0.12500000000E+03 0.  0.
         21    1    1    2  503  501  0.78258478186E+02 -0.78444074514E+02 -0.24594944188E+03  0.26975728015E+03  0.00000000000E+00 0.  1.
          2    1    1    2  501    0  0.11520426291E+03 -0.46870700268E+02 -0.23737874097E+03  0.26798796876E+03  0.00000000000E+00 0.  1.
<mgrwt>
<rscale>  4 0.26221485E+03</rscale>
<asrwt>0</asrwt>
<pdfrwt beam="1">  1       21 0.69767909E-02 0.26221485E+03</pdfrwt>
<pdfrwt beam="2">  1        2 0.22432122E+00 0.26221485E+03</pdfrwt>
<totfact> 0.27666735E+04</totfact>
</mgrwt>
</event>
<event>
 5    0  0.2947253E-001  0.2006189E+03  0.7546771E-02  0.1149218E+00
          2   -1    0    0  502    0 -0.00000000000E+00  0.00000000000E+00  0.23965672692E+04  0.23965672692E+04  0.00000000000E+00 0. -1.
         21   -1    0    0  503  502  0.00000000000E+00 -0.00000000000E+00 -0.31909888558E+02  0.31909888558E+02  0.00000000000E+00 0. -1.
         25    1    1    2    0    0 -0.13207361168E+02 -0.21027726906E+03  0.66322668880E+03  0.70702588708E+03  0.12500000000E+03 0.  0.
         21    1    1    2  503  501  0.61298903073E+02  0.10692015417E+03  0.51435905028E+03  0.52891843179E+03  0.00000000000E+00 0. -1.
          2    1    1    2  501    0 -0.48091541906E+02  0.10335711490E+03  0.11870716416E+04  0.11925328389E+04  0.00000000000E+00 0. -1.
<mgrwt>
<rscale>  4 0.20061886E+03</rscale>
<asrwt>0</asrwt>
<pdfrwt beam="1">  1       21 0.49092155E-02 0.20061886E+03</pdfrwt>
<pdfrwt beam="2">  1        2 0.36870252E+00 0.20061886E+03</pdfrwt>
<totfact> 0.16487359E+04</totfact>
</mgrwt>
</event>
<event>
 5    0  0.5551147E-001  0.3609356E+03  0.7546771E-02  0.1058214E+00
          2   -1    0    0  502    0 -0.00000000000E+00  0.00000000000E+00  0.80069434206E+03  0.80069434206E+03  0.00000000000E+00 0.  1.
         21   -1    0    0  503  502  0.00000000000E+00 -0.00000000000E+00 -0.42716902244E+03  0.42716902244E+03  0.00000000000E+00 0.  1.
         25    1    1    2    0    0 -0.24975118015E+03  0.22863474713E+03 -0.30016319578E+03  0.46943843439E+03  0.12500000000E+03 0.  0.
         21    1    1    2  503  501  0.66194354287E+01 -0.20515817833E+02  0.15498884604E+02  0.26550539179E+02  0.00000000000E+00 0. -1.
          2    1    1    2  501    0  0.24313174472E+03 -0.20811892929E+03  0.65818963080E+03  0.73187439094E+03  0.00000000000E+00 0.  1.
<mgrwt>
<rscale>  4 0.36093559E+03</rscale>
<asrwt>0</asrwt>
<pdfrwt beam="1">  1       21 0.65718311E-01 0.36093559E+03</pdfrwt>
<pdfrwt beam="2">  1        2 0.12318374E+00 0.36093559E+03</pdfrwt>
<totfact> 0.88757777E+02</totfact>
</mgrwt>
</event>
<event>
 5    0  0.3008898E-001  0.3072527E+03  0.7546771E-02  0.1081670E+00
         21   -1    0    0  503  502  0.00000000000E+00  0.00000000000E+00  0.25615460370E+03  0.25615460370E+03  0.00000000000E+00 0. -1.
          2   -1    0    0  502    0 -0.00000000000E+00 -0.00000000000E+00 -0.41638222097E+03  0.41638222097E+03  0.00000000000E+00 0. -1.
         25    1    1    2    0    0 -0.26527256213E+03  0.10476254171E+03 -0.19309603865E+03  0.36640933736E+03  0.12500000000E+03 0.  0.
         21    1    1    2  503  501  0.22198232565E+02  0.20363119886E+02 -0.35162574140E+01  0.30327912007E+02  0.00000000000E+00 0. -1.
          2    1    1    2  501    0  0.24307432956E+03 -0.12512566160E+03  0.36384678799E+02  0.27579957529E+03  0.00000000000E+00 0. -1.
<mgrwt>
<rscale>  4 0.30725271E+03</rscale>
<asrwt>0</asrwt>
<pdfrwt beam="1">  1       21 0.39408401E-01 0.30725271E+03</pdfrwt>
<pdfrwt beam="2">  1        2 0.64058803E-01 0.30725271E+03</pdfrwt>
<totfact> 0.57483191E+03</totfact>
</mgrwt>
</event>
<event>
 5    0  0.2947253E-001  0.2935744E+03  0.7546771E-02  0.1088498E+00
         21   -1    0    0  503  502  0.00000000000E+00  0.00000000000E+00  0.12187658517E+03  0.12187658517E+03  0.00000000000E+00 0.  1.
          2   -1    0    0  502    0 -0.00000000000E+00 -0.00000000000E+00 -0.29026771796E+04  0.29026771796E+04  0.00000000000E+00 0.  1.
         25    1    1    2    0    0  0.26094262827E+03 -0.54852324517E+02 -0.84386564947E+02  0.30634282283E+03  0.12500000000E+03 0.  0.
         21    1    1    2  503  501 -0.27032941748E+02 -0.59538951353E+02 -0.26731869642E+03  0.27519984034E+03  0.00000000000E+00 0.  1.
          2    1    1    2  501    0 -0.23390968652E+03  0.11439127587E+03 -0.24290953331E+04  0.24430111016E+04  0.00000000000E+00 0.  1.
<mgrwt>
<rscale>  4 0.29357436E+03</rscale>
<asrwt>0</asrwt>
<pdfrwt beam="1">  1       21 0.18750245E-01 0.29357436E+03</pdfrwt>
<pdfrwt beam="2">  1        2 0.44656570E+00 0.29357436E+03</pdfrwt>
<totfact> 0.76155257E+02</totfact>
</mgrwt>
</event>
<event>
 5    0  0.2947253E-001  0.3425749E+03  0.7546771E-02  0.1065705E+00
          2   -1    0    0  502    0 -0.00000000000E+00  0.00000000000E+00  0.21496261492E+04  0.21496261492E+04  0.00000000000E+00 0.  1.
         21   -1    0    0  503  502  0.00000000000E+00 -0.00000000000E+00 -0.57880542902E+02  0.57880542902E+02  0.00000000000E+00 0. -1.
         25    1    1    2    0    0  0.31608637808E+03 -0.42684310827E+02  0.13275561849E+04  0.13710444825E+04  0.12500000000E+03 0.  0.
         21    1    1    2  503  501 -0.27601928642E+02  0.42639811072E+02  0.13680355584E+03  0.14592886227E+03  0.00000000000E+00 0.  1.
          2    1    1    2  501    0 -0.28848444943E+03  0.44499755182E-01  0.62738586557E+03  0.69053334739E+03  0.00000000000E+00 0.  1.
<mgrwt>
<rscale>  4 0.34257488E+03</rscale>
<asrwt>0</asrwt>
<pdfrwt beam="1">  1       21 0.89047006E-02 0.34257488E+03</pdfrwt>
<pdfrwt beam="2">  1        2 0.33071165E+00 0.34257488E+03</pdfrwt>
<totfact> 0.75910660E+03</totfact>
</mgrwt>
</event>
<event>
 5    0  0.2947253E-001  0.3542321E+03  0.7546771E-02  0.1060891E+00
         21   -1    0    0  503  502  0.00000000000E+00  0.00000000000E+00  0.17469081069E+03  0.17469081069E+03  0.00000000000E+00 0. -1.
          2   -1    0    0  502    0 -0.00000000000E+00 -0.00000000000E+00 -0.10641452023E+04  0.10641452023E+04  0.00000000000E+00 0. -1.
         25    1    1    2    0    0 -0.22215116569E+03 -0.24597608648E+03 -0.84673351463E+02  0.36421141111E+03  0.12500000000E+03 0.  0.
         21    1    1    2  503  501  0.11541067520E+03  0.18782434783E+03 -0.49619729616E+03  0.54296350365E+03  0.00000000000E+00 0. -1.
          2    1    1    2  501    0  0.10674049049E+03  0.58151738649E+02 -0.30858374402E+03  0.33166109824E+03  0.00000000000E+00 0. -1.
<mgrwt>
<rscale>  4 0.35423209E+03</rscale>
<asrwt>0</asrwt>
<pdfrwt beam="1">  1       21 0.26875510E-01 0.35423209E+03</pdfrwt>
<pdfrwt beam="2">  1        2 0.16371464E+00 0.35423209E+03</pdfrwt>
<totfact> 0.38247450E+03</totfact>
</mgrwt>
</event>
<event>
 5    0  0.2947253E-001  0.2434921E+03  0.7546771E-02  0.1117488E+00
          1   -1    0    0  502    0 -0.00000000000E+00  0.00000000000E+00  0.53929756846E+03  0.53929756846E+03  0.00000000000E+00 0. -1.
         21   -1    0    0  503  502  0.00000000000E+00 -0.00000000000E+00 -0.16775608176E+04  0.16775608176E+04  0.00000000000E+00 0. -1.
         25    1    1    2    0    0 -0.20872711591E+03 -0.19724343768E+02 -0.16082190368E+04  0.16266374916E+04  0.12500000000E+03 0.  0.
         21    1    1    2  503  501  0.44449210792E+02 -0.58296328241E+02 -0.12734396220E+02  0.74406713901E+02  0.00000000000E+00 0. -1.
          1    1    1    2  501    0  0.16427790512E+03  0.78020672009E+02  0.48269018384E+03  0.51581418063E+03  0.00000000000E+00 0. -1.
<mgrwt>
<rscale>  4 0.24349209E+03</rscale>
<asrwt>0</asrwt>
<pdfrwt beam="1">  1       21 0.25808628E+00 0.24349209E+03</pdfrwt>
<pdfrwt beam="2">  1        1 0.82968858E-01 0.24349209E+03</pdfrwt>
<totfact> 0.25408163E+01</totfact>
</mgrwt>
</event>
<event>
 5    0  0.2947253E-001  0.2240336E+03  0.7546771E-02  0.1130911E+00
         21   -1    0    0  503  502  0.00000000000E+00  0.00000000000E+00  0.27846965592E+03  0.27846965592E+03  0.00000000000E+00 0.  1.
          1   -1    0    0  502    0 -0.00000000000E+00 -0.00000000000E+00 -0.49220125115E+03  0.49220125115E+03  0.00000000000E+00 0.  1.
         25    1    1    2    0    0  0.22576676910E+03  0.40910046617E+02  0.11808434469E+03  0.28672840529E+03  0.12500000000E+03 0.  0.
         21    1    1    2  503  501 -0.77757889129E+02  0.67069162444E+02  0.24992532418E+01  0.10271712681E+03  0.00000000000E+00 0.  1.
          1    1    1    2  501    0 -0.14800887997E+03 -0.10797920906E+03 -0.33431519316E+03  0.38122537497E+03  0.00000000000E+00 0.  1.
<mgrwt>
<rscale>  4 0.22403357E+03</rscale>
<asrwt>0</asrwt>
<pdfrwt beam="1">  1       21 0.42841486E-01 0.22403357E+03</pdfrwt>
<pdfrwt beam="2">  1        1 0.75723268E-01 0.22403357E+03</pdfrwt>
<totfact> 0.26380069E+03</totfact>
</mgrwt>
</event>
<event>
 5    0  0.2947253E-001  0.4355781E+03  0.7546771E-02  0.1032112E+00
          1   -1    0    0  502    0 -0.00000000000E+00  0.00000000000E+00  0.18414663782E+03  0.18414663782E+03  0.00000000000E+00 0.  1.
         21   -1    0    0  503  502  0.00000000000E+00 -0.00000000000E+00 -0.17382875347E+04  0.17382875347E+04  0.00000000000E+00 0.  1.
         25    1    1    2    0    0  0.24990652018E+03 -0.33414072158E+03 -0.13989986398E+04  0.14652390538E+04  0.12500000000E+03 0.  0.
         21    1    1    2  503  501 -0.83355793181E+02  0.62965578042E+02 -0.76227078975E+02  0.12931906218E+03  0.00000000000E+00 0. -1.
          1    1    1    2  501    0 -0.16655072699E+03  0.27117514354E+03 -0.78915178151E+02  0.32787605658E+03  0.00000000000E+00 0.  1.
<mgrwt>
<rscale>  4 0.43557811E+03</rscale>
<asrwt>0</asrwt>
<pdfrwt beam="1">  1       21 0.26742885E+00 0.43557811E+03</pdfrwt>
<pdfrwt beam="2">  1        1 0.28330252E-01 0.43557811E+03</pdfrwt>
<totfact> 0.78523426E+01</totfact>
</mgrwt>
</event>
<event>
 5    0  0.2947253E-001  0.2863387E+03  0.7546771E-02  0.1092276E+00
          2   -1    0    0  502    0 -0.00000000000E+00  0.00000000000E+00  0.18729658749E+03  0.18729658749E+03  0.00000000000E+00 0. -1.
         21   -1    0    0  503  502  0.00000000000E+00 -0.00000000000E+00 -0.47359788360E+03  0.47359788360E+03  0.00000000000E+00 0. -1.
         25    1    1    2    0    0 -0.18323426468E+03  0.17357525032E+03 -0.97980232296E+02  0.29820846601E+03  0.12500000000E+03 0.  0.
         21    1    1    2  503  501 -0.33741252748E+02 -0.21672381840E+02 -0.49312858663E+02  0.63560383110E+02  0.00000000000E+00 0. -1.
          2    1    1    2  501    0  0.21697551743E+03 -0.15190286848E+03 -0.13900820515E+03  0.29912562196E+03  0.00000000000E+00 0. -1.
<mgrwt>
<rscale>  4 0.28633871E+03</rscale>
<asrwt>0</asrwt>
<pdfrwt beam="1">  1       21 0.72861211E-01 0.28633871E+03</pdfrwt>
<pdfrwt beam="2">  1        2 0.28814860E-01 0.28633871E+03</pdfrwt>
<totfact> 0.37250153E+03</totfact>
</mgrwt>
</event>
<event>
 5    0  0.2947253E-001  0.2641129E+03  0.7546771E-02  0.1104697E+00
          2   -1    0    0  502    0 -0.00000000000E+00  0.00000000000E+00  0.64686779936E+03  0.64686779936E+03  0.00000000000E+00 0.  1.
         21   -1    0    0  503  502  0.00000000000E+00 -0.00000000000E+00 -0.10718999949E+03  0.10718999949E+03  0.00000000000E+00 0.  1.
         25    1    1    2    0    0  0.16188496323E+03 -0.17898539420E+03  0.28204538109E+03  0.39168496224E+03  0.12500000000E+03 0.  0.
         21    1    1    2  503  501 -0.28366421032E+02 -0.33535023535E+01  0.23834878101E+02  0.37202167064E+02  0.00000000000E+00 0. -1.
          2    1    1    2  501    0 -0.13351854220E+03  0.18233889655E+03  0.23379754068E+03  0.32517066954E+03  0.00000000000E+00 0.  1.
<mgrwt>
<rscale>  4 0.26411290E+03</rscale>
<asrwt>0</asrwt>
<pdfrwt beam="1">  1       21 0.16490770E-01 0.26411290E+03</pdfrwt>
<pdfrwt beam="2">  1        2 0.99518120E-01 0.26411290E+03</pdfrwt>
<totfact> 0.18934061E+04</totfact>
</mgrwt>
</event>
<event>
 5    0  0.2947253E-001  0.2448323E+03  0.7546771E-02  0.1116615E+00
         21   -1    0    0  503  502  0.00000000000E+00  0.00000000000E+00  0.13348105345E+03  0.13348105345E+03  0.00000000000E+00 0. -1.
          2   -1    0    0  502    0 -0.00000000000E+00 -0.00000000000E+00 -0.31499957405E+04  0.31499957405E+04  0.00000000000E+00 0.  1.
         25    1    1    2    0    0 -0.52578781803E+02 -0.20793320968E+03  0.82542867258E+01  0.24838253005E+03  0.12500000000E+03 0.  0.
         21    1    1    2  503  501  0.53743584336E+02  0.72441928423E+02 -0.62182225328E+03  0.62833042305E+03  0.00000000000E+00 0. -1.
          2    1    1    2  501    0 -0.11648025330E+01  0.13549128126E+03 -0.24029467205E+04  0.24067638408E+04  0.00000000000E+00 0.  1.
<mgrwt>
<rscale>  4 0.24483230E+03</rscale>
<asrwt>0</asrwt>
<pdfrwt beam="1">  1       21 0.20535547E-01 0.24483230E+03</pdfrwt>
<pdfrwt beam="2">  1        2 0.48461472E+00 0.24483230E+03</pdfrwt>
<totfact> 0.47121644E+02</totfact>
</mgrwt>
</event>
<event>
 5    0  0.2947253E-001  0.4169046E+03  0.7546771E-02  0.1038078E+00
         21   -1    0    0  503  502  0.00000000000E+00  0.00000000000E+00  0.33996534428E+03  0.33996534428E+03  0.00000000000E+00 0. -1.
          2   -1    0    0  502    0 -0.00000000000E+00 -0.00000000000E+00 -0.19719620611E+04  0.19719620611E+04  0.00000000000E+00 0.  1.
         25    1    1    2    0    0 -0.26318227293E+03  0.29819379483E+03  0.17953276329E+03  0.45391790134E+03  0.12500000000E+03 0.  0.
         21    1    1    2  503  501  0.34972536474E+02 -0.11387038596E+03 -0.56631805369E+03  0.57871036024E+03  0.00000000000E+00 0. -1.
          2    1    1    2  501    0  0.22820973646E+03 -0.18432340887E+03 -0.12452114264E+04  0.12792991438E+04  0.00000000000E+00 0.  1.
<mgrwt>
<rscale>  4 0.41690460E+03</rscale>
<asrwt>0</asrwt>
<pdfrwt beam="1">  1       21 0.52302360E-01 0.41690460E+03</pdfrwt>
<pdfrwt beam="2">  1        2 0.30337878E+00 0.41690460E+03</pdfrwt>
<totfact> 0.30483301E+02</totfact>
</mgrwt>
</event>
<event>
 5    0  0.2947253E-001  0.2132455E+03  0.7546771E-02  0.1139021E+00
          1   -1    0    0  502    0 -0.00000000000E+00  0.00000000000E+00  0.24966155043E+04  0.24966155043E+04  0.00000000000E+00 0.  1.
         21   -1    0    0  503  502  0.00000000000E+00 -0.00000000000E+00 -0.25537610072E+02  0.25537610072E+02  0.00000000000E+00 0.  1.
         25    1    1    2    0    0 -0.96302731680E+02  0.18556672226E+03  0.12491041002E+04  0.12726332063E+04  0.12500000000E+03 0.  0.
         21    1    1    2  503  501 -0.25213510950E+01 -0.60771952219E+02  0.72786486631E+03  0.73040184214E+03  0.00000000000E+00 0.  1.
          1    1    1    2  501    0  0.98824082775E+02 -0.12479477005E+03  0.49410892762E+03  0.51911806588E+03  0.00000000000E+00 0.  1.
<mgrwt>
<rscale>  4 0.21324553E+03</rscale>
<asrwt>0</asrwt>
<pdfrwt beam="1">  1       21 0.39288651E-02 0.21324553E+03</pdfrwt>
<pdfrwt beam="2">  1        1 0.38409450E+00 0.21324553E+03</pdfrwt>
<totfact> 0.73568135E+03</totfact>
</mgrwt>
</event>
<event>
 5    0  0.2947253E-001  0.2877831E+03  0.7546771E-02  0.1091512E+00
          2   -1    0    0  502    0 -0.00000000000E+00  0.00000000000E+00  0.17098038324E+04  0.17098038324E+04  0.00000000000E+00 0. -1.
         21   -1    0    0  503  502  0.00000000000E+00 -0.00000000000E+00 -0.82822000115E+02  0.82822000115E+02  0.00000000000E+00 0.  1.
         25    1    1    2    0    0  0.27259157490E+03  0.26948387532E+02  0.38486094255E+03  0.48864642370E+03  0.12500000000E+03 0.  0.
         21    1    1    2  503  501 -0.28865223630E+02 -0.34830240128E+02  0.78135942318E+03  0.78266780625E+03  0.00000000000E+00 0. -1.
          2    1    1    2  501    0 -0.24372635127E+03  0.78818525952E+01  0.46076146660E+03  0.52131160260E+03  0.00000000000E+00 0. -1.
<mgrwt>
<rscale>  4 0.28778308E+03</rscale>
<asrwt>0</asrwt>
<pdfrwt beam="1">  1       21 0.12741847E-01 0.28778308E+03</pdfrwt>
<pdfrwt beam="2">  1        2 0.26304672E+00 0.28778308E+03</pdfrwt>
<totfact> 0.69341460E+03</totfact>
</mgrwt>
</event>
<event>
 5    0  0.2947253E-001  0.3216619E+03  0.7546771E-02  0.1074887E+00
         21   -1    0    0  501  502  0.00000000000E+00  0.00000000000E+00  0.67985449890E+03  0.67985449890E+03  0.00000000000E+00 0. -1.
         -4   -1    0    0    0  501 -0.00000000000E+00 -0.00000000000E+00 -0.56894007805E+03  0.56894007805E+03  0.00000000000E+00 0. -1.
         25    1    1    2    0    0  0.25052644714E+03 -0.15836005240E+03  0.59702696956E+03  0.67816488356E+03  0.12500000000E+03 0.  0.
         21    1    1    2  501  501 -0.25561782153E+02  0.16248657037E+02 -0.75362968995E+02  0.81221922275E+02  0.00000000000E+00 0. -1.
         -4    1    1    2    0  502 -0.22496466499E+03  0.14211139536E+03 -0.41074957971E+03  0.48940777111E+03  0.00000000000E+00 0. -1.
<mgrwt>
<rscale>  4 0.32166195E+03</rscale>
<asrwt>0</asrwt>
<pdfrwt beam="1">  1       21 0.10459300E+00 0.32166195E+03</pdfrwt>
<pdfrwt beam="2">  1       -4 0.87529243E-01 0.32166195E+03</pdfrwt>
<totfact> 0.34511643E+01</totfact>
</mgrwt>
</event>
<event>
 5    0  0.3077989E-001  0.3939164E+03  0.7546771E-02  0.1045907E+00
          2   -1    0    0  502    0 -0.00000000000E+00  0.00000000000E+00  0.14560237253E+04  0.14560237253E+04  0.00000000000E+00 0.  1.
         21   -1    0    0  503  502  0.00000000000E+00 -0.00000000000E+00 -0.20212792063E+03  0.20212792063E+03  0.00000000000E+00 0.  1.
         25    1    1    2    0    0 -0.13881904590E+03  0.34680600161E+03  0.54684250940E+02  0.39769397476E+03  0.12500000000E+03 0.  0.
         21    1    1    2  503  501  0.28764244658E+02 -0.14580954547E+02  0.53337548586E+02  0.62328806305E+02  0.00000000000E+00 0. -1.
          2    1    1    2  501    0  0.11005480124E+03 -0.33222504707E+03  0.11458740051E+04  0.11981288649E+04  0.00000000000E+00 0.  1.
<mgrwt>
<rscale>  4 0.39391640E+03</rscale>
<asrwt>0</asrwt>
<pdfrwt beam="1">  1       21 0.31096604E-01 0.39391640E+03</pdfrwt>
<pdfrwt beam="2">  1        2 0.22400364E+00 0.39391640E+03</pdfrwt>
<totfact> 0.16968525E+03</totfact>
</mgrwt>
</event>
<event>
 5    0  0.2947253E-001  0.3178163E+03  0.7546771E-02  0.1076659E+00
          1   -1    0    0  502    0 -0.00000000000E+00  0.00000000000E+00  0.21002482779E+04  0.21002482779E+04  0.00000000000E+00 0. -1.
         21   -1    0    0  503  502  0.00000000000E+00 -0.00000000000E+00 -0.74162533892E+02  0.74162533892E+02  0.00000000000E+00 0. -1.
         25    1    1    2    0    0  0.13882644185E+03 -0.26617484217E+03  0.39943889537E+03  0.51507112003E+03  0.12500000000E+03 0.  0.
         21    1    1    2  503  501  0.14809927680E+02  0.19587139646E+02  0.45321872515E+02  0.51546698494E+02  0.00000000000E+00 0. -1.
          1    1    1    2  501    0 -0.15363636953E+03  0.24658770252E+03  0.15813249761E+04  0.16077929932E+04  0.00000000000E+00 0. -1.
<mgrwt>
<rscale>  4 0.31781631E+03</rscale>
<asrwt>0</asrwt>
<pdfrwt beam="1">  1       21 0.11409622E-01 0.31781631E+03</pdfrwt>
<pdfrwt beam="2">  1        1 0.32311507E+00 0.31781631E+03</pdfrwt>
<totfact> 0.20197716E+03</totfact>
</mgrwt>
</event>
<event>
 5    0  0.2947253E-001  0.2993611E+03  0.7546771E-02  0.1085560E+00
         21   -1    0    0  503  502  0.00000000000E+00  0.00000000000E+00  0.23267841415E+03  0.23267841415E+03  0.00000000000E+00 0.  1.
          1   -1    0    0  502    0 -0.00000000000E+00 -0.00000000000E+00 -0.39772192250E+03  0.39772192250E+03  0.00000000000E+00 0. -1.
         25    1    1    2    0    0  0.20667910558E+03 -0.17655268595E+03 -0.27063706870E+02  0.30040730323E+03  0.12500000000E+03 0.  0.
         21    1    1    2  503  501  0.14840065268E+02  0.17843557546E+02  0.26167859414E+01  0.23355248912E+02  0.00000000000E+00 0. -1.
          1    1    1    2  501    0 -0.22151917085E+03  0.15870912841E+03 -0.14059658743E+03  0.30663778451E+03  0.00000000000E+00 0. -1.
<mgrwt>
<rscale>  4 0.29936106E+03</rscale>
<asrwt>0</asrwt>
<pdfrwt beam="1">  1       21 0.35796679E-01 0.29936106E+03</pdfrwt>
<pdfrwt beam="2">  1        1 0.61187988E-01 0.29936106E+03</pdfrwt>
<totfact> 0.49138425E+03</totfact>
</mgrwt>
</event>
<event>
 5    0  0.2947253E-001  0.2603187E+03  0.7546771E-02  0.1106952E+00
          2   -1    0    0  502    0 -0.00000000000E+00  0.00000000000E+00  0.13018469861E+04  0.13018469861E+04  0.00000000000E+00 0.  1.
         21   -1    0    0  503  502  0.00000000000E+00 -0.00000000000E+00 -0.49921740249E+02  0.49921740249E+02  0.00000000000E+00 0.  1.
         25    1    1    2    0    0 -0.12283991065E+03 -0.19248686344E+03  0.48925695989E+03  0.55420051339E+03  0.12500000000E+03 0.  0.
         21    1    1    2  503  501  0.19990944624E+02  0.68035278621E+02  0.26779700411E+03  0.27702648324E+03  0.00000000000E+00 0.  1.
          2    1    1    2  501    0  0.10284896603E+03  0.12445158482E+03  0.49487128186E+03  0.52054172973E+03  0.00000000000E+00 0.  1.
<mgrwt>
<rscale>  4 0.26031872E+03</rscale>
<asrwt>0</asrwt>
<pdfrwt beam="1">  1       21 0.76802687E-02 0.26031872E+03</pdfrwt>
<pdfrwt beam="2">  1        2 0.20028413E+00 0.26031872E+03</pdfrwt>
<totfact> 0.28487513E+04</totfact>
</mgrwt>
</event>
<event>
 5    0  0.2947253E-001  0.3612193E+03  0.7546771E-02  0.1058102E+00
          2   -1    0    0  502    0 -0.00000000000E+00  0.00000000000E+00  0.10295079411E+04  0.10295079411E+04  0.00000000000E+00 0.  1.
         21   -1    0    0  503  502  0.00000000000E+00 -0.00000000000E+00 -0.12208866797E+03  0.12208866797E+03  0.00000000000E+00 0.  1.
         25    1    1    2    0    0 -0.11366634878E+03 -0.31927158146E+03  0.49914490700E+03  0.61613717609E+03  0.12500000000E+03 0.  0.
         21    1    1    2  503  501  0.38907323166E+02  0.59882564562E+02  0.51395027227E+02  0.87983806227E+02  0.00000000000E+00 0.  1.
          2    1    1    2  501    0  0.74759025611E+02  0.25938901690E+03  0.35687933890E+03  0.44747562674E+03  0.00000000000E+00 0.  1.
<mgrwt>
<rscale>  4 0.36121930E+03</rscale>
<asrwt>0</asrwt>
<pdfrwt beam="1">  1       21 0.18782873E-01 0.36121930E+03</pdfrwt>
<pdfrwt beam="2">  1        2 0.15838583E+00 0.36121930E+03</pdfrwt>
<totfact> 0.79648362E+03</totfact>
</mgrwt>
</event>
<event>
 5    0  0.2947253E-001  0.3790606E+03  0.7546771E-02  0.1051282E+00
         21   -1    0    0  503  502  0.00000000000E+00  0.00000000000E+00  0.42546698685E+02  0.42546698685E+02  0.00000000000E+00 0.  1.
          2   -1    0    0  502    0 -0.00000000000E+00 -0.00000000000E+00 -0.39250038314E+04  0.39250038314E+04  0.00000000000E+00 0.  1.
         25    1    1    2    0    0  0.29439960803E+03 -0.20344726368E+03 -0.11634398449E+04  0.12236336016E+04  0.12500000000E+03 0.  0.
         21    1    1    2  503  501 -0.32674849203E+02  0.19908131248E+02 -0.13894156444E+03  0.14411362804E+03  0.00000000000E+00 0.  1.
          2    1    1    2  501    0 -0.26172475883E+03  0.18353913243E+03 -0.25800757234E+04  0.25998033005E+04  0.00000000000E+00 0.  1.
<mgrwt>
<rscale>  4 0.37906057E+03</rscale>
<asrwt>0</asrwt>
<pdfrwt beam="1">  1       21 0.65456448E-02 0.37906057E+03</pdfrwt>
<pdfrwt beam="2">  1        2 0.60384685E+00 0.37906057E+03</pdfrwt>
<totfact> 0.10367019E+03</totfact>
</mgrwt>
</event>
<event>
 5    0  0.2947253E-001  0.3442711E+03  0.7546771E-02  0.1064991E+00
          2   -1    0    0  502    0 -0.00000000000E+00  0.00000000000E+00  0.42375027420E+03  0.42375027420E+03  0.00000000000E+00 0. -1.
         21   -1    0    0  503  502  0.00000000000E+00 -0.00000000000E+00 -0.39303587087E+03  0.39303587087E+03  0.00000000000E+00 0.  1.
         25    1    1    2    0    0  0.24213893727E+03  0.21039559110E+03 -0.21630149736E+03  0.40658198123E+03  0.12500000000E+03 0.  0.
         21    1    1    2  503  501 -0.93350764379E+02 -0.12354373902E+03  0.12657630529E+03  0.19999745429E+03  0.00000000000E+00 0.  1.
          2    1    1    2  501    0 -0.14878817289E+03 -0.86851852086E+02  0.12043959539E+03  0.21020670955E+03  0.00000000000E+00 0. -1.
<mgrwt>
<rscale>  4 0.34427107E+03</rscale>
<asrwt>0</asrwt>
<pdfrwt beam="1">  1       21 0.60467057E-01 0.34427107E+03</pdfrwt>
<pdfrwt beam="2">  1        2 0.65192350E-01 0.34427107E+03</pdfrwt>
<totfact> 0.22694194E+03</totfact>
</mgrwt>
</event>
<event>
 5    0  0.2947253E-001  0.3257141E+03  0.7546771E-02  0.1073163E+00
          2   -1    0    0  502    0 -0.00000000000E+00  0.00000000000E+00  0.37552401341E+03  0.37552401341E+03  0.00000000000E+00 0.  1.
         21   -1    0    0  503  502  0.00000000000E+00 -0.00000000000E+00 -0.43115111882E+03  0.43115111882E+03  0.00000000000E+00 0. -1.
         25    1    1    2    0    0 -0.18647578516E+03  0.23459044109E+03 -0.26530530375E+03  0.41930632919E+03  0.12500000000E+03 0.  0.
         21    1    1    2  503  501  0.12878678870E+03 -0.71046861466E+02  0.62106945784E+02  0.15965890574E+03  0.00000000000E+00 0.  1.
          2    1    1    2  501    0  0.57688996456E+02 -0.16354357962E+03  0.14757125255E+03  0.22770989730E+03  0.00000000000E+00 0.  1.
<mgrwt>
<rscale>  4 0.32546055E+03</rscale>
<asrwt>0</asrwt>
<pdfrwt beam="1">  1       21 0.66330941E-01 0.32571405E+03</pdfrwt>
<pdfrwt beam="2">  1        2 0.57772925E-01 0.32571405E+03</pdfrwt>
<totfact> 0.21252249E+03</totfact>
</mgrwt>
</event>
<event>
 5    0  0.2947253E-001  0.2847239E+03  0.7546771E-02  0.1093136E+00
         21   -1    0    0  503  502  0.00000000000E+00  0.00000000000E+00  0.53316325261E+02  0.53316325261E+02  0.00000000000E+00 0.  1.
          2   -1    0    0  502    0 -0.00000000000E+00 -0.00000000000E+00 -0.44393276060E+04  0.44393276060E+04  0.00000000000E+00 0.  1.
         25    1    1    2    0    0 -0.26757395139E+02 -0.25596307773E+03 -0.40390661924E+03  0.49497334517E+03  0.12500000000E+03 0.  0.
         21    1    1    2  503  501 -0.85966156987E+02  0.23528504309E+02 -0.75486632558E+03  0.76010982111E+03  0.00000000000E+00 0.  1.
          2    1    1    2  501    0  0.11272355213E+03  0.23243457342E+03 -0.32272383359E+04  0.32375607650E+04  0.00000000000E+00 0.  1.
<mgrwt>
<rscale>  4 0.28472389E+03</rscale>
<asrwt>0</asrwt>
<pdfrwt beam="1">  1       21 0.82025098E-02 0.28472389E+03</pdfrwt>
<pdfrwt beam="2">  1        2 0.68297363E+00 0.28472389E+03</pdfrwt>
<totfact> 0.27704305E+02</totfact>
</mgrwt>
</event>
<event>
 5    0  0.2947253E-001  0.2734293E+03  0.7546771E-02  0.1099333E+00
         21   -1    0    0  503  502  0.00000000000E+00  0.00000000000E+00  0.79253407060E+02  0.79253407060E+02  0.00000000000E+00 0. -1.
          1   -1    0    0  502    0 -0.00000000000E+00 -0.00000000000E+00 -0.14040278913E+04  0.14040278913E+04  0.00000000000E+00 0.  1.
         25    1    1    2    0    0 -0.24111033203E+03  0.31691892315E+02 -0.22152451527E+03  0.35190436075E+03  0.12500000000E+03 0.  0.
         21    1    1    2  503  501  0.29134721094E+02  0.16191308972E+02 -0.15513026354E+03  0.15867069397E+03  0.00000000000E+00 0.  1.
          1    1    1    2  501    0  0.21197561093E+03 -0.47883201287E+02 -0.94811970541E+03  0.97270624362E+03  0.00000000000E+00 0.  1.
<mgrwt>
<rscale>  4 0.27342927E+03</rscale>
<asrwt>0</asrwt>
<pdfrwt beam="1">  1       21 0.12192832E-01 0.27342927E+03</pdfrwt>
<pdfrwt beam="2">  1        1 0.21600428E+00 0.27342927E+03</pdfrwt>
<totfact> 0.52114003E+03</totfact>
</mgrwt>
</event>
<event>
 5    0  0.2947253E-001  0.2995840E+03  0.7546771E-02  0.1085449E+00
         21   -1    0    0  503  502  0.00000000000E+00  0.00000000000E+00  0.23044148900E+03  0.23044148900E+03  0.00000000000E+00 0. -1.
          2   -1    0    0  502    0 -0.00000000000E+00 -0.00000000000E+00 -0.52235694561E+03  0.52235694561E+03  0.00000000000E+00 0. -1.
         25    1    1    2    0    0  0.27143379149E+03  0.21196685851E+02  0.49503716582E+02  0.30364653894E+03  0.12500000000E+03 0.  0.
         21    1    1    2  503  501 -0.46449135796E+02 -0.21115240864E+02 -0.15889260979E+02  0.53440099433E+02  0.00000000000E+00 0. -1.
          2    1    1    2  501    0 -0.22498465570E+03 -0.81444987610E-01 -0.32552991222E+03  0.39571179623E+03  0.00000000000E+00 0. -1.
<mgrwt>
<rscale>  4 0.29958405E+03</rscale>
<asrwt>0</asrwt>
<pdfrwt beam="1">  1       21 0.35452537E-01 0.29958405E+03</pdfrwt>
<pdfrwt beam="2">  1        2 0.80362607E-01 0.29958405E+03</pdfrwt>
<totfact> 0.55341487E+03</totfact>
</mgrwt>
</event>
<event>
 5    0  0.2947253E-001  0.2592920E+03  0.7546771E-02  0.1107569E+00
         21   -1    0    0  503  502  0.00000000000E+00  0.00000000000E+00  0.42813370048E+03  0.42813370048E+03  0.00000000000E+00 0.  1.
          4   -1    0    0  502    0 -0.00000000000E+00 -0.00000000000E+00 -0.33557314423E+03  0.33557314423E+03  0.00000000000E+00 0.  1.
         25    1    1    2    0    0  0.25627104125E+03  0.65812216015E+02  0.27958096240E+03  0.40471793745E+03  0.12500000000E+03 0.  0.
         21    1    1    2  503  501 -0.10296688587E+03  0.47709892412E+01 -0.15662648941E+03  0.18750146429E+03  0.00000000000E+00 0.  1.
          4    1    1    2  501    0 -0.15330415538E+03 -0.70583205256E+02 -0.30393916734E+02  0.17148744297E+03  0.00000000000E+00 0.  1.
<mgrwt>
<rscale>  4 0.25929201E+03</rscale>
<asrwt>0</asrwt>
<pdfrwt beam="1">  1       21 0.65866723E-01 0.25929201E+03</pdfrwt>
<pdfrwt beam="2">  1        4 0.51626638E-01 0.25929201E+03</pdfrwt>
<totfact> 0.32057158E+02</totfact>
</mgrwt>
</event>
<event>
 5    0  0.2947253E-001  0.2399177E+03  0.7546771E-02  0.1119848E+00
          1   -1    0    0  502    0 -0.00000000000E+00  0.00000000000E+00  0.16247158149E+04  0.16247158149E+04  0.00000000000E+00 0. -1.
         21   -1    0    0  503  502  0.00000000000E+00 -0.00000000000E+00 -0.33729730564E+02  0.33729730564E+02  0.00000000000E+00 0. -1.
         25    1    1    2    0    0  0.20477527734E+03 -0.16038572487E+01  0.60109730813E+03  0.64720820484E+03  0.12500000000E+03 0.  0.
         21    1    1    2  503  501 -0.21848090651E+02 -0.72433853240E+01  0.89564105328E+02  0.92474508159E+02  0.00000000000E+00 0. -1.
          1    1    1    2  501    0 -0.18292718669E+03  0.88472425727E+01  0.90032467085E+03  0.91876283244E+03  0.00000000000E+00 0. -1.
<mgrwt>
<rscale>  4 0.23991767E+03</rscale>
<asrwt>0</asrwt>
<pdfrwt beam="1">  1       21 0.51891906E-02 0.23991767E+03</pdfrwt>
<pdfrwt beam="2">  1        1 0.24995622E+00 0.23991767E+03</pdfrwt>
<totfact> 0.16798921E+04</totfact>
</mgrwt>
</event>
<event>
 5    0  0.3530624E-001  0.4235275E+03  0.7546771E-02  0.1035924E+00
          2   -1    0    0  502    0 -0.00000000000E+00  0.00000000000E+00  0.52965468390E+03  0.52965468390E+03  0.00000000000E+00 0.  1.
         21   -1    0    0  503  502  0.00000000000E+00 -0.00000000000E+00 -0.35535596645E+03  0.35535596645E+03  0.00000000000E+00 0.  1.
         25    1    1    2    0    0  0.39300425790E+03 -0.12544031816E+03  0.14663339745E+03  0.45531744245E+03  0.12500000000E+03 0.  0.
         21    1    1    2  503  501 -0.20163610137E+02 -0.18100046705E+02  0.12625813424E+02  0.29893043155E+02  0.00000000000E+00 0. -1.
          2    1    1    2  501    0 -0.37284064776E+03  0.14354036486E+03  0.15039506567E+02  0.39980016474E+03  0.00000000000E+00 0.  1.
<mgrwt>
<rscale>  4 0.42352755E+03</rscale>
<asrwt>0</asrwt>
<pdfrwt beam="1">  1       21 0.54670148E-01 0.42352755E+03</pdfrwt>
<pdfrwt beam="2">  1        2 0.81485336E-01 0.42352755E+03</pdfrwt>
<totfact> 0.21564523E+03</totfact>
</mgrwt>
</event>
<event>
 5    0  0.2947253E-001  0.3079561E+03  0.7546771E-02  0.1081330E+00
         21   -1    0    0  503  502  0.00000000000E+00  0.00000000000E+00  0.31564799553E+03  0.31564799553E+03  0.00000000000E+00 0. -1.
          3   -1    0    0  502    0 -0.00000000000E+00 -0.00000000000E+00 -0.33842147888E+03  0.33842147888E+03  0.00000000000E+00 0. -1.
         25    1    1    2    0    0 -0.11161129007E+03  0.25836963912E+03  0.10865350851E+03  0.32656168698E+03  0.12500000000E+03 0.  0.
         21    1    1    2  503  501  0.84964156180E+02 -0.12205011473E+03 -0.21260944292E+02  0.15022372014E+03  0.00000000000E+00 0. -1.
          3    1    1    2  501    0  0.26647133894E+02 -0.13631952440E+03 -0.11016604756E+03  0.17728406728E+03  0.00000000000E+00 0. -1.
<mgrwt>
<rscale>  4 0.30795609E+03</rscale>
<asrwt>0</asrwt>
<pdfrwt beam="1">  1       21 0.48561230E-01 0.30795609E+03</pdfrwt>
<pdfrwt beam="2">  1        3 0.52064843E-01 0.30795609E+03</pdfrwt>
<totfact> 0.72500493E+02</totfact>
</mgrwt>
</event>
<event>
 5    0  0.2947253E-001  0.2372206E+03  0.7546771E-02  0.1121658E+00
         -2   -1    0    0    0  501 -0.00000000000E+00  0.00000000000E+00  0.14749170764E+03  0.14749170764E+03  0.00000000000E+00 0.  1.
         21   -1    0    0  501  502  0.00000000000E+00 -0.00000000000E+00 -0.53960037629E+03  0.53960037629E+03  0.00000000000E+00 0.  1.
         25    1    1    2    0    0 -0.18023519687E+02 -0.20080781871E+03 -0.41841467810E+03  0.48098281691E+03  0.12500000000E+03 0.  0.
         21    1    1    2  501  501  0.53315410079E+01  0.24373162511E+02 -0.74259883999E+01  0.26031167550E+02  0.00000000000E+00 0. -1.
         -2    1    1    2    0  502  0.12691978679E+02  0.17643465619E+03  0.33731997847E+02  0.18007809947E+03  0.00000000000E+00 0.  1.
<mgrwt>
<rscale>  4 0.23722063E+03</rscale>
<asrwt>0</asrwt>
<pdfrwt beam="1">  1       21 0.83015444E-01 0.23722063E+03</pdfrwt>
<pdfrwt beam="2">  1       -2 0.22691032E-01 0.23722063E+03</pdfrwt>
<totfact> 0.16777061E+03</totfact>
</mgrwt>
</event>
<event>
 5    0  0.2947253E-001  0.4159713E+03  0.7546771E-02  0.1038386E+00
          2   -1    0    0  502    0 -0.00000000000E+00  0.00000000000E+00  0.27879048789E+04  0.27879048789E+04  0.00000000000E+00 0. -1.
         21   -1    0    0  503  502  0.00000000000E+00 -0.00000000000E+00 -0.16106598556E+03  0.16106598556E+03  0.00000000000E+00 0.  1.
         25    1    1    2    0    0  0.45932637119E+02  0.39532547365E+03  0.16244336955E+03  0.44766604247E+03  0.12500000000E+03 0.  0.
         21    1    1    2  503  501  0.32713836196E+02 -0.14817954469E+02  0.13349201460E+03  0.13823850699E+03  0.00000000000E+00 0. -1.
          2    1    1    2  501    0 -0.78646473316E+02 -0.38050751918E+03  0.23309035092E+04  0.23630663150E+04  0.00000000000E+00 0. -1.
<mgrwt>
<rscale>  4 0.41597134E+03</rscale>
<asrwt>0</asrwt>
<pdfrwt beam="1">  1       21 0.24779384E-01 0.41597134E+03</pdfrwt>
<pdfrwt beam="2">  1        2 0.42890841E+00 0.41597134E+03</pdfrwt>
<totfact> 0.49360272E+02</totfact>
</mgrwt>
</event>
<event>
 5    0  0.2947253E-001  0.2671414E+03  0.7546771E-02  0.1102927E+00
         21   -1    0    0  503  502  0.00000000000E+00  0.00000000000E+00  0.60779318489E+02  0.60779318489E+02  0.00000000000E+00 0. -1.
          2   -1    0    0  502    0 -0.00000000000E+00 -0.00000000000E+00 -0.20160546958E+04  0.20160546958E+04  0.00000000000E+00 0.  1.
         25    1    1    2    0    0 -0.30162970996E+02  0.22563316290E+03 -0.32670761039E+03  0.41735235917E+03  0.12500000000E+03 0.  0.
         21    1    1    2  503  501  0.63619609372E+02  0.11463462580E+02 -0.17997169168E+03  0.19122937923E+03  0.00000000000E+00 0.  1.
          2    1    1    2  501    0 -0.33456638376E+02 -0.23709662548E+03 -0.14485960752E+04  0.14682522759E+04  0.00000000000E+00 0.  1.
<mgrwt>
<rscale>  4 0.26714143E+03</rscale>
<asrwt>0</asrwt>
<pdfrwt beam="1">  1       21 0.93506644E-02 0.26714143E+03</pdfrwt>
<pdfrwt beam="2">  1        2 0.31016226E+00 0.26714143E+03</pdfrwt>
<totfact> 0.83849630E+03</totfact>
</mgrwt>
</event>
<event>
 5    0  0.2947253E-001  0.5717610E+03  0.7546771E-02  0.9965789E-01
         21   -1    0    0  503  502  0.00000000000E+00  0.00000000000E+00  0.13706323960E+04  0.13706323960E+04  0.00000000000E+00 0.  1.
          2   -1    0    0  502    0 -0.00000000000E+00 -0.00000000000E+00 -0.26145325804E+03  0.26145325804E+03  0.00000000000E+00 0.  1.
         25    1    1    2    0    0  0.36035471754E+03 -0.42594620504E+03  0.30906097930E+03  0.64994567539E+03  0.12500000000E+03 0.  0.
         21    1    1    2  503  501 -0.49822421510E+02  0.14582026103E+02  0.50474233021E+02  0.72405506485E+02  0.00000000000E+00 0.  1.
          2    1    1    2  501    0 -0.31053229603E+03  0.41136417894E+03  0.74964392567E+03  0.90973447218E+03  0.00000000000E+00 0.  1.
<mgrwt>
<rscale>  4 0.57176104E+03</rscale>
<asrwt>0</asrwt>
<pdfrwt beam="1">  1       21 0.21086652E+00 0.57176104E+03</pdfrwt>
<pdfrwt beam="2">  1        2 0.40223579E-01 0.57176104E+03</pdfrwt>
<totfact> 0.14970675E+02</totfact>
</mgrwt>
</event>
<event>
 5    0  0.2947253E-001  0.3984123E+03  0.7546771E-02  0.1044331E+00
         21   -1    0    0  503  502  0.00000000000E+00  0.00000000000E+00  0.20124289808E+03  0.20124289808E+03  0.00000000000E+00 0. -1.
          1   -1    0    0  502    0 -0.00000000000E+00 -0.00000000000E+00 -0.21980322065E+04  0.21980322065E+04  0.00000000000E+00 0.  1.
         25    1    1    2    0    0  0.24340098951E+03  0.27361394345E+03 -0.89219317583E+02  0.39710668387E+03  0.12500000000E+03 0.  0.
         21    1    1    2  503  501  0.13039538381E+03  0.82652466293E+01 -0.28724460849E+03  0.31556415437E+03  0.00000000000E+00 0. -1.
          1    1    1    2  501    0 -0.37379637332E+03 -0.28187919008E+03 -0.16203253824E+04  0.16866042664E+04  0.00000000000E+00 0.  1.
<mgrwt>
<rscale>  4 0.39841228E+03</rscale>
<asrwt>0</asrwt>
<pdfrwt beam="1">  1       21 0.30960449E-01 0.39841228E+03</pdfrwt>
<pdfrwt beam="2">  1        1 0.33815877E+00 0.39841228E+03</pdfrwt>
<totfact> 0.25689427E+02</totfact>
</mgrwt>
</event>
<event>
 5    0  0.2947253E-001  0.2368357E+03  0.7546771E-02  0.1121919E+00
         21   -1    0    0  503  502  0.00000000000E+00  0.00000000000E+00  0.15099445498E+03  0.15099445498E+03  0.00000000000E+00 0.  1.
          1   -1    0    0  502    0 -0.00000000000E+00 -0.00000000000E+00 -0.47363092485E+03  0.47363092485E+03  0.00000000000E+00 0. -1.
         25    1    1    2    0    0 -0.16940665931E+03  0.10847820432E+03  0.40382866362E+01  0.23687010109E+03  0.12500000000E+03 0.  0.
         21    1    1    2  503  501  0.14781307709E+03 -0.85620349675E+02 -0.23275686698E+03  0.28871319534E+03  0.00000000000E+00 0. -1.
          1    1    1    2  501    0  0.21593582213E+02 -0.22857854645E+02 -0.93917889528E+02  0.99042083404E+02  0.00000000000E+00 0. -1.
<mgrwt>
<rscale>  4 0.23683568E+03</rscale>
<asrwt>0</asrwt>
<pdfrwt beam="1">  1       21 0.23229916E-01 0.23683568E+03</pdfrwt>
<pdfrwt beam="2">  1        1 0.72866297E-01 0.23683568E+03</pdfrwt>
<totfact> 0.92392337E+03</totfact>
</mgrwt>
</event>
<event>
 5    0  0.2947253E-001  0.2492351E+03  0.7546771E-02  0.1113789E+00
          2   -1    0    0  502    0 -0.00000000000E+00  0.00000000000E+00  0.14184638805E+04  0.14184638805E+04  0.00000000000E+00 0. -1.
         21   -1    0    0  503  502  0.00000000000E+00 -0.00000000000E+00 -0.22536888495E+03  0.22536888495E+03  0.00000000000E+00 0. -1.
         25    1    1    2    0    0  0.20742922937E+03  0.32094170196E+00 -0.13028089795E+03  0.27500018285E+03  0.12500000000E+03 0.  0.
         21    1    1    2  503  501  0.47913178262E+01 -0.41310113746E+02  0.17381678852E+02  0.45073328965E+02  0.00000000000E+00 0. -1.
          2    1    1    2  501    0 -0.21222054719E+03  0.40989172045E+02  0.13059942146E+04  0.13237592536E+04  0.00000000000E+00 0. -1.
<mgrwt>
<rscale>  4 0.24923506E+03</rscale>
<asrwt>0</asrwt>
<pdfrwt beam="1">  1       21 0.34672137E-01 0.24923506E+03</pdfrwt>
<pdfrwt beam="2">  1        2 0.21822521E+00 0.24923506E+03</pdfrwt>
<totfact> 0.15087691E+03</totfact>
</mgrwt>
</event>
<event>
 5    0  0.2947253E-001  0.2265440E+03  0.7546771E-02  0.1129096E+00
          1   -1    0    0  502    0 -0.00000000000E+00  0.00000000000E+00  0.34337607685E+03  0.34337607685E+03  0.00000000000E+00 0.  1.
         21   -1    0    0  503  502  0.00000000000E+00 -0.00000000000E+00 -0.63825586497E+03  0.63825586497E+03  0.00000000000E+00 0.  1.
         25    1    1    2    0    0  0.11815878986E+03 -0.17824588755E+03 -0.56123595844E+03  0.61346874175E+03  0.12500000000E+03 0.  0.
         21    1    1    2  503  501 -0.57044427347E+02  0.97652285932E+02  0.39521043085E+02  0.11979961805E+03  0.00000000000E+00 0.  1.
          1    1    1    2  501    0 -0.61114362514E+02  0.80593601614E+02  0.22683512724E+03  0.24836358202E+03  0.00000000000E+00 0.  1.
<mgrwt>
<rscale>  4 0.22654401E+03</rscale>
<asrwt>0</asrwt>
<pdfrwt beam="1">  1       21 0.98193208E-01 0.22654401E+03</pdfrwt>
<pdfrwt beam="2">  1        1 0.52827090E-01 0.22654401E+03</pdfrwt>
<totfact> 0.68043329E+02</totfact>
</mgrwt>
</event>
<event>
 5    0  0.2947253E-001  0.2685570E+03  0.7546771E-02  0.1102108E+00
          2   -1    0    0  502    0 -0.00000000000E+00  0.00000000000E+00  0.14527884838E+04  0.14527884838E+04  0.00000000000E+00 0.  1.
         21   -1    0    0  503  502  0.00000000000E+00 -0.00000000000E+00 -0.14566309051E+03  0.14566309051E+03  0.00000000000E+00 0. -1.
         25    1    1    2    0    0 -0.14768645396E+03  0.18624335151E+03  0.62938857970E+00  0.26855776063E+03  0.12500000000E+03 0.  0.
         21    1    1    2  503  501  0.89349923121E+02 -0.67527302011E+02  0.48095634315E+03  0.49382420890E+03  0.00000000000E+00 0.  1.
          2    1    1    2  501    0  0.58336530839E+02 -0.11871604950E+03  0.82553966158E+03  0.83606960480E+03  0.00000000000E+00 0.  1.
<mgrwt>
<rscale>  4 0.26855702E+03</rscale>
<asrwt>0</asrwt>
<pdfrwt beam="1">  1       21 0.22409707E-01 0.26855702E+03</pdfrwt>
<pdfrwt beam="2">  1        2 0.22350591E+00 0.26855702E+03</pdfrwt>
<totfact> 0.33544728E+03</totfact>
</mgrwt>
</event>
<event>
 5    0  0.2947253E-001  0.2393364E+03  0.7546771E-02  0.1120236E+00
         21   -1    0    0  503  502  0.00000000000E+00  0.00000000000E+00  0.67631263887E+02  0.67631263887E+02  0.00000000000E+00 0. -1.
          1   -1    0    0  502    0 -0.00000000000E+00 -0.00000000000E+00 -0.11736759670E+04  0.11736759670E+04  0.00000000000E+00 0.  1.
         25    1    1    2    0    0  0.16723645059E+03 -0.11699945920E+03 -0.21412694250E+03  0.32114210463E+03  0.12500000000E+03 0.  0.
         21    1    1    2  503  501 -0.68015520928E+02  0.43971725601E+02 -0.17621684961E+03  0.19393813917E+03  0.00000000000E+00 0.  1.
          1    1    1    2  501    0 -0.99220929666E+02  0.73027733601E+02 -0.71570091096E+03  0.72622698705E+03  0.00000000000E+00 0.  1.
<mgrwt>
<rscale>  4 0.23933638E+03</rscale>
<asrwt>0</asrwt>
<pdfrwt beam="1">  1       21 0.10404810E-01 0.23933638E+03</pdfrwt>
<pdfrwt beam="2">  1        1 0.18056553E+00 0.23933638E+03</pdfrwt>
<totfact> 0.10063566E+04</totfact>
</mgrwt>
</event>
<event>
 5    0  0.2947253E-001  0.3227031E+03  0.7546771E-02  0.1074412E+00
          1   -1    0    0  502    0 -0.00000000000E+00  0.00000000000E+00  0.15139471611E+03  0.15139471611E+03  0.00000000000E+00 0.  1.
         21   -1    0    0  503  502  0.00000000000E+00 -0.00000000000E+00 -0.10577086554E+04  0.10577086554E+04  0.00000000000E+00 0. -1.
         25    1    1    2    0    0  0.15588059334E+02 -0.29710155431E+03 -0.82773980965E+03  0.88842023483E+03  0.12500000000E+03 0.  0.
         21    1    1    2  503  501  0.24147528344E+02  0.15512462753E+03 -0.73026437463E+02  0.17314622075E+03  0.00000000000E+00 0. -1.
          1    1    1    2  501    0 -0.39735587679E+02  0.14197692678E+03 -0.55476921598E+01  0.14753691591E+03  0.00000000000E+00 0.  1.
<mgrwt>
<rscale>  4 0.32270315E+03</rscale>
<asrwt>0</asrwt>
<pdfrwt beam="1">  1       21 0.16272441E+00 0.32270315E+03</pdfrwt>
<pdfrwt beam="2">  1        1 0.23291494E-01 0.32270315E+03</pdfrwt>
<totfact> 0.50923847E+02</totfact>
</mgrwt>
</event>
<event>
 5    0  0.2947253E-001  0.2623759E+03  0.7546771E-02  0.1105724E+00
         21   -1    0    0  503  502  0.00000000000E+00  0.00000000000E+00  0.14650047229E+03  0.14650047229E+03  0.00000000000E+00 0.  1.
          1   -1    0    0  502    0 -0.00000000000E+00 -0.00000000000E+00 -0.21297264626E+04  0.21297264626E+04  0.00000000000E+00 0.  1.
         25    1    1    2    0    0 -0.81767662199E+02 -0.21710864059E+03  0.90581649769E+01  0.26368383104E+03  0.12500000000E+03 0.  0.
         21    1    1    2  503  501 -0.41621321377E+02  0.37013364144E+02 -0.22341906479E+03  0.23025725185E+03  0.00000000000E+00 0. -1.
          1    1    1    2  501    0  0.12338898358E+03  0.18009527644E+03 -0.17688650905E+04  0.17822858520E+04  0.00000000000E+00 0.  1.
<mgrwt>
<rscale>  4 0.26237588E+03</rscale>
<asrwt>0</asrwt>
<pdfrwt beam="1">  1       21 0.22538536E-01 0.26237588E+03</pdfrwt>
<pdfrwt beam="2">  1        1 0.32765020E+00 0.26237588E+03</pdfrwt>
<totfact> 0.56212431E+02</totfact>
</mgrwt>
</event>
<event>
 5    0  0.3268344E-001  0.5153638E+03  0.7546771E-02  0.1009845E+00
          2   -1    0    0  502    0 -0.00000000000E+00  0.00000000000E+00  0.23429466585E+03  0.23429466585E+03  0.00000000000E+00 0. -1.
         21   -1    0    0  503  502  0.00000000000E+00 -0.00000000000E+00 -0.13865955958E+04  0.13865955958E+04  0.00000000000E+00 0. -1.
         25    1    1    2    0    0  0.27673853654E+03 -0.41640206407E+03 -0.94096020514E+03  0.10728494788E+04  0.12500000000E+03 0.  0.
         21    1    1    2  503  501 -0.18111297152E+02  0.86190342919E+01 -0.20884622054E+02  0.28956420273E+02  0.00000000000E+00 0.  1.
          2    1    1    2  501    0 -0.25862723939E+03  0.40778302978E+03 -0.19045610272E+03  0.51908436250E+03  0.00000000000E+00 0. -1.
<mgrwt>
<rscale>  4 0.51536385E+03</rscale>
<asrwt>0</asrwt>
<pdfrwt beam="1">  1       21 0.21332240E+00 0.51536385E+03</pdfrwt>
<pdfrwt beam="2">  1        2 0.36045333E-01 0.51536385E+03</pdfrwt>
<totfact> 0.16568281E+02</totfact>
</mgrwt>
</event>
<event>
 5    0  0.2947253E-001  0.2602840E+03  0.7546771E-02  0.1106973E+00
         21   -1    0    0  503  502  0.00000000000E+00  0.00000000000E+00  0.83352250350E+02  0.83352250350E+02  0.00000000000E+00 0.  1.
          1   -1    0    0  502    0 -0.00000000000E+00 -0.00000000000E+00 -0.17919096971E+04  0.17919096971E+04  0.00000000000E+00 0.  1.
         25    1    1    2    0    0  0.22105359541E+03 -0.57079332652E+02 -0.15406544873E+03  0.30246306345E+03  0.12500000000E+03 0.  0.
         21    1    1    2  503  501 -0.46218781420E+02  0.36840102576E+02 -0.27666427459E+03  0.28290721050E+03  0.00000000000E+00 0.  1.
          1    1    1    2  501    0 -0.17483481399E+03  0.20239230076E+02 -0.12778277234E+04  0.12898916735E+04  0.00000000000E+00 0.  1.
<mgrwt>
<rscale>  4 0.26028396E+03</rscale>
<asrwt>0</asrwt>
<pdfrwt beam="1">  1       21 0.12823424E-01 0.26028396E+03</pdfrwt>
<pdfrwt beam="2">  1        1 0.27567839E+00 0.26028396E+03</pdfrwt>
<totfact> 0.26538107E+03</totfact>
</mgrwt>
</event>
<event>
 5    0  0.2947253E-001  0.2559163E+03  0.7546771E-02  0.1109622E+00
          1   -1    0    0  502    0 -0.00000000000E+00  0.00000000000E+00  0.21135755822E+04  0.21135755822E+04  0.00000000000E+00 0. -1.
         21   -1    0    0  503  502  0.00000000000E+00 -0.00000000000E+00 -0.18009757977E+03  0.18009757977E+03  0.00000000000E+00 0.  1.
         25    1    1    2    0    0 -0.22334758286E+03 -0.31537091690E+02 -0.72318061354E+02  0.26783135164E+03  0.12500000000E+03 0.  0.
         21    1    1    2  503  501  0.19228745052E+03  0.59560370620E+02  0.10494878546E+04  0.10686190427E+04  0.00000000000E+00 0. -1.
          1    1    1    2  501    0  0.31060132343E+02 -0.28023278930E+02  0.95630820916E+03  0.95722276764E+03  0.00000000000E+00 0. -1.
<mgrwt>
<rscale>  4 0.25591626E+03</rscale>
<asrwt>0</asrwt>
<pdfrwt beam="1">  1       21 0.27707321E-01 0.25591626E+03</pdfrwt>
<pdfrwt beam="2">  1        1 0.32516546E+00 0.25591626E+03</pdfrwt>
<totfact> 0.38861782E+02</totfact>
</mgrwt>
</event>
<event>
 5    0  0.2947253E-001  0.4339891E+03  0.7546771E-02  0.1032607E+00
          2   -1    0    0  502    0 -0.00000000000E+00  0.00000000000E+00  0.25142666197E+04  0.25142666197E+04  0.00000000000E+00 0.  1.
         21   -1    0    0  503  502  0.00000000000E+00 -0.00000000000E+00 -0.17316945289E+03  0.17316945289E+03  0.00000000000E+00 0.  1.
         25    1    1    2    0    0  0.36612640020E+02 -0.26158525988E+03  0.92081562186E+02  0.30638431371E+03  0.12500000000E+03 0.  0.
         21    1    1    2  503  501 -0.20289610273E+03 -0.17316248134E+03  0.45299936748E+03  0.52570000988E+03  0.00000000000E+00 0.  1.
          2    1    1    2  501    0  0.16628346271E+03  0.43474774122E+03  0.17960162372E+04  0.18553517490E+04  0.00000000000E+00 0.  1.
<mgrwt>
<rscale>  4 0.43398913E+03</rscale>
<asrwt>0</asrwt>
<pdfrwt beam="1">  1       21 0.26641456E-01 0.43398913E+03</pdfrwt>
<pdfrwt beam="2">  1        2 0.38681022E+00 0.43398913E+03</pdfrwt>
<totfact> 0.60906594E+02</totfact>
</mgrwt>
</event>
<event>
 5    0  0.2947253E-001  0.2972883E+03  0.7546771E-02  0.1086604E+00
          2   -1    0    0  502    0 -0.00000000000E+00  0.00000000000E+00  0.12256767889E+04  0.12256767889E+04  0.00000000000E+00 0.  1.
         21   -1    0    0  503  502  0.00000000000E+00 -0.00000000000E+00 -0.15672128291E+03  0.15672128291E+03  0.00000000000E+00 0. -1.
         25    1    1    2    0    0  0.47053102059E+02  0.26559620625E+03  0.19568500512E+02  0.29793164552E+03  0.12500000000E+03 0.  0.
         21    1    1    2  503  501  0.52644722838E+01 -0.21791846064E+02  0.57485084502E+02  0.61701978603E+02  0.00000000000E+00 0.  1.
          2    1    1    2  501    0 -0.52317574343E+02 -0.24380436019E+03  0.99190192093E+03  0.10227644476E+04  0.00000000000E+00 0.  1.
<mgrwt>
<rscale>  4 0.29728831E+03</rscale>
<asrwt>0</asrwt>
<pdfrwt beam="1">  1       21 0.24110967E-01 0.29728831E+03</pdfrwt>
<pdfrwt beam="2">  1        2 0.18856565E+00 0.29728831E+03</pdfrwt>
<totfact> 0.38558773E+03</totfact>
</mgrwt>
</event>
<event>
 5    0  0.2947253E-001  0.3998805E+03  0.7546771E-02  0.1043821E+00
          3   -1    0    0  502    0 -0.00000000000E+00  0.00000000000E+00  0.71504887600E+03  0.71504887600E+03  0.00000000000E+00 0. -1.
         21   -1    0    0  503  502  0.00000000000E+00 -0.00000000000E+00 -0.22814064193E+03  0.22814064193E+03  0.00000000000E+00 0. -1.
         25    1    1    2    0    0 -0.15149376134E+03 -0.34832315791E+03  0.35240682500E+03  0.53300558381E+03  0.12500000000E+03 0.  0.
         21    1    1    2  503  501  0.10250530515E+03  0.29855413548E+03  0.93566110294E+02  0.32923627745E+03  0.00000000000E+00 0. -1.
          3    1    1    2  501    0  0.48988456191E+02  0.49769022434E+02  0.40935298767E+02  0.80947656663E+02  0.00000000000E+00 0. -1.
<mgrwt>
<rscale>  4 0.39988046E+03</rscale>
<asrwt>0</asrwt>
<pdfrwt beam="1">  1       21 0.35098561E-01 0.39988046E+03</pdfrwt>
<pdfrwt beam="2">  1        3 0.11000752E+00 0.39988046E+03</pdfrwt>
<totfact> 0.27097999E+02</totfact>
</mgrwt>
</event>
<event>
 5    0  0.2947253E-001  0.2404102E+03  0.7546771E-02  0.1119520E+00
         21   -1    0    0  503  502  0.00000000000E+00  0.00000000000E+00  0.62947785895E+02  0.62947785895E+02  0.00000000000E+00 0. -1.
          2   -1    0    0  502    0 -0.00000000000E+00 -0.00000000000E+00 -0.11017046222E+04  0.11017046222E+04  0.00000000000E+00 0. -1.
         25    1    1    2    0    0  0.20854558041E+03  0.11515185432E+02 -0.28174023390E+03  0.37232568808E+03  0.12500000000E+03 0.  0.
         21    1    1    2  503  501 -0.13301087129E+02  0.27987622253E+02 -0.61788075401E+02  0.69123022069E+02  0.00000000000E+00 0. -1.
          2    1    1    2  501    0 -0.19524449328E+03 -0.39502807685E+02 -0.69522852700E+03  0.72320369795E+03  0.00000000000E+00 0. -1.
<mgrwt>
<rscale>  4 0.24041023E+03</rscale>
<asrwt>0</asrwt>
<pdfrwt beam="1">  1       21 0.96842746E-02 0.24041023E+03</pdfrwt>
<pdfrwt beam="2">  1        2 0.16949302E+00 0.24041023E+03</pdfrwt>
<totfact> 0.24711136E+04</totfact>
</mgrwt>
</event>
<event>
 5    0  0.2947253E-001  0.4185547E+03  0.7546771E-02  0.1037538E+00
          4   -1    0    0  502    0 -0.00000000000E+00  0.00000000000E+00  0.12534737534E+04  0.12534737534E+04  0.00000000000E+00 0.  1.
         21   -1    0    0  503  502  0.00000000000E+00 -0.00000000000E+00 -0.16942304828E+04  0.16942304828E+04  0.00000000000E+00 0. -1.
         25    1    1    2    0    0  0.31982563098E+03 -0.24874074565E+03 -0.15873520784E+04  0.16430070035E+04  0.12500000000E+03 0.  0.
         21    1    1    2  503  501 -0.26487651977E+02  0.27256215558E+03  0.28958307802E+03  0.39856001234E+03  0.00000000000E+00 0. -1.
          4    1    1    2  501    0 -0.29333797901E+03 -0.23821409935E+02  0.85701227095E+03  0.90613722033E+03  0.00000000000E+00 0.  1.
<mgrwt>
<rscale>  4 0.41855466E+03</rscale>
<asrwt>0</asrwt>
<pdfrwt beam="1">  1       21 0.26065084E+00 0.41855466E+03</pdfrwt>
<pdfrwt beam="2">  1        4 0.19284212E+00 0.41855466E+03</pdfrwt>
<totfact> 0.32384552E-01</totfact>
</mgrwt>
</event>
<event>
 5    0  0.2947253E-001  0.2675818E+03  0.7546771E-02  0.1102672E+00
          2   -1    0    0  502    0 -0.00000000000E+00  0.00000000000E+00  0.29735380096E+04  0.29735380096E+04  0.00000000000E+00 0.  1.
         21   -1    0    0  503  502  0.00000000000E+00 -0.00000000000E+00 -0.46556220514E+02  0.46556220514E+02  0.00000000000E+00 0. -1.
         25    1    1    2    0    0  0.19948227469E+03 -0.12720789270E+03  0.39769997239E+03  0.47933839187E+03  0.12500000000E+03 0.  0.
         21    1    1    2  503  501 -0.61539145128E+02  0.50757205277E+02  0.65221179517E+03  0.65707197934E+03  0.00000000000E+00 0.  1.
          2    1    1    2  501    0 -0.13794312956E+03  0.76450687425E+02  0.18770700216E+04  0.18836838590E+04  0.00000000000E+00 0.  1.
<mgrwt>
<rscale>  4 0.26758181E+03</rscale>
<asrwt>0</asrwt>
<pdfrwt beam="1">  1       21 0.71624978E-02 0.26758181E+03</pdfrwt>
<pdfrwt beam="2">  1        2 0.45746724E+00 0.26758181E+03</pdfrwt>
<totfact> 0.39736125E+03</totfact>
</mgrwt>
</event>
<event>
 5    0  0.2947253E-001  0.2445299E+03  0.7546771E-02  0.1116811E+00
         21   -1    0    0  503  502  0.00000000000E+00  0.00000000000E+00  0.11136061551E+04  0.11136061551E+04  0.00000000000E+00 0. -1.
          2   -1    0    0  502    0 -0.00000000000E+00 -0.00000000000E+00 -0.38453146275E+03  0.38453146275E+03  0.00000000000E+00 0.  1.
         25    1    1    2    0    0  0.11509190144E+03  0.17734536365E+03  0.10556418803E+04  0.10838368435E+04  0.12500000000E+03 0.  0.
         21    1    1    2  503  501 -0.24914924489E+02 -0.23116649066E+02  0.80937829812E+01  0.34937690955E+02  0.00000000000E+00 0. -1.
          2    1    1    2  501    0 -0.90176976946E+02 -0.15422871459E+03 -0.33466097096E+03  0.37936308342E+03  0.00000000000E+00 0.  1.
<mgrwt>
<rscale>  4 0.24452988E+03</rscale>
<asrwt>0</asrwt>
<pdfrwt beam="1">  1       21 0.17132402E+00 0.24452988E+03</pdfrwt>
<pdfrwt beam="2">  1        2 0.59158687E-01 0.24452988E+03</pdfrwt>
<totfact> 0.20883415E+02</totfact>
</mgrwt>
</event>
<event>
 5    0  0.2947253E-001  0.2769191E+03  0.7546771E-02  0.1097384E+00
         21   -1    0    0  503  502  0.00000000000E+00  0.00000000000E+00  0.83603168723E+02  0.83603168723E+02  0.00000000000E+00 0.  1.
          1   -1    0    0  502    0 -0.00000000000E+00 -0.00000000000E+00 -0.19501214426E+04  0.19501214426E+04  0.00000000000E+00 0.  1.
         25    1    1    2    0    0 -0.14345511504E+03  0.20392963659E+03 -0.19374887438E+03  0.33960314050E+03  0.12500000000E+03 0.  0.
         21    1    1    2  503  501  0.22214150432E+02 -0.38345116592E+01 -0.53763145048E+02  0.58297922128E+02  0.00000000000E+00 0.  1.
          1    1    1    2  501    0  0.12124096461E+03 -0.20009512493E+03 -0.16190062544E+04  0.16358235487E+04  0.00000000000E+00 0.  1.
<mgrwt>
<rscale>  4 0.27691913E+03</rscale>
<asrwt>0</asrwt>
<pdfrwt beam="1">  1       21 0.12862027E-01 0.27691913E+03</pdfrwt>
<pdfrwt beam="2">  1        1 0.30001865E+00 0.27691913E+03</pdfrwt>
<totfact> 0.20691228E+03</totfact>
</mgrwt>
</event>
<event>
 5    0  0.2947253E-001  0.2513226E+03  0.7546771E-02  0.1112472E+00
         -1   -1    0    0    0  501 -0.00000000000E+00  0.00000000000E+00  0.10019402519E+04  0.10019402519E+04  0.00000000000E+00 0. -1.
         21   -1    0    0  501  502  0.00000000000E+00 -0.00000000000E+00 -0.22356554266E+03  0.22356554266E+03  0.00000000000E+00 0. -1.
         25    1    1    2    0    0  0.10503618095E+03 -0.20755341953E+03 -0.11147683824E+03  0.28664107649E+03  0.12500000000E+03 0.  0.
         21    1    1    2  501  501  0.25125306402E+02  0.15136948090E+03  0.54008725620E+03  0.56146081349E+03  0.00000000000E+00 0. -1.
         -1    1    1    2    0  502 -0.13016148735E+03  0.56183938633E+02  0.34976429132E+03  0.37740390463E+03  0.00000000000E+00 0. -1.
<mgrwt>
<rscale>  4 0.25132260E+03</rscale>
<asrwt>0</asrwt>
<pdfrwt beam="1">  1       21 0.34394699E-01 0.25132260E+03</pdfrwt>
<pdfrwt beam="2">  1       -1 0.15414465E+00 0.25132260E+03</pdfrwt>
<totfact> 0.26358337E+02</totfact>
</mgrwt>
</event>
<event>
 5    0  0.2947253E-001  0.3088882E+03  0.7546771E-02  0.1080880E+00
          2   -1    0    0  502    0 -0.00000000000E+00  0.00000000000E+00  0.25947344362E+04  0.25947344362E+04  0.00000000000E+00 0.  1.
         21   -1    0    0  503  502  0.00000000000E+00 -0.00000000000E+00 -0.76735318948E+02  0.76735318948E+02  0.00000000000E+00 0.  1.
         25    1    1    2    0    0  0.31815110393E+03  0.29331004278E+02  0.40418612584E+03  0.53016210452E+03  0.12500000000E+03 0.  0.
         21    1    1    2  503  501 -0.42113880245E+02 -0.76084362880E+01  0.10324907462E+03  0.11176689412E+03  0.00000000000E+00 0.  1.
          2    1    1    2  501    0 -0.27603722369E+03 -0.21722567990E+02  0.20105639168E+04  0.20295407565E+04  0.00000000000E+00 0.  1.
<mgrwt>
<rscale>  4 0.30888819E+03</rscale>
<asrwt>0</asrwt>
<pdfrwt beam="1">  1       21 0.11805436E-01 0.30888819E+03</pdfrwt>
<pdfrwt beam="2">  1        2 0.39918985E+00 0.30888819E+03</pdfrwt>
<totfact> 0.26518993E+03</totfact>
</mgrwt>
</event>
<event>
 5    0  0.2947253E-001  0.2746740E+03  0.7546771E-02  0.1098634E+00
         21   -1    0    0  503  502  0.00000000000E+00  0.00000000000E+00  0.23568882246E+03  0.23568882246E+03  0.00000000000E+00 0.  1.
          2   -1    0    0  502    0 -0.00000000000E+00 -0.00000000000E+00 -0.20257323441E+04  0.20257323441E+04  0.00000000000E+00 0. -1.
         25    1    1    2    0    0 -0.13725330426E+03 -0.20244097720E+03  0.14460077284E+03  0.31041134368E+03  0.12500000000E+03 0.  0.
         21    1    1    2  503  501  0.13606550907E+02  0.60522701061E+02 -0.59072602041E+03  0.59397421388E+03  0.00000000000E+00 0.  1.
          2    1    1    2  501    0  0.12364675335E+03  0.14191827614E+03 -0.13439182741E+04  0.13570356090E+04  0.00000000000E+00 0. -1.
<mgrwt>
<rscale>  4 0.27467402E+03</rscale>
<asrwt>0</asrwt>
<pdfrwt beam="1">  1       21 0.36259818E-01 0.27467402E+03</pdfrwt>
<pdfrwt beam="2">  1        2 0.31165114E+00 0.27467402E+03</pdfrwt>
<totfact> 0.65010467E+02</totfact>
</mgrwt>
</event>
<event>
 5    0  0.2947253E-001  0.2867785E+03  0.7546771E-02  0.1092043E+00
         21   -1    0    0  503  502  0.00000000000E+00  0.00000000000E+00  0.65840718535E+02  0.65840718535E+02  0.00000000000E+00 0. -1.
          2   -1    0    0  502    0 -0.00000000000E+00 -0.00000000000E+00 -0.16923833820E+04  0.16923833820E+04  0.00000000000E+00 0.  1.
         25    1    1    2    0    0 -0.98160547082E+02 -0.25495807884E+03 -0.42448520929E+03  0.52004981288E+03  0.12500000000E+03 0.  0.
         21    1    1    2  503  501 -0.60698162833E+01  0.46714169820E+02 -0.40692034292E+03  0.40963791549E+03  0.00000000000E+00 0.  1.
          2    1    1    2  501    0  0.10423036337E+03  0.20824390902E+03 -0.79513711131E+03  0.82853637221E+03  0.00000000000E+00 0.  1.
<mgrwt>
<rscale>  4 0.28677849E+03</rscale>
<asrwt>0</asrwt>
<pdfrwt beam="1">  1       21 0.10129341E-01 0.28677849E+03</pdfrwt>
<pdfrwt beam="2">  1        2 0.26036669E+00 0.28677849E+03</pdfrwt>
<totfact> 0.10703728E+04</totfact>
</mgrwt>
</event>
<event>
 5    0  0.2947253E-001  0.7841244E+03  0.7546771E-02  0.9583285E-01
          2   -1    0    0  502    0 -0.00000000000E+00  0.00000000000E+00  0.19400375814E+04  0.19400375814E+04  0.00000000000E+00 0.  1.
         21   -1    0    0  503  502  0.00000000000E+00 -0.00000000000E+00 -0.37768260117E+03  0.37768260117E+03  0.00000000000E+00 0.  1.
         25    1    1    2    0    0 -0.76685210872E+03 -0.10565940793E+03  0.12512634524E+04  0.14766554421E+04  0.12500000000E+03 0.  0.
         21    1    1    2  503  501  0.98934563760E+02  0.27394777779E+02  0.66422276708E+01  0.10287196384E+03  0.00000000000E+00 0.  1.
          2    1    1    2  501    0  0.66791754496E+03  0.78264630153E+02  0.30444930013E+03  0.73819277669E+03  0.00000000000E+00 0.  1.
<mgrwt>
<rscale>  4 0.78412440E+03</rscale>
<asrwt>0</asrwt>
<pdfrwt beam="1">  1       21 0.58105017E-01 0.78412440E+03</pdfrwt>
<pdfrwt beam="2">  1        2 0.29846732E+00 0.78412440E+03</pdfrwt>
<totfact> 0.22863893E+02</totfact>
</mgrwt>
</event>
<event>
 5    0  0.2947253E-001  0.2470833E+03  0.7546771E-02  0.1115162E+00
          2   -1    0    0  502    0 -0.00000000000E+00  0.00000000000E+00  0.18135973970E+03  0.18135973970E+03  0.00000000000E+00 0. -1.
         21   -1    0    0  503  502  0.00000000000E+00 -0.00000000000E+00 -0.31507639784E+03  0.31507639784E+03  0.00000000000E+00 0. -1.
         25    1    1    2    0    0  0.59696617781E+02  0.20460078357E+03 -0.43225915561E+02  0.25083589573E+03  0.12500000000E+03 0.  0.
         21    1    1    2  503  501 -0.40646917562E+02 -0.88335115836E+02 -0.82487885925E+02  0.12751280689E+03  0.00000000000E+00 0. -1.
          2    1    1    2  501    0 -0.19049700219E+02 -0.11626566773E+03 -0.80028566588E+01  0.11808743492E+03  0.00000000000E+00 0. -1.
<mgrwt>
<rscale>  4 0.24708332E+03</rscale>
<asrwt>0</asrwt>
<pdfrwt beam="1">  1       21 0.48473292E-01 0.24708332E+03</pdfrwt>
<pdfrwt beam="2">  1        2 0.27901498E-01 0.24708332E+03</pdfrwt>
<totfact> 0.93985724E+03</totfact>
</mgrwt>
</event>
<event>
 5    0  0.2947253E-001  0.2507658E+03  0.7546771E-02  0.1112822E+00
          2   -1    0    0  502    0 -0.00000000000E+00  0.00000000000E+00  0.60541324600E+03  0.60541324600E+03  0.00000000000E+00 0.  1.
         21   -1    0    0  503  502  0.00000000000E+00 -0.00000000000E+00 -0.20087460757E+03  0.20087460757E+03  0.00000000000E+00 0.  1.
         25    1    1    2    0    0  0.21207847071E+03  0.47762134929E+02 -0.89044783244E+02  0.26610613051E+03  0.12500000000E+03 0.  0.
         21    1    1    2  503  501 -0.24881292117E+02 -0.31429107739E-01  0.39123831969E+02  0.46365438779E+02  0.00000000000E+00 0. -1.
          2    1    1    2  501    0 -0.18719717859E+03 -0.47730705821E+02  0.45445958971E+03  0.49381628429E+03  0.00000000000E+00 0.  1.
<mgrwt>
<rscale>  4 0.25076583E+03</rscale>
<asrwt>0</asrwt>
<pdfrwt beam="1">  1       21 0.30903786E-01 0.25076583E+03</pdfrwt>
<pdfrwt beam="2">  1        2 0.93140499E-01 0.25076583E+03</pdfrwt>
<totfact> 0.62065444E+03</totfact>
</mgrwt>
</event>
<event>
 5    0  0.2947253E-001  0.2454944E+03  0.7546771E-02  0.1116186E+00
         21   -1    0    0  503  502  0.00000000000E+00  0.00000000000E+00  0.14106361338E+04  0.14106361338E+04  0.00000000000E+00 0.  1.
          2   -1    0    0  502    0 -0.00000000000E+00 -0.00000000000E+00 -0.83040651290E+03  0.83040651290E+03  0.00000000000E+00 0.  1.
         25    1    1    2    0    0  0.11152675441E+03 -0.19049585584E+03  0.13581498084E+04  0.13816377202E+04  0.12500000000E+03 0.  0.
         21    1    1    2  503  501 -0.10029609532E+03  0.80018792862E+02 -0.76777336196E+02  0.14952281866E+03  0.00000000000E+00 0.  1.
          2    1    1    2  501    0 -0.11230659093E+02  0.11047706298E+03 -0.70114285124E+03  0.70988210781E+03  0.00000000000E+00 0.  1.
<mgrwt>
<rscale>  4 0.24549442E+03</rscale>
<asrwt>0</asrwt>
<pdfrwt beam="1">  1       21 0.21702094E+00 0.24549442E+03</pdfrwt>
<pdfrwt beam="2">  1        2 0.12775485E+00 0.24549442E+03</pdfrwt>
<totfact> 0.42529692E+01</totfact>
</mgrwt>
</event>
<event>
 5    0  0.2947253E-001  0.2411272E+03  0.7546771E-02  0.1119044E+00
          2   -1    0    0  502    0 -0.00000000000E+00  0.00000000000E+00  0.13072859074E+04  0.13072859074E+04  0.00000000000E+00 0.  1.
         21   -1    0    0  503  502  0.00000000000E+00 -0.00000000000E+00 -0.36438289843E+03  0.36438289843E+03  0.00000000000E+00 0. -1.
         25    1    1    2    0    0 -0.20142456548E+03 -0.48606449397E+02 -0.30655264773E+03  0.39055597336E+03  0.12500000000E+03 0.  0.
         21    1    1    2  503  501  0.39559914413E+02 -0.70376933293E+02  0.41873227518E+03  0.42644415560E+03  0.00000000000E+00 0.  1.
          2    1    1    2  501    0  0.16186465106E+03  0.11898338269E+03  0.83072338156E+03  0.85466867691E+03  0.00000000000E+00 0.  1.
<mgrwt>
<rscale>  4 0.24112722E+03</rscale>
<asrwt>0</asrwt>
<pdfrwt beam="1">  1       21 0.56058908E-01 0.24112722E+03</pdfrwt>
<pdfrwt beam="2">  1        2 0.20112091E+00 0.24112722E+03</pdfrwt>
<totfact> 0.64718208E+02</totfact>
</mgrwt>
</event>
<event>
 5    0  0.2947253E-001  0.2388052E+03  0.7546771E-02  0.1120591E+00
         21   -1    0    0  503  502  0.00000000000E+00  0.00000000000E+00  0.49520197849E+02  0.49520197849E+02  0.00000000000E+00 0.  1.
          1   -1    0    0  502    0 -0.00000000000E+00 -0.00000000000E+00 -0.10546954010E+04  0.10546954010E+04  0.00000000000E+00 0.  1.
         25    1    1    2    0    0 -0.19049126090E+03 -0.71526170308E+02 -0.43311422096E+03  0.49458653633E+03  0.12500000000E+03 0.  0.
         21    1    1    2  503  501  0.47329527330E+02 -0.58844466434E+01 -0.11748808152E+03  0.12679968521E+03  0.00000000000E+00 0.  1.
          1    1    1    2  501    0  0.14316173357E+03  0.77410616952E+02 -0.45457290072E+03  0.48282937736E+03  0.00000000000E+00 0.  1.
<mgrwt>
<rscale>  4 0.23880518E+03</rscale>
<asrwt>0</asrwt>
<pdfrwt beam="1">  1       21 0.76184924E-02 0.23880518E+03</pdfrwt>
<pdfrwt beam="2">  1        1 0.16226082E+00 0.23880518E+03</pdfrwt>
<totfact> 0.21208656E+04</totfact>
</mgrwt>
</event>
<event>
 5    0  0.2947253E-001  0.4808668E+03  0.7546771E-02  0.1018897E+00
         21   -1    0    0  503  502  0.00000000000E+00  0.00000000000E+00  0.38365908492E+03  0.38365908492E+03  0.00000000000E+00 0. -1.
          1   -1    0    0  502    0 -0.00000000000E+00 -0.00000000000E+00 -0.17695276643E+04  0.17695276643E+04  0.00000000000E+00 0.  1.
         25    1    1    2    0    0  0.45787930031E+03 -0.77165230059E+02  0.18241634679E+03  0.51430404427E+03  0.12500000000E+03 0.  0.
         21    1    1    2  503  501 -0.17619257567E+03  0.36140203805E+02 -0.78883036036E+03  0.80907556846E+03  0.00000000000E+00 0.  1.
          1    1    1    2  501    0 -0.28168672464E+03  0.41025026255E+02 -0.77945456583E+03  0.82980713651E+03  0.00000000000E+00 0.  1.
<mgrwt>
<rscale>  4 0.48086685E+03</rscale>
<asrwt>0</asrwt>
<pdfrwt beam="1">  1       21 0.59024475E-01 0.48086685E+03</pdfrwt>
<pdfrwt beam="2">  1        1 0.27223503E+00 0.48086685E+03</pdfrwt>
<totfact> 0.12478121E+02</totfact>
</mgrwt>
</event>
<event>
 5    0  0.2947253E-001  0.2534997E+03  0.7546771E-02  0.1111113E+00
          1   -1    0    0  502    0 -0.00000000000E+00  0.00000000000E+00  0.60625570296E+02  0.60625570296E+02  0.00000000000E+00 0.  1.
         21   -1    0    0  503  502  0.00000000000E+00 -0.00000000000E+00 -0.11377421380E+04  0.11377421380E+04  0.00000000000E+00 0.  1.
         25    1    1    2    0    0  0.20451101291E+03 -0.70424448454E+02 -0.69114241414E+03  0.73490624842E+03  0.12500000000E+03 0.  0.
         21    1    1    2  503  501  0.13057169429E+02  0.21635346955E+02 -0.86381471833E+02  0.90001869911E+02  0.00000000000E+00 0.  1.
          1    1    1    2  501    0 -0.21756818234E+03  0.48789101498E+02 -0.29959268173E+03  0.37345958996E+03  0.00000000000E+00 0.  1.
<mgrwt>
<rscale>  4 0.25349970E+03</rscale>
<asrwt>0</asrwt>
<pdfrwt beam="1">  1       21 0.17503726E+00 0.25349970E+03</pdfrwt>
<pdfrwt beam="2">  1        1 0.93270103E-02 0.25349970E+03</pdfrwt>
<totfact> 0.14320840E+03</totfact>
</mgrwt>
</event>
<event>
 5    0  0.2947253E-001  0.2421576E+03  0.7546771E-02  0.1118364E+00
          1   -1    0    0  502    0 -0.00000000000E+00  0.00000000000E+00  0.14400284111E+04  0.14400284111E+04  0.00000000000E+00 0. -1.
         21   -1    0    0  503  502  0.00000000000E+00 -0.00000000000E+00 -0.72383614222E+02  0.72383614222E+02  0.00000000000E+00 0.  1.
         25    1    1    2    0    0  0.10425579629E+03 -0.17929312874E+03  0.17100545648E+03  0.29645094573E+03  0.12500000000E+03 0.  0.
         21    1    1    2  503  501 -0.30097619182E+02  0.35177385427E+02  0.15428415940E+03  0.16108046737E+03  0.00000000000E+00 0.  1.
          1    1    1    2  501    0 -0.74158177107E+02  0.14411574332E+03  0.10423551810E+04  0.10548806122E+04  0.00000000000E+00 0. -1.
<mgrwt>
<rscale>  4 0.24215759E+03</rscale>
<asrwt>0</asrwt>
<pdfrwt beam="1">  1       21 0.11135942E-01 0.24215759E+03</pdfrwt>
<pdfrwt beam="2">  1        1 0.22154281E+00 0.24215759E+03</pdfrwt>
<totfact> 0.58606142E+03</totfact>
</mgrwt>
</event>
<event>
 5    0  0.2947253E-001  0.4265897E+03  0.7546771E-02  0.1034943E+00
          2   -1    0    0  502    0 -0.00000000000E+00  0.00000000000E+00  0.66141660349E+03  0.66141660349E+03  0.00000000000E+00 0. -1.
         21   -1    0    0  503  502  0.00000000000E+00 -0.00000000000E+00 -0.37774318734E+03  0.37774318734E+03  0.00000000000E+00 0. -1.
         25    1    1    2    0    0  0.10047782656E+03 -0.39529475387E+03 -0.13067224055E+03  0.44615464866E+03  0.12500000000E+03 0.  0.
         21    1    1    2  503  501  0.49739240829E+01  0.17352513997E+03  0.12740151419E+03  0.21532965412E+03  0.00000000000E+00 0. -1.
          2    1    1    2  501    0 -0.10545175065E+03  0.22176961390E+03  0.28694414251E+03  0.37767548806E+03  0.00000000000E+00 0. -1.
<mgrwt>
<rscale>  4 0.42658966E+03</rscale>
<asrwt>0</asrwt>
<pdfrwt beam="1">  1       21 0.58114337E-01 0.42658966E+03</pdfrwt>
<pdfrwt beam="2">  1        2 0.10175640E+00 0.42658966E+03</pdfrwt>
<totfact> 0.14515616E+03</totfact>
</mgrwt>
</event>
<event>
 5    0  0.2947253E-001  0.4176795E+03  0.7546771E-02  0.1037824E+00
         21   -1    0    0  503  502  0.00000000000E+00  0.00000000000E+00  0.12992511958E+04  0.12992511958E+04  0.00000000000E+00 0.  1.
          3   -1    0    0  502    0 -0.00000000000E+00 -0.00000000000E+00 -0.32920671536E+03  0.32920671536E+03  0.00000000000E+00 0.  1.
         25    1    1    2    0    0  0.15117498048E+03 -0.37254665609E+03  0.82143273250E+03  0.92305017183E+03  0.12500000000E+03 0.  0.
         21    1    1    2  503  501 -0.23727902812E+03 -0.61379513047E+02  0.79464911148E+02  0.25764986689E+03  0.00000000000E+00 0. -1.
          3    1    1    2  501    0  0.86104047636E+02  0.43392616913E+03  0.69146836753E+02  0.44775787242E+03  0.00000000000E+00 0.  1.
<mgrwt>
<rscale>  4 0.41767952E+03</rscale>
<asrwt>0</asrwt>
<pdfrwt beam="1">  1       21 0.19988480E+00 0.41767952E+03</pdfrwt>
<pdfrwt beam="2">  1        3 0.50647188E-01 0.41767952E+03</pdfrwt>
<totfact> 0.23178420E+01</totfact>
</mgrwt>
</event>
<event>
 5    0  0.2947253E-001  0.3248662E+03  0.7546771E-02  0.1073431E+00
         21   -1    0    0  503  502  0.00000000000E+00  0.00000000000E+00  0.33422472284E+03  0.33422472284E+03  0.00000000000E+00 0. -1.
          2   -1    0    0  502    0 -0.00000000000E+00 -0.00000000000E+00 -0.23052732690E+04  0.23052732690E+04  0.00000000000E+00 0.  1.
         25    1    1    2    0    0  0.18603565168E+03  0.23933503201E+03  0.22751666656E+03  0.39909817690E+03  0.12500000000E+03 0.  0.
         21    1    1    2  503  501 -0.71099210499E+02 -0.50308534873E+02 -0.11074587967E+03  0.14089249901E+03  0.00000000000E+00 0.  1.
          2    1    1    2  501    0 -0.11493644118E+03 -0.18902649713E+03 -0.20878193330E+04  0.20995073159E+04  0.00000000000E+00 0.  1.
<mgrwt>
<rscale>  4 0.32486619E+03</rscale>
<asrwt>0</asrwt>
<pdfrwt beam="1">  1       21 0.51419189E-01 0.32486619E+03</pdfrwt>
<pdfrwt beam="2">  1        2 0.35465742E+00 0.32486619E+03</pdfrwt>
<totfact> 0.21830783E+02</totfact>
</mgrwt>
</event>
<event>
 5    0  0.2947253E-001  0.3585954E+03  0.7546771E-02  0.1059141E+00
          2   -1    0    0  502    0 -0.00000000000E+00  0.00000000000E+00  0.22190083463E+04  0.22190083463E+04  0.00000000000E+00 0. -1.
         21   -1    0    0  503  502  0.00000000000E+00 -0.00000000000E+00 -0.61546560049E+02  0.61546560049E+02  0.00000000000E+00 0. -1.
         25    1    1    2    0    0  0.15186692822E+03 -0.29983674000E+03  0.73644607496E+03  0.81911138184E+03  0.12500000000E+03 0.  0.
         21    1    1    2  503  501 -0.19659052691E+01  0.49698787687E+02  0.21184439626E+03  0.21760487703E+03  0.00000000000E+00 0. -1.
          2    1    1    2  501    0 -0.14990102295E+03  0.25013795231E+03  0.12091713151E+04  0.12438386475E+04  0.00000000000E+00 0. -1.
<mgrwt>
<rscale>  4 0.35859536E+03</rscale>
<asrwt>0</asrwt>
<pdfrwt beam="1">  1       21 0.94687033E-02 0.35859536E+03</pdfrwt>
<pdfrwt beam="2">  1        2 0.34138584E+00 0.35859536E+03</pdfrwt>
<totfact> 0.62184608E+03</totfact>
</mgrwt>
</event>
<event>
 5    0  0.2947253E-001  0.5458177E+03  0.7546771E-02  0.1002467E+00
         21   -1    0    0  503  502  0.00000000000E+00  0.00000000000E+00  0.16042621424E+03  0.16042621424E+03  0.00000000000E+00 0.  1.
          2   -1    0    0  502    0 -0.00000000000E+00 -0.00000000000E+00 -0.24346598995E+04  0.24346598995E+04  0.00000000000E+00 0.  1.
         25    1    1    2    0    0 -0.39225638026E+03 -0.43364216047E+03 -0.11058624408E+04  0.12571663888E+04  0.12500000000E+03 0.  0.
         21    1    1    2  503  501  0.15252313355E+03 -0.12689872145E+01 -0.32912864211E+03  0.36275415871E+03  0.00000000000E+00 0.  1.
          2    1    1    2  501    0  0.23973324670E+03  0.43491114768E+03 -0.83924260238E+03  0.97516556625E+03  0.00000000000E+00 0.  1.
<mgrwt>
<rscale>  4 0.54581774E+03</rscale>
<asrwt>0</asrwt>
<pdfrwt beam="1">  1       21 0.24680956E-01 0.54581774E+03</pdfrwt>
<pdfrwt beam="2">  1        2 0.37456306E+00 0.54581774E+03</pdfrwt>
<totfact> 0.75726455E+02</totfact>
</mgrwt>
</event>
<event>
 5    0  0.2947253E-001  0.2427724E+03  0.7546771E-02  0.1117960E+00
         21   -1    0    0  503  502  0.00000000000E+00  0.00000000000E+00  0.12384686697E+03  0.12384686697E+03  0.00000000000E+00 0.  1.
          3   -1    0    0  502    0 -0.00000000000E+00 -0.00000000000E+00 -0.79692186343E+03  0.79692186343E+03  0.00000000000E+00 0.  1.
         25    1    1    2    0    0 -0.30052293727E+02 -0.20916044273E+03 -0.40592884621E+02  0.24884536050E+03  0.12500000000E+03 0.  0.
         21    1    1    2  503  501 -0.13110178910E+02  0.19071285678E+02 -0.25626793097E+02  0.34530034071E+02  0.00000000000E+00 0. -1.
          3    1    1    2  501    0  0.43162472637E+02  0.19008915705E+03 -0.60685531874E+03  0.63739333583E+03  0.00000000000E+00 0.  1.
<mgrwt>
<rscale>  4 0.24277236E+03</rscale>
<asrwt>0</asrwt>
<pdfrwt beam="1">  1       21 0.19053364E-01 0.24277236E+03</pdfrwt>
<pdfrwt beam="2">  1        3 0.12260337E+00 0.24277236E+03</pdfrwt>
<totfact> 0.69953352E+02</totfact>
</mgrwt>
</event>
<event>
 5    0  0.2947253E-001  0.5257980E+03  0.7546771E-02  0.1007256E+00
          2   -1    0    0  502    0 -0.00000000000E+00  0.00000000000E+00  0.93183675057E+03  0.93183675057E+03  0.00000000000E+00 0. -1.
         21   -1    0    0  503  502  0.00000000000E+00 -0.00000000000E+00 -0.64338871355E+03  0.64338871355E+03  0.00000000000E+00 0. -1.
         25    1    1    2    0    0  0.15128414644E+03  0.49995935341E+03 -0.39313479440E+03  0.66560214437E+03  0.12500000000E+03 0.  0.
         21    1    1    2  503  501  0.56226200071E+02 -0.77189878294E+02  0.26204713583E+03  0.27890565480E+03  0.00000000000E+00 0. -1.
          2    1    1    2  501    0 -0.20751034651E+03 -0.42276947512E+03  0.41953569559E+03  0.63071766494E+03  0.00000000000E+00 0. -1.
<mgrwt>
<rscale>  4 0.52579798E+03</rscale>
<asrwt>0</asrwt>
<pdfrwt beam="1">  1       21 0.98982879E-01 0.52579798E+03</pdfrwt>
<pdfrwt beam="2">  1        2 0.14335950E+00 0.52579798E+03</pdfrwt>
<totfact> 0.26730060E+02</totfact>
</mgrwt>
</event>
<event>
 5    0  0.2947253E-001  0.2492790E+03  0.7546771E-02  0.1113761E+00
          1   -1    0    0  502    0 -0.00000000000E+00  0.00000000000E+00  0.14883561714E+03  0.14883561714E+03  0.00000000000E+00 0. -1.
         21   -1    0    0  503  502  0.00000000000E+00 -0.00000000000E+00 -0.40984040687E+03  0.40984040687E+03  0.00000000000E+00 0. -1.
         25    1    1    2    0    0  0.52805088682E+01  0.21560873639E+03 -0.48980409650E+02  0.25404545167E+03  0.12500000000E+03 0.  0.
         21    1    1    2  503  501  0.27298595956E+01 -0.27466429730E+02 -0.12584661825E+02  0.30335303011E+02  0.00000000000E+00 0. -1.
          1    1    1    2  501    0 -0.80103684639E+01 -0.18814230666E+03 -0.19943971826E+03  0.27429526934E+03  0.00000000000E+00 0. -1.
<mgrwt>
<rscale>  4 0.24927898E+03</rscale>
<asrwt>0</asrwt>
<pdfrwt beam="1">  1       21 0.63052370E-01 0.24927898E+03</pdfrwt>
<pdfrwt beam="2">  1        1 0.22897787E-01 0.24927898E+03</pdfrwt>
<totfact> 0.53036019E+03</totfact>
</mgrwt>
</event>
<event>
 5    0  0.2947253E-001  0.2674834E+03  0.7546771E-02  0.1102729E+00
         21   -1    0    0  503  502  0.00000000000E+00  0.00000000000E+00  0.31384866010E+02  0.31384866010E+02  0.00000000000E+00 0. -1.
          2   -1    0    0  502    0 -0.00000000000E+00 -0.00000000000E+00 -0.44219032152E+04  0.44219032152E+04  0.00000000000E+00 0.  1.
         25    1    1    2    0    0 -0.96304048938E+02 -0.21598123419E+03 -0.62862655410E+03  0.68316814027E+03  0.12500000000E+03 0.  0.
         21    1    1    2  503  501  0.26092824684E+02  0.58608327525E+02 -0.57402035235E+03  0.57759426630E+03  0.00000000000E+00 0. -1.
          2    1    1    2  501    0  0.70211224254E+02  0.15737290666E+03 -0.31878714427E+04  0.31925256746E+04  0.00000000000E+00 0.  1.
<mgrwt>
<rscale>  4 0.26748339E+03</rscale>
<asrwt>0</asrwt>
<pdfrwt beam="1">  1       21 0.48284413E-02 0.26748339E+03</pdfrwt>
<pdfrwt beam="2">  1        2 0.68029274E+00 0.26748339E+03</pdfrwt>
<totfact> 0.72742093E+02</totfact>
</mgrwt>
</event>
<event>
 5    0  0.2947253E-001  0.3811165E+03  0.7546771E-02  0.1050522E+00
          1   -1    0    0  502    0 -0.00000000000E+00  0.00000000000E+00  0.14262288788E+04  0.14262288788E+04  0.00000000000E+00 0.  1.
         21   -1    0    0  503  502  0.00000000000E+00 -0.00000000000E+00 -0.16159790097E+03  0.16159790097E+03  0.00000000000E+00 0.  1.
         25    1    1    2    0    0  0.32505651908E+03 -0.15604371367E+03  0.15540054877E+03  0.41205061792E+03  0.12500000000E+03 0.  0.
         21    1    1    2  503  501 -0.15282650511E+02 -0.25306482765E+02  0.60933302815E+02  0.67726249479E+02  0.00000000000E+00 0.  1.
          1    1    1    2  501    0 -0.30977386857E+03  0.18135019643E+03  0.10482971263E+04  0.11080499124E+04  0.00000000000E+00 0.  1.
<mgrwt>
<rscale>  4 0.38111654E+03</rscale>
<asrwt>0</asrwt>
<pdfrwt beam="1">  1       21 0.24861217E-01 0.38111654E+03</pdfrwt>
<pdfrwt beam="2">  1        1 0.21941982E+00 0.38111654E+03</pdfrwt>
<totfact> 0.12879624E+03</totfact>
</mgrwt>
</event>
<event>
 5    0  0.2947253E-001  0.2734455E+03  0.7546771E-02  0.1099324E+00
         21   -1    0    0  501  502  0.00000000000E+00  0.00000000000E+00  0.26589071441E+03  0.26589071441E+03  0.00000000000E+00 0.  1.
         -3   -1    0    0    0  501 -0.00000000000E+00 -0.00000000000E+00 -0.25941950359E+03  0.25941950359E+03  0.00000000000E+00 0. -1.
         25    1    1    2    0    0  0.24383404187E+01 -0.24319022306E+03  0.37551371464E+02  0.27601183959E+03  0.12500000000E+03 0.  0.
         21    1    1    2  501  501 -0.17908526890E+02  0.54805281813E+02 -0.15120393404E+02  0.59606715617E+02  0.00000000000E+00 0. -1.
         -3    1    1    2    0  502  0.15470186471E+02  0.18838494125E+03 -0.15959767244E+02  0.18969166278E+03  0.00000000000E+00 0. -1.
<mgrwt>
<rscale>  4 0.27344548E+03</rscale>
<asrwt>0</asrwt>
<pdfrwt beam="1">  1       21 0.40906263E-01 0.27344548E+03</pdfrwt>
<pdfrwt beam="2">  1       -3 0.39910693E-01 0.27344548E+03</pdfrwt>
<totfact> 0.17636415E+03</totfact>
</mgrwt>
</event>
<event>
 5    0  0.2947253E-001  0.3030791E+03  0.7546771E-02  0.1083711E+00
         21   -1    0    0  503  502  0.00000000000E+00  0.00000000000E+00  0.31320896026E+03  0.31320896026E+03  0.00000000000E+00 0.  1.
          2   -1    0    0  502    0 -0.00000000000E+00 -0.00000000000E+00 -0.61786690707E+03  0.61786690707E+03  0.00000000000E+00 0.  1.
         25    1    1    2    0    0  0.21892179635E+01  0.27609268286E+03  0.18584503825E+03  0.35552122362E+03  0.12500000000E+03 0.  0.
         21    1    1    2  503  501  0.46727143126E+02 -0.48923878837E+02 -0.91135560828E+02  0.11350181616E+03  0.00000000000E+00 0. -1.
          2    1    1    2  501    0 -0.48916361090E+02 -0.22716880402E+03 -0.39936742423E+03  0.46205282754E+03  0.00000000000E+00 0.  1.
<mgrwt>
<rscale>  4 0.30307914E+03</rscale>
<asrwt>0</asrwt>
<pdfrwt beam="1">  1       21 0.48185994E-01 0.30307914E+03</pdfrwt>
<pdfrwt beam="2">  1        2 0.95056446E-01 0.30307914E+03</pdfrwt>
<totfact> 0.24253532E+03</totfact>
</mgrwt>
</event>
<event>
 5    0  0.2947253E-001  0.2457236E+03  0.7546771E-02  0.1116038E+00
          1   -1    0    0  502    0 -0.00000000000E+00  0.00000000000E+00  0.60105591311E+03  0.60105591311E+03  0.00000000000E+00 0. -1.
         21   -1    0    0  503  502  0.00000000000E+00 -0.00000000000E+00 -0.32652290386E+03  0.32652290386E+03  0.00000000000E+00 0. -1.
         25    1    1    2    0    0  0.20451150544E+03 -0.61174537140E+02 -0.25210217563E+03  0.35319652718E+03  0.12500000000E+03 0.  0.
         21    1    1    2  503  501 -0.27156011764E+02 -0.18684656418E+02  0.53679725710E+02  0.62992684597E+02  0.00000000000E+00 0.  1.
          1    1    1    2  501    0 -0.17735549368E+03  0.79859193558E+02  0.47295545918E+03  0.51138960519E+03  0.00000000000E+00 0. -1.
<mgrwt>
<rscale>  4 0.24572365E+03</rscale>
<asrwt>0</asrwt>
<pdfrwt beam="1">  1       21 0.50234293E-01 0.24572365E+03</pdfrwt>
<pdfrwt beam="2">  1        1 0.92470140E-01 0.24572365E+03</pdfrwt>
<totfact> 0.14351389E+03</totfact>
</mgrwt>
</event>
<event>
 5    0  0.2947253E-001  0.2760052E+03  0.7546771E-02  0.1097891E+00
         21   -1    0    0  503  502  0.00000000000E+00  0.00000000000E+00  0.50244868188E+03  0.50244868188E+03  0.00000000000E+00 0. -1.
          1   -1    0    0  502    0 -0.00000000000E+00 -0.00000000000E+00 -0.59919512236E+03  0.59919512236E+03  0.00000000000E+00 0. -1.
         25    1    1    2    0    0  0.24598704348E+03 -0.66500001102E+01  0.43457748018E+03  0.51481689399E+03  0.12500000000E+03 0.  0.
         21    1    1    2  503  501 -0.28887430373E+02  0.51915963599E+01 -0.39449300531E+02  0.49169946296E+02  0.00000000000E+00 0.  1.
          1    1    1    2  501    0 -0.21709961311E+03  0.14584037503E+01 -0.49187462013E+03  0.53765696395E+03  0.00000000000E+00 0. -1.
<mgrwt>
<rscale>  4 0.27600516E+03</rscale>
<asrwt>0</asrwt>
<pdfrwt beam="1">  1       21 0.77299797E-01 0.27600516E+03</pdfrwt>
<pdfrwt beam="2">  1        1 0.92183865E-01 0.27600516E+03</pdfrwt>
<totfact> 0.55644844E+02</totfact>
</mgrwt>
</event>
<event>
 5    0  0.2947253E-001  0.2938415E+03  0.7546771E-02  0.1088360E+00
         21   -1    0    0  501  502  0.00000000000E+00  0.00000000000E+00  0.10714884948E+04  0.10714884948E+04  0.00000000000E+00 0. -1.
         -1   -1    0    0    0  501 -0.00000000000E+00 -0.00000000000E+00 -0.78903076439E+03  0.78903076439E+03  0.00000000000E+00 0. -1.
         25    1    1    2    0    0 -0.26450668126E+03  0.27460125503E+02  0.10232695993E+04  0.10646236498E+04  0.12500000000E+03 0.  0.
         21    1    1    2  501  501  0.14025633314E+03  0.12335582492E+02 -0.52643949796E+03  0.54494270396E+03  0.00000000000E+00 0. -1.
         -1    1    1    2    0  502  0.12425034811E+03 -0.39795707995E+02 -0.21437237085E+03  0.25095290547E+03  0.00000000000E+00 0. -1.
<mgrwt>
<rscale>  4 0.29384153E+03</rscale>
<asrwt>0</asrwt>
<pdfrwt beam="1">  1       21 0.16484438E+00 0.29384153E+03</pdfrwt>
<pdfrwt beam="2">  1       -1 0.12138935E+00 0.29384153E+03</pdfrwt>
<totfact> 0.12936083E+01</totfact>
</mgrwt>
</event>
<event>
 5    0  0.2947253E-001  0.3243499E+03  0.7546771E-02  0.1073665E+00
         21   -1    0    0  503  502  0.00000000000E+00  0.00000000000E+00  0.18985099664E+03  0.18985099664E+03  0.00000000000E+00 0. -1.
          1   -1    0    0  502    0 -0.00000000000E+00 -0.00000000000E+00 -0.78974319153E+03  0.78974319153E+03  0.00000000000E+00 0.  1.
         25    1    1    2    0    0  0.17353328861E+02  0.30623322446E+03 -0.56101574266E+03  0.65149335323E+03  0.12500000000E+03 0.  0.
         21    1    1    2  503  501  0.65525817523E+01 -0.26093145253E+02  0.28280860320E+02  0.39033262959E+02  0.00000000000E+00 0.  1.
          1    1    1    2  501    0 -0.23905910613E+02 -0.28014007921E+03 -0.67157312558E+02  0.28906757198E+03  0.00000000000E+00 0.  1.
<mgrwt>
<rscale>  4 0.32434988E+03</rscale>
<asrwt>0</asrwt>
<pdfrwt beam="1">  1       21 0.29207847E-01 0.32434988E+03</pdfrwt>
<pdfrwt beam="2">  1        1 0.12149895E+00 0.32434988E+03</pdfrwt>
<totfact> 0.28215581E+03</totfact>
</mgrwt>
</event>
<event>
 5    0  0.2947253E-001  0.2509894E+03  0.7546771E-02  0.1112681E+00
         21   -1    0    0  503  502  0.00000000000E+00  0.00000000000E+00  0.32878105005E+02  0.32878105005E+02  0.00000000000E+00 0. -1.
          2   -1    0    0  502    0 -0.00000000000E+00 -0.00000000000E+00 -0.31365859325E+04  0.31365859325E+04  0.00000000000E+00 0. -1.
         25    1    1    2    0    0 -0.19437515707E+03  0.97923248819E+02 -0.54374090182E+03  0.59887380362E+03  0.12500000000E+03 0.  0.
         21    1    1    2  503  501  0.16450151116E+03 -0.43253382491E+02 -0.19771734230E+04  0.19844763408E+04  0.00000000000E+00 0. -1.
          2    1    1    2  501    0  0.29873645913E+02 -0.54669866328E+02 -0.58279350263E+03  0.58611389312E+03  0.00000000000E+00 0. -1.
<mgrwt>
<rscale>  4 0.25098937E+03</rscale>
<asrwt>0</asrwt>
<pdfrwt beam="1">  1       21 0.50581697E-02 0.25098937E+03</pdfrwt>
<pdfrwt beam="2">  1        2 0.48255171E+00 0.25098937E+03</pdfrwt>
<totfact> 0.58262324E+03</totfact>
</mgrwt>
</event>
<event>
 5    0  0.2947253E-001  0.2422709E+03  0.7546771E-02  0.1118289E+00
         -2   -1    0    0    0  501 -0.00000000000E+00  0.00000000000E+00  0.10830086035E+03  0.10830086035E+03  0.00000000000E+00 0. -1.
         21   -1    0    0  501  502  0.00000000000E+00 -0.00000000000E+00 -0.74888456941E+03  0.74888456941E+03  0.00000000000E+00 0. -1.
         25    1    1    2    0    0 -0.20709716472E+03  0.28979620445E+02 -0.56549635058E+03  0.61574359644E+03  0.12500000000E+03 0.  0.
         21    1    1    2  501  501  0.96754537549E+01  0.20197986694E+02 -0.21506746128E+02  0.31050172316E+02  0.00000000000E+00 0.  1.
         -2    1    1    2    0  502  0.19742171096E+03 -0.49177607139E+02 -0.53580612350E+02  0.21039166101E+03  0.00000000000E+00 0. -1.
<mgrwt>
<rscale>  4 0.24227085E+03</rscale>
<asrwt>0</asrwt>
<pdfrwt beam="1">  1       21 0.11521301E+00 0.24227085E+03</pdfrwt>
<pdfrwt beam="2">  1       -2 0.16661671E-01 0.24227085E+03</pdfrwt>
<totfact> 0.13032617E+03</totfact>
</mgrwt>
</event>
<event>
 5    0  0.3890215E-001  0.3308075E+03  0.7546771E-02  0.1070780E+00
         21   -1    0    0  501  502  0.00000000000E+00  0.00000000000E+00  0.68040704251E+03  0.68040704251E+03  0.00000000000E+00 0.  1.
         -1   -1    0    0    0  501 -0.00000000000E+00 -0.00000000000E+00 -0.22054894939E+03  0.22054894939E+03  0.00000000000E+00 0.  1.
         25    1    1    2    0    0  0.10129065980E+03  0.29389297843E+03  0.46630507296E+03  0.57419360985E+03  0.12500000000E+03 0.  0.
         21    1    1    2  501  501  0.15551212510E+02 -0.24567422427E+02  0.14397084885E+02  0.32444945807E+02  0.00000000000E+00 0.  1.
         -1    1    1    2    0  502 -0.11684187231E+03 -0.26932555600E+03 -0.20844064728E+02  0.29431743624E+03  0.00000000000E+00 0.  1.
<mgrwt>
<rscale>  4 0.33080754E+03</rscale>
<asrwt>0</asrwt>
<pdfrwt beam="1">  1       21 0.10467801E+00 0.33080754E+03</pdfrwt>
<pdfrwt beam="2">  1       -1 0.33930608E-01 0.33080754E+03</pdfrwt>
<totfact> 0.52711280E+02</totfact>
</mgrwt>
</event>
<event>
 5    0  0.2947253E-001  0.2796337E+03  0.7546771E-02  0.1095889E+00
         21   -1    0    0  503  502  0.00000000000E+00  0.00000000000E+00  0.24538211963E+04  0.24538211963E+04  0.00000000000E+00 0.  1.
          3   -1    0    0  502    0 -0.00000000000E+00 -0.00000000000E+00 -0.50033342647E+02  0.50033342647E+02  0.00000000000E+00 0.  1.
         25    1    1    2    0    0 -0.18572303580E+03 -0.17169081877E+03  0.19951238174E+04  0.20149726624E+04  0.12500000000E+03 0.  0.
         21    1    1    2  503  501  0.25690278031E+02 -0.81143303510E+01  0.52449395094E+02  0.58964156808E+02  0.00000000000E+00 0.  1.
          3    1    1    2  501    0  0.16003275777E+03  0.17980514912E+03  0.35621464116E+03  0.42991771979E+03  0.00000000000E+00 0.  1.
<mgrwt>
<rscale>  4 0.27963367E+03</rscale>
<asrwt>0</asrwt>
<pdfrwt beam="1">  1       21 0.37751086E+00 0.27963367E+03</pdfrwt>
<pdfrwt beam="2">  1        3 0.76974393E-02 0.27963367E+03</pdfrwt>
<totfact> 0.62123439E+01</totfact>
</mgrwt>
</event>
<event>
 5    0  0.2947253E-001  0.2658722E+03  0.7546771E-02  0.1103666E+00
         21   -1    0    0  501  502  0.00000000000E+00  0.00000000000E+00  0.16534049059E+03  0.16534049059E+03  0.00000000000E+00 0.  1.
         -3   -1    0    0    0  501 -0.00000000000E+00 -0.00000000000E+00 -0.81520792706E+03  0.81520792706E+03  0.00000000000E+00 0. -1.
         25    1    1    2    0    0  0.22898313470E+03 -0.74330632823E+02  0.10450028542E+02  0.27146366617E+03  0.12500000000E+03 0.  0.
         21    1    1    2  501  501 -0.23697378312E+02  0.20469221612E+02 -0.19696965110E+03  0.19944322056E+03  0.00000000000E+00 0. -1.
         -3    1    1    2    0  502 -0.20528575639E+03  0.53861411210E+02 -0.46334781391E+03  0.50964153093E+03  0.00000000000E+00 0. -1.
<mgrwt>
<rscale>  4 0.26587220E+03</rscale>
<asrwt>0</asrwt>
<pdfrwt beam="1">  1       21 0.25436999E-01 0.26587220E+03</pdfrwt>
<pdfrwt beam="2">  1       -3 0.12541660E+00 0.26587220E+03</pdfrwt>
<totfact> 0.38038200E+02</totfact>
</mgrwt>
</event>
<event>
 5    0  0.2947253E-001  0.3234526E+03  0.7546771E-02  0.1074071E+00
         21   -1    0    0  501  502  0.00000000000E+00  0.00000000000E+00  0.55452546584E+03  0.55452546584E+03  0.00000000000E+00 0.  1.
         -1   -1    0    0    0  501 -0.00000000000E+00 -0.00000000000E+00 -0.24282324457E+03  0.24282324457E+03  0.00000000000E+00 0. -1.
         25    1    1    2    0    0  0.10384050935E+03 -0.27966721320E+03  0.34721327681E+03  0.47452993700E+03  0.12500000000E+03 0.  0.
         21    1    1    2  501  501  0.65079189016E+01  0.13131584507E+03 -0.41376899176E+02  0.13783414657E+03  0.00000000000E+00 0. -1.
         -1    1    1    2    0  502 -0.11034842826E+03  0.14835136813E+03  0.58658436363E+01  0.18498462684E+03  0.00000000000E+00 0. -1.
<mgrwt>
<rscale>  4 0.32345263E+03</rscale>
<asrwt>0</asrwt>
<pdfrwt beam="1">  1       21 0.85311610E-01 0.32345263E+03</pdfrwt>
<pdfrwt beam="2">  1       -1 0.37357422E-01 0.32345263E+03</pdfrwt>
<totfact> 0.72555264E+02</totfact>
</mgrwt>
</event>
<event>
 5    0  0.2947253E-001  0.2600402E+03  0.7546771E-02  0.1107119E+00
          1   -1    0    0  502    0 -0.00000000000E+00  0.00000000000E+00  0.10907210442E+04  0.10907210442E+04  0.00000000000E+00 0.  1.
         21   -1    0    0  503  502  0.00000000000E+00 -0.00000000000E+00 -0.16984198961E+03  0.16984198961E+03  0.00000000000E+00 0. -1.
         25    1    1    2    0    0  0.21650800904E+03  0.15782815967E+03  0.67874497968E+01  0.29573047770E+03  0.12500000000E+03 0.  0.
         21    1    1    2  503  501 -0.10039355000E+03 -0.11427245514E+03  0.27923652617E+03  0.31797813829E+03  0.00000000000E+00 0. -1.
          1    1    1    2  501    0 -0.11611445904E+03 -0.43555704529E+02  0.63485507865E+03  0.64685441784E+03  0.00000000000E+00 0.  1.
<mgrwt>
<rscale>  4 0.26004024E+03</rscale>
<asrwt>0</asrwt>
<pdfrwt beam="1">  1       21 0.26129537E-01 0.26004024E+03</pdfrwt>
<pdfrwt beam="2">  1        1 0.16780323E+00 0.26004024E+03</pdfrwt>
<totfact> 0.20863489E+03</totfact>
</mgrwt>
</event>
<event>
 5    0  0.2947253E-001  0.2395556E+03  0.7546771E-02  0.1120089E+00
          1   -1    0    0  502    0 -0.00000000000E+00  0.00000000000E+00  0.13299041322E+04  0.13299041322E+04  0.00000000000E+00 0.  1.
         21   -1    0    0  503  502  0.00000000000E+00 -0.00000000000E+00 -0.43416893243E+03  0.43416893243E+03  0.00000000000E+00 0.  1.
         25    1    1    2    0    0 -0.20444474809E+03 -0.93831131641E+01 -0.39078003876E+03  0.45849725902E+03  0.12500000000E+03 0.  0.
         21    1    1    2  503  501  0.99352983832E+01  0.23400018206E+02  0.10233866063E+03  0.10544890927E+03  0.00000000000E+00 0. -1.
          1    1    1    2  501    0  0.19450944971E+03 -0.14016905042E+02  0.11841765779E+04  0.12001268964E+04  0.00000000000E+00 0.  1.
<mgrwt>
<rscale>  4 0.23955557E+03</rscale>
<asrwt>0</asrwt>
<pdfrwt beam="1">  1       21 0.66795221E-01 0.23955557E+03</pdfrwt>
<pdfrwt beam="2">  1        1 0.20460063E+00 0.23955557E+03</pdfrwt>
<totfact> 0.20916005E+02</totfact>
</mgrwt>
</event>
<event>
 5    0  0.2947253E-001  0.3388304E+03  0.7546771E-02  0.1067295E+00
         -2   -1    0    0    0  501 -0.00000000000E+00  0.00000000000E+00  0.11832120678E+04  0.11832120678E+04  0.00000000000E+00 0. -1.
         21   -1    0    0  501  502  0.00000000000E+00 -0.00000000000E+00 -0.22864176508E+03  0.22864176508E+03  0.00000000000E+00 0.  1.
         25    1    1    2    0    0  0.34841685775E+03 -0.11004239972E+03  0.24392678927E+02  0.38694138999E+03  0.12500000000E+03 0.  0.
         21    1    1    2  501  501 -0.71830423763E+02 -0.25859960708E+02  0.47330438225E+02  0.89824928213E+02  0.00000000000E+00 0.  1.
         -2    1    1    2    0  502 -0.27658643399E+03  0.13590236043E+03  0.88284718556E+03  0.93508751467E+03  0.00000000000E+00 0. -1.
<mgrwt>
<rscale>  4 0.33883044E+03</rscale>
<asrwt>0</asrwt>
<pdfrwt beam="1">  1       21 0.35175657E-01 0.33883044E+03</pdfrwt>
<pdfrwt beam="2">  1       -2 0.18203262E+00 0.33883044E+03</pdfrwt>
<totfact> 0.11478159E+02</totfact>
</mgrwt>
</event>
<event>
 5    0  0.2947253E-001  0.2431656E+03  0.7546771E-02  0.1117702E+00
         -4   -1    0    0    0  501 -0.00000000000E+00  0.00000000000E+00  0.16393020559E+03  0.16393020559E+03  0.00000000000E+00 0.  1.
         21   -1    0    0  501  502  0.00000000000E+00 -0.00000000000E+00 -0.50203549941E+03  0.50203549941E+03  0.00000000000E+00 0. -1.
         25    1    1    2    0    0  0.69843655705E+02 -0.19653588659E+03 -0.37812867095E+03  0.44956732839E+03  0.12500000000E+03 0.  0.
         21    1    1    2  501  501 -0.40842754545E+02  0.58039218027E+02  0.90114441495E+01  0.71539412590E+02  0.00000000000E+00 0.  1.
         -4    1    1    2    0  502 -0.29000901160E+02  0.13849666856E+03  0.31011932982E+02  0.14485896402E+03  0.00000000000E+00 0.  1.
<mgrwt>
<rscale>  4 0.24316556E+03</rscale>
<asrwt>0</asrwt>
<pdfrwt beam="1">  1       21 0.77236230E-01 0.24316556E+03</pdfrwt>
<pdfrwt beam="2">  1       -4 0.25220032E-01 0.24316556E+03</pdfrwt>
<totfact> 0.92044692E+02</totfact>
</mgrwt>
</event>
<event>
 5    0  0.2947253E-001  0.2807312E+03  0.7546771E-02  0.1095290E+00
         21   -1    0    0  501  502  0.00000000000E+00  0.00000000000E+00  0.23708113176E+03  0.23708113176E+03  0.00000000000E+00 0. -1.
         -2   -1    0    0    0  501 -0.00000000000E+00 -0.00000000000E+00 -0.32015566121E+03  0.32015566121E+03  0.00000000000E+00 0. -1.
         25    1    1    2    0    0  0.39432738278E+02 -0.24825406632E+03  0.23627768988E+02  0.28172378984E+03  0.12500000000E+03 0.  0.
         21    1    1    2  501  501 -0.14634941015E+02  0.23468151488E+02 -0.15145898823E+02  0.31533060174E+02  0.00000000000E+00 0.  1.
         -2    1    1    2    0  502 -0.24797797263E+02  0.22478591483E+03 -0.91556399612E+02  0.24397994296E+03  0.00000000000E+00 0. -1.
<mgrwt>
<rscale>  4 0.28073123E+03</rscale>
<asrwt>0</asrwt>
<pdfrwt beam="1">  1       21 0.36474020E-01 0.28073123E+03</pdfrwt>
<pdfrwt beam="2">  1       -2 0.49254717E-01 0.28073123E+03</pdfrwt>
<totfact> 0.22807275E+03</totfact>
</mgrwt>
</event>
<event>
 5    0  0.2947253E-001  0.2236619E+03  0.7546771E-02  0.1131182E+00
          1   -1    0    0  502    0 -0.00000000000E+00  0.00000000000E+00  0.33282161807E+04  0.33282161807E+04  0.00000000000E+00 0. -1.
         21   -1    0    0  503  502  0.00000000000E+00 -0.00000000000E+00 -0.21589263710E+02  0.21589263710E+02  0.00000000000E+00 0.  1.
         25    1    1    2    0    0  0.54544478074E+02 -0.19550916887E+03  0.97911397378E+03  0.10077142992E+04  0.12500000000E+03 0.  0.
         21    1    1    2  503  501  0.29026934263E+02  0.48218768090E+02  0.12576022703E+04  0.12588610260E+04  0.00000000000E+00 0. -1.
          1    1    1    2  501    0 -0.83571412336E+02  0.14729040078E+03  0.10699106729E+04  0.10832301192E+04  0.00000000000E+00 0. -1.
<mgrwt>
<rscale>  4 0.22366191E+03</rscale>
<asrwt>0</asrwt>
<pdfrwt beam="1">  1       21 0.33214278E-02 0.22366191E+03</pdfrwt>
<pdfrwt beam="2">  1        1 0.51203285E+00 0.22366191E+03</pdfrwt>
<totfact> 0.25812581E+03</totfact>
</mgrwt>
</event>
<event>
 5    0  0.2947253E-001  0.3298916E+03  0.7546771E-02  0.1071185E+00
         21   -1    0    0  503  502  0.00000000000E+00  0.00000000000E+00  0.10276499889E+04  0.10276499889E+04  0.00000000000E+00 0. -1.
          3   -1    0    0  502    0 -0.00000000000E+00 -0.00000000000E+00 -0.15071944749E+04  0.15071944749E+04  0.00000000000E+00 0. -1.
         25    1    1    2    0    0 -0.16676709235E+03 -0.25571898886E+03  0.98426136659E+03  0.10380746130E+04  0.12500000000E+03 0.  0.
         21    1    1    2  503  501  0.27798464985E+02  0.13461764883E+02 -0.10001250837E+03  0.10467318472E+03  0.00000000000E+00 0.  1.
          3    1    1    2  501    0  0.13896862737E+03  0.24225722398E+03 -0.13637933442E+04  0.13920966660E+04  0.00000000000E+00 0. -1.
<mgrwt>
<rscale>  4 0.32989159E+03</rscale>
<asrwt>0</asrwt>
<pdfrwt beam="1">  1       21 0.15810000E+00 0.32989159E+03</pdfrwt>
<pdfrwt beam="2">  1        3 0.23187607E+00 0.32989159E+03</pdfrwt>
<totfact> 0.12163252E+00</totfact>
</mgrwt>
</event>
<event>
 5    0  0.2947253E-001  0.2443996E+03  0.7546771E-02  0.1116896E+00
          2   -1    0    0  502    0 -0.00000000000E+00  0.00000000000E+00  0.70384439344E+03  0.70384439344E+03  0.00000000000E+00 0. -1.
         21   -1    0    0  503  502  0.00000000000E+00 -0.00000000000E+00 -0.56692435930E+03  0.56692435930E+03  0.00000000000E+00 0. -1.
         25    1    1    2    0    0 -0.16108617218E+03  0.14454774253E+03 -0.50705716034E+03  0.56530944498E+03  0.12500000000E+03 0.  0.
         21    1    1    2  503  501  0.12279503275E+03  0.13007861871E+02  0.32429885813E+03  0.34701235414E+03  0.00000000000E+00 0. -1.
          2    1    1    2  501    0  0.38291139431E+02 -0.15755560440E+03  0.31967833634E+03  0.35844695363E+03  0.00000000000E+00 0. -1.
<mgrwt>
<rscale>  4 0.24439959E+03</rscale>
<asrwt>0</asrwt>
<pdfrwt beam="1">  1       21 0.87219132E-01 0.24439959E+03</pdfrwt>
<pdfrwt beam="2">  1        2 0.10828375E+00 0.24439959E+03</pdfrwt>
<totfact> 0.57595401E+02</totfact>
</mgrwt>
</event>
<event>
 5    0  0.2947253E-001  0.2568772E+03  0.7546771E-02  0.1109034E+00
         21   -1    0    0  503  502  0.00000000000E+00  0.00000000000E+00  0.16943446552E+03  0.16943446552E+03  0.00000000000E+00 0. -1.
          1   -1    0    0  502    0 -0.00000000000E+00 -0.00000000000E+00 -0.65646162432E+03  0.65646162432E+03  0.00000000000E+00 0. -1.
         25    1    1    2    0    0  0.12671449812E+03 -0.21881860095E+03 -0.48946609112E+02  0.28628467423E+03  0.12500000000E+03 0.  0.
         21    1    1    2  503  501  0.32892430674E+02  0.10876653051E+03 -0.22141879023E+03  0.24887416664E+03  0.00000000000E+00 0.  1.
          1    1    1    2  501    0 -0.15960692879E+03  0.11005207044E+03 -0.21666175946E+03  0.29073724897E+03  0.00000000000E+00 0. -1.
<mgrwt>
<rscale>  4 0.25687722E+03</rscale>
<asrwt>0</asrwt>
<pdfrwt beam="1">  1       21 0.26066840E-01 0.25687722E+03</pdfrwt>
<pdfrwt beam="2">  1        1 0.10099410E+00 0.25687722E+03</pdfrwt>
<totfact> 0.47185658E+03</totfact>
</mgrwt>
</event>
<event>
 5    0  0.2947253E-001  0.2482657E+03  0.7546771E-02  0.1114406E+00
         -1   -1    0    0    0  501 -0.00000000000E+00  0.00000000000E+00  0.13373829784E+03  0.13373829784E+03  0.00000000000E+00 0.  1.
         21   -1    0    0  501  502  0.00000000000E+00 -0.00000000000E+00 -0.56569657818E+03  0.56569657818E+03  0.00000000000E+00 0.  1.
         25    1    1    2    0    0  0.11449538685E+02  0.22639385718E+03 -0.35788902025E+03  0.44169539427E+03  0.12500000000E+03 0.  0.
         21    1    1    2  501  501 -0.23908959280E+02 -0.15861956137E+02 -0.31458124810E+02  0.42577618568E+02  0.00000000000E+00 0.  1.
         -1    1    1    2    0  502  0.12459420596E+02 -0.21053190104E+03 -0.42611135275E+02  0.21516186318E+03  0.00000000000E+00 0.  1.
<mgrwt>
<rscale>  4 0.24826568E+03</rscale>
<asrwt>0</asrwt>
<pdfrwt beam="1">  1       21 0.87030244E-01 0.24826568E+03</pdfrwt>
<pdfrwt beam="2">  1       -1 0.20575122E-01 0.24826568E+03</pdfrwt>
<totfact> 0.19459378E+03</totfact>
</mgrwt>
</event>
<event>
 5    0  0.2947253E-001  0.2367093E+03  0.7546771E-02  0.1122005E+00
         21   -1    0    0  503  502  0.00000000000E+00  0.00000000000E+00  0.93679166605E+03  0.93679166605E+03  0.00000000000E+00 0.  1.
          1   -1    0    0  502    0 -0.00000000000E+00 -0.00000000000E+00 -0.14312006290E+03  0.14312006290E+03  0.00000000000E+00 0. -1.
         25    1    1    2    0    0  0.19621661205E+03  0.10592470945E+03  0.79399350829E+03  0.83412930300E+03  0.12500000000E+03 0.  0.
         21    1    1    2  503  501 -0.25873232794E+02 -0.34523082028E+01  0.35221943067E+02  0.43839797908E+02  0.00000000000E+00 0.  1.
          1    1    1    2  501    0 -0.17034337926E+03 -0.10247240124E+03 -0.35543848208E+02  0.20194262804E+03  0.00000000000E+00 0. -1.
<mgrwt>
<rscale>  4 0.23670926E+03</rscale>
<asrwt>0</asrwt>
<pdfrwt beam="1">  1       21 0.14412179E+00 0.23670926E+03</pdfrwt>
<pdfrwt beam="2">  1        1 0.22018472E-01 0.23670926E+03</pdfrwt>
<totfact> 0.78763408E+02</totfact>
</mgrwt>
</event>
<event>
 5    0  0.2947253E-001  0.2449427E+03  0.7546771E-02  0.1116543E+00
         -1   -1    0    0    0  501 -0.00000000000E+00  0.00000000000E+00  0.38687421561E+03  0.38687421561E+03  0.00000000000E+00 0.  1.
         21   -1    0    0  501  502  0.00000000000E+00 -0.00000000000E+00 -0.13288471840E+04  0.13288471840E+04  0.00000000000E+00 0.  1.
         25    1    1    2    0    0 -0.10966426890E+03 -0.18095448201E+03 -0.12814644824E+04  0.13048168439E+04  0.12500000000E+03 0.  0.
         21    1    1    2  501  501  0.87572991914E+00  0.33810059294E+02  0.12246610136E+02  0.35970355463E+02  0.00000000000E+00 0. -1.
         -1    1    1    2    0  502  0.10878853898E+03  0.14714442272E+03  0.32724490392E+03  0.37493420021E+03  0.00000000000E+00 0.  1.
<mgrwt>
<rscale>  4 0.24494273E+03</rscale>
<asrwt>0</asrwt>
<pdfrwt beam="1">  1       21 0.20443802E+00 0.24494273E+03</pdfrwt>
<pdfrwt beam="2">  1       -1 0.59519112E-01 0.24494273E+03</pdfrwt>
<totfact> 0.32895345E+01</totfact>
</mgrwt>
</event>
<event>
 5    0  0.2947253E-001  0.2658590E+03  0.7546771E-02  0.1103673E+00
         21   -1    0    0  503  502  0.00000000000E+00  0.00000000000E+00  0.99858990145E+02  0.99858990145E+02  0.00000000000E+00 0. -1.
          2   -1    0    0  502    0 -0.00000000000E+00 -0.00000000000E+00 -0.39247333360E+04  0.39247333360E+04  0.00000000000E+00 0.  1.
         25    1    1    2    0    0  0.21836328931E+03  0.98467298506E+02 -0.98052955261E+02  0.28743297833E+03  0.12500000000E+03 0.  0.
         21    1    1    2  503  501 -0.61190238575E+02 -0.66329437956E+02 -0.65950278749E+03  0.66564838041E+03  0.00000000000E+00 0.  1.
          2    1    1    2  501    0 -0.15717305074E+03 -0.32137860550E+02 -0.30673186031E+04  0.30715109675E+04  0.00000000000E+00 0.  1.
<mgrwt>
<rscale>  4 0.26585904E+03</rscale>
<asrwt>0</asrwt>
<pdfrwt beam="1">  1       21 0.15362918E-01 0.26585904E+03</pdfrwt>
<pdfrwt beam="2">  1        2 0.60380528E+00 0.26585904E+03</pdfrwt>
<totfact> 0.24049478E+02</totfact>
</mgrwt>
</event>
<event>
 5    0  0.2947253E-001  0.2634110E+03  0.7546771E-02  0.1105111E+00
          1   -1    0    0  502    0 -0.00000000000E+00  0.00000000000E+00  0.34234205957E+03  0.34234205957E+03  0.00000000000E+00 0. -1.
         21   -1    0    0  503  502  0.00000000000E+00 -0.00000000000E+00 -0.47232262654E+03  0.47232262654E+03  0.00000000000E+00 0. -1.
         25    1    1    2    0    0  0.31404315526E+02 -0.22972621820E+03 -0.38498142200E+03  0.46647193018E+03  0.12500000000E+03 0.  0.
         21    1    1    2  503  501  0.11995903140E+00  0.26871234565E+02  0.10286905570E+02  0.28773217815E+02  0.00000000000E+00 0.  1.
          1    1    1    2  501    0 -0.31524274557E+02  0.20285498363E+03  0.24471394946E+03  0.31941953812E+03  0.00000000000E+00 0. -1.
<mgrwt>
<rscale>  4 0.26341102E+03</rscale>
<asrwt>0</asrwt>
<pdfrwt beam="1">  1       21 0.72665019E-01 0.26341102E+03</pdfrwt>
<pdfrwt beam="2">  1        1 0.52668009E-01 0.26341102E+03</pdfrwt>
<totfact> 0.13446064E+03</totfact>
</mgrwt>
</event>
<event>
 5    0  0.2947253E-001  0.2620994E+03  0.7546771E-02  0.1105888E+00
         21   -1    0    0  503  502  0.00000000000E+00  0.00000000000E+00  0.74094511697E+02  0.74094511697E+02  0.00000000000E+00 0. -1.
          2   -1    0    0  502    0 -0.00000000000E+00 -0.00000000000E+00 -0.39217262903E+04  0.39217262903E+04  0.00000000000E+00 0. -1.
         25    1    1    2    0    0  0.22158808426E+03 -0.69242481661E+02 -0.17862268473E+03  0.31847584500E+03  0.12500000000E+03 0.  0.
         21    1    1    2  503  501 -0.27059293461E+02 -0.11948795770E+02 -0.82722916139E+03  0.82775785381E+03  0.00000000000E+00 0. -1.
          2    1    1    2  501    0 -0.19452879080E+03  0.81191277431E+02 -0.28417799325E+04  0.28495871032E+04  0.00000000000E+00 0. -1.
<mgrwt>
<rscale>  4 0.26209938E+03</rscale>
<asrwt>0</asrwt>
<pdfrwt beam="1">  1       21 0.11399157E-01 0.26209938E+03</pdfrwt>
<pdfrwt beam="2">  1        2 0.60334244E+00 0.26209938E+03</pdfrwt>
<totfact> 0.41678663E+02</totfact>
</mgrwt>
</event>
<event>
 5    0  0.2947253E-001  0.2415882E+03  0.7546771E-02  0.1118739E+00
         21   -1    0    0  503  502  0.00000000000E+00  0.00000000000E+00  0.26942308010E+03  0.26942308010E+03  0.00000000000E+00 0. -1.
          1   -1    0    0  502    0 -0.00000000000E+00 -0.00000000000E+00 -0.43654939923E+03  0.43654939923E+03  0.00000000000E+00 0. -1.
         25    1    1    2    0    0 -0.20331728717E+03 -0.37442670866E+02  0.17816227734E+03  0.30017773057E+03  0.12500000000E+03 0.  0.
         21    1    1    2  503  501  0.36128405475E+02  0.20715866247E+02 -0.10150629361E+03  0.10971753022E+03  0.00000000000E+00 0. -1.
          1    1    1    2  501    0  0.16718888169E+03  0.16726804619E+02 -0.24378230286E+03  0.29607721855E+03  0.00000000000E+00 0. -1.
<mgrwt>
<rscale>  4 0.24158823E+03</rscale>
<asrwt>0</asrwt>
<pdfrwt beam="1">  1       21 0.41449705E-01 0.24158823E+03</pdfrwt>
<pdfrwt beam="2">  1        1 0.67161446E-01 0.24158823E+03</pdfrwt>
<totfact> 0.32836992E+03</totfact>
</mgrwt>
</event>
<event>
 5    0  0.2947253E-001  0.2407956E+03  0.7546771E-02  0.1119264E+00
          1   -1    0    0  502    0 -0.00000000000E+00  0.00000000000E+00  0.18171992270E+03  0.18171992270E+03  0.00000000000E+00 0. -1.
         21   -1    0    0  503  502  0.00000000000E+00 -0.00000000000E+00 -0.58546454780E+03  0.58546454780E+03  0.00000000000E+00 0.  1.
         25    1    1    2    0    0  0.15469442008E+03 -0.13574672675E+03 -0.47990968103E+03  0.53693187591E+03  0.12500000000E+03 0.  0.
         21    1    1    2  503  501 -0.76801895876E+02  0.10914385382E+03  0.60207440683E+02  0.14640986289E+03  0.00000000000E+00 0. -1.
          1    1    1    2  501    0 -0.77892524206E+02  0.26602872932E+02  0.15957615245E+02  0.83842731705E+02  0.00000000000E+00 0. -1.
<mgrwt>
<rscale>  4 0.24079563E+03</rscale>
<asrwt>0</asrwt>
<pdfrwt beam="1">  1       21 0.90071467E-01 0.24079563E+03</pdfrwt>
<pdfrwt beam="2">  1        1 0.27956912E-01 0.24079563E+03</pdfrwt>
<totfact> 0.18468060E+03</totfact>
</mgrwt>
</event>
<event>
 5    0  0.2947253E-001  0.2517516E+03  0.7546771E-02  0.1112203E+00
         21   -1    0    0  501  502  0.00000000000E+00  0.00000000000E+00  0.83735645933E+03  0.83735645933E+03  0.00000000000E+00 0. -1.
         -4   -1    0    0    0  501 -0.00000000000E+00 -0.00000000000E+00 -0.11602062708E+03  0.11602062708E+03  0.00000000000E+00 0. -1.
         25    1    1    2    0    0 -0.16077107993E+03  0.14972066830E+03  0.65726436051E+03  0.70419106658E+03  0.12500000000E+03 0.  0.
         21    1    1    2  501  501 -0.12541919551E+02 -0.21734407745E+02  0.10328963668E+02  0.27136169894E+02  0.00000000000E+00 0.  1.
         -4    1    1    2    0  502  0.17331299948E+03 -0.12798626056E+03  0.53742508076E+02  0.22204984994E+03  0.00000000000E+00 0. -1.
<mgrwt>
<rscale>  4 0.25175155E+03</rscale>
<asrwt>0</asrwt>
<pdfrwt beam="1">  1       21 0.12882407E+00 0.25175155E+03</pdfrwt>
<pdfrwt beam="2">  1       -4 0.17849328E-01 0.25175155E+03</pdfrwt>
<totfact> 0.51017600E+02</totfact>
</mgrwt>
</event>
<event>
 5    0  0.2947253E-001  0.2423520E+03  0.7546771E-02  0.1118236E+00
         21   -1    0    0  503  502  0.00000000000E+00  0.00000000000E+00  0.12456705281E+03  0.12456705281E+03  0.00000000000E+00 0.  1.
          2   -1    0    0  502    0 -0.00000000000E+00 -0.00000000000E+00 -0.12589859323E+04  0.12589859323E+04  0.00000000000E+00 0. -1.
         25    1    1    2    0    0 -0.18352622157E+03  0.10439137854E+03 -0.36819442410E+02  0.24811308965E+03  0.12500000000E+03 0.  0.
         21    1    1    2  503  501  0.53555578359E+02  0.34557661221E+02 -0.91514176033E+02  0.11152253735E+03  0.00000000000E+00 0. -1.
          2    1    1    2  501    0  0.12997064321E+03 -0.13894903976E+03 -0.10060852611E+04  0.10239173582E+04  0.00000000000E+00 0. -1.
<mgrwt>
<rscale>  4 0.24235198E+03</rscale>
<asrwt>0</asrwt>
<pdfrwt beam="1">  1       21 0.19164162E-01 0.24235198E+03</pdfrwt>
<pdfrwt beam="2">  1        2 0.19369015E+00 0.24235198E+03</pdfrwt>
<totfact> 0.58080948E+03</totfact>
</mgrwt>
</event>
<event>
 5    0  0.2947253E-001  0.3340878E+03  0.7546771E-02  0.1069342E+00
          2   -1    0    0  502    0 -0.00000000000E+00  0.00000000000E+00  0.31315027828E+04  0.31315027828E+04  0.00000000000E+00 0. -1.
         21   -1    0    0  503  502  0.00000000000E+00 -0.00000000000E+00 -0.37699482126E+03  0.37699482126E+03  0.00000000000E+00 0.  1.
         25    1    1    2    0    0 -0.27458949853E+03  0.16075903100E+03 -0.28341292606E+03  0.44406164596E+03  0.12500000000E+03 0.  0.
         21    1    1    2  503  501  0.21171195790E+03 -0.24576555027E+02  0.10832554982E+04  0.11040237472E+04  0.00000000000E+00 0. -1.
          2    1    1    2  501    0  0.62877540634E+02 -0.13618247597E+03  0.19546653894E+04  0.19604122109E+04  0.00000000000E+00 0. -1.
<mgrwt>
<rscale>  4 0.33408784E+03</rscale>
<asrwt>0</asrwt>
<pdfrwt beam="1">  1       21 0.57999205E-01 0.33408784E+03</pdfrwt>
<pdfrwt beam="2">  1        2 0.48176964E+00 0.33408784E+03</pdfrwt>
<totfact> 0.56580771E+01</totfact>
</mgrwt>
</event>
<event>
 5    0  0.2947253E-001  0.2279980E+03  0.7546771E-02  0.1128057E+00
         21   -1    0    0  503  502  0.00000000000E+00  0.00000000000E+00  0.46258998797E+02  0.46258998797E+02  0.00000000000E+00 0.  1.
          2   -1    0    0  502    0 -0.00000000000E+00 -0.00000000000E+00 -0.21815990238E+04  0.21815990238E+04  0.00000000000E+00 0. -1.
         25    1    1    2    0    0 -0.27999523928E+01  0.22065602045E+03 -0.38822847856E+03  0.46372758238E+03  0.12500000000E+03 0.  0.
         21    1    1    2  503  501  0.23768449886E+02 -0.35243830637E+02 -0.14248002573E+03  0.14868632936E+03  0.00000000000E+00 0. -1.
          2    1    1    2  501    0 -0.20968497493E+02 -0.18541218982E+03 -0.16046315207E+04  0.16154441109E+04  0.00000000000E+00 0. -1.
<mgrwt>
<rscale>  4 0.22799799E+03</rscale>
<asrwt>0</asrwt>
<pdfrwt beam="1">  1       21 0.71167689E-02 0.22799799E+03</pdfrwt>
<pdfrwt beam="2">  1        2 0.33563062E+00 0.22799799E+03</pdfrwt>
<totfact> 0.11224151E+04</totfact>
</mgrwt>
</event>
<event>
 5    0  0.2947253E-001  0.2443568E+03  0.7546771E-02  0.1116924E+00
         21   -1    0    0  503  502  0.00000000000E+00  0.00000000000E+00  0.25238579321E+03  0.25238579321E+03  0.00000000000E+00 0. -1.
          2   -1    0    0  502    0 -0.00000000000E+00 -0.00000000000E+00 -0.33474704861E+03  0.33474704861E+03  0.00000000000E+00 0. -1.
         25    1    1    2    0    0  0.17653904668E+02  0.20922139020E+03  0.13690664439E+03  0.28009584029E+03  0.12500000000E+03 0.  0.
         21    1    1    2  503  501  0.12636914976E+02 -0.25407176525E+02 -0.34264206764E+02  0.44488786275E+02  0.00000000000E+00 0.  1.
          2    1    1    2  501    0 -0.30290819644E+02 -0.18381421368E+03 -0.18500369303E+03  0.26254821526E+03  0.00000000000E+00 0. -1.
<mgrwt>
<rscale>  4 0.24435681E+03</rscale>
<asrwt>0</asrwt>
<pdfrwt beam="1">  1       21 0.38828584E-01 0.24435681E+03</pdfrwt>
<pdfrwt beam="2">  1        2 0.51499546E-01 0.24435681E+03</pdfrwt>
<totfact> 0.76155028E+03</totfact>
</mgrwt>
</event>
<event>
 5    0  0.2947253E-001  0.2677990E+03  0.7546771E-02  0.1102546E+00
         21   -1    0    0  503  502  0.00000000000E+00  0.00000000000E+00  0.60253585257E+02  0.60253585257E+02  0.00000000000E+00 0.  1.
          2   -1    0    0  502    0 -0.00000000000E+00 -0.00000000000E+00 -0.15979732524E+04  0.15979732524E+04  0.00000000000E+00 0.  1.
         25    1    1    2    0    0 -0.81084468633E+02 -0.22252329906E+03 -0.32301019942E+03  0.41958538893E+03  0.12500000000E+03 0.  0.
         21    1    1    2  503  501  0.23176083295E+02  0.16987803824E+02 -0.13729650248E+03  0.14027132961E+03  0.00000000000E+00 0.  1.
          2    1    1    2  501    0  0.57908385338E+02  0.20553549524E+03 -0.10774129653E+04  0.10983701191E+04  0.00000000000E+00 0.  1.
<mgrwt>
<rscale>  4 0.26779901E+03</rscale>
<asrwt>0</asrwt>
<pdfrwt beam="1">  1       21 0.92697828E-02 0.26779901E+03</pdfrwt>
<pdfrwt beam="2">  1        2 0.24584203E+00 0.26779901E+03</pdfrwt>
<totfact> 0.14131379E+04</totfact>
</mgrwt>
</event>
<event>
 5    0  0.2947253E-001  0.3680851E+03  0.7546771E-02  0.1055428E+00
         21   -1    0    0  503  502  0.00000000000E+00  0.00000000000E+00  0.25013994516E+03  0.25013994516E+03  0.00000000000E+00 0.  1.
          2   -1    0    0  502    0 -0.00000000000E+00 -0.00000000000E+00 -0.61142659106E+03  0.61142659106E+03  0.00000000000E+00 0. -1.
         25    1    1    2    0    0 -0.24615405623E+03 -0.26420159887E+03 -0.10298411466E+03  0.39575880548E+03  0.12500000000E+03 0.  0.
         21    1    1    2  503  501 -0.79377240124E+01  0.40871714587E+02 -0.25330778978E+01  0.41712360271E+02  0.00000000000E+00 0. -1.
          2    1    1    2  501    0  0.25409178024E+03  0.22332988428E+03 -0.25576945334E+03  0.42409537047E+03  0.00000000000E+00 0. -1.
<mgrwt>
<rscale>  4 0.36808509E+03</rscale>
<asrwt>0</asrwt>
<pdfrwt beam="1">  1       21 0.38483068E-01 0.36808509E+03</pdfrwt>
<pdfrwt beam="2">  1        2 0.94065630E-01 0.36808509E+03</pdfrwt>
<totfact> 0.38484418E+03</totfact>
</mgrwt>
</event>
<event>
 5    0  0.2947253E-001  0.4139497E+03  0.7546771E-02  0.1039054E+00
          2   -1    0    0  502    0 -0.00000000000E+00  0.00000000000E+00  0.11278025638E+04  0.11278025638E+04  0.00000000000E+00 0.  1.
         21   -1    0    0  503  502  0.00000000000E+00 -0.00000000000E+00 -0.17488983459E+03  0.17488983459E+03  0.00000000000E+00 0.  1.
         25    1    1    2    0    0 -0.82134173714E+02  0.38598355227E+03  0.23345106302E+03  0.47524070106E+03  0.12500000000E+03 0.  0.
         21    1    1    2  503  501  0.74317038331E+02 -0.22794649227E+03  0.52189923612E+03  0.57433564941E+03  0.00000000000E+00 0.  1.
          2    1    1    2  501    0  0.78171353834E+01 -0.15803706000E+03  0.19756243002E+03  0.25311604788E+03  0.00000000000E+00 0.  1.
<mgrwt>
<rscale>  4 0.41394966E+03</rscale>
<asrwt>0</asrwt>
<pdfrwt beam="1">  1       21 0.26906129E-01 0.41394966E+03</pdfrwt>
<pdfrwt beam="2">  1        2 0.17350808E+00 0.41394966E+03</pdfrwt>
<totfact> 0.34482816E+03</totfact>
</mgrwt>
</event>
<event>
 5    0  0.2947253E-001  0.2882774E+03  0.7546771E-02  0.1091252E+00
         21   -1    0    0  503  502  0.00000000000E+00  0.00000000000E+00  0.92885409179E+02  0.92885409179E+02  0.00000000000E+00 0.  1.
          2   -1    0    0  502    0 -0.00000000000E+00 -0.00000000000E+00 -0.32844839937E+04  0.32844839937E+04  0.00000000000E+00 0.  1.
         25    1    1    2    0    0 -0.35157529724E+02  0.25986431621E+03 -0.15954941394E+03  0.33143103388E+03  0.12500000000E+03 0.  0.
         21    1    1    2  503  501 -0.16093341221E+02 -0.33961537716E+02 -0.15155753906E+03  0.15614758826E+03  0.00000000000E+00 0.  1.
          2    1    1    2  501    0  0.51250870946E+02 -0.22590277849E+03 -0.28804916315E+04  0.28897907807E+04  0.00000000000E+00 0.  1.
<mgrwt>
<rscale>  4 0.28827736E+03</rscale>
<asrwt>0</asrwt>
<pdfrwt beam="1">  1       21 0.14290067E-01 0.28827736E+03</pdfrwt>
<pdfrwt beam="2">  1        2 0.50530510E+00 0.28827736E+03</pdfrwt>
<totfact> 0.74150542E+02</totfact>
</mgrwt>
</event>
<event>
 5    0  0.2947253E-001  0.2339198E+03  0.7546771E-02  0.1123911E+00
          2   -1    0    0  502    0 -0.00000000000E+00  0.00000000000E+00  0.18228720677E+04  0.18228720677E+04  0.00000000000E+00 0.  1.
         21   -1    0    0  503  502  0.00000000000E+00 -0.00000000000E+00 -0.30769868609E+02  0.30769868609E+02  0.00000000000E+00 0. -1.
         25    1    1    2    0    0 -0.20013104255E+03 -0.10549471093E+02  0.66897749510E+03  0.70945021988E+03  0.12500000000E+03 0.  0.
         21    1    1    2  503  501  0.81091803770E+01 -0.21254593587E+02  0.15871735017E+03  0.16033937071E+03  0.00000000000E+00 0.  1.
          2    1    1    2  501    0  0.19202186217E+03  0.31804064679E+02  0.96440735387E+03  0.98385234577E+03  0.00000000000E+00 0.  1.
<mgrwt>
<rscale>  4 0.23391982E+03</rscale>
<asrwt>0</asrwt>
<pdfrwt beam="1">  1       21 0.47338274E-02 0.23391982E+03</pdfrwt>
<pdfrwt beam="2">  1        2 0.28044177E+00 0.23391982E+03</pdfrwt>
<totfact> 0.34767265E+04</totfact>
</mgrwt>
</event>
<event>
 5    0  0.2947253E-001  0.2390613E+03  0.7546771E-02  0.1120420E+00
         21   -1    0    0  503  502  0.00000000000E+00  0.00000000000E+00  0.39501226868E+02  0.39501226868E+02  0.00000000000E+00 0. -1.
          1   -1    0    0  502    0 -0.00000000000E+00 -0.00000000000E+00 -0.17353428946E+04  0.17353428946E+04  0.00000000000E+00 0.  1.
         25    1    1    2    0    0 -0.17332420982E+03  0.10716352727E+03 -0.42867262420E+03  0.49082636647E+03  0.12500000000E+03 0.  0.
         21    1    1    2  503  501  0.23839656904E+02 -0.13274207760E+02 -0.10352524571E+03  0.10706077869E+03  0.00000000000E+00 0.  1.
          1    1    1    2  501    0  0.14948455291E+03 -0.93889319510E+02 -0.11636437978E+04  0.11769569763E+04  0.00000000000E+00 0.  1.
<mgrwt>
<rscale>  4 0.23906130E+03</rscale>
<asrwt>0</asrwt>
<pdfrwt beam="1">  1       21 0.60771127E-02 0.23906130E+03</pdfrwt>
<pdfrwt beam="2">  1        1 0.26697579E+00 0.23906130E+03</pdfrwt>
<totfact> 0.10857902E+04</totfact>
</mgrwt>
</event>
<event>
 5    0  0.2947253E-001  0.2371968E+03  0.7546771E-02  0.1121674E+00
         21   -1    0    0  501  502  0.00000000000E+00  0.00000000000E+00  0.16836883480E+03  0.16836883480E+03  0.00000000000E+00 0. -1.
         -2   -1    0    0    0  501 -0.00000000000E+00 -0.00000000000E+00 -0.40767991776E+03  0.40767991776E+03  0.00000000000E+00 0. -1.
         25    1    1    2    0    0 -0.29627443395E+01 -0.20156527262E+03  0.25910526153E+02  0.23860782122E+03  0.12500000000E+03 0.  0.
         21    1    1    2  501  501  0.39035734501E+01  0.62358223825E+02 -0.45346910757E+02  0.77201867073E+02  0.00000000000E+00 0. -1.
         -2    1    1    2    0  502 -0.94082911053E+00  0.13920704879E+03 -0.21987469836E+03  0.26023906427E+03  0.00000000000E+00 0. -1.
<mgrwt>
<rscale>  4 0.23719683E+03</rscale>
<asrwt>0</asrwt>
<pdfrwt beam="1">  1       21 0.25902897E-01 0.23719683E+03</pdfrwt>
<pdfrwt beam="2">  1       -2 0.62719988E-01 0.23719683E+03</pdfrwt>
<totfact> 0.27522992E+03</totfact>
</mgrwt>
</event>
<event>
 5    0  0.2947253E-001  0.5112240E+03  0.7546771E-02  0.1010890E+00
          1   -1    0    0  502    0 -0.00000000000E+00  0.00000000000E+00  0.13448921078E+04  0.13448921078E+04  0.00000000000E+00 0.  1.
         21   -1    0    0  503  502  0.00000000000E+00 -0.00000000000E+00 -0.25642049264E+03  0.25642049264E+03  0.00000000000E+00 0.  1.
         25    1    1    2    0    0 -0.16286128430E+02 -0.52523475791E+03  0.30031004344E+03  0.61801934523E+03  0.12500000000E+03 0.  0.
         21    1    1    2  503  501 -0.53700016500E+02  0.46646445982E+02  0.17219582613E+02  0.73185358646E+02  0.00000000000E+00 0.  1.
          1    1    1    2  501    0  0.69986144930E+02  0.47858831193E+03  0.77094198912E+03  0.91010789656E+03  0.00000000000E+00 0.  1.
<mgrwt>
<rscale>  4 0.51122396E+03</rscale>
<asrwt>0</asrwt>
<pdfrwt beam="1">  1       21 0.39449307E-01 0.51122396E+03</pdfrwt>
<pdfrwt beam="2">  1        1 0.20690647E+00 0.51122396E+03</pdfrwt>
<totfact> 0.56228979E+02</totfact>
</mgrwt>
</event>
<event>
 5    0  0.2947253E-001  0.4574148E+03  0.7546771E-02  0.1025534E+00
          1   -1    0    0  502    0 -0.00000000000E+00  0.00000000000E+00  0.12783640975E+04  0.12783640975E+04  0.00000000000E+00 0. -1.
         21   -1    0    0  503  502  0.00000000000E+00 -0.00000000000E+00 -0.17011720168E+03  0.17011720168E+03  0.00000000000E+00 0.  1.
         25    1    1    2    0    0  0.25373318023E+03  0.35947564084E+03  0.40349619734E+03  0.60994872274E+03  0.12500000000E+03 0.  0.
         21    1    1    2  503  501 -0.57481338655E+02 -0.38081197145E+02  0.57838514504E+02  0.89997642356E+02  0.00000000000E+00 0. -1.
          1    1    1    2  501    0 -0.19625184157E+03 -0.32139444370E+03  0.64691218399E+03  0.74853493409E+03  0.00000000000E+00 0. -1.
<mgrwt>
<rscale>  4 0.45741476E+03</rscale>
<asrwt>0</asrwt>
<pdfrwt beam="1">  1       21 0.26171878E-01 0.45741476E+03</pdfrwt>
<pdfrwt beam="2">  1        1 0.19667139E+00 0.45741476E+03</pdfrwt>
<totfact> 0.14439256E+03</totfact>
</mgrwt>
</event>
<event>
 5    0  0.2947253E-001  0.3240249E+03  0.7546771E-02  0.1073812E+00
          1   -1    0    0  502    0 -0.00000000000E+00  0.00000000000E+00  0.10372366713E+04  0.10372366713E+04  0.00000000000E+00 0. -1.
         21   -1    0    0  503  502  0.00000000000E+00 -0.00000000000E+00 -0.27691160394E+03  0.27691160394E+03  0.00000000000E+00 0.  1.
         25    1    1    2    0    0  0.40912368457E+02 -0.31796421243E+03 -0.12265659241E+03  0.36530083758E+03  0.12500000000E+03 0.  0.
         21    1    1    2  503  501  0.82902156912E+01  0.25289473438E+02  0.12964200743E+02  0.29603304611E+02  0.00000000000E+00 0. -1.
          1    1    1    2  501    0 -0.49202584148E+02  0.29267473899E+03  0.87001745906E+03  0.91924413308E+03  0.00000000000E+00 0. -1.
<mgrwt>
<rscale>  4 0.32402488E+03</rscale>
<asrwt>0</asrwt>
<pdfrwt beam="1">  1       21 0.42601786E-01 0.32402488E+03</pdfrwt>
<pdfrwt beam="2">  1        1 0.15957487E+00 0.32402488E+03</pdfrwt>
<totfact> 0.84135118E+02</totfact>
</mgrwt>
</event>
<event>
 5    0  0.2947253E-001  0.2471696E+03  0.7546771E-02  0.1115107E+00
         21   -1    0    0  503  502  0.00000000000E+00  0.00000000000E+00  0.13227912632E+03  0.13227912632E+03  0.00000000000E+00 0.  1.
          2   -1    0    0  502    0 -0.00000000000E+00 -0.00000000000E+00 -0.47763489537E+03  0.47763489537E+03  0.00000000000E+00 0. -1.
         25    1    1    2    0    0  0.10543386855E+02 -0.21297102937E+03 -0.68662599243E+02  0.25652948152E+03  0.12500000000E+03 0.  0.
         21    1    1    2  503  501  0.14212486818E+02  0.56944805515E+02 -0.50155764410E+02  0.77203020409E+02  0.00000000000E+00 0. -1.
          2    1    1    2  501    0 -0.24755873672E+02  0.15602622385E+03 -0.22653740540E+03  0.27618151976E+03  0.00000000000E+00 0. -1.
<mgrwt>
<rscale>  4 0.24716962E+03</rscale>
<asrwt>0</asrwt>
<pdfrwt beam="1">  1       21 0.20350635E-01 0.24716962E+03</pdfrwt>
<pdfrwt beam="2">  1        2 0.73482291E-01 0.24716962E+03</pdfrwt>
<totfact> 0.18163738E+04</totfact>
</mgrwt>
</event>
<event>
 5    0  0.2947253E-001  0.2386340E+03  0.7546771E-02  0.1120706E+00
         -4   -1    0    0    0  501 -0.00000000000E+00  0.00000000000E+00  0.45035680408E+03  0.45035680408E+03  0.00000000000E+00 0.  1.
         21   -1    0    0  501  502  0.00000000000E+00 -0.00000000000E+00 -0.15453964098E+04  0.15453964098E+04  0.00000000000E+00 0. -1.
         25    1    1    2    0    0  0.20313020276E+03  0.17139312806E+02 -0.15068595068E+04  0.15257149828E+04  0.12500000000E+03 0.  0.
         21    1    1    2  501  501 -0.24467482552E+02 -0.19502984876E+02  0.14695183836E+02  0.34568374990E+02  0.00000000000E+00 0.  1.
         -4    1    1    2    0  502 -0.17866272020E+03  0.23636720697E+01  0.39712471726E+03  0.43546985613E+03  0.00000000000E+00 0.  1.
<mgrwt>
<rscale>  4 0.23863400E+03</rscale>
<asrwt>0</asrwt>
<pdfrwt beam="1">  1       21 0.23775329E+00 0.23863400E+03</pdfrwt>
<pdfrwt beam="2">  1       -4 0.69285663E-01 0.23863400E+03</pdfrwt>
<totfact> 0.62190138E+00</totfact>
</mgrwt>
</event>
<event>
 5    0  0.2947253E-001  0.2884771E+03  0.7546771E-02  0.1091147E+00
         21   -1    0    0  503  502  0.00000000000E+00  0.00000000000E+00  0.22322775814E+03  0.22322775814E+03  0.00000000000E+00 0.  1.
          2   -1    0    0  502    0 -0.00000000000E+00 -0.00000000000E+00 -0.52815193892E+03  0.52815193892E+03  0.00000000000E+00 0.  1.
         25    1    1    2    0    0  0.80471364208E+02 -0.24722133965E+03  0.63492611870E+02  0.29538169036E+03  0.12500000000E+03 0.  0.
         21    1    1    2  503  501 -0.35298342080E+02  0.28607117452E+02 -0.59425163017E+02  0.74804345610E+02  0.00000000000E+00 0.  1.
          2    1    1    2  501    0 -0.45173022129E+02  0.21861422220E+03 -0.30899162963E+03  0.38119366109E+03  0.00000000000E+00 0.  1.
<mgrwt>
<rscale>  4 0.28847709E+03</rscale>
<asrwt>0</asrwt>
<pdfrwt beam="1">  1       21 0.34342732E-01 0.28847709E+03</pdfrwt>
<pdfrwt beam="2">  1        2 0.81254145E-01 0.28847709E+03</pdfrwt>
<totfact> 0.58390601E+03</totfact>
</mgrwt>
</event>
<event>
 5    0  0.2947253E-001  0.2809226E+03  0.7546771E-02  0.1095186E+00
         21   -1    0    0  503  502  0.00000000000E+00  0.00000000000E+00  0.15891367923E+03  0.15891367923E+03  0.00000000000E+00 0. -1.
          2   -1    0    0  502    0 -0.00000000000E+00 -0.00000000000E+00 -0.11589466948E+04  0.11589466948E+04  0.00000000000E+00 0.  1.
         25    1    1    2    0    0  0.12434374388E+03  0.22156788462E+03 -0.10050463262E+02  0.28333673597E+03  0.12500000000E+03 0.  0.
         21    1    1    2  503  501 -0.70519821324E+02 -0.23280228327E+03 -0.75611379236E+03  0.79427829839E+03  0.00000000000E+00 0.  1.
          2    1    1    2  501    0 -0.53823922551E+02  0.11234398645E+02 -0.23386875998E+03  0.24024533969E+03  0.00000000000E+00 0.  1.
<mgrwt>
<rscale>  4 0.28092259E+03</rscale>
<asrwt>0</asrwt>
<pdfrwt beam="1">  1       21 0.24448259E-01 0.28092259E+03</pdfrwt>
<pdfrwt beam="2">  1        2 0.17829948E+00 0.28092259E+03</pdfrwt>
<totfact> 0.41203140E+03</totfact>
</mgrwt>
</event>
<event>
 5    0  0.2947253E-001  0.2490572E+03  0.7546771E-02  0.1113902E+00
          1   -1    0    0  502    0 -0.00000000000E+00  0.00000000000E+00  0.16514785284E+04  0.16514785284E+04  0.00000000000E+00 0. -1.
         21   -1    0    0  503  502  0.00000000000E+00 -0.00000000000E+00 -0.99796934494E+02  0.99796934494E+02  0.00000000000E+00 0. -1.
         25    1    1    2    0    0 -0.12477845967E+03  0.17826014829E+03  0.84898217020E+02  0.26491329095E+03  0.12500000000E+03 0.  0.
         21    1    1    2  503  501 -0.15705590620E+02 -0.33774159519E+02  0.17173095505E+03  0.17572387530E+03  0.00000000000E+00 0. -1.
          1    1    1    2  501    0  0.14048405029E+03 -0.14448598877E+03  0.12950524219E+04  0.13106382967E+04  0.00000000000E+00 0. -1.
<mgrwt>
<rscale>  4 0.24905721E+03</rscale>
<asrwt>0</asrwt>
<pdfrwt beam="1">  1       21 0.15353376E-01 0.24905721E+03</pdfrwt>
<pdfrwt beam="2">  1        1 0.25407360E+00 0.24905721E+03</pdfrwt>
<totfact> 0.23702475E+03</totfact>
</mgrwt>
</event>
<event>
 5    0  0.2947253E-001  0.2879691E+03  0.7546771E-02  0.1091414E+00
         21   -1    0    0  503  502  0.00000000000E+00  0.00000000000E+00  0.13124770915E+03  0.13124770915E+03  0.00000000000E+00 0. -1.
          2   -1    0    0  502    0 -0.00000000000E+00 -0.00000000000E+00 -0.28278107090E+04  0.28278107090E+04  0.00000000000E+00 0. -1.
         25    1    1    2    0    0 -0.26070206127E+03  0.17932307541E+02 -0.45616294598E+02  0.29324559458E+03  0.12500000000E+03 0.  0.
         21    1    1    2  503  501  0.24060090382E+02  0.38032193529E+01 -0.70337542154E+03  0.70379708443E+03  0.00000000000E+00 0.  1.
          2    1    1    2  501    0  0.23664197089E+03 -0.21735526894E+02 -0.19475712837E+04  0.19620157392E+04  0.00000000000E+00 0. -1.
<mgrwt>
<rscale>  4 0.28796906E+03</rscale>
<asrwt>0</asrwt>
<pdfrwt beam="1">  1       21 0.20191957E-01 0.28796906E+03</pdfrwt>
<pdfrwt beam="2">  1        2 0.43504776E+00 0.28796906E+03</pdfrwt>
<totfact> 0.73435690E+02</totfact>
</mgrwt>
</event>
<event>
 5    0  0.2947253E-001  0.8897993E+03  0.7546771E-02  0.9438423E-01
         21   -1    0    0  503  502  0.00000000000E+00  0.00000000000E+00  0.90748210489E+03  0.90748210489E+03  0.00000000000E+00 0.  1.
          2   -1    0    0  502    0 -0.00000000000E+00 -0.00000000000E+00 -0.12262334060E+04  0.12262334060E+04  0.00000000000E+00 0.  1.
         25    1    1    2    0    0  0.86547382850E+03 -0.19579776370E+03  0.36448709035E+03  0.96739730779E+03  0.12500000000E+03 0.  0.
         21    1    1    2  503  501 -0.39990268955E+02 -0.60638553398E+02 -0.16068121800E+02  0.74393819014E+02  0.00000000000E+00 0.  1.
          2    1    1    2  501    0 -0.82548355954E+03  0.25643631710E+03 -0.66717026961E+03  0.10919243840E+04  0.00000000000E+00 0.  1.
<mgrwt>
<rscale>  4 0.88979928E+03</rscale>
<asrwt>0</asrwt>
<pdfrwt beam="1">  1       21 0.13961263E+00 0.88979928E+03</pdfrwt>
<pdfrwt beam="2">  1        2 0.18865129E+00 0.88979928E+03</pdfrwt>
<totfact> 0.67136761E+01</totfact>
</mgrwt>
</event>
<event>
 5    0  0.2947253E-001  0.3061937E+03  0.7546771E-02  0.1082185E+00
          2   -1    0    0  502    0 -0.00000000000E+00  0.00000000000E+00  0.19461324641E+04  0.19461324641E+04  0.00000000000E+00 0. -1.
         21   -1    0    0  503  502  0.00000000000E+00 -0.00000000000E+00 -0.46288199743E+02  0.46288199743E+02  0.00000000000E+00 0.  1.
         25    1    1    2    0    0 -0.27942150240E+03  0.72962196384E+01  0.95824912165E+03  0.10059801141E+04  0.12500000000E+03 0.  0.
         21    1    1    2  503  501  0.57886102579E+02  0.36012902157E+02  0.20565095014E+03  0.21665650991E+03  0.00000000000E+00 0. -1.
          2    1    1    2  501    0  0.22153539982E+03 -0.43309121795E+02  0.73594419252E+03  0.76978403979E+03  0.00000000000E+00 0. -1.
<mgrwt>
<rscale>  4 0.30619375E+03</rscale>
<asrwt>0</asrwt>
<pdfrwt beam="1">  1       21 0.71212630E-02 0.30619375E+03</pdfrwt>
<pdfrwt beam="2">  1        2 0.29940493E+00 0.30619375E+03</pdfrwt>
<totfact> 0.14569484E+04</totfact>
</mgrwt>
</event>
<event>
 5    0  0.2947253E-001  0.2129100E+03  0.7546771E-02  0.1139282E+00
         21   -1    0    0  503  502  0.00000000000E+00  0.00000000000E+00  0.63126711232E+03  0.63126711232E+03  0.00000000000E+00 0.  1.
          2   -1    0    0  502    0 -0.00000000000E+00 -0.00000000000E+00 -0.18324594341E+03  0.18324594341E+03  0.00000000000E+00 0. -1.
         25    1    1    2    0    0  0.21155925461E+03  0.42433611079E+02  0.48347866085E+03  0.54399866273E+03  0.12500000000E+03 0.  0.
         21    1    1    2  503  501 -0.55531094860E+02  0.20921290884E+02  0.53644495580E+02  0.79994592408E+02  0.00000000000E+00 0. -1.
          2    1    1    2  501    0 -0.15602815975E+03 -0.63354901963E+02 -0.89101987518E+02  0.19051980059E+03  0.00000000000E+00 0. -1.
<mgrwt>
<rscale>  4 0.21291004E+03</rscale>
<asrwt>0</asrwt>
<pdfrwt beam="1">  1       21 0.97118016E-01 0.21291004E+03</pdfrwt>
<pdfrwt beam="2">  1        2 0.28191684E-01 0.21291004E+03</pdfrwt>
<totfact> 0.20163571E+03</totfact>
</mgrwt>
</event>
<event>
 5    0  0.2947253E-001  0.2364251E+03  0.7546771E-02  0.1122197E+00
         21   -1    0    0  503  502  0.00000000000E+00  0.00000000000E+00  0.32167113293E+03  0.32167113293E+03  0.00000000000E+00 0.  1.
          2   -1    0    0  502    0 -0.00000000000E+00 -0.00000000000E+00 -0.15838773564E+04  0.15838773564E+04  0.00000000000E+00 0.  1.
         25    1    1    2    0    0 -0.12833648065E+03  0.15540766285E+03  0.26790577145E+03  0.35779924024E+03  0.12500000000E+03 0.  0.
         21    1    1    2  503  501  0.71141730069E+01 -0.32088630593E+02 -0.68870283259E+02  0.76311254656E+02  0.00000000000E+00 0.  1.
          2    1    1    2  501    0  0.12122230764E+03 -0.12331903226E+03 -0.14612417117E+04  0.14714379945E+04  0.00000000000E+00 0.  1.
<mgrwt>
<rscale>  4 0.23642508E+03</rscale>
<asrwt>0</asrwt>
<pdfrwt beam="1">  1       21 0.49487867E-01 0.23642508E+03</pdfrwt>
<pdfrwt beam="2">  1        2 0.24367344E+00 0.23642508E+03</pdfrwt>
<totfact> 0.59933729E+02</totfact>
</mgrwt>
</event>
<event>
 5    0  0.2947253E-001  0.2481191E+03  0.7546771E-02  0.1114499E+00
         -1   -1    0    0    0  501 -0.00000000000E+00  0.00000000000E+00  0.88550253643E+03  0.88550253643E+03  0.00000000000E+00 0.  1.
         21   -1    0    0  501  502  0.00000000000E+00 -0.00000000000E+00 -0.80209780468E+02  0.80209780468E+02  0.00000000000E+00 0.  1.
         25    1    1    2    0    0 -0.16737298101E+03  0.12336974740E+03  0.27112770206E+03  0.36382556283E+03  0.12500000000E+03 0.  0.
         21    1    1    2  501  501 -0.39642973334E+02 -0.30355796056E+02  0.83164804160E+02  0.97002187295E+02  0.00000000000E+00 0.  1.
         -1    1    1    2    0  502  0.20701595434E+03 -0.93013951345E+02  0.45100024974E+03  0.50488456677E+03  0.00000000000E+00 0.  1.
<mgrwt>
<rscale>  4 0.24811909E+03</rscale>
<asrwt>0</asrwt>
<pdfrwt beam="1">  1       21 0.12339967E-01 0.24811909E+03</pdfrwt>
<pdfrwt beam="2">  1       -1 0.13623115E+00 0.24811909E+03</pdfrwt>
<totfact> 0.25175915E+03</totfact>
</mgrwt>
</event>
<event>
 5    0  0.2947253E-001  0.3988270E+03  0.7546771E-02  0.1044187E+00
         21   -1    0    0  501  502  0.00000000000E+00  0.00000000000E+00  0.79358124552E+03  0.79358124552E+03  0.00000000000E+00 0. -1.
         -2   -1    0    0    0  501 -0.00000000000E+00 -0.00000000000E+00 -0.97592423652E+03  0.97592423652E+03  0.00000000000E+00 0. -1.
         25    1    1    2    0    0 -0.23789157795E+03 -0.19835302871E+03  0.65123454787E+03  0.73189327309E+03  0.12500000000E+03 0.  0.
         21    1    1    2  501  501 -0.45302157556E+02 -0.59131341877E+02  0.39505276455E+02  0.84317660897E+02  0.00000000000E+00 0. -1.
         -2    1    1    2    0  502  0.28319373550E+03  0.25748437059E+03 -0.87308281533E+03  0.95329454805E+03  0.00000000000E+00 0. -1.
<mgrwt>
<rscale>  4 0.39882700E+03</rscale>
<asrwt>0</asrwt>
<pdfrwt beam="1">  1       21 0.12208942E+00 0.39882700E+03</pdfrwt>
<pdfrwt beam="2">  1       -2 0.15014219E+00 0.39882700E+03</pdfrwt>
<totfact> 0.11717565E+01</totfact>
</mgrwt>
</event>
<event>
 5    0  0.2947253E-001  0.3904534E+03  0.7546771E-02  0.1047136E+00
          1   -1    0    0  502    0 -0.00000000000E+00  0.00000000000E+00  0.67886898175E+03  0.67886898175E+03  0.00000000000E+00 0.  1.
         21   -1    0    0  503  502  0.00000000000E+00 -0.00000000000E+00 -0.54740295058E+03  0.54740295058E+03  0.00000000000E+00 0.  1.
         25    1    1    2    0    0 -0.32989571769E+03  0.91286085318E+02 -0.21654593965E+03  0.42388852061E+03  0.12500000000E+03 0.  0.
         21    1    1    2  503  501  0.39271613830E+03 -0.30579647116E+03  0.21416092717E+03  0.54185085566E+03  0.00000000000E+00 0.  1.
          1    1    1    2  501    0 -0.62820420611E+02  0.21451038584E+03  0.13385104366E+03  0.26053255606E+03  0.00000000000E+00 0.  1.
<mgrwt>
<rscale>  4 0.39045337E+03</rscale>
<asrwt>0</asrwt>
<pdfrwt beam="1">  1       21 0.84215838E-01 0.39045337E+03</pdfrwt>
<pdfrwt beam="2">  1        1 0.10444138E+00 0.39045337E+03</pdfrwt>
<totfact> 0.36623966E+02</totfact>
</mgrwt>
</event>
<event>
 5    0  0.2947253E-001  0.2425203E+03  0.7546771E-02  0.1118125E+00
         21   -1    0    0  503  502  0.00000000000E+00  0.00000000000E+00  0.34316950041E+02  0.34316950041E+02  0.00000000000E+00 0. -1.
          2   -1    0    0  502    0 -0.00000000000E+00 -0.00000000000E+00 -0.39843913067E+04  0.39843913067E+04  0.00000000000E+00 0. -1.
         25    1    1    2    0    0  0.20137822686E+03 -0.76292519687E+02 -0.48829297514E+03  0.54811382795E+03  0.12500000000E+03 0.  0.
         21    1    1    2  503  501 -0.32712851925E+02  0.56219954155E+02 -0.54429172243E+03  0.54816447626E+03  0.00000000000E+00 0.  1.
          2    1    1    2  501    0 -0.16866537494E+03  0.20072565533E+02 -0.29174896591E+04  0.29224299525E+04  0.00000000000E+00 0. -1.
<mgrwt>
<rscale>  4 0.24252035E+03</rscale>
<asrwt>0</asrwt>
<pdfrwt beam="1">  1       21 0.52795297E-02 0.24252035E+03</pdfrwt>
<pdfrwt beam="2">  1        2 0.61298340E+00 0.24252035E+03</pdfrwt>
<totfact> 0.14566731E+03</totfact>
</mgrwt>
</event>
<event>
 5    0  0.2947253E-001  0.2701052E+03  0.7546771E-02  0.1101219E+00
         -2   -1    0    0    0  501 -0.00000000000E+00  0.00000000000E+00  0.40663837390E+03  0.40663837390E+03  0.00000000000E+00 0. -1.
         21   -1    0    0  501  502  0.00000000000E+00 -0.00000000000E+00 -0.12082302119E+04  0.12082302119E+04  0.00000000000E+00 0. -1.
         25    1    1    2    0    0 -0.24637505820E+03 -0.96457684173E+01 -0.11238695830E+04  0.11573683725E+04  0.12500000000E+03 0.  0.
         21    1    1    2  501  501  0.11584577155E+03  0.96069301027E+02  0.83870604399E+02  0.17228996392E+03  0.00000000000E+00 0. -1.
         -2    1    1    2    0  502  0.13052928665E+03 -0.86423532610E+02  0.23840714058E+03  0.28521024936E+03  0.00000000000E+00 0. -1.
<mgrwt>
<rscale>  4 0.27010520E+03</rscale>
<asrwt>0</asrwt>
<pdfrwt beam="1">  1       21 0.18588157E+00 0.27010520E+03</pdfrwt>
<pdfrwt beam="2">  1       -2 0.62559751E-01 0.27010520E+03</pdfrwt>
<totfact> 0.30881373E+01</totfact>
</mgrwt>
</event>
<event>
 5    0  0.2947253E-001  0.2593026E+03  0.7546771E-02  0.1107563E+00
          1   -1    0    0  502    0 -0.00000000000E+00  0.00000000000E+00  0.47380188207E+03  0.47380188207E+03  0.00000000000E+00 0. -1.
         21   -1    0    0  503  502  0.00000000000E+00 -0.00000000000E+00 -0.23069285529E+03  0.23069285529E+03  0.00000000000E+00 0. -1.
         25    1    1    2    0    0  0.22718286598E+03 -0.87220806518E+00 -0.10837444060E+03  0.28103884912E+03  0.12500000000E+03 0.  0.
         21    1    1    2  503  501 -0.20397326922E+03  0.19940737843E+01  0.26799619765E+03  0.33679523875E+03  0.00000000000E+00 0. -1.
          1    1    1    2  501    0 -0.23209596752E+02 -0.11218657191E+01  0.83487269720E+02  0.86660649486E+02  0.00000000000E+00 0. -1.
<mgrwt>
<rscale>  4 0.25930256E+03</rscale>
<asrwt>0</asrwt>
<pdfrwt beam="1">  1       21 0.35491208E-01 0.25930256E+03</pdfrwt>
<pdfrwt beam="2">  1        1 0.72892597E-01 0.25930256E+03</pdfrwt>
<totfact> 0.40166178E+03</totfact>
</mgrwt>
</event>
<event>
 5    0  0.2947253E-001  0.2383132E+03  0.7546771E-02  0.1120922E+00
         21   -1    0    0  503  502  0.00000000000E+00  0.00000000000E+00  0.16494658620E+03  0.16494658620E+03  0.00000000000E+00 0.  1.
          2   -1    0    0  502    0 -0.00000000000E+00 -0.00000000000E+00 -0.38951989508E+03  0.38951989508E+03  0.00000000000E+00 0.  1.
         25    1    1    2    0    0  0.17335495166E+03  0.10543353968E+03  0.13786103197E+02  0.23871159837E+03  0.12500000000E+03 0.  0.
         21    1    1    2  503  501 -0.34313903219E+02 -0.32941507981E+01 -0.43283675690E+02  0.55333280807E+02  0.00000000000E+00 0.  1.
          2    1    1    2  501    0 -0.13904104844E+03 -0.10213938888E+03 -0.19507573639E+03  0.26042160210E+03  0.00000000000E+00 0.  1.
<mgrwt>
<rscale>  4 0.23831318E+03</rscale>
<asrwt>0</asrwt>
<pdfrwt beam="1">  1       21 0.25376398E-01 0.23831318E+03</pdfrwt>
<pdfrwt beam="2">  1        2 0.59926138E-01 0.23831318E+03</pdfrwt>
<totfact> 0.14958370E+04</totfact>
</mgrwt>
</event>
<event>
 5    0  0.2947253E-001  0.2092558E+03  0.7546771E-02  0.1142157E+00
          1   -1    0    0  502    0 -0.00000000000E+00  0.00000000000E+00  0.15901852672E+04  0.15901852672E+04  0.00000000000E+00 0.  1.
         21   -1    0    0  503  502  0.00000000000E+00 -0.00000000000E+00 -0.51393345953E+02  0.51393345953E+02  0.00000000000E+00 0.  1.
         25    1    1    2    0    0  0.20905955955E+03 -0.13466144074E+03  0.61799447182E+03  0.67777708006E+03  0.12500000000E+03 0.  0.
         21    1    1    2  503  501 -0.11883563583E+03  0.35575359485E+02  0.64917218824E+03  0.66091757771E+03  0.00000000000E+00 0.  1.
          1    1    1    2  501    0 -0.90223923719E+02  0.99086081250E+02  0.27162526117E+03  0.30288395536E+03  0.00000000000E+00 0.  1.
<mgrwt>
<rscale>  4 0.20925578E+03</rscale>
<asrwt>0</asrwt>
<pdfrwt beam="1">  1       21 0.79066698E-02 0.20925578E+03</pdfrwt>
<pdfrwt beam="2">  1        1 0.24464385E+00 0.20925578E+03</pdfrwt>
<totfact> 0.86397235E+03</totfact>
</mgrwt>
</event>
<event>
 5    0  0.2947253E-001  0.2647341E+03  0.7546771E-02  0.1104332E+00
         21   -1    0    0  503  502  0.00000000000E+00  0.00000000000E+00  0.29817507068E+03  0.29817507068E+03  0.00000000000E+00 0.  1.
          1   -1    0    0  502    0 -0.00000000000E+00 -0.00000000000E+00 -0.45973418105E+03  0.45973418105E+03  0.00000000000E+00 0.  1.
         25    1    1    2    0    0 -0.15867010753E+03  0.19932226667E+03  0.16260695097E+03  0.32706511511E+03  0.12500000000E+03 0.  0.
         21    1    1    2  503  501  0.55008392084E+02 -0.84092916399E+02 -0.42000337163E+02  0.10891083559E+03  0.00000000000E+00 0.  1.
          1    1    1    2  501    0  0.10366171545E+03 -0.11522935027E+03 -0.28216572418E+03  0.32193330104E+03  0.00000000000E+00 0.  1.
<mgrwt>
<rscale>  4 0.26473414E+03</rscale>
<asrwt>0</asrwt>
<pdfrwt beam="1">  1       21 0.45873088E-01 0.26473414E+03</pdfrwt>
<pdfrwt beam="2">  1        1 0.70728335E-01 0.26473414E+03</pdfrwt>
<totfact> 0.24734582E+03</totfact>
</mgrwt>
</event>
<event>
 5    0  0.2947253E-001  0.4199647E+03  0.7546771E-02  0.1037078E+00
         21   -1    0    0  503  502  0.00000000000E+00  0.00000000000E+00  0.34246566433E+03  0.34246566433E+03  0.00000000000E+00 0. -1.
          1   -1    0    0  502    0 -0.00000000000E+00 -0.00000000000E+00 -0.65588929198E+03  0.65588929198E+03  0.00000000000E+00 0.  1.
         25    1    1    2    0    0 -0.36504774349E+03 -0.16828107106E+03  0.67969172435E+02  0.42640729626E+03  0.12500000000E+03 0.  0.
         21    1    1    2  503  501  0.10603926037E+02 -0.18647747007E+02 -0.46703039649E+01  0.21954349340E+02  0.00000000000E+00 0. -1.
          1    1    1    2  501    0  0.35444381745E+03  0.18692881807E+03 -0.37672249612E+03  0.54999331072E+03  0.00000000000E+00 0.  1.
<mgrwt>
<rscale>  4 0.41996469E+03</rscale>
<asrwt>0</asrwt>
<pdfrwt beam="1">  1       21 0.52687025E-01 0.41996469E+03</pdfrwt>
<pdfrwt beam="2">  1        1 0.10090604E+00 0.41996469E+03</pdfrwt>
<totfact> 0.10863093E+03</totfact>
</mgrwt>
</event>
<event>
 5    0  0.2947253E-001  0.3611775E+03  0.7546771E-02  0.1058119E+00
          2   -1    0    0  502    0 -0.00000000000E+00  0.00000000000E+00  0.20351012858E+04  0.20351012858E+04  0.00000000000E+00 0. -1.
         21   -1    0    0  503  502  0.00000000000E+00 -0.00000000000E+00 -0.57277987397E+03  0.57277987397E+03  0.00000000000E+00 0. -1.
         25    1    1    2    0    0  0.15113211053E+03  0.30328739271E+03 -0.49927940330E+03  0.61622161596E+03  0.12500000000E+03 0.  0.
         21    1    1    2  503  501 -0.20144077191E+02 -0.79887760714E+01  0.12274501517E+03  0.12464326350E+03  0.00000000000E+00 0. -1.
          2    1    1    2  501    0 -0.13098803334E+03 -0.29529861664E+03  0.18388558000E+04  0.18670162803E+04  0.00000000000E+00 0. -1.
<mgrwt>
<rscale>  4 0.36117746E+03</rscale>
<asrwt>0</asrwt>
<pdfrwt beam="1">  1       21 0.88119982E-01 0.36117746E+03</pdfrwt>
<pdfrwt beam="2">  1        2 0.31309250E+00 0.36117746E+03</pdfrwt>
<totfact> 0.90141286E+01</totfact>
</mgrwt>
</event>
<event>
 5    0  0.2947253E-001  0.2536498E+03  0.7546771E-02  0.1111020E+00
         21   -1    0    0  501  502  0.00000000000E+00  0.00000000000E+00  0.12268461383E+04  0.12268461383E+04  0.00000000000E+00 0.  1.
         -4   -1    0    0    0  501 -0.00000000000E+00 -0.00000000000E+00 -0.99385675775E+02  0.99385675775E+02  0.00000000000E+00 0.  1.
         25    1    1    2    0    0 -0.22317187539E+03  0.51952091091E+02  0.10146669305E+04  0.10477016205E+04  0.12500000000E+03 0.  0.
         21    1    1    2  501  501  0.51798466533E+02  0.19166549088E+02  0.68095174286E+02  0.87677765141E+02  0.00000000000E+00 0.  1.
         -4    1    1    2    0  502  0.17137340886E+03 -0.71118640179E+02  0.44698357696E+02  0.19085242840E+03  0.00000000000E+00 0.  1.
<mgrwt>
<rscale>  4 0.25364978E+03</rscale>
<asrwt>0</asrwt>
<pdfrwt beam="1">  1       21 0.18874555E+00 0.25364978E+03</pdfrwt>
<pdfrwt beam="2">  1       -4 0.15290105E-01 0.25364978E+03</pdfrwt>
<totfact> 0.23894753E+02</totfact>
</mgrwt>
</event>
<event>
 5    0  0.2947253E-001  0.1908060E+03  0.7546771E-02  0.1157736E+00
          1   -1    0    0  502    0 -0.00000000000E+00  0.00000000000E+00  0.63094222381E+03  0.63094222381E+03  0.00000000000E+00 0. -1.
         21   -1    0    0  503  502  0.00000000000E+00 -0.00000000000E+00 -0.11207126193E+03  0.11207126193E+03  0.00000000000E+00 0.  1.
         25    1    1    2    0    0 -0.85365881901E+02 -0.19069280017E+03  0.98579043241E+02  0.26266690997E+03  0.12500000000E+03 0.  0.
         21    1    1    2  503  501  0.35233591696E+02  0.65799405966E+02  0.60079751162E+02  0.95815156989E+02  0.00000000000E+00 0.  1.
          1    1    1    2  501    0  0.50132290205E+02  0.12489339420E+03  0.36021216748E+03  0.38453141879E+03  0.00000000000E+00 0. -1.
<mgrwt>
<rscale>  4 0.19080598E+03</rscale>
<asrwt>0</asrwt>
<pdfrwt beam="1">  1       21 0.17241733E-01 0.19080598E+03</pdfrwt>
<pdfrwt beam="2">  1        1 0.97068032E-01 0.19080598E+03</pdfrwt>
<totfact> 0.11069844E+04</totfact>
</mgrwt>
</event>
<event>
 5    0  0.2947253E-001  0.2471319E+03  0.7546771E-02  0.1115131E+00
         21   -1    0    0  503  502  0.00000000000E+00  0.00000000000E+00  0.14794936067E+03  0.14794936067E+03  0.00000000000E+00 0. -1.
          2   -1    0    0  502    0 -0.00000000000E+00 -0.00000000000E+00 -0.63057575416E+03  0.63057575416E+03  0.00000000000E+00 0. -1.
         25    1    1    2    0    0  0.21012056812E+03  0.36034939705E+02 -0.69512831654E+00  0.24713286554E+03  0.12500000000E+03 0.  0.
         21    1    1    2  503  501 -0.94725889899E+02 -0.17833434781E+01 -0.14134136101E+03  0.17015744140E+03  0.00000000000E+00 0. -1.
          2    1    1    2  501    0 -0.11539467822E+03 -0.34251596227E+02 -0.34058990417E+03  0.36123480788E+03  0.00000000000E+00 0. -1.
<mgrwt>
<rscale>  4 0.24713189E+03</rscale>
<asrwt>0</asrwt>
<pdfrwt beam="1">  1       21 0.22761440E-01 0.24713189E+03</pdfrwt>
<pdfrwt beam="2">  1        2 0.97011653E-01 0.24713189E+03</pdfrwt>
<totfact> 0.10698627E+04</totfact>
</mgrwt>
</event>
<event>
 5    0  0.2947253E-001  0.3479415E+03  0.7546771E-02  0.1063463E+00
         -3   -1    0    0    0  501 -0.00000000000E+00  0.00000000000E+00  0.11075025199E+04  0.11075025199E+04  0.00000000000E+00 0. -1.
         21   -1    0    0  501  502  0.00000000000E+00 -0.00000000000E+00 -0.15877650322E+03  0.15877650322E+03  0.00000000000E+00 0. -1.
         25    1    1    2    0    0  0.72216185912E+02 -0.32026738346E+03  0.15273071892E+03  0.38306402457E+03  0.12500000000E+03 0.  0.
         21    1    1    2  501  501  0.42286006116E+02  0.16767003884E+02  0.40033644231E+02  0.60596463617E+02  0.00000000000E+00 0.  1.
         -3    1    1    2    0  502 -0.11450219203E+03  0.30350037958E+03  0.75596165350E+03  0.82261853489E+03  0.00000000000E+00 0. -1.
<mgrwt>
<rscale>  4 0.34794155E+03</rscale>
<asrwt>0</asrwt>
<pdfrwt beam="1">  1       21 0.24427155E-01 0.34794155E+03</pdfrwt>
<pdfrwt beam="2">  1       -3 0.17038500E+00 0.34794155E+03</pdfrwt>
<totfact> 0.18663719E+02</totfact>
</mgrwt>
</event>
<event>
 5    0  0.2947253E-001  0.2488522E+03  0.7546771E-02  0.1114032E+00
         21   -1    0    0  503  502  0.00000000000E+00  0.00000000000E+00  0.42883732476E+03  0.42883732476E+03  0.00000000000E+00 0.  1.
          3   -1    0    0  502    0 -0.00000000000E+00 -0.00000000000E+00 -0.82179338105E+03  0.82179338105E+03  0.00000000000E+00 0.  1.
         25    1    1    2    0    0  0.13164245015E+03 -0.17790716352E+03  0.36277010352E+03  0.44295354330E+03  0.12500000000E+03 0.  0.
         21    1    1    2  503  501 -0.94742574827E+02  0.56967222811E+02 -0.13639647599E+03  0.17557169083E+03  0.00000000000E+00 0.  1.
          3    1    1    2  501    0 -0.36899875322E+02  0.12093994070E+03 -0.61932968382E+03  0.63210547167E+03  0.00000000000E+00 0.  1.
<mgrwt>
<rscale>  4 0.24885225E+03</rscale>
<asrwt>0</asrwt>
<pdfrwt beam="1">  1       21 0.65974974E-01 0.24885225E+03</pdfrwt>
<pdfrwt beam="2">  1        3 0.12642975E+00 0.24885225E+03</pdfrwt>
<totfact> 0.53370913E+01</totfact>
</mgrwt>
</event>
<event>
 5    0  0.2947253E-001  0.2979249E+03  0.7546771E-02  0.1086283E+00
         21   -1    0    0  501  502  0.00000000000E+00  0.00000000000E+00  0.12950789234E+03  0.12950789234E+03  0.00000000000E+00 0.  1.
         -2   -1    0    0    0  501 -0.00000000000E+00 -0.00000000000E+00 -0.74216537822E+03  0.74216537822E+03  0.00000000000E+00 0.  1.
         25    1    1    2    0    0 -0.28218580509E+03 -0.61476329670E+01 -0.26820020448E+03  0.40892905457E+03  0.12500000000E+03 0.  0.
         21    1    1    2  501  501  0.19608848990E+02  0.26735611285E+02 -0.56969546595E+01  0.33641568957E+02  0.00000000000E+00 0.  1.
         -2    1    1    2    0  502  0.26257695610E+03 -0.20587978318E+02 -0.33876032674E+03  0.42910264704E+03  0.00000000000E+00 0.  1.
<mgrwt>
<rscale>  4 0.29792491E+03</rscale>
<asrwt>0</asrwt>
<pdfrwt beam="1">  1       21 0.19924291E-01 0.29792491E+03</pdfrwt>
<pdfrwt beam="2">  1       -2 0.11417929E+00 0.29792491E+03</pdfrwt>
<totfact> 0.11689978E+03</totfact>
</mgrwt>
</event>
<event>
 5    0  0.2947253E-001  0.2753955E+03  0.7546771E-02  0.1098231E+00
         21   -1    0    0  503  502  0.00000000000E+00  0.00000000000E+00  0.15692064697E+03  0.15692064697E+03  0.00000000000E+00 0. -1.
          1   -1    0    0  502    0 -0.00000000000E+00 -0.00000000000E+00 -0.58132412099E+03  0.58132412099E+03  0.00000000000E+00 0.  1.
         25    1    1    2    0    0  0.25752243869E+02  0.24403786449E+03 -0.38024609726E+02  0.27800814433E+03  0.12500000000E+03 0.  0.
         21    1    1    2  503  501 -0.19891304182E+02 -0.30418577026E+02 -0.57870756796E+02  0.68337239500E+02  0.00000000000E+00 0.  1.
          1    1    1    2  501    0 -0.58609396877E+01 -0.21361928747E+03 -0.32850810749E+03  0.39189938413E+03  0.00000000000E+00 0.  1.
<mgrwt>
<rscale>  4 0.27539546E+03</rscale>
<asrwt>0</asrwt>
<pdfrwt beam="1">  1       21 0.24141638E-01 0.27539546E+03</pdfrwt>
<pdfrwt beam="2">  1        1 0.89434480E-01 0.27539546E+03</pdfrwt>
<totfact> 0.64592710E+03</totfact>
</mgrwt>
</event>
<event>
 5    0  0.2947253E-001  0.3035247E+03  0.7546771E-02  0.1083492E+00
         21   -1    0    0  503  502  0.00000000000E+00  0.00000000000E+00  0.18861007181E+03  0.18861007181E+03  0.00000000000E+00 0.  1.
          2   -1    0    0  502    0 -0.00000000000E+00 -0.00000000000E+00 -0.46523310475E+03  0.46523310475E+03  0.00000000000E+00 0.  1.
         25    1    1    2    0    0  0.24098150284E+03 -0.13575780154E+03 -0.97237885666E+02  0.31872005239E+03  0.12500000000E+03 0.  0.
         21    1    1    2  503  501 -0.25807215543E+02  0.38787979613E+02 -0.36910643404E+02  0.59438332186E+02  0.00000000000E+00 0.  1.
          2    1    1    2  501    0 -0.21517428729E+03  0.96969821932E+02 -0.14247450387E+03  0.27568479198E+03  0.00000000000E+00 0.  1.
<mgrwt>
<rscale>  4 0.30352474E+03</rscale>
<asrwt>0</asrwt>
<pdfrwt beam="1">  1       21 0.29016935E-01 0.30352474E+03</pdfrwt>
<pdfrwt beam="2">  1        2 0.71574323E-01 0.30352474E+03</pdfrwt>
<totfact> 0.93780853E+03</totfact>
</mgrwt>
</event>
<event>
 5    0  0.2947253E-001  0.3054654E+03  0.7546771E-02  0.1082540E+00
         21   -1    0    0  503  502  0.00000000000E+00  0.00000000000E+00  0.16067787021E+03  0.16067787021E+03  0.00000000000E+00 0. -1.
          2   -1    0    0  502    0 -0.00000000000E+00 -0.00000000000E+00 -0.56432994936E+03  0.56432994936E+03  0.00000000000E+00 0. -1.
         25    1    1    2    0    0  0.42565481739E+02  0.27544920106E+03 -0.26847866308E+03  0.40668154019E+03  0.12500000000E+03 0.  0.
         21    1    1    2  503  501  0.78185756017E+01 -0.81717569331E+02 -0.69775282893E+02  0.10773802191E+03  0.00000000000E+00 0. -1.
          2    1    1    2  501    0 -0.50384057341E+02 -0.19373163173E+03 -0.65398133169E+02  0.21058825748E+03  0.00000000000E+00 0. -1.
<mgrwt>
<rscale>  4 0.30546535E+03</rscale>
<asrwt>0</asrwt>
<pdfrwt beam="1">  1       21 0.24719672E-01 0.30546535E+03</pdfrwt>
<pdfrwt beam="2">  1        2 0.86819994E-01 0.30546535E+03</pdfrwt>
<totfact> 0.10282927E+04</totfact>
</mgrwt>
</event>
<event>
 5    0  0.2947253E-001  0.4286358E+03  0.7546771E-02  0.1034292E+00
          2   -1    0    0  502    0 -0.00000000000E+00  0.00000000000E+00  0.11053523682E+04  0.11053523682E+04  0.00000000000E+00 0. -1.
         21   -1    0    0  503  502  0.00000000000E+00 -0.00000000000E+00 -0.31640385746E+03  0.31640385746E+03  0.00000000000E+00 0. -1.
         25    1    1    2    0    0  0.42444591545E+03  0.25525487117E+02 -0.67755144674E+02  0.44835437464E+03  0.12500000000E+03 0.  0.
         21    1    1    2  503  501 -0.78070604188E+02 -0.48948464953E+02  0.77670159765E+02  0.12051400407E+03  0.00000000000E+00 0. -1.
          2    1    1    2  501    0 -0.34637531126E+03  0.23422977837E+02  0.77903349564E+03  0.85288784694E+03  0.00000000000E+00 0. -1.
<mgrwt>
<rscale>  4 0.42863578E+03</rscale>
<asrwt>0</asrwt>
<pdfrwt beam="1">  1       21 0.48677517E-01 0.42863578E+03</pdfrwt>
<pdfrwt beam="2">  1        2 0.17005421E+00 0.42863578E+03</pdfrwt>
<totfact> 0.10619229E+03</totfact>
</mgrwt>
</event>
<event>
 5    0  0.2947253E-001  0.2650416E+03  0.7546771E-02  0.1104151E+00
         21   -1    0    0  503  502  0.00000000000E+00  0.00000000000E+00  0.25285561640E+03  0.25285561640E+03  0.00000000000E+00 0. -1.
          2   -1    0    0  502    0 -0.00000000000E+00 -0.00000000000E+00 -0.27447580472E+03  0.27447580472E+03  0.00000000000E+00 0. -1.
         25    1    1    2    0    0 -0.19907133444E+03 -0.12244444009E+03 -0.86391137635E+02  0.27876596952E+03  0.12500000000E+03 0.  0.
         21    1    1    2  503  501  0.16787998483E+02  0.20116001019E+02  0.24110577560E+02  0.35606324443E+02  0.00000000000E+00 0.  1.
          2    1    1    2  501    0  0.18228333595E+03  0.10232843907E+03  0.40660371759E+02  0.21295912716E+03  0.00000000000E+00 0. -1.
<mgrwt>
<rscale>  4 0.26504158E+03</rscale>
<asrwt>0</asrwt>
<pdfrwt beam="1">  1       21 0.38900864E-01 0.26504158E+03</pdfrwt>
<pdfrwt beam="2">  1        2 0.42227047E-01 0.26504158E+03</pdfrwt>
<totfact> 0.93640803E+03</totfact>
</mgrwt>
</event>
<event>
 5    0  0.2947253E-001  0.2686238E+03  0.7546771E-02  0.1102070E+00
         21   -1    0    0  503  502  0.00000000000E+00  0.00000000000E+00  0.52574416731E+02  0.52574416731E+02  0.00000000000E+00 0.  1.
          2   -1    0    0  502    0 -0.00000000000E+00 -0.00000000000E+00 -0.12594588300E+04  0.12594588300E+04  0.00000000000E+00 0.  1.
         25    1    1    2    0    0  0.19844585353E+03 -0.13096947292E+03 -0.53396009554E+03  0.59772246340E+03  0.12500000000E+03 0.  0.
         21    1    1    2  503  501 -0.20372608025E+02  0.51733851364E+01 -0.46516247109E+02  0.51044767769E+02  0.00000000000E+00 0.  1.
          2    1    1    2  501    0 -0.17807324551E+03  0.12579608778E+03 -0.62640807063E+03  0.66326601558E+03  0.00000000000E+00 0.  1.
<mgrwt>
<rscale>  4 0.26862383E+03</rscale>
<asrwt>0</asrwt>
<pdfrwt beam="1">  1       21 0.80883717E-02 0.26862383E+03</pdfrwt>
<pdfrwt beam="2">  1        2 0.19376290E+00 0.26862383E+03</pdfrwt>
<totfact> 0.27431417E+04</totfact>
</mgrwt>
</event>
<event>
 5    0  0.2947253E-001  0.2648740E+03  0.7546771E-02  0.1104250E+00
         21   -1    0    0  503  502  0.00000000000E+00  0.00000000000E+00  0.15503618957E+03  0.15503618957E+03  0.00000000000E+00 0. -1.
          1   -1    0    0  502    0 -0.00000000000E+00 -0.00000000000E+00 -0.49400980098E+03  0.49400980098E+03  0.00000000000E+00 0. -1.
         25    1    1    2    0    0 -0.18428007147E+03  0.17154958325E+03 -0.20803793660E+03  0.34970442851E+03  0.12500000000E+03 0.  0.
         21    1    1    2  503  501  0.29283215716E+02 -0.17553653184E+02  0.14265369637E+02  0.37001867976E+02  0.00000000000E+00 0.  1.
          1    1    1    2  501    0  0.15499685576E+03 -0.15399593007E+03 -0.14520104445E+03  0.26233969406E+03  0.00000000000E+00 0. -1.
<mgrwt>
<rscale>  4 0.26487395E+03</rscale>
<asrwt>0</asrwt>
<pdfrwt beam="1">  1       21 0.23851721E-01 0.26487395E+03</pdfrwt>
<pdfrwt beam="2">  1        1 0.76001509E-01 0.26487395E+03</pdfrwt>
<totfact> 0.82607298E+03</totfact>
</mgrwt>
</event>
<event>
 5    0  0.2947253E-001  0.2646419E+03  0.7546771E-02  0.1104386E+00
         21   -1    0    0  503  502  0.00000000000E+00  0.00000000000E+00  0.19927506419E+03  0.19927506419E+03  0.00000000000E+00 0. -1.
          2   -1    0    0  502    0 -0.00000000000E+00 -0.00000000000E+00 -0.12562104951E+04  0.12562104951E+04  0.00000000000E+00 0. -1.
         25    1    1    2    0    0  0.23336679648E+03  0.38381042517E+02  0.89102971863E+02  0.28195302041E+03  0.12500000000E+03 0.  0.
         21    1    1    2  503  501 -0.39174276843E+02 -0.49999703257E+01 -0.77536570188E+02  0.87014615933E+02  0.00000000000E+00 0.  1.
          2    1    1    2  501    0 -0.19419251964E+03 -0.33381072191E+02 -0.10685018326E+04  0.10865179230E+04  0.00000000000E+00 0. -1.
<mgrwt>
<rscale>  4 0.26464193E+03</rscale>
<asrwt>0</asrwt>
<pdfrwt beam="1">  1       21 0.30657701E-01 0.26464193E+03</pdfrwt>
<pdfrwt beam="2">  1        2 0.19326316E+00 0.26464193E+03</pdfrwt>
<totfact> 0.23491317E+03</totfact>
</mgrwt>
</event>
<event>
 5    0  0.2947253E-001  0.2785020E+03  0.7546771E-02  0.1096510E+00
          2   -1    0    0  502    0 -0.00000000000E+00  0.00000000000E+00  0.17265097333E+04  0.17265097333E+04  0.00000000000E+00 0. -1.
         21   -1    0    0  503  502  0.00000000000E+00 -0.00000000000E+00 -0.66713940632E+02  0.66713940632E+02  0.00000000000E+00 0.  1.
         25    1    1    2    0    0 -0.89031950339E+02 -0.23240416489E+03  0.29720008669E+03  0.40729752708E+03  0.12500000000E+03 0.  0.
         21    1    1    2  503  501  0.18950342164E+01  0.49132491088E+02  0.32132727927E+03  0.32506739799E+03  0.00000000000E+00 0.  1.
          2    1    1    2  501    0  0.87136916123E+02  0.18327167380E+03  0.10412684267E+04  0.10608587489E+04  0.00000000000E+00 0. -1.
<mgrwt>
<rscale>  4 0.27850204E+03</rscale>
<asrwt>0</asrwt>
<pdfrwt beam="1">  1       21 0.10263684E-01 0.27850204E+03</pdfrwt>
<pdfrwt beam="2">  1        2 0.26561685E+00 0.27850204E+03</pdfrwt>
<totfact> 0.10053260E+04</totfact>
</mgrwt>
</event>
<event>
 5    0  0.2947253E-001  0.2370635E+03  0.7546771E-02  0.1121765E+00
         21   -1    0    0  503  502  0.00000000000E+00  0.00000000000E+00  0.20414560627E+03  0.20414560627E+03  0.00000000000E+00 0. -1.
          2   -1    0    0  502    0 -0.00000000000E+00 -0.00000000000E+00 -0.36640542210E+03  0.36640542210E+03  0.00000000000E+00 0.  1.
         25    1    1    2    0    0  0.19616008360E+03  0.74888164001E+02  0.55171597626E+02  0.25051131849E+03  0.12500000000E+03 0.  0.
         21    1    1    2  503  501 -0.15419762379E+02 -0.43469316968E+02 -0.19235996346E+02  0.49973734550E+02  0.00000000000E+00 0.  1.
          2    1    1    2  501    0 -0.18074032122E+03 -0.31418847033E+02 -0.19819541711E+03  0.27006597533E+03  0.00000000000E+00 0.  1.
<mgrwt>
<rscale>  4 0.23706350E+03</rscale>
<asrwt>0</asrwt>
<pdfrwt beam="1">  1       21 0.31407016E-01 0.23706350E+03</pdfrwt>
<pdfrwt beam="2">  1        2 0.56370065E-01 0.23706350E+03</pdfrwt>
<totfact> 0.10560649E+04</totfact>
</mgrwt>
</event>
<event>
 5    0  0.2947253E-001  0.2838790E+03  0.7546771E-02  0.1093589E+00
          2   -1    0    0  502    0 -0.00000000000E+00  0.00000000000E+00  0.11839507046E+04  0.11839507046E+04  0.00000000000E+00 0.  1.
         21   -1    0    0  503  502  0.00000000000E+00 -0.00000000000E+00 -0.15030810413E+03  0.15030810413E+03  0.00000000000E+00 0. -1.
         25    1    1    2    0    0  0.25099387451E+03 -0.56493081972E+02  0.32501337386E+02  0.28787276753E+03  0.12500000000E+03 0.  0.
         21    1    1    2  503  501 -0.26865988710E+02 -0.42484847671E+02  0.92319358893E+02  0.10511711401E+03  0.00000000000E+00 0.  1.
          2    1    1    2  501    0 -0.22412788580E+03  0.98977929643E+02  0.90882190416E+03  0.94126892715E+03  0.00000000000E+00 0.  1.
<mgrwt>
<rscale>  4 0.28387904E+03</rscale>
<asrwt>0</asrwt>
<pdfrwt beam="1">  1       21 0.23124324E-01 0.28387904E+03</pdfrwt>
<pdfrwt beam="2">  1        2 0.18214626E+00 0.28387904E+03</pdfrwt>
<totfact> 0.44307279E+03</totfact>
</mgrwt>
</event>
<event>
 5    0  0.2947253E-001  0.2848632E+03  0.7546771E-02  0.1093062E+00
         21   -1    0    0  503  502  0.00000000000E+00  0.00000000000E+00  0.21841546525E+03  0.21841546525E+03  0.00000000000E+00 0. -1.
          2   -1    0    0  502    0 -0.00000000000E+00 -0.00000000000E+00 -0.97901852016E+03  0.97901852016E+03  0.00000000000E+00 0. -1.
         25    1    1    2    0    0 -0.81700140465E+02  0.24258432733E+03  0.93920200659E+02  0.29994678346E+03  0.12500000000E+03 0.  0.
         21    1    1    2  503  501  0.58453718086E+02 -0.19589398828E+03 -0.51686460961E+03  0.55582399775E+03  0.00000000000E+00 0. -1.
          2    1    1    2  501    0  0.23246422380E+02 -0.46690339046E+02 -0.33765864596E+03  0.34166320420E+03  0.00000000000E+00 0. -1.
<mgrwt>
<rscale>  4 0.28486325E+03</rscale>
<asrwt>0</asrwt>
<pdfrwt beam="1">  1       21 0.33602378E-01 0.28486325E+03</pdfrwt>
<pdfrwt beam="2">  1        2 0.15061824E+00 0.28486325E+03</pdfrwt>
<totfact> 0.28301658E+03</totfact>
</mgrwt>
</event>
<event>
 5    0  0.2947253E-001  0.3338951E+03  0.7546771E-02  0.1069426E+00
          2   -1    0    0  502    0 -0.00000000000E+00  0.00000000000E+00  0.10049838132E+04  0.10049838132E+04  0.00000000000E+00 0.  1.
         21   -1    0    0  503  502  0.00000000000E+00 -0.00000000000E+00 -0.79706000607E+03  0.79706000607E+03  0.00000000000E+00 0. -1.
         25    1    1    2    0    0 -0.19918134834E+03 -0.24192199229E+03 -0.71709593527E+03  0.79249671309E+03  0.12500000000E+03 0.  0.
         21    1    1    2  503  501  0.11043812966E+03  0.23190303402E+02  0.97869340148E+02  0.14937462434E+03  0.00000000000E+00 0.  1.
          2    1    1    2  501    0  0.88743218680E+02  0.21873168888E+03  0.82715040228E+03  0.86017248188E+03  0.00000000000E+00 0.  1.
<mgrwt>
<rscale>  4 0.33389509E+03</rscale>
<asrwt>0</asrwt>
<pdfrwt beam="1">  1       21 0.12262462E+00 0.33389509E+03</pdfrwt>
<pdfrwt beam="2">  1        2 0.15461289E+00 0.33389509E+03</pdfrwt>
<totfact> 0.15130135E+02</totfact>
</mgrwt>
</event>
<event>
 5    0  0.2947253E-001  0.2958199E+03  0.7546771E-02  0.1087349E+00
         -3   -1    0    0    0  501 -0.00000000000E+00  0.00000000000E+00  0.75348834712E+03  0.75348834712E+03  0.00000000000E+00 0.  1.
         21   -1    0    0  501  502  0.00000000000E+00 -0.00000000000E+00 -0.24541420197E+03  0.24541420197E+03  0.00000000000E+00 0.  1.
         25    1    1    2    0    0  0.17582699557E+03  0.20240863196E+03 -0.11547653651E+03  0.31755978515E+03  0.12500000000E+03 0.  0.
         21    1    1    2  501  501 -0.38577477790E+02 -0.38560407128E+02  0.75943620488E+02  0.93501659254E+02  0.00000000000E+00 0.  1.
         -3    1    1    2    0  502 -0.13724951778E+03 -0.16384822483E+03  0.54760706117E+03  0.58784110468E+03  0.00000000000E+00 0.  1.
<mgrwt>
<rscale>  4 0.29581986E+03</rscale>
<asrwt>0</asrwt>
<pdfrwt beam="1">  1       21 0.37756031E-01 0.29581986E+03</pdfrwt>
<pdfrwt beam="2">  1       -3 0.11592128E+00 0.29581986E+03</pdfrwt>
<totfact> 0.20958864E+02</totfact>
</mgrwt>
</event>
<event>
 5    0  0.2947253E-001  0.2667928E+03  0.7546771E-02  0.1103129E+00
         21   -1    0    0  503  502  0.00000000000E+00  0.00000000000E+00  0.96053387185E+02  0.96053387185E+02  0.00000000000E+00 0.  1.
          2   -1    0    0  502    0 -0.00000000000E+00 -0.00000000000E+00 -0.12212116102E+04  0.12212116102E+04  0.00000000000E+00 0.  1.
         25    1    1    2    0    0  0.23567937400E+03  0.29350607715E+01 -0.13588924197E+03  0.29940652630E+03  0.12500000000E+03 0.  0.
         21    1    1    2  503  501 -0.31713249103E+02  0.14009444610E+02 -0.15886749567E+03  0.16260650629E+03  0.00000000000E+00 0.  1.
          2    1    1    2  501    0 -0.20396612490E+03 -0.16944505382E+02 -0.83040148542E+03  0.85525196483E+03  0.00000000000E+00 0.  1.
<mgrwt>
<rscale>  4 0.26679277E+03</rscale>
<asrwt>0</asrwt>
<pdfrwt beam="1">  1       21 0.14777443E-01 0.26679277E+03</pdfrwt>
<pdfrwt beam="2">  1        2 0.18787872E+00 0.26679277E+03</pdfrwt>
<totfact> 0.97953278E+03</totfact>
</mgrwt>
</event>
<event>
 5    0  0.2947253E-001  0.2783043E+03  0.7546771E-02  0.1096619E+00
         21   -1    0    0  503  502  0.00000000000E+00  0.00000000000E+00  0.90482400214E+02  0.90482400214E+02  0.00000000000E+00 0. -1.
          2   -1    0    0  502    0 -0.00000000000E+00 -0.00000000000E+00 -0.89525710901E+03  0.89525710901E+03  0.00000000000E+00 0.  1.
         25    1    1    2    0    0  0.24061708139E+03  0.62703268694E+02 -0.25328959977E+03  0.37630958148E+03  0.12500000000E+03 0.  0.
         21    1    1    2  503  501 -0.41337516837E+02  0.38510871684E+01 -0.45693338562E+02  0.61737365991E+02  0.00000000000E+00 0.  1.
          2    1    1    2  501    0 -0.19927956455E+03 -0.66554355862E+02 -0.50579177046E+03  0.54769256176E+03  0.00000000000E+00 0.  1.
<mgrwt>
<rscale>  4 0.27830429E+03</rscale>
<asrwt>0</asrwt>
<pdfrwt beam="1">  1       21 0.13920369E-01 0.27830429E+03</pdfrwt>
<pdfrwt beam="2">  1        2 0.13773187E+00 0.27830429E+03</pdfrwt>
<totfact> 0.17129995E+04</totfact>
</mgrwt>
</event>
<event>
 5    0  0.2947253E-001  0.2363127E+03  0.7546771E-02  0.1122274E+00
         21   -1    0    0  501  502  0.00000000000E+00  0.00000000000E+00  0.11593081163E+03  0.11593081163E+03  0.00000000000E+00 0.  1.
         -1   -1    0    0    0  501 -0.00000000000E+00 -0.00000000000E+00 -0.63831906727E+03  0.63831906727E+03  0.00000000000E+00 0. -1.
         25    1    1    2    0    0  0.13879567148E+02  0.20006511043E+03 -0.52738564571E+02  0.24212609729E+03  0.12500000000E+03 0.  0.
         21    1    1    2  501  501 -0.17261323709E+02 -0.16966100819E+03 -0.36107811934E+03  0.39932470404E+03  0.00000000000E+00 0. -1.
         -1    1    1    2    0  502  0.33817565610E+01 -0.30404102237E+02 -0.10857157174E+03  0.11279907757E+03  0.00000000000E+00 0. -1.
<mgrwt>
<rscale>  4 0.23631270E+03</rscale>
<asrwt>0</asrwt>
<pdfrwt beam="1">  1       21 0.17835510E-01 0.23631270E+03</pdfrwt>
<pdfrwt beam="2">  1       -1 0.98202933E-01 0.23631270E+03</pdfrwt>
<totfact> 0.27799219E+03</totfact>
</mgrwt>
</event>
<event>
 5    0  0.2947253E-001  0.3055003E+03  0.7546771E-02  0.1082523E+00
         21   -1    0    0  501  502  0.00000000000E+00  0.00000000000E+00  0.20507208599E+03  0.20507208599E+03  0.00000000000E+00 0.  1.
         -2   -1    0    0    0  501 -0.00000000000E+00 -0.00000000000E+00 -0.46386214227E+03  0.46386214227E+03  0.00000000000E+00 0.  1.
         25    1    1    2    0    0  0.27692621486E+03 -0.31895652614E+02 -0.21653311896E+03  0.37445567527E+03  0.12500000000E+03 0.  0.
         21    1    1    2  501  501 -0.52973228355E+02  0.10702246848E+02  0.25197863385E+02  0.59629131547E+02  0.00000000000E+00 0. -1.
         -2    1    1    2    0  502 -0.22395298651E+03  0.21193405766E+02 -0.67454800702E+02  0.23484942144E+03  0.00000000000E+00 0.  1.
<mgrwt>
<rscale>  4 0.30550035E+03</rscale>
<asrwt>0</asrwt>
<pdfrwt beam="1">  1       21 0.31549552E-01 0.30550035E+03</pdfrwt>
<pdfrwt beam="2">  1       -2 0.71363406E-01 0.30550035E+03</pdfrwt>
<totfact> 0.14034245E+03</totfact>
</mgrwt>
</event>
<event>
 5    0  0.2947253E-001  0.2622545E+03  0.7546771E-02  0.1105796E+00
         21   -1    0    0  503  502  0.00000000000E+00  0.00000000000E+00  0.91820583501E+03  0.91820583501E+03  0.00000000000E+00 0.  1.
          2   -1    0    0  502    0 -0.00000000000E+00 -0.00000000000E+00 -0.11015871313E+04  0.11015871313E+04  0.00000000000E+00 0.  1.
         25    1    1    2    0    0  0.53639472296E+00  0.23054744959E+03  0.88613523090E+03  0.92412827122E+03  0.12500000000E+03 0.  0.
         21    1    1    2  503  501  0.28464229177E+02 -0.88634843261E+02 -0.41659688065E+03  0.42687153659E+03  0.00000000000E+00 0.  1.
          2    1    1    2  501    0 -0.29000623900E+02 -0.14191260633E+03 -0.65291964653E+03  0.66879315849E+03  0.00000000000E+00 0.  1.
<mgrwt>
<rscale>  4 0.26225448E+03</rscale>
<asrwt>0</asrwt>
<pdfrwt beam="1">  1       21 0.14126244E+00 0.26225448E+03</pdfrwt>
<pdfrwt beam="2">  1        2 0.16947494E+00 0.26225448E+03</pdfrwt>
<totfact> 0.95921147E+01</totfact>
</mgrwt>
</event>
<event>
 5    0  0.2947253E-001  0.2881562E+03  0.7546771E-02  0.1091316E+00
          2   -1    0    0  502    0 -0.00000000000E+00  0.00000000000E+00  0.13742606100E+04  0.13742606100E+04  0.00000000000E+00 0. -1.
         21   -1    0    0  503  502  0.00000000000E+00 -0.00000000000E+00 -0.12072175223E+03  0.12072175223E+03  0.00000000000E+00 0. -1.
         25    1    1    2    0    0  0.15742295384E+03  0.20523227981E+03  0.97714616820E+02  0.30343932081E+03  0.12500000000E+03 0.  0.
         21    1    1    2  503  501 -0.14186129344E+02  0.18639054787E+02  0.78489903843E+02  0.81910473289E+02  0.00000000000E+00 0.  1.
          2    1    1    2  501    0 -0.14323682450E+03 -0.22387133460E+03  0.10773343371E+04  0.11096325682E+04  0.00000000000E+00 0. -1.
<mgrwt>
<rscale>  4 0.28815622E+03</rscale>
<asrwt>0</asrwt>
<pdfrwt beam="1">  1       21 0.18572578E-01 0.28815622E+03</pdfrwt>
<pdfrwt beam="2">  1        2 0.21142470E+00 0.28815622E+03</pdfrwt>
<totfact> 0.52413666E+03</totfact>
</mgrwt>
</event>
<event>
 5    0  0.2947253E-001  0.4069839E+03  0.7546771E-02  0.1041388E+00
         21   -1    0    0  501  502  0.00000000000E+00  0.00000000000E+00  0.15640007509E+03  0.15640007509E+03  0.00000000000E+00 0.  1.
         -4   -1    0    0    0  501 -0.00000000000E+00 -0.00000000000E+00 -0.10606418737E+04  0.10606418737E+04  0.00000000000E+00 0. -1.
         25    1    1    2    0    0 -0.32553177954E+03 -0.20985705914E+03 -0.37600956921E+03  0.55409306158E+03  0.12500000000E+03 0.  0.
         21    1    1    2  501  501  0.22269093313E+02  0.36620524085E+02 -0.22687954162E+02  0.48494520982E+02  0.00000000000E+00 0. -1.
         -4    1    1    2    0  502  0.30326268622E+03  0.17323653505E+03 -0.50554427520E+03  0.61445436618E+03  0.00000000000E+00 0. -1.
<mgrwt>
<rscale>  4 0.40698394E+03</rscale>
<asrwt>0</asrwt>
<pdfrwt beam="1">  1       21 0.24061549E-01 0.40698394E+03</pdfrwt>
<pdfrwt beam="2">  1       -4 0.16317568E+00 0.40698394E+03</pdfrwt>
<totfact> 0.16895973E+02</totfact>
</mgrwt>
</event>
<event>
 5    0  0.2947253E-001  0.2455464E+03  0.7546771E-02  0.1116152E+00
          2   -1    0    0  502    0 -0.00000000000E+00  0.00000000000E+00  0.18534560059E+04  0.18534560059E+04  0.00000000000E+00 0.  1.
         21   -1    0    0  503  502  0.00000000000E+00 -0.00000000000E+00 -0.91707990244E+02  0.91707990244E+02  0.00000000000E+00 0. -1.
         25    1    1    2    0    0 -0.63160910953E+01 -0.21125373669E+03  0.93239611533E+02  0.26265311617E+03  0.12500000000E+03 0.  0.
         21    1    1    2  503  501  0.16416902242E+02  0.64464271141E+02  0.39942874720E+03  0.40493021747E+03  0.00000000000E+00 0.  1.
          2    1    1    2  501    0 -0.10100811147E+02  0.14678946555E+03  0.12690796569E+04  0.12775806625E+04  0.00000000000E+00 0.  1.
<mgrwt>
<rscale>  4 0.24554640E+03</rscale>
<asrwt>0</asrwt>
<pdfrwt beam="1">  1       21 0.14108923E-01 0.24554640E+03</pdfrwt>
<pdfrwt beam="2">  1        2 0.28514705E+00 0.24554640E+03</pdfrwt>
<totfact> 0.49140538E+03</totfact>
</mgrwt>
</event>
<event>
 5    0  0.2947253E-001  0.2507966E+03  0.7546771E-02  0.1112802E+00
         21   -1    0    0  503  502  0.00000000000E+00  0.00000000000E+00  0.26624628382E+03  0.26624628382E+03  0.00000000000E+00 0.  1.
          1   -1    0    0  502    0 -0.00000000000E+00 -0.00000000000E+00 -0.79300494172E+03  0.79300494172E+03  0.00000000000E+00 0.  1.
         25    1    1    2    0    0 -0.18639349480E+01  0.22329658308E+03  0.17879195325E+03  0.31218007755E+03  0.12500000000E+03 0.  0.
         21    1    1    2  503  501 -0.17917291462E+02 -0.61249421319E+02 -0.90590564787E+02  0.11081142258E+03  0.00000000000E+00 0. -1.
          1    1    1    2  501    0  0.19781226410E+02 -0.16204716177E+03 -0.61496004636E+03  0.63625972541E+03  0.00000000000E+00 0.  1.
<mgrwt>
<rscale>  4 0.25079658E+03</rscale>
<asrwt>0</asrwt>
<pdfrwt beam="1">  1       21 0.40960967E-01 0.25079658E+03</pdfrwt>
<pdfrwt beam="2">  1        1 0.12200076E+00 0.25079658E+03</pdfrwt>
<totfact> 0.14590837E+03</totfact>
</mgrwt>
</event>
<event>
 5    0  0.2947253E-001  0.2697993E+03  0.7546771E-02  0.1101395E+00
         -1   -1    0    0    0  501 -0.00000000000E+00  0.00000000000E+00  0.28844454273E+03  0.28844454273E+03  0.00000000000E+00 0.  1.
         21   -1    0    0  501  502  0.00000000000E+00 -0.00000000000E+00 -0.74805189255E+03  0.74805189255E+03  0.00000000000E+00 0. -1.
         25    1    1    2    0    0 -0.18585240052E+03 -0.14632351647E+03 -0.63446625000E+03  0.68856670602E+03  0.12500000000E+03 0.  0.
         21    1    1    2  501  501 -0.19440101282E+02 -0.17853414163E+02 -0.81579942710E+01  0.27626342603E+02  0.00000000000E+00 0. -1.
         -1    1    1    2    0  502  0.20529250181E+03  0.16417693063E+03  0.18301689446E+03  0.32030338666E+03  0.00000000000E+00 0.  1.
<mgrwt>
<rscale>  4 0.26979928E+03</rscale>
<asrwt>0</asrwt>
<pdfrwt beam="1">  1       21 0.11508491E+00 0.26979928E+03</pdfrwt>
<pdfrwt beam="2">  1       -1 0.44376084E-01 0.26979928E+03</pdfrwt>
<totfact> 0.26526138E+02</totfact>
</mgrwt>
</event>
<event>
 5    0  0.2947253E-001  0.3509277E+03  0.7546771E-02  0.1062235E+00
          2   -1    0    0  502    0 -0.00000000000E+00  0.00000000000E+00  0.16310451782E+04  0.16310451782E+04  0.00000000000E+00 0. -1.
         21   -1    0    0  503  502  0.00000000000E+00 -0.00000000000E+00 -0.23936370991E+03  0.23936370991E+03  0.00000000000E+00 0. -1.
         25    1    1    2    0    0 -0.39066611597E+03  0.77265232319E+02  0.35702170667E+02  0.41891475897E+03  0.12500000000E+03 0.  0.
         21    1    1    2  503  501  0.22652096381E+03  0.47092296730E+02  0.31786286583E+03  0.39314912302E+03  0.00000000000E+00 0. -1.
          2    1    1    2  501    0  0.16414515217E+03 -0.12435752905E+03  0.10381164318E+04  0.10583450062E+04  0.00000000000E+00 0. -1.
<mgrwt>
<rscale>  4 0.35092769E+03</rscale>
<asrwt>0</asrwt>
<pdfrwt beam="1">  1       21 0.36825187E-01 0.35092769E+03</pdfrwt>
<pdfrwt beam="2">  1        2 0.25093002E+00 0.35092769E+03</pdfrwt>
<totfact> 0.98544586E+02</totfact>
</mgrwt>
</event>
<event>
 5    0  0.2947253E-001  0.2647295E+03  0.7546771E-02  0.1104335E+00
          1   -1    0    0  502    0 -0.00000000000E+00  0.00000000000E+00  0.14887090565E+04  0.14887090565E+04  0.00000000000E+00 0.  1.
         21   -1    0    0  503  502  0.00000000000E+00 -0.00000000000E+00 -0.76227662817E+02  0.76227662817E+02  0.00000000000E+00 0.  1.
         25    1    1    2    0    0  0.66630687407E+01  0.24158776165E+03  0.11886330686E+04  0.12193779622E+04  0.12500000000E+03 0.  0.
         21    1    1    2  503  501  0.13670608169E+02 -0.31232311472E+02 -0.45387758552E+01  0.34393942691E+02  0.00000000000E+00 0.  1.
          1    1    1    2  501    0 -0.20333676910E+02 -0.21035545018E+03  0.22838710100E+03  0.31116481443E+03  0.00000000000E+00 0.  1.
<mgrwt>
<rscale>  4 0.26472945E+03</rscale>
<asrwt>0</asrwt>
<pdfrwt beam="1">  1       21 0.11727334E-01 0.26472945E+03</pdfrwt>
<pdfrwt beam="2">  1        1 0.22903214E+00 0.26472945E+03</pdfrwt>
<totfact> 0.49205048E+03</totfact>
</mgrwt>
</event>
<event>
 5    0  0.2947253E-001  0.2612531E+03  0.7546771E-02  0.1106393E+00
         21   -1    0    0  503  502  0.00000000000E+00  0.00000000000E+00  0.31190012074E+02  0.31190012074E+02  0.00000000000E+00 0.  1.
          2   -1    0    0  502    0 -0.00000000000E+00 -0.00000000000E+00 -0.32103173555E+04  0.32103173555E+04  0.00000000000E+00 0.  1.
         25    1    1    2    0    0 -0.77489470389E+02  0.21592486269E+03 -0.64284741050E+03  0.69390630314E+03  0.12500000000E+03 0.  0.
         21    1    1    2  503  501  0.31859788035E+02 -0.55124247008E+02 -0.42854706997E+03  0.43325087407E+03  0.00000000000E+00 0. -1.
          2    1    1    2  501    0  0.45629682355E+02 -0.16080061568E+03 -0.21077328629E+04  0.21143501903E+04  0.00000000000E+00 0.  1.
<mgrwt>
<rscale>  4 0.26125307E+03</rscale>
<asrwt>0</asrwt>
<pdfrwt beam="1">  1       21 0.47984629E-02 0.26125307E+03</pdfrwt>
<pdfrwt beam="2">  1        2 0.49389503E+00 0.26125307E+03</pdfrwt>
<totfact> 0.57169905E+03</totfact>
</mgrwt>
</event>
<event>
 5    0  0.2947253E-001  0.2747000E+03  0.7546771E-02  0.1098619E+00
         21   -1    0    0  503  502  0.00000000000E+00  0.00000000000E+00  0.12916066814E+04  0.12916066814E+04  0.00000000000E+00 0.  1.
          1   -1    0    0  502    0 -0.00000000000E+00 -0.00000000000E+00 -0.13311508761E+03  0.13311508761E+03  0.00000000000E+00 0.  1.
         25    1    1    2    0    0 -0.65670908802E+01  0.24452394434E+03  0.11388089246E+04  0.11714716611E+04  0.12500000000E+03 0.  0.
         21    1    1    2  503  501 -0.26600936967E+02 -0.14782001281E+03  0.90977236837E+01  0.15046971327E+03  0.00000000000E+00 0.  1.
          1    1    1    2  501    0  0.33168027847E+02 -0.96703931530E+02  0.10584945474E+02  0.10278039461E+03  0.00000000000E+00 0.  1.
<mgrwt>
<rscale>  4 0.27469999E+03</rscale>
<asrwt>0</asrwt>
<pdfrwt beam="1">  1       21 0.19870871E+00 0.27469999E+03</pdfrwt>
<pdfrwt beam="2">  1        1 0.20479245E-01 0.27469999E+03</pdfrwt>
<totfact> 0.34608017E+02</totfact>
</mgrwt>
</event>
<event>
 5    0  0.2947253E-001  0.3152204E+03  0.7546771E-02  0.1077870E+00
         21   -1    0    0  503  502  0.00000000000E+00  0.00000000000E+00  0.44880864801E+03  0.44880864801E+03  0.00000000000E+00 0. -1.
          2   -1    0    0  502    0 -0.00000000000E+00 -0.00000000000E+00 -0.10375521153E+04  0.10375521153E+04  0.00000000000E+00 0.  1.
         25    1    1    2    0    0 -0.28578886853E+03  0.58628780954E+02  0.35315329264E+03  0.47482087089E+03  0.12500000000E+03 0.  0.
         21    1    1    2  503  501  0.50285579546E+02  0.78909658002E+02 -0.19192077807E+03  0.21351571064E+03  0.00000000000E+00 0.  1.
          2    1    1    2  501    0  0.23550328899E+03 -0.13753843896E+03 -0.74997598188E+03  0.79802418178E+03  0.00000000000E+00 0.  1.
<mgrwt>
<rscale>  4 0.31522044E+03</rscale>
<asrwt>0</asrwt>
<pdfrwt beam="1">  1       21 0.69047485E-01 0.31522044E+03</pdfrwt>
<pdfrwt beam="2">  1        2 0.15962340E+00 0.31522044E+03</pdfrwt>
<totfact> 0.56735943E+02</totfact>
</mgrwt>
</event>
<event>
 5    0  0.2947253E-001  0.2971792E+03  0.7546771E-02  0.1086659E+00
         21   -1    0    0  503  502  0.00000000000E+00  0.00000000000E+00  0.34953055714E+03  0.34953055714E+03  0.00000000000E+00 0.  1.
          2   -1    0    0  502    0 -0.00000000000E+00 -0.00000000000E+00 -0.48127404557E+03  0.48127404557E+03  0.00000000000E+00 0.  1.
         25    1    1    2    0    0 -0.63706849541E+02 -0.27578279688E+03 -0.10464324378E+03  0.32663423305E+03  0.12500000000E+03 0.  0.
         21    1    1    2  503  501  0.13734430056E+03  0.11445460130E+02  0.12874580828E+03  0.18859994327E+03  0.00000000000E+00 0.  1.
          2    1    1    2  501    0 -0.73637451016E+02  0.26433733675E+03 -0.15584605292E+03  0.31557042638E+03  0.00000000000E+00 0.  1.
<mgrwt>
<rscale>  4 0.29717922E+03</rscale>
<asrwt>0</asrwt>
<pdfrwt beam="1">  1       21 0.53773932E-01 0.29717922E+03</pdfrwt>
<pdfrwt beam="2">  1        2 0.74042160E-01 0.29717922E+03</pdfrwt>
<totfact> 0.25670106E+03</totfact>
</mgrwt>
</event>
<event>
 5    0  0.2947253E-001  0.4891731E+03  0.7546771E-02  0.1016644E+00
         21   -1    0    0  503  502  0.00000000000E+00  0.00000000000E+00  0.24533231507E+03  0.24533231507E+03  0.00000000000E+00 0. -1.
          2   -1    0    0  502    0 -0.00000000000E+00 -0.00000000000E+00 -0.13916952190E+04  0.13916952190E+04  0.00000000000E+00 0.  1.
         25    1    1    2    0    0  0.42487514816E+03 -0.20062267460E+03 -0.14985430839E+03  0.50877270252E+03  0.12500000000E+03 0.  0.
         21    1    1    2  503  501  0.28722786774E+02  0.34063799176E+02 -0.10841619961E+03  0.11721524318E+03  0.00000000000E+00 0.  1.
          2    1    1    2  501    0 -0.45359793493E+03  0.16655887543E+03 -0.88809239596E+03  0.10110395884E+04  0.00000000000E+00 0.  1.
<mgrwt>
<rscale>  4 0.48917315E+03</rscale>
<asrwt>0</asrwt>
<pdfrwt beam="1">  1       21 0.37743434E-01 0.48917315E+03</pdfrwt>
<pdfrwt beam="2">  1        2 0.21410695E+00 0.48917315E+03</pdfrwt>
<totfact> 0.12154075E+03</totfact>
</mgrwt>
</event>
<event>
 5    0  0.2947253E-001  0.2457580E+03  0.7546771E-02  0.1116015E+00
         21   -1    0    0  501  502  0.00000000000E+00  0.00000000000E+00  0.53491594007E+03  0.53491594007E+03  0.00000000000E+00 0.  1.
         -4   -1    0    0    0  501 -0.00000000000E+00 -0.00000000000E+00 -0.21290517986E+04  0.21290517986E+04  0.00000000000E+00 0. -1.
         25    1    1    2    0    0  0.20248165969E+03  0.61426242457E+02  0.50007458846E+03  0.55719978445E+03  0.12500000000E+03 0.  0.
         21    1    1    2  501  501 -0.55921525485E+02 -0.51272708333E+02 -0.48924156578E+03  0.49508930237E+03  0.00000000000E+00 0. -1.
         -4    1    1    2    0  502 -0.14656013421E+03 -0.10153534124E+02 -0.16049688812E+04  0.16116786519E+04  0.00000000000E+00 0. -1.
<mgrwt>
<rscale>  4 0.24575802E+03</rscale>
<asrwt>0</asrwt>
<pdfrwt beam="1">  1       21 0.82294758E-01 0.24575802E+03</pdfrwt>
<pdfrwt beam="2">  1       -4 0.32754644E+00 0.24575802E+03</pdfrwt>
<totfact> 0.13194257E+00</totfact>
</mgrwt>
</event>
<event>
 5    0  0.2947253E-001  0.3490146E+03  0.7546771E-02  0.1063020E+00
         21   -1    0    0  503  502  0.00000000000E+00  0.00000000000E+00  0.33889946015E+03  0.33889946015E+03  0.00000000000E+00 0.  1.
          2   -1    0    0  502    0 -0.00000000000E+00 -0.00000000000E+00 -0.89639538506E+03  0.89639538506E+03  0.00000000000E+00 0. -1.
         25    1    1    2    0    0 -0.17321285073E+03 -0.27601353146E+03  0.20507786068E+03  0.40480623778E+03  0.12500000000E+03 0.  0.
         21    1    1    2  503  501  0.18984141344E+02  0.12449850029E+02 -0.39198452927E+02  0.45298069498E+02  0.00000000000E+00 0.  1.
          2    1    1    2  501    0  0.15422870938E+03  0.26356368144E+03 -0.72337533265E+03  0.78519053793E+03  0.00000000000E+00 0. -1.
<mgrwt>
<rscale>  4 0.34901456E+03</rscale>
<asrwt>0</asrwt>
<pdfrwt beam="1">  1       21 0.52138378E-01 0.34901456E+03</pdfrwt>
<pdfrwt beam="2">  1        2 0.13790698E+00 0.34901456E+03</pdfrwt>
<totfact> 0.12681352E+03</totfact>
</mgrwt>
</event>
<event>
 5    0  0.2947253E-001  0.3944727E+03  0.7546771E-02  0.1045711E+00
         21   -1    0    0  503  502  0.00000000000E+00  0.00000000000E+00  0.12462841770E+03  0.12462841770E+03  0.00000000000E+00 0.  1.
          2   -1    0    0  502    0 -0.00000000000E+00 -0.00000000000E+00 -0.21180011944E+04  0.21180011944E+04  0.00000000000E+00 0.  1.
         25    1    1    2    0    0  0.18248712782E+03 -0.34909932462E+03 -0.38858431425E+03  0.56726947701E+03  0.12500000000E+03 0.  0.
         21    1    1    2  503  501  0.70363100431E+02  0.12109929810E+03 -0.43037340992E+03  0.45258952470E+03  0.00000000000E+00 0.  1.
          2    1    1    2  501    0 -0.25285022825E+03  0.22800002652E+03 -0.11744150526E+04  0.12227706104E+04  0.00000000000E+00 0.  1.
<mgrwt>
<rscale>  4 0.39447267E+03</rscale>
<asrwt>0</asrwt>
<pdfrwt beam="1">  1       21 0.19173602E-01 0.39447267E+03</pdfrwt>
<pdfrwt beam="2">  1        2 0.32584635E+00 0.39447267E+03</pdfrwt>
<totfact> 0.19119906E+03</totfact>
</mgrwt>
</event>
<event>
 5    0  0.2947253E-001  0.2892815E+03  0.7546771E-02  0.1090725E+00
         21   -1    0    0  503  502  0.00000000000E+00  0.00000000000E+00  0.19039152179E+03  0.19039152179E+03  0.00000000000E+00 0. -1.
          2   -1    0    0  502    0 -0.00000000000E+00 -0.00000000000E+00 -0.65381220054E+03  0.65381220054E+03  0.00000000000E+00 0. -1.
         25    1    1    2    0    0  0.23925815025E+03  0.10399181439E+03  0.19237653043E+02  0.28992041531E+03  0.12500000000E+03 0.  0.
         21    1    1    2  503  501 -0.46593656418E+02  0.32346656915E+00 -0.44643174820E+02  0.64529733511E+02  0.00000000000E+00 0. -1.
          2    1    1    2  501    0 -0.19266449383E+03 -0.10431528096E+03 -0.43801515698E+03  0.48975357351E+03  0.00000000000E+00 0. -1.
<mgrwt>
<rscale>  4 0.28928145E+03</rscale>
<asrwt>0</asrwt>
<pdfrwt beam="1">  1       21 0.29291003E-01 0.28928145E+03</pdfrwt>
<pdfrwt beam="2">  1        2 0.10058649E+00 0.28928145E+03</pdfrwt>
<totfact> 0.62381988E+03</totfact>
</mgrwt>
</event>
<event>
 5    0  0.2947253E-001  0.2798896E+03  0.7546771E-02  0.1095749E+00
         21   -1    0    0  503  502  0.00000000000E+00  0.00000000000E+00  0.13055664418E+03  0.13055664418E+03  0.00000000000E+00 0.  1.
          1   -1    0    0  502    0 -0.00000000000E+00 -0.00000000000E+00 -0.75585375569E+03  0.75585375569E+03  0.00000000000E+00 0.  1.
         25    1    1    2    0    0 -0.81324459803E+02 -0.23685335290E+03 -0.94233300660E+02  0.29532709577E+03  0.12500000000E+03 0.  0.
         21    1    1    2  503  501  0.25990591473E+02  0.13392887553E+02 -0.64375905021E+02  0.70704578560E+02  0.00000000000E+00 0. -1.
          1    1    1    2  501    0  0.55333868330E+02  0.22346046535E+03 -0.46668790583E+03  0.52037872555E+03  0.00000000000E+00 0.  1.
<mgrwt>
<rscale>  4 0.27988958E+03</rscale>
<asrwt>0</asrwt>
<pdfrwt beam="1">  1       21 0.20085638E-01 0.27988958E+03</pdfrwt>
<pdfrwt beam="2">  1        1 0.11628519E+00 0.27988958E+03</pdfrwt>
<totfact> 0.62697981E+03</totfact>
</mgrwt>
</event>
<event>
 5    0  0.2947253E-001  0.2364516E+03  0.7546771E-02  0.1122179E+00
         21   -1    0    0  501  502  0.00000000000E+00  0.00000000000E+00  0.25217080553E+03  0.25217080553E+03  0.00000000000E+00 0. -1.
         -3   -1    0    0    0  501 -0.00000000000E+00 -0.00000000000E+00 -0.26215607693E+03  0.26215607693E+03  0.00000000000E+00 0. -1.
         25    1    1    2    0    0  0.12963301165E+03 -0.15323070568E+03  0.11987179270E+03  0.26510113836E+03  0.12500000000E+03 0.  0.
         21    1    1    2  501  501 -0.70797741651E+01  0.32037093339E+02  0.99419675055E+00  0.32825096786E+02  0.00000000000E+00 0. -1.
         -3    1    1    2    0  502 -0.12255323748E+03  0.12119361234E+03 -0.13085126085E+03  0.21640064731E+03  0.00000000000E+00 0. -1.
<mgrwt>
<rscale>  4 0.23645162E+03</rscale>
<asrwt>0</asrwt>
<pdfrwt beam="1">  1       21 0.38795508E-01 0.23645162E+03</pdfrwt>
<pdfrwt beam="2">  1       -3 0.40331704E-01 0.23645162E+03</pdfrwt>
<totfact> 0.19282767E+03</totfact>
</mgrwt>
</event>
<event>
 5    0  0.2947253E-001  0.3200791E+03  0.7546771E-02  0.1075613E+00
         21   -1    0    0  503  502  0.00000000000E+00  0.00000000000E+00  0.13777597940E+03  0.13777597940E+03  0.00000000000E+00 0.  1.
          1   -1    0    0  502    0 -0.00000000000E+00 -0.00000000000E+00 -0.70185862921E+03  0.70185862921E+03  0.00000000000E+00 0.  1.
         25    1    1    2    0    0 -0.24352685299E+03  0.16589238712E+03 -0.23846463050E+03  0.39914407453E+03  0.12500000000E+03 0.  0.
         21    1    1    2  503  501  0.19473406691E+02 -0.94801200421E+01 -0.12892984687E+02  0.25205461676E+02  0.00000000000E+00 0. -1.
          1    1    1    2  501    0  0.22405344630E+03 -0.15641226708E+03 -0.31272503463E+03  0.41528507242E+03  0.00000000000E+00 0.  1.
<mgrwt>
<rscale>  4 0.32007907E+03</rscale>
<asrwt>0</asrwt>
<pdfrwt beam="1">  1       21 0.21196305E-01 0.32007907E+03</pdfrwt>
<pdfrwt beam="2">  1        1 0.10797825E+00 0.32007907E+03</pdfrwt>
<totfact> 0.62693395E+03</totfact>
</mgrwt>
</event>
<event>
 5    0  0.2947253E-001  0.5428085E+03  0.7546771E-02  0.1003172E+00
         21   -1    0    0  503  502  0.00000000000E+00  0.00000000000E+00  0.41890325024E+03  0.41890325024E+03  0.00000000000E+00 0.  1.
          2   -1    0    0  502    0 -0.00000000000E+00 -0.00000000000E+00 -0.16232001540E+04  0.16232001540E+04  0.00000000000E+00 0. -1.
         25    1    1    2    0    0  0.53266996481E+03 -0.28045895506E+03 -0.10210241035E+00  0.61483292634E+03  0.12500000000E+03 0.  0.
         21    1    1    2  503  501 -0.35989262227E+03 -0.30298541384E+02 -0.85842504532E+03  0.93130782216E+03  0.00000000000E+00 0. -1.
          2    1    1    2  501    0 -0.17277734254E+03  0.31075749644E+03 -0.34576975598E+03  0.49596265569E+03  0.00000000000E+00 0. -1.
<mgrwt>
<rscale>  4 0.54280849E+03</rscale>
<asrwt>0</asrwt>
<pdfrwt beam="1">  1       21 0.64446654E-01 0.54280849E+03</pdfrwt>
<pdfrwt beam="2">  1        2 0.24972310E+00 0.54280849E+03</pdfrwt>
<totfact> 0.28579411E+02</totfact>
</mgrwt>
</event>
<event>
 5    0  0.2947253E-001  0.2715058E+03  0.7546771E-02  0.1100421E+00
         21   -1    0    0  503  502  0.00000000000E+00  0.00000000000E+00  0.66031975127E+02  0.66031975127E+02  0.00000000000E+00 0. -1.
          2   -1    0    0  502    0 -0.00000000000E+00 -0.00000000000E+00 -0.18783576704E+04  0.18783576704E+04  0.00000000000E+00 0.  1.
         25    1    1    2    0    0 -0.25130641400E+03 -0.32733797873E+02 -0.32069847562E+03  0.42743295089E+03  0.12500000000E+03 0.  0.
         21    1    1    2  503  501  0.54908324903E+02  0.21038206859E+02 -0.15232160490E+03  0.16327707007E+03  0.00000000000E+00 0.  1.
          2    1    1    2  501    0  0.19639808910E+03  0.11695591014E+02 -0.13393056148E+04  0.13536796246E+04  0.00000000000E+00 0.  1.
<mgrwt>
<rscale>  4 0.27150582E+03</rscale>
<asrwt>0</asrwt>
<pdfrwt beam="1">  1       21 0.10158767E-01 0.27150582E+03</pdfrwt>
<pdfrwt beam="2">  1        2 0.28897807E+00 0.27150582E+03</pdfrwt>
<totfact> 0.85369907E+03</totfact>
</mgrwt>
</event>
<event>
 5    0  0.2947253E-001  0.3344872E+03  0.7546771E-02  0.1069169E+00
          4   -1    0    0  502    0 -0.00000000000E+00  0.00000000000E+00  0.17630169176E+04  0.17630169176E+04  0.00000000000E+00 0. -1.
         21   -1    0    0  503  502  0.00000000000E+00 -0.00000000000E+00 -0.14036401192E+03  0.14036401192E+03  0.00000000000E+00 0.  1.
         25    1    1    2    0    0 -0.13514896345E+03 -0.27926947710E+03  0.10313722781E+03  0.35002710027E+03  0.12500000000E+03 0.  0.
         21    1    1    2  503  501  0.54908318773E+02  0.66386044167E+02  0.27379140620E+03  0.28702572086E+03  0.00000000000E+00 0.  1.
          4    1    1    2  501    0  0.80240644682E+02  0.21288343293E+03  0.12457242717E+04  0.12663281084E+04  0.00000000000E+00 0. -1.
<mgrwt>
<rscale>  4 0.33448719E+03</rscale>
<asrwt>0</asrwt>
<pdfrwt beam="1">  1       21 0.21594465E-01 0.33448719E+03</pdfrwt>
<pdfrwt beam="2">  1        4 0.27123336E+00 0.33448719E+03</pdfrwt>
<totfact> 0.43608412E+01</totfact>
</mgrwt>
</event>
<event>
 5    0  0.2947253E-001  0.2396204E+03  0.7546771E-02  0.1120046E+00
          4   -1    0    0  502    0 -0.00000000000E+00  0.00000000000E+00  0.11269222692E+03  0.11269222692E+03  0.00000000000E+00 0.  1.
         21   -1    0    0  503  502  0.00000000000E+00 -0.00000000000E+00 -0.49885195490E+03  0.49885195490E+03  0.00000000000E+00 0.  1.
         25    1    1    2    0    0  0.11865246223E+03 -0.16647676948E+03 -0.29195702551E+03  0.37769938617E+03  0.12500000000E+03 0.  0.
         21    1    1    2  503  501 -0.80166815760E+02  0.96325621053E+02 -0.88907753692E+02  0.15365523840E+03  0.00000000000E+00 0.  1.
          4    1    1    2  501    0 -0.38485646468E+02  0.70151148431E+02 -0.52949487817E+01  0.80189557256E+02  0.00000000000E+00 0.  1.
<mgrwt>
<rscale>  4 0.23962037E+03</rscale>
<asrwt>0</asrwt>
<pdfrwt beam="1">  1       21 0.76746455E-01 0.23962037E+03</pdfrwt>
<pdfrwt beam="2">  1        4 0.17337266E-01 0.23962037E+03</pdfrwt>
<totfact> 0.18536903E+03</totfact>
</mgrwt>
</event>
<event>
 5    0  0.2947253E-001  0.3002882E+03  0.7546771E-02  0.1085097E+00
         21   -1    0    0  503  502  0.00000000000E+00  0.00000000000E+00  0.13509261795E+03  0.13509261795E+03  0.00000000000E+00 0.  1.
          2   -1    0    0  502    0 -0.00000000000E+00 -0.00000000000E+00 -0.13644756109E+04  0.13644756109E+04  0.00000000000E+00 0.  1.
         25    1    1    2    0    0  0.24908206257E+03  0.16910103947E+03 -0.13463158548E+03  0.35268640355E+03  0.12500000000E+03 0.  0.
         21    1    1    2  503  501 -0.20273458309E+03 -0.71472589193E+02 -0.53093788279E+03  0.57280422272E+03  0.00000000000E+00 0.  1.
          2    1    1    2  501    0 -0.46347479478E+02 -0.97628450280E+02 -0.56381352472E+03  0.57407760261E+03  0.00000000000E+00 0.  1.
<mgrwt>
<rscale>  4 0.30028821E+03</rscale>
<asrwt>0</asrwt>
<pdfrwt beam="1">  1       21 0.20783479E-01 0.30028821E+03</pdfrwt>
<pdfrwt beam="2">  1        2 0.20991933E+00 0.30028821E+03</pdfrwt>
<totfact> 0.42780880E+03</totfact>
</mgrwt>
</event>
<event>
 5    0  0.2947253E-001  0.2526530E+03  0.7546771E-02  0.1111640E+00
          1   -1    0    0  502    0 -0.00000000000E+00  0.00000000000E+00  0.39541586803E+03  0.39541586803E+03  0.00000000000E+00 0.  1.
         21   -1    0    0  503  502  0.00000000000E+00 -0.00000000000E+00 -0.65369041241E+03  0.65369041241E+03  0.00000000000E+00 0. -1.
         25    1    1    2    0    0 -0.69968404215E+02  0.20811768522E+03 -0.59380761764E+03  0.64532242736E+03  0.12500000000E+03 0.  0.
         21    1    1    2  503  501  0.20870732286E+02 -0.16891962853E+02  0.33212688454E+02  0.42708413100E+02  0.00000000000E+00 0.  1.
          1    1    1    2  501    0  0.49097671929E+02 -0.19122572236E+03  0.30232038481E+03  0.36107543998E+03  0.00000000000E+00 0.  1.
<mgrwt>
<rscale>  4 0.25265302E+03</rscale>
<asrwt>0</asrwt>
<pdfrwt beam="1">  1       21 0.10056775E+00 0.25265302E+03</pdfrwt>
<pdfrwt beam="2">  1        1 0.60833211E-01 0.25265302E+03</pdfrwt>
<totfact> 0.53020626E+02</totfact>
</mgrwt>
</event>
<event>
 5    0  0.2947253E-001  0.2901265E+03  0.7546771E-02  0.1090283E+00
          4   -1    0    0  502    0 -0.00000000000E+00  0.00000000000E+00  0.38034694227E+03  0.38034694227E+03  0.00000000000E+00 0.  1.
         21   -1    0    0  503  502  0.00000000000E+00 -0.00000000000E+00 -0.42306744746E+03  0.42306744746E+03  0.00000000000E+00 0.  1.
         25    1    1    2    0    0  0.54635309672E+02  0.25605340137E+03 -0.31158102116E+03  0.42574181632E+03  0.12500000000E+03 0.  0.
         21    1    1    2  503  501 -0.35920801654E+02 -0.21550796729E+03  0.20392127020E+03  0.29886095830E+03  0.00000000000E+00 0.  1.
          4    1    1    2  501    0 -0.18714508018E+02 -0.40545434080E+02  0.64939245771E+02  0.78811615111E+02  0.00000000000E+00 0.  1.
<mgrwt>
<rscale>  4 0.29012646E+03</rscale>
<asrwt>0</asrwt>
<pdfrwt beam="1">  1       21 0.65087300E-01 0.29012646E+03</pdfrwt>
<pdfrwt beam="2">  1        4 0.58514914E-01 0.29012646E+03</pdfrwt>
<totfact> 0.25203308E+02</totfact>
</mgrwt>
</event>
<event>
 5    0  0.2947253E-001  0.2565591E+03  0.7546771E-02  0.1109228E+00
         -2   -1    0    0    0  501 -0.00000000000E+00  0.00000000000E+00  0.93253699899E+03  0.93253699899E+03  0.00000000000E+00 0.  1.
         21   -1    0    0  501  502  0.00000000000E+00 -0.00000000000E+00 -0.11203318320E+03  0.11203318320E+03  0.00000000000E+00 0. -1.
         25    1    1    2    0    0  0.16068164742E+03  0.15613762541E+03  0.84317820832E+02  0.27005933569E+03  0.12500000000E+03 0.  0.
         21    1    1    2  501  501 -0.12730737592E+03 -0.85895191226E+02  0.37852452699E+03  0.40849231250E+03  0.00000000000E+00 0. -1.
         -2    1    1    2    0  502 -0.33374271501E+02 -0.70242434184E+02  0.35766146797E+03  0.36601853399E+03  0.00000000000E+00 0.  1.
<mgrwt>
<rscale>  4 0.25655906E+03</rscale>
<asrwt>0</asrwt>
<pdfrwt beam="1">  1       21 0.17235875E-01 0.25655906E+03</pdfrwt>
<pdfrwt beam="2">  1       -2 0.14346723E+00 0.25655906E+03</pdfrwt>
<totfact> 0.87839656E+02</totfact>
</mgrwt>
</event>
<event>
 5    0  0.2947253E-001  0.2452728E+03  0.7546771E-02  0.1116329E+00
         21   -1    0    0  503  502  0.00000000000E+00  0.00000000000E+00  0.27229434072E+02  0.27229434072E+02  0.00000000000E+00 0.  1.
          2   -1    0    0  502    0 -0.00000000000E+00 -0.00000000000E+00 -0.19796366368E+04  0.19796366368E+04  0.00000000000E+00 0.  1.
         25    1    1    2    0    0 -0.12783399989E+03 -0.16790533512E+03 -0.10970836681E+04  0.11241669395E+04  0.12500000000E+03 0.  0.
         21    1    1    2  503  501  0.21570894611E+02  0.93620088800E+01 -0.52928826013E+02  0.57917280044E+02  0.00000000000E+00 0.  1.
          2    1    1    2  501    0  0.10626310528E+03  0.15854332624E+03 -0.80239470858E+03  0.82478185128E+03  0.00000000000E+00 0.  1.
<mgrwt>
<rscale>  4 0.24527277E+03</rscale>
<asrwt>0</asrwt>
<pdfrwt beam="1">  1       21 0.41891426E-02 0.24527277E+03</pdfrwt>
<pdfrwt beam="2">  1        2 0.30455956E+00 0.24527277E+03</pdfrwt>
<totfact> 0.35312837E+04</totfact>
</mgrwt>
</event>
<event>
 5    0  0.2947253E-001  0.2457640E+03  0.7546771E-02  0.1116012E+00
         21   -1    0    0  501  502  0.00000000000E+00  0.00000000000E+00  0.13370635968E+03  0.13370635968E+03  0.00000000000E+00 0. -1.
         -3   -1    0    0    0  501 -0.00000000000E+00 -0.00000000000E+00 -0.10181101289E+04  0.10181101289E+04  0.00000000000E+00 0.  1.
         25    1    1    2    0    0 -0.89485196402E+02  0.19174812584E+03 -0.43200154266E+01  0.24580196637E+03  0.12500000000E+03 0.  0.
         21    1    1    2  501  501  0.17416578445E+02 -0.20149442699E+02 -0.71830540690E+02  0.76609162779E+02  0.00000000000E+00 0.  1.
         -3    1    1    2    0  502  0.72068617957E+02 -0.17159868314E+03 -0.80825321312E+03  0.82940535944E+03  0.00000000000E+00 0.  1.
<mgrwt>
<rscale>  4 0.24576400E+03</rscale>
<asrwt>0</asrwt>
<pdfrwt beam="1">  1       21 0.20570210E-01 0.24576400E+03</pdfrwt>
<pdfrwt beam="2">  1       -3 0.15663232E+00 0.24576400E+03</pdfrwt>
<totfact> 0.32903581E+02</totfact>
</mgrwt>
</event>
<event>
 5    0  0.2947253E-001  0.2395767E+03  0.7546771E-02  0.1120075E+00
         21   -1    0    0  503  502  0.00000000000E+00  0.00000000000E+00  0.10559841680E+03  0.10559841680E+03  0.00000000000E+00 0.  1.
          2   -1    0    0  502    0 -0.00000000000E+00 -0.00000000000E+00 -0.94341503453E+03  0.94341503453E+03  0.00000000000E+00 0.  1.
         25    1    1    2    0    0 -0.18170447157E+03  0.93570707764E+02 -0.65615414918E+02  0.24839962764E+03  0.12500000000E+03 0.  0.
         21    1    1    2  503  501  0.11350111297E+02 -0.23556340056E+02 -0.72253499183E+02  0.76839406085E+02  0.00000000000E+00 0.  1.
          2    1    1    2  501    0  0.17035436027E+03 -0.70014367708E+02 -0.69994770363E+03  0.72377441759E+03  0.00000000000E+00 0.  1.
<mgrwt>
<rscale>  4 0.23957669E+03</rscale>
<asrwt>0</asrwt>
<pdfrwt beam="1">  1       21 0.16245909E-01 0.23957669E+03</pdfrwt>
<pdfrwt beam="2">  1        2 0.14514078E+00 0.23957669E+03</pdfrwt>
<totfact> 0.12115780E+04</totfact>
</mgrwt>
</event>
<event>
 5    0  0.2947253E-001  0.5700687E+03  0.7546771E-02  0.9969527E-01
         21   -1    0    0  503  502  0.00000000000E+00  0.00000000000E+00  0.16926987432E+03  0.16926987432E+03  0.00000000000E+00 0.  1.
          2   -1    0    0  502    0 -0.00000000000E+00 -0.00000000000E+00 -0.19482595756E+04  0.19482595756E+04  0.00000000000E+00 0.  1.
         25    1    1    2    0    0 -0.54499200153E+03 -0.11107200264E+03 -0.73788090117E+03  0.93244114872E+03  0.12500000000E+03 0.  0.
         21    1    1    2  503  501  0.25300089018E+02  0.29129509741E+02 -0.51853161481E+02  0.64632601663E+02  0.00000000000E+00 0. -1.
          2    1    1    2  501    0  0.51969191251E+03  0.81942492899E+02 -0.98925563866E+03  0.11204556996E+04  0.00000000000E+00 0.  1.
<mgrwt>
<rscale>  4 0.57006866E+03</rscale>
<asrwt>0</asrwt>
<pdfrwt beam="1">  1       21 0.26041521E-01 0.57006866E+03</pdfrwt>
<pdfrwt beam="2">  1        2 0.29973222E+00 0.57006866E+03</pdfrwt>
<totfact> 0.12501912E+03</totfact>
</mgrwt>
</event>
<event>
 5    0  0.2947253E-001  0.2400544E+03  0.7546771E-02  0.1119757E+00
          1   -1    0    0  502    0 -0.00000000000E+00  0.00000000000E+00  0.13069772514E+04  0.13069772514E+04  0.00000000000E+00 0.  1.
         21   -1    0    0  503  502  0.00000000000E+00 -0.00000000000E+00 -0.41451298596E+02  0.41451298596E+02  0.00000000000E+00 0. -1.
         25    1    1    2    0    0 -0.11586672010E+03 -0.16904443915E+03  0.53158767249E+03  0.58327658343E+03  0.12500000000E+03 0.  0.
         21    1    1    2  503  501  0.78616219520E+02  0.58508164081E+02  0.28828146294E+03  0.30448303255E+03  0.00000000000E+00 0.  1.
          1    1    1    2  501    0  0.37250500576E+02  0.11053627506E+03  0.44565681740E+03  0.46066893405E+03  0.00000000000E+00 0.  1.
<mgrwt>
<rscale>  4 0.24005441E+03</rscale>
<asrwt>0</asrwt>
<pdfrwt beam="1">  1       21 0.63771238E-02 0.24005441E+03</pdfrwt>
<pdfrwt beam="2">  1        1 0.20107339E+00 0.24005441E+03</pdfrwt>
<totfact> 0.19186309E+04</totfact>
</mgrwt>
</event>
<event>
 5    0  0.3179741E-001  0.2861364E+03  0.7546771E-02  0.1092384E+00
          2   -1    0    0  502    0 -0.00000000000E+00  0.00000000000E+00  0.27600868922E+04  0.27600868922E+04  0.00000000000E+00 0. -1.
         21   -1    0    0  503  502  0.00000000000E+00 -0.00000000000E+00 -0.16028053303E+03  0.16028053303E+03  0.00000000000E+00 0.  1.
         25    1    1    2    0    0 -0.84022316586E+02  0.24350953374E+03 -0.15156059931E+02  0.28672521490E+03  0.12500000000E+03 0.  0.
         21    1    1    2  503  501  0.28378384239E+02  0.53278299104E+01  0.67050542761E+02  0.73003381758E+02  0.00000000000E+00 0. -1.
          2    1    1    2  501    0  0.55643932347E+02 -0.24883736365E+03  0.25479118764E+04  0.25606388286E+04  0.00000000000E+00 0. -1.
<mgrwt>
<rscale>  4 0.28613638E+03</rscale>
<asrwt>0</asrwt>
<pdfrwt beam="1">  1       21 0.24658546E-01 0.28613638E+03</pdfrwt>
<pdfrwt beam="2">  1        2 0.42462872E+00 0.28613638E+03</pdfrwt>
<totfact> 0.54926311E+02</totfact>
</mgrwt>
</event>
<event>
 5    0  0.2947253E-001  0.3011861E+03  0.7546771E-02  0.1084649E+00
          2   -1    0    0  502    0 -0.00000000000E+00  0.00000000000E+00  0.11682851964E+03  0.11682851964E+03  0.00000000000E+00 0. -1.
         21   -1    0    0  503  502  0.00000000000E+00 -0.00000000000E+00 -0.21880438827E+04  0.21880438827E+04  0.00000000000E+00 0.  1.
         25    1    1    2    0    0 -0.19129128315E+03 -0.19910004374E+03 -0.18646178789E+04  0.18890892030E+04  0.12500000000E+03 0.  0.
         21    1    1    2  503  501 -0.32965050261E+02  0.41184848350E+02 -0.11515659749E+03  0.12666462892E+03  0.00000000000E+00 0.  1.
          2    1    1    2  501    0  0.22425633341E+03  0.15791519539E+03 -0.91440886603E+02  0.28911857040E+03  0.00000000000E+00 0. -1.
<mgrwt>
<rscale>  4 0.30118606E+03</rscale>
<asrwt>0</asrwt>
<pdfrwt beam="1">  1       21 0.33662212E+00 0.30118606E+03</pdfrwt>
<pdfrwt beam="2">  1        2 0.17973619E-01 0.30118606E+03</pdfrwt>
<totfact> 0.72251750E+01</totfact>
</mgrwt>
</event>
<event>
 5    0  0.2947253E-001  0.3265111E+03  0.7546771E-02  0.1072691E+00
          2   -1    0    0  502    0 -0.00000000000E+00  0.00000000000E+00  0.23291787709E+04  0.23291787709E+04  0.00000000000E+00 0. -1.
         21   -1    0    0  503  502  0.00000000000E+00 -0.00000000000E+00 -0.81391774435E+02  0.81391774435E+02  0.00000000000E+00 0. -1.
         25    1    1    2    0    0  0.90966929519E+02 -0.28759261845E+03  0.31581357014E+03  0.45425511283E+03  0.12500000000E+03 0.  0.
         21    1    1    2  503  501 -0.27407646330E+02  0.47107686334E+02  0.23689036574E+03  0.24307891428E+03  0.00000000000E+00 0.  1.
          2    1    1    2  501    0 -0.63559283189E+02  0.24048493212E+03  0.16950830606E+04  0.17132365183E+04  0.00000000000E+00 0. -1.
<mgrwt>
<rscale>  4 0.32651110E+03</rscale>
<asrwt>0</asrwt>
<pdfrwt beam="1">  1       21 0.12521813E-01 0.32651110E+03</pdfrwt>
<pdfrwt beam="2">  1        2 0.35833515E+00 0.32651110E+03</pdfrwt>
<totfact> 0.33121976E+03</totfact>
</mgrwt>
</event>
<event>
 5    0  0.3623181E-001  0.2953892E+03  0.7546771E-02  0.1087568E+00
          2   -1    0    0  502    0 -0.00000000000E+00  0.00000000000E+00  0.19604342406E+04  0.19604342406E+04  0.00000000000E+00 0.  1.
         21   -1    0    0  503  502  0.00000000000E+00 -0.00000000000E+00 -0.44395072853E+02  0.44395072853E+02  0.00000000000E+00 0.  1.
         25    1    1    2    0    0 -0.10287123432E+03 -0.24707753225E+03  0.12702066484E+04  0.13041011186E+04  0.12500000000E+03 0.  0.
         21    1    1    2  503  501  0.19350300552E+02  0.12923645526E+02  0.56988170225E+02  0.61555716962E+02  0.00000000000E+00 0. -1.
          2    1    1    2  501    0  0.83520933768E+02  0.23415388673E+03  0.58884434909E+03  0.63917247790E+03  0.00000000000E+00 0.  1.
<mgrwt>
<rscale>  4 0.29538923E+03</rscale>
<asrwt>0</asrwt>
<pdfrwt beam="1">  1       21 0.68300127E-02 0.29538923E+03</pdfrwt>
<pdfrwt beam="2">  1        2 0.30160520E+00 0.29538923E+03</pdfrwt>
<totfact> 0.15442004E+04</totfact>
</mgrwt>
</event>
<event>
 5    0  0.2947253E-001  0.3049764E+03  0.7546771E-02  0.1082779E+00
         21   -1    0    0  503  502  0.00000000000E+00  0.00000000000E+00  0.20786971459E+03  0.20786971459E+03  0.00000000000E+00 0. -1.
          2   -1    0    0  502    0 -0.00000000000E+00 -0.00000000000E+00 -0.10761305559E+04  0.10761305559E+04  0.00000000000E+00 0.  1.
         25    1    1    2    0    0 -0.32369860896E+03  0.53245033856E+02 -0.96312208002E+02  0.36402865887E+03  0.12500000000E+03 0.  0.
         21    1    1    2  503  501  0.87687649450E+02 -0.44049690326E+02 -0.64384068416E+03  0.65127592129E+03  0.00000000000E+00 0.  1.
          2    1    1    2  501    0  0.23601095951E+03 -0.91953435300E+01 -0.12810794911E+03  0.26869569028E+03  0.00000000000E+00 0.  1.
<mgrwt>
<rscale>  4 0.30497645E+03</rscale>
<asrwt>0</asrwt>
<pdfrwt beam="1">  1       21 0.31979956E-01 0.30497645E+03</pdfrwt>
<pdfrwt beam="2">  1        2 0.16555855E+00 0.30497645E+03</pdfrwt>
<totfact> 0.27078662E+03</totfact>
</mgrwt>
</event>
<event>
 5    0  0.2947253E-001  0.3696216E+03  0.7546771E-02  0.1054974E+00
          1   -1    0    0  502    0 -0.00000000000E+00  0.00000000000E+00  0.57390231637E+03  0.57390231637E+03  0.00000000000E+00 0. -1.
         21   -1    0    0  503  502  0.00000000000E+00 -0.00000000000E+00 -0.25554769056E+03  0.25554769056E+03  0.00000000000E+00 0. -1.
         25    1    1    2    0    0  0.68620142152E+02  0.33947020245E+03  0.47592734505E+02  0.37126649545E+03  0.12500000000E+03 0.  0.
         21    1    1    2  503  501 -0.48161586381E+02 -0.18282410308E+03  0.67499061102E+02  0.20074938186E+03  0.00000000000E+00 0. -1.
          1    1    1    2  501    0 -0.20458555771E+02 -0.15664609938E+03  0.20326283019E+03  0.25743412962E+03  0.00000000000E+00 0. -1.
<mgrwt>
<rscale>  4 0.36926654E+03</rscale>
<asrwt>0</asrwt>
<pdfrwt beam="1">  1       21 0.39315030E-01 0.36962160E+03</pdfrwt>
<pdfrwt beam="2">  1        1 0.88292664E-01 0.36962160E+03</pdfrwt>
<totfact> 0.24522438E+03</totfact>
</mgrwt>
</event>
<event>
 5    0  0.2947253E-001  0.2493398E+03  0.7546771E-02  0.1113723E+00
         21   -1    0    0  503  502  0.00000000000E+00  0.00000000000E+00  0.13699342270E+03  0.13699342270E+03  0.00000000000E+00 0.  1.
          1   -1    0    0  502    0 -0.00000000000E+00 -0.00000000000E+00 -0.11192239670E+04  0.11192239670E+04  0.00000000000E+00 0.  1.
         25    1    1    2    0    0 -0.44460652287E+02  0.21111273068E+03 -0.87092375917E-01  0.24933981279E+03  0.12500000000E+03 0.  0.
         21    1    1    2  503  501  0.19419291590E+02 -0.17531102872E+02 -0.96909436754E+02  0.10037871979E+03  0.00000000000E+00 0.  1.
          1    1    1    2  501    0  0.25041360697E+02 -0.19358162781E+03 -0.88523401521E+03  0.90649885717E+03  0.00000000000E+00 0.  1.
<mgrwt>
<rscale>  4 0.24933980E+03</rscale>
<asrwt>0</asrwt>
<pdfrwt beam="1">  1       21 0.21075911E-01 0.24933980E+03</pdfrwt>
<pdfrwt beam="2">  1        1 0.17218830E+00 0.24933980E+03</pdfrwt>
<totfact> 0.30119099E+03</totfact>
</mgrwt>
</event>
<event>
 5    0  0.2947253E-001  0.2384086E+03  0.7546771E-02  0.1120858E+00
         21   -1    0    0  503  502  0.00000000000E+00  0.00000000000E+00  0.37936393604E+02  0.37936393604E+02  0.00000000000E+00 0.  1.
          2   -1    0    0  502    0 -0.00000000000E+00 -0.00000000000E+00 -0.26197505788E+04  0.26197505788E+04  0.00000000000E+00 0. -1.
         25    1    1    2    0    0 -0.19164264644E+03  0.77264305134E+02 -0.43815359886E+03  0.50030016287E+03  0.12500000000E+03 0.  0.
         21    1    1    2  503  501  0.30526383505E+01 -0.43740395929E+02 -0.22831704299E+03  0.23248916740E+03  0.00000000000E+00 0.  1.
          2    1    1    2  501    0  0.18859000809E+03 -0.33523909205E+02 -0.19153435433E+04  0.19248976421E+04  0.00000000000E+00 0. -1.
<mgrwt>
<rscale>  4 0.23840862E+03</rscale>
<asrwt>0</asrwt>
<pdfrwt beam="1">  1       21 0.58363680E-02 0.23840862E+03</pdfrwt>
<pdfrwt beam="2">  1        2 0.40303857E+00 0.23840862E+03</pdfrwt>
<totfact> 0.91323144E+03</totfact>
</mgrwt>
</event>
<event>
 5    0  0.2947253E-001  0.3031156E+03  0.7546771E-02  0.1083693E+00
          1   -1    0    0  502    0 -0.00000000000E+00  0.00000000000E+00  0.66480781732E+03  0.66480781732E+03  0.00000000000E+00 0. -1.
         21   -1    0    0  503  502  0.00000000000E+00 -0.00000000000E+00 -0.51223152791E+03  0.51223152791E+03  0.00000000000E+00 0.  1.
         25    1    1    2    0    0  0.21184817778E+03 -0.17712826029E+03 -0.42946268333E+03  0.52565888882E+03  0.12500000000E+03 0.  0.
         21    1    1    2  503  501 -0.28077339122E+02  0.53845419353E+02  0.64883423015E+02  0.88868018655E+02  0.00000000000E+00 0. -1.
          1    1    1    2  501    0 -0.18377083866E+03  0.12328284094E+03  0.51715554973E+03  0.56251243775E+03  0.00000000000E+00 0. -1.
<mgrwt>
<rscale>  4 0.30311561E+03</rscale>
<asrwt>0</asrwt>
<pdfrwt beam="1">  1       21 0.78804850E-01 0.30311561E+03</pdfrwt>
<pdfrwt beam="2">  1        1 0.10227813E+00 0.30311561E+03</pdfrwt>
<totfact> 0.45433529E+02</totfact>
</mgrwt>
</event>
<event>
 5    0  0.2947253E-001  0.2489447E+03  0.7546771E-02  0.1113974E+00
          2   -1    0    0  502    0 -0.00000000000E+00  0.00000000000E+00  0.58722951391E+03  0.58722951391E+03  0.00000000000E+00 0. -1.
         21   -1    0    0  503  502  0.00000000000E+00 -0.00000000000E+00 -0.45173676126E+03  0.45173676126E+03  0.00000000000E+00 0. -1.
         25    1    1    2    0    0  0.20088392341E+03  0.77421558221E+02 -0.39214575984E+03  0.46449084525E+03  0.12500000000E+03 0.  0.
         21    1    1    2  503  501 -0.29936791109E+02 -0.57956781510E+01  0.27365285777E+02  0.40971456074E+02  0.00000000000E+00 0.  1.
          2    1    1    2  501    0 -0.17094713230E+03 -0.71625880070E+02  0.50027322671E+03  0.53350397384E+03  0.00000000000E+00 0. -1.
<mgrwt>
<rscale>  4 0.24894467E+03</rscale>
<asrwt>0</asrwt>
<pdfrwt beam="1">  1       21 0.69497963E-01 0.24894467E+03</pdfrwt>
<pdfrwt beam="2">  1        2 0.90343003E-01 0.24894467E+03</pdfrwt>
<totfact> 0.11915873E+03</totfact>
</mgrwt>
</event>
<event>
 5    0  0.2947253E-001  0.3139575E+03  0.7546771E-02  0.1078464E+00
          2   -1    0    0  502    0 -0.00000000000E+00  0.00000000000E+00  0.14947269215E+04  0.14947269215E+04  0.00000000000E+00 0.  1.
         21   -1    0    0  503  502  0.00000000000E+00 -0.00000000000E+00 -0.17493818534E+03  0.17493818534E+03  0.00000000000E+00 0.  1.
         25    1    1    2    0    0  0.28534083808E+03 -0.39050502245E+02 -0.26339309831E+01  0.31396858632E+03  0.12500000000E+03 0.  0.
         21    1    1    2  503  501 -0.23893652096E+02  0.16599598320E+02  0.24766606423E+03  0.24936906915E+03  0.00000000000E+00 0.  1.
          2    1    1    2  501    0 -0.26144718599E+03  0.22450903926E+02  0.10747566029E+04  0.11063274514E+04  0.00000000000E+00 0.  1.
<mgrwt>
<rscale>  4 0.31395754E+03</rscale>
<asrwt>0</asrwt>
<pdfrwt beam="1">  1       21 0.26913568E-01 0.31395754E+03</pdfrwt>
<pdfrwt beam="2">  1        2 0.22995798E+00 0.31395754E+03</pdfrwt>
<totfact> 0.22026212E+03</totfact>
</mgrwt>
</event>
<event>
 5    0  0.2947253E-001  0.2401062E+03  0.7546771E-02  0.1119722E+00
         21   -1    0    0  503  502  0.00000000000E+00  0.00000000000E+00  0.99869896392E+02  0.99869896392E+02  0.00000000000E+00 0.  1.
          2   -1    0    0  502    0 -0.00000000000E+00 -0.00000000000E+00 -0.20917728380E+04  0.20917728380E+04  0.00000000000E+00 0. -1.
         25    1    1    2    0    0 -0.10869209146E+03  0.17381599317E+03 -0.58456176696E+02  0.24711959619E+03  0.12500000000E+03 0.  0.
         21    1    1    2  503  501  0.14784664506E+02 -0.27123041483E+02 -0.20366874104E+03  0.20599806251E+03  0.00000000000E+00 0.  1.
          2    1    1    2  501    0  0.93907426959E+02 -0.14669295168E+03 -0.17297780239E+04  0.17385250757E+04  0.00000000000E+00 0. -1.
<mgrwt>
<rscale>  4 0.24010616E+03</rscale>
<asrwt>0</asrwt>
<pdfrwt beam="1">  1       21 0.15364600E-01 0.24010616E+03</pdfrwt>
<pdfrwt beam="2">  1        2 0.32181119E+00 0.24010616E+03</pdfrwt>
<totfact> 0.31612973E+03</totfact>
</mgrwt>
</event>
<event>
 5    0  0.2947253E-001  0.3077885E+03  0.7546771E-02  0.1081411E+00
          2   -1    0    0  502    0 -0.00000000000E+00  0.00000000000E+00  0.18779788749E+04  0.18779788749E+04  0.00000000000E+00 0.  1.
         21   -1    0    0  503  502  0.00000000000E+00 -0.00000000000E+00 -0.70126920593E+02  0.70126920593E+02  0.00000000000E+00 0. -1.
         25    1    1    2    0    0 -0.13604543377E+03  0.24617153794E+03  0.38112226842E+03  0.48988566995E+03  0.12500000000E+03 0.  0.
         21    1    1    2  503  501  0.14110530047E+03 -0.21681225530E+03  0.13693194928E+04  0.13935401441E+04  0.00000000000E+00 0.  1.
          2    1    1    2  501    0 -0.50598667064E+01 -0.29359282635E+02  0.57410193094E+02  0.64679981439E+02  0.00000000000E+00 0.  1.
<mgrwt>
<rscale>  4 0.30778854E+03</rscale>
<asrwt>0</asrwt>
<pdfrwt beam="1">  1       21 0.10788758E-01 0.30778854E+03</pdfrwt>
<pdfrwt beam="2">  1        2 0.28891979E+00 0.30778854E+03</pdfrwt>
<totfact> 0.75855846E+03</totfact>
</mgrwt>
</event>
<event>
 5    0  0.2947253E-001  0.2505113E+03  0.7546771E-02  0.1112982E+00
         21   -1    0    0  503  502  0.00000000000E+00  0.00000000000E+00  0.37951421418E+03  0.37951421418E+03  0.00000000000E+00 0. -1.
          2   -1    0    0  502    0 -0.00000000000E+00 -0.00000000000E+00 -0.30809403274E+04  0.30809403274E+04  0.00000000000E+00 0. -1.
         25    1    1    2    0    0 -0.58563495368E+02  0.20904836788E+03  0.33375073424E+03  0.41730738756E+03  0.12500000000E+03 0.  0.
         21    1    1    2  503  501  0.24205707784E+02 -0.34156023274E+02 -0.56847474215E+03  0.57001410744E+03  0.00000000000E+00 0.  1.
          2    1    1    2  501    0  0.34357787584E+02 -0.17489234460E+03 -0.24667021053E+04  0.24731330466E+04  0.00000000000E+00 0. -1.
<mgrwt>
<rscale>  4 0.25051128E+03</rscale>
<asrwt>0</asrwt>
<pdfrwt beam="1">  1       21 0.58386805E-01 0.25051128E+03</pdfrwt>
<pdfrwt beam="2">  1        2 0.47399080E+00 0.25051128E+03</pdfrwt>
<totfact> 0.63758454E+01</totfact>
</mgrwt>
</event>
<event>
 5    0  0.2947253E-001  0.2934364E+03  0.7546771E-02  0.1088569E+00
          2   -1    0    0  502    0 -0.00000000000E+00  0.00000000000E+00  0.20362194440E+04  0.20362194440E+04  0.00000000000E+00 0. -1.
         21   -1    0    0  503  502  0.00000000000E+00 -0.00000000000E+00 -0.22335486004E+03  0.22335486004E+03  0.00000000000E+00 0. -1.
         25    1    1    2    0    0 -0.16994794626E+03 -0.19966654879E+03 -0.47101155557E+02  0.29426612785E+03  0.12500000000E+03 0.  0.
         21    1    1    2  503  501  0.15380904749E+03 -0.17468139568E+03  0.45286842254E+03  0.50917641463E+03  0.00000000000E+00 0. -1.
          2    1    1    2  501    0  0.16138898772E+02  0.37434794447E+03  0.14070973170E+04  0.14561317615E+04  0.00000000000E+00 0. -1.
<mgrwt>
<rscale>  4 0.29343636E+03</rscale>
<asrwt>0</asrwt>
<pdfrwt beam="1">  1       21 0.34362287E-01 0.29343636E+03</pdfrwt>
<pdfrwt beam="2">  1        2 0.31326452E+00 0.29343636E+03</pdfrwt>
<totfact> 0.70806396E+02</totfact>
</mgrwt>
</event>
<event>
 5    0  0.2947253E-001  0.2530982E+03  0.7546771E-02  0.1111362E+00
         21   -1    0    0  501  502  0.00000000000E+00  0.00000000000E+00  0.33013590452E+03  0.33013590452E+03  0.00000000000E+00 0. -1.
         -1   -1    0    0    0  501 -0.00000000000E+00 -0.00000000000E+00 -0.41723232878E+03  0.41723232878E+03  0.00000000000E+00 0. -1.
         25    1    1    2    0    0 -0.12463935355E+03  0.18138002651E+03  0.24112891071E+03  0.34957378913E+03  0.12500000000E+03 0.  0.
         21    1    1    2  501  501  0.94158192018E+02 -0.10459436155E+03 -0.18492469771E+03  0.23238521772E+03  0.00000000000E+00 0. -1.
         -1    1    1    2    0  502  0.30481161529E+02 -0.76785664965E+02 -0.14330063726E+03  0.16540922644E+03  0.00000000000E+00 0. -1.
<mgrwt>
<rscale>  4 0.25309817E+03</rscale>
<asrwt>0</asrwt>
<pdfrwt beam="1">  1       21 0.50790139E-01 0.25309817E+03</pdfrwt>
<pdfrwt beam="2">  1       -1 0.64189589E-01 0.25309817E+03</pdfrwt>
<totfact> 0.85320591E+02</totfact>
</mgrwt>
</event>
<event>
 5    0  0.2947253E-001  0.2273083E+03  0.7546771E-02  0.1128549E+00
          2   -1    0    0  502    0 -0.00000000000E+00  0.00000000000E+00  0.48412799846E+03  0.48412799846E+03  0.00000000000E+00 0.  1.
         21   -1    0    0  503  502  0.00000000000E+00 -0.00000000000E+00 -0.42353365938E+03  0.42353365938E+03  0.00000000000E+00 0.  1.
         25    1    1    2    0    0 -0.22016052925E+03  0.18759774321E+02 -0.33077452876E+03  0.41696447888E+03  0.12500000000E+03 0.  0.
         21    1    1    2  503  501  0.34058203764E+02  0.90205681654E+01 -0.18431475134E+02  0.39762434147E+02  0.00000000000E+00 0. -1.
          2    1    1    2  501    0  0.18610232549E+03 -0.27780342486E+02  0.40980034297E+03  0.45093474481E+03  0.00000000000E+00 0.  1.
<mgrwt>
<rscale>  4 0.22730830E+03</rscale>
<asrwt>0</asrwt>
<pdfrwt beam="1">  1       21 0.65159024E-01 0.22730830E+03</pdfrwt>
<pdfrwt beam="2">  1        2 0.74481231E-01 0.22730830E+03</pdfrwt>
<totfact> 0.17248264E+03</totfact>
</mgrwt>
</event>
<event>
 5    0  0.2947253E-001  0.2474998E+03  0.7546771E-02  0.1114895E+00
          2   -1    0    0  502    0 -0.00000000000E+00  0.00000000000E+00  0.71517433477E+03  0.71517433477E+03  0.00000000000E+00 0. -1.
         21   -1    0    0  503  502  0.00000000000E+00 -0.00000000000E+00 -0.15034831160E+03  0.15034831160E+03  0.00000000000E+00 0. -1.
         25    1    1    2    0    0 -0.21194690894E+03  0.26639201329E+02 -0.11770683541E+02  0.24777951539E+03  0.12500000000E+03 0.  0.
         21    1    1    2  503  501  0.77173332897E+02 -0.45568638887E+01  0.13566664037E+03  0.15614712815E+03  0.00000000000E+00 0. -1.
          2    1    1    2  501    0  0.13477357604E+03 -0.22082337440E+02  0.44093006634E+03  0.46159600284E+03  0.00000000000E+00 0. -1.
<mgrwt>
<rscale>  4 0.24749978E+03</rscale>
<asrwt>0</asrwt>
<pdfrwt beam="1">  1       21 0.23130510E-01 0.24749978E+03</pdfrwt>
<pdfrwt beam="2">  1        2 0.11002682E+00 0.24749978E+03</pdfrwt>
<totfact> 0.89196047E+03</totfact>
</mgrwt>
</event>
<event>
 5    0  0.2947253E-001  0.3166341E+03  0.7546771E-02  0.1077209E+00
          2   -1    0    0  502    0 -0.00000000000E+00  0.00000000000E+00  0.10760016836E+04  0.10760016836E+04  0.00000000000E+00 0. -1.
         21   -1    0    0  503  502  0.00000000000E+00 -0.00000000000E+00 -0.17805180493E+03  0.17805180493E+03  0.00000000000E+00 0.  1.
         25    1    1    2    0    0  0.23819424709E+03 -0.17032499494E+03  0.14085703149E+02  0.31870128692E+03  0.12500000000E+03 0.  0.
         21    1    1    2  503  501  0.25824017500E+01  0.23389444534E+02  0.82733607790E+02  0.86015026434E+02  0.00000000000E+00 0. -1.
          2    1    1    2  501    0 -0.24077664884E+03  0.14693555041E+03  0.80113056776E+03  0.84933717522E+03  0.00000000000E+00 0. -1.
<mgrwt>
<rscale>  4 0.31663413E+03</rscale>
<asrwt>0</asrwt>
<pdfrwt beam="1">  1       21 0.27392586E-01 0.31663413E+03</pdfrwt>
<pdfrwt beam="2">  1        2 0.16553872E+00 0.31663413E+03</pdfrwt>
<totfact> 0.36606886E+03</totfact>
</mgrwt>
</event>
<event>
 5    0  0.2947253E-001  0.2412443E+03  0.7546771E-02  0.1118967E+00
         -2   -1    0    0    0  501 -0.00000000000E+00  0.00000000000E+00  0.79970310056E+03  0.79970310056E+03  0.00000000000E+00 0. -1.
         21   -1    0    0  501  502  0.00000000000E+00 -0.00000000000E+00 -0.10589909553E+03  0.10589909553E+03  0.00000000000E+00 0.  1.
         25    1    1    2    0    0 -0.13942976858E+03  0.15209593268E+03  0.76578497909E+02  0.25310689332E+03  0.12500000000E+03 0.  0.
         21    1    1    2  501  501  0.33098571220E+02 -0.22870952707E+02  0.76052970268E+02  0.86038655156E+02  0.00000000000E+00 0.  1.
         -2    1    1    2    0  502  0.10633119736E+03 -0.12922497998E+03  0.54117253685E+03  0.56645664761E+03  0.00000000000E+00 0. -1.
<mgrwt>
<rscale>  4 0.24124434E+03</rscale>
<asrwt>0</asrwt>
<pdfrwt beam="1">  1       21 0.16292169E-01 0.24124434E+03</pdfrwt>
<pdfrwt beam="2">  1       -2 0.12303124E+00 0.24124434E+03</pdfrwt>
<totfact> 0.14358907E+03</totfact>
</mgrwt>
</event>
<event>
 5    0  0.2947253E-001  0.2435018E+03  0.7546771E-02  0.1117482E+00
          2   -1    0    0  502    0 -0.00000000000E+00  0.00000000000E+00  0.24254887496E+03  0.24254887496E+03  0.00000000000E+00 0. -1.
         21   -1    0    0  503  502  0.00000000000E+00 -0.00000000000E+00 -0.64237503083E+03  0.64237503083E+03  0.00000000000E+00 0. -1.
         25    1    1    2    0    0 -0.16470757235E+03 -0.13238746164E+03 -0.55414892631E+03  0.60610317350E+03  0.12500000000E+03 0.  0.
         21    1    1    2  503  501  0.28339986676E+02 -0.17522300438E+01 -0.62507577897E+01  0.29073994013E+02  0.00000000000E+00 0. -1.
          2    1    1    2  501    0  0.13636758568E+03  0.13413969169E+03  0.16057352823E+03  0.24974673828E+03  0.00000000000E+00 0. -1.
<mgrwt>
<rscale>  4 0.24350182E+03</rscale>
<asrwt>0</asrwt>
<pdfrwt beam="1">  1       21 0.98826927E-01 0.24350182E+03</pdfrwt>
<pdfrwt beam="2">  1        2 0.37315212E-01 0.24350182E+03</pdfrwt>
<totfact> 0.14065896E+03</totfact>
</mgrwt>
</event>
<event>
 5    0  0.2947253E-001  0.2711327E+03  0.7546771E-02  0.1100633E+00
          2   -1    0    0  502    0 -0.00000000000E+00  0.00000000000E+00  0.40539876790E+03  0.40539876790E+03  0.00000000000E+00 0.  1.
         21   -1    0    0  503  502  0.00000000000E+00 -0.00000000000E+00 -0.26257469473E+03  0.26257469473E+03  0.00000000000E+00 0.  1.
         25    1    1    2    0    0  0.23744190421E+03 -0.38849795075E+02 -0.12455976381E+03  0.29837576847E+03  0.12500000000E+03 0.  0.
         21    1    1    2  503  501 -0.24181523771E+02 -0.22727254501E+02  0.33959188691E+02  0.47481582593E+02  0.00000000000E+00 0.  1.
          2    1    1    2  501    0 -0.21326038044E+03  0.61577049576E+02  0.23342464829E+03  0.32211611156E+03  0.00000000000E+00 0.  1.
<mgrwt>
<rscale>  4 0.27113274E+03</rscale>
<asrwt>0</asrwt>
<pdfrwt beam="1">  1       21 0.40396107E-01 0.27113274E+03</pdfrwt>
<pdfrwt beam="2">  1        2 0.62369041E-01 0.27113274E+03</pdfrwt>
<totfact> 0.56721545E+03</totfact>
</mgrwt>
</event>
<event>
 5    0  0.2947253E-001  0.5300852E+03  0.7546771E-02  0.1006211E+00
          4   -1    0    0  502    0 -0.00000000000E+00  0.00000000000E+00  0.17695804783E+04  0.17695804783E+04  0.00000000000E+00 0.  1.
         21   -1    0    0  503  502  0.00000000000E+00 -0.00000000000E+00 -0.16150964572E+03  0.16150964572E+03  0.00000000000E+00 0. -1.
         25    1    1    2    0    0  0.37974642460E+03  0.34807759242E+03  0.65463269816E+03  0.84233860581E+03  0.12500000000E+03 0.  0.
         21    1    1    2  503  501 -0.72959708783E+01 -0.41601124201E+02  0.59151827745E+02  0.72683034137E+02  0.00000000000E+00 0.  1.
          4    1    1    2  501    0 -0.37245045372E+03 -0.30647646822E+03  0.89428630671E+03  0.10160684841E+04  0.00000000000E+00 0.  1.
<mgrwt>
<rscale>  4 0.53008524E+03</rscale>
<asrwt>0</asrwt>
<pdfrwt beam="1">  1       21 0.24847639E-01 0.53008524E+03</pdfrwt>
<pdfrwt beam="2">  1        4 0.27224314E+00 0.53008524E+03</pdfrwt>
<totfact> 0.31343586E+01</totfact>
</mgrwt>
</event>
<event>
 5    0  0.2947253E-001  0.2695658E+03  0.7546771E-02  0.1101528E+00
         21   -1    0    0  503  502  0.00000000000E+00  0.00000000000E+00  0.31176965819E+03  0.31176965819E+03  0.00000000000E+00 0.  1.
          1   -1    0    0  502    0 -0.00000000000E+00 -0.00000000000E+00 -0.23850752227E+03  0.23850752227E+03  0.00000000000E+00 0.  1.
         25    1    1    2    0    0 -0.22333716746E+03 -0.84624196191E+02  0.12336356046E+03  0.29645288496E+03  0.12500000000E+03 0.  0.
         21    1    1    2  503  501  0.76074910049E+02  0.88103689453E+01 -0.43468298629E+02  0.88059681612E+02  0.00000000000E+00 0.  1.
          1    1    1    2  501    0  0.14726225741E+03  0.75813827246E+02 -0.66331258979E+01  0.16576461389E+03  0.00000000000E+00 0.  1.
<mgrwt>
<rscale>  4 0.26956585E+03</rscale>
<asrwt>0</asrwt>
<pdfrwt beam="1">  1       21 0.47964563E-01 0.26956585E+03</pdfrwt>
<pdfrwt beam="2">  1        1 0.36693465E-01 0.26956585E+03</pdfrwt>
<totfact> 0.51982392E+03</totfact>
</mgrwt>
</event>
<event>
 5    0  0.2947253E-001  0.4726628E+03  0.7546771E-02  0.1021491E+00
          2   -1    0    0  502    0 -0.00000000000E+00  0.00000000000E+00  0.15810213386E+04  0.15810213386E+04  0.00000000000E+00 0.  1.
         21   -1    0    0  503  502  0.00000000000E+00 -0.00000000000E+00 -0.47807952765E+03  0.47807952765E+03  0.00000000000E+00 0.  1.
         25    1    1    2    0    0 -0.27399276663E+03 -0.35839185645E+03 -0.31514204044E+03  0.56431929313E+03  0.12500000000E+03 0.  0.
         21    1    1    2  503  501  0.11379143873E+03  0.12057221669E+03  0.32672488851E+03  0.36638136380E+03  0.00000000000E+00 0. -1.
          2    1    1    2  501    0  0.16020132791E+03  0.23781963976E+03  0.10913589629E+04  0.11284002093E+04  0.00000000000E+00 0.  1.
<mgrwt>
<rscale>  4 0.47152446E+03</rscale>
<asrwt>0</asrwt>
<pdfrwt beam="1">  1       21 0.73550697E-01 0.47266282E+03</pdfrwt>
<pdfrwt beam="2">  1        2 0.24323405E+00 0.47266282E+03</pdfrwt>
<totfact> 0.22854864E+02</totfact>
</mgrwt>
</event>
<event>
 5    0  0.2947253E-001  0.4009960E+03  0.7546771E-02  0.1044478E+00
          2   -1    0    0  502    0 -0.00000000000E+00  0.00000000000E+00  0.52194119509E+03  0.52194119509E+03  0.00000000000E+00 0.  1.
         21   -1    0    0  503  502  0.00000000000E+00 -0.00000000000E+00 -0.55400344143E+03  0.55400344143E+03  0.00000000000E+00 0.  1.
         25    1    1    2    0    0 -0.18730051156E+03  0.31732955287E+03 -0.38085764069E+03  0.54447871329E+03  0.12500000000E+03 0.  0.
         21    1    1    2  503  501  0.12374425924E+03 -0.10870957338E+03  0.23067496824E+03  0.28344550448E+03  0.00000000000E+00 0.  1.
          2    1    1    2  501    0  0.63556252324E+02 -0.20861997949E+03  0.11812042612E+03  0.24802041875E+03  0.00000000000E+00 0.  1.
<mgrwt>
<rscale>  4 0.39799022E+03</rscale>
<asrwt>0</asrwt>
<pdfrwt beam="1">  1       21 0.85231298E-01 0.40099601E+03</pdfrwt>
<pdfrwt beam="2">  1        2 0.80298646E-01 0.40099601E+03</pdfrwt>
<totfact> 0.81565791E+02</totfact>
</mgrwt>
</event>
<event>
 5    0  0.2947253E-001  0.2670815E+03  0.7546771E-02  0.1102962E+00
         21   -1    0    0  503  502  0.00000000000E+00  0.00000000000E+00  0.35781391952E+03  0.35781391952E+03  0.00000000000E+00 0. -1.
          2   -1    0    0  502    0 -0.00000000000E+00 -0.00000000000E+00 -0.27611678284E+03  0.27611678284E+03  0.00000000000E+00 0. -1.
         25    1    1    2    0    0  0.16742941144E+03  0.16635787369E+03  0.22817150228E+03  0.35127593770E+03  0.12500000000E+03 0.  0.
         21    1    1    2  503  501 -0.72686888289E+02 -0.73491410219E+02 -0.34259392312E+02  0.10889479816E+03  0.00000000000E+00 0. -1.
          2    1    1    2  501    0 -0.94742523151E+02 -0.92866463467E+02 -0.11221497329E+03  0.17375996651E+03  0.00000000000E+00 0. -1.
<mgrwt>
<rscale>  4 0.26708154E+03</rscale>
<asrwt>0</asrwt>
<pdfrwt beam="1">  1       21 0.55048295E-01 0.26708154E+03</pdfrwt>
<pdfrwt beam="2">  1        2 0.42479505E-01 0.26708154E+03</pdfrwt>
<totfact> 0.45184548E+03</totfact>
</mgrwt>
</event>
<event>
 5    0  0.2947253E-001  0.3553775E+03  0.7546771E-02  0.1060429E+00
          2   -1    0    0  502    0 -0.00000000000E+00  0.00000000000E+00  0.96760617365E+03  0.96760617365E+03  0.00000000000E+00 0. -1.
         21   -1    0    0  503  502  0.00000000000E+00 -0.00000000000E+00 -0.16167946336E+03  0.16167946336E+03  0.00000000000E+00 0. -1.
         25    1    1    2    0    0  0.34343300753E+03 -0.91276674016E+02  0.25965073972E+03  0.45751630410E+03  0.12500000000E+03 0.  0.
         21    1    1    2  503  501 -0.31172300119E+02  0.10106761771E+02 -0.48726500351E+01  0.33130071635E+02  0.00000000000E+00 0.  1.
          2    1    1    2  501    0 -0.31226070741E+03  0.81169912245E+02  0.55114862061E+03  0.63863926128E+03  0.00000000000E+00 0. -1.
<mgrwt>
<rscale>  4 0.35537747E+03</rscale>
<asrwt>0</asrwt>
<pdfrwt beam="1">  1       21 0.24873764E-01 0.35537747E+03</pdfrwt>
<pdfrwt beam="2">  1        2 0.14886249E+00 0.35537747E+03</pdfrwt>
<totfact> 0.50976595E+03</totfact>
</mgrwt>
</event>
<event>
 5    0  0.2947253E-001  0.3175300E+03  0.7546771E-02  0.1076792E+00
         21   -1    0    0  503  502  0.00000000000E+00  0.00000000000E+00  0.21845101840E+03  0.21845101840E+03  0.00000000000E+00 0. -1.
          2   -1    0    0  502    0 -0.00000000000E+00 -0.00000000000E+00 -0.10696377772E+04  0.10696377772E+04  0.00000000000E+00 0. -1.
         25    1    1    2    0    0 -0.25423524302E+03  0.14340407491E+03  0.64265175913E+02  0.32396805449E+03  0.12500000000E+03 0.  0.
         21    1    1    2  503  501  0.45563154702E+02 -0.40256130120E+02 -0.10972725551E+03  0.12544571607E+03  0.00000000000E+00 0. -1.
          2    1    1    2  501    0  0.20867208832E+03 -0.10314794479E+03 -0.80572467918E+03  0.83867502503E+03  0.00000000000E+00 0. -1.
<mgrwt>
<rscale>  4 0.31752998E+03</rscale>
<asrwt>0</asrwt>
<pdfrwt beam="1">  1       21 0.33607849E-01 0.31752998E+03</pdfrwt>
<pdfrwt beam="2">  1        2 0.16455966E+00 0.31752998E+03</pdfrwt>
<totfact> 0.24654504E+03</totfact>
</mgrwt>
</event>
<event>
 5    0  0.2947253E-001  0.2797356E+03  0.7546771E-02  0.1095833E+00
         21   -1    0    0  503  502  0.00000000000E+00  0.00000000000E+00  0.48121416655E+03  0.48121416655E+03  0.00000000000E+00 0. -1.
          2   -1    0    0  502    0 -0.00000000000E+00 -0.00000000000E+00 -0.44593966118E+03  0.44593966118E+03  0.00000000000E+00 0. -1.
         25    1    1    2    0    0  0.37954514335E+03 -0.83363480632E+02  0.14164325933E+03  0.43207846355E+03  0.12500000000E+03 0.  0.
         21    1    1    2  503  501 -0.20936162119E+03 -0.68688570636E+02  0.40017351737E+02  0.22394596805E+03  0.00000000000E+00 0. -1.
          2    1    1    2  501    0 -0.17018352216E+03  0.15205205127E+03 -0.14638610570E+03  0.27112939614E+03  0.00000000000E+00 0. -1.
<mgrwt>
<rscale>  4 0.27973556E+03</rscale>
<asrwt>0</asrwt>
<pdfrwt beam="1">  1       21 0.74032949E-01 0.27973556E+03</pdfrwt>
<pdfrwt beam="2">  1        2 0.68606101E-01 0.27973556E+03</pdfrwt>
<totfact> 0.13957878E+03</totfact>
</mgrwt>
</event>
<event>
 5    0  0.2947253E-001  0.3242099E+03  0.7546771E-02  0.1073728E+00
          2   -1    0    0  502    0 -0.00000000000E+00  0.00000000000E+00  0.26164034549E+03  0.26164034549E+03  0.00000000000E+00 0. -1.
         21   -1    0    0  503  502  0.00000000000E+00 -0.00000000000E+00 -0.45256986486E+03  0.45256986486E+03  0.00000000000E+00 0. -1.
         25    1    1    2    0    0  0.28439170148E+03  0.11643383193E+03 -0.76534274115E+02  0.34046728507E+03  0.12500000000E+03 0.  0.
         21    1    1    2  503  501  0.30678044195E+01 -0.54262219299E+02 -0.47372646483E+02  0.72096931294E+02  0.00000000000E+00 0.  1.
          2    1    1    2  501    0 -0.28745950590E+03 -0.62171612627E+02 -0.67022598765E+02  0.30164599399E+03  0.00000000000E+00 0. -1.
<mgrwt>
<rscale>  4 0.32420993E+03</rscale>
<asrwt>0</asrwt>
<pdfrwt beam="1">  1       21 0.69626133E-01 0.32420993E+03</pdfrwt>
<pdfrwt beam="2">  1        2 0.40252361E-01 0.32420993E+03</pdfrwt>
<totfact> 0.28302853E+03</totfact>
</mgrwt>
</event>
<event>
 5    0  0.2947253E-001  0.3054660E+03  0.7546771E-02  0.1082540E+00
         21   -1    0    0  503  502  0.00000000000E+00  0.00000000000E+00  0.12198712720E+04  0.12198712720E+04  0.00000000000E+00 0.  1.
          1   -1    0    0  502    0 -0.00000000000E+00 -0.00000000000E+00 -0.77847109953E+02  0.77847109953E+02  0.00000000000E+00 0.  1.
         25    1    1    2    0    0 -0.17225964192E+03  0.21911428989E+03  0.76668799144E+03  0.82529990457E+03  0.12500000000E+03 0.  0.
         21    1    1    2  503  501  0.53978149759E+02 -0.76543638410E+02  0.18182796567E+03  0.20453356285E+03  0.00000000000E+00 0. -1.
          1    1    1    2  501    0  0.11828149216E+03 -0.14257065148E+03  0.19350820492E+03  0.26788491451E+03  0.00000000000E+00 0.  1.
<mgrwt>
<rscale>  4 0.30546597E+03</rscale>
<asrwt>0</asrwt>
<pdfrwt beam="1">  1       21 0.18767249E+00 0.30546597E+03</pdfrwt>
<pdfrwt beam="2">  1        1 0.11976479E-01 0.30546597E+03</pdfrwt>
<totfact> 0.81941168E+02</totfact>
</mgrwt>
</event>
<event>
 5    0  0.2947253E-001  0.3359312E+03  0.7546771E-02  0.1068769E+00
         21   -1    0    0  503  502  0.00000000000E+00  0.00000000000E+00  0.48377321716E+03  0.48377321716E+03  0.00000000000E+00 0. -1.
          2   -1    0    0  502    0 -0.00000000000E+00 -0.00000000000E+00 -0.33147570650E+03  0.33147570650E+03  0.00000000000E+00 0.  1.
         25    1    1    2    0    0  0.30946357179E+03 -0.73585011375E+01  0.29948808383E+03  0.44848630097E+03  0.12500000000E+03 0.  0.
         21    1    1    2  503  501 -0.19802416410E+03  0.26179660645E+02 -0.26634525180E+02  0.20151511638E+03  0.00000000000E+00 0.  1.
          2    1    1    2  501    0 -0.11143940769E+03 -0.18821159508E+02 -0.12055604799E+03  0.16524750630E+03  0.00000000000E+00 0.  1.
<mgrwt>
<rscale>  4 0.33540630E+03</rscale>
<asrwt>0</asrwt>
<pdfrwt beam="1">  1       21 0.74426649E-01 0.33593118E+03</pdfrwt>
<pdfrwt beam="2">  1        2 0.50996262E-01 0.33593118E+03</pdfrwt>
<totfact> 0.18775862E+03</totfact>
</mgrwt>
</event>
<event>
 5    0  0.2947253E-001  0.4529637E+03  0.7546771E-02  0.1026842E+00
         21   -1    0    0  503  502  0.00000000000E+00  0.00000000000E+00  0.39648790216E+03  0.39648790216E+03  0.00000000000E+00 0. -1.
          2   -1    0    0  502    0 -0.00000000000E+00 -0.00000000000E+00 -0.27932702136E+04  0.27932702136E+04  0.00000000000E+00 0. -1.
         25    1    1    2    0    0  0.40433966314E+03 -0.28939877435E+03  0.13863652057E+03  0.53111891194E+03  0.12500000000E+03 0.  0.
         21    1    1    2  503  501 -0.31855175337E+03  0.23377729393E+02 -0.43483116714E+03  0.53953672880E+03  0.00000000000E+00 0. -1.
          2    1    1    2  501    0 -0.85787909770E+02  0.26602104496E+03 -0.21005876648E+04  0.21191024750E+04  0.00000000000E+00 0. -1.
<mgrwt>
<rscale>  4 0.45296373E+03</rscale>
<asrwt>0</asrwt>
<pdfrwt beam="1">  1       21 0.60998141E-01 0.45296373E+03</pdfrwt>
<pdfrwt beam="2">  1        2 0.42973386E+00 0.45296373E+03</pdfrwt>
<totfact> 0.75683945E+01</totfact>
</mgrwt>
</event>
<event>
 5    0  0.2947253E-001  0.3008978E+03  0.7546771E-02  0.1084793E+00
          1   -1    0    0  502    0 -0.00000000000E+00  0.00000000000E+00  0.16207296235E+04  0.16207296235E+04  0.00000000000E+00 0. -1.
         21   -1    0    0  503  502  0.00000000000E+00 -0.00000000000E+00 -0.78272247750E+03  0.78272247750E+03  0.00000000000E+00 0.  1.
         25    1    1    2    0    0  0.80538352232E+02 -0.26158756670E+03 -0.74094175284E+03  0.79970879846E+03  0.12500000000E+03 0.  0.
         21    1    1    2  503  501 -0.69130970954E+02  0.20732108738E+03  0.10925206361E+04  0.11141644693E+04  0.00000000000E+00 0. -1.
          1    1    1    2  501    0 -0.11407381278E+02  0.54266479324E+02  0.48642826272E+03  0.48957883318E+03  0.00000000000E+00 0. -1.
<mgrwt>
<rscale>  4 0.30089779E+03</rscale>
<asrwt>0</asrwt>
<pdfrwt beam="1">  1       21 0.12041884E+00 0.30089779E+03</pdfrwt>
<pdfrwt beam="2">  1        1 0.24934302E+00 0.30089779E+03</pdfrwt>
<totfact> 0.32302788E+01</totfact>
</mgrwt>
</event>
<event>
 5    0  0.2947253E-001  0.2644920E+03  0.7546771E-02  0.1104474E+00
         -1   -1    0    0    0  501 -0.00000000000E+00  0.00000000000E+00  0.88638499926E+02  0.88638499926E+02  0.00000000000E+00 0.  1.
         21   -1    0    0  501  502  0.00000000000E+00 -0.00000000000E+00 -0.97672828831E+03  0.97672828831E+03  0.00000000000E+00 0. -1.
         25    1    1    2    0    0  0.14630767213E+03  0.18079283995E+03 -0.69419930900E+03  0.74271775697E+03  0.12500000000E+03 0.  0.
         21    1    1    2  501  501  0.18229344341E+02 -0.12858426859E+02 -0.22659284418E+02  0.31797661969E+02  0.00000000000E+00 0.  1.
         -1    1    1    2    0  502 -0.16453701647E+03 -0.16793441309E+03 -0.17123119496E+03  0.29085136929E+03  0.00000000000E+00 0.  1.
<mgrwt>
<rscale>  4 0.26449201E+03</rscale>
<asrwt>0</asrwt>
<pdfrwt beam="1">  1       21 0.15026589E+00 0.26449201E+03</pdfrwt>
<pdfrwt beam="2">  1       -1 0.13636692E-01 0.26449201E+03</pdfrwt>
<totfact> 0.96988230E+02</totfact>
</mgrwt>
</event>
<event>
 5    0  0.2947253E-001  0.3021069E+03  0.7546771E-02  0.1084192E+00
         21   -1    0    0  503  502  0.00000000000E+00  0.00000000000E+00  0.55225391914E+02  0.55225391914E+02  0.00000000000E+00 0.  1.
          2   -1    0    0  502    0 -0.00000000000E+00 -0.00000000000E+00 -0.30467488249E+04  0.30467488249E+04  0.00000000000E+00 0.  1.
         25    1    1    2    0    0  0.32129381353E+03  0.40011474181E+02 -0.12837680681E+04  0.13298556634E+04  0.12500000000E+03 0.  0.
         21    1    1    2  503  501 -0.79398549202E+02  0.43734434130E+02 -0.70132463915E+02  0.11460974147E+03  0.00000000000E+00 0. -1.
          2    1    1    2  501    0 -0.24189526433E+03 -0.83745908310E+02 -0.16376229010E+04  0.16575088120E+04  0.00000000000E+00 0.  1.
<mgrwt>
<rscale>  4 0.30210694E+03</rscale>
<asrwt>0</asrwt>
<pdfrwt beam="1">  1       21 0.84962163E-02 0.30210694E+03</pdfrwt>
<pdfrwt beam="2">  1        2 0.46873047E+00 0.30210694E+03</pdfrwt>
<totfact> 0.26234034E+03</totfact>
</mgrwt>
</event>
<event>
 5    0  0.2947253E-001  0.2340186E+03  0.7546771E-02  0.1123843E+00
         21   -1    0    0  503  502  0.00000000000E+00  0.00000000000E+00  0.23497025500E+03  0.23497025500E+03  0.00000000000E+00 0. -1.
          1   -1    0    0  502    0 -0.00000000000E+00 -0.00000000000E+00 -0.90882428351E+03  0.90882428351E+03  0.00000000000E+00 0.  1.
         25    1    1    2    0    0 -0.17885695733E+03 -0.98110610887E+02  0.13515943952E+03  0.27478824073E+03  0.12500000000E+03 0.  0.
         21    1    1    2  503  501  0.85138325523E+02  0.11896229979E+03 -0.73043330840E+03  0.74493850838E+03  0.00000000000E+00 0.  1.
          1    1    1    2  501    0  0.93718631809E+02 -0.20851688905E+02 -0.78580159624E+02  0.12406778939E+03  0.00000000000E+00 0.  1.
<mgrwt>
<rscale>  4 0.23401862E+03</rscale>
<asrwt>0</asrwt>
<pdfrwt beam="1">  1       21 0.36149270E-01 0.23401862E+03</pdfrwt>
<pdfrwt beam="2">  1        1 0.13981912E+00 0.23401862E+03</pdfrwt>
<totfact> 0.15244295E+03</totfact>
</mgrwt>
</event>
<event>
 5    0  0.2947253E-001  0.3674590E+03  0.7546771E-02  0.1055669E+00
         21   -1    0    0  503  502  0.00000000000E+00  0.00000000000E+00  0.13416783958E+03  0.13416783958E+03  0.00000000000E+00 0.  1.
          2   -1    0    0  502    0 -0.00000000000E+00 -0.00000000000E+00 -0.15178578653E+04  0.15178578653E+04  0.00000000000E+00 0.  1.
         25    1    1    2    0    0 -0.23046736555E+03 -0.25746045823E+03 -0.20138003782E+03  0.41902268885E+03  0.12500000000E+03 0.  0.
         21    1    1    2  503  501  0.21898940432E+02  0.28450779362E+02 -0.74442424855E+02  0.82647958575E+02  0.00000000000E+00 0.  1.
          2    1    1    2  501    0  0.20856842511E+03  0.22900967887E+03 -0.11078675630E+04  0.11503550575E+04  0.00000000000E+00 0.  1.
<mgrwt>
<rscale>  4 0.36745897E+03</rscale>
<asrwt>0</asrwt>
<pdfrwt beam="1">  1       21 0.20641207E-01 0.36745897E+03</pdfrwt>
<pdfrwt beam="2">  1        2 0.23351658E+00 0.36745897E+03</pdfrwt>
<totfact> 0.35074291E+03</totfact>
</mgrwt>
</event>
<event>
 5    0  0.2947253E-001  0.3262690E+03  0.7546771E-02  0.1073568E+00
         21   -1    0    0  503  502  0.00000000000E+00  0.00000000000E+00  0.18278274186E+03  0.18278274186E+03  0.00000000000E+00 0.  1.
          2   -1    0    0  502    0 -0.00000000000E+00 -0.00000000000E+00 -0.10206370326E+04  0.10206370326E+04  0.00000000000E+00 0.  1.
         25    1    1    2    0    0 -0.20561070896E+03 -0.21019403451E+03 -0.16834329900E+02  0.31994638683E+03  0.12500000000E+03 0.  0.
         21    1    1    2  503  501 -0.11252226990E+01  0.84057814184E+02 -0.20672737110E+03  0.22316627929E+03  0.00000000000E+00 0. -1.
          2    1    1    2  501    0  0.20673593166E+03  0.12613622033E+03 -0.61429258972E+03  0.66030710832E+03  0.00000000000E+00 0.  1.
<mgrwt>
<rscale>  4 0.32456422E+03</rscale>
<asrwt>0</asrwt>
<pdfrwt beam="1">  1       21 0.28120422E-01 0.32626898E+03</pdfrwt>
<pdfrwt beam="2">  1        2 0.15702108E+00 0.32626898E+03</pdfrwt>
<totfact> 0.37471721E+03</totfact>
</mgrwt>
</event>
<event>
 5    0  0.2947253E-001  0.5174104E+03  0.7546771E-02  0.1009332E+00
         21   -1    0    0  501  502  0.00000000000E+00  0.00000000000E+00  0.14156939871E+04  0.14156939871E+04  0.00000000000E+00 0.  1.
         -2   -1    0    0    0  501 -0.00000000000E+00 -0.00000000000E+00 -0.77279144258E+03  0.77279144258E+03  0.00000000000E+00 0.  1.
         25    1    1    2    0    0 -0.50467518549E+03 -0.57325703406E+02  0.12174817359E+04  0.13250924709E+04  0.12500000000E+03 0.  0.
         21    1    1    2  501  501  0.17465854008E+02 -0.63440037208E+02  0.34366002500E+02  0.74234200373E+02  0.00000000000E+00 0.  1.
         -2    1    1    2    0  502  0.48720933148E+03  0.12076574061E+03 -0.60894519390E+03  0.78915875840E+03  0.00000000000E+00 0.  1.
<mgrwt>
<rscale>  4 0.51741041E+03</rscale>
<asrwt>0</asrwt>
<pdfrwt beam="1">  1       21 0.21779907E+00 0.51741041E+03</pdfrwt>
<pdfrwt beam="2">  1       -2 0.11889099E+00 0.51741041E+03</pdfrwt>
<totfact> 0.39143578E+00</totfact>
</mgrwt>
</event>
<event>
 5    0  0.2947253E-001  0.2514136E+03  0.7546771E-02  0.1112415E+00
         21   -1    0    0  503  502  0.00000000000E+00  0.00000000000E+00  0.40138927479E+02  0.40138927479E+02  0.00000000000E+00 0. -1.
          1   -1    0    0  502    0 -0.00000000000E+00 -0.00000000000E+00 -0.15066892850E+04  0.15066892850E+04  0.00000000000E+00 0. -1.
         25    1    1    2    0    0  0.12013836517E+03 -0.18207304810E+03 -0.56739037130E+03  0.62059701504E+03  0.12500000000E+03 0.  0.
         21    1    1    2  503  501 -0.21944578830E+02  0.17883126210E+02 -0.75175925580E+02  0.80329263223E+02  0.00000000000E+00 0.  1.
          1    1    1    2  501    0 -0.98193786342E+02  0.16418992189E+03 -0.82398406067E+03  0.84590193425E+03  0.00000000000E+00 0. -1.
<mgrwt>
<rscale>  4 0.25141365E+03</rscale>
<asrwt>0</asrwt>
<pdfrwt beam="1">  1       21 0.61752190E-02 0.25141365E+03</pdfrwt>
<pdfrwt beam="2">  1        1 0.23179837E+00 0.25141365E+03</pdfrwt>
<totfact> 0.14860609E+04</totfact>
</mgrwt>
</event>
<event>
 5    0  0.2947253E-001  0.2591889E+03  0.7546771E-02  0.1107632E+00
         21   -1    0    0  503  502  0.00000000000E+00  0.00000000000E+00  0.64647334498E+03  0.64647334498E+03  0.00000000000E+00 0. -1.
          2   -1    0    0  502    0 -0.00000000000E+00 -0.00000000000E+00 -0.21894796571E+03  0.21894796571E+03  0.00000000000E+00 0. -1.
         25    1    1    2    0    0 -0.12098630200E+03  0.19070963621E+03  0.52415387359E+03  0.58426888828E+03  0.12500000000E+03 0.  0.
         21    1    1    2  503  501 -0.27431962908E+02 -0.81832871598E+01 -0.76095275609E+01  0.29620663183E+02  0.00000000000E+00 0.  1.
          2    1    1    2  501    0  0.14841826491E+03 -0.18252634905E+03 -0.89018966760E+02  0.25153175923E+03  0.00000000000E+00 0. -1.
<mgrwt>
<rscale>  4 0.25918894E+03</rscale>
<asrwt>0</asrwt>
<pdfrwt beam="1">  1       21 0.99457437E-01 0.25918894E+03</pdfrwt>
<pdfrwt beam="2">  1        2 0.33684303E-01 0.25918894E+03</pdfrwt>
<totfact> 0.15399394E+03</totfact>
</mgrwt>
</event>
<event>
 5    0  0.2947253E-001  0.2456063E+03  0.7546771E-02  0.1116113E+00
         21   -1    0    0  503  502  0.00000000000E+00  0.00000000000E+00  0.36726200316E+03  0.36726200316E+03  0.00000000000E+00 0. -1.
          1   -1    0    0  502    0 -0.00000000000E+00 -0.00000000000E+00 -0.14993108128E+03  0.14993108128E+03  0.00000000000E+00 0.  1.
         25    1    1    2    0    0  0.14109263703E+03  0.15744944515E+03  0.10835143697E+03  0.26844458254E+03  0.12500000000E+03 0.  0.
         21    1    1    2  503  501 -0.95674838353E+02 -0.11050205410E+03  0.35465829538E+02  0.15040679412E+03  0.00000000000E+00 0.  1.
          1    1    1    2  501    0 -0.45417798682E+02 -0.46947391049E+02  0.73513655365E+02  0.98341707777E+02  0.00000000000E+00 0.  1.
<mgrwt>
<rscale>  4 0.24560631E+03</rscale>
<asrwt>0</asrwt>
<pdfrwt beam="1">  1       21 0.56501846E-01 0.24560631E+03</pdfrwt>
<pdfrwt beam="2">  1        1 0.23066320E-01 0.24560631E+03</pdfrwt>
<totfact> 0.66632511E+03</totfact>
</mgrwt>
</event>
<event>
 5    0  0.2947253E-001  0.2534830E+03  0.7546771E-02  0.1111123E+00
         21   -1    0    0  503  502  0.00000000000E+00  0.00000000000E+00  0.48846735295E+03  0.48846735295E+03  0.00000000000E+00 0.  1.
          1   -1    0    0  502    0 -0.00000000000E+00 -0.00000000000E+00 -0.39916128428E+03  0.39916128428E+03  0.00000000000E+00 0.  1.
         25    1    1    2    0    0 -0.46739872640E+02 -0.21550877491E+03  0.41638805276E+03  0.48747580272E+03  0.12500000000E+03 0.  0.
         21    1    1    2  503  501  0.26499634231E+02  0.21861261381E+02 -0.66683778077E+02  0.75012476443E+02  0.00000000000E+00 0.  1.
          1    1    1    2  501    0  0.20240238410E+02  0.19364751353E+03 -0.26039820601E+03  0.32514035807E+03  0.00000000000E+00 0.  1.
<mgrwt>
<rscale>  4 0.25348303E+03</rscale>
<asrwt>0</asrwt>
<pdfrwt beam="1">  1       21 0.75148824E-01 0.25348303E+03</pdfrwt>
<pdfrwt beam="2">  1        1 0.61409428E-01 0.25348303E+03</pdfrwt>
<totfact> 0.10285660E+03</totfact>
</mgrwt>
</event>
<event>
 5    0  0.2947253E-001  0.2425871E+03  0.7546771E-02  0.1118081E+00
         21   -1    0    0  503  502  0.00000000000E+00  0.00000000000E+00  0.20026547042E+03  0.20026547042E+03  0.00000000000E+00 0. -1.
          1   -1    0    0  502    0 -0.00000000000E+00 -0.00000000000E+00 -0.38964001387E+03  0.38964001387E+03  0.00000000000E+00 0. -1.
         25    1    1    2    0    0  0.20301340171E+03 -0.44822359018E+02  0.62485495342E+02  0.25050533382E+03  0.12500000000E+03 0.  0.
         21    1    1    2  503  501 -0.11868588043E+03  0.40047467779E+01 -0.78528428706E+02  0.14236955547E+03  0.00000000000E+00 0. -1.
          1    1    1    2  501    0 -0.84327521282E+02  0.40817612241E+02 -0.17333161008E+03  0.19703059501E+03  0.00000000000E+00 0. -1.
<mgrwt>
<rscale>  4 0.24258707E+03</rscale>
<asrwt>0</asrwt>
<pdfrwt beam="1">  1       21 0.30810072E-01 0.24258707E+03</pdfrwt>
<pdfrwt beam="2">  1        1 0.59944618E-01 0.24258707E+03</pdfrwt>
<totfact> 0.68837237E+03</totfact>
</mgrwt>
</event>
<event>
 5    0  0.2947253E-001  0.3154176E+03  0.7546771E-02  0.1077778E+00
         21   -1    0    0  503  502  0.00000000000E+00  0.00000000000E+00  0.13617456808E+04  0.13617456808E+04  0.00000000000E+00 0. -1.
          1   -1    0    0  502    0 -0.00000000000E+00 -0.00000000000E+00 -0.10271433425E+03  0.10271433425E+03  0.00000000000E+00 0. -1.
         25    1    1    2    0    0 -0.88439401021E+01  0.28945648985E+03  0.10561447219E+04  0.11022386077E+04  0.12500000000E+03 0.  0.
         21    1    1    2  503  501  0.19271658434E+02 -0.20888471655E+03  0.18348037189E+03  0.27869206751E+03  0.00000000000E+00 0. -1.
          1    1    1    2  501    0 -0.10427718332E+02 -0.80571773307E+02  0.19406252789E+02  0.83529339820E+02  0.00000000000E+00 0. -1.
<mgrwt>
<rscale>  4 0.31541762E+03</rscale>
<asrwt>0</asrwt>
<pdfrwt beam="1">  1       21 0.20949932E+00 0.31541762E+03</pdfrwt>
<pdfrwt beam="2">  1        1 0.15802206E-01 0.31541762E+03</pdfrwt>
<totfact> 0.40518579E+02</totfact>
</mgrwt>
</event>
<event>
 5    0  0.2947253E-001  0.5293435E+03  0.7546771E-02  0.1006391E+00
         21   -1    0    0  503  502  0.00000000000E+00  0.00000000000E+00  0.32462707507E+03  0.32462707507E+03  0.00000000000E+00 0. -1.
          1   -1    0    0  502    0 -0.00000000000E+00 -0.00000000000E+00 -0.86275276487E+03  0.86275276487E+03  0.00000000000E+00 0.  1.
         25    1    1    2    0    0  0.40245454513E+03 -0.32032777349E+03 -0.20648870920E+03  0.56819198374E+03  0.12500000000E+03 0.  0.
         21    1    1    2  503  501 -0.49387356918E+02  0.39047339399E+02 -0.81881076798E+02  0.10328754269E+03  0.00000000000E+00 0.  1.
          1    1    1    2  501    0 -0.35306718821E+03  0.28128043409E+03 -0.24975590381E+03  0.51590031351E+03  0.00000000000E+00 0.  1.
<mgrwt>
<rscale>  4 0.52934350E+03</rscale>
<asrwt>0</asrwt>
<pdfrwt beam="1">  1       21 0.49942628E-01 0.52934350E+03</pdfrwt>
<pdfrwt beam="2">  1        1 0.13273119E+00 0.52934350E+03</pdfrwt>
<totfact> 0.77979494E+02</totfact>
</mgrwt>
</event>
<event>
 5    0  0.2947253E-001  0.2855689E+03  0.7546771E-02  0.1092686E+00
         21   -1    0    0  501  502  0.00000000000E+00  0.00000000000E+00  0.15921628436E+04  0.15921628436E+04  0.00000000000E+00 0.  1.
         -2   -1    0    0    0  501 -0.00000000000E+00 -0.00000000000E+00 -0.13065436548E+03  0.13065436548E+03  0.00000000000E+00 0. -1.
         25    1    1    2    0    0  0.26222266685E+03 -0.29274433584E+02  0.13762799749E+04  0.14069077044E+04  0.12500000000E+03 0.  0.
         21    1    1    2  501  501 -0.54642372426E+02  0.20692478427E+02  0.90917670888E+02  0.10807400431E+03  0.00000000000E+00 0. -1.
         -2    1    1    2    0  502 -0.20758029442E+03  0.85819551575E+01 -0.56891676457E+01  0.20783550037E+03  0.00000000000E+00 0. -1.
<mgrwt>
<rscale>  4 0.28556889E+03</rscale>
<asrwt>0</asrwt>
<pdfrwt beam="1">  1       21 0.24494812E+00 0.28556889E+03</pdfrwt>
<pdfrwt beam="2">  1       -2 0.20100673E-01 0.28556889E+03</pdfrwt>
<totfact> 0.11005469E+02</totfact>
</mgrwt>
</event>
<event>
 5    0  0.2947253E-001  0.2855373E+03  0.7546771E-02  0.1092702E+00
         21   -1    0    0  503  502  0.00000000000E+00  0.00000000000E+00  0.61514960852E+03  0.61514960852E+03  0.00000000000E+00 0. -1.
          2   -1    0    0  502    0 -0.00000000000E+00 -0.00000000000E+00 -0.19274184198E+03  0.19274184198E+03  0.00000000000E+00 0.  1.
         25    1    1    2    0    0  0.98211293594E+02 -0.27161341867E+03  0.53930108482E+02  0.31930042905E+03  0.12500000000E+03 0.  0.
         21    1    1    2  503  501  0.28466547174E+01  0.45435851218E+02  0.11555098154E+01  0.45539600590E+02  0.00000000000E+00 0. -1.
          2    1    1    2  501    0 -0.10105794831E+03  0.22617756746E+03  0.36732214824E+03  0.44305142086E+03  0.00000000000E+00 0.  1.
<mgrwt>
<rscale>  4 0.28553726E+03</rscale>
<asrwt>0</asrwt>
<pdfrwt beam="1">  1       21 0.94638400E-01 0.28553726E+03</pdfrwt>
<pdfrwt beam="2">  1        2 0.29652591E-01 0.28553726E+03</pdfrwt>
<totfact> 0.19765612E+03</totfact>
</mgrwt>
</event>
<event>
 5    0  0.2947253E-001  0.2798270E+03  0.7546771E-02  0.1095783E+00
         21   -1    0    0  503  502  0.00000000000E+00  0.00000000000E+00  0.70023825283E+03  0.70023825283E+03  0.00000000000E+00 0.  1.
          2   -1    0    0  502    0 -0.00000000000E+00 -0.00000000000E+00 -0.23490523183E+03  0.23490523183E+03  0.00000000000E+00 0. -1.
         25    1    1    2    0    0 -0.20684089625E+02  0.27933785395E+03  0.49098131276E+03  0.57891719416E+03  0.12500000000E+03 0.  0.
         21    1    1    2  503  501 -0.38258263710E+02 -0.40262160807E+02  0.72347722808E+02  0.91208164823E+02  0.00000000000E+00 0. -1.
          2    1    1    2  501    0  0.58942353335E+02 -0.23907569314E+03 -0.97996014569E+02  0.26501812568E+03  0.00000000000E+00 0. -1.
<mgrwt>
<rscale>  4 0.27982703E+03</rscale>
<asrwt>0</asrwt>
<pdfrwt beam="1">  1       21 0.10772896E+00 0.27982703E+03</pdfrwt>
<pdfrwt beam="2">  1        2 0.36139267E-01 0.27982703E+03</pdfrwt>
<totfact> 0.11667617E+03</totfact>
</mgrwt>
</event>
<event>
 5    0  0.2947253E-001  0.4481051E+03  0.7546771E-02  0.1028289E+00
         21   -1    0    0  503  502  0.00000000000E+00  0.00000000000E+00  0.10736513635E+03  0.10736513635E+03  0.00000000000E+00 0. -1.
          2   -1    0    0  502    0 -0.00000000000E+00 -0.00000000000E+00 -0.22533904179E+04  0.22533904179E+04  0.00000000000E+00 0.  1.
         25    1    1    2    0    0 -0.20919593625E+03 -0.37604557299E+03 -0.56784742113E+03  0.72335945864E+03  0.12500000000E+03 0.  0.
         21    1    1    2  503  501  0.77729861435E+01  0.40983650131E+02 -0.22685410558E+03  0.23065746056E+03  0.00000000000E+00 0. -1.
          2    1    1    2  501    0  0.20142295011E+03  0.33506192286E+03 -0.13513237548E+04  0.14067386350E+04  0.00000000000E+00 0.  1.
<mgrwt>
<rscale>  4 0.44810514E+03</rscale>
<asrwt>0</asrwt>
<pdfrwt beam="1">  1       21 0.16517713E-01 0.44810514E+03</pdfrwt>
<pdfrwt beam="2">  1        2 0.34667546E+00 0.44810514E+03</pdfrwt>
<totfact> 0.21054063E+03</totfact>
</mgrwt>
</event>
<event>
 5    0  0.2947253E-001  0.2358374E+03  0.7546771E-02  0.1122597E+00
         21   -1    0    0  503  502  0.00000000000E+00  0.00000000000E+00  0.11025176658E+03  0.11025176658E+03  0.00000000000E+00 0.  1.
          2   -1    0    0  502    0 -0.00000000000E+00 -0.00000000000E+00 -0.15943088278E+04  0.15943088278E+04  0.00000000000E+00 0. -1.
         25    1    1    2    0    0 -0.12162939371E+03 -0.16498355596E+03 -0.42865679425E+02  0.24387650486E+03  0.12500000000E+03 0.  0.
         21    1    1    2  503  501  0.13832943731E+03  0.10261193974E+03 -0.98474996090E+03  0.99969831894E+03  0.00000000000E+00 0. -1.
          2    1    1    2  501    0 -0.16700043602E+02  0.62371616214E+02 -0.45644142092E+03  0.46098577060E+03  0.00000000000E+00 0. -1.
<mgrwt>
<rscale>  4 0.23583742E+03</rscale>
<asrwt>0</asrwt>
<pdfrwt beam="1">  1       21 0.16961810E-01 0.23583742E+03</pdfrwt>
<pdfrwt beam="2">  1        2 0.24527829E+00 0.23583742E+03</pdfrwt>
<totfact> 0.48124044E+03</totfact>
</mgrwt>
</event>
<event>
 5    0  0.2947253E-001  0.3802117E+03  0.7546771E-02  0.1050856E+00
         21   -1    0    0  503  502  0.00000000000E+00  0.00000000000E+00  0.24007606813E+03  0.24007606813E+03  0.00000000000E+00 0. -1.
          1   -1    0    0  502    0 -0.00000000000E+00 -0.00000000000E+00 -0.78898699841E+03  0.78898699841E+03  0.00000000000E+00 0. -1.
         25    1    1    2    0    0 -0.21563874365E+03  0.28711641666E+03 -0.11235603339E+02  0.38037763244E+03  0.12500000000E+03 0.  0.
         21    1    1    2  503  501  0.96993085840E+01 -0.28053837923E+02 -0.67275233514E+02  0.73532655696E+02  0.00000000000E+00 0. -1.
          1    1    1    2  501    0  0.20593943507E+03 -0.25906257873E+03 -0.47040009342E+03  0.57515277841E+03  0.00000000000E+00 0. -1.
<mgrwt>
<rscale>  4 0.38021166E+03</rscale>
<asrwt>0</asrwt>
<pdfrwt beam="1">  1       21 0.36934780E-01 0.38021166E+03</pdfrwt>
<pdfrwt beam="2">  1        1 0.12138261E+00 0.38021166E+03</pdfrwt>
<totfact> 0.17430867E+03</totfact>
</mgrwt>
</event>
<event>
 5    0  0.2947253E-001  0.2645524E+03  0.7546771E-02  0.1104439E+00
         -1   -1    0    0    0  501 -0.00000000000E+00  0.00000000000E+00  0.17921677629E+03  0.17921677629E+03  0.00000000000E+00 0. -1.
         21   -1    0    0  501  502  0.00000000000E+00 -0.00000000000E+00 -0.38164621241E+03  0.38164621241E+03  0.00000000000E+00 0. -1.
         25    1    1    2    0    0 -0.16352094049E+03 -0.16620431472E+03 -0.18026695683E+03  0.32013145415E+03  0.12500000000E+03 0.  0.
         21    1    1    2  501  501  0.18932155944E+02  0.42781597983E+02 -0.19297386005E+02  0.50607121646E+02  0.00000000000E+00 0.  1.
         -1    1    1    2    0  502  0.14458878455E+03  0.12342271674E+03 -0.28650932857E+01  0.19012441291E+03  0.00000000000E+00 0. -1.
<mgrwt>
<rscale>  4 0.26455240E+03</rscale>
<asrwt>0</asrwt>
<pdfrwt beam="1">  1       21 0.58714802E-01 0.26455240E+03</pdfrwt>
<pdfrwt beam="2">  1       -1 0.27571812E-01 0.26455240E+03</pdfrwt>
<totfact> 0.28694970E+03</totfact>
</mgrwt>
</event>
<event>
 5    0  0.2947253E-001  0.2485771E+03  0.7546771E-02  0.1114207E+00
          2   -1    0    0  502    0 -0.00000000000E+00  0.00000000000E+00  0.20934767493E+03  0.20934767493E+03  0.00000000000E+00 0. -1.
         21   -1    0    0  503  502  0.00000000000E+00 -0.00000000000E+00 -0.73601430490E+03  0.73601430490E+03  0.00000000000E+00 0. -1.
         25    1    1    2    0    0 -0.21651326803E+02  0.21878249981E+03 -0.61411121177E+03  0.66414768132E+03  0.12500000000E+03 0.  0.
         21    1    1    2  503  501  0.65260285847E+02 -0.28080643959E+02  0.15034518967E+02  0.72618621816E+02  0.00000000000E+00 0. -1.
          2    1    1    2  501    0 -0.43608959044E+02 -0.19070185585E+03  0.72410062835E+02  0.20859567669E+03  0.00000000000E+00 0. -1.
<mgrwt>
<rscale>  4 0.24857708E+03</rscale>
<asrwt>0</asrwt>
<pdfrwt beam="1">  1       21 0.11323297E+00 0.24857708E+03</pdfrwt>
<pdfrwt beam="2">  1        2 0.32207335E-01 0.24857708E+03</pdfrwt>
<totfact> 0.11857353E+03</totfact>
</mgrwt>
</event>
<event>
 5    0  0.2947253E-001  0.3500288E+03  0.7546771E-02  0.1062603E+00
         21   -1    0    0  503  502  0.00000000000E+00  0.00000000000E+00  0.64771061743E+03  0.64771061743E+03  0.00000000000E+00 0.  1.
          2   -1    0    0  502    0 -0.00000000000E+00 -0.00000000000E+00 -0.30335534154E+03  0.30335534154E+03  0.00000000000E+00 0. -1.
         25    1    1    2    0    0  0.21634269822E+03 -0.24513463480E+03  0.47354687090E+03  0.58886907814E+03  0.12500000000E+03 0.  0.
         21    1    1    2  503  501 -0.14234659344E+03  0.15987358686E+03 -0.38741936818E+02  0.21753862670E+03  0.00000000000E+00 0. -1.
          2    1    1    2  501    0 -0.73996104781E+02  0.85261047945E+02 -0.90449658190E+02  0.14465825412E+03  0.00000000000E+00 0. -1.
<mgrwt>
<rscale>  4 0.35002879E+03</rscale>
<asrwt>0</asrwt>
<pdfrwt beam="1">  1       21 0.99647787E-01 0.35002879E+03</pdfrwt>
<pdfrwt beam="2">  1        2 0.46670053E-01 0.35002879E+03</pdfrwt>
<totfact> 0.10433575E+03</totfact>
</mgrwt>
</event>
<event>
 5    0  0.2947253E-001  0.2726912E+03  0.7546771E-02  0.1099749E+00
          1   -1    0    0  502    0 -0.00000000000E+00  0.00000000000E+00  0.74000964449E+02  0.74000964449E+02  0.00000000000E+00 0. -1.
         21   -1    0    0  503  502  0.00000000000E+00 -0.00000000000E+00 -0.28081393519E+04  0.28081393519E+04  0.00000000000E+00 0.  1.
         25    1    1    2    0    0 -0.15968802633E+03 -0.18230533917E+03 -0.25645300808E+04  0.25789872116E+04  0.12500000000E+03 0.  0.
         21    1    1    2  503  501 -0.16282630396E+01  0.26610156447E+02 -0.12891775816E+02  0.29613333996E+02  0.00000000000E+00 0. -1.
          1    1    1    2  501    0  0.16131628937E+03  0.15569518272E+03 -0.15671653087E+03  0.27353977076E+03  0.00000000000E+00 0. -1.
<mgrwt>
<rscale>  4 0.27269122E+03</rscale>
<asrwt>0</asrwt>
<pdfrwt beam="1">  1       21 0.43202143E+00 0.27269122E+03</pdfrwt>
<pdfrwt beam="2">  1        1 0.11384764E-01 0.27269122E+03</pdfrwt>
<totfact> 0.28340643E+01</totfact>
</mgrwt>
</event>
<event>
 5    0  0.2947253E-001  0.2633119E+03  0.7546771E-02  0.1105170E+00
         21   -1    0    0  503  502  0.00000000000E+00  0.00000000000E+00  0.14907827469E+03  0.14907827469E+03  0.00000000000E+00 0. -1.
          2   -1    0    0  502    0 -0.00000000000E+00 -0.00000000000E+00 -0.10572621572E+04  0.10572621572E+04  0.00000000000E+00 0. -1.
         25    1    1    2    0    0 -0.11278250171E+03 -0.25115186152E+03 -0.66446042336E+02  0.30957588210E+03  0.12500000000E+03 0.  0.
         21    1    1    2  503  501  0.97913542652E-01  0.55014711349E+02 -0.53603200178E+02  0.76811009115E+02  0.00000000000E+00 0. -1.
          2    1    1    2  501    0  0.11268458817E+03  0.19613715017E+03 -0.78813463996E+03  0.81995354063E+03  0.00000000000E+00 0. -1.
<mgrwt>
<rscale>  4 0.26331192E+03</rscale>
<asrwt>0</asrwt>
<pdfrwt beam="1">  1       21 0.22935118E-01 0.26331192E+03</pdfrwt>
<pdfrwt beam="2">  1        2 0.16265572E+00 0.26331192E+03</pdfrwt>
<totfact> 0.53723780E+03</totfact>
</mgrwt>
</event>
<event>
 5    0  0.2947253E-001  0.2825310E+03  0.7546771E-02  0.1094315E+00
         -2   -1    0    0    0  501 -0.00000000000E+00  0.00000000000E+00  0.32765248868E+03  0.32765248868E+03  0.00000000000E+00 0. -1.
         21   -1    0    0  501  502  0.00000000000E+00 -0.00000000000E+00 -0.22603457302E+03  0.22603457302E+03  0.00000000000E+00 0. -1.
         25    1    1    2    0    0 -0.25336866053E+03 -0.17513560555E+01  0.63444303390E+02  0.28956678853E+03  0.12500000000E+03 0.  0.
         21    1    1    2  501  501  0.17380664728E+03  0.10132328770E+02 -0.30358294567E+01  0.17412820273E+03  0.00000000000E+00 0. -1.
         -2    1    1    2    0  502  0.79562013247E+02 -0.83809727141E+01  0.41209441721E+02  0.89992070442E+02  0.00000000000E+00 0. -1.
<mgrwt>
<rscale>  4 0.28253096E+03</rscale>
<asrwt>0</asrwt>
<pdfrwt beam="1">  1       21 0.34774550E-01 0.28253096E+03</pdfrwt>
<pdfrwt beam="2">  1       -2 0.50408075E-01 0.28253096E+03</pdfrwt>
<totfact> 0.23954633E+03</totfact>
</mgrwt>
</event>
<event>
 5    0  0.2947253E-001  0.2580910E+03  0.7546771E-02  0.1108296E+00
          2   -1    0    0  502    0 -0.00000000000E+00  0.00000000000E+00  0.28601871995E+03  0.28601871995E+03  0.00000000000E+00 0.  1.
         21   -1    0    0  503  502  0.00000000000E+00 -0.00000000000E+00 -0.21331795841E+03  0.21331795841E+03  0.00000000000E+00 0.  1.
         25    1    1    2    0    0 -0.21874231987E+03  0.56015858763E+02  0.25291914712E+02  0.25932732190E+03  0.12500000000E+03 0.  0.
         21    1    1    2  503  501  0.20212801070E+03 -0.39340052395E+02  0.24866454481E+02  0.20741676159E+03  0.00000000000E+00 0.  1.
          2    1    1    2  501    0  0.16614309173E+02 -0.16675806368E+02  0.22542392352E+02  0.32592594868E+02  0.00000000000E+00 0.  1.
<mgrwt>
<rscale>  4 0.25809103E+03</rscale>
<asrwt>0</asrwt>
<pdfrwt beam="1">  1       21 0.32818147E-01 0.25809103E+03</pdfrwt>
<pdfrwt beam="2">  1        2 0.44002880E-01 0.25809103E+03</pdfrwt>
<totfact> 0.12608620E+04</totfact>
</mgrwt>
</event>
<event>
 5    0  0.2947253E-001  0.3118046E+03  0.7546771E-02  0.1079484E+00
         21   -1    0    0  503  502  0.00000000000E+00  0.00000000000E+00  0.22255924556E+04  0.22255924556E+04  0.00000000000E+00 0. -1.
          1   -1    0    0  502    0 -0.00000000000E+00 -0.00000000000E+00 -0.26087879988E+03  0.26087879988E+03  0.00000000000E+00 0. -1.
         25    1    1    2    0    0 -0.74032069677E+02  0.29030646759E+03  0.20741128058E+04  0.20993635997E+04  0.12500000000E+03 0.  0.
         21    1    1    2  503  501  0.12287453072E+03 -0.15600083316E+03  0.12914826508E+02  0.19900051002E+03  0.00000000000E+00 0. -1.
          1    1    1    2  501    0 -0.48842461042E+02 -0.13430563443E+03 -0.12231397656E+03  0.18810714580E+03  0.00000000000E+00 0. -1.
<mgrwt>
<rscale>  4 0.31180460E+03</rscale>
<asrwt>0</asrwt>
<pdfrwt beam="1">  1       21 0.34239883E+00 0.31180460E+03</pdfrwt>
<pdfrwt beam="2">  1        1 0.40135201E-01 0.31180460E+03</pdfrwt>
<totfact> 0.19378256E+01</totfact>
</mgrwt>
</event>
<event>
 5    0  0.2947253E-001  0.3278948E+03  0.7546771E-02  0.1072072E+00
         21   -1    0    0  503  502  0.00000000000E+00  0.00000000000E+00  0.20189457515E+03  0.20189457515E+03  0.00000000000E+00 0. -1.
          3   -1    0    0  502    0 -0.00000000000E+00 -0.00000000000E+00 -0.65146460949E+03  0.65146460949E+03  0.00000000000E+00 0.  1.
         25    1    1    2    0    0  0.29065030429E+03  0.86095154876E+02 -0.25658724282E+02  0.32889716510E+03  0.12500000000E+03 0.  0.
         21    1    1    2  503  501 -0.22837728109E+02 -0.10144924997E+02 -0.69113131404E+02  0.73492219049E+02  0.00000000000E+00 0.  1.
          3    1    1    2  501    0 -0.26781257618E+03 -0.75950229879E+02 -0.35479817866E+03  0.45096980050E+03  0.00000000000E+00 0.  1.
<mgrwt>
<rscale>  4 0.32789476E+03</rscale>
<asrwt>0</asrwt>
<pdfrwt beam="1">  1       21 0.31060704E-01 0.32789476E+03</pdfrwt>
<pdfrwt beam="2">  1        3 0.10022533E+00 0.32789476E+03</pdfrwt>
<totfact> 0.43464392E+02</totfact>
</mgrwt>
</event>
<event>
 5    0  0.2947253E-001  0.2431618E+03  0.7546771E-02  0.1117704E+00
         21   -1    0    0  503  502  0.00000000000E+00  0.00000000000E+00  0.34621953368E+03  0.34621953368E+03  0.00000000000E+00 0. -1.
          2   -1    0    0  502    0 -0.00000000000E+00 -0.00000000000E+00 -0.97075201284E+03  0.97075201284E+03  0.00000000000E+00 0. -1.
         25    1    1    2    0    0  0.18120093819E+03 -0.11060434333E+03  0.28200409980E+03  0.37445749167E+03  0.12500000000E+03 0.  0.
         21    1    1    2  503  501 -0.83087462615E+02 -0.27359452253E+02 -0.26791057737E+03  0.28182999048E+03  0.00000000000E+00 0. -1.
          2    1    1    2  501    0 -0.98113475579E+02  0.13796379558E+03 -0.63862600160E+03  0.66068406436E+03  0.00000000000E+00 0. -1.
<mgrwt>
<rscale>  4 0.24316180E+03</rscale>
<asrwt>0</asrwt>
<pdfrwt beam="1">  1       21 0.53264543E-01 0.24316180E+03</pdfrwt>
<pdfrwt beam="2">  1        2 0.14934646E+00 0.24316180E+03</pdfrwt>
<totfact> 0.11307191E+03</totfact>
</mgrwt>
</event>
<event>
 5    0  0.2947253E-001  0.2501960E+03  0.7546771E-02  0.1113181E+00
         21   -1    0    0  501  502  0.00000000000E+00  0.00000000000E+00  0.90614148878E+02  0.90614148878E+02  0.00000000000E+00 0. -1.
         -2   -1    0    0    0  501 -0.00000000000E+00 -0.00000000000E+00 -0.96530397967E+03  0.96530397967E+03  0.00000000000E+00 0. -1.
         25    1    1    2    0    0 -0.20148076518E+03  0.63420932428E+02 -0.16595557058E+03  0.29628190092E+03  0.12500000000E+03 0.  0.
         21    1    1    2  501  501 -0.16697514043E+02 -0.41860226564E+02 -0.61269528703E+02  0.76059454972E+02  0.00000000000E+00 0. -1.
         -2    1    1    2    0  502  0.21817827922E+03 -0.21560705864E+02 -0.64746473150E+03  0.68357677265E+03  0.00000000000E+00 0. -1.
<mgrwt>
<rscale>  4 0.25019599E+03</rscale>
<asrwt>0</asrwt>
<pdfrwt beam="1">  1       21 0.13940638E-01 0.25019599E+03</pdfrwt>
<pdfrwt beam="2">  1       -2 0.14850831E+00 0.25019599E+03</pdfrwt>
<totfact> 0.11888598E+03</totfact>
</mgrwt>
</event>
<event>
 5    0  0.2947253E-001  0.2469410E+03  0.7546771E-02  0.1115253E+00
         21   -1    0    0  503  502  0.00000000000E+00  0.00000000000E+00  0.25597525195E+03  0.25597525195E+03  0.00000000000E+00 0.  1.
          2   -1    0    0  502    0 -0.00000000000E+00 -0.00000000000E+00 -0.15756305272E+04  0.15756305272E+04  0.00000000000E+00 0.  1.
         25    1    1    2    0    0 -0.14075531182E+03  0.15982119159E+03  0.18540553674E+03  0.30879618544E+03  0.12500000000E+03 0.  0.
         21    1    1    2  503  501  0.76139352513E+02 -0.12989121702E+03 -0.79061167043E+03  0.80482031702E+03  0.00000000000E+00 0.  1.
          2    1    1    2  501    0  0.64615959307E+02 -0.29929974577E+02 -0.71444914161E+03  0.71798927674E+03  0.00000000000E+00 0.  1.
<mgrwt>
<rscale>  4 0.24694103E+03</rscale>
<asrwt>0</asrwt>
<pdfrwt beam="1">  1       21 0.39380808E-01 0.24694103E+03</pdfrwt>
<pdfrwt beam="2">  1        2 0.24240469E+00 0.24694103E+03</pdfrwt>
<totfact> 0.96348729E+02</totfact>
</mgrwt>
</event>
<event>
 5    0  0.2947253E-001  0.2530611E+03  0.7546771E-02  0.1111385E+00
         21   -1    0    0  503  502  0.00000000000E+00  0.00000000000E+00  0.12287140342E+03  0.12287140342E+03  0.00000000000E+00 0.  1.
          1   -1    0    0  502    0 -0.00000000000E+00 -0.00000000000E+00 -0.95522228238E+03  0.95522228238E+03  0.00000000000E+00 0.  1.
         25    1    1    2    0    0  0.56063122945E+02 -0.27158953807E+03 -0.17150987712E+03  0.34920565416E+03  0.12500000000E+03 0.  0.
         21    1    1    2  503  501 -0.54308456294E+02  0.62765934965E+02 -0.97262972163E+02  0.12786343016E+03  0.00000000000E+00 0.  1.
          1    1    1    2  501    0 -0.17546666509E+01  0.20882360311E+03 -0.56357802968E+03  0.60102460149E+03  0.00000000000E+00 0.  1.
<mgrwt>
<rscale>  4 0.25306111E+03</rscale>
<asrwt>0</asrwt>
<pdfrwt beam="1">  1       21 0.18903292E-01 0.25306111E+03</pdfrwt>
<pdfrwt beam="2">  1        1 0.14695728E+00 0.25306111E+03</pdfrwt>
<totfact> 0.48772794E+03</totfact>
</mgrwt>
</event>
<event>
 5    0  0.2947253E-001  0.3694348E+03  0.7546771E-02  0.1054909E+00
          1   -1    0    0  502    0 -0.00000000000E+00  0.00000000000E+00  0.41670098499E+03  0.41670098499E+03  0.00000000000E+00 0. -1.
         21   -1    0    0  503  502  0.00000000000E+00 -0.00000000000E+00 -0.54471888659E+03  0.54471888659E+03  0.00000000000E+00 0. -1.
         25    1    1    2    0    0 -0.20255889857E+02 -0.28550491862E+03 -0.25306225159E+03  0.40198117221E+03  0.12500000000E+03 0.  0.
         21    1    1    2  503  501 -0.13074029852E+03 -0.58227012628E+02 -0.41069041074E+02  0.14889619468E+03  0.00000000000E+00 0.  1.
          1    1    1    2  501    0  0.15099618838E+03  0.34373193125E+03  0.16611339106E+03  0.41054250469E+03  0.00000000000E+00 0. -1.
<mgrwt>
<rscale>  4 0.36943481E+03</rscale>
<asrwt>0</asrwt>
<pdfrwt beam="1">  1       21 0.83802905E-01 0.36943481E+03</pdfrwt>
<pdfrwt beam="2">  1        1 0.64107844E-01 0.36943481E+03</pdfrwt>
<totfact> 0.72899910E+02</totfact>
</mgrwt>
</event>
<event>
 5    0  0.2947253E-001  0.2873270E+03  0.7546771E-02  0.1091753E+00
         21   -1    0    0  501  502  0.00000000000E+00  0.00000000000E+00  0.40170188777E+03  0.40170188777E+03  0.00000000000E+00 0. -1.
         -2   -1    0    0    0  501 -0.00000000000E+00 -0.00000000000E+00 -0.25979062357E+03  0.25979062357E+03  0.00000000000E+00 0.  1.
         25    1    1    2    0    0 -0.20225203771E+03 -0.16132555841E+03  0.24643532923E+03  0.37853294975E+03  0.12500000000E+03 0.  0.
         21    1    1    2  501  501  0.41880840867E+02  0.20329400802E+02 -0.33762261066E+01  0.46676420937E+02  0.00000000000E+00 0.  1.
         -2    1    1    2    0  502  0.16037119685E+03  0.14099615760E+03 -0.10114783893E+03  0.23628314065E+03  0.00000000000E+00 0.  1.
<mgrwt>
<rscale>  4 0.28732703E+03</rscale>
<asrwt>0</asrwt>
<pdfrwt beam="1">  1       21 0.61800290E-01 0.28732703E+03</pdfrwt>
<pdfrwt beam="2">  1       -2 0.39967788E-01 0.28732703E+03</pdfrwt>
<totfact> 0.11379073E+03</totfact>
</mgrwt>
</event>
<event>
 5    0  0.2947253E-001  0.2786586E+03  0.7546771E-02  0.1096424E+00
         21   -1    0    0  503  502  0.00000000000E+00  0.00000000000E+00  0.10012094094E+03  0.10012094094E+03  0.00000000000E+00 0.  1.
          1   -1    0    0  502    0 -0.00000000000E+00 -0.00000000000E+00 -0.14884732750E+04  0.14884732750E+04  0.00000000000E+00 0.  1.
         25    1    1    2    0    0 -0.20814970150E+03  0.13674548052E+03 -0.13746385387E+03  0.31072002800E+03  0.12500000000E+03 0.  0.
         21    1    1    2  503  501  0.43870215507E+02 -0.23134125731E+02 -0.12635923245E+03  0.13574402089E+03  0.00000000000E+00 0.  1.
          1    1    1    2  501    0  0.16427948599E+03 -0.11361135479E+03 -0.11245292477E+04  0.11421301670E+04  0.00000000000E+00 0.  1.
<mgrwt>
<rscale>  4 0.27865862E+03</rscale>
<asrwt>0</asrwt>
<pdfrwt beam="1">  1       21 0.15403221E-01 0.27865862E+03</pdfrwt>
<pdfrwt beam="2">  1        1 0.22899590E+00 0.27865862E+03</pdfrwt>
<totfact> 0.29832559E+03</totfact>
</mgrwt>
</event>
<event>
 5    0  0.2947253E-001  0.2760472E+03  0.7546771E-02  0.1097868E+00
          1   -1    0    0  502    0 -0.00000000000E+00  0.00000000000E+00  0.11109452042E+04  0.11109452042E+04  0.00000000000E+00 0. -1.
         21   -1    0    0  503  502  0.00000000000E+00 -0.00000000000E+00 -0.71550990263E+02  0.71550990263E+02  0.00000000000E+00 0. -1.
         25    1    1    2    0    0 -0.10992973888E+03 -0.22021012854E+03  0.33936505172E+03  0.43745935414E+03  0.12500000000E+03 0.  0.
         21    1    1    2  503  501  0.22246176771E+02  0.89049415349E+02  0.18726339503E+03  0.20854800377E+03  0.00000000000E+00 0. -1.
          1    1    1    2  501    0  0.87683562107E+02  0.13116071319E+03  0.51276576714E+03  0.53648883651E+03  0.00000000000E+00 0. -1.
<mgrwt>
<rscale>  4 0.27604718E+03</rscale>
<asrwt>0</asrwt>
<pdfrwt beam="1">  1       21 0.11007845E-01 0.27604718E+03</pdfrwt>
<pdfrwt beam="2">  1        1 0.17091463E+00 0.27604718E+03</pdfrwt>
<totfact> 0.99941485E+03</totfact>
</mgrwt>
</event>
<event>
 5    0  0.2947253E-001  0.3983955E+03  0.7546771E-02  0.1044337E+00
         21   -1    0    0  503  502  0.00000000000E+00  0.00000000000E+00  0.22031264379E+03  0.22031264379E+03  0.00000000000E+00 0.  1.
          3   -1    0    0  502    0 -0.00000000000E+00 -0.00000000000E+00 -0.71260280787E+03  0.71260280787E+03  0.00000000000E+00 0.  1.
         25    1    1    2    0    0  0.21415560212E+03 -0.31181943513E+03 -0.22575247550E+03  0.45791174067E+03  0.12500000000E+03 0.  0.
         21    1    1    2  503  501 -0.71805250879E+02  0.17524687003E+03 -0.17369495703E+03  0.25697742626E+03  0.00000000000E+00 0.  1.
          3    1    1    2  501    0 -0.14235035124E+03  0.13657256510E+03 -0.92842731540E+02  0.21802628474E+03  0.00000000000E+00 0.  1.
<mgrwt>
<rscale>  4 0.39839551E+03</rscale>
<asrwt>0</asrwt>
<pdfrwt beam="1">  1       21 0.33894254E-01 0.39839551E+03</pdfrwt>
<pdfrwt beam="2">  1        3 0.10963120E+00 0.39839551E+03</pdfrwt>
<totfact> 0.29315481E+02</totfact>
</mgrwt>
</event>
<event>
 5    0  0.2947253E-001  0.2759854E+03  0.7546771E-02  0.1097902E+00
          1   -1    0    0  502    0 -0.00000000000E+00  0.00000000000E+00  0.23973243558E+03  0.23973243558E+03  0.00000000000E+00 0.  1.
         21   -1    0    0  503  502  0.00000000000E+00 -0.00000000000E+00 -0.43600908933E+03  0.43600908933E+03  0.00000000000E+00 0.  1.
         25    1    1    2    0    0  0.16200960842E+03  0.18902112742E+03 -0.28205754917E+03  0.39643102916E+03  0.12500000000E+03 0.  0.
         21    1    1    2  503  501  0.74855122194E+01 -0.22075187412E+02 -0.63955164185E+01  0.24171251989E+02  0.00000000000E+00 0.  1.
          1    1    1    2  501    0 -0.16949512064E+03 -0.16694594001E+03  0.92176411848E+02  0.25513924376E+03  0.00000000000E+00 0.  1.
<mgrwt>
<rscale>  4 0.27598536E+03</rscale>
<asrwt>0</asrwt>
<pdfrwt beam="1">  1       21 0.67078321E-01 0.27598536E+03</pdfrwt>
<pdfrwt beam="2">  1        1 0.36881914E-01 0.27598536E+03</pdfrwt>
<totfact> 0.25100072E+03</totfact>
</mgrwt>
</event>
<event>
 5    0  0.2947253E-001  0.3972881E+03  0.7546771E-02  0.1053253E+00
         21   -1    0    0  501  502  0.00000000000E+00  0.00000000000E+00  0.62471263001E+03  0.62471263001E+03  0.00000000000E+00 0. -1.
         -3   -1    0    0    0  501 -0.00000000000E+00 -0.00000000000E+00 -0.77541575222E+03  0.77541575222E+03  0.00000000000E+00 0. -1.
         25    1    1    2    0    0  0.19761355595E+03 -0.20552173194E+03  0.52843659145E+03  0.61331927328E+03  0.12500000000E+03 0.  0.
         21    1    1    2  501  501 -0.22331528103E+03  0.17213498939E+03 -0.68819316357E+03  0.74371365437E+03  0.00000000000E+00 0. -1.
         -3    1    1    2    0  502  0.25701725077E+02  0.33386742543E+02  0.90534499090E+01  0.43095454572E+02  0.00000000000E+00 0. -1.
<mgrwt>
<rscale>  4 0.37379045E+03</rscale>
<asrwt>0</asrwt>
<pdfrwt beam="1">  1       21 0.96109636E-01 0.39728809E+03</pdfrwt>
<pdfrwt beam="2">  1       -3 0.11929473E+00 0.39728809E+03</pdfrwt>
<totfact> 0.24689220E+01</totfact>
</mgrwt>
</event>
<event>
 5    0  0.2947253E-001  0.2338036E+03  0.7546771E-02  0.1123991E+00
          4   -1    0    0  502    0 -0.00000000000E+00  0.00000000000E+00  0.55315827908E+03  0.55315827908E+03  0.00000000000E+00 0.  1.
         21   -1    0    0  503  502  0.00000000000E+00 -0.00000000000E+00 -0.28565928662E+03  0.28565928662E+03  0.00000000000E+00 0. -1.
         25    1    1    2    0    0 -0.72622548859E+02 -0.19801523339E+03 -0.18950780609E+03  0.30987461308E+03  0.12500000000E+03 0.  0.
         21    1    1    2  503  501 -0.34926745596E+02  0.10949367601E+03  0.13008217418E+03  0.17358028311E+03  0.00000000000E+00 0. -1.
          4    1    1    2  501    0  0.10754929446E+03  0.88521557387E+02  0.32692462438E+03  0.35536266952E+03  0.00000000000E+00 0.  1.
<mgrwt>
<rscale>  4 0.23380359E+03</rscale>
<asrwt>0</asrwt>
<pdfrwt beam="1">  1       21 0.43947583E-01 0.23380359E+03</pdfrwt>
<pdfrwt beam="2">  1        4 0.85101274E-01 0.23380359E+03</pdfrwt>
<totfact> 0.25738792E+02</totfact>
</mgrwt>
</event>
<event>
 5    0  0.3050299E-001  0.3687396E+03  0.7546771E-02  0.1055176E+00
          2   -1    0    0  502    0 -0.00000000000E+00  0.00000000000E+00  0.49065776930E+03  0.49065776930E+03  0.00000000000E+00 0. -1.
         21   -1    0    0  503  502  0.00000000000E+00 -0.00000000000E+00 -0.32854689298E+03  0.32854689298E+03  0.00000000000E+00 0.  1.
         25    1    1    2    0    0 -0.34684633596E+03 -0.64453750437E+01 -0.98214932296E+02  0.38159546192E+03  0.12500000000E+03 0.  0.
         21    1    1    2  503  501  0.15717129957E+02  0.12608716415E+02  0.10213906362E+02  0.22590524272E+02  0.00000000000E+00 0. -1.
          2    1    1    2  501    0  0.33112920601E+03 -0.61633413711E+01  0.25011190226E+03  0.41501867608E+03  0.00000000000E+00 0. -1.
<mgrwt>
<rscale>  4 0.36873964E+03</rscale>
<asrwt>0</asrwt>
<pdfrwt beam="1">  1       21 0.50545676E-01 0.36873964E+03</pdfrwt>
<pdfrwt beam="2">  1        2 0.75485811E-01 0.36873964E+03</pdfrwt>
<totfact> 0.28153401E+03</totfact>
</mgrwt>
</event>
<event>
 5    0  0.2947253E-001  0.2106976E+03  0.7546771E-02  0.1141015E+00
         -1   -1    0    0    0  501 -0.00000000000E+00  0.00000000000E+00  0.89119370540E+03  0.89119370540E+03  0.00000000000E+00 0. -1.
         21   -1    0    0  501  502  0.00000000000E+00 -0.00000000000E+00 -0.80608253092E+02  0.80608253092E+02  0.00000000000E+00 0. -1.
         25    1    1    2    0    0 -0.29528005479E+02 -0.22700185882E+03  0.34262867088E+03  0.43060556560E+03  0.12500000000E+03 0.  0.
         21    1    1    2  501  501 -0.58288225840E+02  0.11545031421E+03  0.24052344493E+03  0.27308939907E+03  0.00000000000E+00 0. -1.
         -1    1    1    2    0  502  0.87816231320E+02  0.11155154461E+03  0.22743333650E+03  0.26810699383E+03  0.00000000000E+00 0. -1.
<mgrwt>
<rscale>  4 0.21069763E+03</rscale>
<asrwt>0</asrwt>
<pdfrwt beam="1">  1       21 0.12401270E-01 0.21069763E+03</pdfrwt>
<pdfrwt beam="2">  1       -1 0.13710672E+00 0.21069763E+03</pdfrwt>
<totfact> 0.24790826E+03</totfact>
</mgrwt>
</event>
<event>
 5    0  0.2947253E-001  0.2630485E+03  0.7546771E-02  0.1105325E+00
          2   -1    0    0  502    0 -0.00000000000E+00  0.00000000000E+00  0.15458352908E+04  0.15458352908E+04  0.00000000000E+00 0.  1.
         21   -1    0    0  503  502  0.00000000000E+00 -0.00000000000E+00 -0.26354059427E+03  0.26354059427E+03  0.00000000000E+00 0. -1.
         25    1    1    2    0    0  0.13291571987E+03 -0.18948073434E+03 -0.18599611080E+03  0.32216314269E+03  0.12500000000E+03 0.  0.
         21    1    1    2  503  501 -0.10215289420E+03  0.12148935031E+03  0.87914814726E+03  0.89336237937E+03  0.00000000000E+00 0.  1.
          2    1    1    2  501    0 -0.30762825669E+02  0.67991384035E+02  0.58914266006E+03  0.59385036301E+03  0.00000000000E+00 0.  1.
<mgrwt>
<rscale>  4 0.26304855E+03</rscale>
<asrwt>0</asrwt>
<pdfrwt beam="1">  1       21 0.40544708E-01 0.26304855E+03</pdfrwt>
<pdfrwt beam="2">  1        2 0.23782081E+00 0.26304855E+03</pdfrwt>
<totfact> 0.93405263E+02</totfact>
</mgrwt>
</event>
<event>
 5    0  0.2947253E-001  0.2409503E+03  0.7546771E-02  0.1119161E+00
          4   -1    0    0  502    0 -0.00000000000E+00  0.00000000000E+00  0.23374309011E+03  0.23374309011E+03  0.00000000000E+00 0.  1.
         21   -1    0    0  503  502  0.00000000000E+00 -0.00000000000E+00 -0.75949860925E+03  0.75949860925E+03  0.00000000000E+00 0.  1.
         25    1    1    2    0    0  0.27872558496E+02 -0.22270263852E+03 -0.65404926921E+03  0.70269395278E+03  0.12500000000E+03 0.  0.
         21    1    1    2  503  501  0.48872758787E+02  0.10118153143E+03  0.83528153165E+02  0.14001143248E+03  0.00000000000E+00 0.  1.
          4    1    1    2  501    0 -0.76745317283E+02  0.12152110709E+03  0.44765596908E+02  0.15053631409E+03  0.00000000000E+00 0.  1.
<mgrwt>
<rscale>  4 0.24095028E+03</rscale>
<asrwt>0</asrwt>
<pdfrwt beam="1">  1       21 0.11684594E+00 0.24095028E+03</pdfrwt>
<pdfrwt beam="2">  1        4 0.35960475E-01 0.24095028E+03</pdfrwt>
<totfact> 0.17575189E+02</totfact>
</mgrwt>
</event>
<event>
 5    0  0.2947253E-001  0.3727180E+03  0.7546771E-02  0.1053659E+00
          3   -1    0    0  502    0 -0.00000000000E+00  0.00000000000E+00  0.40266310511E+03  0.40266310511E+03  0.00000000000E+00 0.  1.
         21   -1    0    0  503  502  0.00000000000E+00 -0.00000000000E+00 -0.57592004471E+03  0.57592004471E+03  0.00000000000E+00 0.  1.
         25    1    1    2    0    0  0.25495535042E+03 -0.24143632358E+03 -0.40757333436E+03  0.55229951288E+03  0.12500000000E+03 0.  0.
         21    1    1    2  503  501 -0.29985033230E+02  0.32471801847E+02  0.81785574209E+01  0.44948959214E+02  0.00000000000E+00 0. -1.
          3    1    1    2  501    0 -0.22497031719E+03  0.20896452173E+03  0.22613783734E+03  0.38133467772E+03  0.00000000000E+00 0.  1.
<mgrwt>
<rscale>  4 0.37271803E+03</rscale>
<asrwt>0</asrwt>
<pdfrwt beam="1">  1       21 0.88603084E-01 0.37271803E+03</pdfrwt>
<pdfrwt beam="2">  1        3 0.61948170E-01 0.37271803E+03</pdfrwt>
<totfact> 0.13197214E+02</totfact>
</mgrwt>
</event>
<event>
 5    0  0.2947253E-001  0.3113919E+03  0.7546771E-02  0.1079681E+00
         -3   -1    0    0    0  501 -0.00000000000E+00  0.00000000000E+00  0.43560690986E+03  0.43560690986E+03  0.00000000000E+00 0.  1.
         21   -1    0    0  501  502  0.00000000000E+00 -0.00000000000E+00 -0.35583877737E+03  0.35583877737E+03  0.00000000000E+00 0.  1.
         25    1    1    2    0    0  0.65386220025E+00 -0.32883767553E+03 -0.24055093455E+01  0.35180311377E+03  0.12500000000E+03 0.  0.
         21    1    1    2  501  501  0.99145723226E+02  0.83585704272E+02  0.11437623900E+03  0.17291144681E+03  0.00000000000E+00 0.  1.
         -3    1    1    2    0  502 -0.99799585426E+02  0.24525197126E+03 -0.32202597156E+02  0.26673112665E+03  0.00000000000E+00 0.  1.
<mgrwt>
<rscale>  4 0.31139191E+03</rscale>
<asrwt>0</asrwt>
<pdfrwt beam="1">  1       21 0.54744427E-01 0.31139191E+03</pdfrwt>
<pdfrwt beam="2">  1       -3 0.67016448E-01 0.31139191E+03</pdfrwt>
<totfact> 0.33163158E+02</totfact>
</mgrwt>
</event>
<event>
 5    0  0.2947253E-001  0.3112426E+03  0.7546771E-02  0.1079752E+00
         21   -1    0    0  503  502  0.00000000000E+00  0.00000000000E+00  0.23416152589E+03  0.23416152589E+03  0.00000000000E+00 0. -1.
          2   -1    0    0  502    0 -0.00000000000E+00 -0.00000000000E+00 -0.57307771319E+03  0.57307771319E+03  0.00000000000E+00 0. -1.
         25    1    1    2    0    0 -0.27590388979E+03  0.71582018915E+02  0.55366026118E+02  0.31612867425E+03  0.12500000000E+03 0.  0.
         21    1    1    2  503  501  0.14413151913E+03 -0.46574325745E+02 -0.26257507145E+03  0.30313154038E+03  0.00000000000E+00 0.  1.
          2    1    1    2  501    0  0.13177237066E+03 -0.25007693170E+02 -0.13170714196E+03  0.18797902444E+03  0.00000000000E+00 0. -1.
<mgrwt>
<rscale>  4 0.31124258E+03</rscale>
<asrwt>0</asrwt>
<pdfrwt beam="1">  1       21 0.36024850E-01 0.31124258E+03</pdfrwt>
<pdfrwt beam="2">  1        2 0.88165801E-01 0.31124258E+03</pdfrwt>
<totfact> 0.48050300E+03</totfact>
</mgrwt>
</event>
<event>
 5    0  0.2947253E-001  0.3676610E+03  0.7546771E-02  0.1055591E+00
          2   -1    0    0  502    0 -0.00000000000E+00  0.00000000000E+00  0.47456929317E+03  0.47456929317E+03  0.00000000000E+00 0.  1.
         21   -1    0    0  503  502  0.00000000000E+00 -0.00000000000E+00 -0.77234060686E+03  0.77234060686E+03  0.00000000000E+00 0. -1.
         25    1    1    2    0    0 -0.22447020896E+02 -0.35130369288E+03 -0.62912325378E+03  0.73166879244E+03  0.12500000000E+03 0.  0.
         21    1    1    2  503  501  0.58186139592E+02  0.49019665009E+02  0.17585130413E+02  0.78088355149E+02  0.00000000000E+00 0.  1.
          2    1    1    2  501    0 -0.35739118696E+02  0.30228402787E+03  0.31376680968E+03  0.43715275244E+03  0.00000000000E+00 0.  1.
<mgrwt>
<rscale>  4 0.36766103E+03</rscale>
<asrwt>0</asrwt>
<pdfrwt beam="1">  1       21 0.11882163E+00 0.36766103E+03</pdfrwt>
<pdfrwt beam="2">  1        2 0.73010661E-01 0.36766103E+03</pdfrwt>
<totfact> 0.41077801E+02</totfact>
</mgrwt>
</event>
<event>
 5    0  0.2947253E-001  0.2554448E+03  0.7546771E-02  0.1109911E+00
         21   -1    0    0  503  502  0.00000000000E+00  0.00000000000E+00  0.16384737494E+03  0.16384737494E+03  0.00000000000E+00 0.  1.
          1   -1    0    0  502    0 -0.00000000000E+00 -0.00000000000E+00 -0.17498105268E+04  0.17498105268E+04  0.00000000000E+00 0.  1.
         25    1    1    2    0    0 -0.19590895532E+03 -0.10886840615E+03  0.38192770323E+02  0.25945391949E+03  0.12500000000E+03 0.  0.
         21    1    1    2  503  501  0.14595530096E+03  0.16860541169E+03 -0.96329164368E+03  0.98876768025E+03  0.00000000000E+00 0.  1.
          1    1    1    2  501    0  0.49953654362E+02 -0.59737005543E+02 -0.66086427850E+03  0.66543630199E+03  0.00000000000E+00 0.  1.
<mgrwt>
<rscale>  4 0.25544481E+03</rscale>
<asrwt>0</asrwt>
<pdfrwt beam="1">  1       21 0.25207289E-01 0.25544481E+03</pdfrwt>
<pdfrwt beam="2">  1        1 0.26920161E+00 0.25544481E+03</pdfrwt>
<totfact> 0.80382299E+02</totfact>
</mgrwt>
</event>
<event>
 5    0  0.2947253E-001  0.2748785E+03  0.7546771E-02  0.1098520E+00
          3   -1    0    0  502    0 -0.00000000000E+00  0.00000000000E+00  0.80258827735E+03  0.80258827735E+03  0.00000000000E+00 0. -1.
         21   -1    0    0  503  502  0.00000000000E+00 -0.00000000000E+00 -0.19879308003E+03  0.19879308003E+03  0.00000000000E+00 0. -1.
         25    1    1    2    0    0 -0.16488248660E+03  0.18096121933E+03 -0.67864324209E+02  0.28313206069E+03  0.12500000000E+03 0.  0.
         21    1    1    2  503  501  0.18065542273E+02 -0.51582973681E+02  0.99102568813E+02  0.11317458256E+03  0.00000000000E+00 0. -1.
          3    1    1    2  501    0  0.14681694432E+03 -0.12937824565E+03  0.57255695271E+03  0.60507471413E+03  0.00000000000E+00 0. -1.
<mgrwt>
<rscale>  4 0.27487851E+03</rscale>
<asrwt>0</asrwt>
<pdfrwt beam="1">  1       21 0.30583551E-01 0.27487851E+03</pdfrwt>
<pdfrwt beam="2">  1        3 0.12347512E+00 0.27487851E+03</pdfrwt>
<totfact> 0.27623197E+02</totfact>
</mgrwt>
</event>
<event>
 5    0  0.2947253E-001  0.2500334E+03  0.7546771E-02  0.1113284E+00
         -3   -1    0    0    0  501 -0.00000000000E+00  0.00000000000E+00  0.15891554240E+03  0.15891554240E+03  0.00000000000E+00 0. -1.
         21   -1    0    0  501  502  0.00000000000E+00 -0.00000000000E+00 -0.49719830472E+03  0.49719830472E+03  0.00000000000E+00 0. -1.
         25    1    1    2    0    0 -0.26086249801E+02 -0.23587218746E+03 -0.25622911762E+03  0.37093738281E+03  0.12500000000E+03 0.  0.
         21    1    1    2  501  501 -0.10545086695E+02  0.42677643892E+02  0.35127334855E+02  0.56271749534E+02  0.00000000000E+00 0.  1.
         -3    1    1    2    0  502  0.36631336495E+02  0.19319454357E+03 -0.11718097955E+03  0.22890471478E+03  0.00000000000E+00 0. -1.
<mgrwt>
<rscale>  4 0.25003340E+03</rscale>
<asrwt>0</asrwt>
<pdfrwt beam="1">  1       21 0.76492047E-01 0.25003340E+03</pdfrwt>
<pdfrwt beam="2">  1       -3 0.24448545E-01 0.25003340E+03</pdfrwt>
<totfact> 0.11650627E+03</totfact>
</mgrwt>
</event>
<event>
 5    0  0.2947253E-001  0.3402101E+03  0.7546771E-02  0.1067059E+00
          2   -1    0    0  502    0 -0.00000000000E+00  0.00000000000E+00  0.94040487758E+03  0.94040487758E+03  0.00000000000E+00 0.  1.
         21   -1    0    0  503  502  0.00000000000E+00 -0.00000000000E+00 -0.12960293538E+03  0.12960293538E+03  0.00000000000E+00 0.  1.
         25    1    1    2    0    0 -0.31285945831E+03  0.18923776438E+01  0.27300889184E+03  0.43363980072E+03  0.12500000000E+03 0.  0.
         21    1    1    2  503  501  0.15873940284E+03  0.64593780821E+02  0.24751709403E+03  0.30105691550E+03  0.00000000000E+00 0.  1.
          2    1    1    2  501    0  0.15412005547E+03 -0.66486158465E+02  0.29027595633E+03  0.33531109673E+03  0.00000000000E+00 0.  1.
<mgrwt>
<rscale>  4 0.33938250E+03</rscale>
<asrwt>0</asrwt>
<pdfrwt beam="1">  1       21 0.19938914E-01 0.34021006E+03</pdfrwt>
<pdfrwt beam="2">  1        2 0.14467767E+00 0.34021006E+03</pdfrwt>
<totfact> 0.81236604E+03</totfact>
</mgrwt>
</event>
<event>
 5    0  0.2947253E-001  0.2548282E+03  0.7546771E-02  0.1110291E+00
          2   -1    0    0  502    0 -0.00000000000E+00  0.00000000000E+00  0.74052743562E+03  0.74052743562E+03  0.00000000000E+00 0. -1.
         21   -1    0    0  503  502  0.00000000000E+00 -0.00000000000E+00 -0.11242782562E+03  0.11242782562E+03  0.00000000000E+00 0. -1.
         25    1    1    2    0    0 -0.18287172114E+03  0.17867215853E+03  0.24000324426E+03  0.37227995364E+03  0.12500000000E+03 0.  0.
         21    1    1    2  503  501  0.10800260035E+03 -0.16440831985E+03  0.21425532931E+03  0.29086079739E+03  0.00000000000E+00 0. -1.
          2    1    1    2  501    0  0.74869120787E+02 -0.14263838674E+02  0.17384103643E+03  0.18981451021E+03  0.00000000000E+00 0. -1.
<mgrwt>
<rscale>  4 0.25482817E+03</rscale>
<asrwt>0</asrwt>
<pdfrwt beam="1">  1       21 0.17296589E-01 0.25482817E+03</pdfrwt>
<pdfrwt beam="2">  1        2 0.11392729E+00 0.25482817E+03</pdfrwt>
<totfact> 0.14732490E+04</totfact>
</mgrwt>
</event>
<event>
 5    0  0.2947253E-001  0.4034280E+03  0.7546771E-02  0.1042913E+00
         21   -1    0    0  503  502  0.00000000000E+00  0.00000000000E+00  0.73683337553E+02  0.73683337553E+02  0.00000000000E+00 0. -1.
          1   -1    0    0  502    0 -0.00000000000E+00 -0.00000000000E+00 -0.25792663667E+04  0.25792663667E+04  0.00000000000E+00 0.  1.
         25    1    1    2    0    0 -0.63579980498E+02  0.37437777644E+03 -0.73193854023E+03  0.83400249405E+03  0.12500000000E+03 0.  0.
         21    1    1    2  503  501  0.55643254455E+02 -0.99328469274E+02 -0.32407031574E+03  0.34348782528E+03  0.00000000000E+00 0.  1.
          1    1    1    2  501    0  0.79367260426E+01 -0.27504930717E+03 -0.14495741732E+04  0.14754593849E+04  0.00000000000E+00 0.  1.
<mgrwt>
<rscale>  4 0.40251357E+03</rscale>
<asrwt>0</asrwt>
<pdfrwt beam="1">  1       21 0.11335901E-01 0.40342804E+03</pdfrwt>
<pdfrwt beam="2">  1        1 0.39681011E+00 0.40342804E+03</pdfrwt>
<totfact> 0.95429051E+02</totfact>
</mgrwt>
</event>
<event>
 5    0  0.2947253E-001  0.2830592E+03  0.7546771E-02  0.1094030E+00
          2   -1    0    0  502    0 -0.00000000000E+00  0.00000000000E+00  0.33235538114E+04  0.33235538114E+04  0.00000000000E+00 0.  1.
         21   -1    0    0  503  502  0.00000000000E+00 -0.00000000000E+00 -0.15551796952E+03  0.15551796952E+03  0.00000000000E+00 0.  1.
         25    1    1    2    0    0 -0.24600461854E+03  0.91306324799E+00  0.11715915071E+02  0.27619081935E+03  0.12500000000E+03 0.  0.
         21    1    1    2  503  501  0.31383979710E+03 -0.14358746716E+01  0.10605287103E+04  0.11059921452E+04  0.00000000000E+00 0.  1.
          2    1    1    2  501    0 -0.67835178558E+02  0.52281142365E+00  0.20957912166E+04  0.20968888164E+04  0.00000000000E+00 0.  1.
<mgrwt>
<rscale>  4 0.28305922E+03</rscale>
<asrwt>0</asrwt>
<pdfrwt beam="1">  1       21 0.23925844E-01 0.28305922E+03</pdfrwt>
<pdfrwt beam="2">  1        2 0.51131592E+00 0.28305922E+03</pdfrwt>
<totfact> 0.26776057E+02</totfact>
</mgrwt>
</event>
<event>
 5    0  0.2947253E-001  0.3211414E+03  0.7546771E-02  0.1075125E+00
          1   -1    0    0  502    0 -0.00000000000E+00  0.00000000000E+00  0.36353201319E+03  0.36353201319E+03  0.00000000000E+00 0.  1.
         21   -1    0    0  503  502  0.00000000000E+00 -0.00000000000E+00 -0.54568083863E+03  0.54568083863E+03  0.00000000000E+00 0.  1.
         25    1    1    2    0    0  0.13009165734E+03  0.26772347645E+03 -0.40407482628E+03  0.51720514729E+03  0.12500000000E+03 0.  0.
         21    1    1    2  503  501  0.23419772729E+02 -0.23353897257E+02  0.35088661886E+02  0.48219337042E+02  0.00000000000E+00 0.  1.
          1    1    1    2  501    0 -0.15351143007E+03 -0.24436957919E+03  0.18683733896E+03  0.34378836749E+03  0.00000000000E+00 0.  1.
<mgrwt>
<rscale>  4 0.32114138E+03</rscale>
<asrwt>0</asrwt>
<pdfrwt beam="1">  1       21 0.83950898E-01 0.32114138E+03</pdfrwt>
<pdfrwt beam="2">  1        1 0.55928002E-01 0.32114138E+03</pdfrwt>
<totfact> 0.87931813E+02</totfact>
</mgrwt>
</event>
<event>
 5    0  0.2947253E-001  0.2485499E+03  0.7546771E-02  0.1114225E+00
          2   -1    0    0  502    0 -0.00000000000E+00  0.00000000000E+00  0.14463680991E+04  0.14463680991E+04  0.00000000000E+00 0. -1.
         21   -1    0    0  503  502  0.00000000000E+00 -0.00000000000E+00 -0.22450421935E+03  0.22450421935E+03  0.00000000000E+00 0.  1.
         25    1    1    2    0    0 -0.17646989392E+03  0.17815342220E+03 -0.10422278877E+03  0.29894423393E+03  0.12500000000E+03 0.  0.
         21    1    1    2  503  501  0.32521986490E+02 -0.20741739139E+02  0.11646970264E+02  0.40293315377E+02  0.00000000000E+00 0.  1.
          2    1    1    2  501    0  0.14394790743E+03 -0.15741168306E+03  0.13144396983E+04  0.13316347692E+04  0.00000000000E+00 0. -1.
<mgrwt>
<rscale>  4 0.24854986E+03</rscale>
<asrwt>0</asrwt>
<pdfrwt beam="1">  1       21 0.34539112E-01 0.24854986E+03</pdfrwt>
<pdfrwt beam="2">  1        2 0.22251816E+00 0.24854986E+03</pdfrwt>
<totfact> 0.14690434E+03</totfact>
</mgrwt>
</event>
<event>
 5    0  0.2947253E-001  0.2562036E+03  0.7546771E-02  0.1109446E+00
          2   -1    0    0  502    0 -0.00000000000E+00  0.00000000000E+00  0.19349194825E+04  0.19349194825E+04  0.00000000000E+00 0.  1.
         21   -1    0    0  503  502  0.00000000000E+00 -0.00000000000E+00 -0.34168087206E+02  0.34168087206E+02  0.00000000000E+00 0.  1.
         25    1    1    2    0    0 -0.17600897633E+03  0.15513340349E+03  0.10634513112E+04  0.10961748145E+04  0.12500000000E+03 0.  0.
         21    1    1    2  503  501  0.12204889417E+02 -0.16876743975E+02  0.23706596848E+02  0.31556085736E+02  0.00000000000E+00 0.  1.
          2    1    1    2  501    0  0.16380408691E+03 -0.13825665952E+03  0.81359348730E+03  0.84135666953E+03  0.00000000000E+00 0.  1.
<mgrwt>
<rscale>  4 0.25620364E+03</rscale>
<asrwt>0</asrwt>
<pdfrwt beam="1">  1       21 0.52566303E-02 0.25620364E+03</pdfrwt>
<pdfrwt beam="2">  1        2 0.29767983E+00 0.25620364E+03</pdfrwt>
<totfact> 0.25272746E+04</totfact>
</mgrwt>
</event>
<event>
 5    0  0.2947253E-001  0.3665973E+03  0.7546771E-02  0.1056002E+00
         21   -1    0    0  503  502  0.00000000000E+00  0.00000000000E+00  0.14633786769E+04  0.14633786769E+04  0.00000000000E+00 0.  1.
          1   -1    0    0  502    0 -0.00000000000E+00 -0.00000000000E+00 -0.93234059126E+02  0.93234059126E+02  0.00000000000E+00 0.  1.
         25    1    1    2    0    0 -0.30386659471E+03  0.16258428241E+03  0.55381328677E+03  0.66415563904E+03  0.12500000000E+03 0.  0.
         21    1    1    2  503  501  0.71034089929E+02 -0.17936526065E+02  0.28898292691E+03  0.29812529739E+03  0.00000000000E+00 0. -1.
          1    1    1    2  501    0  0.23283250478E+03 -0.14464775635E+03  0.52734840408E+03  0.59433179957E+03  0.00000000000E+00 0.  1.
<mgrwt>
<rscale>  4 0.36659727E+03</rscale>
<asrwt>0</asrwt>
<pdfrwt beam="1">  1       21 0.22513516E+00 0.36659727E+03</pdfrwt>
<pdfrwt beam="2">  1        1 0.14343702E-01 0.36659727E+03</pdfrwt>
<totfact> 0.35850254E+02</totfact>
</mgrwt>
</event>
<event>
 5    0  0.2947253E-001  0.3506867E+03  0.7546771E-02  0.1063613E+00
         21   -1    0    0  503  502  0.00000000000E+00  0.00000000000E+00  0.52979043107E+03  0.52979043107E+03  0.00000000000E+00 0.  1.
          2   -1    0    0  502    0 -0.00000000000E+00 -0.00000000000E+00 -0.10829008956E+04  0.10829008956E+04  0.00000000000E+00 0.  1.
         25    1    1    2    0    0 -0.43924490781E+02 -0.31141162703E+03  0.44252576363E+03  0.55710018293E+03  0.12500000000E+03 0.  0.
         21    1    1    2  503  501  0.21505323228E+02  0.16738856947E+03 -0.76004288563E+03  0.77855417289E+03  0.00000000000E+00 0.  1.
          2    1    1    2  501    0  0.22419167553E+02  0.14402305755E+03 -0.23559334251E+03  0.27703697084E+03  0.00000000000E+00 0.  1.
<mgrwt>
<rscale>  4 0.34758028E+03</rscale>
<asrwt>0</asrwt>
<pdfrwt beam="1">  1       21 0.81506221E-01 0.35068670E+03</pdfrwt>
<pdfrwt beam="2">  1        2 0.16660014E+00 0.35068670E+03</pdfrwt>
<totfact> 0.36059483E+02</totfact>
</mgrwt>
</event>
<event>
 5    0  0.2947253E-001  0.2134075E+03  0.7546771E-02  0.1138896E+00
          2   -1    0    0  502    0 -0.00000000000E+00  0.00000000000E+00  0.20238872997E+03  0.20238872997E+03  0.00000000000E+00 0.  1.
         21   -1    0    0  503  502  0.00000000000E+00 -0.00000000000E+00 -0.45757487857E+03  0.45757487857E+03  0.00000000000E+00 0. -1.
         25    1    1    2    0    0 -0.11238082915E+03 -0.18091017716E+03 -0.31662642132E+03  0.40154107342E+03  0.12500000000E+03 0.  0.
         21    1    1    2  503  501  0.29447238023E+02  0.35093524129E+02 -0.41324952705E+02  0.61696409775E+02  0.00000000000E+00 0. -1.
          2    1    1    2  501    0  0.82933591129E+02  0.14581665303E+03  0.10276522543E+03  0.19672612535E+03  0.00000000000E+00 0.  1.
<mgrwt>
<rscale>  4 0.21340752E+03</rscale>
<asrwt>0</asrwt>
<pdfrwt beam="1">  1       21 0.70396134E-01 0.21340752E+03</pdfrwt>
<pdfrwt beam="2">  1        2 0.31136728E-01 0.21340752E+03</pdfrwt>
<totfact> 0.37680835E+03</totfact>
</mgrwt>
</event>
<event>
 5    0  0.2947253E-001  0.2464444E+03  0.7546771E-02  0.1115573E+00
          2   -1    0    0  502    0 -0.00000000000E+00  0.00000000000E+00  0.43739618299E+03  0.43739618299E+03  0.00000000000E+00 0.  1.
         21   -1    0    0  503  502  0.00000000000E+00 -0.00000000000E+00 -0.20563162449E+03  0.20563162449E+03  0.00000000000E+00 0.  1.
         25    1    1    2    0    0  0.23094410770E+03 -0.90114594014E+02  0.47846252475E+02  0.28172696855E+03  0.12500000000E+03 0.  0.
         21    1    1    2  503  501 -0.40147525014E+02  0.79957401017E+02  0.13854022715E+03  0.16491938722E+03  0.00000000000E+00 0.  1.
          2    1    1    2  501    0 -0.19079658268E+03  0.10157192997E+02  0.45378078870E+02  0.19638145171E+03  0.00000000000E+00 0.  1.
<mgrwt>
<rscale>  4 0.24644439E+03</rscale>
<asrwt>0</asrwt>
<pdfrwt beam="1">  1       21 0.31635635E-01 0.24644439E+03</pdfrwt>
<pdfrwt beam="2">  1        2 0.67291720E-01 0.24644439E+03</pdfrwt>
<totfact> 0.85655259E+03</totfact>
</mgrwt>
</event>
<event>
 5    0  0.2947253E-001  0.2456489E+03  0.7546771E-02  0.1116086E+00
         21   -1    0    0  503  502  0.00000000000E+00  0.00000000000E+00  0.25063264395E+03  0.25063264395E+03  0.00000000000E+00 0. -1.
          2   -1    0    0  502    0 -0.00000000000E+00 -0.00000000000E+00 -0.53510293999E+03  0.53510293999E+03  0.00000000000E+00 0. -1.
         25    1    1    2    0    0 -0.19280577721E+03 -0.71315585106E+02  0.13580078111E+03  0.27627311225E+03  0.12500000000E+03 0.  0.
         21    1    1    2  503  501  0.23528892450E+03  0.65290667082E+02 -0.34234779929E+03  0.42050655747E+03  0.00000000000E+00 0. -1.
          2    1    1    2  501    0 -0.42483147291E+02  0.60249180234E+01 -0.77923277859E+02  0.88955914212E+02  0.00000000000E+00 0. -1.
<mgrwt>
<rscale>  4 0.24564886E+03</rscale>
<asrwt>0</asrwt>
<pdfrwt beam="1">  1       21 0.38558869E-01 0.24564886E+03</pdfrwt>
<pdfrwt beam="2">  1        2 0.82323527E-01 0.24564886E+03</pdfrwt>
<totfact> 0.46077212E+03</totfact>
</mgrwt>
</event>
<event>
 5    0  0.2947253E-001  0.2660469E+03  0.7546771E-02  0.1103564E+00
         21   -1    0    0  503  502  0.00000000000E+00  0.00000000000E+00  0.45455859624E+03  0.45455859624E+03  0.00000000000E+00 0.  1.
          2   -1    0    0  502    0 -0.00000000000E+00 -0.00000000000E+00 -0.27676879292E+03  0.27676879292E+03  0.00000000000E+00 0.  1.
         25    1    1    2    0    0  0.93824226479E+02 -0.21529735873E+03  0.34859539750E+03  0.43851988474E+03  0.12500000000E+03 0.  0.
         21    1    1    2  503  501 -0.67578015892E+02  0.18227358634E+03 -0.12827615996E+03  0.23290603625E+03  0.00000000000E+00 0.  1.
          2    1    1    2  501    0 -0.26246210587E+02  0.33023772393E+02 -0.42529434222E+02  0.59901468166E+02  0.00000000000E+00 0.  1.
<mgrwt>
<rscale>  4 0.26604687E+03</rscale>
<asrwt>0</asrwt>
<pdfrwt beam="1">  1       21 0.69932092E-01 0.26604687E+03</pdfrwt>
<pdfrwt beam="2">  1        2 0.42579814E-01 0.26604687E+03</pdfrwt>
<totfact> 0.26772613E+03</totfact>
</mgrwt>
</event>
<event>
 5    0  0.2947253E-001  0.3523994E+03  0.7546771E-02  0.1061635E+00
         21   -1    0    0  503  502  0.00000000000E+00  0.00000000000E+00  0.25639100383E+03  0.25639100383E+03  0.00000000000E+00 0. -1.
          2   -1    0    0  502    0 -0.00000000000E+00 -0.00000000000E+00 -0.10650787690E+04  0.10650787690E+04  0.00000000000E+00 0. -1.
         25    1    1    2    0    0  0.85828776209E+02 -0.32360655496E+03  0.79479626434E+02  0.36610079521E+03  0.12500000000E+03 0.  0.
         21    1    1    2  503  501 -0.65211724943E+02  0.29615045685E+03 -0.68223376993E+03  0.74659264595E+03  0.00000000000E+00 0. -1.
          2    1    1    2  501    0 -0.20617051266E+02  0.27456098107E+02 -0.20593362169E+03  0.20877633168E+03  0.00000000000E+00 0. -1.
<mgrwt>
<rscale>  4 0.35239939E+03</rscale>
<asrwt>0</asrwt>
<pdfrwt beam="1">  1       21 0.39444769E-01 0.35239939E+03</pdfrwt>
<pdfrwt beam="2">  1        2 0.16385827E+00 0.35239939E+03</pdfrwt>
<totfact> 0.17765367E+03</totfact>
</mgrwt>
</event>
<event>
 5    0  0.2947253E-001  0.3874399E+03  0.7546771E-02  0.1050705E+00
         -4   -1    0    0    0  501 -0.00000000000E+00  0.00000000000E+00  0.43136886522E+03  0.43136886522E+03  0.00000000000E+00 0.  1.
         21   -1    0    0  501  502  0.00000000000E+00 -0.00000000000E+00 -0.34654392191E+03  0.34654392191E+03  0.00000000000E+00 0.  1.
         25    1    1    2    0    0 -0.31160906197E+03  0.13230842525E+03  0.13896878516E+03  0.38670796493E+03  0.12500000000E+03 0.  0.
         21    1    1    2  501  501  0.14267672360E+03 -0.15182091509E+03 -0.71492475748E+02  0.22026668337E+03  0.00000000000E+00 0. -1.
         -4    1    1    2    0  502  0.16893233837E+03  0.19512489835E+02  0.17348633892E+02  0.17093813882E+03  0.00000000000E+00 0.  1.
<mgrwt>
<rscale>  4 0.38062076E+03</rscale>
<asrwt>0</asrwt>
<pdfrwt beam="1">  1       21 0.53314450E-01 0.38743988E+03</pdfrwt>
<pdfrwt beam="2">  1       -4 0.66364441E-01 0.38743988E+03</pdfrwt>
<totfact> 0.29312766E+02</totfact>
</mgrwt>
</event>
<event>
 5    0  0.2947253E-001  0.2400996E+03  0.7546771E-02  0.1119727E+00
         -3   -1    0    0    0  501 -0.00000000000E+00  0.00000000000E+00  0.22956166130E+04  0.22956166130E+04  0.00000000000E+00 0. -1.
         21   -1    0    0  501  502  0.00000000000E+00 -0.00000000000E+00 -0.29386556659E+02  0.29386556659E+02  0.00000000000E+00 0.  1.
         25    1    1    2    0    0  0.14297047446E+03  0.14690897836E+03  0.62550164206E+03  0.67000008113E+03  0.12500000000E+03 0.  0.
         21    1    1    2  501  501 -0.17521498178E+02 -0.62036020282E+02  0.56455988768E+03  0.56822824419E+03  0.00000000000E+00 0. -1.
         -3    1    1    2    0  502 -0.12544897629E+03 -0.84872958075E+02  0.10761685266E+04  0.10867748443E+04  0.00000000000E+00 0. -1.
<mgrwt>
<rscale>  4 0.24009957E+03</rscale>
<asrwt>0</asrwt>
<pdfrwt beam="1">  1       21 0.45210105E-02 0.24009957E+03</pdfrwt>
<pdfrwt beam="2">  1       -3 0.35317165E+00 0.24009957E+03</pdfrwt>
<totfact> 0.36280525E+02</totfact>
</mgrwt>
</event>
<event>
 5    0  0.2947253E-001  0.4407448E+03  0.7546771E-02  0.1030519E+00
          2   -1    0    0  502    0 -0.00000000000E+00  0.00000000000E+00  0.17090656932E+04  0.17090656932E+04  0.00000000000E+00 0. -1.
         21   -1    0    0  503  502  0.00000000000E+00 -0.00000000000E+00 -0.28019101631E+03  0.28019101631E+03  0.00000000000E+00 0. -1.
         25    1    1    2    0    0  0.44682209337E+03  0.11599372580E+03  0.92765655289E+01  0.47834671758E+03  0.12500000000E+03 0.  0.
         21    1    1    2  503  501 -0.36572648367E+02 -0.37705635034E+02  0.31294377595E+02  0.61144186894E+02  0.00000000000E+00 0. -1.
          2    1    1    2  501    0 -0.41024944500E+03 -0.78288090765E+02  0.13883037338E+04  0.14497658051E+04  0.00000000000E+00 0. -1.
<mgrwt>
<rscale>  4 0.44074485E+03</rscale>
<asrwt>0</asrwt>
<pdfrwt beam="1">  1       21 0.43106311E-01 0.44074485E+03</pdfrwt>
<pdfrwt beam="2">  1        2 0.26293318E+00 0.44074485E+03</pdfrwt>
<totfact> 0.62846847E+02</totfact>
</mgrwt>
</event>
<event>
 5    0  0.2947253E-001  0.2646787E+03  0.7546771E-02  0.1104364E+00
          1   -1    0    0  502    0 -0.00000000000E+00  0.00000000000E+00  0.11054897016E+04  0.11054897016E+04  0.00000000000E+00 0. -1.
         21   -1    0    0  503  502  0.00000000000E+00 -0.00000000000E+00 -0.44533392568E+03  0.44533392568E+03  0.00000000000E+00 0.  1.
         25    1    1    2    0    0 -0.22310447275E+03 -0.68221737593E+02 -0.39100886077E+03  0.47216812730E+03  0.12500000000E+03 0.  0.
         21    1    1    2  503  501  0.74746194687E+02  0.17860232996E+02  0.49161967092E+03  0.49759007464E+03  0.00000000000E+00 0. -1.
          1    1    1    2  501    0  0.14835827806E+03  0.50361504597E+02  0.55954496581E+03  0.58106542539E+03  0.00000000000E+00 0. -1.
<mgrwt>
<rscale>  4 0.26467869E+03</rscale>
<asrwt>0</asrwt>
<pdfrwt beam="1">  1       21 0.68512912E-01 0.26467869E+03</pdfrwt>
<pdfrwt beam="2">  1        1 0.17007534E+00 0.26467869E+03</pdfrwt>
<totfact> 0.27929931E+02</totfact>
</mgrwt>
</event>
<event>
 5    0  0.2947253E-001  0.2787639E+03  0.7546771E-02  0.1096366E+00
         21   -1    0    0  503  502  0.00000000000E+00  0.00000000000E+00  0.91775020618E+03  0.91775020618E+03  0.00000000000E+00 0. -1.
          2   -1    0    0  502    0 -0.00000000000E+00 -0.00000000000E+00 -0.13883760009E+03  0.13883760009E+03  0.00000000000E+00 0.  1.
         25    1    1    2    0    0 -0.70709420541E+02  0.23892365663E+03  0.73461432095E+03  0.78572739318E+03  0.12500000000E+03 0.  0.
         21    1    1    2  503  501  0.53166308358E+02 -0.13727422551E+03  0.72255227892E+02  0.16398685097E+03  0.00000000000E+00 0. -1.
          2    1    1    2  501    0  0.17543112184E+02 -0.10164943112E+03 -0.27956942752E+02  0.10687356212E+03  0.00000000000E+00 0.  1.
<mgrwt>
<rscale>  4 0.27876394E+03</rscale>
<asrwt>0</asrwt>
<pdfrwt beam="1">  1       21 0.14119234E+00 0.27876394E+03</pdfrwt>
<pdfrwt beam="2">  1        2 0.21359631E-01 0.27876394E+03</pdfrwt>
<totfact> 0.10603836E+03</totfact>
</mgrwt>
</event>
<event>
 5    0  0.2947253E-001  0.3157380E+03  0.7546771E-02  0.1077628E+00
          1   -1    0    0  502    0 -0.00000000000E+00  0.00000000000E+00  0.20202418007E+04  0.20202418007E+04  0.00000000000E+00 0. -1.
         21   -1    0    0  503  502  0.00000000000E+00 -0.00000000000E+00 -0.33098038211E+03  0.33098038211E+03  0.00000000000E+00 0.  1.
         25    1    1    2    0    0 -0.27550753915E+03 -0.90338544905E+02 -0.24161961178E+03  0.39758080138E+03  0.12500000000E+03 0.  0.
         21    1    1    2  503  501  0.24943971459E+02 -0.12180379476E+01  0.85314092080E+02  0.88894204738E+02  0.00000000000E+00 0. -1.
          1    1    1    2  501    0  0.25056356769E+03  0.91556582853E+02  0.18455669383E+04  0.18647471767E+04  0.00000000000E+00 0. -1.
<mgrwt>
<rscale>  4 0.31573796E+03</rscale>
<asrwt>0</asrwt>
<pdfrwt beam="1">  1       21 0.50920060E-01 0.31573796E+03</pdfrwt>
<pdfrwt beam="2">  1        1 0.31080642E+00 0.31573796E+03</pdfrwt>
<totfact> 0.12599395E+02</totfact>
</mgrwt>
</event>
<event>
 5    0  0.2947253E-001  0.3486552E+03  0.7546771E-02  0.1063168E+00
          2   -1    0    0  502    0 -0.00000000000E+00  0.00000000000E+00  0.16233290042E+03  0.16233290042E+03  0.00000000000E+00 0.  1.
         21   -1    0    0  503  502  0.00000000000E+00 -0.00000000000E+00 -0.25436536456E+04  0.25436536456E+04  0.00000000000E+00 0. -1.
         25    1    1    2    0    0 -0.70591212102E+02 -0.32002055475E+03 -0.23098623676E+04  0.23363401790E+04  0.12500000000E+03 0.  0.
         21    1    1    2  503  501 -0.24626088980E+02  0.32429183132E+02 -0.52043988350E+02  0.66080805840E+02  0.00000000000E+00 0.  1.
          2    1    1    2  501    0  0.95217301082E+02  0.28759137161E+03 -0.19414389258E+02  0.30356556123E+03  0.00000000000E+00 0.  1.
<mgrwt>
<rscale>  4 0.34865520E+03</rscale>
<asrwt>0</asrwt>
<pdfrwt beam="1">  1       21 0.39133131E+00 0.34865520E+03</pdfrwt>
<pdfrwt beam="2">  1        2 0.24974294E-01 0.34865520E+03</pdfrwt>
<totfact> 0.22029001E+01</totfact>
</mgrwt>
</event>
<event>
 5    0  0.2947253E-001  0.2851463E+03  0.7546771E-02  0.1092911E+00
         -1   -1    0    0    0  501 -0.00000000000E+00  0.00000000000E+00  0.14186608373E+04  0.14186608373E+04  0.00000000000E+00 0. -1.
         21   -1    0    0  501  502  0.00000000000E+00 -0.00000000000E+00 -0.20566836020E+03  0.20566836020E+03  0.00000000000E+00 0.  1.
         25    1    1    2    0    0  0.22903460909E+03  0.10489927530E+03 -0.70375269959E+02  0.28989375423E+03  0.12500000000E+03 0.  0.
         21    1    1    2  501  501  0.28884076038E+02  0.54292373459E+02  0.18112005223E+03  0.19127578254E+03  0.00000000000E+00 0.  1.
         -1    1    1    2    0  502 -0.25791868513E+03 -0.15919164876E+03  0.11022476949E+04  0.11431596608E+04  0.00000000000E+00 0. -1.
<mgrwt>
<rscale>  4 0.28514629E+03</rscale>
<asrwt>0</asrwt>
<pdfrwt beam="1">  1       21 0.31641287E-01 0.28514629E+03</pdfrwt>
<pdfrwt beam="2">  1       -1 0.21825551E+00 0.28514629E+03</pdfrwt>
<totfact> 0.11032015E+02</totfact>
</mgrwt>
</event>
<event>
 5    0  0.2947253E-001  0.2411461E+03  0.7546771E-02  0.1119032E+00
         21   -1    0    0  503  502  0.00000000000E+00  0.00000000000E+00  0.23521066505E+02  0.23521066505E+02  0.00000000000E+00 0.  1.
          2   -1    0    0  502    0 -0.00000000000E+00 -0.00000000000E+00 -0.26431086183E+04  0.26431086183E+04  0.00000000000E+00 0. -1.
         25    1    1    2    0    0 -0.16559967081E+03  0.12289509321E+03 -0.81103701132E+03  0.84612793869E+03  0.12500000000E+03 0.  0.
         21    1    1    2  503  501  0.23403049078E+02 -0.17457763795E+02 -0.17919229398E+03  0.18155537570E+03  0.00000000000E+00 0.  1.
          2    1    1    2  501    0  0.14219662173E+03 -0.10543732942E+03 -0.16293582464E+04  0.16389463704E+04  0.00000000000E+00 0. -1.
<mgrwt>
<rscale>  4 0.24114613E+03</rscale>
<asrwt>0</asrwt>
<pdfrwt beam="1">  1       21 0.36186267E-02 0.24114613E+03</pdfrwt>
<pdfrwt beam="2">  1        2 0.40663198E+00 0.24114613E+03</pdfrwt>
<totfact> 0.19922552E+04</totfact>
</mgrwt>
</event>
<event>
 5    0  0.2947253E-001  0.2330309E+03  0.7546771E-02  0.1124524E+00
         21   -1    0    0  503  502  0.00000000000E+00  0.00000000000E+00  0.21717123679E+03  0.21717123679E+03  0.00000000000E+00 0.  1.
          2   -1    0    0  502    0 -0.00000000000E+00 -0.00000000000E+00 -0.10818282324E+04  0.10818282324E+04  0.00000000000E+00 0.  1.
         25    1    1    2    0    0  0.16775071146E+03  0.11591123113E+03  0.13057715991E+03  0.27249056752E+03  0.12500000000E+03 0.  0.
         21    1    1    2  503  501 -0.37036791271E+02 -0.94423897526E+02 -0.25349122406E+03  0.27303002949E+03  0.00000000000E+00 0.  1.
          2    1    1    2  501    0 -0.13071392019E+03 -0.21487333601E+02 -0.74174293144E+03  0.75347887216E+03  0.00000000000E+00 0.  1.
<mgrwt>
<rscale>  4 0.23303093E+03</rscale>
<asrwt>0</asrwt>
<pdfrwt beam="1">  1       21 0.33410959E-01 0.23303093E+03</pdfrwt>
<pdfrwt beam="2">  1        2 0.16643511E+00 0.23303093E+03</pdfrwt>
<totfact> 0.25277330E+03</totfact>
</mgrwt>
</event>
<event>
 5    0  0.2947253E-001  0.2789524E+03  0.7546771E-02  0.1096263E+00
          2   -1    0    0  502    0 -0.00000000000E+00  0.00000000000E+00  0.13360734262E+04  0.13360734262E+04  0.00000000000E+00 0. -1.
         21   -1    0    0  503  502  0.00000000000E+00 -0.00000000000E+00 -0.20375534936E+03  0.20375534936E+03  0.00000000000E+00 0. -1.
         25    1    1    2    0    0 -0.19746911713E+03  0.15230028404E+03 -0.88242905312E+02  0.29257689430E+03  0.12500000000E+03 0.  0.
         21    1    1    2  503  501  0.15134951845E+02 -0.38618903657E+02  0.17626951495E+03  0.18108403681E+03  0.00000000000E+00 0.  1.
          2    1    1    2  501    0  0.18233416529E+03 -0.11368138038E+03  0.10442914672E+04  0.10661678445E+04  0.00000000000E+00 0. -1.
<mgrwt>
<rscale>  4 0.27895238E+03</rscale>
<asrwt>0</asrwt>
<pdfrwt beam="1">  1       21 0.31346978E-01 0.27895238E+03</pdfrwt>
<pdfrwt beam="2">  1        2 0.20554975E+00 0.27895238E+03</pdfrwt>
<totfact> 0.20185864E+03</totfact>
</mgrwt>
</event>
<event>
 5    0  0.2947253E-001  0.2533193E+03  0.7546771E-02  0.1111225E+00
          1   -1    0    0  502    0 -0.00000000000E+00  0.00000000000E+00  0.12225428178E+04  0.12225428178E+04  0.00000000000E+00 0.  1.
         21   -1    0    0  503  502  0.00000000000E+00 -0.00000000000E+00 -0.49634480116E+02  0.49634480116E+02  0.00000000000E+00 0.  1.
         25    1    1    2    0    0  0.15103721138E+02 -0.21981253852E+03  0.63545863078E+03  0.68408942830E+03  0.12500000000E+03 0.  0.
         21    1    1    2  503  501 -0.26283800986E+01  0.17831544624E+03  0.49987477699E+03  0.53073354842E+03  0.00000000000E+00 0.  1.
          1    1    1    2  501    0 -0.12475341040E+02  0.41497092285E+02  0.37574929937E+02  0.57354321215E+02  0.00000000000E+00 0.  1.
<mgrwt>
<rscale>  4 0.25331931E+03</rscale>
<asrwt>0</asrwt>
<pdfrwt beam="1">  1       21 0.76360748E-02 0.25331931E+03</pdfrwt>
<pdfrwt beam="2">  1        1 0.18808349E+00 0.25331931E+03</pdfrwt>
<totfact> 0.15994874E+04</totfact>
</mgrwt>
</event>
<event>
 5    0  0.2947253E-001  0.2406764E+03  0.7546771E-02  0.1119343E+00
          2   -1    0    0  502    0 -0.00000000000E+00  0.00000000000E+00  0.14306985708E+04  0.14306985708E+04  0.00000000000E+00 0. -1.
         21   -1    0    0  503  502  0.00000000000E+00 -0.00000000000E+00 -0.37919013212E+02  0.37919013212E+02  0.00000000000E+00 0. -1.
         25    1    1    2    0    0 -0.13007870162E+02 -0.20525815523E+03  0.86633592882E+03  0.89914573710E+03  0.12500000000E+03 0.  0.
         21    1    1    2  503  501 -0.14416633728E+02  0.17525685195E+03  0.40929380850E+03  0.44547079047E+03  0.00000000000E+00 0. -1.
          2    1    1    2  501    0  0.27424503891E+02  0.30001303274E+02  0.11714982031E+03  0.12400105649E+03  0.00000000000E+00 0. -1.
<mgrwt>
<rscale>  4 0.24067637E+03</rscale>
<asrwt>0</asrwt>
<pdfrwt beam="1">  1       21 0.58336954E-02 0.24067637E+03</pdfrwt>
<pdfrwt beam="2">  1        2 0.22010743E+00 0.24067637E+03</pdfrwt>
<totfact> 0.39154443E+04</totfact>
</mgrwt>
</event>
<event>
 5    0  0.2947253E-001  0.2758393E+03  0.7546771E-02  0.1097983E+00
         21   -1    0    0  503  502  0.00000000000E+00  0.00000000000E+00  0.54099177774E+02  0.54099177774E+02  0.00000000000E+00 0. -1.
          2   -1    0    0  502    0 -0.00000000000E+00 -0.00000000000E+00 -0.22729041613E+04  0.22729041613E+04  0.00000000000E+00 0. -1.
         25    1    1    2    0    0 -0.24293368330E+03 -0.38020333577E+02 -0.37540121221E+03  0.46584696025E+03  0.12500000000E+03 0.  0.
         21    1    1    2  503  501  0.19871497667E+02  0.21729182929E+02 -0.13494110362E+03  0.13811638301E+03  0.00000000000E+00 0. -1.
          2    1    1    2  501    0  0.22306218563E+03  0.16291150649E+02 -0.17084626677E+04  0.17230399958E+04  0.00000000000E+00 0. -1.
<mgrwt>
<rscale>  4 0.27583930E+03</rscale>
<asrwt>0</asrwt>
<pdfrwt beam="1">  1       21 0.83229540E-02 0.27583930E+03</pdfrwt>
<pdfrwt beam="2">  1        2 0.34967741E+00 0.27583930E+03</pdfrwt>
<totfact> 0.75021578E+03</totfact>
</mgrwt>
</event>
<event>
 5    0  0.2947253E-001  0.3381388E+03  0.7546771E-02  0.1067591E+00
         -4   -1    0    0    0  501 -0.00000000000E+00  0.00000000000E+00  0.21268542184E+03  0.21268542184E+03  0.00000000000E+00 0.  1.
         21   -1    0    0  501  502  0.00000000000E+00 -0.00000000000E+00 -0.76337535667E+03  0.76337535667E+03  0.00000000000E+00 0.  1.
         25    1    1    2    0    0 -0.12419361471E+02  0.31125846665E+03 -0.52384142326E+03  0.62215023131E+03  0.12500000000E+03 0.  0.
         21    1    1    2  501  501  0.27152094149E+02  0.11683919493E+02 -0.39548731356E+01  0.29822662740E+02  0.00000000000E+00 0.  1.
         -4    1    1    2    0  502 -0.14732732679E+02 -0.32294238614E+03 -0.22893638435E+02  0.32408788447E+03  0.00000000000E+00 0.  1.
<mgrwt>
<rscale>  4 0.33813881E+03</rscale>
<asrwt>0</asrwt>
<pdfrwt beam="1">  1       21 0.11744236E+00 0.33813881E+03</pdfrwt>
<pdfrwt beam="2">  1       -4 0.32720834E-01 0.33813881E+03</pdfrwt>
<totfact> 0.20481728E+02</totfact>
</mgrwt>
</event>
<event>
 5    0  0.2947253E-001  0.6167582E+03  0.7546771E-02  0.9883501E-01
         21   -1    0    0  503  502  0.00000000000E+00  0.00000000000E+00  0.41472180516E+03  0.41472180516E+03  0.00000000000E+00 0.  1.
          2   -1    0    0  502    0 -0.00000000000E+00 -0.00000000000E+00 -0.21739233952E+04  0.21739233952E+04  0.00000000000E+00 0.  1.
         25    1    1    2    0    0 -0.12173245720E+03 -0.56652662036E+03  0.12521330305E+03  0.60586679556E+03  0.12500000000E+03 0.  0.
         21    1    1    2  503  501 -0.46946626534E+02  0.20385134298E+03 -0.50688797617E+03  0.54835643168E+03  0.00000000000E+00 0. -1.
          2    1    1    2  501    0  0.16867908373E+03  0.36267527737E+03 -0.13775269169E+04  0.14344219731E+04  0.00000000000E+00 0.  1.
<mgrwt>
<rscale>  4 0.61067599E+03</rscale>
<asrwt>0</asrwt>
<pdfrwt beam="1">  1       21 0.63803355E-01 0.61675823E+03</pdfrwt>
<pdfrwt beam="2">  1        2 0.33444975E+00 0.61675823E+03</pdfrwt>
<totfact> 0.14400370E+02</totfact>
</mgrwt>
</event>
<event>
 5    0  0.2947253E-001  0.4273474E+03  0.7546771E-02  0.1035344E+00
         21   -1    0    0  503  502  0.00000000000E+00  0.00000000000E+00  0.22935105090E+04  0.22935105090E+04  0.00000000000E+00 0.  1.
          2   -1    0    0  502    0 -0.00000000000E+00 -0.00000000000E+00 -0.22598188345E+04  0.22598188345E+04  0.00000000000E+00 0. -1.
         25    1    1    2    0    0  0.12656616433E+03  0.37975148022E+03  0.22537918989E+04  0.22924731414E+04  0.12500000000E+03 0.  0.
         21    1    1    2  503  501 -0.47996018156E+02 -0.10127288629E+03 -0.10303075588E+04  0.10363848131E+04  0.00000000000E+00 0. -1.
          2    1    1    2  501    0 -0.78570146172E+02 -0.27847859393E+03 -0.11897926656E+04  0.12244713889E+04  0.00000000000E+00 0. -1.
<mgrwt>
<rscale>  4 0.42533406E+03</rscale>
<asrwt>0</asrwt>
<pdfrwt beam="1">  1       21 0.35284777E+00 0.42734735E+03</pdfrwt>
<pdfrwt beam="2">  1        2 0.34766444E+00 0.42734735E+03</pdfrwt>
<totfact> 0.87208411E-01</totfact>
</mgrwt>
</event>
<event>
 5    0  0.2947253E-001  0.2815989E+03  0.7546771E-02  0.1094819E+00
          2   -1    0    0  502    0 -0.00000000000E+00  0.00000000000E+00  0.34571004026E+03  0.34571004026E+03  0.00000000000E+00 0.  1.
         21   -1    0    0  503  502  0.00000000000E+00 -0.00000000000E+00 -0.39150509296E+03  0.39150509296E+03  0.00000000000E+00 0. -1.
         25    1    1    2    0    0  0.18983544661E+03  0.16623907038E+03  0.22744630090E+03  0.36198031039E+03  0.12500000000E+03 0.  0.
         21    1    1    2  503  501 -0.27357528896E+02 -0.54274722853E+01 -0.38827066693E+02  0.47806202011E+02  0.00000000000E+00 0.  1.
          2    1    1    2  501    0 -0.16247791772E+03 -0.16081159810E+03 -0.23441428691E+03  0.32742862083E+03  0.00000000000E+00 0.  1.
<mgrwt>
<rscale>  4 0.28159887E+03</rscale>
<asrwt>0</asrwt>
<pdfrwt beam="1">  1       21 0.60231552E-01 0.28159887E+03</pdfrwt>
<pdfrwt beam="2">  1        2 0.53186161E-01 0.28159887E+03</pdfrwt>
<totfact> 0.29074035E+03</totfact>
</mgrwt>
</event>
<event>
 5    0  0.2947253E-001  0.2662439E+03  0.7546771E-02  0.1103449E+00
          2   -1    0    0  502    0 -0.00000000000E+00  0.00000000000E+00  0.14060478311E+04  0.14060478311E+04  0.00000000000E+00 0.  1.
         21   -1    0    0  503  502  0.00000000000E+00 -0.00000000000E+00 -0.16859468682E+03  0.16859468682E+03  0.00000000000E+00 0.  1.
         25    1    1    2    0    0 -0.14543561719E+03  0.20956565979E+03  0.41094664959E+02  0.28702448676E+03  0.12500000000E+03 0.  0.
         21    1    1    2  503  501 -0.82392017923E+02 -0.13958901261E+03  0.17381174757E+03  0.23766375544E+03  0.00000000000E+00 0.  1.
          2    1    1    2  501    0  0.22782763512E+03 -0.69976647177E+02  0.10225467318E+04  0.10499542757E+04  0.00000000000E+00 0.  1.
<mgrwt>
<rscale>  4 0.26624390E+03</rscale>
<asrwt>0</asrwt>
<pdfrwt beam="1">  1       21 0.25937645E-01 0.26624390E+03</pdfrwt>
<pdfrwt beam="2">  1        2 0.21631504E+00 0.26624390E+03</pdfrwt>
<totfact> 0.26890633E+03</totfact>
</mgrwt>
</event>
<event>
 5    0  0.2947253E-001  0.2167831E+03  0.7546771E-02  0.1136304E+00
          2   -1    0    0  502    0 -0.00000000000E+00  0.00000000000E+00  0.32354642863E+03  0.32354642863E+03  0.00000000000E+00 0. -1.
         21   -1    0    0  503  502  0.00000000000E+00 -0.00000000000E+00 -0.22302226043E+03  0.22302226043E+03  0.00000000000E+00 0.  1.
         25    1    1    2    0    0 -0.20728422927E+03 -0.84527899380E+02 -0.22238911581E+02  0.25735439896E+03  0.12500000000E+03 0.  0.
         21    1    1    2  503  501  0.76607423114E+02 -0.16869720268E+02 -0.73251188650E+01  0.78784148815E+02  0.00000000000E+00 0. -1.
          2    1    1    2  501    0  0.13067680615E+03  0.10139761965E+03  0.13008819864E+03  0.21043014129E+03  0.00000000000E+00 0. -1.
<mgrwt>
<rscale>  4 0.21678313E+03</rscale>
<asrwt>0</asrwt>
<pdfrwt beam="1">  1       21 0.34311117E-01 0.21678313E+03</pdfrwt>
<pdfrwt beam="2">  1        2 0.49776373E-01 0.21678313E+03</pdfrwt>
<totfact> 0.10182916E+04</totfact>
</mgrwt>
</event>
<event>
 5    0  0.2947253E-001  0.2387743E+03  0.7546771E-02  0.1120612E+00
          2   -1    0    0  502    0 -0.00000000000E+00  0.00000000000E+00  0.11532900135E+04  0.11532900135E+04  0.00000000000E+00 0.  1.
         21   -1    0    0  503  502  0.00000000000E+00 -0.00000000000E+00 -0.29950503961E+03  0.29950503961E+03  0.00000000000E+00 0. -1.
         25    1    1    2    0    0  0.65198493472E+02  0.19271050125E+03 -0.24049643029E+03  0.33889779259E+03  0.12500000000E+03 0.  0.
         21    1    1    2  503  501 -0.18242495078E+02 -0.51361339648E+02  0.19984935476E+03  0.20714859506E+03  0.00000000000E+00 0.  1.
          2    1    1    2  501    0 -0.46955998395E+02 -0.14134916160E+03  0.89443204944E+03  0.90674866547E+03  0.00000000000E+00 0.  1.
<mgrwt>
<rscale>  4 0.23877433E+03</rscale>
<asrwt>0</asrwt>
<pdfrwt beam="1">  1       21 0.46077699E-01 0.23877433E+03</pdfrwt>
<pdfrwt beam="2">  1        2 0.17742923E+00 0.23877433E+03</pdfrwt>
<totfact> 0.11945810E+03</totfact>
</mgrwt>
</event>
<event>
 5    0  0.2947253E-001  0.2647680E+03  0.7546771E-02  0.1104312E+00
          2   -1    0    0  502    0 -0.00000000000E+00  0.00000000000E+00  0.10196284889E+04  0.10196284889E+04  0.00000000000E+00 0.  1.
         21   -1    0    0  503  502  0.00000000000E+00 -0.00000000000E+00 -0.10794480771E+04  0.10794480771E+04  0.00000000000E+00 0.  1.
         25    1    1    2    0    0 -0.13144377482E+03  0.19343613017E+03 -0.10455930448E+04  0.10786958875E+04  0.12500000000E+03 0.  0.
         21    1    1    2  503  501  0.89709175977E+02 -0.19586460566E+03  0.72684661026E+03  0.75810070231E+03  0.00000000000E+00 0.  1.
          2    1    1    2  501    0  0.41734598840E+02  0.24284754891E+01  0.25892684629E+03  0.26227997629E+03  0.00000000000E+00 0.  1.
<mgrwt>
<rscale>  4 0.26476796E+03</rscale>
<asrwt>0</asrwt>
<pdfrwt beam="1">  1       21 0.16606894E+00 0.26476796E+03</pdfrwt>
<pdfrwt beam="2">  1        2 0.15686592E+00 0.26476796E+03</pdfrwt>
<totfact> 0.69384699E+01</totfact>
</mgrwt>
</event>
<event>
 5    0  0.2947253E-001  0.2521532E+03  0.7546771E-02  0.1111952E+00
          2   -1    0    0  502    0 -0.00000000000E+00  0.00000000000E+00  0.11656060485E+04  0.11656060485E+04  0.00000000000E+00 0.  1.
         21   -1    0    0  503  502  0.00000000000E+00 -0.00000000000E+00 -0.99123935616E+02  0.99123935616E+02  0.00000000000E+00 0. -1.
         25    1    1    2    0    0  0.23900502098E+03  0.10038340138E+03  0.22089005684E+03  0.36279146150E+03  0.12500000000E+03 0.  0.
         21    1    1    2  503  501 -0.10533769357E+03 -0.13809103532E+03  0.42986237601E+03  0.46362358226E+03  0.00000000000E+00 0. -1.
          2    1    1    2  501    0 -0.13366732741E+03  0.37707633935E+02  0.41572968001E+03  0.43831494032E+03  0.00000000000E+00 0.  1.
<mgrwt>
<rscale>  4 0.25215324E+03</rscale>
<asrwt>0</asrwt>
<pdfrwt beam="1">  1       21 0.15249837E-01 0.25215324E+03</pdfrwt>
<pdfrwt beam="2">  1        2 0.17932400E+00 0.25215324E+03</pdfrwt>
<totfact> 0.99848096E+03</totfact>
</mgrwt>
</event>
<event>
 5    0  0.2947253E-001  0.2287044E+03  0.7546771E-02  0.1127555E+00
          2   -1    0    0  502    0 -0.00000000000E+00  0.00000000000E+00  0.56953004571E+03  0.56953004571E+03  0.00000000000E+00 0. -1.
         21   -1    0    0  503  502  0.00000000000E+00 -0.00000000000E+00 -0.18800006446E+03  0.18800006446E+03  0.00000000000E+00 0. -1.
         25    1    1    2    0    0 -0.19307822185E+03  0.70126007066E+02  0.32100222976E+03  0.40107890512E+03  0.12500000000E+03 0.  0.
         21    1    1    2  503  501  0.64671735050E+01 -0.10951848588E+03 -0.65570894150E+02  0.12781105289E+03  0.00000000000E+00 0. -1.
          2    1    1    2  501    0  0.18661104834E+03  0.39392478812E+02  0.12609864564E+03  0.22864015217E+03  0.00000000000E+00 0. -1.
<mgrwt>
<rscale>  4 0.22870444E+03</rscale>
<asrwt>0</asrwt>
<pdfrwt beam="1">  1       21 0.28923087E-01 0.22870444E+03</pdfrwt>
<pdfrwt beam="2">  1        2 0.87620007E-01 0.22870444E+03</pdfrwt>
<totfact> 0.76270640E+03</totfact>
</mgrwt>
</event>
<event>
 5    0  0.2947253E-001  0.2235875E+03  0.7546771E-02  0.1131236E+00
          2   -1    0    0  502    0 -0.00000000000E+00  0.00000000000E+00  0.15992641531E+04  0.15992641531E+04  0.00000000000E+00 0.  1.
         21   -1    0    0  503  502  0.00000000000E+00 -0.00000000000E+00 -0.46573826415E+02  0.46573826415E+02  0.00000000000E+00 0. -1.
         25    1    1    2    0    0 -0.12296943631E+03  0.16595157533E+03  0.44321506666E+03  0.50470387649E+03  0.12500000000E+03 0.  0.
         21    1    1    2  503  501  0.43207571322E+02 -0.37324751834E+01  0.49310563444E+02  0.65668540853E+02  0.00000000000E+00 0.  1.
          2    1    1    2  501    0  0.79761864992E+02 -0.16221910015E+03  0.10601646966E+04  0.10754655622E+04  0.00000000000E+00 0.  1.
<mgrwt>
<rscale>  4 0.22358748E+03</rscale>
<asrwt>0</asrwt>
<pdfrwt beam="1">  1       21 0.71652053E-02 0.22358748E+03</pdfrwt>
<pdfrwt beam="2">  1        2 0.24604060E+00 0.22358748E+03</pdfrwt>
<totfact> 0.22414952E+04</totfact>
</mgrwt>
</event>
<event>
 5    0  0.2947253E-001  0.3947927E+03  0.7546771E-02  0.1063362E+00
         -1   -1    0    0    0  501 -0.00000000000E+00  0.00000000000E+00  0.12865921597E+04  0.12865921597E+04  0.00000000000E+00 0.  1.
         21   -1    0    0  501  502  0.00000000000E+00 -0.00000000000E+00 -0.87192278234E+02  0.87192278234E+02  0.00000000000E+00 0.  1.
         25    1    1    2    0    0 -0.14894623678E+03  0.13871961791E+03  0.25096620649E+03  0.34646377970E+03  0.12500000000E+03 0.  0.
         21    1    1    2  501  501  0.17951999997E+03 -0.10664258586E+03  0.95924426168E+03  0.98170750485E+03  0.00000000000E+00 0.  1.
         -1    1    1    2    0  502 -0.30573763188E+02 -0.32077032057E+02 -0.10810586668E+02  0.45613153422E+02  0.00000000000E+00 0.  1.
<mgrwt>
<rscale>  4 0.34818638E+03</rscale>
<asrwt>0</asrwt>
<pdfrwt beam="1">  1       21 0.13414198E-01 0.39479273E+03</pdfrwt>
<pdfrwt beam="2">  1       -1 0.19793724E+00 0.39479273E+03</pdfrwt>
<totfact> 0.74191351E+02</totfact>
</mgrwt>
</event>
<event>
 5    0  0.2947253E-001  0.2444147E+03  0.7546771E-02  0.1116886E+00
         21   -1    0    0  503  502  0.00000000000E+00  0.00000000000E+00  0.12003018124E+03  0.12003018124E+03  0.00000000000E+00 0.  1.
          1   -1    0    0  502    0 -0.00000000000E+00 -0.00000000000E+00 -0.15354017953E+04  0.15354017953E+04  0.00000000000E+00 0.  1.
         25    1    1    2    0    0  0.19778814167E+03  0.70664089737E+02 -0.23638298289E+02  0.24555515004E+03  0.12500000000E+03 0.  0.
         21    1    1    2  503  501 -0.10928183712E+03 -0.59990132979E+01 -0.86211762055E+03  0.86903699561E+03  0.00000000000E+00 0.  1.
          1    1    1    2  501    0 -0.88506304559E+02 -0.64665076439E+02 -0.52961569526E+03  0.54083983094E+03  0.00000000000E+00 0.  1.
<mgrwt>
<rscale>  4 0.24441473E+03</rscale>
<asrwt>0</asrwt>
<pdfrwt beam="1">  1       21 0.18466182E-01 0.24441473E+03</pdfrwt>
<pdfrwt beam="2">  1        1 0.23621566E+00 0.24441473E+03</pdfrwt>
<totfact> 0.20117210E+03</totfact>
</mgrwt>
</event>
<event>
 5    0  0.2947253E-001  0.2540142E+03  0.7546771E-02  0.1110794E+00
         21   -1    0    0  503  502  0.00000000000E+00  0.00000000000E+00  0.13784959330E+04  0.13784959330E+04  0.00000000000E+00 0.  1.
          1   -1    0    0  502    0 -0.00000000000E+00 -0.00000000000E+00 -0.17430386328E+03  0.17430386328E+03  0.00000000000E+00 0.  1.
         25    1    1    2    0    0  0.10338678852E+03  0.20191961595E+03  0.12200127458E+04  0.12472034554E+04  0.12500000000E+03 0.  0.
         21    1    1    2  503  501 -0.93844438719E+02 -0.22532748901E+02  0.56626264999E+02  0.11189744117E+03  0.00000000000E+00 0.  1.
          1    1    1    2  501    0 -0.95423497968E+01 -0.17938686705E+03 -0.72446940991E+02  0.19369889976E+03  0.00000000000E+00 0.  1.
<mgrwt>
<rscale>  4 0.25401419E+03</rscale>
<asrwt>0</asrwt>
<pdfrwt beam="1">  1       21 0.21207629E+00 0.25401419E+03</pdfrwt>
<pdfrwt beam="2">  1        1 0.26815980E-01 0.25401419E+03</pdfrwt>
<totfact> 0.20339970E+02</totfact>
</mgrwt>
</event>
<event>
 5    0  0.2947253E-001  0.2767844E+03  0.7546771E-02  0.1097458E+00
         21   -1    0    0  503  502  0.00000000000E+00  0.00000000000E+00  0.20024617709E+03  0.20024617709E+03  0.00000000000E+00 0.  1.
          2   -1    0    0  502    0 -0.00000000000E+00 -0.00000000000E+00 -0.96021254517E+03  0.96021254517E+03  0.00000000000E+00 0. -1.
         25    1    1    2    0    0 -0.17459004157E+03  0.17465078025E+03  0.71272266841E+02  0.28581342459E+03  0.12500000000E+03 0.  0.
         21    1    1    2  503  501  0.89674574841E+02 -0.17424649766E+02 -0.23222147974E+03  0.24954351013E+03  0.00000000000E+00 0.  1.
          2    1    1    2  501    0  0.84915466725E+02 -0.15722613049E+03 -0.59901715517E+03  0.62510178754E+03  0.00000000000E+00 0. -1.
<mgrwt>
<rscale>  4 0.27678435E+03</rscale>
<asrwt>0</asrwt>
<pdfrwt beam="1">  1       21 0.30807104E-01 0.27678435E+03</pdfrwt>
<pdfrwt beam="2">  1        2 0.14772501E+00 0.27678435E+03</pdfrwt>
<totfact> 0.34630947E+03</totfact>
</mgrwt>
</event>
<event>
 5    0  0.2947253E-001  0.5625543E+03  0.7546771E-02  0.9986292E-01
          2   -1    0    0  502    0 -0.00000000000E+00  0.00000000000E+00  0.53625846355E+03  0.53625846355E+03  0.00000000000E+00 0. -1.
         21   -1    0    0  503  502  0.00000000000E+00 -0.00000000000E+00 -0.11518140734E+04  0.11518140734E+04  0.00000000000E+00 0. -1.
         25    1    1    2    0    0 -0.38690163598E+03  0.38877942167E+03 -0.89970391682E+03  0.10611005855E+04  0.12500000000E+03 0.  0.
         21    1    1    2  503  501  0.29736665062E+01 -0.39376580905E+02  0.25299980667E+02  0.46898260501E+02  0.00000000000E+00 0. -1.
          2    1    1    2  501    0  0.38392796948E+03 -0.34940284076E+03  0.25884832630E+03  0.58007369093E+03  0.00000000000E+00 0. -1.
<mgrwt>
<rscale>  4 0.56255428E+03</rscale>
<asrwt>0</asrwt>
<pdfrwt beam="1">  1       21 0.17720216E+00 0.56255428E+03</pdfrwt>
<pdfrwt beam="2">  1        2 0.82501303E-01 0.56255428E+03</pdfrwt>
<totfact> 0.11407343E+02</totfact>
</mgrwt>
</event>
<event>
 5    0  0.2947253E-001  0.3376254E+03  0.7546771E-02  0.1067812E+00
          2   -1    0    0  502    0 -0.00000000000E+00  0.00000000000E+00  0.70378618147E+03  0.70378618147E+03  0.00000000000E+00 0. -1.
         21   -1    0    0  503  502  0.00000000000E+00 -0.00000000000E+00 -0.44083159685E+03  0.44083159685E+03  0.00000000000E+00 0.  1.
         25    1    1    2    0    0  0.73405506056E+02 -0.42334262996E+03 -0.44207512020E+02  0.44965170386E+03  0.12500000000E+03 0.  0.
         21    1    1    2  503  501  0.98912050953E+02  0.22014497041E+03  0.34997405027E+03  0.42512261488E+03  0.00000000000E+00 0. -1.
          2    1    1    2  501    0 -0.17231755701E+03  0.20319765955E+03 -0.42811953628E+02  0.26984345957E+03  0.00000000000E+00 0. -1.
<mgrwt>
<rscale>  4 0.33762535E+03</rscale>
<asrwt>0</asrwt>
<pdfrwt beam="1">  1       21 0.67820246E-01 0.33762535E+03</pdfrwt>
<pdfrwt beam="2">  1        2 0.10827480E+00 0.33762535E+03</pdfrwt>
<totfact> 0.98110793E+02</totfact>
</mgrwt>
</event>
<event>
 5    0  0.2947253E-001  0.2172887E+03  0.7546771E-02  0.1135921E+00
         21   -1    0    0  503  502  0.00000000000E+00  0.00000000000E+00  0.79791436068E+02  0.79791436068E+02  0.00000000000E+00 0.  1.
          2   -1    0    0  502    0 -0.00000000000E+00 -0.00000000000E+00 -0.12361415898E+04  0.12361415898E+04  0.00000000000E+00 0.  1.
         25    1    1    2    0    0  0.22906912032E+03 -0.27313957325E+02 -0.21283084688E+03  0.33784713042E+03  0.12500000000E+03 0.  0.
         21    1    1    2  503  501 -0.62405197538E+02 -0.90085486730E+01 -0.10568983295E+03  0.12306869390E+03  0.00000000000E+00 0. -1.
          2    1    1    2  501    0 -0.16666392279E+03  0.36322505998E+02 -0.83782947394E+03  0.85501720158E+03  0.00000000000E+00 0.  1.
<mgrwt>
<rscale>  4 0.21728866E+03</rscale>
<asrwt>0</asrwt>
<pdfrwt beam="1">  1       21 0.12275606E-01 0.21728866E+03</pdfrwt>
<pdfrwt beam="2">  1        2 0.19017562E+00 0.21728866E+03</pdfrwt>
<totfact> 0.13634280E+04</totfact>
</mgrwt>
</event>
<event>
 5    0  0.2947253E-001  0.2630001E+03  0.7546771E-02  0.1105354E+00
          1   -1    0    0  502    0 -0.00000000000E+00  0.00000000000E+00  0.13832766728E+04  0.13832766728E+04  0.00000000000E+00 0. -1.
         21   -1    0    0  503  502  0.00000000000E+00 -0.00000000000E+00 -0.10820169873E+03  0.10820169873E+03  0.00000000000E+00 0.  1.
         25    1    1    2    0    0 -0.23048248156E+03  0.50015228218E+02  0.93282021437E+02  0.28275472212E+03  0.12500000000E+03 0.  0.
         21    1    1    2  503  501  0.24137901279E+02 -0.31745099016E+02  0.10790731798E+03  0.11504077044E+03  0.00000000000E+00 0.  1.
          1    1    1    2  501    0  0.20634458028E+03 -0.18270129202E+02  0.10738856347E+04  0.10936828790E+04  0.00000000000E+00 0. -1.
<mgrwt>
<rscale>  4 0.26300014E+03</rscale>
<asrwt>0</asrwt>
<pdfrwt beam="1">  1       21 0.16646416E-01 0.26300014E+03</pdfrwt>
<pdfrwt beam="2">  1        1 0.21281178E+00 0.26300014E+03</pdfrwt>
<totfact> 0.30573415E+03</totfact>
</mgrwt>
</event>
<event>
 5    0  0.2947253E-001  0.2680835E+03  0.7546771E-02  0.1102382E+00
          2   -1    0    0  502    0 -0.00000000000E+00  0.00000000000E+00  0.22596240217E+04  0.22596240217E+04  0.00000000000E+00 0.  1.
         21   -1    0    0  503  502  0.00000000000E+00 -0.00000000000E+00 -0.41145163012E+03  0.41145163012E+03  0.00000000000E+00 0.  1.
         25    1    1    2    0    0 -0.21439985805E+03  0.98350589792E+02 -0.34398138471E+03  0.43541742119E+03  0.12500000000E+03 0.  0.
         21    1    1    2  503  501 -0.28469893892E+02  0.78091770626E+02  0.14940995997E+03  0.17097425431E+03  0.00000000000E+00 0. -1.
          2    1    1    2  501    0  0.24286975194E+03 -0.17644236042E+03  0.20427438163E+04  0.20646839763E+04  0.00000000000E+00 0.  1.
<mgrwt>
<rscale>  4 0.26808349E+03</rscale>
<asrwt>0</asrwt>
<pdfrwt beam="1">  1       21 0.63300252E-01 0.26808349E+03</pdfrwt>
<pdfrwt beam="2">  1        2 0.34763446E+00 0.26808349E+03</pdfrwt>
<totfact> 0.15289992E+02</totfact>
</mgrwt>
</event>
<event>
 5    0  0.2947253E-001  0.2978443E+03  0.7546771E-02  0.1086771E+00
          2   -1    0    0  502    0 -0.00000000000E+00  0.00000000000E+00  0.14754750127E+04  0.14754750127E+04  0.00000000000E+00 0. -1.
         21   -1    0    0  503  502  0.00000000000E+00 -0.00000000000E+00 -0.64934476438E+03  0.64934476438E+03  0.00000000000E+00 0. -1.
         25    1    1    2    0    0  0.73261917218E+02 -0.25618260399E+03 -0.59979840694E+03  0.66811672937E+03  0.12500000000E+03 0.  0.
         21    1    1    2  503  501 -0.82982085422E+02  0.62642053597E+02  0.51495931936E+03  0.52535050583E+03  0.00000000000E+00 0.  1.
          2    1    1    2  501    0  0.97201682039E+01  0.19354055039E+03  0.91096933588E+03  0.93135254186E+03  0.00000000000E+00 0. -1.
<mgrwt>
<rscale>  4 0.29695826E+03</rscale>
<asrwt>0</asrwt>
<pdfrwt beam="1">  1       21 0.99899195E-01 0.29784432E+03</pdfrwt>
<pdfrwt beam="2">  1        2 0.22699616E+00 0.29784432E+03</pdfrwt>
<totfact> 0.13770738E+02</totfact>
</mgrwt>
</event>
<event>
 5    0  0.2947253E-001  0.3912344E+03  0.7546771E-02  0.1046858E+00
          1   -1    0    0  502    0 -0.00000000000E+00  0.00000000000E+00  0.38093370336E+04  0.38093370336E+04  0.00000000000E+00 0. -1.
         21   -1    0    0  503  502  0.00000000000E+00 -0.00000000000E+00 -0.38900047406E+03  0.38900047406E+03  0.00000000000E+00 0.  1.
         25    1    1    2    0    0 -0.25598194884E+03  0.27468681975E+03 -0.26286421431E+03  0.47508125857E+03  0.12500000000E+03 0.  0.
         21    1    1    2  503  501  0.49967791378E+02 -0.32703590835E+03  0.21159820714E+04  0.21416884442E+04  0.00000000000E+00 0. -1.
          1    1    1    2  501    0  0.20601415746E+03  0.52349088597E+02  0.15672187025E+04  0.15815678049E+04  0.00000000000E+00 0. -1.
<mgrwt>
<rscale>  4 0.39123441E+03</rscale>
<asrwt>0</asrwt>
<pdfrwt beam="1">  1       21 0.59846229E-01 0.39123441E+03</pdfrwt>
<pdfrwt beam="2">  1        1 0.58605183E+00 0.39123441E+03</pdfrwt>
<totfact> 0.45917062E+00</totfact>
</mgrwt>
</event>
<event>
 5    0  0.2947253E-001  0.4257249E+03  0.7546771E-02  0.1036290E+00
          2   -1    0    0  502    0 -0.00000000000E+00  0.00000000000E+00  0.10109177725E+04  0.10109177725E+04  0.00000000000E+00 0. -1.
         21   -1    0    0  503  502  0.00000000000E+00 -0.00000000000E+00 -0.23929981665E+03  0.23929981665E+03  0.00000000000E+00 0. -1.
         25    1    1    2    0    0  0.13056745433E+03  0.37085429857E+03  0.54353205112E+02  0.41612503146E+03  0.12500000000E+03 0.  0.
         21    1    1    2  503  501 -0.83615815782E+02 -0.10316701588E+03  0.12465936111E+03  0.18214003988E+03  0.00000000000E+00 0.  1.
          2    1    1    2  501    0 -0.46951638543E+02 -0.26768728269E+03  0.59260538959E+03  0.65195251778E+03  0.00000000000E+00 0. -1.
<mgrwt>
<rscale>  4 0.42239479E+03</rscale>
<asrwt>0</asrwt>
<pdfrwt beam="1">  1       21 0.36815357E-01 0.42572488E+03</pdfrwt>
<pdfrwt beam="2">  1        2 0.15552581E+00 0.42572488E+03</pdfrwt>
<totfact> 0.21660226E+03</totfact>
</mgrwt>
</event>
<event>
 5    0  0.2996981E-001  0.3963889E+03  0.7546771E-02  0.1045037E+00
         -4   -1    0    0    0  501 -0.00000000000E+00  0.00000000000E+00  0.48023792372E+03  0.48023792372E+03  0.00000000000E+00 0. -1.
         21   -1    0    0  501  502  0.00000000000E+00 -0.00000000000E+00 -0.13201470688E+04  0.13201470688E+04  0.00000000000E+00 0. -1.
         25    1    1    2    0    0  0.39208233883E+03  0.11069581988E+03 -0.11647489215E+04  0.12402609303E+04  0.12500000000E+03 0.  0.
         21    1    1    2  501  501 -0.31727042716E+02 -0.10318325030E+02 -0.29747095880E+02  0.44698576981E+02  0.00000000000E+00 0. -1.
         -4    1    1    2    0  502 -0.36035529612E+03 -0.10037749485E+03  0.35458687228E+03  0.51542548531E+03  0.00000000000E+00 0. -1.
<mgrwt>
<rscale>  4 0.39638888E+03</rscale>
<asrwt>0</asrwt>
<pdfrwt beam="1">  1       21 0.20309955E+00 0.39638888E+03</pdfrwt>
<pdfrwt beam="2">  1       -4 0.73882758E-01 0.39638888E+03</pdfrwt>
<totfact> 0.82516660E+00</totfact>
</mgrwt>
</event>
<event>
 5    0  0.2947253E-001  0.2368926E+03  0.7546771E-02  0.1121880E+00
         21   -1    0    0  503  502  0.00000000000E+00  0.00000000000E+00  0.38742288603E+03  0.38742288603E+03  0.00000000000E+00 0. -1.
          2   -1    0    0  502    0 -0.00000000000E+00 -0.00000000000E+00 -0.11626635597E+04  0.11626635597E+04  0.00000000000E+00 0.  1.
         25    1    1    2    0    0 -0.17733540942E+03 -0.95106453191E+02  0.33961621592E+03  0.41407397768E+03  0.12500000000E+03 0.  0.
         21    1    1    2  503  501  0.30900366790E+02  0.51412858712E+02 -0.21235170941E+03  0.22066119550E+03  0.00000000000E+00 0. -1.
          2    1    1    2  501    0  0.14643504263E+03  0.43693594479E+02 -0.90250518020E+03  0.91535127257E+03  0.00000000000E+00 0.  1.
<mgrwt>
<rscale>  4 0.23689256E+03</rscale>
<asrwt>0</asrwt>
<pdfrwt beam="1">  1       21 0.59603522E-01 0.23689256E+03</pdfrwt>
<pdfrwt beam="2">  1        2 0.17887132E+00 0.23689256E+03</pdfrwt>
<totfact> 0.68576949E+02</totfact>
</mgrwt>
</event>
<event>
 5    0  0.2947253E-001  0.2696007E+03  0.7546771E-02  0.1101508E+00
          3   -1    0    0  502    0 -0.00000000000E+00  0.00000000000E+00  0.42779808167E+04  0.42779808167E+04  0.00000000000E+00 0.  1.
         21   -1    0    0  503  502  0.00000000000E+00 -0.00000000000E+00 -0.11829204000E+03  0.11829204000E+03  0.00000000000E+00 0. -1.
         25    1    1    2    0    0  0.16429648778E+03 -0.17606242882E+03  0.49371708081E+02  0.27577867992E+03  0.12500000000E+03 0.  0.
         21    1    1    2  503  501 -0.16191628678E+03  0.13771685777E+03  0.23079919996E+04  0.23177596698E+04  0.00000000000E+00 0. -1.
          3    1    1    2  501    0 -0.23802010013E+01  0.38345571057E+02  0.18023250691E+04  0.18027345070E+04  0.00000000000E+00 0.  1.
<mgrwt>
<rscale>  4 0.26960071E+03</rscale>
<asrwt>0</asrwt>
<pdfrwt beam="1">  1       21 0.18198779E-01 0.26960071E+03</pdfrwt>
<pdfrwt beam="2">  1        3 0.65815077E+00 0.26960071E+03</pdfrwt>
<totfact> 0.10253653E+00</totfact>
</mgrwt>
</event>
<event>
 5    0  0.2947253E-001  0.2699830E+03  0.7546771E-02  0.1101289E+00
          2   -1    0    0  502    0 -0.00000000000E+00  0.00000000000E+00  0.24413526823E+04  0.24413526823E+04  0.00000000000E+00 0. -1.
         21   -1    0    0  503  502  0.00000000000E+00 -0.00000000000E+00 -0.64337730923E+02  0.64337730923E+02  0.00000000000E+00 0.  1.
         25    1    1    2    0    0  0.73711843803E+02  0.23057037594E+03  0.27362587983E+03  0.38612466418E+03  0.12500000000E+03 0.  0.
         21    1    1    2  503  501  0.15008495617E+02 -0.25369511384E+02  0.11784012472E+03  0.12147082795E+03  0.00000000000E+00 0. -1.
          2    1    1    2  501    0 -0.88720339420E+02 -0.20520086455E+03  0.19855489468E+04  0.19980949211E+04  0.00000000000E+00 0. -1.
<mgrwt>
<rscale>  4 0.26998301E+03</rscale>
<asrwt>0</asrwt>
<pdfrwt beam="1">  1       21 0.98981144E-02 0.26998301E+03</pdfrwt>
<pdfrwt beam="2">  1        2 0.37559265E+00 0.26998301E+03</pdfrwt>
<totfact> 0.44884163E+03</totfact>
</mgrwt>
</event>
<event>
 5    0  0.2947253E-001  0.2396196E+03  0.7546771E-02  0.1120046E+00
         21   -1    0    0  503  502  0.00000000000E+00  0.00000000000E+00  0.55482944543E+02  0.55482944543E+02  0.00000000000E+00 0.  1.
          2   -1    0    0  502    0 -0.00000000000E+00 -0.00000000000E+00 -0.32789466578E+04  0.32789466578E+04  0.00000000000E+00 0. -1.
         25    1    1    2    0    0  0.91719652277E+02 -0.18101931039E+03 -0.22991324623E+03  0.33115794742E+03  0.12500000000E+03 0.  0.
         21    1    1    2  503  501 -0.50000271095E+01 -0.19786217127E+02 -0.39719820983E+03  0.39772215497E+03  0.00000000000E+00 0. -1.
          2    1    1    2  501    0 -0.86719625167E+02  0.20080552752E+03 -0.25963522572E+04  0.26055494999E+04  0.00000000000E+00 0. -1.
<mgrwt>
<rscale>  4 0.23961959E+03</rscale>
<asrwt>0</asrwt>
<pdfrwt beam="1">  1       21 0.85358343E-02 0.23961959E+03</pdfrwt>
<pdfrwt beam="2">  1        2 0.50445353E+00 0.23961959E+03</pdfrwt>
<totfact> 0.19365599E+03</totfact>
</mgrwt>
</event>
<event>
 5    0  0.2947253E-001  0.2722166E+03  0.7546771E-02  0.1100018E+00
          1   -1    0    0  502    0 -0.00000000000E+00  0.00000000000E+00  0.16315944536E+03  0.16315944536E+03  0.00000000000E+00 0.  1.
         21   -1    0    0  503  502  0.00000000000E+00 -0.00000000000E+00 -0.12449692555E+04  0.12449692555E+04  0.00000000000E+00 0.  1.
         25    1    1    2    0    0  0.92409695180E+01  0.27290196187E+03 -0.10337140653E+04  0.10764528068E+04  0.12500000000E+03 0.  0.
         21    1    1    2  503  501  0.10944292684E+02 -0.34966056817E+02 -0.82641659306E+02  0.90399372368E+02  0.00000000000E+00 0. -1.
          1    1    1    2  501    0 -0.20185262202E+02 -0.23793590505E+03  0.34545914518E+02  0.24127652172E+03  0.00000000000E+00 0.  1.
<mgrwt>
<rscale>  4 0.27221662E+03</rscale>
<asrwt>0</asrwt>
<pdfrwt beam="1">  1       21 0.19153373E+00 0.27221662E+03</pdfrwt>
<pdfrwt beam="2">  1        1 0.25101453E-01 0.27221662E+03</pdfrwt>
<totfact> 0.29752422E+02</totfact>
</mgrwt>
</event>
<event>
 5    0  0.2947253E-001  0.3696037E+03  0.7546771E-02  0.1055662E+00
         21   -1    0    0  501  502  0.00000000000E+00  0.00000000000E+00  0.30760362551E+03  0.30760362551E+03  0.00000000000E+00 0. -1.
         -3   -1    0    0    0  501 -0.00000000000E+00 -0.00000000000E+00 -0.61413212597E+03  0.61413212597E+03  0.00000000000E+00 0. -1.
         25    1    1    2    0    0  0.19324570283E+03  0.27834488756E+03  0.97553644346E+02  0.37411427615E+03  0.12500000000E+03 0.  0.
         21    1    1    2  501  501 -0.82852328816E+02 -0.21601421601E+02 -0.61056644175E+02  0.10516198744E+03  0.00000000000E+00 0. -1.
         -3    1    1    2    0  502 -0.11039337402E+03 -0.25674346596E+03 -0.34302550063E+03  0.44245948789E+03  0.00000000000E+00 0. -1.
<mgrwt>
<rscale>  4 0.36747735E+03</rscale>
<asrwt>0</asrwt>
<pdfrwt beam="1">  1       21 0.47323635E-01 0.36960371E+03</pdfrwt>
<pdfrwt beam="2">  1       -3 0.94481866E-01 0.36960371E+03</pdfrwt>
<totfact> 0.20931485E+02</totfact>
</mgrwt>
</event>
<event>
 5    0  0.2947253E-001  0.2423995E+03  0.7546771E-02  0.1118205E+00
          2   -1    0    0  502    0 -0.00000000000E+00  0.00000000000E+00  0.25602163535E+03  0.25602163535E+03  0.00000000000E+00 0.  1.
         21   -1    0    0  503  502  0.00000000000E+00 -0.00000000000E+00 -0.22237265150E+03  0.22237265150E+03  0.00000000000E+00 0.  1.
         25    1    1    2    0    0 -0.12566607270E+03  0.16534979378E+03 -0.52567445572E+02  0.24803397441E+03  0.12500000000E+03 0.  0.
         21    1    1    2  503  501  0.18014983745E+02 -0.33313361015E+02 -0.31144915819E+01  0.38000259463E+02  0.00000000000E+00 0.  1.
          2    1    1    2  501    0  0.10765108896E+03 -0.13203643276E+03  0.89330921007E+02  0.19236005297E+03  0.00000000000E+00 0.  1.
<mgrwt>
<rscale>  4 0.24239950E+03</rscale>
<asrwt>0</asrwt>
<pdfrwt beam="1">  1       21 0.34211177E-01 0.24239950E+03</pdfrwt>
<pdfrwt beam="2">  1        2 0.39387944E-01 0.24239950E+03</pdfrwt>
<totfact> 0.13119195E+04</totfact>
</mgrwt>
</event>
<event>
 5    0  0.2947253E-001  0.2893588E+03  0.7546771E-02  0.1090684E+00
         21   -1    0    0  501  502  0.00000000000E+00  0.00000000000E+00  0.55167829364E+03  0.55167829364E+03  0.00000000000E+00 0.  1.
         -1   -1    0    0    0  501 -0.00000000000E+00 -0.00000000000E+00 -0.15025609553E+03  0.15025609553E+03  0.00000000000E+00 0. -1.
         25    1    1    2    0    0 -0.22580881029E+03 -0.13082019335E+03  0.29968470605E+03  0.41658068226E+03  0.12500000000E+03 0.  0.
         21    1    1    2  501  501  0.61186367349E+02  0.14906265761E+02  0.40640163521E+02  0.74950591721E+02  0.00000000000E+00 0. -1.
         -1    1    1    2    0  502  0.16462244294E+03  0.11591392759E+03  0.61097328541E+02  0.21040311520E+03  0.00000000000E+00 0. -1.
<mgrwt>
<rscale>  4 0.28935885E+03</rscale>
<asrwt>0</asrwt>
<pdfrwt beam="1">  1       21 0.84873583E-01 0.28935885E+03</pdfrwt>
<pdfrwt beam="2">  1       -1 0.23116323E-01 0.28935885E+03</pdfrwt>
<totfact> 0.16836539E+03</totfact>
</mgrwt>
</event>
<event>
 5    0  0.2947253E-001  0.2324147E+03  0.7546771E-02  0.1124952E+00
         21   -1    0    0  503  502  0.00000000000E+00  0.00000000000E+00  0.19429177211E+03  0.19429177211E+03  0.00000000000E+00 0. -1.
          2   -1    0    0  502    0 -0.00000000000E+00 -0.00000000000E+00 -0.51145808917E+03  0.51145808917E+03  0.00000000000E+00 0. -1.
         25    1    1    2    0    0  0.10210104428E+02 -0.20789424737E+03  0.71386364322E+02  0.25307168418E+03  0.12500000000E+03 0.  0.
         21    1    1    2  503  501 -0.17402863988E+02  0.13739909222E+02 -0.50081579546E+01  0.22731617331E+02  0.00000000000E+00 0. -1.
          2    1    1    2  501    0  0.71927595597E+01  0.19415433815E+03 -0.38354452343E+03  0.42994655978E+03  0.00000000000E+00 0. -1.
<mgrwt>
<rscale>  4 0.23241466E+03</rscale>
<asrwt>0</asrwt>
<pdfrwt beam="1">  1       21 0.29891042E-01 0.23241466E+03</pdfrwt>
<pdfrwt beam="2">  1        2 0.78685860E-01 0.23241466E+03</pdfrwt>
<totfact> 0.80731431E+03</totfact>
</mgrwt>
</event>
<event>
 5    0  0.2947253E-001  0.2946633E+03  0.7546771E-02  0.1087939E+00
         21   -1    0    0  503  502  0.00000000000E+00  0.00000000000E+00  0.20661952981E+03  0.20661952981E+03  0.00000000000E+00 0.  1.
          2   -1    0    0  502    0 -0.00000000000E+00 -0.00000000000E+00 -0.97053375090E+03  0.97053375090E+03  0.00000000000E+00 0.  1.
         25    1    1    2    0    0  0.97856344676E+02  0.24824506437E+03  0.65598388564E+02  0.30187683707E+03  0.12500000000E+03 0.  0.
         21    1    1    2  503  501 -0.37907568714E+01 -0.93138974534E+02 -0.21016040478E+03  0.22990570709E+03  0.00000000000E+00 0.  1.
          2    1    1    2  501    0 -0.94065587804E+02 -0.15510608983E+03 -0.61935220488E+03  0.64537073655E+03  0.00000000000E+00 0.  1.
<mgrwt>
<rscale>  4 0.29466333E+03</rscale>
<asrwt>0</asrwt>
<pdfrwt beam="1">  1       21 0.31787620E-01 0.29466333E+03</pdfrwt>
<pdfrwt beam="2">  1        2 0.14931288E+00 0.29466333E+03</pdfrwt>
<totfact> 0.31894589E+03</totfact>
</mgrwt>
</event>
<event>
 5    0  0.2947253E-001  0.3084326E+03  0.7546771E-02  0.1081100E+00
         -2   -1    0    0    0  501 -0.00000000000E+00  0.00000000000E+00  0.39101259085E+03  0.39101259085E+03  0.00000000000E+00 0. -1.
         21   -1    0    0  501  502  0.00000000000E+00 -0.00000000000E+00 -0.64538619867E+03  0.64538619867E+03  0.00000000000E+00 0.  1.
         25    1    1    2    0    0  0.17935894427E+03  0.21756850169E+03 -0.54351357031E+03  0.62493014404E+03  0.12500000000E+03 0.  0.
         21    1    1    2  501  501 -0.61476492794E+02 -0.52842479489E+02  0.40069663810E+02  0.90428229899E+02  0.00000000000E+00 0.  1.
         -2    1    1    2    0  502 -0.11788245147E+03 -0.16472602220E+03  0.24907029867E+03  0.32104041558E+03  0.00000000000E+00 0. -1.
<mgrwt>
<rscale>  4 0.30843262E+03</rscale>
<asrwt>0</asrwt>
<pdfrwt beam="1">  1       21 0.99290184E-01 0.30843262E+03</pdfrwt>
<pdfrwt beam="2">  1       -2 0.60155784E-01 0.30843262E+03</pdfrwt>
<totfact> 0.16925365E+02</totfact>
</mgrwt>
</event>
<event>
 5    0  0.2947253E-001  0.2374263E+03  0.7546771E-02  0.1121519E+00
         21   -1    0    0  503  502  0.00000000000E+00  0.00000000000E+00  0.35335278088E+03  0.35335278088E+03  0.00000000000E+00 0.  1.
          2   -1    0    0  502    0 -0.00000000000E+00 -0.00000000000E+00 -0.91850152901E+03  0.91850152901E+03  0.00000000000E+00 0. -1.
         25    1    1    2    0    0 -0.19345410171E+02 -0.20092790646E+03  0.29920320509E+03  0.38196050375E+03  0.12500000000E+03 0.  0.
         21    1    1    2  503  501  0.70637639656E+01  0.26826829256E+02 -0.51306880469E+02  0.58326422081E+02  0.00000000000E+00 0.  1.
          2    1    1    2  501    0  0.12281646205E+02  0.17410107721E+03 -0.81304507274E+03  0.83156738406E+03  0.00000000000E+00 0. -1.
<mgrwt>
<rscale>  4 0.23742634E+03</rscale>
<asrwt>0</asrwt>
<pdfrwt beam="1">  1       21 0.54361967E-01 0.23742634E+03</pdfrwt>
<pdfrwt beam="2">  1        2 0.14130793E+00 0.23742634E+03</pdfrwt>
<totfact> 0.11712176E+03</totfact>
</mgrwt>
</event>
<event>
 5    0  0.2947253E-001  0.2572963E+03  0.7546771E-02  0.1108779E+00
         21   -1    0    0  503  502  0.00000000000E+00  0.00000000000E+00  0.15706007608E+03  0.15706007608E+03  0.00000000000E+00 0.  1.
          2   -1    0    0  502    0 -0.00000000000E+00 -0.00000000000E+00 -0.12886566888E+04  0.12886566888E+04  0.00000000000E+00 0. -1.
         25    1    1    2    0    0  0.67846894193E+02  0.24576176658E+03 -0.20167215399E+02  0.28466429973E+03  0.12500000000E+03 0.  0.
         21    1    1    2  503  501  0.40263086266E+02 -0.50952962912E+02 -0.67711266501E+02  0.93819700257E+02  0.00000000000E+00 0. -1.
          2    1    1    2  501    0 -0.10810998046E+03 -0.19480880367E+03 -0.10437181308E+04  0.10672327649E+04  0.00000000000E+00 0. -1.
<mgrwt>
<rscale>  4 0.25729633E+03</rscale>
<asrwt>0</asrwt>
<pdfrwt beam="1">  1       21 0.24163089E-01 0.25729633E+03</pdfrwt>
<pdfrwt beam="2">  1        2 0.19825487E+00 0.25729633E+03</pdfrwt>
<totfact> 0.35868764E+03</totfact>
</mgrwt>
</event>
<event>
 5    0  0.2947253E-001  0.2429231E+03  0.7546771E-02  0.1117861E+00
         21   -1    0    0  503  502  0.00000000000E+00  0.00000000000E+00  0.16593485850E+03  0.16593485850E+03  0.00000000000E+00 0.  1.
          2   -1    0    0  502    0 -0.00000000000E+00 -0.00000000000E+00 -0.62902255645E+03  0.62902255645E+03  0.00000000000E+00 0.  1.
         25    1    1    2    0    0 -0.56846083872E+02 -0.20038753020E+03  0.40819333343E+02  0.24632875895E+03  0.12500000000E+03 0.  0.
         21    1    1    2  503  501 -0.64991853280E+00  0.10321670833E+03 -0.21675286535E+03  0.24007481316E+03  0.00000000000E+00 0.  1.
          2    1    1    2  501    0  0.57496002405E+02  0.97170821871E+02 -0.28715416594E+03  0.30855384284E+03  0.00000000000E+00 0.  1.
<mgrwt>
<rscale>  4 0.24292311E+03</rscale>
<asrwt>0</asrwt>
<pdfrwt beam="1">  1       21 0.25528440E-01 0.24292311E+03</pdfrwt>
<pdfrwt beam="2">  1        2 0.96772701E-01 0.24292311E+03</pdfrwt>
<totfact> 0.86236267E+03</totfact>
</mgrwt>
</event>
<event>
 5    0  0.2947253E-001  0.3853116E+03  0.7546771E-02  0.1048988E+00
          1   -1    0    0  502    0 -0.00000000000E+00  0.00000000000E+00  0.87903382887E+03  0.87903382887E+03  0.00000000000E+00 0.  1.
         21   -1    0    0  503  502  0.00000000000E+00 -0.00000000000E+00 -0.35891218588E+03  0.35891218588E+03  0.00000000000E+00 0.  1.
         25    1    1    2    0    0  0.35722374231E+03 -0.72327403361E+02 -0.19141141227E+03  0.43023642814E+03  0.12500000000E+03 0.  0.
         21    1    1    2  503  501 -0.65930066129E+02 -0.44862975816E+01  0.57359005701E+02  0.87504034311E+02  0.00000000000E+00 0.  1.
          1    1    1    2  501    0 -0.29129367618E+03  0.76813700942E+02  0.65417404956E+03  0.72020555230E+03  0.00000000000E+00 0.  1.
<mgrwt>
<rscale>  4 0.38531163E+03</rscale>
<asrwt>0</asrwt>
<pdfrwt beam="1">  1       21 0.55217260E-01 0.38531163E+03</pdfrwt>
<pdfrwt beam="2">  1        1 0.13523597E+00 0.38531163E+03</pdfrwt>
<totfact> 0.63256043E+02</totfact>
</mgrwt>
</event>
<event>
 5    0  0.2947253E-001  0.2775494E+03  0.7546771E-02  0.1097035E+00
          2   -1    0    0  502    0 -0.00000000000E+00  0.00000000000E+00  0.56464754718E+03  0.56464754718E+03  0.00000000000E+00 0. -1.
         21   -1    0    0  503  502  0.00000000000E+00 -0.00000000000E+00 -0.23233058990E+03  0.23233058990E+03  0.00000000000E+00 0.  1.
         25    1    1    2    0    0  0.18036450226E+03 -0.22970984560E+03  0.49514590569E+02  0.32151930194E+03  0.12500000000E+03 0.  0.
         21    1    1    2  503  501  0.36644645816E+02  0.12861453337E+03  0.53748719958E+02  0.14412998701E+03  0.00000000000E+00 0.  1.
          2    1    1    2  501    0 -0.21700914808E+03  0.10109531223E+03  0.22905364676E+03  0.33132884812E+03  0.00000000000E+00 0. -1.
<mgrwt>
<rscale>  4 0.27754935E+03</rscale>
<asrwt>0</asrwt>
<pdfrwt beam="1">  1       21 0.35743168E-01 0.27754935E+03</pdfrwt>
<pdfrwt beam="2">  1        2 0.86868853E-01 0.27754935E+03</pdfrwt>
<totfact> 0.50054698E+03</totfact>
</mgrwt>
</event>
<event>
 5    0  0.2947253E-001  0.2479916E+03  0.7546771E-02  0.1114581E+00
         21   -1    0    0  503  502  0.00000000000E+00  0.00000000000E+00  0.49735589714E+02  0.49735589714E+02  0.00000000000E+00 0. -1.
          2   -1    0    0  502    0 -0.00000000000E+00 -0.00000000000E+00 -0.16571513355E+04  0.16571513355E+04  0.00000000000E+00 0.  1.
         25    1    1    2    0    0 -0.83372339691E+02  0.20263877349E+03 -0.37175956107E+03  0.44927006443E+03  0.12500000000E+03 0.  0.
         21    1    1    2  503  501 -0.15398287381E+02 -0.25546291481E+02 -0.21006316041E+03  0.21217033634E+03  0.00000000000E+00 0. -1.
          2    1    1    2  501    0  0.98770627072E+02 -0.17709248201E+03 -0.10255930243E+04  0.10454465245E+04  0.00000000000E+00 0.  1.
<mgrwt>
<rscale>  4 0.24799159E+03</rscale>
<asrwt>0</asrwt>
<pdfrwt beam="1">  1       21 0.76516295E-02 0.24799159E+03</pdfrwt>
<pdfrwt beam="2">  1        2 0.25494635E+00 0.24799159E+03</pdfrwt>
<totfact> 0.18518631E+04</totfact>
</mgrwt>
</event>
<event>
 5    0  0.2947253E-001  0.2329718E+03  0.7546771E-02  0.1124565E+00
         -3   -1    0    0    0  501 -0.00000000000E+00  0.00000000000E+00  0.20414467024E+03  0.20414467024E+03  0.00000000000E+00 0.  1.
         21   -1    0    0  501  502  0.00000000000E+00 -0.00000000000E+00 -0.54381000589E+03  0.54381000589E+03  0.00000000000E+00 0. -1.
         25    1    1    2    0    0  0.28857402720E+02  0.20176098452E+03 -0.44345191304E+03  0.50380040070E+03  0.12500000000E+03 0.  0.
         21    1    1    2  501  501 -0.11647280677E+02 -0.32374034554E+02  0.58678232182E+02  0.68021115784E+02  0.00000000000E+00 0.  1.
         -3    1    1    2    0  502 -0.17210122043E+02 -0.16938694997E+03  0.45108345207E+02  0.17613315965E+03  0.00000000000E+00 0.  1.
<mgrwt>
<rscale>  4 0.23297175E+03</rscale>
<asrwt>0</asrwt>
<pdfrwt beam="1">  1       21 0.83663078E-01 0.23297175E+03</pdfrwt>
<pdfrwt beam="2">  1       -3 0.31406872E-01 0.23297175E+03</pdfrwt>
<totfact> 0.59904504E+02</totfact>
</mgrwt>
</event>
<event>
 5    0  0.2947253E-001  0.2978105E+03  0.7546771E-02  0.1086340E+00
          1   -1    0    0  502    0 -0.00000000000E+00  0.00000000000E+00  0.23582139105E+04  0.23582139105E+04  0.00000000000E+00 0.  1.
         21   -1    0    0  503  502  0.00000000000E+00 -0.00000000000E+00 -0.10853552598E+03  0.10853552598E+03  0.00000000000E+00 0. -1.
         25    1    1    2    0    0  0.23773607940E+03 -0.14282494463E+03  0.14075421547E+03  0.33519271685E+03  0.12500000000E+03 0.  0.
         21    1    1    2  503  501 -0.29111773348E+02  0.69723203819E+02  0.30876970250E+03  0.31787977237E+03  0.00000000000E+00 0. -1.
          1    1    1    2  501    0 -0.20862430606E+03  0.73101740811E+02  0.18001544665E+04  0.18136769472E+04  0.00000000000E+00 0.  1.
<mgrwt>
<rscale>  4 0.29781053E+03</rscale>
<asrwt>0</asrwt>
<pdfrwt beam="1">  1       21 0.16697775E-01 0.29781053E+03</pdfrwt>
<pdfrwt beam="2">  1        1 0.36280210E+00 0.29781053E+03</pdfrwt>
<totfact> 0.68711653E+02</totfact>
</mgrwt>
</event>
<event>
 5    0  0.2947253E-001  0.3345712E+03  0.7546771E-02  0.1069132E+00
         21   -1    0    0  501  502  0.00000000000E+00  0.00000000000E+00  0.64450071127E+03  0.64450071127E+03  0.00000000000E+00 0.  1.
         -2   -1    0    0    0  501 -0.00000000000E+00 -0.00000000000E+00 -0.17338554755E+03  0.17338554755E+03  0.00000000000E+00 0.  1.
         25    1    1    2    0    0  0.19201999634E+03  0.24380571703E+03  0.20616190422E+03  0.39298936042E+03  0.12500000000E+03 0.  0.
         21    1    1    2  501  501 -0.46300276161E+02 -0.13113706730E+03  0.16336549179E+03  0.21454353847E+03  0.00000000000E+00 0.  1.
         -2    1    1    2    0  502 -0.14571972018E+03 -0.11266864973E+03  0.10158776771E+03  0.21035335992E+03  0.00000000000E+00 0.  1.
<mgrwt>
<rscale>  4 0.33457123E+03</rscale>
<asrwt>0</asrwt>
<pdfrwt beam="1">  1       21 0.99153955E-01 0.33457123E+03</pdfrwt>
<pdfrwt beam="2">  1       -2 0.26674700E-01 0.33457123E+03</pdfrwt>
<totfact> 0.80879972E+02</totfact>
</mgrwt>
</event>
<event>
 5    0  0.2947253E-001  0.2685230E+03  0.7546771E-02  0.1102128E+00
          1   -1    0    0  502    0 -0.00000000000E+00  0.00000000000E+00  0.38188427858E+03  0.38188427858E+03  0.00000000000E+00 0.  1.
         21   -1    0    0  503  502  0.00000000000E+00 -0.00000000000E+00 -0.70054606275E+03  0.70054606275E+03  0.00000000000E+00 0.  1.
         25    1    1    2    0    0 -0.57694987369E+02  0.23054479943E+03 -0.63199232155E+03  0.68667234589E+03  0.12500000000E+03 0.  0.
         21    1    1    2  503  501  0.31486858564E+02 -0.51779161611E+02  0.89863307484E+02  0.10838781237E+03  0.00000000000E+00 0.  1.
          1    1    1    2  501    0  0.26208128805E+02 -0.17876563782E+03  0.22346722990E+03  0.28737018307E+03  0.00000000000E+00 0.  1.
<mgrwt>
<rscale>  4 0.26852303E+03</rscale>
<asrwt>0</asrwt>
<pdfrwt beam="1">  1       21 0.10777632E+00 0.26852303E+03</pdfrwt>
<pdfrwt beam="2">  1        1 0.58751428E-01 0.26852303E+03</pdfrwt>
<totfact> 0.46549323E+02</totfact>
</mgrwt>
</event>
<event>
 5    0  0.2947253E-001  0.3359019E+03  0.7546771E-02  0.1068555E+00
          2   -1    0    0  502    0 -0.00000000000E+00  0.00000000000E+00  0.12136543348E+04  0.12136543348E+04  0.00000000000E+00 0. -1.
         21   -1    0    0  503  502  0.00000000000E+00 -0.00000000000E+00 -0.87683866446E+02  0.87683866446E+02  0.00000000000E+00 0.  1.
         25    1    1    2    0    0  0.21724451424E+03 -0.22362889382E+03  0.59067834147E+03  0.67950788384E+03  0.12500000000E+03 0.  0.
         21    1    1    2  503  501 -0.18092892183E+03  0.19770259105E+03  0.42015225070E+03  0.49834676986E+03  0.00000000000E+00 0. -1.
          2    1    1    2  501    0 -0.36315592408E+02  0.25926302776E+02  0.11513987622E+03  0.12348354758E+03  0.00000000000E+00 0. -1.
<mgrwt>
<rscale>  4 0.33590186E+03</rscale>
<asrwt>0</asrwt>
<pdfrwt beam="1">  1       21 0.13489826E-01 0.33590186E+03</pdfrwt>
<pdfrwt beam="2">  1        2 0.18671604E+00 0.33590186E+03</pdfrwt>
<totfact> 0.11509031E+04</totfact>
</mgrwt>
</event>
<event>
 5    0  0.2947253E-001  0.2571439E+03  0.7546771E-02  0.1108871E+00
          2   -1    0    0  502    0 -0.00000000000E+00  0.00000000000E+00  0.23790870123E+04  0.23790870123E+04  0.00000000000E+00 0. -1.
         21   -1    0    0  503  502  0.00000000000E+00 -0.00000000000E+00 -0.94578753254E+02  0.94578753254E+02  0.00000000000E+00 0. -1.
         25    1    1    2    0    0  0.22647349666E+03 -0.18026422426E+02  0.10758785360E+03  0.28074070392E+03  0.12500000000E+03 0.  0.
         21    1    1    2  503  501 -0.26563318308E+02  0.29607148838E+02  0.12312381627E+03  0.12938959493E+03  0.00000000000E+00 0. -1.
          2    1    1    2  501    0 -0.19991017836E+03 -0.11580726413E+02  0.20537965892E+04  0.20635354667E+04  0.00000000000E+00 0. -1.
<mgrwt>
<rscale>  4 0.25714387E+03</rscale>
<asrwt>0</asrwt>
<pdfrwt beam="1">  1       21 0.14550579E-01 0.25714387E+03</pdfrwt>
<pdfrwt beam="2">  1        2 0.36601334E+00 0.25714387E+03</pdfrwt>
<totfact> 0.24361907E+03</totfact>
</mgrwt>
</event>
<event>
 5    0  0.2947253E-001  0.6191242E+03  0.7546771E-02  0.9866505E-01
         21   -1    0    0  503  502  0.00000000000E+00  0.00000000000E+00  0.21884595539E+03  0.21884595539E+03  0.00000000000E+00 0.  1.
          2   -1    0    0  502    0 -0.00000000000E+00 -0.00000000000E+00 -0.19508644566E+04  0.19508644566E+04  0.00000000000E+00 0.  1.
         25    1    1    2    0    0 -0.91656150096E+02  0.59940713757E+03 -0.12292784010E+04  0.13763866294E+04  0.12500000000E+03 0.  0.
         21    1    1    2  503  501 -0.19266412634E+02 -0.61451577467E+02 -0.54548116439E+02  0.84397796393E+02  0.00000000000E+00 0.  1.
          2    1    1    2  501    0  0.11092256273E+03 -0.53795556010E+03 -0.44819198373E+03  0.70892598616E+03  0.00000000000E+00 0.  1.
<mgrwt>
<rscale>  4 0.61912419E+03</rscale>
<asrwt>0</asrwt>
<pdfrwt beam="1">  1       21 0.33668608E-01 0.61912419E+03</pdfrwt>
<pdfrwt beam="2">  1        2 0.30013300E+00 0.61912419E+03</pdfrwt>
<totfact> 0.73844433E+02</totfact>
</mgrwt>
</event>
<event>
 5    0  0.2947253E-001  0.3139762E+03  0.7546771E-02  0.1078456E+00
          2   -1    0    0  502    0 -0.00000000000E+00  0.00000000000E+00  0.37915893548E+04  0.37915893548E+04  0.00000000000E+00 0. -1.
         21   -1    0    0  503  502  0.00000000000E+00 -0.00000000000E+00 -0.28181138350E+02  0.28181138350E+02  0.00000000000E+00 0.  1.
         25    1    1    2    0    0  0.19049521883E+03 -0.23721476383E+03  0.16917395058E+04  0.17234171950E+04  0.12500000000E+03 0.  0.
         21    1    1    2  503  501 -0.23861768852E+02  0.20831973263E+02  0.51005914332E+03  0.51104176425E+03  0.00000000000E+00 0. -1.
          2    1    1    2  501    0 -0.16663344998E+03  0.21638279057E+03  0.15616095673E+04  0.15853115339E+04  0.00000000000E+00 0. -1.
<mgrwt>
<rscale>  4 0.31397616E+03</rscale>
<asrwt>0</asrwt>
<pdfrwt beam="1">  1       21 0.43355628E-02 0.31397616E+03</pdfrwt>
<pdfrwt beam="2">  1        2 0.58332103E+00 0.31397616E+03</pdfrwt>
<totfact> 0.27214624E+03</totfact>
</mgrwt>
</event>
<event>
 5    0  0.2947253E-001  0.2349800E+03  0.7546771E-02  0.1123183E+00
         21   -1    0    0  501  502  0.00000000000E+00  0.00000000000E+00  0.16561388902E+03  0.16561388902E+03  0.00000000000E+00 0. -1.
         -2   -1    0    0    0  501 -0.00000000000E+00 -0.00000000000E+00 -0.67167936535E+03  0.67167936535E+03  0.00000000000E+00 0.  1.
         25    1    1    2    0    0 -0.23067509974E+03 -0.11680973407E+02 -0.35991480604E+01  0.26265071987E+03  0.12500000000E+03 0.  0.
         21    1    1    2  501  501  0.11842338121E+03 -0.65877711216E+02 -0.18703908500E+03  0.23097097084E+03  0.00000000000E+00 0. -1.
         -2    1    1    2    0  502  0.11225171853E+03  0.77558684624E+02 -0.31542724327E+03  0.34367156366E+03  0.00000000000E+00 0.  1.
<mgrwt>
<rscale>  4 0.23498001E+03</rscale>
<asrwt>0</asrwt>
<pdfrwt beam="1">  1       21 0.25479060E-01 0.23498001E+03</pdfrwt>
<pdfrwt beam="2">  1       -2 0.10333529E+00 0.23498001E+03</pdfrwt>
<totfact> 0.94125857E+02</totfact>
</mgrwt>
</event>
<event>
 5    0  0.2947253E-001  0.2445902E+03  0.7546771E-02  0.1116772E+00
          1   -1    0    0  502    0 -0.00000000000E+00  0.00000000000E+00  0.29676355753E+03  0.29676355753E+03  0.00000000000E+00 0. -1.
         21   -1    0    0  503  502  0.00000000000E+00 -0.00000000000E+00 -0.59516031709E+03  0.59516031709E+03  0.00000000000E+00 0.  1.
         25    1    1    2    0    0 -0.21159419635E+03  0.50620771344E+02 -0.46751262722E+03  0.53059176683E+03  0.12500000000E+03 0.  0.
         21    1    1    2  503  501  0.43907473800E+02 -0.84187285836E+02 -0.29320256587E+02  0.99373249913E+02  0.00000000000E+00 0.  1.
          1    1    1    2  501    0  0.16768672255E+03  0.33566514491E+02  0.19843612425E+03  0.26195885788E+03  0.00000000000E+00 0. -1.
<mgrwt>
<rscale>  4 0.24459021E+03</rscale>
<asrwt>0</asrwt>
<pdfrwt beam="1">  1       21 0.91563124E-01 0.24459021E+03</pdfrwt>
<pdfrwt beam="2">  1        1 0.45655933E-01 0.24459021E+03</pdfrwt>
<totfact> 0.95644390E+02</totfact>
</mgrwt>
</event>
<event>
 5    0  0.2947253E-001  0.2544117E+03  0.7546771E-02  0.1110548E+00
          4   -1    0    0  502    0 -0.00000000000E+00  0.00000000000E+00  0.44978927095E+03  0.44978927095E+03  0.00000000000E+00 0.  1.
         21   -1    0    0  503  502  0.00000000000E+00 -0.00000000000E+00 -0.15991825082E+03  0.15991825082E+03  0.00000000000E+00 0.  1.
         25    1    1    2    0    0 -0.21790732784E+03 -0.40208134033E+02  0.19697868949E+02  0.25517308559E+03  0.12500000000E+03 0.  0.
         21    1    1    2  503  501  0.67022144221E+02 -0.44387978738E+01  0.49194000353E+02  0.83256954144E+02  0.00000000000E+00 0.  1.
          4    1    1    2  501    0  0.15088518361E+03  0.44646931906E+02  0.22097915083E+03  0.27127748204E+03  0.00000000000E+00 0.  1.
<mgrwt>
<rscale>  4 0.25441167E+03</rscale>
<asrwt>0</asrwt>
<pdfrwt beam="1">  1       21 0.24602808E-01 0.25441167E+03</pdfrwt>
<pdfrwt beam="2">  1        4 0.69198349E-01 0.25441167E+03</pdfrwt>
<totfact> 0.12864187E+03</totfact>
</mgrwt>
</event>
<event>
 5    0  0.2947253E-001  0.2650829E+03  0.7546771E-02  0.1104127E+00
         21   -1    0    0  503  502  0.00000000000E+00  0.00000000000E+00  0.28406065476E+02  0.28406065476E+02  0.00000000000E+00 0. -1.
          1   -1    0    0  502    0 -0.00000000000E+00 -0.00000000000E+00 -0.36111693607E+04  0.36111693607E+04  0.00000000000E+00 0. -1.
         25    1    1    2    0    0 -0.30350748377E+02  0.23178170636E+03 -0.74703138815E+03  0.79266942808E+03  0.12500000000E+03 0.  0.
         21    1    1    2  503  501  0.36081914351E+01 -0.76403233502E+02 -0.49546607905E+03  0.50133532553E+03  0.00000000000E+00 0. -1.
          1    1    1    2  501    0  0.26742556942E+02 -0.15537847286E+03 -0.23402658280E+04  0.23455706726E+04  0.00000000000E+00 0. -1.
<mgrwt>
<rscale>  4 0.26508287E+03</rscale>
<asrwt>0</asrwt>
<pdfrwt beam="1">  1       21 0.43701626E-02 0.26508287E+03</pdfrwt>
<pdfrwt beam="2">  1        1 0.55556469E+00 0.26508287E+03</pdfrwt>
<totfact> 0.97624993E+02</totfact>
</mgrwt>
</event>
<event>
 5    0  0.2947253E-001  0.3038362E+03  0.7546771E-02  0.1083338E+00
         21   -1    0    0  501  502  0.00000000000E+00  0.00000000000E+00  0.17184358831E+03  0.17184358831E+03  0.00000000000E+00 0.  1.
         -1   -1    0    0    0  501 -0.00000000000E+00 -0.00000000000E+00 -0.79840942420E+03  0.79840942420E+03  0.00000000000E+00 0.  1.
         25    1    1    2    0    0 -0.11992671463E+03  0.25261424003E+03 -0.58355462567E+03  0.65905794304E+03  0.12500000000E+03 0.  0.
         21    1    1    2  501  501 -0.27480945730E+02 -0.26050309493E+02 -0.70550585462E+01  0.38517461676E+02  0.00000000000E+00 0. -1.
         -1    1    1    2    0  502  0.14740766036E+03 -0.22656393054E+03 -0.35956151671E+02  0.27267760780E+03  0.00000000000E+00 0.  1.
<mgrwt>
<rscale>  4 0.30383622E+03</rscale>
<asrwt>0</asrwt>
<pdfrwt beam="1">  1       21 0.26437475E-01 0.30383622E+03</pdfrwt>
<pdfrwt beam="2">  1       -1 0.12283222E+00 0.30383622E+03</pdfrwt>
<totfact> 0.77141827E+02</totfact>
</mgrwt>
</event>
<event>
 5    0  0.4445182E-001  0.3278245E+03  0.7546771E-02  0.1072104E+00
         21   -1    0    0  503  502  0.00000000000E+00  0.00000000000E+00  0.15285888532E+03  0.15285888532E+03  0.00000000000E+00 0.  1.
          1   -1    0    0  502    0 -0.00000000000E+00 -0.00000000000E+00 -0.11013507622E+04  0.11013507622E+04  0.00000000000E+00 0.  1.
         25    1    1    2    0    0 -0.74369949830E+02 -0.30735572982E+03 -0.11784510316E+03  0.35987623210E+03  0.12500000000E+03 0.  0.
         21    1    1    2  503  501 -0.77028708289E+01  0.18600312409E+02 -0.14730826271E+02  0.24946003355E+02  0.00000000000E+00 0.  1.
          1    1    1    2  501    0  0.82072820659E+02  0.28875541741E+03 -0.81591594748E+03  0.86938741210E+03  0.00000000000E+00 0.  1.
<mgrwt>
<rscale>  4 0.32782445E+03</rscale>
<asrwt>0</asrwt>
<pdfrwt beam="1">  1       21 0.23516751E-01 0.32782445E+03</pdfrwt>
<pdfrwt beam="2">  1        1 0.16943858E+00 0.32782445E+03</pdfrwt>
<totfact> 0.24555963E+03</totfact>
</mgrwt>
</event>
<event>
 5    0  0.2947253E-001  0.2415872E+03  0.7546771E-02  0.1118740E+00
          2   -1    0    0  502    0 -0.00000000000E+00  0.00000000000E+00  0.62441565850E+03  0.62441565850E+03  0.00000000000E+00 0.  1.
         21   -1    0    0  503  502  0.00000000000E+00 -0.00000000000E+00 -0.16228849822E+03  0.16228849822E+03  0.00000000000E+00 0.  1.
         25    1    1    2    0    0  0.93967017227E+02 -0.18414548892E+03 -0.33636154560E+02  0.24391751128E+03  0.12500000000E+03 0.  0.
         21    1    1    2  503  501  0.78739351452E+01  0.58112302610E+02  0.14474118613E+03  0.15616993799E+03  0.00000000000E+00 0.  1.
          2    1    1    2  501    0 -0.10184095237E+03  0.12603318631E+03  0.35102212872E+03  0.38661670745E+03  0.00000000000E+00 0.  1.
<mgrwt>
<rscale>  4 0.24158717E+03</rscale>
<asrwt>0</asrwt>
<pdfrwt beam="1">  1       21 0.24967462E-01 0.24158717E+03</pdfrwt>
<pdfrwt beam="2">  1        2 0.96063946E-01 0.24158717E+03</pdfrwt>
<totfact> 0.90807937E+03</totfact>
</mgrwt>
</event>
<event>
 5    0  0.2947253E-001  0.2565434E+03  0.7546771E-02  0.1109238E+00
          1   -1    0    0  502    0 -0.00000000000E+00  0.00000000000E+00  0.18817095215E+04  0.18817095215E+04  0.00000000000E+00 0.  1.
         21   -1    0    0  503  502  0.00000000000E+00 -0.00000000000E+00 -0.21226355686E+03  0.21226355686E+03  0.00000000000E+00 0.  1.
         25    1    1    2    0    0  0.22008576914E+03  0.42988799369E+02 -0.12092620701E+03  0.28378500699E+03  0.12500000000E+03 0.  0.
         21    1    1    2  503  501 -0.12466416449E+02  0.39938919979E+02  0.21523575633E+03  0.21926458827E+03  0.00000000000E+00 0.  1.
          1    1    1    2  501    0 -0.20761935269E+03 -0.82927719348E+02  0.15751364153E+04  0.15909234831E+04  0.00000000000E+00 0.  1.
<mgrwt>
<rscale>  4 0.25654339E+03</rscale>
<asrwt>0</asrwt>
<pdfrwt beam="1">  1       21 0.32655933E-01 0.25654339E+03</pdfrwt>
<pdfrwt beam="2">  1        1 0.28949376E+00 0.25654339E+03</pdfrwt>
<totfact> 0.39786618E+02</totfact>
</mgrwt>
</event>
<event>
 5    0  0.2947253E-001  0.2857670E+03  0.7546771E-02  0.1092580E+00
          2   -1    0    0  502    0 -0.00000000000E+00  0.00000000000E+00  0.66823599635E+03  0.66823599635E+03  0.00000000000E+00 0. -1.
         21   -1    0    0  503  502  0.00000000000E+00 -0.00000000000E+00 -0.38356912929E+03  0.38356912929E+03  0.00000000000E+00 0.  1.
         25    1    1    2    0    0  0.26342925842E+02  0.25562435115E+03 -0.29635732286E+03  0.41169214403E+03  0.12500000000E+03 0.  0.
         21    1    1    2  503  501  0.20632280364E+02 -0.90490873295E+02  0.15314298298E+03  0.17907278514E+03  0.00000000000E+00 0. -1.
          2    1    1    2  501    0 -0.46975206206E+02 -0.16513347786E+03  0.42788120694E+03  0.46104019647E+03  0.00000000000E+00 0. -1.
<mgrwt>
<rscale>  4 0.28576697E+03</rscale>
<asrwt>0</asrwt>
<pdfrwt beam="1">  1       21 0.59010635E-01 0.28576697E+03</pdfrwt>
<pdfrwt beam="2">  1        2 0.10280554E+00 0.28576697E+03</pdfrwt>
<totfact> 0.14429524E+03</totfact>
</mgrwt>
</event>
<event>
 5    0  0.2947253E-001  0.2352478E+03  0.7546771E-02  0.1123000E+00
         21   -1    0    0  503  502  0.00000000000E+00  0.00000000000E+00  0.23938944319E+03  0.23938944319E+03  0.00000000000E+00 0. -1.
          2   -1    0    0  502    0 -0.00000000000E+00 -0.00000000000E+00 -0.64270473426E+03  0.64270473426E+03  0.00000000000E+00 0.  1.
         25    1    1    2    0    0 -0.84239140756E+02  0.19805183029E+03  0.13774643073E+03  0.28446412690E+03  0.12500000000E+03 0.  0.
         21    1    1    2  503  501 -0.96887058529E+01 -0.23721268722E+02 -0.49263358728E+01  0.26092880179E+02  0.00000000000E+00 0. -1.
          2    1    1    2  501    0  0.93927846609E+02 -0.17433056157E+03 -0.53613538593E+03  0.57153717037E+03  0.00000000000E+00 0.  1.
<mgrwt>
<rscale>  4 0.23524784E+03</rscale>
<asrwt>0</asrwt>
<pdfrwt beam="1">  1       21 0.36829146E-01 0.23524784E+03</pdfrwt>
<pdfrwt beam="2">  1        2 0.98877648E-01 0.23524784E+03</pdfrwt>
<totfact> 0.41010669E+03</totfact>
</mgrwt>
</event>
<event>
 5    0  0.2947253E-001  0.2831399E+03  0.7546771E-02  0.1093986E+00
          2   -1    0    0  502    0 -0.00000000000E+00  0.00000000000E+00  0.63442483493E+03  0.63442483493E+03  0.00000000000E+00 0.  1.
         21   -1    0    0  503  502  0.00000000000E+00 -0.00000000000E+00 -0.22018173942E+03  0.22018173942E+03  0.00000000000E+00 0. -1.
         25    1    1    2    0    0  0.22257567223E+01 -0.25404375921E+03 -0.79257400680E+02  0.29402367447E+03  0.12500000000E+03 0.  0.
         21    1    1    2  503  501  0.19738173449E+02  0.30197824237E+02  0.36982770327E+02  0.51664585363E+02  0.00000000000E+00 0. -1.
          2    1    1    2  501    0 -0.21963930171E+02  0.22384593497E+03  0.45651772585E+03  0.50891831452E+03  0.00000000000E+00 0.  1.
<mgrwt>
<rscale>  4 0.28313987E+03</rscale>
<asrwt>0</asrwt>
<pdfrwt beam="1">  1       21 0.33874114E-01 0.28313987E+03</pdfrwt>
<pdfrwt beam="2">  1        2 0.97603820E-01 0.28313987E+03</pdfrwt>
<totfact> 0.48569690E+03</totfact>
</mgrwt>
</event>
<event>
 5    0  0.2947253E-001  0.2447223E+03  0.7546771E-02  0.1116686E+00
         21   -1    0    0  503  502  0.00000000000E+00  0.00000000000E+00  0.50224211543E+03  0.50224211543E+03  0.00000000000E+00 0.  1.
          3   -1    0    0  502    0 -0.00000000000E+00 -0.00000000000E+00 -0.22906643018E+03  0.22906643018E+03  0.00000000000E+00 0.  1.
         25    1    1    2    0    0  0.12234959478E+03 -0.18337668434E+03  0.20530475669E+03  0.32614640091E+03  0.12500000000E+03 0.  0.
         21    1    1    2  503  501  0.10369245661E+03  0.12877425991E+03  0.45883618403E+02  0.17158158995E+03  0.00000000000E+00 0.  1.
          3    1    1    2  501    0 -0.22604205139E+03  0.54602424426E+02  0.21987310153E+02  0.23358055475E+03  0.00000000000E+00 0.  1.
<mgrwt>
<rscale>  4 0.24472225E+03</rscale>
<asrwt>0</asrwt>
<pdfrwt beam="1">  1       21 0.77268018E-01 0.24472225E+03</pdfrwt>
<pdfrwt beam="2">  1        3 0.35240989E-01 0.24472225E+03</pdfrwt>
<totfact> 0.57575692E+02</totfact>
</mgrwt>
</event>
<event>
 5    0  0.2947253E-001  0.3197481E+03  0.7546771E-02  0.1075765E+00
          1   -1    0    0  502    0 -0.00000000000E+00  0.00000000000E+00  0.36943044214E+03  0.36943044214E+03  0.00000000000E+00 0.  1.
         21   -1    0    0  503  502  0.00000000000E+00 -0.00000000000E+00 -0.55401294440E+03  0.55401294440E+03  0.00000000000E+00 0.  1.
         25    1    1    2    0    0  0.37410919937E+03 -0.11368486515E+03 -0.14372882049E+03  0.43493093182E+03  0.12500000000E+03 0.  0.
         21    1    1    2  503  501 -0.13038582823E+03  0.58477176528E+02  0.12394900198E+03  0.18916500594E+03  0.00000000000E+00 0.  1.
          1    1    1    2  501    0 -0.24372337114E+03  0.55207688627E+02 -0.16480268374E+03  0.29934744878E+03  0.00000000000E+00 0.  1.
<mgrwt>
<rscale>  4 0.31974806E+03</rscale>
<asrwt>0</asrwt>
<pdfrwt beam="1">  1       21 0.85232760E-01 0.31974806E+03</pdfrwt>
<pdfrwt beam="2">  1        1 0.56835453E-01 0.31974806E+03</pdfrwt>
<totfact> 0.83196963E+02</totfact>
</mgrwt>
</event>
<event>
 5    0  0.2947253E-001  0.2424890E+03  0.7546771E-02  0.1118146E+00
         21   -1    0    0  503  502  0.00000000000E+00  0.00000000000E+00  0.99719272472E+02  0.99719272472E+02  0.00000000000E+00 0.  1.
          1   -1    0    0  502    0 -0.00000000000E+00 -0.00000000000E+00 -0.27769906651E+04  0.27769906651E+04  0.00000000000E+00 0. -1.
         25    1    1    2    0    0 -0.20810530339E+02 -0.20674341045E+03 -0.59787089361E+02  0.24975069968E+03  0.12500000000E+03 0.  0.
         21    1    1    2  503  501  0.32259221052E+02  0.90236689378E+02 -0.80211293415E+03  0.80781710589E+03  0.00000000000E+00 0. -1.
          1    1    1    2  501    0 -0.11448690713E+02  0.11650672107E+03 -0.18153713691E+04  0.18191421320E+04  0.00000000000E+00 0. -1.
<mgrwt>
<rscale>  4 0.24248900E+03</rscale>
<asrwt>0</asrwt>
<pdfrwt beam="1">  1       21 0.15341428E-01 0.24248900E+03</pdfrwt>
<pdfrwt beam="2">  1        1 0.42722928E+00 0.24248900E+03</pdfrwt>
<totfact> 0.43419844E+02</totfact>
</mgrwt>
</event>
<event>
 5    0  0.2947253E-001  0.2767402E+03  0.7546771E-02  0.1097483E+00
         -4   -1    0    0    0  501 -0.00000000000E+00  0.00000000000E+00  0.93784409994E+03  0.93784409994E+03  0.00000000000E+00 0.  1.
         21   -1    0    0  501  502  0.00000000000E+00 -0.00000000000E+00 -0.17393012344E+03  0.17393012344E+03  0.00000000000E+00 0.  1.
         25    1    1    2    0    0 -0.97326250208E+02 -0.22738433133E+03 -0.15826967740E+02  0.27758156643E+03  0.12500000000E+03 0.  0.
         21    1    1    2  501  501  0.11746580694E+03  0.21601287158E+03  0.54008866865E+03  0.59342695127E+03  0.00000000000E+00 0.  1.
         -4    1    1    2    0  502 -0.20139556735E+02  0.11371459748E+02  0.23965227559E+03  0.24076570569E+03  0.00000000000E+00 0.  1.
<mgrwt>
<rscale>  4 0.27674020E+03</rscale>
<asrwt>0</asrwt>
<pdfrwt beam="1">  1       21 0.26758481E-01 0.27674020E+03</pdfrwt>
<pdfrwt beam="2">  1       -4 0.14428371E+00 0.27674020E+03</pdfrwt>
<totfact> 0.19360395E+02</totfact>
</mgrwt>
</event>
<event>
 5    0  0.2947253E-001  0.2502768E+03  0.7546771E-02  0.1113130E+00
          2   -1    0    0  502    0 -0.00000000000E+00  0.00000000000E+00  0.24454478394E+04  0.24454478394E+04  0.00000000000E+00 0. -1.
         21   -1    0    0  503  502  0.00000000000E+00 -0.00000000000E+00 -0.30685213784E+02  0.30685213784E+02  0.00000000000E+00 0.  1.
         25    1    1    2    0    0  0.20052898959E+03 -0.98988814659E+02  0.70895409200E+03  0.75382462527E+03  0.12500000000E+03 0.  0.
         21    1    1    2  503  501 -0.11348251292E+02  0.20643429696E+02  0.38522721998E+03  0.38594681629E+03  0.00000000000E+00 0.  1.
          2    1    1    2  501    0 -0.18918073830E+03  0.78345384963E+02  0.13205813136E+04  0.13363616116E+04  0.00000000000E+00 0. -1.
<mgrwt>
<rscale>  4 0.25027678E+03</rscale>
<asrwt>0</asrwt>
<pdfrwt beam="1">  1       21 0.47208040E-02 0.25027678E+03</pdfrwt>
<pdfrwt beam="2">  1        2 0.37622259E+00 0.25027678E+03</pdfrwt>
<totfact> 0.16279888E+04</totfact>
</mgrwt>
</event>
<event>
 5    0  0.2947253E-001  0.3018006E+03  0.7546771E-02  0.1084344E+00
          1   -1    0    0  502    0 -0.00000000000E+00  0.00000000000E+00  0.92753213339E+03  0.92753213339E+03  0.00000000000E+00 0. -1.
         21   -1    0    0  503  502  0.00000000000E+00 -0.00000000000E+00 -0.16451057963E+03  0.16451057963E+03  0.00000000000E+00 0. -1.
         25    1    1    2    0    0 -0.67146204091E+02 -0.26636438379E+03  0.75502710042E+03  0.81311101335E+03  0.12500000000E+03 0.  0.
         21    1    1    2  503  501  0.24707312223E+02  0.41520682313E+02 -0.10252100751E+02  0.49391536793E+02  0.00000000000E+00 0.  1.
          1    1    1    2  501    0  0.42438891868E+02  0.22484370147E+03  0.18246554093E+02  0.22954016287E+03  0.00000000000E+00 0. -1.
<mgrwt>
<rscale>  4 0.30180059E+03</rscale>
<asrwt>0</asrwt>
<pdfrwt beam="1">  1       21 0.25309321E-01 0.30180059E+03</pdfrwt>
<pdfrwt beam="2">  1        1 0.14269725E+00 0.30180059E+03</pdfrwt>
<totfact> 0.29006671E+03</totfact>
</mgrwt>
</event>
<event>
 5    0  0.2947253E-001  0.2378515E+03  0.7546771E-02  0.1121232E+00
         21   -1    0    0  503  502  0.00000000000E+00  0.00000000000E+00  0.11707237314E+03  0.11707237314E+03  0.00000000000E+00 0. -1.
          3   -1    0    0  502    0 -0.00000000000E+00 -0.00000000000E+00 -0.43738956750E+03  0.43738956750E+03  0.00000000000E+00 0. -1.
         25    1    1    2    0    0  0.68810021867E+02 -0.19029854643E+03 -0.20736443842E+03  0.31555247774E+03  0.12500000000E+03 0.  0.
         21    1    1    2  503  501 -0.58857067649E+01  0.28027051050E+02  0.44319506069E+01  0.28979291242E+02  0.00000000000E+00 0. -1.
          3    1    1    2  501    0 -0.62924315102E+02  0.16227149538E+03 -0.11738470654E+03  0.20993017166E+03  0.00000000000E+00 0. -1.
<mgrwt>
<rscale>  4 0.23785154E+03</rscale>
<asrwt>0</asrwt>
<pdfrwt beam="1">  1       21 0.18011134E-01 0.23785154E+03</pdfrwt>
<pdfrwt beam="2">  1        3 0.67290703E-01 0.23785154E+03</pdfrwt>
<totfact> 0.30033926E+03</totfact>
</mgrwt>
</event>
<event>
 5    0  0.2947253E-001  0.3229697E+03  0.7546771E-02  0.1074291E+00
         21   -1    0    0  503  502  0.00000000000E+00  0.00000000000E+00  0.55478135612E+02  0.55478135612E+02  0.00000000000E+00 0.  1.
          1   -1    0    0  502    0 -0.00000000000E+00 -0.00000000000E+00 -0.18390368310E+04  0.18390368310E+04  0.00000000000E+00 0.  1.
         25    1    1    2    0    0  0.22623859580E+03  0.19365060579E+03 -0.10609290998E+04  0.11089995555E+04  0.12500000000E+03 0.  0.
         21    1    1    2  503  501 -0.13373116899E+03 -0.14365975813E+03 -0.38903631170E+03  0.43574235907E+03  0.00000000000E+00 0.  1.
          1    1    1    2  501    0 -0.92507426806E+02 -0.49990847660E+02 -0.33359328394E+03  0.34977305207E+03  0.00000000000E+00 0.  1.
<mgrwt>
<rscale>  4 0.32296975E+03</rscale>
<asrwt>0</asrwt>
<pdfrwt beam="1">  1       21 0.85350985E-02 0.32296975E+03</pdfrwt>
<pdfrwt beam="2">  1        1 0.28292872E+00 0.32296975E+03</pdfrwt>
<totfact> 0.50147868E+03</totfact>
</mgrwt>
</event>
<event>
 5    0  0.2947253E-001  0.2334188E+03  0.7546771E-02  0.1124256E+00
          1   -1    0    0  502    0 -0.00000000000E+00  0.00000000000E+00  0.71512371075E+03  0.71512371075E+03  0.00000000000E+00 0.  1.
         21   -1    0    0  503  502  0.00000000000E+00 -0.00000000000E+00 -0.85177075880E+02  0.85177075880E+02  0.00000000000E+00 0. -1.
         25    1    1    2    0    0 -0.59431278587E+02 -0.20049858976E+03  0.20773299678E+03  0.32017145301E+03  0.12500000000E+03 0.  0.
         21    1    1    2  503  501  0.22064321308E+02  0.11388047034E+02  0.13558020769E+02  0.28290313134E+02  0.00000000000E+00 0.  1.
          1    1    1    2  501    0  0.37366957279E+02  0.18911054273E+03  0.40865561732E+03  0.45183902049E+03  0.00000000000E+00 0.  1.
<mgrwt>
<rscale>  4 0.23341878E+03</rscale>
<asrwt>0</asrwt>
<pdfrwt beam="1">  1       21 0.13104166E-01 0.23341878E+03</pdfrwt>
<pdfrwt beam="2">  1        1 0.11001903E+00 0.23341878E+03</pdfrwt>
<totfact> 0.15125972E+04</totfact>
</mgrwt>
</event>
<event>
 5    0  0.2947253E-001  0.2372012E+03  0.7546771E-02  0.1121671E+00
         21   -1    0    0  503  502  0.00000000000E+00  0.00000000000E+00  0.15064865726E+03  0.15064865726E+03  0.00000000000E+00 0. -1.
          2   -1    0    0  502    0 -0.00000000000E+00 -0.00000000000E+00 -0.14520685353E+04  0.14520685353E+04  0.00000000000E+00 0. -1.
         25    1    1    2    0    0 -0.19858678330E+03 -0.35395025558E+02  0.38038348090E+02  0.24033608606E+03  0.12500000000E+03 0.  0.
         21    1    1    2  503  501  0.20242824848E+03  0.52904670914E+01 -0.92954401641E+03  0.95134497595E+03  0.00000000000E+00 0. -1.
          2    1    1    2  501    0 -0.38414651803E+01  0.30104558466E+02 -0.40991420973E+03  0.41103613057E+03  0.00000000000E+00 0. -1.
<mgrwt>
<rscale>  4 0.23720121E+03</rscale>
<asrwt>0</asrwt>
<pdfrwt beam="1">  1       21 0.23176717E-01 0.23720121E+03</pdfrwt>
<pdfrwt beam="2">  1        2 0.22339516E+00 0.23720121E+03</pdfrwt>
<totfact> 0.31881888E+03</totfact>
</mgrwt>
</event>
<event>
 5    0  0.2947253E-001  0.3616374E+03  0.7546771E-02  0.1057937E+00
          2   -1    0    0  502    0 -0.00000000000E+00  0.00000000000E+00  0.24034887288E+04  0.24034887288E+04  0.00000000000E+00 0. -1.
         21   -1    0    0  503  502  0.00000000000E+00 -0.00000000000E+00 -0.57839311035E+02  0.57839311035E+02  0.00000000000E+00 0. -1.
         25    1    1    2    0    0 -0.33698114446E+03  0.40004368873E+02  0.84913275919E+03  0.92293449604E+03  0.12500000000E+03 0.  0.
         21    1    1    2  503  501  0.59932173417E+02 -0.49491373571E+02  0.39103531129E+03  0.39868518425E+03  0.00000000000E+00 0. -1.
          2    1    1    2  501    0  0.27704897104E+03  0.94870046986E+01  0.11054813473E+04  0.11397083596E+04  0.00000000000E+00 0. -1.
<mgrwt>
<rscale>  4 0.36163744E+03</rscale>
<asrwt>0</asrwt>
<pdfrwt beam="1">  1       21 0.88983574E-02 0.36163744E+03</pdfrwt>
<pdfrwt beam="2">  1        2 0.36976742E+00 0.36163744E+03</pdfrwt>
<totfact> 0.55109270E+03</totfact>
</mgrwt>
</event>
<event>
 5    0  0.2947253E-001  0.3724581E+03  0.7546771E-02  0.1053757E+00
          2   -1    0    0  502    0 -0.00000000000E+00  0.00000000000E+00  0.37923555511E+03  0.37923555511E+03  0.00000000000E+00 0. -1.
         21   -1    0    0  503  502  0.00000000000E+00 -0.00000000000E+00 -0.98807726347E+03  0.98807726347E+03  0.00000000000E+00 0. -1.
         25    1    1    2    0    0  0.80300596140E+02  0.24371177217E+03 -0.73100480527E+03  0.78475259730E+03  0.12500000000E+03 0.  0.
         21    1    1    2  503  501 -0.30540714229E+01  0.11152644244E+03 -0.10555524447E+03  0.15358836008E+03  0.00000000000E+00 0. -1.
          2    1    1    2  501    0 -0.77246524718E+02 -0.35523821461E+03  0.22771834138E+03  0.42897186120E+03  0.00000000000E+00 0. -1.
<mgrwt>
<rscale>  4 0.37245812E+03</rscale>
<asrwt>0</asrwt>
<pdfrwt beam="1">  1       21 0.15201188E+00 0.37245812E+03</pdfrwt>
<pdfrwt beam="2">  1        2 0.58343933E-01 0.37245812E+03</pdfrwt>
<totfact> 0.27660772E+02</totfact>
</mgrwt>
</event>
<event>
 5    0  0.2947253E-001  0.2536050E+03  0.7546771E-02  0.1111048E+00
          2   -1    0    0  502    0 -0.00000000000E+00  0.00000000000E+00  0.15631187957E+04  0.15631187957E+04  0.00000000000E+00 0. -1.
         21   -1    0    0  503  502  0.00000000000E+00 -0.00000000000E+00 -0.61204688705E+02  0.61204688705E+02  0.00000000000E+00 0. -1.
         25    1    1    2    0    0  0.72463621704E+02 -0.20842150959E+03  0.12716508043E+04  0.12966924347E+04  0.12500000000E+03 0.  0.
         21    1    1    2  503  501 -0.15898945795E+02  0.85171348390E+02  0.43842217151E+02  0.97103424598E+02  0.00000000000E+00 0. -1.
          2    1    1    2  501    0 -0.56564675909E+02  0.12325016120E+03  0.18642108548E+03  0.23052762505E+03  0.00000000000E+00 0. -1.
<mgrwt>
<rscale>  4 0.25360501E+03</rscale>
<asrwt>0</asrwt>
<pdfrwt beam="1">  1       21 0.94161071E-02 0.25360501E+03</pdfrwt>
<pdfrwt beam="2">  1        2 0.24047978E+00 0.25360501E+03</pdfrwt>
<totfact> 0.14397314E+04</totfact>
</mgrwt>
</event>
<event>
 5    0  0.2947253E-001  0.4803989E+03  0.7546771E-02  0.1019026E+00
         21   -1    0    0  503  502  0.00000000000E+00  0.00000000000E+00  0.12115937468E+04  0.12115937468E+04  0.00000000000E+00 0.  1.
          2   -1    0    0  502    0 -0.00000000000E+00 -0.00000000000E+00 -0.60061242627E+03  0.60061242627E+03  0.00000000000E+00 0.  1.
         25    1    1    2    0    0  0.42679169368E+03 -0.22773115113E+03  0.98908027991E+03  0.11081143565E+04  0.12500000000E+03 0.  0.
         21    1    1    2  503  501 -0.20392150330E+03 -0.30754794545E+02 -0.16541845431E+02  0.20688999382E+03  0.00000000000E+00 0.  1.
          2    1    1    2  501    0 -0.22287019038E+03  0.25848594568E+03 -0.36155711396E+03  0.49720182273E+03  0.00000000000E+00 0.  1.
<mgrwt>
<rscale>  4 0.48039885E+03</rscale>
<asrwt>0</asrwt>
<pdfrwt beam="1">  1       21 0.18639904E+00 0.48039885E+03</pdfrwt>
<pdfrwt beam="2">  1        2 0.92401912E-01 0.48039885E+03</pdfrwt>
<totfact> 0.88308962E+01</totfact>
</mgrwt>
</event>
<event>
 5    0  0.2947253E-001  0.3498681E+03  0.7546771E-02  0.1063980E+00
          4   -1    0    0  502    0 -0.00000000000E+00  0.00000000000E+00  0.27760884475E+04  0.27760884475E+04  0.00000000000E+00 0.  1.
         21   -1    0    0  503  502  0.00000000000E+00 -0.00000000000E+00 -0.13444347012E+03  0.13444347012E+03  0.00000000000E+00 0.  1.
         25    1    1    2    0    0 -0.30551964392E+03  0.69539833367E+02  0.11000357530E+03  0.35482929392E+03  0.12500000000E+03 0.  0.
         21    1    1    2  503  501  0.13837079872E+03 -0.22225765742E+02  0.59482981022E+03  0.61111616385E+03  0.00000000000E+00 0.  1.
          4    1    1    2  501    0  0.16714884519E+03 -0.47314067625E+02  0.19368115919E+04  0.19445864599E+04  0.00000000000E+00 0.  1.
<mgrwt>
<rscale>  4 0.34669496E+03</rscale>
<asrwt>0</asrwt>
<pdfrwt beam="1">  1       21 0.20683613E-01 0.34986814E+03</pdfrwt>
<pdfrwt beam="2">  1        4 0.42709049E+00 0.34986814E+03</pdfrwt>
<totfact> 0.48247283E+00</totfact>
</mgrwt>
</event>
<event>
 5    0  0.2947253E-001  0.2377141E+03  0.7546771E-02  0.1121325E+00
          1   -1    0    0  502    0 -0.00000000000E+00  0.00000000000E+00  0.21375380274E+04  0.21375380274E+04  0.00000000000E+00 0.  1.
         21   -1    0    0  503  502  0.00000000000E+00 -0.00000000000E+00 -0.57897167250E+02  0.57897167250E+02  0.00000000000E+00 0. -1.
         25    1    1    2    0    0  0.31966002207E+02 -0.19965258984E+03  0.21867585545E+03  0.32299707689E+03  0.12500000000E+03 0.  0.
         21    1    1    2  503  501  0.96246115453E+01  0.32220547964E+02  0.24694073025E+03  0.24921982488E+03  0.00000000000E+00 0.  1.
          1    1    1    2  501    0 -0.41590613753E+02  0.16743204187E+03  0.16140242744E+04  0.16232182929E+04  0.00000000000E+00 0.  1.
<mgrwt>
<rscale>  4 0.23771408E+03</rscale>
<asrwt>0</asrwt>
<pdfrwt beam="1">  1       21 0.89072581E-02 0.23771408E+03</pdfrwt>
<pdfrwt beam="2">  1        1 0.32885194E+00 0.23771408E+03</pdfrwt>
<totfact> 0.30645339E+03</totfact>
</mgrwt>
</event>
<event>
 5    0  0.2947253E-001  0.2385543E+03  0.7546771E-02  0.1120760E+00
         21   -1    0    0  503  502  0.00000000000E+00  0.00000000000E+00  0.21704843650E+03  0.21704843650E+03  0.00000000000E+00 0. -1.
          2   -1    0    0  502    0 -0.00000000000E+00 -0.00000000000E+00 -0.44495570227E+03  0.44495570227E+03  0.00000000000E+00 0. -1.
         25    1    1    2    0    0  0.13053268810E+03  0.15570603212E+03  0.11205955449E+03  0.26356307566E+03  0.12500000000E+03 0.  0.
         21    1    1    2  503  501 -0.25774132663E+01 -0.24081776706E+02 -0.38772148155E+02  0.45714926458E+02  0.00000000000E+00 0.  1.
          2    1    1    2  501    0 -0.12795527483E+03 -0.13162425541E+03 -0.30119467210E+03  0.35272613664E+03  0.00000000000E+00 0. -1.
<mgrwt>
<rscale>  4 0.23855429E+03</rscale>
<asrwt>0</asrwt>
<pdfrwt beam="1">  1       21 0.33392067E-01 0.23855429E+03</pdfrwt>
<pdfrwt beam="2">  1        2 0.68454724E-01 0.23855429E+03</pdfrwt>
<totfact> 0.75667749E+03</totfact>
</mgrwt>
</event>
<event>
 5    0  0.2947253E-001  0.3137469E+03  0.7546771E-02  0.1078564E+00
          2   -1    0    0  502    0 -0.00000000000E+00  0.00000000000E+00  0.29265033542E+04  0.29265033542E+04  0.00000000000E+00 0. -1.
         21   -1    0    0  503  502  0.00000000000E+00 -0.00000000000E+00 -0.41917621951E+02  0.41917621951E+02  0.00000000000E+00 0.  1.
         25    1    1    2    0    0 -0.27015385631E+03 -0.99141393141E+02  0.73225989887E+03  0.79664401172E+03  0.12500000000E+03 0.  0.
         21    1    1    2  503  501  0.20233748544E+02  0.10199381800E+02  0.25348847272E+03  0.25449919012E+03  0.00000000000E+00 0. -1.
          2    1    1    2  501    0  0.24992010777E+03  0.88942011341E+02  0.18988373607E+04  0.19172777744E+04  0.00000000000E+00 0. -1.
<mgrwt>
<rscale>  4 0.31374691E+03</rscale>
<asrwt>0</asrwt>
<pdfrwt beam="1">  1       21 0.64488672E-02 0.31374691E+03</pdfrwt>
<pdfrwt beam="2">  1        2 0.45023112E+00 0.31374691E+03</pdfrwt>
<totfact> 0.49872699E+03</totfact>
</mgrwt>
</event>
<event>
 5    0  0.2947253E-001  0.2180705E+03  0.7546771E-02  0.1135330E+00
          2   -1    0    0  502    0 -0.00000000000E+00  0.00000000000E+00  0.20107647452E+04  0.20107647452E+04  0.00000000000E+00 0. -1.
         21   -1    0    0  503  502  0.00000000000E+00 -0.00000000000E+00 -0.41829059718E+02  0.41829059718E+02  0.00000000000E+00 0.  1.
         25    1    1    2    0    0  0.36626343498E+02 -0.20193926365E+03  0.44838497696E+03  0.50871902147E+03  0.12500000000E+03 0.  0.
         21    1    1    2  503  501  0.66114240643E+02  0.88931059038E+02  0.77091431864E+03  0.77883805297E+03  0.00000000000E+00 0. -1.
          2    1    1    2  501    0 -0.10274058414E+03  0.11300820461E+03  0.74963638984E+03  0.76503673043E+03  0.00000000000E+00 0. -1.
<mgrwt>
<rscale>  4 0.21807051E+03</rscale>
<asrwt>0</asrwt>
<pdfrwt beam="1">  1       21 0.64352415E-02 0.21807051E+03</pdfrwt>
<pdfrwt beam="2">  1        2 0.30934835E+00 0.21807051E+03</pdfrwt>
<totfact> 0.16481736E+04</totfact>
</mgrwt>
</event>
<event>
 5    0  0.2947253E-001  0.5932225E+03  0.7546771E-02  0.9919568E-01
         21   -1    0    0  503  502  0.00000000000E+00  0.00000000000E+00  0.12013435472E+04  0.12013435472E+04  0.00000000000E+00 0.  1.
          1   -1    0    0  502    0 -0.00000000000E+00 -0.00000000000E+00 -0.28995978779E+03  0.28995978779E+03  0.00000000000E+00 0.  1.
         25    1    1    2    0    0  0.57514616640E+03  0.74126978806E+02  0.40104563440E+03  0.71606600435E+03  0.12500000000E+03 0.  0.
         21    1    1    2  503  501 -0.28573361536E+02 -0.18787649214E+02  0.30243779181E+02  0.45651932397E+02  0.00000000000E+00 0. -1.
          1    1    1    2  501    0 -0.54657280487E+03 -0.55339329592E+02  0.48009434580E+03  0.72958539821E+03  0.00000000000E+00 0.  1.
<mgrwt>
<rscale>  4 0.59322249E+03</rscale>
<asrwt>0</asrwt>
<pdfrwt beam="1">  1       21 0.18482208E+00 0.59322249E+03</pdfrwt>
<pdfrwt beam="2">  1        1 0.44609199E-01 0.59322249E+03</pdfrwt>
<totfact> 0.14076828E+02</totfact>
</mgrwt>
</event>
<event>
 5    0  0.3752151E-001  0.3427695E+03  0.7546771E-02  0.1065622E+00
         -1   -1    0    0    0  501 -0.00000000000E+00  0.00000000000E+00  0.24486312715E+03  0.24486312715E+03  0.00000000000E+00 0.  1.
         21   -1    0    0  501  502  0.00000000000E+00 -0.00000000000E+00 -0.16248935938E+04  0.16248935938E+04  0.00000000000E+00 0.  1.
         25    1    1    2    0    0  0.31803138130E+03 -0.55028310962E+01 -0.14533776929E+04  0.14930190752E+04  0.12500000000E+03 0.  0.
         21    1    1    2  501  501  0.12579263161E+02 -0.22981635743E+02 -0.18916397445E+02  0.32314447782E+02  0.00000000000E+00 0. -1.
         -1    1    1    2    0  502 -0.33061064446E+03  0.28484466840E+02  0.92263623659E+02  0.34442319802E+03  0.00000000000E+00 0.  1.
<mgrwt>
<rscale>  4 0.34276949E+03</rscale>
<asrwt>0</asrwt>
<pdfrwt beam="1">  1       21 0.24998363E+00 0.34276949E+03</pdfrwt>
<pdfrwt beam="2">  1       -1 0.37671250E-01 0.34276949E+03</pdfrwt>
<totfact> 0.37271658E+01</totfact>
</mgrwt>
</event>
<event>
 5    0  0.2947253E-001  0.2619191E+03  0.7546771E-02  0.1105996E+00
         21   -1    0    0  503  502  0.00000000000E+00  0.00000000000E+00  0.21433066131E+03  0.21433066131E+03  0.00000000000E+00 0.  1.
          1   -1    0    0  502    0 -0.00000000000E+00 -0.00000000000E+00 -0.35400590473E+03  0.35400590473E+03  0.00000000000E+00 0. -1.
         25    1    1    2    0    0  0.22156156739E+03 -0.62346715118E+02  0.44886948136E+02  0.26573761334E+03  0.12500000000E+03 0.  0.
         21    1    1    2  503  501 -0.44707280051E+02 -0.69726861437E+01 -0.14154518861E+02  0.47410016303E+02  0.00000000000E+00 0. -1.
          1    1    1    2  501    0 -0.17685428734E+03  0.69319401261E+02 -0.17040767270E+03  0.25518893639E+03  0.00000000000E+00 0. -1.
<mgrwt>
<rscale>  4 0.26191915E+03</rscale>
<asrwt>0</asrwt>
<pdfrwt beam="1">  1       21 0.32973948E-01 0.26191915E+03</pdfrwt>
<pdfrwt beam="2">  1        1 0.54462446E-01 0.26191915E+03</pdfrwt>
<totfact> 0.67760805E+03</totfact>
</mgrwt>
</event>
<event>
 5    0  0.2947253E-001  0.3477180E+03  0.7546771E-02  0.1063556E+00
          2   -1    0    0  502    0 -0.00000000000E+00  0.00000000000E+00  0.13825598599E+04  0.13825598599E+04  0.00000000000E+00 0.  1.
         21   -1    0    0  503  502  0.00000000000E+00 -0.00000000000E+00 -0.95936417547E+02  0.95936417547E+02  0.00000000000E+00 0.  1.
         25    1    1    2    0    0  0.35865640088E+02  0.33917118323E+03  0.67049684125E+03  0.76257094739E+03  0.12500000000E+03 0.  0.
         21    1    1    2  503  501 -0.43417811317E+02 -0.28228192784E+02  0.65226806354E+02  0.83285493782E+02  0.00000000000E+00 0. -1.
          2    1    1    2  501    0  0.75521712291E+01 -0.31094299044E+03  0.55089979475E+03  0.63263983628E+03  0.00000000000E+00 0.  1.
<mgrwt>
<rscale>  4 0.34771800E+03</rscale>
<asrwt>0</asrwt>
<pdfrwt beam="1">  1       21 0.14759450E-01 0.34771800E+03</pdfrwt>
<pdfrwt beam="2">  1        2 0.21270150E+00 0.34771800E+03</pdfrwt>
<totfact> 0.78248631E+03</totfact>
</mgrwt>
</event>
<event>
 5    0  0.2947253E-001  0.2535676E+03  0.7546771E-02  0.1111071E+00
          2   -1    0    0  502    0 -0.00000000000E+00  0.00000000000E+00  0.18808518830E+04  0.18808518830E+04  0.00000000000E+00 0.  1.
         21   -1    0    0  503  502  0.00000000000E+00 -0.00000000000E+00 -0.99283690499E+02  0.99283690499E+02  0.00000000000E+00 0.  1.
         25    1    1    2    0    0  0.14378309876E+03 -0.17542528743E+03  0.98723451582E+02  0.27716228252E+03  0.12500000000E+03 0.  0.
         21    1    1    2  503  501 -0.48109155992E+02  0.33943440553E+02  0.15836482159E+03  0.16895580713E+03  0.00000000000E+00 0.  1.
          2    1    1    2  501    0 -0.95673942765E+02  0.14148184687E+03  0.15244799193E+04  0.15340174838E+04  0.00000000000E+00 0.  1.
<mgrwt>
<rscale>  4 0.25356765E+03</rscale>
<asrwt>0</asrwt>
<pdfrwt beam="1">  1       21 0.15274415E-01 0.25356765E+03</pdfrwt>
<pdfrwt beam="2">  1        2 0.28936180E+00 0.25356765E+03</pdfrwt>
<totfact> 0.40987595E+03</totfact>
</mgrwt>
</event>
<event>
 5    0  0.2947253E-001  0.2521496E+03  0.7546771E-02  0.1111954E+00
         -1   -1    0    0    0  501 -0.00000000000E+00  0.00000000000E+00  0.16549384683E+04  0.16549384683E+04  0.00000000000E+00 0. -1.
         21   -1    0    0  501  502  0.00000000000E+00 -0.00000000000E+00 -0.95049155911E+02  0.95049155911E+02  0.00000000000E+00 0. -1.
         25    1    1    2    0    0 -0.20138561885E+03  0.11240324897E+03  0.12947215767E+03  0.29253836923E+03  0.12500000000E+03 0.  0.
         21    1    1    2  501  501  0.76056499927E+02 -0.30279402607E+02  0.17590754120E+03  0.19402292765E+03  0.00000000000E+00 0. -1.
         -1    1    1    2    0  502  0.12532911892E+03 -0.82123846360E+02  0.12545096135E+04  0.12634263274E+04  0.00000000000E+00 0. -1.
<mgrwt>
<rscale>  4 0.25214958E+03</rscale>
<asrwt>0</asrwt>
<pdfrwt beam="1">  1       21 0.14622948E-01 0.25214958E+03</pdfrwt>
<pdfrwt beam="2">  1       -1 0.25460590E+00 0.25214958E+03</pdfrwt>
<totfact> 0.28411396E+02</totfact>
</mgrwt>
</event>
<event>
 5    0  0.2947253E-001  0.3249378E+03  0.7546771E-02  0.1073399E+00
         -2   -1    0    0    0  501 -0.00000000000E+00  0.00000000000E+00  0.32454807458E+03  0.32454807458E+03  0.00000000000E+00 0. -1.
         21   -1    0    0  501  502  0.00000000000E+00 -0.00000000000E+00 -0.90116334547E+03  0.90116334547E+03  0.00000000000E+00 0.  1.
         25    1    1    2    0    0  0.30351697030E+03 -0.10810805135E+02 -0.72196010954E+03  0.79315245983E+03  0.12500000000E+03 0.  0.
         21    1    1    2  501  501 -0.19656967541E+02 -0.17165713623E+02  0.14499356419E+03  0.14732342568E+03  0.00000000000E+00 0.  1.
         -2    1    1    2    0  502 -0.28386000276E+03  0.27976518758E+02  0.35127445360E+00  0.28523553454E+03  0.00000000000E+00 0. -1.
<mgrwt>
<rscale>  4 0.32493781E+03</rscale>
<asrwt>0</asrwt>
<pdfrwt beam="1">  1       21 0.13864051E+00 0.32493781E+03</pdfrwt>
<pdfrwt beam="2">  1       -2 0.49930474E-01 0.32493781E+03</pdfrwt>
<totfact> 0.10678826E+02</totfact>
</mgrwt>
</event>
<event>
 5    0  0.2947253E-001  0.5149811E+03  0.7546771E-02  0.1009941E+00
          2   -1    0    0  502    0 -0.00000000000E+00  0.00000000000E+00  0.14104052700E+04  0.14104052700E+04  0.00000000000E+00 0.  1.
         21   -1    0    0  503  502  0.00000000000E+00 -0.00000000000E+00 -0.18472172451E+03  0.18472172451E+03  0.00000000000E+00 0. -1.
         25    1    1    2    0    0 -0.63803249925E+02 -0.49548936762E+03  0.64070603873E+03  0.82201569097E+03  0.12500000000E+03 0.  0.
         21    1    1    2  503  501  0.18429786069E+02  0.22518548517E+02  0.47702920225E+02  0.55877639892E+02  0.00000000000E+00 0. -1.
          2    1    1    2  501    0  0.45373463856E+02  0.47297081911E+03  0.53727458652E+03  0.71723366365E+03  0.00000000000E+00 0.  1.
<mgrwt>
<rscale>  4 0.51498113E+03</rscale>
<asrwt>0</asrwt>
<pdfrwt beam="1">  1       21 0.28418728E-01 0.51498113E+03</pdfrwt>
<pdfrwt beam="2">  1        2 0.21698542E+00 0.51498113E+03</pdfrwt>
<totfact> 0.20886461E+03</totfact>
</mgrwt>
</event>
<event>
 5    0  0.2947253E-001  0.2723799E+03  0.7546771E-02  0.1099925E+00
          2   -1    0    0  502    0 -0.00000000000E+00  0.00000000000E+00  0.18831403201E+04  0.18831403201E+04  0.00000000000E+00 0.  1.
         21   -1    0    0  503  502  0.00000000000E+00 -0.00000000000E+00 -0.28789990329E+03  0.28789990329E+03  0.00000000000E+00 0.  1.
         25    1    1    2    0    0  0.10613468969E+03 -0.21748843428E+03 -0.21302059815E+03  0.34578688037E+03  0.12500000000E+03 0.  0.
         21    1    1    2  503  501 -0.92788323452E+01  0.38560264880E+02  0.17923446756E+03  0.18357010955E+03  0.00000000000E+00 0.  1.
          2    1    1    2  501    0 -0.96855857347E+02  0.17892816939E+03  0.16290265474E+04  0.16416832334E+04  0.00000000000E+00 0.  1.
<mgrwt>
<rscale>  4 0.27237987E+03</rscale>
<asrwt>0</asrwt>
<pdfrwt beam="1">  1       21 0.44292294E-01 0.27237987E+03</pdfrwt>
<pdfrwt beam="2">  1        2 0.28971389E+00 0.27237987E+03</pdfrwt>
<totfact> 0.51457576E+02</totfact>
</mgrwt>
</event>
<event>
 5    0  0.2947253E-001  0.2446371E+03  0.7546771E-02  0.1116742E+00
         21   -1    0    0  501  502  0.00000000000E+00  0.00000000000E+00  0.90238436406E+03  0.90238436406E+03  0.00000000000E+00 0. -1.
         -1   -1    0    0    0  501 -0.00000000000E+00 -0.00000000000E+00 -0.13859295602E+03  0.13859295602E+03  0.00000000000E+00 0.  1.
         25    1    1    2    0    0  0.84173918894E+01  0.21012244831E+03  0.78492368995E+03  0.82216330180E+03  0.12500000000E+03 0.  0.
         21    1    1    2  501  501  0.11720424602E+02 -0.17661813867E+02  0.88937097832E+01  0.22987085410E+02  0.00000000000E+00 0.  1.
         -1    1    1    2    0  502 -0.20137816491E+02 -0.19246063444E+03 -0.30025991698E+02  0.19582693288E+03  0.00000000000E+00 0.  1.
<mgrwt>
<rscale>  4 0.24463707E+03</rscale>
<asrwt>0</asrwt>
<pdfrwt beam="1">  1       21 0.13882836E+00 0.24463707E+03</pdfrwt>
<pdfrwt beam="2">  1       -1 0.21321994E-01 0.24463707E+03</pdfrwt>
<totfact> 0.58694313E+02</totfact>
</mgrwt>
</event>
<event>
 5    0  0.2947253E-001  0.4944979E+03  0.7546771E-02  0.1015225E+00
         21   -1    0    0  503  502  0.00000000000E+00  0.00000000000E+00  0.17303140910E+03  0.17303140910E+03  0.00000000000E+00 0. -1.
          2   -1    0    0  502    0 -0.00000000000E+00 -0.00000000000E+00 -0.14383060191E+04  0.14383060191E+04  0.00000000000E+00 0.  1.
         25    1    1    2    0    0  0.44705488254E+03 -0.17042610775E+03 -0.49930678023E+03  0.70273422216E+03  0.12500000000E+03 0.  0.
         21    1    1    2  503  501 -0.37044590518E+02  0.34510617694E+02 -0.42999607043E+02  0.66424774189E+02  0.00000000000E+00 0.  1.
          2    1    1    2  501    0 -0.41001029203E+03  0.13591549005E+03 -0.72296822272E+03  0.84217843184E+03  0.00000000000E+00 0.  1.
<mgrwt>
<rscale>  4 0.49449785E+03</rscale>
<asrwt>0</asrwt>
<pdfrwt beam="1">  1       21 0.26620217E-01 0.49449785E+03</pdfrwt>
<pdfrwt beam="2">  1        2 0.22127784E+00 0.49449785E+03</pdfrwt>
<totfact> 0.23023997E+03</totfact>
</mgrwt>
</event>
<event>
 5    0  0.2947253E-001  0.2524711E+03  0.7546771E-02  0.1111753E+00
         21   -1    0    0  503  502  0.00000000000E+00  0.00000000000E+00  0.19787541871E+03  0.19787541871E+03  0.00000000000E+00 0. -1.
          1   -1    0    0  502    0 -0.00000000000E+00 -0.00000000000E+00 -0.54944981590E+03  0.54944981590E+03  0.00000000000E+00 0. -1.
         25    1    1    2    0    0  0.71853437972E+02  0.20725282643E+03  0.70963329736E+02  0.26225454196E+03  0.12500000000E+03 0.  0.
         21    1    1    2  503  501 -0.59566051444E+02 -0.15294814751E+03 -0.21675989327E+03  0.27189354836E+03  0.00000000000E+00 0. -1.
          1    1    1    2  501    0 -0.12287386528E+02 -0.54304678921E+02 -0.20577783367E+03  0.21317714429E+03  0.00000000000E+00 0. -1.
<mgrwt>
<rscale>  4 0.25247109E+03</rscale>
<asrwt>0</asrwt>
<pdfrwt beam="1">  1       21 0.30442372E-01 0.25247109E+03</pdfrwt>
<pdfrwt beam="2">  1        1 0.84530741E-01 0.25247109E+03</pdfrwt>
<totfact> 0.44744371E+03</totfact>
</mgrwt>
</event>
<event>
 5    0  0.2947253E-001  0.4708482E+03  0.7546771E-02  0.1021681E+00
         21   -1    0    0  503  502  0.00000000000E+00  0.00000000000E+00  0.98729733930E+03  0.98729733930E+03  0.00000000000E+00 0.  1.
          2   -1    0    0  502    0 -0.00000000000E+00 -0.00000000000E+00 -0.36290396822E+04  0.36290396822E+04  0.00000000000E+00 0.  1.
         25    1    1    2    0    0  0.45315412165E+03  0.26913322985E+02  0.91538350150E+03  0.10293808526E+04  0.12500000000E+03 0.  0.
         21    1    1    2  503  501 -0.75830476092E+02 -0.10367742437E+02 -0.39427839200E+03  0.40163814757E+03  0.00000000000E+00 0.  1.
          2    1    1    2  501    0 -0.37732364556E+03 -0.16545580548E+02 -0.31628474523E+04  0.31853180213E+04  0.00000000000E+00 0.  1.
<mgrwt>
<rscale>  4 0.47084815E+03</rscale>
<asrwt>0</asrwt>
<pdfrwt beam="1">  1       21 0.15189190E+00 0.47084815E+03</pdfrwt>
<pdfrwt beam="2">  1        2 0.55831379E+00 0.47084815E+03</pdfrwt>
<totfact> 0.24288711E+00</totfact>
</mgrwt>
</event>
<event>
 5    0  0.2947253E-001  0.2959796E+03  0.7546771E-02  0.1087268E+00
         21   -1    0    0  503  502  0.00000000000E+00  0.00000000000E+00  0.88671844797E+02  0.88671844797E+02  0.00000000000E+00 0.  1.
          2   -1    0    0  502    0 -0.00000000000E+00 -0.00000000000E+00 -0.93517311431E+03  0.93517311431E+03  0.00000000000E+00 0.  1.
         25    1    1    2    0    0 -0.67620450786E+02 -0.25962738756E+03 -0.51162092597E+03  0.59106672858E+03  0.12500000000E+03 0.  0.
         21    1    1    2  503  501  0.97333567323E+01  0.77065522556E+02 -0.61953140788E+02  0.99358062851E+02  0.00000000000E+00 0.  1.
          2    1    1    2  501    0  0.57887094054E+02  0.18256186501E+03 -0.27292720275E+03  0.33342016768E+03  0.00000000000E+00 0.  1.
<mgrwt>
<rscale>  4 0.29597957E+03</rscale>
<asrwt>0</asrwt>
<pdfrwt beam="1">  1       21 0.13641822E-01 0.29597957E+03</pdfrwt>
<pdfrwt beam="2">  1        2 0.14387279E+00 0.29597957E+03</pdfrwt>
<totfact> 0.16699958E+04</totfact>
</mgrwt>
</event>
<event>
 5    0  0.2947253E-001  0.2601717E+03  0.7546771E-02  0.1107040E+00
          2   -1    0    0  502    0 -0.00000000000E+00  0.00000000000E+00  0.39154251034E+04  0.39154251034E+04  0.00000000000E+00 0. -1.
         21   -1    0    0  503  502  0.00000000000E+00 -0.00000000000E+00 -0.66866112698E+02  0.66866112698E+02  0.00000000000E+00 0.  1.
         25    1    1    2    0    0 -0.22410537321E+03 -0.46359022420E+02  0.20764883137E+03  0.33333978825E+03  0.12500000000E+03 0.  0.
         21    1    1    2  503  501  0.12359990875E+02 -0.16287207164E+02  0.40494530254E+03  0.40546114554E+03  0.00000000000E+00 0.  1.
          2    1    1    2  501    0  0.21174538234E+03  0.62646229584E+02  0.32359648568E+04  0.32434902823E+04  0.00000000000E+00 0. -1.
<mgrwt>
<rscale>  4 0.26017173E+03</rscale>
<asrwt>0</asrwt>
<pdfrwt beam="1">  1       21 0.10287097E-01 0.26017173E+03</pdfrwt>
<pdfrwt beam="2">  1        2 0.60237291E+00 0.26017173E+03</pdfrwt>
<totfact> 0.50691875E+02</totfact>
</mgrwt>
</event>
<event>
 5    0  0.2947253E-001  0.2548312E+03  0.7546771E-02  0.1110289E+00
         21   -1    0    0  503  502  0.00000000000E+00  0.00000000000E+00  0.14892198469E+03  0.14892198469E+03  0.00000000000E+00 0. -1.
          1   -1    0    0  502    0 -0.00000000000E+00 -0.00000000000E+00 -0.13622376655E+04  0.13622376655E+04  0.00000000000E+00 0.  1.
         25    1    1    2    0    0 -0.19049073513E+03  0.11816579537E+03  0.16520739973E+02  0.25719216593E+03  0.12500000000E+03 0.  0.
         21    1    1    2  503  501  0.21856571323E+02 -0.85738642489E+01 -0.33886995067E+02  0.41225590267E+02  0.00000000000E+00 0. -1.
          1    1    1    2  501    0  0.16863416381E+03 -0.10959193112E+03 -0.11959494257E+04  0.12127418940E+04  0.00000000000E+00 0.  1.
<mgrwt>
<rscale>  4 0.25483117E+03</rscale>
<asrwt>0</asrwt>
<pdfrwt beam="1">  1       21 0.22911075E-01 0.25483117E+03</pdfrwt>
<pdfrwt beam="2">  1        1 0.20957502E+00 0.25483117E+03</pdfrwt>
<totfact> 0.17401574E+03</totfact>
</mgrwt>
</event>
<event>
 5    0  0.2947253E-001  0.3448952E+03  0.7546771E-02  0.1064730E+00
         21   -1    0    0  503  502  0.00000000000E+00  0.00000000000E+00  0.34160910873E+03  0.34160910873E+03  0.00000000000E+00 0. -1.
          2   -1    0    0  502    0 -0.00000000000E+00 -0.00000000000E+00 -0.10571316566E+04  0.10571316566E+04  0.00000000000E+00 0.  1.
         25    1    1    2    0    0 -0.12357745432E+03 -0.29609795050E+03  0.21059344735E+03  0.40363347678E+03  0.12500000000E+03 0.  0.
         21    1    1    2  503  501  0.28804082632E+02 -0.18437604291E+02 -0.64777998918E+02  0.73251686480E+02  0.00000000000E+00 0.  1.
          2    1    1    2  501    0  0.94773371690E+02  0.31453555480E+03 -0.86133799634E+03  0.92185560211E+03  0.00000000000E+00 0.  1.
<mgrwt>
<rscale>  4 0.34489519E+03</rscale>
<asrwt>0</asrwt>
<pdfrwt beam="1">  1       21 0.52555248E-01 0.34489519E+03</pdfrwt>
<pdfrwt beam="2">  1        2 0.16263564E+00 0.34489519E+03</pdfrwt>
<totfact> 0.98921462E+02</totfact>
</mgrwt>
</event>
<event>
 5    0  0.2947253E-001  0.2381947E+03  0.7546771E-02  0.1121001E+00
         21   -1    0    0  503  502  0.00000000000E+00  0.00000000000E+00  0.90745423548E+02  0.90745423548E+02  0.00000000000E+00 0.  1.
          2   -1    0    0  502    0 -0.00000000000E+00 -0.00000000000E+00 -0.10968764128E+04  0.10968764128E+04  0.00000000000E+00 0.  1.
         25    1    1    2    0    0  0.20160579768E+03  0.21605738915E+02 -0.99465442846E+02  0.25812803012E+03  0.12500000000E+03 0.  0.
         21    1    1    2  503  501 -0.27683002867E+02 -0.44443994130E+01 -0.87102492766E+02  0.91503800904E+02  0.00000000000E+00 0.  1.
          2    1    1    2  501    0 -0.17392279481E+03 -0.17161339502E+02 -0.81956305360E+03  0.83799000529E+03  0.00000000000E+00 0.  1.
<mgrwt>
<rscale>  4 0.23819468E+03</rscale>
<asrwt>0</asrwt>
<pdfrwt beam="1">  1       21 0.13960833E-01 0.23819468E+03</pdfrwt>
<pdfrwt beam="2">  1        2 0.16875023E+00 0.23819468E+03</pdfrwt>
<totfact> 0.12908757E+04</totfact>
</mgrwt>
</event>
<event>
 5    0  0.2947253E-001  0.2336517E+03  0.7546771E-02  0.1124096E+00
          2   -1    0    0  502    0 -0.00000000000E+00  0.00000000000E+00  0.52708904457E+04  0.52708904457E+04  0.00000000000E+00 0. -1.
         21   -1    0    0  503  502  0.00000000000E+00 -0.00000000000E+00 -0.50636124937E+02  0.50636124937E+02  0.00000000000E+00 0.  1.
         25    1    1    2    0    0  0.22491631655E+01  0.20826342344E+03  0.26475139186E+03  0.35930072609E+03  0.12500000000E+03 0.  0.
         21    1    1    2  503  501 -0.24172038556E+02 -0.12482939799E+02  0.13579187634E+03  0.13849023400E+03  0.00000000000E+00 0.  1.
          2    1    1    2  501    0  0.21922875390E+02 -0.19578048364E+03  0.48197110526E+04  0.48237356106E+04  0.00000000000E+00 0. -1.
<mgrwt>
<rscale>  4 0.23365173E+03</rscale>
<asrwt>0</asrwt>
<pdfrwt beam="1">  1       21 0.77901772E-02 0.23365173E+03</pdfrwt>
<pdfrwt beam="2">  1        2 0.81090579E+00 0.23365173E+03</pdfrwt>
<totfact> 0.36834627E+01</totfact>
</mgrwt>
</event>
<event>
 5    0  0.2947253E-001  0.2397873E+03  0.7546771E-02  0.1119935E+00
          2   -1    0    0  502    0 -0.00000000000E+00  0.00000000000E+00  0.24116439626E+04  0.24116439626E+04  0.00000000000E+00 0.  1.
         21   -1    0    0  503  502  0.00000000000E+00 -0.00000000000E+00 -0.12683335633E+03  0.12683335633E+03  0.00000000000E+00 0. -1.
         25    1    1    2    0    0  0.14042586860E+02 -0.21047823118E+03  0.20206032942E+02  0.24603163174E+03  0.12500000000E+03 0.  0.
         21    1    1    2  503  501  0.76261170219E+02  0.46741555265E+02  0.15868759537E+04  0.15893948004E+04  0.00000000000E+00 0.  1.
          2    1    1    2  501    0 -0.90303757079E+02  0.16373667592E+03  0.67772861960E+03  0.70305088678E+03  0.00000000000E+00 0.  1.
<mgrwt>
<rscale>  4 0.23978727E+03</rscale>
<asrwt>0</asrwt>
<pdfrwt beam="1">  1       21 0.19512826E-01 0.23978727E+03</pdfrwt>
<pdfrwt beam="2">  1        2 0.37102211E+00 0.23978727E+03</pdfrwt>
<totfact> 0.13720310E+03</totfact>
</mgrwt>
</event>
<event>
 5    0  0.2947253E-001  0.3553393E+03  0.7546771E-02  0.1060445E+00
          2   -1    0    0  502    0 -0.00000000000E+00  0.00000000000E+00  0.23030307170E+04  0.23030307170E+04  0.00000000000E+00 0. -1.
         21   -1    0    0  503  502  0.00000000000E+00 -0.00000000000E+00 -0.38409351325E+03  0.38409351325E+03  0.00000000000E+00 0.  1.
         25    1    1    2    0    0 -0.18335013979E+03 -0.27753158107E+03 -0.28461377590E+03  0.45527030837E+03  0.12500000000E+03 0.  0.
         21    1    1    2  503  501  0.71076591636E+02  0.25145752762E+02  0.36902933736E+03  0.37665215066E+03  0.00000000000E+00 0. -1.
          2    1    1    2  501    0  0.11227354816E+03  0.25238582831E+03  0.18345216423E+04  0.18552017713E+04  0.00000000000E+00 0. -1.
<mgrwt>
<rscale>  4 0.35533935E+03</rscale>
<asrwt>0</asrwt>
<pdfrwt beam="1">  1       21 0.59091311E-01 0.35533935E+03</pdfrwt>
<pdfrwt beam="2">  1        2 0.35431241E+00 0.35533935E+03</pdfrwt>
<totfact> 0.15984890E+02</totfact>
</mgrwt>
</event>
<event>
 5    0  0.2947253E-001  0.2326850E+03  0.7546771E-02  0.1124764E+00
          1   -1    0    0  502    0 -0.00000000000E+00  0.00000000000E+00  0.16611454163E+04  0.16611454163E+04  0.00000000000E+00 0. -1.
         21   -1    0    0  503  502  0.00000000000E+00 -0.00000000000E+00 -0.48165902658E+02  0.48165902658E+02  0.00000000000E+00 0. -1.
         25    1    1    2    0    0 -0.14489396916E+03 -0.15706465326E+03  0.38609807894E+03  0.45865051419E+03  0.12500000000E+03 0.  0.
         21    1    1    2  503  501  0.76686322679E+02  0.15100880270E+03  0.74979313102E+03  0.76868341331E+03  0.00000000000E+00 0. -1.
          1    1    1    2  501    0  0.68207646482E+02  0.60558505598E+01  0.47708830368E+03  0.48197739145E+03  0.00000000000E+00 0. -1.
<mgrwt>
<rscale>  4 0.23268502E+03</rscale>
<asrwt>0</asrwt>
<pdfrwt beam="1">  1       21 0.74101401E-02 0.23268502E+03</pdfrwt>
<pdfrwt beam="2">  1        1 0.25556079E+00 0.23268502E+03</pdfrwt>
<totfact> 0.86258952E+03</totfact>
</mgrwt>
</event>
<event>
 5    0  0.2947253E-001  0.3619239E+03  0.7546771E-02  0.1057825E+00
          2   -1    0    0  502    0 -0.00000000000E+00  0.00000000000E+00  0.98294589004E+03  0.98294589004E+03  0.00000000000E+00 0. -1.
         21   -1    0    0  503  502  0.00000000000E+00 -0.00000000000E+00 -0.18279151707E+03  0.18279151707E+03  0.00000000000E+00 0. -1.
         25    1    1    2    0    0 -0.32816188045E+03  0.87599666231E+02  0.86250495530E+02  0.37205922819E+03  0.12500000000E+03 0.  0.
         21    1    1    2  503  501  0.40850802305E+02 -0.26140847248E+02  0.62755129025E+02  0.79311652124E+02  0.00000000000E+00 0.  1.
          2    1    1    2  501    0  0.28731107814E+03 -0.61458818982E+02  0.65114874841E+03  0.71436652680E+03  0.00000000000E+00 0. -1.
<mgrwt>
<rscale>  4 0.36192392E+03</rscale>
<asrwt>0</asrwt>
<pdfrwt beam="1">  1       21 0.28121772E-01 0.36192392E+03</pdfrwt>
<pdfrwt beam="2">  1        2 0.15122244E+00 0.36192392E+03</pdfrwt>
<totfact> 0.39193971E+03</totfact>
</mgrwt>
</event>
<event>
 5    0  0.2947253E-001  0.2711940E+03  0.7546771E-02  0.1100598E+00
         21   -1    0    0  503  502  0.00000000000E+00  0.00000000000E+00  0.10235916020E+03  0.10235916020E+03  0.00000000000E+00 0. -1.
          2   -1    0    0  502    0 -0.00000000000E+00 -0.00000000000E+00 -0.67628965402E+03  0.67628965402E+03  0.00000000000E+00 0. -1.
         25    1    1    2    0    0  0.23718303936E+03  0.40809092932E+02 -0.35745671819E+03  0.44868862433E+03  0.12500000000E+03 0.  0.
         21    1    1    2  503  501 -0.78143510236E+02 -0.28735046583E+02 -0.11094870526E+03  0.13871454968E+03  0.00000000000E+00 0. -1.
          2    1    1    2  501    0 -0.15903952913E+03 -0.12074046349E+02 -0.10552507038E+03  0.19124564021E+03  0.00000000000E+00 0. -1.
<mgrwt>
<rscale>  4 0.27119398E+03</rscale>
<asrwt>0</asrwt>
<pdfrwt beam="1">  1       21 0.15747563E-01 0.27119398E+03</pdfrwt>
<pdfrwt beam="2">  1        2 0.10404456E+00 0.27119398E+03</pdfrwt>
<totfact> 0.19525073E+04</totfact>
</mgrwt>
</event>
<event>
 5    0  0.3442246E-001  0.3871730E+03  0.7546771E-02  0.1048314E+00
          2   -1    0    0  502    0 -0.00000000000E+00  0.00000000000E+00  0.23804343180E+04  0.23804343180E+04  0.00000000000E+00 0.  1.
         21   -1    0    0  503  502  0.00000000000E+00 -0.00000000000E+00 -0.70842119101E+02  0.70842119101E+02  0.00000000000E+00 0.  1.
         25    1    1    2    0    0 -0.33906479272E+03  0.13897108696E+03  0.70391502767E+03  0.80336745195E+03  0.12500000000E+03 0.  0.
         21    1    1    2  503  501  0.23910100937E+02 -0.11193800532E+01  0.64188255984E+02  0.68506044586E+02  0.00000000000E+00 0.  1.
          2    1    1    2  501    0  0.31515469178E+03 -0.13785170690E+03  0.15414889153E+04  0.15794029406E+04  0.00000000000E+00 0.  1.
<mgrwt>
<rscale>  4 0.38717295E+03</rscale>
<asrwt>0</asrwt>
<pdfrwt beam="1">  1       21 0.10898789E-01 0.38717295E+03</pdfrwt>
<pdfrwt beam="2">  1        2 0.36622060E+00 0.38717295E+03</pdfrwt>
<totfact> 0.39167637E+03</totfact>
</mgrwt>
</event>
<event>
 5    0  0.2947253E-001  0.2448918E+03  0.7546771E-02  0.1116576E+00
          3   -1    0    0  502    0 -0.00000000000E+00  0.00000000000E+00  0.13190629841E+04  0.13190629841E+04  0.00000000000E+00 0. -1.
         21   -1    0    0  503  502  0.00000000000E+00 -0.00000000000E+00 -0.55706410857E+02  0.55706410857E+02  0.00000000000E+00 0.  1.
         25    1    1    2    0    0 -0.72633047984E+02  0.19766495866E+03  0.31140952077E+03  0.39616648668E+03  0.12500000000E+03 0.  0.
         21    1    1    2  503  501 -0.14009581030E+02 -0.72874079001E+02  0.35004428782E+03  0.35782384380E+03  0.00000000000E+00 0. -1.
          3    1    1    2  501    0  0.86642629014E+02 -0.12479087965E+03  0.60190276461E+03  0.62077906444E+03  0.00000000000E+00 0. -1.
<mgrwt>
<rscale>  4 0.24489180E+03</rscale>
<asrwt>0</asrwt>
<pdfrwt beam="1">  1       21 0.85702181E-02 0.24489180E+03</pdfrwt>
<pdfrwt beam="2">  1        3 0.20293274E+00 0.24489180E+03</pdfrwt>
<totfact> 0.80962395E+02</totfact>
</mgrwt>
</event>
<event>
 5    0  0.2947253E-001  0.2814532E+03  0.7546771E-02  0.1094898E+00
          2   -1    0    0  502    0 -0.00000000000E+00  0.00000000000E+00  0.41131098073E+04  0.41131098073E+04  0.00000000000E+00 0. -1.
         21   -1    0    0  503  502  0.00000000000E+00 -0.00000000000E+00 -0.36573077979E+02  0.36573077979E+02  0.00000000000E+00 0.  1.
         25    1    1    2    0    0 -0.23988304122E+03  0.77762779529E+02  0.59181421650E+03  0.65533196946E+03  0.12500000000E+03 0.  0.
         21    1    1    2  503  501  0.27881900466E+02 -0.31327374248E+02  0.50907093317E+03  0.51079547742E+03  0.00000000000E+00 0. -1.
          2    1    1    2  501    0  0.21200114075E+03 -0.46435405282E+02  0.29756515797E+04  0.29835554384E+04  0.00000000000E+00 0. -1.
<mgrwt>
<rscale>  4 0.28145323E+03</rscale>
<asrwt>0</asrwt>
<pdfrwt beam="1">  1       21 0.56266306E-02 0.28145323E+03</pdfrwt>
<pdfrwt beam="2">  1        2 0.63278576E+00 0.28145323E+03</pdfrwt>
<totfact> 0.10114904E+03</totfact>
</mgrwt>
</event>
<event>
 5    0  0.2947253E-001  0.3314453E+03  0.7546771E-02  0.1070499E+00
         21   -1    0    0  503  502  0.00000000000E+00  0.00000000000E+00  0.55931340932E+03  0.55931340932E+03  0.00000000000E+00 0. -1.
          1   -1    0    0  502    0 -0.00000000000E+00 -0.00000000000E+00 -0.15800375328E+04  0.15800375328E+04  0.00000000000E+00 0.  1.
         25    1    1    2    0    0 -0.30473047467E+03 -0.60992720469E+02  0.48137562445E+03  0.58645397599E+03  0.12500000000E+03 0.  0.
         21    1    1    2  503  501  0.10697505105E+03 -0.13691953742E+02 -0.15214510586E+03  0.18649199549E+03  0.00000000000E+00 0. -1.
          1    1    1    2  501    0  0.19775542362E+03  0.74684674211E+02 -0.13499546421E+04  0.13664049707E+04  0.00000000000E+00 0.  1.
<mgrwt>
<rscale>  4 0.33144530E+03</rscale>
<asrwt>0</asrwt>
<pdfrwt beam="1">  1       21 0.86048217E-01 0.33144530E+03</pdfrwt>
<pdfrwt beam="2">  1        1 0.24308270E+00 0.33144530E+03</pdfrwt>
<totfact> 0.75932153E+01</totfact>
</mgrwt>
</event>
<event>
 5    0  0.2947253E-001  0.2808981E+03  0.7546771E-02  0.1095199E+00
         21   -1    0    0  503  502  0.00000000000E+00  0.00000000000E+00  0.16323026419E+03  0.16323026419E+03  0.00000000000E+00 0.  1.
          1   -1    0    0  502    0 -0.00000000000E+00 -0.00000000000E+00 -0.18070858792E+04  0.18070858792E+04  0.00000000000E+00 0. -1.
         25    1    1    2    0    0  0.26107986612E+03  0.24084010989E+02  0.83227078273E+01  0.29058045967E+03  0.12500000000E+03 0.  0.
         21    1    1    2  503  501 -0.11016521552E+03  0.40003732734E+02 -0.39839657307E+03  0.41527882534E+03  0.00000000000E+00 0. -1.
          1    1    1    2  501    0 -0.15091465060E+03 -0.64087743723E+02 -0.12537817498E+04  0.12644568584E+04  0.00000000000E+00 0. -1.
<mgrwt>
<rscale>  4 0.28089811E+03</rscale>
<asrwt>0</asrwt>
<pdfrwt beam="1">  1       21 0.25112346E-01 0.28089811E+03</pdfrwt>
<pdfrwt beam="2">  1        1 0.27801324E+00 0.28089811E+03</pdfrwt>
<totfact> 0.73378123E+02</totfact>
</mgrwt>
</event>
<event>
 5    0  0.2947253E-001  0.2545215E+03  0.7546771E-02  0.1110480E+00
         21   -1    0    0  501  502  0.00000000000E+00  0.00000000000E+00  0.18002019869E+03  0.18002019869E+03  0.00000000000E+00 0. -1.
         -2   -1    0    0    0  501 -0.00000000000E+00 -0.00000000000E+00 -0.44064679702E+03  0.44064679702E+03  0.00000000000E+00 0.  1.
         25    1    1    2    0    0  0.14039800248E+03 -0.17159429727E+03  0.25327759670E+02  0.25577861007E+03  0.12500000000E+03 0.  0.
         21    1    1    2  501  501 -0.23900109898E+02  0.72452924122E+01 -0.36955745445E+02  0.44603101200E+02  0.00000000000E+00 0. -1.
         -2    1    1    2    0  502 -0.11649789259E+03  0.16434900486E+03 -0.24899861255E+03  0.32028528444E+03  0.00000000000E+00 0.  1.
<mgrwt>
<rscale>  4 0.25452152E+03</rscale>
<asrwt>0</asrwt>
<pdfrwt beam="1">  1       21 0.27695416E-01 0.25452152E+03</pdfrwt>
<pdfrwt beam="2">  1       -2 0.67791814E-01 0.25452152E+03</pdfrwt>
<totfact> 0.20446547E+03</totfact>
</mgrwt>
</event>
<event>
 5    0  0.2947253E-001  0.2564560E+03  0.7546771E-02  0.1109291E+00
         21   -1    0    0  501  502  0.00000000000E+00  0.00000000000E+00  0.51950887822E+03  0.51950887822E+03  0.00000000000E+00 0. -1.
         -1   -1    0    0    0  501 -0.00000000000E+00 -0.00000000000E+00 -0.17633759384E+03  0.17633759384E+03  0.00000000000E+00 0. -1.
         25    1    1    2    0    0  0.14625658295E+03 -0.17054432565E+03  0.34926874652E+03  0.43369345438E+03  0.12500000000E+03 0.  0.
         21    1    1    2  501  501  0.19185958931E+02  0.20457744888E+02 -0.25538212692E+02  0.37931789485E+02  0.00000000000E+00 0. -1.
         -1    1    1    2    0  502 -0.16544254189E+03  0.15008658077E+03  0.19440750544E+02  0.22422122820E+03  0.00000000000E+00 0. -1.
<mgrwt>
<rscale>  4 0.25645603E+03</rscale>
<asrwt>0</asrwt>
<pdfrwt beam="1">  1       21 0.79924442E-01 0.25645603E+03</pdfrwt>
<pdfrwt beam="2">  1       -1 0.27128861E-01 0.25645603E+03</pdfrwt>
<totfact> 0.14926576E+03</totfact>
</mgrwt>
</event>
<event>
 5    0  0.2947253E-001  0.2678221E+03  0.7546771E-02  0.1102533E+00
         -2   -1    0    0    0  501 -0.00000000000E+00  0.00000000000E+00  0.17063054209E+03  0.17063054209E+03  0.00000000000E+00 0.  1.
         21   -1    0    0  501  502  0.00000000000E+00 -0.00000000000E+00 -0.51845576498E+03  0.51845576498E+03  0.00000000000E+00 0.  1.
         25    1    1    2    0    0 -0.23179838360E+03  0.48715259586E+02 -0.35807164254E+03  0.44715094582E+03  0.12500000000E+03 0.  0.
         21    1    1    2  501  501  0.49506513654E+02  0.19269730201E+01 -0.13253056932E+02  0.51285978954E+02  0.00000000000E+00 0. -1.
         -2    1    1    2    0  502  0.18229186995E+03 -0.50642232607E+02  0.23499476574E+02  0.19064938230E+03  0.00000000000E+00 0.  1.
<mgrwt>
<rscale>  4 0.26782208E+03</rscale>
<asrwt>0</asrwt>
<pdfrwt beam="1">  1       21 0.79762426E-01 0.26782208E+03</pdfrwt>
<pdfrwt beam="2">  1       -2 0.26250853E-01 0.26782208E+03</pdfrwt>
<totfact> 0.14094287E+03</totfact>
</mgrwt>
</event>
<event>
 5    0  0.4018493E-001  0.4062721E+03  0.7546771E-02  0.1041629E+00
         -2   -1    0    0    0  501 -0.00000000000E+00  0.00000000000E+00  0.10226209808E+04  0.10226209808E+04  0.00000000000E+00 0. -1.
         21   -1    0    0  501  502  0.00000000000E+00 -0.00000000000E+00 -0.55613027032E+03  0.55613027032E+03  0.00000000000E+00 0. -1.
         25    1    1    2    0    0  0.38229482741E+03 -0.82990050845E+02 -0.42419503136E+03  0.59042620897E+03  0.12500000000E+03 0.  0.
         21    1    1    2  501  501 -0.54394183414E+02  0.67542246976E+01  0.26496537388E+02  0.60880318939E+02  0.00000000000E+00 0. -1.
         -2    1    1    2    0  502 -0.32790064400E+03  0.76235826147E+02  0.86418920443E+03  0.92744472319E+03  0.00000000000E+00 0. -1.
<mgrwt>
<rscale>  4 0.40627214E+03</rscale>
<asrwt>0</asrwt>
<pdfrwt beam="1">  1       21 0.85558503E-01 0.40627214E+03</pdfrwt>
<pdfrwt beam="2">  1       -2 0.15732631E+00 0.40627214E+03</pdfrwt>
<totfact> 0.24548706E+01</totfact>
</mgrwt>
</event>
<event>
 5    0  0.2947253E-001  0.3554754E+03  0.7546771E-02  0.1060390E+00
         -4   -1    0    0    0  501 -0.00000000000E+00  0.00000000000E+00  0.11834556200E+03  0.11834556200E+03  0.00000000000E+00 0.  1.
         21   -1    0    0  501  502  0.00000000000E+00 -0.00000000000E+00 -0.12451119826E+04  0.12451119826E+04  0.00000000000E+00 0.  1.
         25    1    1    2    0    0 -0.33126025328E+03 -0.31692713581E+02 -0.85952362102E+03  0.93013097927E+03  0.12500000000E+03 0.  0.
         21    1    1    2  501  501  0.72726144296E+02 -0.16135262824E+02 -0.87102552531E+02  0.11461367034E+03  0.00000000000E+00 0.  1.
         -4    1    1    2    0  502  0.25853410898E+03  0.47827976405E+02 -0.18014024703E+03  0.31871289499E+03  0.00000000000E+00 0.  1.
<mgrwt>
<rscale>  4 0.35547543E+03</rscale>
<asrwt>0</asrwt>
<pdfrwt beam="1">  1       21 0.19155570E+00 0.35547543E+03</pdfrwt>
<pdfrwt beam="2">  1       -4 0.18207008E-01 0.35547543E+03</pdfrwt>
<totfact> 0.16288509E+02</totfact>
</mgrwt>
</event>
<event>
 5    0  0.2947253E-001  0.2384716E+03  0.7546771E-02  0.1120815E+00
          2   -1    0    0  502    0 -0.00000000000E+00  0.00000000000E+00  0.26963360557E+04  0.26963360557E+04  0.00000000000E+00 0.  1.
         21   -1    0    0  503  502  0.00000000000E+00 -0.00000000000E+00 -0.33181479893E+03  0.33181479893E+03  0.00000000000E+00 0. -1.
         25    1    1    2    0    0  0.19999077026E+03 -0.35318333696E+02 -0.28421107481E+03  0.37100488936E+03  0.12500000000E+03 0.  0.
         21    1    1    2  503  501 -0.34875786692E+02  0.30213119993E+01  0.23932041341E+03  0.24186713108E+03  0.00000000000E+00 0.  1.
          2    1    1    2  501    0 -0.16511498357E+03  0.32297021696E+02  0.24094119182E+04  0.24152788342E+04  0.00000000000E+00 0.  1.
<mgrwt>
<rscale>  4 0.23847158E+03</rscale>
<asrwt>0</asrwt>
<pdfrwt beam="1">  1       21 0.51048432E-01 0.23847158E+03</pdfrwt>
<pdfrwt beam="2">  1        2 0.41482092E+00 0.23847158E+03</pdfrwt>
<totfact> 0.14316287E+02</totfact>
</mgrwt>
</event>
<event>
 5    0  0.2947253E-001  0.2869770E+03  0.7546771E-02  0.1091938E+00
          2   -1    0    0  502    0 -0.00000000000E+00  0.00000000000E+00  0.55336283561E+03  0.55336283561E+03  0.00000000000E+00 0. -1.
         21   -1    0    0  503  502  0.00000000000E+00 -0.00000000000E+00 -0.24490879526E+03  0.24490879526E+03  0.00000000000E+00 0.  1.
         25    1    1    2    0    0 -0.24060119626E+03 -0.94031114491E+02 -0.10676875624E+03  0.30619495986E+03  0.12500000000E+03 0.  0.
         21    1    1    2  503  501  0.75986979824E+02  0.56346509325E+01  0.10132711809E+03  0.12677915939E+03  0.00000000000E+00 0. -1.
          2    1    1    2  501    0  0.16461421644E+03  0.88396463558E+02  0.31389567849E+03  0.36529751162E+03  0.00000000000E+00 0. -1.
<mgrwt>
<rscale>  4 0.28697698E+03</rscale>
<asrwt>0</asrwt>
<pdfrwt beam="1">  1       21 0.37678276E-01 0.28697698E+03</pdfrwt>
<pdfrwt beam="2">  1        2 0.85132744E-01 0.28697698E+03</pdfrwt>
<totfact> 0.45960600E+03</totfact>
</mgrwt>
</event>
<event>
 5    0  0.2947253E-001  0.3499808E+03  0.7546771E-02  0.1062623E+00
          2   -1    0    0  502    0 -0.00000000000E+00  0.00000000000E+00  0.28040806789E+04  0.28040806789E+04  0.00000000000E+00 0.  1.
         21   -1    0    0  503  502  0.00000000000E+00 -0.00000000000E+00 -0.75443274401E+02  0.75443274401E+02  0.00000000000E+00 0. -1.
         25    1    1    2    0    0  0.29799167368E+03  0.16166180382E+03  0.50495935221E+03  0.62092070652E+03  0.12500000000E+03 0.  0.
         21    1    1    2  503  501 -0.56412321502E+01 -0.20872561201E+02  0.15236164373E+02  0.26450482341E+02  0.00000000000E+00 0.  1.
          2    1    1    2  501    0 -0.29235044153E+03 -0.14078924262E+03  0.22084418879E+04  0.22321527644E+04  0.00000000000E+00 0.  1.
<mgrwt>
<rscale>  4 0.34998077E+03</rscale>
<asrwt>0</asrwt>
<pdfrwt beam="1">  1       21 0.11606660E-01 0.34998077E+03</pdfrwt>
<pdfrwt beam="2">  1        2 0.43139695E+00 0.34998077E+03</pdfrwt>
<totfact> 0.20470640E+03</totfact>
</mgrwt>
</event>
<event>
 5    0  0.2947253E-001  0.3214417E+03  0.7546771E-02  0.1074988E+00
         -1   -1    0    0    0  501 -0.00000000000E+00  0.00000000000E+00  0.11759348987E+04  0.11759348987E+04  0.00000000000E+00 0.  1.
         21   -1    0    0  501  502  0.00000000000E+00 -0.00000000000E+00 -0.16206718189E+03  0.16206718189E+03  0.00000000000E+00 0.  1.
         25    1    1    2    0    0 -0.13406358899E+03  0.21779529573E+03  0.93023769117E+02  0.29947664075E+03  0.12500000000E+03 0.  0.
         21    1    1    2  501  501  0.80272186665E+02  0.88654240933E+02  0.85206680513E+02  0.14684473702E+03  0.00000000000E+00 0.  1.
         -1    1    1    2    0  502  0.53791402321E+02 -0.30644953666E+03  0.83563726714E+03  0.89168070278E+03  0.00000000000E+00 0.  1.
<mgrwt>
<rscale>  4 0.32144166E+03</rscale>
<asrwt>0</asrwt>
<pdfrwt beam="1">  1       21 0.24933413E-01 0.32144166E+03</pdfrwt>
<pdfrwt beam="2">  1       -1 0.18091306E+00 0.32144166E+03</pdfrwt>
<totfact> 0.30901116E+02</totfact>
</mgrwt>
</event>
<event>
 5    0  0.2947253E-001  0.4229518E+03  0.7546771E-02  0.1036110E+00
          1   -1    0    0  502    0 -0.00000000000E+00  0.00000000000E+00  0.35066158679E+04  0.35066158679E+04  0.00000000000E+00 0.  1.
         21   -1    0    0  503  502  0.00000000000E+00 -0.00000000000E+00 -0.99914505439E+02  0.99914505439E+02  0.00000000000E+00 0.  1.
         25    1    1    2    0    0 -0.37120219857E+03 -0.15960003728E+03  0.43515449089E+03  0.60683414131E+03  0.12500000000E+03 0.  0.
         21    1    1    2  503  501  0.71178990108E+02  0.48880383300E+02  0.47938940550E+03  0.48710362615E+03  0.00000000000E+00 0.  1.
          1    1    1    2  501    0  0.30002320846E+03  0.11071965398E+03  0.24921574661E+04  0.25125926059E+04  0.00000000000E+00 0.  1.
<mgrwt>
<rscale>  4 0.42295182E+03</rscale>
<asrwt>0</asrwt>
<pdfrwt beam="1">  1       21 0.15371465E-01 0.42295182E+03</pdfrwt>
<pdfrwt beam="2">  1        1 0.53947927E+00 0.42295182E+03</pdfrwt>
<totfact> 0.11789906E+02</totfact>
</mgrwt>
</event>
<event>
 5    0  0.2947253E-001  0.2771538E+03  0.7546771E-02  0.1098831E+00
         -2   -1    0    0    0  501 -0.00000000000E+00  0.00000000000E+00  0.31666750182E+03  0.31666750182E+03  0.00000000000E+00 0.  1.
         21   -1    0    0  501  502  0.00000000000E+00 -0.00000000000E+00 -0.25865386949E+03  0.25865386949E+03  0.00000000000E+00 0. -1.
         25    1    1    2    0    0  0.78964110919E+02 -0.22112136603E+03 -0.62273334832E+02  0.27319033211E+03  0.12500000000E+03 0.  0.
         21    1    1    2  501  501 -0.94246674788E+00  0.17697840082E+03  0.11751805967E+03  0.21244466796E+03  0.00000000000E+00 0.  1.
         -2    1    1    2    0  502 -0.78021644171E+02  0.44142965213E+02  0.27689074966E+01  0.89686371237E+02  0.00000000000E+00 0.  1.
<mgrwt>
<rscale>  4 0.27432174E+03</rscale>
<asrwt>0</asrwt>
<pdfrwt beam="1">  1       21 0.39792903E-01 0.27715377E+03</pdfrwt>
<pdfrwt beam="2">  1       -2 0.48718077E-01 0.27715377E+03</pdfrwt>
<totfact> 0.19557563E+03</totfact>
</mgrwt>
</event>
<event>
 5    0  0.2947253E-001  0.3169097E+03  0.7546771E-02  0.1077080E+00
         21   -1    0    0  503  502  0.00000000000E+00  0.00000000000E+00  0.68714285334E+02  0.68714285334E+02  0.00000000000E+00 0. -1.
          2   -1    0    0  502    0 -0.00000000000E+00 -0.00000000000E+00 -0.14003358128E+04  0.14003358128E+04  0.00000000000E+00 0. -1.
         25    1    1    2    0    0 -0.10156952965E+03 -0.27292933078E+03 -0.79698230189E+03  0.85767859859E+03  0.12500000000E+03 0.  0.
         21    1    1    2  503  501  0.28575380771E+02  0.45131378668E+02 -0.63458209256E+02  0.82947803157E+02  0.00000000000E+00 0.  1.
          2    1    1    2  501    0  0.72994148874E+02  0.22779795212E+03 -0.47118101629E+03  0.52842369636E+03  0.00000000000E+00 0. -1.
<mgrwt>
<rscale>  4 0.31690975E+03</rscale>
<asrwt>0</asrwt>
<pdfrwt beam="1">  1       21 0.10571430E-01 0.31690975E+03</pdfrwt>
<pdfrwt beam="2">  1        2 0.21543625E+00 0.31690975E+03</pdfrwt>
<totfact> 0.14124071E+04</totfact>
</mgrwt>
</event>
<event>
 5    0  0.2947253E-001  0.1803465E+03  0.7546771E-02  0.1167468E+00
          2   -1    0    0  502    0 -0.00000000000E+00  0.00000000000E+00  0.47519447499E+03  0.47519447499E+03  0.00000000000E+00 0. -1.
         21   -1    0    0  503  502  0.00000000000E+00 -0.00000000000E+00 -0.15602531964E+03  0.15602531964E+03  0.00000000000E+00 0.  1.
         25    1    1    2    0    0  0.20900610157E+03 -0.14835726700E+02  0.28361041211E+03  0.37411698055E+03  0.12500000000E+03 0.  0.
         21    1    1    2  503  501 -0.10187979340E+03 -0.41460575992E+02  0.71102237521E+02  0.13097327913E+03  0.00000000000E+00 0. -1.
          2    1    1    2  501    0 -0.10712630817E+03  0.56296302692E+02 -0.35543494285E+02  0.12612953494E+03  0.00000000000E+00 0. -1.
<mgrwt>
<rscale>  4 0.18034654E+03</rscale>
<asrwt>0</asrwt>
<pdfrwt beam="1">  1       21 0.24003896E-01 0.18034654E+03</pdfrwt>
<pdfrwt beam="2">  1        2 0.73106842E-01 0.18034654E+03</pdfrwt>
<totfact> 0.13530509E+04</totfact>
</mgrwt>
</event>
<event>
 5    0  0.2947253E-001  0.2367792E+03  0.7546771E-02  0.1121957E+00
         21   -1    0    0  501  502  0.00000000000E+00  0.00000000000E+00  0.13343651676E+03  0.13343651676E+03  0.00000000000E+00 0. -1.
         -1   -1    0    0    0  501 -0.00000000000E+00 -0.00000000000E+00 -0.94412071549E+03  0.94412071549E+03  0.00000000000E+00 0. -1.
         25    1    1    2    0    0  0.29144438218E+02 -0.19897237517E+03  0.48921942785E+01  0.23682976570E+03  0.12500000000E+03 0.  0.
         21    1    1    2  501  501  0.77333268468E+01  0.45503670680E+02 -0.17327319933E+03  0.17931533676E+03  0.00000000000E+00 0.  1.
         -1    1    1    2    0  502 -0.36877765065E+02  0.15346870449E+03 -0.64230319368E+03  0.66141212979E+03  0.00000000000E+00 0. -1.
<mgrwt>
<rscale>  4 0.23677923E+03</rscale>
<asrwt>0</asrwt>
<pdfrwt beam="1">  1       21 0.20528695E-01 0.23677923E+03</pdfrwt>
<pdfrwt beam="2">  1       -1 0.14524934E+00 0.23677923E+03</pdfrwt>
<totfact> 0.84067551E+02</totfact>
</mgrwt>
</event>
<event>
 5    0  0.2947253E-001  0.2130653E+03  0.7546771E-02  0.1139161E+00
          2   -1    0    0  502    0 -0.00000000000E+00  0.00000000000E+00  0.20085770347E+04  0.20085770347E+04  0.00000000000E+00 0.  1.
         21   -1    0    0  503  502  0.00000000000E+00 -0.00000000000E+00 -0.33641615043E+02  0.33641615043E+02  0.00000000000E+00 0. -1.
         25    1    1    2    0    0  0.15429974446E+03 -0.12733789308E+03  0.54672691400E+03  0.59544829217E+03  0.12500000000E+03 0.  0.
         21    1    1    2  503  501 -0.53358265158E+02 -0.59029597983E+01  0.19390235747E+03  0.20119660441E+03  0.00000000000E+00 0.  1.
          2    1    1    2  501    0 -0.10094147930E+03  0.13324085287E+03  0.12343061482E+04  0.12455737531E+04  0.00000000000E+00 0.  1.
<mgrwt>
<rscale>  4 0.21306531E+03</rscale>
<asrwt>0</asrwt>
<pdfrwt beam="1">  1       21 0.51756347E-02 0.21306531E+03</pdfrwt>
<pdfrwt beam="2">  1        2 0.30901176E+00 0.21306531E+03</pdfrwt>
<totfact> 0.24036124E+04</totfact>
</mgrwt>
</event>
<event>
 5    0  0.2947253E-001  0.2458271E+03  0.7546771E-02  0.1115971E+00
          2   -1    0    0  502    0 -0.00000000000E+00  0.00000000000E+00  0.67116066678E+03  0.67116066678E+03  0.00000000000E+00 0. -1.
         21   -1    0    0  503  502  0.00000000000E+00 -0.00000000000E+00 -0.19988607202E+03  0.19988607202E+03  0.00000000000E+00 0.  1.
         25    1    1    2    0    0  0.11489469428E+03 -0.17891184196E+03 -0.85984027860E+02  0.26120584031E+03  0.12500000000E+03 0.  0.
         21    1    1    2  503  501 -0.27841443765E+02 -0.93023435557E+01  0.24807507314E+02  0.38432954683E+02  0.00000000000E+00 0. -1.
          2    1    1    2  501    0 -0.87053250516E+02  0.18821418551E+03  0.53245111530E+03  0.57140794380E+03  0.00000000000E+00 0. -1.
<mgrwt>
<rscale>  4 0.24582713E+03</rscale>
<asrwt>0</asrwt>
<pdfrwt beam="1">  1       21 0.30751704E-01 0.24582713E+03</pdfrwt>
<pdfrwt beam="2">  1        2 0.10325549E+00 0.24582713E+03</pdfrwt>
<totfact> 0.55548509E+03</totfact>
</mgrwt>
</event>
<event>
 5    0  0.2947253E-001  0.2457685E+03  0.7546771E-02  0.1116009E+00
          4   -1    0    0  502    0 -0.00000000000E+00  0.00000000000E+00  0.34264988792E+03  0.34264988792E+03  0.00000000000E+00 0.  1.
         21   -1    0    0  503  502  0.00000000000E+00 -0.00000000000E+00 -0.36640577670E+03  0.36640577670E+03  0.00000000000E+00 0.  1.
         25    1    1    2    0    0 -0.25946794878E+02  0.23845232195E+03 -0.24313054471E+03  0.36368971360E+03  0.12500000000E+03 0.  0.
         21    1    1    2  503  501 -0.37282390983E+01 -0.32676208781E+02 -0.11347185884E+02  0.34790702990E+02  0.00000000000E+00 0. -1.
          4    1    1    2  501    0  0.29675033976E+02 -0.20577611317E+03  0.23072184183E+03  0.31057524803E+03  0.00000000000E+00 0.  1.
<mgrwt>
<rscale>  4 0.24576855E+03</rscale>
<asrwt>0</asrwt>
<pdfrwt beam="1">  1       21 0.56370120E-01 0.24576855E+03</pdfrwt>
<pdfrwt beam="2">  1        4 0.52715367E-01 0.24576855E+03</pdfrwt>
<totfact> 0.43084450E+02</totfact>
</mgrwt>
</event>
<event>
 5    0  0.2947253E-001  0.2773201E+03  0.7546771E-02  0.1097162E+00
          4   -1    0    0  502    0 -0.00000000000E+00  0.00000000000E+00  0.39377125393E+03  0.39377125393E+03  0.00000000000E+00 0.  1.
         21   -1    0    0  503  502  0.00000000000E+00 -0.00000000000E+00 -0.12063891451E+04  0.12063891451E+04  0.00000000000E+00 0.  1.
         25    1    1    2    0    0 -0.59499685068E+02  0.24480330782E+03 -0.11122255548E+04  0.11472312569E+04  0.12500000000E+03 0.  0.
         21    1    1    2  503  501  0.81989729087E+02 -0.67863047095E+02  0.25804965542E+01  0.10646298793E+03  0.00000000000E+00 0. -1.
          4    1    1    2  501    0 -0.22490044018E+02 -0.17694026073E+03  0.29702716714E+03  0.34646615414E+03  0.00000000000E+00 0.  1.
<mgrwt>
<rscale>  4 0.27732005E+03</rscale>
<asrwt>0</asrwt>
<pdfrwt beam="1">  1       21 0.18559833E+00 0.27732005E+03</pdfrwt>
<pdfrwt beam="2">  1        4 0.60580193E-01 0.27732005E+03</pdfrwt>
<totfact> 0.17453267E+01</totfact>
</mgrwt>
</event>
<event>
 5    0  0.2947253E-001  0.2833858E+03  0.7546771E-02  0.1093854E+00
         21   -1    0    0  503  502  0.00000000000E+00  0.00000000000E+00  0.10412755564E+03  0.10412755564E+03  0.00000000000E+00 0. -1.
          1   -1    0    0  502    0 -0.00000000000E+00 -0.00000000000E+00 -0.22417199076E+04  0.22417199076E+04  0.00000000000E+00 0. -1.
         25    1    1    2    0    0 -0.25352058564E+03  0.20244111153E+02 -0.11375619228E+03  0.30536532656E+03  0.12500000000E+03 0.  0.
         21    1    1    2  503  501  0.24497309017E+02 -0.15209954672E+02 -0.32378967564E+03  0.32507109211E+03  0.00000000000E+00 0.  1.
          1    1    1    2  501    0  0.22902327663E+03 -0.50341564815E+01 -0.17000464841E+04  0.17154110446E+04  0.00000000000E+00 0. -1.
<mgrwt>
<rscale>  4 0.28338580E+03</rscale>
<asrwt>0</asrwt>
<pdfrwt beam="1">  1       21 0.16019624E-01 0.28338580E+03</pdfrwt>
<pdfrwt beam="2">  1        1 0.34487998E+00 0.28338580E+03</pdfrwt>
<totfact> 0.89107563E+02</totfact>
</mgrwt>
</event>
<event>
 5    0  0.2947253E-001  0.2306672E+03  0.7546771E-02  0.1126171E+00
         -3   -1    0    0    0  501 -0.00000000000E+00  0.00000000000E+00  0.24381015796E+03  0.24381015796E+03  0.00000000000E+00 0. -1.
         21   -1    0    0  501  502  0.00000000000E+00 -0.00000000000E+00 -0.45079394733E+03  0.45079394733E+03  0.00000000000E+00 0. -1.
         25    1    1    2    0    0 -0.84702146149E+02  0.19077631512E+03 -0.34280398940E+03  0.42036844687E+03  0.12500000000E+03 0.  0.
         21    1    1    2  501  501  0.10502431837E+03 -0.11454009422E+03  0.65837981276E+02  0.16877257008E+03  0.00000000000E+00 0. -1.
         -3    1    1    2    0  502 -0.20322172221E+02 -0.76236220891E+02  0.69982218753E+02  0.10546308833E+03  0.00000000000E+00 0. -1.
<mgrwt>
<rscale>  4 0.23066720E+03</rscale>
<asrwt>0</asrwt>
<pdfrwt beam="1">  1       21 0.69352914E-01 0.23066720E+03</pdfrwt>
<pdfrwt beam="2">  1       -3 0.37509256E-01 0.23066720E+03</pdfrwt>
<totfact> 0.65179357E+02</totfact>
</mgrwt>
</event>
