<event>
 5    0  0.2159162E+000  0.3513185E+03  0.7546771E-02  0.1062075E+00
         21   -1    0    0  502  501  0.00000000000E+00  0.00000000000E+00  0.64921871379E+03  0.64921871379E+03  0.00000000000E+00 0.  1.
         21   -1    0    0  503  502 -0.00000000000E+00 -0.00000000000E+00 -0.32145655770E+03  0.32145655770E+03  0.00000000000E+00 0.  1.
         25    1    1    2    0    0  0.45605572568E+02  0.32514580998E+03 -0.15525064350E+03  0.38409299435E+03  0.12500000000E+03 0.  0.
         21    1    1    2  503  504 -0.20344188963E+02 -0.44087790043E+02  0.96391235021E+02  0.10793002105E+03  0.00000000000E+00 0. -1.
         21    1    1    2  504  501 -0.25261383605E+02 -0.28105801994E+03  0.38662156457E+03  0.47865225609E+03  0.00000000000E+00 0.  1.
<mgrwt>
<rscale>  4 0.35131847E+03</rscale>
<asrwt>0</asrwt>
<pdfrwt beam="1">  1       21 0.99879802E-01 0.35131847E+03</pdfrwt>
<pdfrwt beam="2">  1       21 0.49454855E-01 0.35131847E+03</pdfrwt>
<totfact> 0.29019614E+03</totfact>
</mgrwt>
</event>
<event>
 5    0  0.3140958E+000  0.2924141E+03  0.7546771E-02  0.1089095E+00
         21   -1    0    0  502  501  0.00000000000E+00  0.00000000000E+00  0.10305989752E+04  0.10305989752E+04  0.00000000000E+00 0. -1.
         21   -1    0    0  503  502 -0.00000000000E+00 -0.00000000000E+00 -0.84266599616E+02  0.84266599616E+02  0.00000000000E+00 0. -1.
         25    1    1    2    0    0 -0.25640456440E+03 -0.64325175394E+02  0.59938825177E+03  0.66691251690E+03  0.12500000000E+03 0.  0.
         21    1    1    2  503  504  0.61599359186E+02  0.19517940788E+02  0.16674505795E+03  0.17882769756E+03  0.00000000000E+00 0. -1.
         21    1    1    2  504  501  0.19480520521E+03  0.44807234606E+02  0.18019906587E+03  0.26912536037E+03  0.00000000000E+00 0. -1.
<mgrwt>
<rscale>  4 0.29241414E+03</rscale>
<asrwt>0</asrwt>
<pdfrwt beam="1">  1       21 0.15855368E+00 0.29241414E+03</pdfrwt>
<pdfrwt beam="2">  1       21 0.12964093E-01 0.29241414E+03</pdfrwt>
<totfact> 0.12390718E+04</totfact>
</mgrwt>
</event>
<event>
 5    0  0.4927653E+000  0.3193739E+03  0.7546771E-02  0.1075938E+00
         21   -1    0    0  502  501  0.00000000000E+00  0.00000000000E+00  0.17488398704E+03  0.17488398704E+03  0.00000000000E+00 0. -1.
         21   -1    0    0  503  502 -0.00000000000E+00 -0.00000000000E+00 -0.60016982122E+03  0.60016982122E+03  0.00000000000E+00 0. -1.
         25    1    1    2    0    0 -0.27735540222E+03 -0.97204387407E+02 -0.10276127957E+03  0.33549902034E+03  0.12500000000E+03 0.  0.
         21    1    1    2  503  504  0.25080079658E+03  0.85456484867E+02 -0.26300690875E+03  0.37333160115E+03  0.00000000000E+00 0. -1.
         21    1    1    2  504  501  0.26554605642E+02  0.11747902540E+02 -0.59517645868E+02  0.66223186759E+02  0.00000000000E+00 0. -1.
<mgrwt>
<rscale>  4 0.31937394E+03</rscale>
<asrwt>0</asrwt>
<pdfrwt beam="1">  1       21 0.26905229E-01 0.31937394E+03</pdfrwt>
<pdfrwt beam="2">  1       21 0.92333819E-01 0.31937394E+03</pdfrwt>
<totfact> 0.12174738E+04</totfact>
</mgrwt>
</event>
<event>
 5    0  0.2577316E+000  0.2081496E+03  0.7546771E-02  0.1143040E+00
         21   -1    0    0  502  501  0.00000000000E+00  0.00000000000E+00  0.34565543714E+03  0.34565543714E+03  0.00000000000E+00 0. -1.
         21   -1    0    0  503  502 -0.00000000000E+00 -0.00000000000E+00 -0.24314347727E+03  0.24314347727E+03  0.00000000000E+00 0. -1.
         25    1    1    2    0    0  0.24368502514E+03 -0.33427504632E+02  0.13545701602E+03  0.30736524321E+03  0.12500000000E+03 0.  0.
         21    1    1    2  503  504 -0.12285428380E+03  0.30442983549E+02  0.48655087180E+02  0.13559966005E+03  0.00000000000E+00 0. -1.
         21    1    1    2  504  501 -0.12083074134E+03  0.29845210825E+01 -0.81600143325E+02  0.14583401115E+03  0.00000000000E+00 0. -1.
<mgrwt>
<rscale>  4 0.20814961E+03</rscale>
<asrwt>0</asrwt>
<pdfrwt beam="1">  1       21 0.53177760E-01 0.20814961E+03</pdfrwt>
<pdfrwt beam="2">  1       21 0.37406689E-01 0.20814961E+03</pdfrwt>
<totfact> 0.22876458E+04</totfact>
</mgrwt>
</event>
<event>
 5    0  0.2159162E+000  0.2771292E+03  0.7546771E-02  0.1097267E+00
         21   -1    0    0  502  501  0.00000000000E+00  0.00000000000E+00  0.78051850262E+03  0.78051850262E+03  0.00000000000E+00 0.  1.
         21   -1    0    0  503  502 -0.00000000000E+00 -0.00000000000E+00 -0.31757280777E+03  0.31757280777E+03  0.00000000000E+00 0. -1.
         25    1    1    2    0    0  0.13131266720E+03  0.21857514731E+03  0.68391958884E+03  0.74053299426E+03  0.12500000000E+03 0.  0.
         21    1    1    2  503  504 -0.88099250415E+02 -0.15687515582E+03 -0.21733169482E+03  0.28214244277E+03  0.00000000000E+00 0. -1.
         21    1    1    2  504  501 -0.43213416784E+02 -0.61699991485E+02 -0.36421991649E+01  0.75415873357E+02  0.00000000000E+00 0. -1.
<mgrwt>
<rscale>  4 0.27712918E+03</rscale>
<asrwt>0</asrwt>
<pdfrwt beam="1">  1       21 0.12007977E+00 0.27712918E+03</pdfrwt>
<pdfrwt beam="2">  1       21 0.48857355E-01 0.27712918E+03</pdfrwt>
<totfact> 0.19730575E+03</totfact>
</mgrwt>
</event>
<event>
 5    0  0.2159162E+000  0.2617273E+03  0.7546771E-02  0.1106110E+00
         21   -1    0    0  502  501  0.00000000000E+00  0.00000000000E+00  0.34577036292E+03  0.34577036292E+03  0.00000000000E+00 0.  1.
         21   -1    0    0  503  502 -0.00000000000E+00 -0.00000000000E+00 -0.22177178505E+03  0.22177178505E+03  0.00000000000E+00 0.  1.
         25    1    1    2    0    0  0.14313050354E+03 -0.17997183614E+03  0.17634803686E+03  0.31559441210E+03  0.12500000000E+03 0.  0.
         21    1    1    2  503  504 -0.12060149424E+03  0.12210261439E+03 -0.73004064470E+02  0.18650298197E+03  0.00000000000E+00 0.  1.
         21    1    1    2  504  501 -0.22529009306E+02  0.57869221744E+02  0.20654605479E+02  0.65444753901E+02  0.00000000000E+00 0.  1.
<mgrwt>
<rscale>  4 0.26172734E+03</rscale>
<asrwt>0</asrwt>
<pdfrwt beam="1">  1       21 0.53195441E-01 0.26172734E+03</pdfrwt>
<pdfrwt beam="2">  1       21 0.34118736E-01 0.26172734E+03</pdfrwt>
<totfact> 0.26759604E+04</totfact>
</mgrwt>
</event>
<event>
 5    0  0.2159162E+000  0.3078731E+03  0.7546771E-02  0.1081370E+00
         21   -1    0    0  502  501  0.00000000000E+00  0.00000000000E+00  0.14014755755E+04  0.14014755755E+04  0.00000000000E+00 0.  1.
         21   -1    0    0  503  502 -0.00000000000E+00 -0.00000000000E+00 -0.12600149002E+03  0.12600149002E+03  0.00000000000E+00 0. -1.
         25    1    1    2    0    0 -0.26635881686E+03  0.97585608855E+02  0.10861829222E+04  0.11295522613E+04  0.12500000000E+03 0.  0.
         21    1    1    2  503  504  0.23341964802E+03 -0.14812387111E+03  0.10823503153E+03  0.29688421199E+03  0.00000000000E+00 0. -1.
         21    1    1    2  504  501  0.32939168841E+02  0.50538262256E+02  0.81056131695E+02  0.10104059224E+03  0.00000000000E+00 0. -1.
<mgrwt>
<rscale>  4 0.30787315E+03</rscale>
<asrwt>0</asrwt>
<pdfrwt beam="1">  1       21 0.21561162E+00 0.30787315E+03</pdfrwt>
<pdfrwt beam="2">  1       21 0.19384846E-01 0.30787315E+03</pdfrwt>
<totfact> 0.23813095E+03</totfact>
</mgrwt>
</event>
<event>
 5    0  0.2897385E+000  0.3301933E+03  0.7546771E-02  0.1071102E+00
         21   -1    0    0  502  501  0.00000000000E+00  0.00000000000E+00  0.36833249219E+03  0.36833249219E+03  0.00000000000E+00 0.  1.
         21   -1    0    0  503  502 -0.00000000000E+00 -0.00000000000E+00 -0.31039000762E+03  0.31039000762E+03  0.00000000000E+00 0.  1.
         25    1    1    2    0    0  0.58735235350E+02 -0.29941336803E+03  0.10305594598E+03  0.34546160543E+03  0.12500000000E+03 0.  0.
         21    1    1    2  503  504 -0.63401295348E+02  0.70134007710E+02 -0.43151370287E+02  0.10392566597E+03  0.00000000000E+00 0.  1.
         21    1    1    2  504  501  0.46660599979E+01  0.22927936032E+03 -0.19620911190E+01  0.22933522840E+03  0.00000000000E+00 0.  1.
<mgrwt>
<rscale>  4 0.33007790E+03</rscale>
<asrwt>0</asrwt>
<pdfrwt beam="1">  1       21 0.56666538E-01 0.33019328E+03</pdfrwt>
<pdfrwt beam="2">  1       21 0.47752309E-01 0.33019328E+03</pdfrwt>
<totfact> 0.11429361E+04</totfact>
</mgrwt>
</event>
<event>
 5    0  0.2159162E+000  0.2567099E+03  0.7546771E-02  0.1109136E+00
         21   -1    0    0  502  501  0.00000000000E+00  0.00000000000E+00  0.26543682248E+03  0.26543682248E+03  0.00000000000E+00 0. -1.
         21   -1    0    0  503  502 -0.00000000000E+00 -0.00000000000E+00 -0.25620247897E+03  0.25620247897E+03  0.00000000000E+00 0. -1.
         25    1    1    2    0    0  0.15359014322E+03  0.16335560695E+03  0.90114586466E+02  0.27206731724E+03  0.12500000000E+03 0.  0.
         21    1    1    2  503  504 -0.11689030499E+03 -0.96984022022E+02 -0.84188376909E+02  0.17365749835E+03  0.00000000000E+00 0. -1.
         21    1    1    2  504  501 -0.36699838227E+02 -0.66371584930E+02  0.33081339494E+01  0.75914485853E+02  0.00000000000E+00 0. -1.
<mgrwt>
<rscale>  4 0.25670993E+03</rscale>
<asrwt>0</asrwt>
<pdfrwt beam="1">  1       21 0.40836434E-01 0.25670993E+03</pdfrwt>
<pdfrwt beam="2">  1       21 0.39415766E-01 0.25670993E+03</pdfrwt>
<totfact> 0.34766093E+04</totfact>
</mgrwt>
</event>
<event>
 5    0  0.2159162E+000  0.3687556E+03  0.7546771E-02  0.1055170E+00
         21   -1    0    0  502  501  0.00000000000E+00  0.00000000000E+00  0.94429570433E+02  0.94429570433E+02  0.00000000000E+00 0. -1.
         21   -1    0    0  503  502 -0.00000000000E+00 -0.00000000000E+00 -0.16600529313E+04  0.16600529313E+04  0.00000000000E+00 0.  1.
         25    1    1    2    0    0 -0.23966067460E+03  0.25083551250E+03 -0.43483552072E+03  0.57014263423E+03  0.12500000000E+03 0.  0.
         21    1    1    2  503  504  0.21092392750E+03 -0.22894524026E+03 -0.10614507259E+04  0.11061566208E+04  0.00000000000E+00 0.  1.
         21    1    1    2  504  501  0.28736747100E+02 -0.21890272240E+02 -0.69337114221E+02  0.78183246678E+02  0.00000000000E+00 0.  1.
<mgrwt>
<rscale>  4 0.36875560E+03</rscale>
<asrwt>0</asrwt>
<pdfrwt beam="1">  1       21 0.14527625E-01 0.36875560E+03</pdfrwt>
<pdfrwt beam="2">  1       21 0.25539278E+00 0.36875560E+03</pdfrwt>
<totfact> 0.22297661E+03</totfact>
</mgrwt>
</event>
<event>
 5    0  0.3183178E+000  0.2934881E+03  0.7546771E-02  0.1088542E+00
         21   -1    0    0  502  501  0.00000000000E+00  0.00000000000E+00  0.86232323927E+03  0.86232323927E+03  0.00000000000E+00 0.  1.
         21   -1    0    0  503  502 -0.00000000000E+00 -0.00000000000E+00 -0.10015633569E+03  0.10015633569E+03  0.00000000000E+00 0.  1.
         25    1    1    2    0    0  0.23046363504E+03  0.13189679386E+03  0.53895033231E+03  0.61367964933E+03  0.12500000000E+03 0.  0.
         21    1    1    2  503  504 -0.20405459451E+03 -0.11945835350E+03  0.18244255424E+03  0.29865341344E+03  0.00000000000E+00 0.  1.
         21    1    1    2  504  501 -0.26409040526E+02 -0.12438440362E+02  0.40774017034E+02  0.50146512194E+02  0.00000000000E+00 0.  1.
<mgrwt>
<rscale>  4 0.29348808E+03</rscale>
<asrwt>0</asrwt>
<pdfrwt beam="1">  1       21 0.13266511E+00 0.29348808E+03</pdfrwt>
<pdfrwt beam="2">  1       21 0.15408668E-01 0.29348808E+03</pdfrwt>
<totfact> 0.14478077E+04</totfact>
</mgrwt>
</event>
<event>
 5    0  0.2159162E+000  0.4356791E+03  0.7546771E-02  0.1032081E+00
         21   -1    0    0  502  501  0.00000000000E+00  0.00000000000E+00  0.24333452514E+04  0.24333452514E+04  0.00000000000E+00 0.  1.
         21   -1    0    0  503  502 -0.00000000000E+00 -0.00000000000E+00 -0.77474611773E+02  0.77474611773E+02  0.00000000000E+00 0.  1.
         25    1    1    2    0    0  0.14734620570E+03 -0.39048738510E+03  0.14074008172E+04  0.14732933729E+04  0.12500000000E+03 0.  0.
         21    1    1    2  503  504 -0.21836077758E+02  0.24176164243E+02  0.91812596404E+02  0.97421014508E+02  0.00000000000E+00 0.  1.
         21    1    1    2  504  501 -0.12551012794E+03  0.36631122085E+03  0.85665722600E+03  0.94010547578E+03  0.00000000000E+00 0.  1.
<mgrwt>
<rscale>  4 0.43567913E+03</rscale>
<asrwt>0</asrwt>
<pdfrwt beam="1">  1       21 0.37436075E+00 0.43567913E+03</pdfrwt>
<pdfrwt beam="2">  1       21 0.11919173E-01 0.43567913E+03</pdfrwt>
<totfact> 0.58645146E+02</totfact>
</mgrwt>
</event>
<event>
 5    0  0.2159162E+000  0.3627795E+03  0.7546771E-02  0.1057489E+00
         21   -1    0    0  502  501  0.00000000000E+00  0.00000000000E+00  0.15293836426E+03  0.15293836426E+03  0.00000000000E+00 0.  1.
         21   -1    0    0  503  502 -0.00000000000E+00 -0.00000000000E+00 -0.20655683030E+04  0.20655683030E+04  0.00000000000E+00 0. -1.
         25    1    1    2    0    0 -0.29868926995E+03  0.16361141667E+03 -0.10464117384E+03  0.37756953123E+03  0.12500000000E+03 0.  0.
         21    1    1    2  503  504  0.26897491827E+03 -0.16303520789E+03 -0.17039870078E+04  0.17327722610E+04  0.00000000000E+00 0. -1.
         21    1    1    2  504  501  0.29714351688E+02 -0.57620877647E+00 -0.10400175704E+03  0.10816487498E+03  0.00000000000E+00 0.  1.
<mgrwt>
<rscale>  4 0.36277951E+03</rscale>
<asrwt>0</asrwt>
<pdfrwt beam="1">  1       21 0.23528980E-01 0.36277951E+03</pdfrwt>
<pdfrwt beam="2">  1       21 0.31777972E+00 0.36277951E+03</pdfrwt>
<totfact> 0.38283659E+02</totfact>
</mgrwt>
</event>
<event>
 5    0  0.2342158E+000  0.3578238E+03  0.7546771E-02  0.1059449E+00
         21   -1    0    0  502  501  0.00000000000E+00  0.00000000000E+00  0.12685391033E+04  0.12685391033E+04  0.00000000000E+00 0. -1.
         21   -1    0    0  503  502 -0.00000000000E+00 -0.00000000000E+00 -0.12838428700E+03  0.12838428700E+03  0.00000000000E+00 0. -1.
         25    1    1    2    0    0  0.12292877739E+02  0.33505482172E+03  0.22923905910E+03  0.42495693266E+03  0.12500000000E+03 0.  0.
         21    1    1    2  503  504  0.81201610586E+01 -0.31539578738E+02  0.12664653883E+03  0.13076707476E+03  0.00000000000E+00 0. -1.
         21    1    1    2  504  501 -0.20413038798E+02 -0.30351524298E+03  0.78426921837E+03  0.84119938288E+03  0.00000000000E+00 0. -1.
<mgrwt>
<rscale>  4 0.35782377E+03</rscale>
<asrwt>0</asrwt>
<pdfrwt beam="1">  1       21 0.19515985E+00 0.35782377E+03</pdfrwt>
<pdfrwt beam="2">  1       21 0.19751430E-01 0.35782377E+03</pdfrwt>
<totfact> 0.30327248E+03</totfact>
</mgrwt>
</event>
