<event>
 5    0  0.1911311E+001  0.2916659E+03  0.7546771E-02  0.1089483E+00
         21   -1    0    0  502  501  0.00000000000E+00  0.00000000000E+00  0.53399263365E+03  0.53399263365E+03  0.00000000000E+00 0.  1.
         21   -1    0    0  504  502 -0.00000000000E+00 -0.00000000000E+00 -0.50737897077E+03  0.50737897077E+03  0.00000000000E+00 0.  1.
         25    1    1    2    0    0 -0.30109806723E+03 -0.23831571874E+03 -0.24390905041E+03  0.47177436637E+03  0.12500000000E+03 0.  0.
         21    1    1    2  503  501  0.17153181788E+03  0.18167420133E+03  0.33190848317E+03  0.41544183849E+03  0.00000000000E+00 0.  1.
         21    1    1    2  504  503  0.12956624936E+03  0.56641517411E+02 -0.61385769873E+02  0.15415539955E+03  0.00000000000E+00 0.  1.
<mgrwt>
<rscale>  4 0.29166590E+03</rscale>
<asrwt>0</asrwt>
<pdfrwt beam="1">  1       21 0.82152713E-01 0.29166590E+03</pdfrwt>
<pdfrwt beam="2">  1       21 0.78058303E-01 0.29166590E+03</pdfrwt>
<totfact> 0.17466382E+03</totfact>
</mgrwt>
</event>
<event>
 5    0  0.1911311E+001  0.2898885E+03  0.7546771E-02  0.1090407E+00
         21   -1    0    0  502  501  0.00000000000E+00  0.00000000000E+00  0.13437741523E+04  0.13437741523E+04  0.00000000000E+00 0.  1.
         21   -1    0    0  504  502 -0.00000000000E+00 -0.00000000000E+00 -0.79540661071E+02  0.79540661071E+02  0.00000000000E+00 0.  1.
         25    1    1    2    0    0  0.18359347923E+03  0.21904633671E+03  0.77811085107E+03  0.83831340189E+03  0.12500000000E+03 0.  0.
         21    1    1    2  503  501 -0.15620648193E+03 -0.18088289831E+03  0.48181194955E+03  0.53783068211E+03  0.00000000000E+00 0.  1.
         21    1    1    2  504  503 -0.27386997296E+02 -0.38163438402E+02  0.43106905680E+01  0.47170729321E+02  0.00000000000E+00 0.  1.
<mgrwt>
<rscale>  4 0.28988850E+03</rscale>
<asrwt>0</asrwt>
<pdfrwt beam="1">  1       21 0.20673447E+00 0.28988850E+03</pdfrwt>
<pdfrwt beam="2">  1       21 0.12237026E-01 0.28988850E+03</pdfrwt>
<totfact> 0.64087836E+03</totfact>
</mgrwt>
</event>
<event>
 5    0  0.1911311E+001  0.2813303E+03  0.7546771E-02  0.1094965E+00
         21   -1    0    0  502  501  0.00000000000E+00  0.00000000000E+00  0.79845775902E+03  0.79845775902E+03  0.00000000000E+00 0.  1.
         21   -1    0    0  504  502 -0.00000000000E+00 -0.00000000000E+00 -0.21943995061E+03  0.21943995061E+03  0.00000000000E+00 0.  1.
         25    1    1    2    0    0 -0.23987898442E+03  0.39681624599E+02 -0.25404342413E+02  0.27456682084E+03  0.12500000000E+03 0.  0.
         21    1    1    2  503  501  0.24628855076E+03 -0.60256170041E+02  0.64738464092E+03  0.69526666075E+03  0.00000000000E+00 0.  1.
         21    1    1    2  504  503 -0.64095663411E+01  0.20574545442E+02 -0.42962490098E+02  0.48064228031E+02  0.00000000000E+00 0. -1.
<mgrwt>
<rscale>  4 0.28133035E+03</rscale>
<asrwt>0</asrwt>
<pdfrwt beam="1">  1       21 0.12283965E+00 0.28133035E+03</pdfrwt>
<pdfrwt beam="2">  1       21 0.33759993E-01 0.28133035E+03</pdfrwt>
<totfact> 0.39553163E+03</totfact>
</mgrwt>
</event>
<event>
 5    0  0.1911311E+001  0.2707127E+03  0.7546771E-02  0.1100872E+00
         21   -1    0    0  502  501  0.00000000000E+00  0.00000000000E+00  0.77619680457E+03  0.77619680457E+03  0.00000000000E+00 0.  1.
         21   -1    0    0  504  502 -0.00000000000E+00 -0.00000000000E+00 -0.15904103722E+03  0.15904103722E+03  0.00000000000E+00 0.  1.
         25    1    1    2    0    0 -0.20631722516E+03  0.13314808940E+03  0.23942376747E+02  0.27657448999E+03  0.12500000000E+03 0.  0.
         21    1    1    2  503  501  0.21323670503E+03 -0.10863413648E+03  0.58474427716E+03  0.63182049480E+03  0.00000000000E+00 0.  1.
         21    1    1    2  504  503 -0.69194798693E+01 -0.24513952922E+02  0.84691134343E+01  0.26842856999E+02  0.00000000000E+00 0.  1.
<mgrwt>
<rscale>  4 0.27071266E+03</rscale>
<asrwt>0</asrwt>
<pdfrwt beam="1">  1       21 0.11941489E+00 0.27071266E+03</pdfrwt>
<pdfrwt beam="2">  1       21 0.24467852E-01 0.27071266E+03</pdfrwt>
<totfact> 0.80203838E+03</totfact>
</mgrwt>
</event>
