<event>
 5    0  0.1257040E+001  0.1932518E+03  0.7546771E-02  0.1155561E+00
         21   -1    0    0  502  501  0.00000000000E+00  0.00000000000E+00  0.11291039584E+04  0.11291039584E+04  0.00000000000E+00 0. -1.
         21   -1    0    0  504  502 -0.00000000000E+00 -0.00000000000E+00 -0.20046462402E+03  0.20046462402E+03  0.00000000000E+00 0. -1.
         25    1    1    2    0    0  0.93999614215E+02  0.21888429158E+03  0.22900398912E+03  0.35329037294E+03  0.12500000000E+03 0.  0.
         21    1    1    2  503  501 -0.71257355349E+02 -0.83630570936E+02  0.79925065090E+03  0.80676718206E+03  0.00000000000E+00 0. -1.
         21    1    1    2  504  503 -0.22742258867E+02 -0.13525372065E+03 -0.99615305669E+02  0.16951102740E+03  0.00000000000E+00 0. -1.
<mgrwt>
<rscale>  4 0.19325184E+03</rscale>
<asrwt>0</asrwt>
<pdfrwt beam="1">  1       21 0.17370830E+00 0.19325184E+03</pdfrwt>
<pdfrwt beam="2">  1       21 0.30840712E-01 0.19325184E+03</pdfrwt>
<totfact> 0.20285993E+03</totfact>
</mgrwt>
</event>
<event>
 5    0  0.1257040E+001  0.2367691E+03  0.7546771E-02  0.1121964E+00
         21   -1    0    0  502  501  0.00000000000E+00  0.00000000000E+00  0.12865049166E+03  0.12865049166E+03  0.00000000000E+00 0.  1.
         21   -1    0    0  504  502 -0.00000000000E+00 -0.00000000000E+00 -0.95618313138E+03  0.95618313138E+03  0.00000000000E+00 0.  1.
         25    1    1    2    0    0  0.13827539075E+03  0.19254023196E+03 -0.72289024116E+03  0.77096506106E+03  0.12500000000E+03 0.  0.
         21    1    1    2  503  501 -0.11465481334E+03 -0.15956053402E+03  0.54317885732E+01  0.19655735694E+03  0.00000000000E+00 0.  1.
         21    1    1    2  504  503 -0.23620577411E+02 -0.32979697940E+02 -0.11007418713E+03  0.11731120503E+03  0.00000000000E+00 0.  1.
<mgrwt>
<rscale>  4 0.23676914E+03</rscale>
<asrwt>0</asrwt>
<pdfrwt beam="1">  1       21 0.19792383E-01 0.23676914E+03</pdfrwt>
<pdfrwt beam="2">  1       21 0.14710510E+00 0.23676914E+03</pdfrwt>
<totfact> 0.71673454E+03</totfact>
</mgrwt>
</event>
<event>
 5    0  0.1257040E+001  0.2485386E+03  0.7546771E-02  0.1114232E+00
         21   -1    0    0  502  501  0.00000000000E+00  0.00000000000E+00  0.32944103521E+03  0.32944103521E+03  0.00000000000E+00 0.  1.
         21   -1    0    0  504  502 -0.00000000000E+00 -0.00000000000E+00 -0.29356427644E+03  0.29356427644E+03  0.00000000000E+00 0.  1.
         25    1    1    2    0    0  0.16145130304E+03  0.17881130512E+03  0.15003536897E+03  0.31012194059E+03  0.12500000000E+03 0.  0.
         21    1    1    2  503  501 -0.42474263699E+00 -0.45349068312E+02  0.33912223129E+02  0.56628237485E+02  0.00000000000E+00 0.  1.
         21    1    1    2  504  503 -0.16102656040E+03 -0.13346223680E+03 -0.14807083333E+03  0.25625513359E+03  0.00000000000E+00 0.  1.
<mgrwt>
<rscale>  4 0.24853860E+03</rscale>
<asrwt>0</asrwt>
<pdfrwt beam="1">  1       21 0.50683236E-01 0.24853860E+03</pdfrwt>
<pdfrwt beam="2">  1       21 0.45163735E-01 0.24853860E+03</pdfrwt>
<totfact> 0.16879453E+04</totfact>
</mgrwt>
</event>
<event>
 5    0  0.1257040E+001  0.2575503E+03  0.7546771E-02  0.1108624E+00
         21   -1    0    0  504  501  0.00000000000E+00  0.00000000000E+00  0.39751184669E+03  0.39751184669E+03  0.00000000000E+00 0. -1.
         21   -1    0    0  503  502 -0.00000000000E+00 -0.00000000000E+00 -0.68560001977E+03  0.68560001977E+03  0.00000000000E+00 0. -1.
         25    1    1    2    0    0 -0.20681894687E+03  0.98569222945E+02 -0.46972996788E+03  0.53736506327E+03  0.12500000000E+03 0.  0.
         21    1    1    2  503  501 -0.62069870327E+01 -0.26111011501E+02 -0.14590832466E+03  0.14835616204E+03  0.00000000000E+00 0. -1.
         21    1    1    2  504  502  0.21302593390E+03 -0.72458211444E+02  0.32755011946E+03  0.39739064116E+03  0.00000000000E+00 0. -1.
<mgrwt>
<rscale>  4 0.25755031E+03</rscale>
<asrwt>0</asrwt>
<pdfrwt beam="1">  1       21 0.61155669E-01 0.25755031E+03</pdfrwt>
<pdfrwt beam="2">  1       21 0.10547693E+00 0.25755031E+03</pdfrwt>
<totfact> 0.17038873E+03</totfact>
</mgrwt>
</event>
<event>
 5    0  0.1257040E+001  0.3027313E+03  0.7546771E-02  0.1083883E+00
         21   -1    0    0  503  501  0.00000000000E+00  0.00000000000E+00  0.22589366875E+04  0.22589366875E+04  0.00000000000E+00 0. -1.
         21   -1    0    0  504  502 -0.00000000000E+00 -0.00000000000E+00 -0.22463682170E+03  0.22463682170E+03  0.00000000000E+00 0. -1.
         25    1    1    2    0    0 -0.71333483217E+02  0.24256216809E+03  0.20333994780E+04  0.20528670946E+04  0.12500000000E+03 0.  0.
         21    1    1    2  503  502  0.89087987003E+02 -0.26200104975E+03 -0.12386815900E+03  0.30319060063E+03  0.00000000000E+00 0. -1.
         21    1    1    2  504  501 -0.17754503786E+02  0.19438881658E+02  0.12476854687E+03  0.12751581397E+03  0.00000000000E+00 0.  1.
<mgrwt>
<rscale>  4 0.30273131E+03</rscale>
<asrwt>0</asrwt>
<pdfrwt beam="1">  1       21 0.34752871E+00 0.30273131E+03</pdfrwt>
<pdfrwt beam="2">  1       21 0.34559513E-01 0.30273131E+03</pdfrwt>
<totfact> 0.12600281E+02</totfact>
</mgrwt>
</event>
<event>
 5    0  0.1257040E+001  0.2197455E+03  0.7546771E-02  0.1134073E+00
         21   -1    0    0  503  501  0.00000000000E+00  0.00000000000E+00  0.83966254886E+02  0.83966254886E+02  0.00000000000E+00 0.  1.
         21   -1    0    0  504  502 -0.00000000000E+00 -0.00000000000E+00 -0.12803145666E+04  0.12803145666E+04  0.00000000000E+00 0.  1.
         25    1    1    2    0    0  0.99927457954E+02  0.23362957802E+03 -0.47237694899E+03  0.55075698680E+03  0.12500000000E+03 0.  0.
         21    1    1    2  503  502 -0.13089941615E+02 -0.10026626993E+03 -0.60864428795E+03  0.61698666169E+03  0.00000000000E+00 0.  1.
         21    1    1    2  504  501 -0.86837516339E+02 -0.13336330810E+03 -0.11532707479E+03  0.19653717300E+03  0.00000000000E+00 0.  1.
<mgrwt>
<rscale>  4 0.21974550E+03</rscale>
<asrwt>0</asrwt>
<pdfrwt beam="1">  1       21 0.12917886E-01 0.21974550E+03</pdfrwt>
<pdfrwt beam="2">  1       21 0.19697146E+00 0.21974550E+03</pdfrwt>
<totfact> 0.70575862E+03</totfact>
</mgrwt>
</event>
<event>
 5    0  0.1257040E+001  0.2321650E+03  0.7546771E-02  0.1125125E+00
         21   -1    0    0  502  501  0.00000000000E+00  0.00000000000E+00  0.10399878072E+04  0.10399878072E+04  0.00000000000E+00 0.  1.
         21   -1    0    0  504  502 -0.00000000000E+00 -0.00000000000E+00 -0.16196672555E+03  0.16196672555E+03  0.00000000000E+00 0.  1.
         25    1    1    2    0    0 -0.59904635331E+02  0.23920992919E+03  0.62538442956E+03  0.68376943504E+03  0.12500000000E+03 0.  0.
         21    1    1    2  503  501  0.13654022566E+03 -0.10929583482E+03  0.31071496067E+03  0.35655658670E+03  0.00000000000E+00 0.  1.
         21    1    1    2  504  503 -0.76635590330E+02 -0.12991409437E+03 -0.58078308642E+02  0.16162851096E+03  0.00000000000E+00 0.  1.
<mgrwt>
<rscale>  4 0.23216497E+03</rscale>
<asrwt>0</asrwt>
<pdfrwt beam="1">  1       21 0.15999812E+00 0.23216497E+03</pdfrwt>
<pdfrwt beam="2">  1       21 0.24917958E-01 0.23216497E+03</pdfrwt>
<totfact> 0.37116463E+03</totfact>
</mgrwt>
</event>
<event>
 5    0  0.1257040E+001  0.2496547E+03  0.7546771E-02  0.1113523E+00
         21   -1    0    0  503  501  0.00000000000E+00  0.00000000000E+00  0.23634756159E+03  0.23634756159E+03  0.00000000000E+00 0. -1.
         21   -1    0    0  501  502 -0.00000000000E+00 -0.00000000000E+00 -0.50964506541E+03  0.50964506541E+03  0.00000000000E+00 0. -1.
         25    1    1    2    0    0 -0.12625143197E+03 -0.17531341566E+03  0.12264827218E+03  0.27810396698E+03  0.12500000000E+03 0.  0.
         21    1    1    2  503  504  0.16153146126E+02 -0.11849219557E+02 -0.93154518011E+02  0.95284271313E+02  0.00000000000E+00 0. -1.
         21    1    1    2  504  502  0.11009828584E+03  0.18716263522E+03 -0.30279125799E+03  0.37260438870E+03  0.00000000000E+00 0. -1.
<mgrwt>
<rscale>  4 0.24965471E+03</rscale>
<asrwt>0</asrwt>
<pdfrwt beam="1">  1       21 0.36361164E-01 0.24965471E+03</pdfrwt>
<pdfrwt beam="2">  1       21 0.78406932E-01 0.24965471E+03</pdfrwt>
<totfact> 0.10129643E+04</totfact>
</mgrwt>
</event>
<event>
 5    0  0.1257040E+001  0.2879233E+03  0.7546771E-02  0.1091438E+00
         21   -1    0    0  504  501  0.00000000000E+00  0.00000000000E+00  0.32133291606E+03  0.32133291606E+03  0.00000000000E+00 0.  1.
         21   -1    0    0  503  502 -0.00000000000E+00 -0.00000000000E+00 -0.24927751465E+03  0.24927751465E+03  0.00000000000E+00 0.  1.
         25    1    1    2    0    0  0.18912919704E+03 -0.17749634625E+03 -0.27232549636E+02  0.28920826037E+03  0.12500000000E+03 0.  0.
         21    1    1    2  503  501 -0.13556067945E+02  0.29162919580E+02  0.33335841208E+01  0.32331960034E+02  0.00000000000E+00 0. -1.
         21    1    1    2  504  502 -0.17557312910E+03  0.14833342667E+03  0.95954366926E+02  0.24907021030E+03  0.00000000000E+00 0.  1.
<mgrwt>
<rscale>  4 0.28792326E+03</rscale>
<asrwt>0</asrwt>
<pdfrwt beam="1">  1       21 0.49435833E-01 0.28792326E+03</pdfrwt>
<pdfrwt beam="2">  1       21 0.38350387E-01 0.28792326E+03</pdfrwt>
<totfact> 0.24428643E+04</totfact>
</mgrwt>
</event>
<event>
 5    0  0.1257040E+001  0.2590835E+03  0.7546771E-02  0.1107695E+00
         21   -1    0    0  504  501  0.00000000000E+00  0.00000000000E+00  0.12453289249E+03  0.12453289249E+03  0.00000000000E+00 0. -1.
         21   -1    0    0  503  502 -0.00000000000E+00 -0.00000000000E+00 -0.53581539865E+03  0.53581539865E+03  0.00000000000E+00 0. -1.
         25    1    1    2    0    0 -0.89770381280E+02 -0.21104960623E+03 -0.20621039353E+03  0.33278879795E+03  0.12500000000E+03 0.  0.
         21    1    1    2  503  501  0.10780216662E+03  0.19806468670E+03 -0.20584630572E+03  0.30532544739E+03  0.00000000000E+00 0. -1.
         21    1    1    2  504  502 -0.18031785345E+02  0.12984919528E+02  0.77419308359E+00  0.22234045803E+02  0.00000000000E+00 0.  1.
<mgrwt>
<rscale>  4 0.25908348E+03</rscale>
<asrwt>0</asrwt>
<pdfrwt beam="1">  1       21 0.19158907E-01 0.25908348E+03</pdfrwt>
<pdfrwt beam="2">  1       21 0.82433138E-01 0.25908348E+03</pdfrwt>
<totfact> 0.31092838E+04</totfact>
</mgrwt>
</event>
<event>
 5    0  0.1257040E+001  0.3796837E+03  0.7546771E-02  0.1051051E+00
         21   -1    0    0  502  501  0.00000000000E+00  0.00000000000E+00  0.23255584434E+03  0.23255584434E+03  0.00000000000E+00 0.  1.
         21   -1    0    0  504  502 -0.00000000000E+00 -0.00000000000E+00 -0.84632388299E+03  0.84632388299E+03  0.00000000000E+00 0.  1.
         25    1    1    2    0    0  0.21457019867E+03 -0.34512230624E+03 -0.42745058970E+03  0.60290030938E+03  0.12500000000E+03 0.  0.
         21    1    1    2  503  501 -0.18605064384E+03  0.28314917817E+03 -0.77515379532E+02  0.34755853210E+03  0.00000000000E+00 0.  1.
         21    1    1    2  504  503 -0.28519554834E+02  0.61973128076E+02 -0.10880206943E+03  0.12842088585E+03  0.00000000000E+00 0.  1.
<mgrwt>
<rscale>  4 0.37968366E+03</rscale>
<asrwt>0</asrwt>
<pdfrwt beam="1">  1       21 0.35777822E-01 0.37968366E+03</pdfrwt>
<pdfrwt beam="2">  1       21 0.13020368E+00 0.37968366E+03</pdfrwt>
<totfact> 0.28864085E+03</totfact>
</mgrwt>
</event>
<event>
 5    0  0.1257040E+001  0.2412612E+03  0.7546771E-02  0.1118955E+00
         21   -1    0    0  503  501  0.00000000000E+00  0.00000000000E+00  0.12443371623E+04  0.12443371623E+04  0.00000000000E+00 0.  1.
         21   -1    0    0  504  502 -0.00000000000E+00 -0.00000000000E+00 -0.53265567669E+03  0.53265567669E+03  0.00000000000E+00 0. -1.
         25    1    1    2    0    0  0.13588486909E+03  0.17920387304E+03  0.98876211322E+03  0.10216918529E+04  0.12500000000E+03 0.  0.
         21    1    1    2  503  502 -0.14501874598E+03 -0.14632498150E+03 -0.49425019485E+03  0.53546679823E+03  0.00000000000E+00 0. -1.
         21    1    1    2  504  501  0.91338768936E+01 -0.32878891545E+02  0.21716956728E+03  0.21983418789E+03  0.00000000000E+00 0.  1.
<mgrwt>
<rscale>  4 0.24126124E+03</rscale>
<asrwt>0</asrwt>
<pdfrwt beam="1">  1       21 0.19143649E+00 0.24126124E+03</pdfrwt>
<pdfrwt beam="2">  1       21 0.81947027E-01 0.24126124E+03</pdfrwt>
<totfact> 0.18746337E+02</totfact>
</mgrwt>
</event>
<event>
 5    0  0.1257040E+001  0.2768905E+03  0.7546771E-02  0.1097400E+00
         21   -1    0    0  503  501  0.00000000000E+00  0.00000000000E+00  0.18411169653E+03  0.18411169653E+03  0.00000000000E+00 0. -1.
         21   -1    0    0  504  502 -0.00000000000E+00 -0.00000000000E+00 -0.57710486733E+03  0.57710486733E+03  0.00000000000E+00 0. -1.
         25    1    1    2    0    0  0.23522086678E+03 -0.98886286038E+02 -0.96835913844E+02  0.30018252438E+03  0.12500000000E+03 0.  0.
         21    1    1    2  503  502 -0.23228844696E+03  0.75217704725E+02 -0.33555177120E+03  0.41498267055E+03  0.00000000000E+00 0. -1.
         21    1    1    2  504  501 -0.29324198168E+01  0.23668581313E+02  0.39394514253E+02  0.46051368933E+02  0.00000000000E+00 0.  1.
<mgrwt>
<rscale>  4 0.27689047E+03</rscale>
<asrwt>0</asrwt>
<pdfrwt beam="1">  1       21 0.28324877E-01 0.27689047E+03</pdfrwt>
<pdfrwt beam="2">  1       21 0.88785363E-01 0.27689047E+03</pdfrwt>
<totfact> 0.12304678E+04</totfact>
</mgrwt>
</event>
<event>
 5    0  0.1257040E+001  0.3266152E+03  0.7546771E-02  0.1072644E+00
         21   -1    0    0  504  501  0.00000000000E+00  0.00000000000E+00  0.10491062406E+04  0.10491062406E+04  0.00000000000E+00 0.  1.
         21   -1    0    0  503  502 -0.00000000000E+00 -0.00000000000E+00 -0.23964553994E+03  0.23964553994E+03  0.00000000000E+00 0.  1.
         25    1    1    2    0    0 -0.13159090119E+03 -0.28310663723E+03  0.69603397655E+03  0.77301606053E+03  0.12500000000E+03 0.  0.
         21    1    1    2  503  501  0.14538765641E+03  0.26270441335E+03 -0.87942507478E+02  0.31286588829E+03  0.00000000000E+00 0.  1.
         21    1    1    2  504  502 -0.13796755215E+02  0.20402223879E+02  0.20136923157E+03  0.20286983171E+03  0.00000000000E+00 0.  1.
<mgrwt>
<rscale>  4 0.32661525E+03</rscale>
<asrwt>0</asrwt>
<pdfrwt beam="1">  1       21 0.16140096E+00 0.32661525E+03</pdfrwt>
<pdfrwt beam="2">  1       21 0.36868545E-01 0.32661525E+03</pdfrwt>
<totfact> 0.15738392E+03</totfact>
</mgrwt>
</event>
<event>
 5    0  0.1257040E+001  0.3825822E+03  0.7546771E-02  0.1049983E+00
         21   -1    0    0  504  501  0.00000000000E+00  0.00000000000E+00  0.47048146887E+03  0.47048146887E+03  0.00000000000E+00 0. -1.
         21   -1    0    0  503  502 -0.00000000000E+00 -0.00000000000E+00 -0.60111177747E+03  0.60111177747E+03  0.00000000000E+00 0. -1.
         25    1    1    2    0    0  0.11313476826E+03  0.39446029791E+03 -0.57111178549E+02  0.43276447305E+03  0.12500000000E+03 0.  0.
         21    1    1    2  503  501 -0.24884297805E+03 -0.24931653438E+03 -0.19826123136E+03  0.40421414856E+03  0.00000000000E+00 0. -1.
         21    1    1    2  504  502  0.13570820979E+03 -0.14514376354E+03  0.12474210131E+03  0.23461462473E+03  0.00000000000E+00 0. -1.
<mgrwt>
<rscale>  4 0.38258218E+03</rscale>
<asrwt>0</asrwt>
<pdfrwt beam="1">  1       21 0.72381765E-01 0.38258218E+03</pdfrwt>
<pdfrwt beam="2">  1       21 0.92478734E-01 0.38258218E+03</pdfrwt>
<totfact> 0.14976693E+03</totfact>
</mgrwt>
</event>
<event>
 5    0  0.1257040E+001  0.3083628E+03  0.7546771E-02  0.1081133E+00
         21   -1    0    0  504  501  0.00000000000E+00  0.00000000000E+00  0.25676315519E+03  0.25676315519E+03  0.00000000000E+00 0.  1.
         21   -1    0    0  503  502 -0.00000000000E+00 -0.00000000000E+00 -0.49046992790E+03  0.49046992790E+03  0.00000000000E+00 0.  1.
         25    1    1    2    0    0  0.26441796851E+03 -0.14154378943E+03 -0.25543387793E+03  0.41330735826E+03  0.12500000000E+03 0.  0.
         21    1    1    2  503  501 -0.16754783661E+02  0.19639244029E+02 -0.43225534277E+02  0.50347487476E+02  0.00000000000E+00 0.  1.
         21    1    1    2  504  502 -0.24766318485E+03  0.12190454540E+03  0.64952639502E+02  0.28357823735E+03  0.00000000000E+00 0.  1.
<mgrwt>
<rscale>  4 0.30836280E+03</rscale>
<asrwt>0</asrwt>
<pdfrwt beam="1">  1       21 0.39502024E-01 0.30836280E+03</pdfrwt>
<pdfrwt beam="2">  1       21 0.75456911E-01 0.30836280E+03</pdfrwt>
<totfact> 0.90760471E+03</totfact>
</mgrwt>
</event>
<event>
 5    0  0.1257040E+001  0.2718122E+03  0.7546771E-02  0.1100247E+00
         21   -1    0    0  502  501  0.00000000000E+00  0.00000000000E+00  0.71775258239E+02  0.71775258239E+02  0.00000000000E+00 0.  1.
         21   -1    0    0  504  502 -0.00000000000E+00 -0.00000000000E+00 -0.13346050658E+04  0.13346050658E+04  0.00000000000E+00 0.  1.
         25    1    1    2    0    0 -0.56633440448E+02 -0.22188507118E+03 -0.55001679442E+03  0.60875594907E+03  0.12500000000E+03 0.  0.
         21    1    1    2  503  501 -0.22503612431E+02 -0.15749505374E+02  0.12577660399E+02  0.30210214052E+02  0.00000000000E+00 0. -1.
         21    1    1    2  504  503  0.79137052879E+02  0.23763457655E+03 -0.72539067354E+03  0.76741416091E+03  0.00000000000E+00 0.  1.
<mgrwt>
<rscale>  4 0.27181224E+03</rscale>
<asrwt>0</asrwt>
<pdfrwt beam="1">  1       21 0.11042347E-01 0.27181224E+03</pdfrwt>
<pdfrwt beam="2">  1       21 0.20532386E+00 0.27181224E+03</pdfrwt>
<totfact> 0.79626517E+03</totfact>
</mgrwt>
</event>
<event>
 5    0  0.1257040E+001  0.2860602E+03  0.7546771E-02  0.1092424E+00
         21   -1    0    0  503  501  0.00000000000E+00  0.00000000000E+00  0.20230415723E+03  0.20230415723E+03  0.00000000000E+00 0. -1.
         21   -1    0    0  504  502 -0.00000000000E+00 -0.00000000000E+00 -0.82988274163E+03  0.82988274163E+03  0.00000000000E+00 0. -1.
         25    1    1    2    0    0  0.16314840005E+03 -0.12724465616E+03 -0.40446351623E+03  0.47119458711E+03  0.12500000000E+03 0.  0.
         21    1    1    2  503  502  0.54566170524E+02 -0.32463288525E+02 -0.27825587924E+03  0.28540789477E+03  0.00000000000E+00 0. -1.
         21    1    1    2  504  501 -0.21771457058E+03  0.15970794468E+03  0.55140811066E+02  0.27558441698E+03  0.00000000000E+00 0. -1.
<mgrwt>
<rscale>  4 0.28606019E+03</rscale>
<asrwt>0</asrwt>
<pdfrwt beam="1">  1       21 0.31123717E-01 0.28606019E+03</pdfrwt>
<pdfrwt beam="2">  1       21 0.12767427E+00 0.28606019E+03</pdfrwt>
<totfact> 0.42031717E+03</totfact>
</mgrwt>
</event>
<event>
 5    0  0.1257040E+001  0.2553114E+03  0.7546771E-02  0.1109993E+00
         21   -1    0    0  503  501  0.00000000000E+00  0.00000000000E+00  0.32937624871E+04  0.32937624871E+04  0.00000000000E+00 0.  1.
         21   -1    0    0  504  502 -0.00000000000E+00 -0.00000000000E+00 -0.28490654538E+03  0.28490654538E+03  0.00000000000E+00 0. -1.
         25    1    1    2    0    0  0.71790703605E+02  0.24747362116E+03 -0.13252870671E+03  0.31557242654E+03  0.12500000000E+03 0.  0.
         21    1    1    2  503  502  0.52527266385E+01 -0.39243253817E+02 -0.50123531732E+02  0.63874819299E+02  0.00000000000E+00 0. -1.
         21    1    1    2  504  501 -0.77043430243E+02 -0.20823036734E+03  0.31915081802E+04  0.31992217867E+04  0.00000000000E+00 0.  1.
<mgrwt>
<rscale>  4 0.25531138E+03</rscale>
<asrwt>0</asrwt>
<pdfrwt beam="1">  1       21 0.50673267E+00 0.25531138E+03</pdfrwt>
<pdfrwt beam="2">  1       21 0.43831778E-01 0.25531138E+03</pdfrwt>
<totfact> 0.75471998E+00</totfact>
</mgrwt>
</event>
<event>
 5    0  0.1257040E+001  0.2593160E+03  0.7546771E-02  0.1107555E+00
         21   -1    0    0  502  501  0.00000000000E+00  0.00000000000E+00  0.47526383075E+02  0.47526383075E+02  0.00000000000E+00 0. -1.
         21   -1    0    0  504  502 -0.00000000000E+00 -0.00000000000E+00 -0.28605019105E+04  0.28605019105E+04  0.00000000000E+00 0. -1.
         25    1    1    2    0    0  0.34572116568E+02 -0.25006119986E+03 -0.68699148224E+03  0.74250126706E+03  0.12500000000E+03 0.  0.
         21    1    1    2  503  501 -0.11246375373E+02  0.29331544493E+02 -0.36579351437E+01  0.31625953755E+02  0.00000000000E+00 0. -1.
         21    1    1    2  504  503 -0.23325741195E+02  0.22072965536E+03 -0.21223261101E+04  0.21339010728E+04  0.00000000000E+00 0. -1.
<mgrwt>
<rscale>  4 0.25931597E+03</rscale>
<asrwt>0</asrwt>
<pdfrwt beam="1">  1       21 0.73117499E-02 0.25931597E+03</pdfrwt>
<pdfrwt beam="2">  1       21 0.44007730E+00 0.25931597E+03</pdfrwt>
<totfact> 0.61795685E+02</totfact>
</mgrwt>
</event>
<event>
 5    0  0.1257040E+001  0.3332463E+03  0.7546771E-02  0.1069709E+00
         21   -1    0    0  502  501  0.00000000000E+00  0.00000000000E+00  0.74764654684E+03  0.74764654684E+03  0.00000000000E+00 0.  1.
         21   -1    0    0  504  502 -0.00000000000E+00 -0.00000000000E+00 -0.18989354964E+03  0.18989354964E+03  0.00000000000E+00 0. -1.
         25    1    1    2    0    0 -0.64903016777E+02 -0.31835687077E+03  0.12347767411E+03  0.36937140490E+03  0.12500000000E+03 0.  0.
         21    1    1    2  503  501  0.78627992344E+02  0.29261620668E+03  0.44389959730E+03  0.53745088899E+03  0.00000000000E+00 0.  1.
         21    1    1    2  504  503 -0.13724975567E+02  0.25740664086E+02 -0.96242742190E+01  0.30717802593E+02  0.00000000000E+00 0.  1.
<mgrwt>
<rscale>  4 0.33324634E+03</rscale>
<asrwt>0</asrwt>
<pdfrwt beam="1">  1       21 0.11502254E+00 0.33324634E+03</pdfrwt>
<pdfrwt beam="2">  1       21 0.29214393E-01 0.33324634E+03</pdfrwt>
<totfact> 0.60462111E+03</totfact>
</mgrwt>
</event>
<event>
 5    0  0.1257040E+001  0.2524807E+03  0.7546771E-02  0.1111747E+00
         21   -1    0    0  502  501  0.00000000000E+00  0.00000000000E+00  0.43491081504E+03  0.43491081504E+03  0.00000000000E+00 0.  1.
         21   -1    0    0  504  502 -0.00000000000E+00 -0.00000000000E+00 -0.16440598800E+03  0.16440598800E+03  0.00000000000E+00 0.  1.
         25    1    1    2    0    0  0.82807045249E+02  0.19147491051E+03  0.16158710162E+03  0.29198465629E+03  0.12500000000E+03 0.  0.
         21    1    1    2  503  501 -0.92777550017E+02 -0.21047961176E+03  0.14021198863E+03  0.26938586175E+03  0.00000000000E+00 0.  1.
         21    1    1    2  504  503  0.99705047685E+01  0.19004701257E+02 -0.31294263210E+02  0.37946284997E+02  0.00000000000E+00 0. -1.
<mgrwt>
<rscale>  4 0.25248066E+03</rscale>
<asrwt>0</asrwt>
<pdfrwt beam="1">  1       21 0.66909356E-01 0.25248066E+03</pdfrwt>
<pdfrwt beam="2">  1       21 0.25293229E-01 0.25248066E+03</pdfrwt>
<totfact> 0.29409041E+04</totfact>
</mgrwt>
</event>
<event>
 5    0  0.1257040E+001  0.2270500E+03  0.7546771E-02  0.1128734E+00
         21   -1    0    0  504  501  0.00000000000E+00  0.00000000000E+00  0.57155712421E+02  0.57155712421E+02  0.00000000000E+00 0.  1.
         21   -1    0    0  503  502 -0.00000000000E+00 -0.00000000000E+00 -0.18710141891E+04  0.18710141891E+04  0.00000000000E+00 0.  1.
         25    1    1    2    0    0  0.16460758808E+03  0.19339673038E+03 -0.90053716370E+03  0.94397570762E+03  0.12500000000E+03 0.  0.
         21    1    1    2  503  501 -0.12834840726E+03 -0.10637414303E+03 -0.85975025222E+03  0.87576210705E+03  0.00000000000E+00 0.  1.
         21    1    1    2  504  502 -0.36259180817E+02 -0.87022587356E+02 -0.53571060723E+02  0.10843208681E+03  0.00000000000E+00 0.  1.
<mgrwt>
<rscale>  4 0.22704996E+03</rscale>
<asrwt>0</asrwt>
<pdfrwt beam="1">  1       21 0.87931868E-02 0.22704996E+03</pdfrwt>
<pdfrwt beam="2">  1       21 0.28784833E+00 0.22704996E+03</pdfrwt>
<totfact> 0.39309970E+03</totfact>
</mgrwt>
</event>
<event>
 5    0  0.1257040E+001  0.2522309E+03  0.7546771E-02  0.1111903E+00
         21   -1    0    0  503  501  0.00000000000E+00  0.00000000000E+00  0.15652198427E+04  0.15652198427E+04  0.00000000000E+00 0.  1.
         21   -1    0    0  504  502 -0.00000000000E+00 -0.00000000000E+00 -0.62771187498E+02  0.62771187498E+02  0.00000000000E+00 0.  1.
         25    1    1    2    0    0  0.84821247256E+02  0.19924795509E+03  0.96889914953E+03  0.10006422705E+04  0.12500000000E+03 0.  0.
         21    1    1    2  503  502 -0.49747212277E+01 -0.23671994509E+03  0.33642731870E+03  0.41139326808E+03  0.00000000000E+00 0.  1.
         21    1    1    2  504  501 -0.79846526028E+02  0.37471990001E+02  0.19712218693E+03  0.21595549156E+03  0.00000000000E+00 0. -1.
<mgrwt>
<rscale>  4 0.25223091E+03</rscale>
<asrwt>0</asrwt>
<pdfrwt beam="1">  1       21 0.24080302E+00 0.25223091E+03</pdfrwt>
<pdfrwt beam="2">  1       21 0.96571069E-02 0.25223091E+03</pdfrwt>
<totfact> 0.61718964E+03</totfact>
</mgrwt>
</event>
<event>
 5    0  0.1257040E+001  0.1960660E+03  0.7546771E-02  0.1153101E+00
         21   -1    0    0  502  501  0.00000000000E+00  0.00000000000E+00  0.98757213584E+03  0.98757213584E+03  0.00000000000E+00 0.  1.
         21   -1    0    0  504  502 -0.00000000000E+00 -0.00000000000E+00 -0.97051404592E+02  0.97051404592E+02  0.00000000000E+00 0.  1.
         25    1    1    2    0    0 -0.20445715113E+03 -0.39687680302E+02  0.23117543253E+03  0.33532807700E+03  0.12500000000E+03 0.  0.
         21    1    1    2  503  501  0.73185465877E+02  0.39961287958E+02  0.59907239833E+03  0.60484771257E+03  0.00000000000E+00 0.  1.
         21    1    1    2  504  503  0.13127168525E+03 -0.27360765598E+00  0.60272900385E+02  0.14444775087E+03  0.00000000000E+00 0.  1.
<mgrwt>
<rscale>  4 0.19606603E+03</rscale>
<asrwt>0</asrwt>
<pdfrwt beam="1">  1       21 0.15193417E+00 0.19606603E+03</pdfrwt>
<pdfrwt beam="2">  1       21 0.14930986E-01 0.19606603E+03</pdfrwt>
<totfact> 0.11402571E+04</totfact>
</mgrwt>
</event>
<event>
 5    0  0.1257040E+001  0.4276488E+03  0.7546771E-02  0.1049484E+00
         21   -1    0    0  502  501  0.00000000000E+00  0.00000000000E+00  0.73345542029E+03  0.73345542029E+03  0.00000000000E+00 0. -1.
         21   -1    0    0  504  502 -0.00000000000E+00 -0.00000000000E+00 -0.95041035785E+03  0.95041035785E+03  0.00000000000E+00 0. -1.
         25    1    1    2    0    0  0.10622388396E+03 -0.22427479502E+03 -0.45491826963E+02  0.28156207757E+03  0.12500000000E+03 0.  0.
         21    1    1    2  503  501 -0.39703706021E+03  0.20988706850E+03  0.49900564516E+03  0.67134018397E+03  0.00000000000E+00 0. -1.
         21    1    1    2  504  503  0.29081317625E+03  0.14387726520E+02 -0.67046875576E+03  0.73096351661E+03  0.00000000000E+00 0. -1.
<mgrwt>
<rscale>  4 0.38394856E+03</rscale>
<asrwt>0</asrwt>
<pdfrwt beam="1">  1       21 0.11283930E+00 0.42764883E+03</pdfrwt>
<pdfrwt beam="2">  1       21 0.14621698E+00 0.42764883E+03</pdfrwt>
<totfact> 0.16127904E+02</totfact>
</mgrwt>
</event>
<event>
 5    0  0.1257040E+001  0.2389493E+03  0.7546771E-02  0.1120495E+00
         21   -1    0    0  502  501  0.00000000000E+00  0.00000000000E+00  0.15450640850E+03  0.15450640850E+03  0.00000000000E+00 0. -1.
         21   -1    0    0  504  502 -0.00000000000E+00 -0.00000000000E+00 -0.66143424477E+03  0.66143424477E+03  0.00000000000E+00 0. -1.
         25    1    1    2    0    0 -0.15262382867E+02  0.24165666673E+03 -0.73767414094E+02  0.28230748536E+03  0.12500000000E+03 0.  0.
         21    1    1    2  503  501 -0.99347945827E+01 -0.16987561732E+03 -0.11230985782E+03  0.20388705125E+03  0.00000000000E+00 0. -1.
         21    1    1    2  504  503  0.25197177450E+02 -0.71781049411E+02 -0.32085056435E+03  0.32974611666E+03  0.00000000000E+00 0. -1.
<mgrwt>
<rscale>  4 0.23894931E+03</rscale>
<asrwt>0</asrwt>
<pdfrwt beam="1">  1       21 0.23770217E-01 0.23894931E+03</pdfrwt>
<pdfrwt beam="2">  1       21 0.10175912E+00 0.23894931E+03</pdfrwt>
<totfact> 0.12754910E+04</totfact>
</mgrwt>
</event>
<event>
 5    0  0.1257040E+001  0.2198660E+03  0.7546771E-02  0.1133983E+00
         21   -1    0    0  502  501  0.00000000000E+00  0.00000000000E+00  0.68701729021E+03  0.68701729021E+03  0.00000000000E+00 0.  1.
         21   -1    0    0  504  502 -0.00000000000E+00 -0.00000000000E+00 -0.11506765292E+03  0.11506765292E+03  0.00000000000E+00 0.  1.
         25    1    1    2    0    0  0.76632988253E+02 -0.20703569637E+03  0.14712309548E+03  0.29326881813E+03  0.12500000000E+03 0.  0.
         21    1    1    2  503  501 -0.73932233274E+02  0.52455498413E+02  0.28946926214E+03  0.30333151527E+03  0.00000000000E+00 0.  1.
         21    1    1    2  504  503 -0.27007549794E+01  0.15458019796E+03  0.13535727966E+03  0.20548460973E+03  0.00000000000E+00 0.  1.
<mgrwt>
<rscale>  4 0.21986603E+03</rscale>
<asrwt>0</asrwt>
<pdfrwt beam="1">  1       21 0.10569496E+00 0.21986603E+03</pdfrwt>
<pdfrwt beam="2">  1       21 0.17702716E-01 0.21986603E+03</pdfrwt>
<totfact> 0.20481277E+04</totfact>
</mgrwt>
</event>
<event>
 5    0  0.1257040E+001  0.2335997E+03  0.7546771E-02  0.1124131E+00
         21   -1    0    0  503  501  0.00000000000E+00  0.00000000000E+00  0.51543007413E+03  0.51543007413E+03  0.00000000000E+00 0.  1.
         21   -1    0    0  504  502 -0.00000000000E+00 -0.00000000000E+00 -0.17648940219E+03  0.17648940219E+03  0.00000000000E+00 0.  1.
         25    1    1    2    0    0 -0.22106081747E+03 -0.33220953968E+02  0.16094902834E+02  0.25662338689E+03  0.12500000000E+03 0.  0.
         21    1    1    2  503  502  0.16731942068E+03  0.35794037265E+02  0.84274701414E+02  0.19073339230E+03  0.00000000000E+00 0.  1.
         21    1    1    2  504  501  0.53741396783E+02 -0.25730832975E+01  0.23857106769E+03  0.24456269713E+03  0.00000000000E+00 0.  1.
<mgrwt>
<rscale>  4 0.23359974E+03</rscale>
<asrwt>0</asrwt>
<pdfrwt beam="1">  1       21 0.79296934E-01 0.23359974E+03</pdfrwt>
<pdfrwt beam="2">  1       21 0.27152216E-01 0.23359974E+03</pdfrwt>
<totfact> 0.17708476E+04</totfact>
</mgrwt>
</event>
<event>
 5    0  0.1257040E+001  0.2026513E+03  0.7546771E-02  0.1147521E+00
         21   -1    0    0  502  501  0.00000000000E+00  0.00000000000E+00  0.38713633692E+03  0.38713633692E+03  0.00000000000E+00 0. -1.
         21   -1    0    0  504  502 -0.00000000000E+00 -0.00000000000E+00 -0.23746934988E+03  0.23746934988E+03  0.00000000000E+00 0. -1.
         25    1    1    2    0    0 -0.53684212443E+02  0.19512641040E+03 -0.11283839136E+03  0.26327516644E+03  0.12500000000E+03 0.  0.
         21    1    1    2  503  501  0.37577997495E+02 -0.15020771759E+03  0.27171070090E+03  0.31273178493E+03  0.00000000000E+00 0. -1.
         21    1    1    2  504  503  0.16106214948E+02 -0.44918692803E+02 -0.92053225003E+01  0.48598735430E+02  0.00000000000E+00 0.  1.
<mgrwt>
<rscale>  4 0.20265131E+03</rscale>
<asrwt>0</asrwt>
<pdfrwt beam="1">  1       21 0.59559436E-01 0.20265131E+03</pdfrwt>
<pdfrwt beam="2">  1       21 0.36533746E-01 0.20265131E+03</pdfrwt>
<totfact> 0.18905778E+04</totfact>
</mgrwt>
</event>
<event>
 5    0  0.1257040E+001  0.2401881E+03  0.7546771E-02  0.1119668E+00
         21   -1    0    0  504  501  0.00000000000E+00  0.00000000000E+00  0.23121723165E+03  0.23121723165E+03  0.00000000000E+00 0.  1.
         21   -1    0    0  503  502 -0.00000000000E+00 -0.00000000000E+00 -0.20575575906E+04  0.20575575906E+04  0.00000000000E+00 0. -1.
         25    1    1    2    0    0  0.13301578845E+03 -0.19971360101E+03 -0.99094737934E+03  0.10272197579E+04  0.12500000000E+03 0.  0.
         21    1    1    2  503  501 -0.72157338935E+01  0.39816891087E+02 -0.99940668734E+03  0.10002255637E+04  0.00000000000E+00 0.  1.
         21    1    1    2  504  502 -0.12580005456E+03  0.15989670992E+03  0.16401370773E+03  0.26132950062E+03  0.00000000000E+00 0.  1.
<mgrwt>
<rscale>  4 0.24018813E+03</rscale>
<asrwt>0</asrwt>
<pdfrwt beam="1">  1       21 0.35571883E-01 0.24018813E+03</pdfrwt>
<pdfrwt beam="2">  1       21 0.31654731E+00 0.24018813E+03</pdfrwt>
<totfact> 0.19508855E+02</totfact>
</mgrwt>
</event>
<event>
 5    0  0.1257040E+001  0.1826985E+03  0.7546771E-02  0.1165217E+00
         21   -1    0    0  503  501  0.00000000000E+00  0.00000000000E+00  0.32305764258E+03  0.32305764258E+03  0.00000000000E+00 0.  1.
         21   -1    0    0  504  502 -0.00000000000E+00 -0.00000000000E+00 -0.10118181066E+04  0.10118181066E+04  0.00000000000E+00 0. -1.
         25    1    1    2    0    0 -0.20107104343E+03  0.27108701533E+01 -0.79428860044E+02  0.24974158070E+03  0.12500000000E+03 0.  0.
         21    1    1    2  503  502  0.75892891651E+02  0.14891597422E+02 -0.82851175455E+03  0.83211370503E+03  0.00000000000E+00 0. -1.
         21    1    1    2  504  501  0.12517815178E+03 -0.17602467575E+02  0.21918015054E+03  0.25302046348E+03  0.00000000000E+00 0.  1.
<mgrwt>
<rscale>  4 0.18269853E+03</rscale>
<asrwt>0</asrwt>
<pdfrwt beam="1">  1       21 0.49701176E-01 0.18269853E+03</pdfrwt>
<pdfrwt beam="2">  1       21 0.15566432E+00 0.18269853E+03</pdfrwt>
<totfact> 0.10567093E+03</totfact>
</mgrwt>
</event>
<event>
 5    0  0.1257040E+001  0.3043369E+03  0.7546771E-02  0.1083093E+00
         21   -1    0    0  504  501  0.00000000000E+00  0.00000000000E+00  0.24663520783E+03  0.24663520783E+03  0.00000000000E+00 0. -1.
         21   -1    0    0  503  502 -0.00000000000E+00 -0.00000000000E+00 -0.43797381119E+03  0.43797381119E+03  0.00000000000E+00 0. -1.
         25    1    1    2    0    0 -0.20903800179E+03 -0.17748181286E+03  0.94742308763E+01  0.30151524197E+03  0.12500000000E+03 0.  0.
         21    1    1    2  503  501  0.22790908681E+03  0.16134618895E+03 -0.21683602548E+03  0.35354350013E+03  0.00000000000E+00 0. -1.
         21    1    1    2  504  502 -0.18871085021E+02  0.16135623912E+02  0.16023191234E+02  0.29550276923E+02  0.00000000000E+00 0. -1.
<mgrwt>
<rscale>  4 0.30433691E+03</rscale>
<asrwt>0</asrwt>
<pdfrwt beam="1">  1       21 0.37943878E-01 0.30433691E+03</pdfrwt>
<pdfrwt beam="2">  1       21 0.67380586E-01 0.30433691E+03</pdfrwt>
<totfact> 0.12713491E+04</totfact>
</mgrwt>
</event>
<event>
 5    0  0.1257040E+001  0.2724409E+03  0.7546771E-02  0.1099891E+00
         21   -1    0    0  503  501  0.00000000000E+00  0.00000000000E+00  0.83307738425E+02  0.83307738425E+02  0.00000000000E+00 0.  1.
         21   -1    0    0  501  502 -0.00000000000E+00 -0.00000000000E+00 -0.10295781342E+04  0.10295781342E+04  0.00000000000E+00 0.  1.
         25    1    1    2    0    0 -0.14232020833E+02 -0.24008127298E+03 -0.27149800057E+03  0.38363750125E+03  0.12500000000E+03 0.  0.
         21    1    1    2  503  504  0.29234766068E+02 -0.56036556268E+01 -0.89606940579E+02  0.94421799937E+02  0.00000000000E+00 0.  1.
         21    1    1    2  504  502 -0.15002745235E+02  0.24568492861E+03 -0.58516545462E+03  0.63482657143E+03  0.00000000000E+00 0.  1.
<mgrwt>
<rscale>  4 0.27244094E+03</rscale>
<asrwt>0</asrwt>
<pdfrwt beam="1">  1       21 0.12816575E-01 0.27244094E+03</pdfrwt>
<pdfrwt beam="2">  1       21 0.15839663E+00 0.27244094E+03</pdfrwt>
<totfact> 0.12817047E+04</totfact>
</mgrwt>
</event>
<event>
 5    0  0.1257040E+001  0.2127384E+03  0.7546771E-02  0.1139416E+00
         21   -1    0    0  504  501  0.00000000000E+00  0.00000000000E+00  0.94679064403E+03  0.94679064403E+03  0.00000000000E+00 0. -1.
         21   -1    0    0  503  502 -0.00000000000E+00 -0.00000000000E+00 -0.11175602522E+03  0.11175602522E+03  0.00000000000E+00 0. -1.
         25    1    1    2    0    0  0.15846012291E+03  0.16807848335E+03  0.41696950794E+03  0.49279666970E+03  0.12500000000E+03 0.  0.
         21    1    1    2  503  501 -0.10313637903E+03 -0.12287153892E+03  0.20392806526E+02  0.16171083549E+03  0.00000000000E+00 0. -1.
         21    1    1    2  504  502 -0.55323743880E+02 -0.45206944432E+02  0.39767230434E+03  0.40403916407E+03  0.00000000000E+00 0. -1.
<mgrwt>
<rscale>  4 0.21273836E+03</rscale>
<asrwt>0</asrwt>
<pdfrwt beam="1">  1       21 0.14566009E+00 0.21273836E+03</pdfrwt>
<pdfrwt beam="2">  1       21 0.17193235E-01 0.21273836E+03</pdfrwt>
<totfact> 0.97181522E+03</totfact>
</mgrwt>
</event>
<event>
 5    0  0.1257040E+001  0.2780576E+03  0.7546771E-02  0.1096755E+00
         21   -1    0    0  503  501  0.00000000000E+00  0.00000000000E+00  0.23160514897E+03  0.23160514897E+03  0.00000000000E+00 0.  1.
         21   -1    0    0  504  502 -0.00000000000E+00 -0.00000000000E+00 -0.50515897559E+03  0.50515897559E+03  0.00000000000E+00 0.  1.
         25    1    1    2    0    0 -0.14317768913E+03  0.17725529951E+03 -0.23254045333E+03  0.34873966551E+03  0.12500000000E+03 0.  0.
         21    1    1    2  503  502 -0.37536912887E+02  0.33042641167E+01 -0.11585378017E+03  0.12182789652E+03  0.00000000000E+00 0. -1.
         21    1    1    2  504  501  0.18071460202E+03 -0.18055956362E+03  0.74840406884E+02  0.26619656253E+03  0.00000000000E+00 0.  1.
<mgrwt>
<rscale>  4 0.27805758E+03</rscale>
<asrwt>0</asrwt>
<pdfrwt beam="1">  1       21 0.35631561E-01 0.27805758E+03</pdfrwt>
<pdfrwt beam="2">  1       21 0.77716766E-01 0.27805758E+03</pdfrwt>
<totfact> 0.10606065E+04</totfact>
</mgrwt>
</event>
<event>
 5    0  0.1257040E+001  0.3014892E+03  0.7546771E-02  0.1084499E+00
         21   -1    0    0  504  501  0.00000000000E+00  0.00000000000E+00  0.47620399588E+03  0.47620399588E+03  0.00000000000E+00 0.  1.
         21   -1    0    0  503  502 -0.00000000000E+00 -0.00000000000E+00 -0.31146716610E+03  0.31146716610E+03  0.00000000000E+00 0.  1.
         25    1    1    2    0    0  0.87038955935E+02 -0.25246044445E+03 -0.15310248956E+03  0.33223098617E+03  0.12500000000E+03 0.  0.
         21    1    1    2  503  501  0.21275866103E+02 -0.13751276709E+01 -0.12714676758E+02  0.24823707611E+02  0.00000000000E+00 0. -1.
         21    1    1    2  504  502 -0.10831482204E+03  0.25383557212E+03  0.33055399610E+03  0.43061646820E+03  0.00000000000E+00 0.  1.
<mgrwt>
<rscale>  4 0.30148919E+03</rscale>
<asrwt>0</asrwt>
<pdfrwt beam="1">  1       21 0.73262153E-01 0.30148919E+03</pdfrwt>
<pdfrwt beam="2">  1       21 0.47918026E-01 0.30148919E+03</pdfrwt>
<totfact> 0.65287048E+03</totfact>
</mgrwt>
</event>
