<event>
 5    0  0.2396052E+000  0.7678992E+03  0.7546771E-02  0.9607680E-01
          2   -1    0    0  503    0 -0.00000000000E+00  0.00000000000E+00  0.21335541883E+04  0.21335541883E+04  0.00000000000E+00 0. -1.
         21   -1    0    0  501  502  0.00000000000E+00 -0.00000000000E+00 -0.44367212504E+03  0.44367212504E+03  0.00000000000E+00 0. -1.
         25    1    1    2    0    0 -0.19001270451E+03  0.27052762849E+03 -0.34040829124E+03  0.49070646053E+03  0.12500000000E+03 0.  0.
         21    1    1    2  503  502  0.10312353399E+03 -0.11931969307E+03  0.23642834743E+03  0.28420066130E+03  0.00000000000E+00 0.  1.
          2    1    1    2  501    0  0.86889170525E+02 -0.15120793543E+03  0.17938620071E+04  0.18023191916E+04  0.00000000000E+00 0. -1.
<mgrwt>
<rscale>  4 0.76789922E+03</rscale>
<asrwt>0</asrwt>
<pdfrwt beam="1">  1       21 0.68257251E-01 0.76789922E+03</pdfrwt>
<pdfrwt beam="2">  1        2 0.32823910E+00 0.76789922E+03</pdfrwt>
<totfact> 0.12539902E+02</totfact>
</mgrwt>
</event>
<event>
 5    0  0.2396052E+000  0.5883451E+03  0.7546771E-02  0.9929886E-01
          2   -1    0    0  503    0 -0.00000000000E+00  0.00000000000E+00  0.14491091202E+04  0.14491091202E+04  0.00000000000E+00 0.  1.
         21   -1    0    0  501  502  0.00000000000E+00 -0.00000000000E+00 -0.99892154150E+02  0.99892154150E+02  0.00000000000E+00 0. -1.
         25    1    1    2    0    0 -0.14413394787E+03 -0.19322398939E+03  0.46361200293E+03  0.53728129901E+03  0.12500000000E+03 0.  0.
         21    1    1    2  503  502  0.17560139363E+03  0.25053103249E+03  0.32137756530E+03  0.44371746321E+03  0.00000000000E+00 0. -1.
          2    1    1    2  501    0 -0.31467445755E+02 -0.57307043102E+02  0.56422739783E+03  0.56800251214E+03  0.00000000000E+00 0.  1.
<mgrwt>
<rscale>  4 0.58834509E+03</rscale>
<asrwt>0</asrwt>
<pdfrwt beam="1">  1       21 0.15368025E-01 0.58834509E+03</pdfrwt>
<pdfrwt beam="2">  1        2 0.22293985E+00 0.58834509E+03</pdfrwt>
<totfact> 0.63925434E+03</totfact>
</mgrwt>
</event>
<event>
 5    0  0.2396052E+000  0.4312277E+03  0.7546771E-02  0.1033473E+00
         -1   -1    0    0    0  501 -0.00000000000E+00  0.00000000000E+00  0.15602016917E+03  0.15602016917E+03  0.00000000000E+00 0. -1.
         21   -1    0    0  501  502  0.00000000000E+00 -0.00000000000E+00 -0.78613592442E+03  0.78613592442E+03  0.00000000000E+00 0. -1.
         25    1    1    2    0    0  0.21789007112E+03  0.11872857403E+03 -0.80870735076E+02  0.28937455517E+03  0.12500000000E+03 0.  0.
         21    1    1    2  503  502  0.13498018563E+02 -0.12016899454E+03 -0.17287207283E+03  0.21096809549E+03  0.00000000000E+00 0.  1.
         -1    1    1    2    0  503 -0.23138808969E+03  0.14404205071E+01 -0.37637294734E+03  0.44181344293E+03  0.00000000000E+00 0. -1.
<mgrwt>
<rscale>  4 0.43122773E+03</rscale>
<asrwt>0</asrwt>
<pdfrwt beam="1">  1       21 0.12094399E+00 0.43122773E+03</pdfrwt>
<pdfrwt beam="2">  1       -1 0.24003103E-01 0.43122773E+03</pdfrwt>
<totfact> 0.64796390E+02</totfact>
</mgrwt>
</event>
<event>
 5    0  0.2396052E+000  0.3599004E+03  0.7546771E-02  0.1058623E+00
          2   -1    0    0  503    0 -0.00000000000E+00  0.00000000000E+00  0.20232684681E+04  0.20232684681E+04  0.00000000000E+00 0.  1.
         21   -1    0    0  501  502  0.00000000000E+00 -0.00000000000E+00 -0.10493123408E+03  0.10493123408E+03  0.00000000000E+00 0.  1.
         25    1    1    2    0    0  0.42723528096E+01  0.22764944826E+03  0.16119352371E+03  0.30569736077E+03  0.12500000000E+03 0.  0.
         21    1    1    2  503  502 -0.16684518686E+02 -0.98499654687E+02  0.52367208450E+02  0.11279574309E+03  0.00000000000E+00 0. -1.
          2    1    1    2  501    0  0.12412165876E+02 -0.12914979358E+03  0.17047765019E+04  0.17097065984E+04  0.00000000000E+00 0.  1.
<mgrwt>
<rscale>  4 0.35990039E+03</rscale>
<asrwt>0</asrwt>
<pdfrwt beam="1">  1       21 0.16143268E-01 0.35990039E+03</pdfrwt>
<pdfrwt beam="2">  1        2 0.31127204E+00 0.35990039E+03</pdfrwt>
<totfact> 0.29974245E+03</totfact>
</mgrwt>
</event>
<event>
 5    0  0.2396052E+000  0.3708051E+03  0.7546771E-02  0.1054386E+00
          2   -1    0    0  503    0 -0.00000000000E+00  0.00000000000E+00  0.34415129030E+03  0.34415129030E+03  0.00000000000E+00 0.  1.
         21   -1    0    0  501  502  0.00000000000E+00 -0.00000000000E+00 -0.20518214551E+03  0.20518214551E+03  0.00000000000E+00 0. -1.
         25    1    1    2    0    0  0.11361127190E+03 -0.16961787030E+03 -0.18817608198E+02  0.24011839873E+03  0.12500000000E+03 0.  0.
         21    1    1    2  503  502 -0.38216672842E+02  0.12532098051E+03  0.25495599606E+01  0.13104336112E+03  0.00000000000E+00 0. -1.
          2    1    1    2  501    0 -0.75394599059E+02  0.44296889798E+02  0.15523719303E+03  0.17817167596E+03  0.00000000000E+00 0.  1.
<mgrwt>
<rscale>  4 0.37080507E+03</rscale>
<asrwt>0</asrwt>
<pdfrwt beam="1">  1       21 0.31566484E-01 0.37080507E+03</pdfrwt>
<pdfrwt beam="2">  1        2 0.52946352E-01 0.37080507E+03</pdfrwt>
<totfact> 0.10963694E+04</totfact>
</mgrwt>
</event>
<event>
 5    0  0.2396052E+000  0.3480556E+03  0.7546771E-02  0.1063416E+00
         21   -1    0    0  501  502  0.00000000000E+00  0.00000000000E+00  0.14909116259E+03  0.14909116259E+03  0.00000000000E+00 0. -1.
         -4   -1    0    0    0  501 -0.00000000000E+00 -0.00000000000E+00 -0.65173394310E+03  0.65173394310E+03  0.00000000000E+00 0.  1.
         25    1    1    2    0    0 -0.18605312411E+03  0.85205716191E+02 -0.62265743540E+02  0.24774543766E+03  0.12500000000E+03 0.  0.
         21    1    1    2  503  502  0.10419905552E+03 -0.23445049859E+02 -0.62278358113E+01  0.10698551058E+03  0.00000000000E+00 0.  1.
         -4    1    1    2    0  503  0.81854068582E+02 -0.61760666332E+02 -0.43414920116E+03  0.44609415746E+03  0.00000000000E+00 0.  1.
<mgrwt>
<rscale>  4 0.34805556E+03</rscale>
<asrwt>0</asrwt>
<pdfrwt beam="1">  1       21 0.22937102E-01 0.34805556E+03</pdfrwt>
<pdfrwt beam="2">  1       -4 0.10026676E+00 0.34805556E+03</pdfrwt>
<totfact> 0.63376030E+02</totfact>
</mgrwt>
</event>
<event>
 5    0  0.2396052E+000  0.6039215E+03  0.7546771E-02  0.9897304E-01
         21   -1    0    0  501  502  0.00000000000E+00  0.00000000000E+00  0.35975094913E+03  0.35975094913E+03  0.00000000000E+00 0.  1.
          2   -1    0    0  503    0 -0.00000000000E+00 -0.00000000000E+00 -0.83990532292E+03  0.83990532292E+03  0.00000000000E+00 0. -1.
         25    1    1    2    0    0  0.19020850782E+03  0.19746771730E+03 -0.87613457927E+02  0.31380550319E+03  0.12500000000E+03 0.  0.
         21    1    1    2  503  502 -0.15747328971E+03 -0.16631900481E+03  0.19242379692E+03  0.29914338694E+03  0.00000000000E+00 0.  1.
          2    1    1    2  501    0 -0.32735218104E+02 -0.31148712495E+02 -0.58496471278E+03  0.58670738192E+03  0.00000000000E+00 0. -1.
<mgrwt>
<rscale>  4 0.60392146E+03</rscale>
<asrwt>0</asrwt>
<pdfrwt beam="1">  1       21 0.55346300E-01 0.60392146E+03</pdfrwt>
<pdfrwt beam="2">  1        2 0.12921620E+00 0.60392146E+03</pdfrwt>
<totfact> 0.11489599E+03</totfact>
</mgrwt>
</event>
<event>
 5    0  0.2396052E+000  0.5807630E+03  0.7546771E-02  0.9946140E-01
          2   -1    0    0  503    0 -0.00000000000E+00  0.00000000000E+00  0.50418302594E+03  0.50418302594E+03  0.00000000000E+00 0.  1.
         21   -1    0    0  501  502  0.00000000000E+00 -0.00000000000E+00 -0.70656188348E+03  0.70656188348E+03  0.00000000000E+00 0.  1.
         25    1    1    2    0    0 -0.10919626722E+03  0.25810571935E+03 -0.60610452238E+02  0.31279548279E+03  0.12500000000E+03 0.  0.
         21    1    1    2  503  502 -0.15276647848E+03  0.47708785075E+02 -0.39230663920E+03  0.42369591015E+03  0.00000000000E+00 0.  1.
          2    1    1    2  501    0  0.26196274569E+03 -0.30581450442E+03  0.25053823390E+03  0.47425351648E+03  0.00000000000E+00 0.  1.
<mgrwt>
<rscale>  4 0.58076302E+03</rscale>
<asrwt>0</asrwt>
<pdfrwt beam="1">  1       21 0.10870183E+00 0.58076302E+03</pdfrwt>
<pdfrwt beam="2">  1        2 0.77566619E-01 0.58076302E+03</pdfrwt>
<totfact> 0.45231286E+02</totfact>
</mgrwt>
</event>
<event>
 5    0  0.2396052E+000  0.4501437E+03  0.7546771E-02  0.1027679E+00
         21   -1    0    0  501  502  0.00000000000E+00  0.00000000000E+00  0.10938126958E+04  0.10938126958E+04  0.00000000000E+00 0. -1.
         -2   -1    0    0    0  501 -0.00000000000E+00 -0.00000000000E+00 -0.33602415116E+03  0.33602415116E+03  0.00000000000E+00 0. -1.
         25    1    1    2    0    0 -0.22176982830E+03 -0.87941678273E+01  0.75474167620E+03  0.79656712958E+03  0.12500000000E+03 0.  0.
         21    1    1    2  503  502  0.17693251462E+03  0.30286166996E+02  0.29053379378E+03  0.34151464386E+03  0.00000000000E+00 0. -1.
         -2    1    1    2    0  503  0.44837313685E+02 -0.21491999168E+02 -0.28748692530E+03  0.29175507356E+03  0.00000000000E+00 0. -1.
<mgrwt>
<rscale>  4 0.45014366E+03</rscale>
<asrwt>0</asrwt>
<pdfrwt beam="1">  1       21 0.16827887E+00 0.45014366E+03</pdfrwt>
<pdfrwt beam="2">  1       -2 0.51696024E-01 0.45014366E+03</pdfrwt>
<totfact> 0.56054402E+01</totfact>
</mgrwt>
</event>
<event>
 5    0  0.2396052E+000  0.4877364E+03  0.7546771E-02  0.1017030E+00
          2   -1    0    0  503    0 -0.00000000000E+00  0.00000000000E+00  0.62445973607E+03  0.62445973607E+03  0.00000000000E+00 0. -1.
         21   -1    0    0  501  502  0.00000000000E+00 -0.00000000000E+00 -0.26978021653E+03  0.26978021653E+03  0.00000000000E+00 0.  1.
         25    1    1    2    0    0 -0.17857540015E+02 -0.25353973513E+03 -0.72566118284E+02  0.29239037355E+03  0.12500000000E+03 0.  0.
         21    1    1    2  503  502  0.11371952602E+03  0.15295528650E+03  0.45996385897E+02  0.19606916581E+03  0.00000000000E+00 0. -1.
          2    1    1    2  501    0 -0.95861986008E+02  0.10058444863E+03  0.38124925193E+03  0.40578041323E+03  0.00000000000E+00 0. -1.
<mgrwt>
<rscale>  4 0.48773637E+03</rscale>
<asrwt>0</asrwt>
<pdfrwt beam="1">  1       21 0.41504649E-01 0.48773637E+03</pdfrwt>
<pdfrwt beam="2">  1        2 0.96070728E-01 0.48773637E+03</pdfrwt>
<totfact> 0.31427465E+03</totfact>
</mgrwt>
</event>
<event>
 5    0  0.2396052E+000  0.6501387E+03  0.7546771E-02  0.9806519E-01
         -2   -1    0    0    0  501 -0.00000000000E+00  0.00000000000E+00  0.24829638028E+03  0.24829638028E+03  0.00000000000E+00 0. -1.
         21   -1    0    0  501  502  0.00000000000E+00 -0.00000000000E+00 -0.59426390973E+03  0.59426390973E+03  0.00000000000E+00 0.  1.
         25    1    1    2    0    0  0.22685846673E+03  0.16547004498E+03 -0.13358396408E+03  0.33513396601E+03  0.12500000000E+03 0.  0.
         21    1    1    2  503  502 -0.23293327159E+03 -0.24363062242E+03 -0.25078764702E+03  0.42012882916E+03  0.00000000000E+00 0.  1.
         -2    1    1    2    0  503  0.60748048594E+01  0.78160577436E+02  0.38404081644E+02  0.87297494845E+02  0.00000000000E+00 0. -1.
<mgrwt>
<rscale>  4 0.65013872E+03</rscale>
<asrwt>0</asrwt>
<pdfrwt beam="1">  1       21 0.91425216E-01 0.65013872E+03</pdfrwt>
<pdfrwt beam="2">  1       -2 0.38199444E-01 0.65013872E+03</pdfrwt>
<totfact> 0.47423080E+02</totfact>
</mgrwt>
</event>
<event>
 5    0  0.2396052E+000  0.5900729E+03  0.7546771E-02  0.9926218E-01
          1   -1    0    0  503    0 -0.00000000000E+00  0.00000000000E+00  0.88928106046E+03  0.88928106046E+03  0.00000000000E+00 0. -1.
         21   -1    0    0  501  502  0.00000000000E+00 -0.00000000000E+00 -0.33645168890E+03  0.33645168890E+03  0.00000000000E+00 0. -1.
         25    1    1    2    0    0  0.48974243402E+02  0.23536172787E+03  0.71540519301E+02  0.28024393903E+03  0.12500000000E+03 0.  0.
         21    1    1    2  503  502  0.12973183540E+03 -0.25471807289E+03 -0.12582813134E+03  0.31232093175E+03  0.00000000000E+00 0. -1.
          1    1    1    2  501    0 -0.17870607880E+03  0.19356345021E+02  0.60711698360E+03  0.63316787858E+03  0.00000000000E+00 0. -1.
<mgrwt>
<rscale>  4 0.59007286E+03</rscale>
<asrwt>0</asrwt>
<pdfrwt beam="1">  1       21 0.51761798E-01 0.59007286E+03</pdfrwt>
<pdfrwt beam="2">  1        1 0.13681247E+00 0.59007286E+03</pdfrwt>
<totfact> 0.67869507E+02</totfact>
</mgrwt>
</event>
<event>
 5    0  0.2396052E+000  0.5261750E+03  0.7546771E-02  0.1007164E+00
         -3   -1    0    0    0  501 -0.00000000000E+00  0.00000000000E+00  0.11847876507E+04  0.11847876507E+04  0.00000000000E+00 0. -1.
         21   -1    0    0  501  502  0.00000000000E+00 -0.00000000000E+00 -0.80270852469E+02  0.80270852469E+02  0.00000000000E+00 0. -1.
         25    1    1    2    0    0  0.19083954675E+03 -0.13725160509E+03  0.69169998229E+03  0.74116907734E+03  0.12500000000E+03 0.  0.
         21    1    1    2  503  502 -0.15738183063E+03  0.10426735793E+03  0.11217685789E+03  0.21960047811E+03  0.00000000000E+00 0. -1.
         -3    1    1    2    0  503 -0.33457716121E+02  0.32984247160E+02  0.30063995804E+03  0.30428894771E+03  0.00000000000E+00 0. -1.
<mgrwt>
<rscale>  4 0.52617503E+03</rscale>
<asrwt>0</asrwt>
<pdfrwt beam="1">  1       21 0.12349363E-01 0.52617503E+03</pdfrwt>
<pdfrwt beam="2">  1       -3 0.18227501E+00 0.52617503E+03</pdfrwt>
<totfact> 0.54709031E+02</totfact>
</mgrwt>
</event>
<event>
 5    0  0.2396052E+000  0.4185312E+03  0.7546771E-02  0.1037545E+00
          2   -1    0    0  503    0 -0.00000000000E+00  0.00000000000E+00  0.32783167226E+03  0.32783167226E+03  0.00000000000E+00 0. -1.
         21   -1    0    0  501  502  0.00000000000E+00 -0.00000000000E+00 -0.54287822967E+03  0.54287822967E+03  0.00000000000E+00 0. -1.
         25    1    1    2    0    0  0.24458816373E+03  0.28150477292E+01 -0.21697233407E+03  0.35004755117E+03  0.12500000000E+03 0.  0.
         21    1    1    2  503  502 -0.12505252238E+03 -0.20087592502E+02 -0.22807273843E+03  0.26088085162E+03  0.00000000000E+00 0. -1.
          2    1    1    2  501    0 -0.11953564135E+03  0.17272544773E+02  0.22999851509E+03  0.25978149915E+03  0.00000000000E+00 0. -1.
<mgrwt>
<rscale>  4 0.41853124E+03</rscale>
<asrwt>0</asrwt>
<pdfrwt beam="1">  1       21 0.83519727E-01 0.41853124E+03</pdfrwt>
<pdfrwt beam="2">  1        2 0.50435642E-01 0.41853124E+03</pdfrwt>
<totfact> 0.14304295E+03</totfact>
</mgrwt>
</event>
<event>
 5    0  0.2396052E+000  0.5845210E+03  0.7546771E-02  0.9938051E-01
          2   -1    0    0  503    0 -0.00000000000E+00  0.00000000000E+00  0.58468764275E+03  0.58468764275E+03  0.00000000000E+00 0. -1.
         21   -1    0    0  501  502  0.00000000000E+00 -0.00000000000E+00 -0.44254601410E+03  0.44254601410E+03  0.00000000000E+00 0. -1.
         25    1    1    2    0    0  0.21051649173E+03 -0.30212856209E+03 -0.22034127190E+02  0.38949886275E+03  0.12500000000E+03 0.  0.
         21    1    1    2  503  502  0.88917671669E+02  0.17038661399E+02  0.20319530809E+03  0.22245224554E+03  0.00000000000E+00 0.  1.
          2    1    1    2  501    0 -0.29943416340E+03  0.28508990069E+03 -0.39019552250E+02  0.41528254856E+03  0.00000000000E+00 0. -1.
<mgrwt>
<rscale>  4 0.58452099E+03</rscale>
<asrwt>0</asrwt>
<pdfrwt beam="1">  1       21 0.68084002E-01 0.58452099E+03</pdfrwt>
<pdfrwt beam="2">  1        2 0.89951945E-01 0.58452099E+03</pdfrwt>
<totfact> 0.11494182E+03</totfact>
</mgrwt>
</event>
<event>
 5    0  0.2396052E+000  0.5765195E+03  0.7546771E-02  0.9955355E-01
          2   -1    0    0  503    0 -0.00000000000E+00  0.00000000000E+00  0.19457866838E+04  0.19457866838E+04  0.00000000000E+00 0. -1.
         21   -1    0    0  501  502  0.00000000000E+00 -0.00000000000E+00 -0.89084036003E+02  0.89084036003E+02  0.00000000000E+00 0. -1.
         25    1    1    2    0    0  0.10003747537E+03 -0.24854741729E+03  0.29350343222E+03  0.41659642322E+03  0.12500000000E+03 0.  0.
         21    1    1    2  503  502 -0.60533804672E+02  0.24395073391E+03  0.55468226689E+03  0.60897349638E+03  0.00000000000E+00 0. -1.
          2    1    1    2  501    0 -0.39503670700E+02  0.45966833797E+01  0.10085169487E+04  0.10093008002E+04  0.00000000000E+00 0. -1.
<mgrwt>
<rscale>  4 0.57651945E+03</rscale>
<asrwt>0</asrwt>
<pdfrwt beam="1">  1       21 0.13705238E-01 0.57651945E+03</pdfrwt>
<pdfrwt beam="2">  1        2 0.29935177E+00 0.57651945E+03</pdfrwt>
<totfact> 0.42511939E+03</totfact>
</mgrwt>
</event>
<event>
 5    0  0.2396052E+000  0.3790636E+03  0.7546771E-02  0.1051280E+00
         21   -1    0    0  501  502  0.00000000000E+00  0.00000000000E+00  0.52086593679E+03  0.52086593679E+03  0.00000000000E+00 0.  1.
          1   -1    0    0  503    0 -0.00000000000E+00 -0.00000000000E+00 -0.24156652339E+03  0.24156652339E+03  0.00000000000E+00 0.  1.
         25    1    1    2    0    0 -0.22100184219E+03  0.42573403494E+02  0.40834401164E+03  0.48272574074E+03  0.12500000000E+03 0.  0.
         21    1    1    2  503  502  0.79075320213E+02 -0.90948534269E+01  0.74829092871E+01  0.79947586311E+02  0.00000000000E+00 0. -1.
          1    1    1    2  501    0  0.14192652198E+03 -0.33478550067E+02 -0.13652750753E+03  0.19975913312E+03  0.00000000000E+00 0.  1.
<mgrwt>
<rscale>  4 0.37906364E+03</rscale>
<asrwt>0</asrwt>
<pdfrwt beam="1">  1       21 0.80133221E-01 0.37906364E+03</pdfrwt>
<pdfrwt beam="2">  1        1 0.37164081E-01 0.37906364E+03</pdfrwt>
<totfact> 0.16225627E+03</totfact>
</mgrwt>
</event>
<event>
 5    0  0.2396052E+000  0.3717042E+03  0.7546771E-02  0.1054043E+00
         21   -1    0    0  501  502  0.00000000000E+00  0.00000000000E+00  0.48372711678E+02  0.48372711678E+02  0.00000000000E+00 0. -1.
          1   -1    0    0  503    0 -0.00000000000E+00 -0.00000000000E+00 -0.14529358376E+04  0.14529358376E+04  0.00000000000E+00 0.  1.
         25    1    1    2    0    0  0.13098093468E+03  0.20211085410E+03 -0.57729910842E+03  0.63789032222E+03  0.12500000000E+03 0.  0.
         21    1    1    2  503  502 -0.71708297192E+02 -0.60863877043E+02 -0.31475085777E+03  0.32850356753E+03  0.00000000000E+00 0.  1.
          1    1    1    2  501    0 -0.59272637491E+02 -0.14124697705E+03 -0.51251315974E+03  0.53491465954E+03  0.00000000000E+00 0.  1.
<mgrwt>
<rscale>  4 0.37170419E+03</rscale>
<asrwt>0</asrwt>
<pdfrwt beam="1">  1       21 0.74419561E-02 0.37170419E+03</pdfrwt>
<pdfrwt beam="2">  1        1 0.22352858E+00 0.37170419E+03</pdfrwt>
<totfact> 0.11371829E+04</totfact>
</mgrwt>
</event>
<event>
 5    0  0.2396052E+000  0.6342733E+03  0.7546771E-02  0.9836745E-01
         21   -1    0    0  501  502  0.00000000000E+00  0.00000000000E+00  0.10516922725E+04  0.10516922725E+04  0.00000000000E+00 0.  1.
         -2   -1    0    0    0  501 -0.00000000000E+00 -0.00000000000E+00 -0.20094235366E+03  0.20094235366E+03  0.00000000000E+00 0. -1.
         25    1    1    2    0    0  0.36699237677E+03 -0.34597660038E+02  0.51844574652E+03  0.64829884681E+03  0.12500000000E+03 0.  0.
         21    1    1    2  503  502 -0.24187331377E+03  0.23373167452E+02  0.39513650541E+03  0.46387699100E+03  0.00000000000E+00 0.  1.
         -2    1    1    2    0  503 -0.12511906300E+03  0.11224492586E+02 -0.62832333047E+02  0.14045878839E+03  0.00000000000E+00 0. -1.
<mgrwt>
<rscale>  4 0.63427326E+03</rscale>
<asrwt>0</asrwt>
<pdfrwt beam="1">  1       21 0.16179881E+00 0.63427326E+03</pdfrwt>
<pdfrwt beam="2">  1       -2 0.30914209E-01 0.63427326E+03</pdfrwt>
<totfact> 0.16206161E+02</totfact>
</mgrwt>
</event>
<event>
 5    0  0.2396052E+000  0.4813001E+03  0.7546771E-02  0.1018778E+00
         21   -1    0    0  501  502  0.00000000000E+00  0.00000000000E+00  0.46837692734E+02  0.46837692734E+02  0.00000000000E+00 0. -1.
          3   -1    0    0  503    0 -0.00000000000E+00 -0.00000000000E+00 -0.19563831356E+04  0.19563831356E+04  0.00000000000E+00 0. -1.
         25    1    1    2    0    0 -0.44966863891E+02 -0.21035700237E+03 -0.63373238984E+03  0.68081849947E+03  0.12500000000E+03 0.  0.
         21    1    1    2  503  502  0.90481814603E+02  0.21414083378E+03 -0.57660997125E+03  0.62170918797E+03  0.00000000000E+00 0. -1.
          3    1    1    2  501    0 -0.45514950711E+02 -0.37838314107E+01 -0.69920308176E+03  0.70069314087E+03  0.00000000000E+00 0. -1.
<mgrwt>
<rscale>  4 0.48130006E+03</rscale>
<asrwt>0</asrwt>
<pdfrwt beam="1">  1       21 0.72058003E-02 0.48130006E+03</pdfrwt>
<pdfrwt beam="2">  1        3 0.30098196E+00 0.48130006E+03</pdfrwt>
<totfact> 0.29941712E+02</totfact>
</mgrwt>
</event>
<event>
 5    0  0.2396052E+000  0.3886926E+03  0.7546771E-02  0.1047767E+00
          4   -1    0    0  503    0 -0.00000000000E+00  0.00000000000E+00  0.12985510382E+04  0.12985510382E+04  0.00000000000E+00 0. -1.
         21   -1    0    0  501  502  0.00000000000E+00 -0.00000000000E+00 -0.12358515609E+03  0.12358515609E+03  0.00000000000E+00 0.  1.
         25    1    1    2    0    0  0.26981753250E+03  0.15805669632E+02  0.16839625008E+03  0.34210176421E+03  0.12500000000E+03 0.  0.
         21    1    1    2  503  502 -0.90078879797E+02  0.11134513417E+02  0.44754908189E+02  0.10119873409E+03  0.00000000000E+00 0. -1.
          4    1    1    2  501    0 -0.17973865270E+03 -0.26940183049E+02  0.96181472379E+03  0.97883569594E+03  0.00000000000E+00 0. -1.
<mgrwt>
<rscale>  4 0.38869257E+03</rscale>
<asrwt>0</asrwt>
<pdfrwt beam="1">  1       21 0.19013102E-01 0.38869257E+03</pdfrwt>
<pdfrwt beam="2">  1        4 0.19977707E+00 0.38869257E+03</pdfrwt>
<totfact> 0.14989159E+02</totfact>
</mgrwt>
</event>
<event>
 5    0  0.2396052E+000  0.4703687E+03  0.7546771E-02  0.1021816E+00
         21   -1    0    0  501  502  0.00000000000E+00  0.00000000000E+00  0.16442745585E+04  0.16442745585E+04  0.00000000000E+00 0.  1.
          2   -1    0    0  503    0 -0.00000000000E+00 -0.00000000000E+00 -0.86020097909E+02  0.86020097909E+02  0.00000000000E+00 0.  1.
         25    1    1    2    0    0  0.91183636403E+02  0.27861189743E+03  0.11962367718E+04  0.12379606049E+04  0.12500000000E+03 0.  0.
         21    1    1    2  503  502 -0.40122219487E+02 -0.13143082715E+03  0.28957618395E+03  0.32052803487E+03  0.00000000000E+00 0. -1.
          2    1    1    2  501    0 -0.51061416916E+02 -0.14718107028E+03  0.72441504810E+02  0.17180601667E+03  0.00000000000E+00 0.  1.
<mgrwt>
<rscale>  4 0.47036869E+03</rscale>
<asrwt>0</asrwt>
<pdfrwt beam="1">  1       21 0.25296529E+00 0.47036869E+03</pdfrwt>
<pdfrwt beam="2">  1        2 0.13233862E-01 0.47036869E+03</pdfrwt>
<totfact> 0.30274168E+02</totfact>
</mgrwt>
</event>
<event>
 5    0  0.2396052E+000  0.5719234E+03  0.7546771E-02  0.9965432E-01
          2   -1    0    0  503    0 -0.00000000000E+00  0.00000000000E+00  0.17992368806E+04  0.17992368806E+04  0.00000000000E+00 0. -1.
         21   -1    0    0  501  502  0.00000000000E+00 -0.00000000000E+00 -0.10883871024E+03  0.10883871024E+03  0.00000000000E+00 0.  1.
         25    1    1    2    0    0 -0.19131848525E+03 -0.67133097115E+02  0.54109736778E+02  0.24425904106E+03  0.12500000000E+03 0.  0.
         21    1    1    2  503  502  0.17708624755E+03  0.34099080772E+02  0.59083476562E+03  0.61774428904E+03  0.00000000000E+00 0. -1.
          2    1    1    2  501    0  0.14232237698E+02  0.33034016343E+02  0.10454536680E+04  0.10460722607E+04  0.00000000000E+00 0. -1.
<mgrwt>
<rscale>  4 0.57192336E+03</rscale>
<asrwt>0</asrwt>
<pdfrwt beam="1">  1       21 0.16744418E-01 0.57192336E+03</pdfrwt>
<pdfrwt beam="2">  1        2 0.27680565E+00 0.57192336E+03</pdfrwt>
<totfact> 0.35134305E+03</totfact>
</mgrwt>
</event>
<event>
 5    0  0.2396052E+000  0.4356510E+03  0.7546771E-02  0.1032090E+00
         21   -1    0    0  501  502  0.00000000000E+00  0.00000000000E+00  0.14113162308E+04  0.14113162308E+04  0.00000000000E+00 0. -1.
          2   -1    0    0  503    0 -0.00000000000E+00 -0.00000000000E+00 -0.61289338883E+03  0.61289338883E+03  0.00000000000E+00 0. -1.
         25    1    1    2    0    0  0.46521054166E+02  0.19883639192E+03  0.39953234691E+03  0.46578022227E+03  0.12500000000E+03 0.  0.
         21    1    1    2  503  502 -0.24709443677E+02 -0.47424550593E+02  0.96781818772E+03  0.96929442848E+03  0.00000000000E+00 0. -1.
          2    1    1    2  501    0 -0.21811610489E+02 -0.15141184133E+03 -0.56892769268E+03  0.58913496887E+03  0.00000000000E+00 0. -1.
<mgrwt>
<rscale>  4 0.43565097E+03</rscale>
<asrwt>0</asrwt>
<pdfrwt beam="1">  1       21 0.21712557E+00 0.43565097E+03</pdfrwt>
<pdfrwt beam="2">  1        2 0.94291291E-01 0.43565097E+03</pdfrwt>
<totfact> 0.54828023E+01</totfact>
</mgrwt>
</event>
<event>
 5    0  0.2396052E+000  0.4167074E+03  0.7546771E-02  0.1038143E+00
         21   -1    0    0  501  502  0.00000000000E+00  0.00000000000E+00  0.32046302328E+03  0.32046302328E+03  0.00000000000E+00 0. -1.
          1   -1    0    0  503    0 -0.00000000000E+00 -0.00000000000E+00 -0.12259461407E+04  0.12259461407E+04  0.00000000000E+00 0.  1.
         25    1    1    2    0    0  0.10184590130E+03  0.20826447046E+03  0.25158578417E+03  0.36423492977E+03  0.12500000000E+03 0.  0.
         21    1    1    2  503  502  0.53967646060E+01 -0.27911004680E+02 -0.81145945781E+02  0.85981473395E+02  0.00000000000E+00 0.  1.
          1    1    1    2  501    0 -0.10724266590E+03 -0.18035346578E+03 -0.10759229558E+04  0.10961927608E+04  0.00000000000E+00 0.  1.
<mgrwt>
<rscale>  4 0.41670742E+03</rscale>
<asrwt>0</asrwt>
<pdfrwt beam="1">  1       21 0.49302004E-01 0.41670742E+03</pdfrwt>
<pdfrwt beam="2">  1        1 0.18860710E+00 0.41670742E+03</pdfrwt>
<totfact> 0.43874324E+02</totfact>
</mgrwt>
</event>
<event>
 5    0  0.2396052E+000  0.7321590E+03  0.7546771E-02  0.9663763E-01
          1   -1    0    0  503    0 -0.00000000000E+00  0.00000000000E+00  0.78442829509E+03  0.78442829509E+03  0.00000000000E+00 0. -1.
         21   -1    0    0  501  502  0.00000000000E+00 -0.00000000000E+00 -0.32719101240E+03  0.32719101240E+03  0.00000000000E+00 0. -1.
         25    1    1    2    0    0  0.23971166257E+03  0.15299863695E+03 -0.10767145458E+03  0.32876801276E+03  0.12500000000E+03 0.  0.
         21    1    1    2  503  502 -0.28870861219E+03 -0.21076525898E+03  0.19886047663E+03  0.40904785332E+03  0.00000000000E+00 0. -1.
          1    1    1    2  501    0  0.48996949615E+02  0.57766622023E+02  0.36604826064E+03  0.37380344141E+03  0.00000000000E+00 0. -1.
<mgrwt>
<rscale>  4 0.73215901E+03</rscale>
<asrwt>0</asrwt>
<pdfrwt beam="1">  1       21 0.50337079E-01 0.73215901E+03</pdfrwt>
<pdfrwt beam="2">  1        1 0.12068128E+00 0.73215901E+03</pdfrwt>
<totfact> 0.86264707E+02</totfact>
</mgrwt>
</event>
<event>
 5    0  0.2396052E+000  0.5576394E+03  0.7546771E-02  0.9997410E-01
          2   -1    0    0  503    0 -0.00000000000E+00  0.00000000000E+00  0.14067541219E+04  0.14067541219E+04  0.00000000000E+00 0.  1.
         21   -1    0    0  501  502  0.00000000000E+00 -0.00000000000E+00 -0.36053333695E+03  0.36053333695E+03  0.00000000000E+00 0. -1.
         25    1    1    2    0    0  0.12063664096E+03 -0.22218184162E+03  0.38213404496E+02  0.28461067122E+03  0.12500000000E+03 0.  0.
         21    1    1    2  503  502 -0.19607355008E+03  0.11922670187E+03 -0.17762737265E+03  0.29019187961E+03  0.00000000000E+00 0. -1.
          2    1    1    2  501    0  0.75436909120E+02  0.10295513976E+03  0.11856347531E+04  0.11924849080E+04  0.00000000000E+00 0.  1.
<mgrwt>
<rscale>  4 0.55763942E+03</rscale>
<asrwt>0</asrwt>
<pdfrwt beam="1">  1       21 0.55466668E-01 0.55763942E+03</pdfrwt>
<pdfrwt beam="2">  1        2 0.21642371E+00 0.55763942E+03</pdfrwt>
<totfact> 0.52108541E+02</totfact>
</mgrwt>
</event>
<event>
 5    0  0.2396052E+000  0.4523902E+03  0.7546771E-02  0.1027012E+00
         21   -1    0    0  501  502  0.00000000000E+00  0.00000000000E+00  0.24583028902E+03  0.24583028902E+03  0.00000000000E+00 0.  1.
          2   -1    0    0  503    0 -0.00000000000E+00 -0.00000000000E+00 -0.18317376582E+04  0.18317376582E+04  0.00000000000E+00 0.  1.
         25    1    1    2    0    0 -0.17733006532E+03  0.20092463971E+03 -0.36172671548E+01  0.29572748863E+03  0.12500000000E+03 0.  0.
         21    1    1    2  503  502  0.13541642146E+03 -0.72585268300E+02  0.36101170164E+02  0.15782750984E+03  0.00000000000E+00 0.  1.
          2    1    1    2  501    0  0.41913643866E+02 -0.12833937141E+03 -0.16183912722E+04  0.16240129487E+04  0.00000000000E+00 0.  1.
<mgrwt>
<rscale>  4 0.45239024E+03</rscale>
<asrwt>0</asrwt>
<pdfrwt beam="1">  1       21 0.37820045E-01 0.45239024E+03</pdfrwt>
<pdfrwt beam="2">  1        2 0.28180579E+00 0.45239024E+03</pdfrwt>
<totfact> 0.70495924E+02</totfact>
</mgrwt>
</event>
<event>
 5    0  0.2396052E+000  0.4838260E+03  0.7546771E-02  0.1018089E+00
          1   -1    0    0  503    0 -0.00000000000E+00  0.00000000000E+00  0.48639485116E+03  0.48639485116E+03  0.00000000000E+00 0.  1.
         21   -1    0    0  501  502  0.00000000000E+00 -0.00000000000E+00 -0.34370672937E+03  0.34370672937E+03  0.00000000000E+00 0.  1.
         25    1    1    2    0    0  0.87536444740E+02  0.25357686689E+03 -0.15819467294E+03  0.33558070732E+03  0.12500000000E+03 0.  0.
         21    1    1    2  503  502 -0.14648070183E+03 -0.60785705987E+02  0.37725888630E+02  0.16301760867E+03  0.00000000000E+00 0. -1.
          1    1    1    2  501    0  0.58944257094E+02 -0.19279116091E+03  0.26315690610E+03  0.33150326454E+03  0.00000000000E+00 0.  1.
<mgrwt>
<rscale>  4 0.48382595E+03</rscale>
<asrwt>0</asrwt>
<pdfrwt beam="1">  1       21 0.52877958E-01 0.48382595E+03</pdfrwt>
<pdfrwt beam="2">  1        1 0.74829977E-01 0.48382595E+03</pdfrwt>
<totfact> 0.16147570E+03</totfact>
</mgrwt>
</event>
<event>
 5    0  0.2396052E+000  0.5530998E+03  0.7546771E-02  0.1000779E+00
         21   -1    0    0  501  502  0.00000000000E+00  0.00000000000E+00  0.74966098016E+03  0.74966098016E+03  0.00000000000E+00 0. -1.
          1   -1    0    0  503    0 -0.00000000000E+00 -0.00000000000E+00 -0.84362308436E+03  0.84362308436E+03  0.00000000000E+00 0.  1.
         25    1    1    2    0    0  0.13797684775E+03 -0.16974626664E+03  0.64313917299E+03  0.69072744363E+03  0.12500000000E+03 0.  0.
         21    1    1    2  503  502 -0.11741189569E+03 -0.78949108914E+02 -0.19524941146E+02  0.14282765270E+03  0.00000000000E+00 0.  1.
          1    1    1    2  501    0 -0.20564952057E+02  0.24869537555E+03 -0.71757633604E+03  0.75972896819E+03  0.00000000000E+00 0.  1.
<mgrwt>
<rscale>  4 0.55309980E+03</rscale>
<asrwt>0</asrwt>
<pdfrwt beam="1">  1       21 0.11533246E+00 0.55309980E+03</pdfrwt>
<pdfrwt beam="2">  1        1 0.12978817E+00 0.55309980E+03</pdfrwt>
<totfact> 0.11649595E+02</totfact>
</mgrwt>
</event>
<event>
 5    0  0.2396052E+000  0.6080206E+03  0.7546771E-02  0.9888904E-01
         21   -1    0    0  501  502  0.00000000000E+00  0.00000000000E+00  0.14861414735E+03  0.14861414735E+03  0.00000000000E+00 0. -1.
          1   -1    0    0  503    0 -0.00000000000E+00 -0.00000000000E+00 -0.13473407099E+04  0.13473407099E+04  0.00000000000E+00 0. -1.
         25    1    1    2    0    0 -0.19730989444E+02  0.21102323560E+03  0.25657419203E+02  0.24739325186E+03  0.12500000000E+03 0.  0.
         21    1    1    2  503  502  0.46556819370E+02 -0.13534140659E+03 -0.51075576768E+03  0.53043028570E+03  0.00000000000E+00 0.  1.
          1    1    1    2  501    0 -0.26825829925E+02 -0.75681829011E+02 -0.71362821411E+03  0.71813131973E+03  0.00000000000E+00 0. -1.
<mgrwt>
<rscale>  4 0.60802060E+03</rscale>
<asrwt>0</asrwt>
<pdfrwt beam="1">  1       21 0.22863715E-01 0.60802060E+03</pdfrwt>
<pdfrwt beam="2">  1        1 0.20728319E+00 0.60802060E+03</pdfrwt>
<totfact> 0.16319788E+03</totfact>
</mgrwt>
</event>
<event>
 5    0  0.2396052E+000  0.3632815E+03  0.7546771E-02  0.1057292E+00
          2   -1    0    0  503    0 -0.00000000000E+00  0.00000000000E+00  0.27921224015E+04  0.27921224015E+04  0.00000000000E+00 0. -1.
         21   -1    0    0  501  502  0.00000000000E+00 -0.00000000000E+00 -0.28708905630E+02  0.28708905630E+02  0.00000000000E+00 0.  1.
         25    1    1    2    0    0  0.12527728095E+02 -0.22228827554E+03  0.73511281193E+03  0.77819333566E+03  0.12500000000E+03 0.  0.
         21    1    1    2  503  502 -0.15310028152E+02  0.94572085603E+02  0.50621021444E+03  0.51519613502E+03  0.00000000000E+00 0. -1.
          2    1    1    2  501    0  0.27823000570E+01  0.12771618994E+03  0.15220904695E+04  0.15274418365E+04  0.00000000000E+00 0. -1.
<mgrwt>
<rscale>  4 0.36328153E+03</rscale>
<asrwt>0</asrwt>
<pdfrwt beam="1">  1       21 0.44167569E-02 0.36328153E+03</pdfrwt>
<pdfrwt beam="2">  1        2 0.42955708E+00 0.36328153E+03</pdfrwt>
<totfact> 0.11279600E+04</totfact>
</mgrwt>
</event>
<event>
 5    0  0.2396052E+000  0.6628417E+03  0.7546771E-02  0.9782977E-01
         21   -1    0    0  501  502  0.00000000000E+00  0.00000000000E+00  0.14409246907E+04  0.14409246907E+04  0.00000000000E+00 0.  1.
          2   -1    0    0  503    0 -0.00000000000E+00 -0.00000000000E+00 -0.78726666980E+03  0.78726666980E+03  0.00000000000E+00 0. -1.
         25    1    1    2    0    0 -0.22581072880E+03 -0.43850090611E+02  0.11541991217E+04  0.11835176079E+04  0.12500000000E+03 0.  0.
         21    1    1    2  503  502  0.25363223401E+03  0.51182248984E+02  0.21019043906E+03  0.33336009571E+03  0.00000000000E+00 0. -1.
          2    1    1    2  501    0 -0.27821505207E+02 -0.73321583730E+01 -0.71073153987E+03  0.71131365688E+03  0.00000000000E+00 0. -1.
<mgrwt>
<rscale>  4 0.66284168E+03</rscale>
<asrwt>0</asrwt>
<pdfrwt beam="1">  1       21 0.22168072E+00 0.66284168E+03</pdfrwt>
<pdfrwt beam="2">  1        2 0.12111795E+00 0.66284168E+03</pdfrwt>
<totfact> 0.34452532E+01</totfact>
</mgrwt>
</event>
<event>
 5    0  0.2396052E+000  0.1371884E+04  0.7546771E-02  0.8974426E-01
         21   -1    0    0  501  502  0.00000000000E+00  0.00000000000E+00  0.54271690579E+03  0.54271690579E+03  0.00000000000E+00 0.  1.
          1   -1    0    0  503    0 -0.00000000000E+00 -0.00000000000E+00 -0.19841392653E+04  0.19841392653E+04  0.00000000000E+00 0.  1.
         25    1    1    2    0    0 -0.26792159911E+03 -0.79480894377E+02 -0.80721329689E+03  0.86331772976E+03  0.12500000000E+03 0.  0.
         21    1    1    2  503  502  0.24319882765E+03  0.80904122355E+02  0.48260923752E+03  0.54644562669E+03  0.00000000000E+00 0.  1.
          1    1    1    2  501    0  0.24722771460E+02 -0.14232279783E+01 -0.11168183002E+04  0.11170928147E+04  0.00000000000E+00 0.  1.
<mgrwt>
<rscale>  4 0.13718837E+04</rscale>
<asrwt>0</asrwt>
<pdfrwt beam="1">  1       21 0.83494909E-01 0.13718837E+04</pdfrwt>
<pdfrwt beam="2">  1        1 0.30525219E+00 0.13718837E+04</pdfrwt>
<totfact> 0.33910695E+01</totfact>
</mgrwt>
</event>
<event>
 5    0  0.2396052E+000  0.5777095E+03  0.7546771E-02  0.9952762E-01
         21   -1    0    0  501  502  0.00000000000E+00  0.00000000000E+00  0.74043804874E+02  0.74043804874E+02  0.00000000000E+00 0. -1.
          1   -1    0    0  503    0 -0.00000000000E+00 -0.00000000000E+00 -0.20905081285E+04  0.20905081285E+04  0.00000000000E+00 0. -1.
         25    1    1    2    0    0  0.38198061664E+02 -0.25343838851E+03 -0.42283464131E+03  0.51000415937E+03  0.12500000000E+03 0.  0.
         21    1    1    2  503  502 -0.48711786819E+02  0.27916496040E+03 -0.63325124030E+03  0.69376728564E+03  0.00000000000E+00 0. -1.
          1    1    1    2  501    0  0.10513725156E+02 -0.25726571895E+02 -0.96037844205E+03  0.96078048839E+03  0.00000000000E+00 0. -1.
<mgrwt>
<rscale>  4 0.57770953E+03</rscale>
<asrwt>0</asrwt>
<pdfrwt beam="1">  1       21 0.11391356E-01 0.57770953E+03</pdfrwt>
<pdfrwt beam="2">  1        1 0.32161660E+00 0.57770953E+03</pdfrwt>
<totfact> 0.19230522E+03</totfact>
</mgrwt>
</event>
<event>
 5    0  0.2396052E+000  0.5334830E+03  0.7546771E-02  0.1005391E+00
         21   -1    0    0  501  502  0.00000000000E+00  0.00000000000E+00  0.24072954875E+03  0.24072954875E+03  0.00000000000E+00 0.  1.
          1   -1    0    0  503    0 -0.00000000000E+00 -0.00000000000E+00 -0.76141671495E+03  0.76141671495E+03  0.00000000000E+00 0.  1.
         25    1    1    2    0    0 -0.74885785573E+02  0.25317076689E+03 -0.46673255602E+02  0.29581533239E+03  0.12500000000E+03 0.  0.
         21    1    1    2  503  502  0.48694113041E+02 -0.23543737997E+03 -0.93606861926E+01  0.24060236694E+03  0.00000000000E+00 0.  1.
          1    1    1    2  501    0  0.26191672532E+02 -0.17733386924E+02 -0.46465322440E+03  0.46572856437E+03  0.00000000000E+00 0.  1.
<mgrwt>
<rscale>  4 0.53348303E+03</rscale>
<asrwt>0</asrwt>
<pdfrwt beam="1">  1       21 0.37035316E-01 0.53348303E+03</pdfrwt>
<pdfrwt beam="2">  1        1 0.11714103E+00 0.53348303E+03</pdfrwt>
<totfact> 0.17747950E+03</totfact>
</mgrwt>
</event>
<event>
 5    0  0.2396052E+000  0.3978234E+03  0.7546771E-02  0.1044536E+00
          1   -1    0    0  503    0 -0.00000000000E+00  0.00000000000E+00  0.10765658034E+04  0.10765658034E+04  0.00000000000E+00 0. -1.
         21   -1    0    0  501  502  0.00000000000E+00 -0.00000000000E+00 -0.16006034657E+03  0.16006034657E+03  0.00000000000E+00 0.  1.
         25    1    1    2    0    0 -0.21278533738E+03 -0.19913986448E+03  0.12813980699E+03  0.34202206883E+03  0.12500000000E+03 0.  0.
         21    1    1    2  503  502  0.48125716828E+02  0.58086093818E+02 -0.15748597412E+01  0.75449049686E+02  0.00000000000E+00 0.  1.
          1    1    1    2  501    0  0.16465962056E+03  0.14105377066E+03  0.78994050954E+03  0.81915503140E+03  0.00000000000E+00 0. -1.
<mgrwt>
<rscale>  4 0.39782339E+03</rscale>
<asrwt>0</asrwt>
<pdfrwt beam="1">  1       21 0.24624669E-01 0.39782339E+03</pdfrwt>
<pdfrwt beam="2">  1        1 0.16562550E+00 0.39782339E+03</pdfrwt>
<totfact> 0.23006522E+03</totfact>
</mgrwt>
</event>
<event>
 5    0  0.2396052E+000  0.5242668E+03  0.7546771E-02  0.1007632E+00
          1   -1    0    0  503    0 -0.00000000000E+00  0.00000000000E+00  0.18901724975E+03  0.18901724975E+03  0.00000000000E+00 0.  1.
         21   -1    0    0  501  502  0.00000000000E+00 -0.00000000000E+00 -0.80395107563E+03  0.80395107563E+03  0.00000000000E+00 0. -1.
         25    1    1    2    0    0 -0.21010922963E+03  0.21437039467E+02 -0.14091720470E+03  0.28299839861E+03  0.12500000000E+03 0.  0.
         21    1    1    2  503  502  0.18356085935E+03 -0.28818174848E+02 -0.57553119543E+03  0.60478197162E+03  0.00000000000E+00 0. -1.
          1    1    1    2  501    0  0.26548370286E+02  0.73811353811E+01  0.10151457424E+03  0.10518795514E+03  0.00000000000E+00 0.  1.
<mgrwt>
<rscale>  4 0.52426680E+03</rscale>
<asrwt>0</asrwt>
<pdfrwt beam="1">  1       21 0.12368478E+00 0.52426680E+03</pdfrwt>
<pdfrwt beam="2">  1        1 0.29079577E-01 0.52426680E+03</pdfrwt>
<totfact> 0.75088717E+02</totfact>
</mgrwt>
</event>
<event>
 5    0  0.2396052E+000  0.4448716E+03  0.7546771E-02  0.1029263E+00
         21   -1    0    0  501  502  0.00000000000E+00  0.00000000000E+00  0.86962777333E+03  0.86962777333E+03  0.00000000000E+00 0. -1.
          2   -1    0    0  503    0 -0.00000000000E+00 -0.00000000000E+00 -0.31663382498E+03  0.31663382498E+03  0.00000000000E+00 0. -1.
         25    1    1    2    0    0  0.21325294619E+03  0.10927077987E+03  0.34038117216E+03  0.43462773122E+03  0.12500000000E+03 0.  0.
         21    1    1    2  503  502 -0.11386836106E+03  0.10059550202E+03  0.41604286216E+03  0.44291886597E+03  0.00000000000E+00 0. -1.
          2    1    1    2  501    0 -0.99384585121E+02 -0.20986628188E+03 -0.20343008597E+03  0.30871500111E+03  0.00000000000E+00 0. -1.
<mgrwt>
<rscale>  4 0.44487157E+03</rscale>
<asrwt>0</asrwt>
<pdfrwt beam="1">  1       21 0.13378889E+00 0.44487157E+03</pdfrwt>
<pdfrwt beam="2">  1        2 0.48712897E-01 0.44487157E+03</pdfrwt>
<totfact> 0.46293443E+02</totfact>
</mgrwt>
</event>
<event>
 5    0  0.2396052E+000  0.5013187E+03  0.7546771E-02  0.1013435E+00
         -1   -1    0    0    0  501 -0.00000000000E+00  0.00000000000E+00  0.49046406012E+03  0.49046406012E+03  0.00000000000E+00 0.  1.
         21   -1    0    0  501  502  0.00000000000E+00 -0.00000000000E+00 -0.65496974357E+03  0.65496974357E+03  0.00000000000E+00 0. -1.
         25    1    1    2    0    0  0.15042922147E+03 -0.19044673076E+03 -0.41756611225E+03  0.49888412084E+03  0.12500000000E+03 0.  0.
         21    1    1    2  503  502 -0.12983283175E+03  0.16297192473E+03 -0.14061844802E+03  0.25137613326E+03  0.00000000000E+00 0. -1.
         -1    1    1    2    0  503 -0.20596389716E+02  0.27474806030E+02  0.39367887682E+03  0.39517354958E+03  0.00000000000E+00 0.  1.
<mgrwt>
<rscale>  4 0.50131871E+03</rscale>
<asrwt>0</asrwt>
<pdfrwt beam="1">  1       21 0.10076458E+00 0.50131871E+03</pdfrwt>
<pdfrwt beam="2">  1       -1 0.75456009E-01 0.50131871E+03</pdfrwt>
<totfact> 0.12203646E+02</totfact>
</mgrwt>
</event>
<event>
 5    0  0.2396052E+000  0.3755262E+03  0.7546771E-02  0.1052600E+00
          2   -1    0    0  503    0 -0.00000000000E+00  0.00000000000E+00  0.31235669441E+03  0.31235669441E+03  0.00000000000E+00 0. -1.
         21   -1    0    0  501  502  0.00000000000E+00 -0.00000000000E+00 -0.42350886422E+03  0.42350886422E+03  0.00000000000E+00 0.  1.
         25    1    1    2    0    0  0.23215274380E+03  0.91065571623E+02 -0.15682908195E+03  0.32001280558E+03  0.12500000000E+03 0.  0.
         21    1    1    2  503  502 -0.73502286554E+02 -0.11908202839E+02 -0.14034234661E+03  0.15887216772E+03  0.00000000000E+00 0.  1.
          2    1    1    2  501    0 -0.15865045725E+03 -0.79157368784E+02  0.18601925874E+03  0.25698058534E+03  0.00000000000E+00 0. -1.
<mgrwt>
<rscale>  4 0.37552624E+03</rscale>
<asrwt>0</asrwt>
<pdfrwt beam="1">  1       21 0.65155209E-01 0.37552624E+03</pdfrwt>
<pdfrwt beam="2">  1        2 0.48054877E-01 0.37552624E+03</pdfrwt>
<totfact> 0.26735013E+03</totfact>
</mgrwt>
</event>
<event>
 5    0  0.2396052E+000  0.3529228E+03  0.7546771E-02  0.1061422E+00
          2   -1    0    0  503    0 -0.00000000000E+00  0.00000000000E+00  0.27615546109E+03  0.27615546109E+03  0.00000000000E+00 0.  1.
         21   -1    0    0  501  502  0.00000000000E+00 -0.00000000000E+00 -0.40946376215E+03  0.40946376215E+03  0.00000000000E+00 0. -1.
         25    1    1    2    0    0 -0.18076840896E+03 -0.11319198596E+03 -0.19715624220E+03  0.31620440731E+03  0.12500000000E+03 0.  0.
         21    1    1    2  503  502  0.92194510511E+02  0.47079159749E+02 -0.11777586344E+03  0.15680379160E+03  0.00000000000E+00 0.  1.
          2    1    1    2  501    0  0.88573898452E+02  0.66112826209E+02  0.18162380458E+03  0.21261102433E+03  0.00000000000E+00 0.  1.
<mgrwt>
<rscale>  4 0.35292283E+03</rscale>
<asrwt>0</asrwt>
<pdfrwt beam="1">  1       21 0.62994425E-01 0.35292283E+03</pdfrwt>
<pdfrwt beam="2">  1        2 0.42485456E-01 0.35292283E+03</pdfrwt>
<totfact> 0.33098233E+03</totfact>
</mgrwt>
</event>
<event>
 5    0  0.2396052E+000  0.3863597E+03  0.7546771E-02  0.1048608E+00
         21   -1    0    0  501  502  0.00000000000E+00  0.00000000000E+00  0.24949188500E+03  0.24949188500E+03  0.00000000000E+00 0.  1.
          3   -1    0    0  503    0 -0.00000000000E+00 -0.00000000000E+00 -0.26915575652E+03  0.26915575652E+03  0.00000000000E+00 0. -1.
         25    1    1    2    0    0 -0.20718967302E+03  0.85713927799E+02  0.61121120928E+02  0.26388487916E+03  0.12500000000E+03 0.  0.
         21    1    1    2  503  502  0.99272995962E+02 -0.10029705655E+02 -0.71252414971E+02  0.12260762359E+03  0.00000000000E+00 0. -1.
          3    1    1    2  501    0  0.10791667706E+03 -0.75684222143E+02 -0.95325774717E+01  0.13215513877E+03  0.00000000000E+00 0. -1.
<mgrwt>
<rscale>  4 0.38635969E+03</rscale>
<asrwt>0</asrwt>
<pdfrwt beam="1">  1       21 0.38383367E-01 0.38635969E+03</pdfrwt>
<pdfrwt beam="2">  1        3 0.41408578E-01 0.38635969E+03</pdfrwt>
<totfact> 0.18568764E+03</totfact>
</mgrwt>
</event>
<event>
 5    0  0.2396052E+000  0.6998236E+03  0.7546771E-02  0.9717534E-01
         21   -1    0    0  501  502  0.00000000000E+00  0.00000000000E+00  0.87134504017E+02  0.87134504017E+02  0.00000000000E+00 0. -1.
          3   -1    0    0  503    0 -0.00000000000E+00 -0.00000000000E+00 -0.25925912296E+04  0.25925912296E+04  0.00000000000E+00 0. -1.
         25    1    1    2    0    0 -0.21610045236E+03  0.82800325916E+02 -0.14491231257E+03  0.30029964671E+03  0.12500000000E+03 0.  0.
         21    1    1    2  503  502  0.70338304534E+02 -0.12719600603E+03 -0.12692943824E+04  0.12775893433E+04  0.00000000000E+00 0. -1.
          3    1    1    2  501    0  0.14576214782E+03  0.44395680117E+02 -0.10912500307E+04  0.11018367436E+04  0.00000000000E+00 0. -1.
<mgrwt>
<rscale>  4 0.69982361E+03</rscale>
<asrwt>0</asrwt>
<pdfrwt beam="1">  1       21 0.13405308E-01 0.69982361E+03</pdfrwt>
<pdfrwt beam="2">  1        3 0.39886019E+00 0.69982361E+03</pdfrwt>
<totfact> 0.28371271E+01</totfact>
</mgrwt>
</event>
<event>
 5    0  0.2396052E+000  0.3598690E+03  0.7546771E-02  0.1058636E+00
         -4   -1    0    0    0  501 -0.00000000000E+00  0.00000000000E+00  0.15732409566E+04  0.15732409566E+04  0.00000000000E+00 0.  1.
         21   -1    0    0  501  502  0.00000000000E+00 -0.00000000000E+00 -0.17410498319E+03  0.17410498319E+03  0.00000000000E+00 0.  1.
         25    1    1    2    0    0  0.87128328414E+02 -0.23057886189E+03  0.41606716303E+02  0.27948895507E+03  0.12500000000E+03 0.  0.
         21    1    1    2  503  502 -0.49085414132E+02  0.61925135781E+02 -0.18379025147E+02  0.81128841280E+02  0.00000000000E+00 0. -1.
         -4    1    1    2    0  503 -0.38042914281E+02  0.16865372611E+03  0.13759082822E+04  0.13867281434E+04  0.00000000000E+00 0.  1.
<mgrwt>
<rscale>  4 0.35986896E+03</rscale>
<asrwt>0</asrwt>
<pdfrwt beam="1">  1       21 0.26785383E-01 0.35986896E+03</pdfrwt>
<pdfrwt beam="2">  1       -4 0.24203706E+00 0.35986896E+03</pdfrwt>
<totfact> 0.42722171E+01</totfact>
</mgrwt>
</event>
<event>
 5    0  0.2396052E+000  0.6836107E+03  0.7546771E-02  0.9745678E-01
          2   -1    0    0  503    0 -0.00000000000E+00  0.00000000000E+00  0.58091959082E+03  0.58091959082E+03  0.00000000000E+00 0. -1.
         21   -1    0    0  501  502  0.00000000000E+00 -0.00000000000E+00 -0.28238274978E+03  0.28238274978E+03  0.00000000000E+00 0.  1.
         25    1    1    2    0    0  0.22785263393E+03 -0.44079169092E+02  0.31408315344E+03  0.41004027023E+03  0.12500000000E+03 0.  0.
         21    1    1    2  503  502 -0.22931273887E+03 -0.39752640730E+01 -0.17386759003E+03  0.28780214349E+03  0.00000000000E+00 0.  1.
          2    1    1    2  501    0  0.14601049424E+01  0.48054433165E+02  0.15832127762E+03  0.16545992688E+03  0.00000000000E+00 0. -1.
<mgrwt>
<rscale>  4 0.68361073E+03</rscale>
<asrwt>0</asrwt>
<pdfrwt beam="1">  1       21 0.43443500E-01 0.68361073E+03</pdfrwt>
<pdfrwt beam="2">  1        2 0.89372244E-01 0.68361073E+03</pdfrwt>
<totfact> 0.30335383E+03</totfact>
</mgrwt>
</event>
<event>
 5    0  0.2396052E+000  0.5449287E+03  0.7546771E-02  0.1002675E+00
          2   -1    0    0  503    0 -0.00000000000E+00  0.00000000000E+00  0.22638878005E+03  0.22638878005E+03  0.00000000000E+00 0. -1.
         21   -1    0    0  501  502  0.00000000000E+00 -0.00000000000E+00 -0.91511143763E+03  0.91511143763E+03  0.00000000000E+00 0. -1.
         25    1    1    2    0    0 -0.22571666006E+03 -0.30678619250E+03 -0.55537936498E+03  0.68493577625E+03  0.12500000000E+03 0.  0.
         21    1    1    2  503  502  0.12926282163E+03  0.41238010430E+02 -0.10703812098E+03  0.17281958773E+03  0.00000000000E+00 0.  1.
          2    1    1    2  501    0  0.96453838437E+02  0.26554818207E+03 -0.26305171626E+02  0.28374485370E+03  0.00000000000E+00 0. -1.
<mgrwt>
<rscale>  4 0.54492875E+03</rscale>
<asrwt>0</asrwt>
<pdfrwt beam="1">  1       21 0.14078638E+00 0.54492875E+03</pdfrwt>
<pdfrwt beam="2">  1        2 0.34829043E-01 0.54492875E+03</pdfrwt>
<totfact> 0.57155523E+02</totfact>
</mgrwt>
</event>
<event>
 5    0  0.2396052E+000  0.6953995E+03  0.7546771E-02  0.9725132E-01
          2   -1    0    0  503    0 -0.00000000000E+00  0.00000000000E+00  0.14444981323E+04  0.14444981323E+04  0.00000000000E+00 0.  1.
         21   -1    0    0  501  502  0.00000000000E+00 -0.00000000000E+00 -0.94371259427E+02  0.94371259427E+02  0.00000000000E+00 0.  1.
         25    1    1    2    0    0 -0.30258325482E+02 -0.33228468047E+03  0.76743158009E+03  0.84611163877E+03  0.12500000000E+03 0.  0.
         21    1    1    2  503  502  0.62796568691E+02  0.32063797933E+03  0.45298682098E+03  0.55852411122E+03  0.00000000000E+00 0.  1.
          2    1    1    2  501    0 -0.32538243209E+02  0.11646701135E+02  0.12970847185E+03  0.13423364179E+03  0.00000000000E+00 0.  1.
<mgrwt>
<rscale>  4 0.69539954E+03</rscale>
<asrwt>0</asrwt>
<pdfrwt beam="1">  1       21 0.14518656E-01 0.69539954E+03</pdfrwt>
<pdfrwt beam="2">  1        2 0.22223047E+00 0.69539954E+03</pdfrwt>
<totfact> 0.70539040E+03</totfact>
</mgrwt>
</event>
<event>
 5    0  0.2396052E+000  0.7051675E+03  0.7546771E-02  0.9708436E-01
          2   -1    0    0  503    0 -0.00000000000E+00  0.00000000000E+00  0.17724536744E+04  0.17724536744E+04  0.00000000000E+00 0. -1.
         21   -1    0    0  501  502  0.00000000000E+00 -0.00000000000E+00 -0.46985777857E+03  0.46985777857E+03  0.00000000000E+00 0.  1.
         25    1    1    2    0    0 -0.20962824131E+03 -0.14360858366E+03  0.11397586418E+03  0.30525877951E+03  0.12500000000E+03 0.  0.
         21    1    1    2  503  502  0.24250383132E+03  0.15357935688E+03 -0.31894697887E+03  0.42909428147E+03  0.00000000000E+00 0.  1.
          2    1    1    2  501    0 -0.32875590011E+02 -0.99707732156E+01  0.15075670105E+04  0.15079583919E+04  0.00000000000E+00 0. -1.
<mgrwt>
<rscale>  4 0.70516754E+03</rscale>
<asrwt>0</asrwt>
<pdfrwt beam="1">  1       21 0.72285813E-01 0.70516754E+03</pdfrwt>
<pdfrwt beam="2">  1        2 0.27268518E+00 0.70516754E+03</pdfrwt>
<totfact> 0.17565551E+02</totfact>
</mgrwt>
</event>
<event>
 5    0  0.2396052E+000  0.6321828E+03  0.7546771E-02  0.9840798E-01
         -2   -1    0    0    0  501 -0.00000000000E+00  0.00000000000E+00  0.16642887328E+04  0.16642887328E+04  0.00000000000E+00 0.  1.
         21   -1    0    0  501  502  0.00000000000E+00 -0.00000000000E+00 -0.19154065215E+03  0.19154065215E+03  0.00000000000E+00 0.  1.
         25    1    1    2    0    0 -0.29631937818E+03  0.64222687181E+02  0.39408725511E+02  0.33031466071E+03  0.12500000000E+03 0.  0.
         21    1    1    2  503  502  0.23836643668E+03 -0.68088126887E+02  0.29344364809E+03  0.38414024231E+03  0.00000000000E+00 0.  1.
         -2    1    1    2    0  503  0.57952941496E+02  0.38654397067E+01  0.11398957071E+04  0.11413744820E+04  0.00000000000E+00 0.  1.
<mgrwt>
<rscale>  4 0.63218281E+03</rscale>
<asrwt>0</asrwt>
<pdfrwt beam="1">  1       21 0.29467794E-01 0.63218281E+03</pdfrwt>
<pdfrwt beam="2">  1       -2 0.25604441E+00 0.63218281E+03</pdfrwt>
<totfact> 0.52479797E+01</totfact>
</mgrwt>
</event>
<event>
 5    0  0.2396052E+000  0.4210239E+03  0.7546771E-02  0.1036734E+00
          4   -1    0    0  503    0 -0.00000000000E+00  0.00000000000E+00  0.26565241245E+03  0.26565241245E+03  0.00000000000E+00 0. -1.
         21   -1    0    0  501  502  0.00000000000E+00 -0.00000000000E+00 -0.68090996399E+03  0.68090996399E+03  0.00000000000E+00 0. -1.
         25    1    1    2    0    0 -0.88116526484E+02  0.25506248872E+03 -0.34102124586E+03  0.45248412737E+03  0.12500000000E+03 0.  0.
         21    1    1    2  503  502 -0.85760271675E+02  0.71803728917E+02 -0.51520451835E+02  0.12314607847E+03  0.00000000000E+00 0.  1.
          4    1    1    2  501    0  0.17387679816E+03 -0.32686621764E+03 -0.22715853833E+02  0.37093217060E+03  0.00000000000E+00 0. -1.
<mgrwt>
<rscale>  4 0.42102393E+03</rscale>
<asrwt>0</asrwt>
<pdfrwt beam="1">  1       21 0.10475538E+00 0.42102393E+03</pdfrwt>
<pdfrwt beam="2">  1        4 0.40869602E-01 0.42102393E+03</pdfrwt>
<totfact> 0.17273600E+02</totfact>
</mgrwt>
</event>
<event>
 5    0  0.2396052E+000  0.7148658E+03  0.7546771E-02  0.9692142E-01
          1   -1    0    0  503    0 -0.00000000000E+00  0.00000000000E+00  0.16535658063E+04  0.16535658063E+04  0.00000000000E+00 0. -1.
         21   -1    0    0  501  502  0.00000000000E+00 -0.00000000000E+00 -0.98651100000E+02  0.98651100000E+02  0.00000000000E+00 0. -1.
         25    1    1    2    0    0 -0.23694580822E+02  0.25242333779E+03  0.17792359422E+03  0.33400715562E+03  0.12500000000E+03 0.  0.
         21    1    1    2  503  502  0.76268444563E+02 -0.26918585509E+03  0.10520794094E+04  0.10886454813E+04  0.00000000000E+00 0. -1.
          1    1    1    2  501    0 -0.52573863741E+02  0.16762517294E+02  0.32491170269E+03  0.32956426942E+03  0.00000000000E+00 0. -1.
<mgrwt>
<rscale>  4 0.71486582E+03</rscale>
<asrwt>0</asrwt>
<pdfrwt beam="1">  1       21 0.15177094E-01 0.71486582E+03</pdfrwt>
<pdfrwt beam="2">  1        1 0.25439472E+00 0.71486582E+03</pdfrwt>
<totfact> 0.21644920E+03</totfact>
</mgrwt>
</event>
<event>
 5    0  0.2396052E+000  0.4415309E+03  0.7546771E-02  0.1030278E+00
         21   -1    0    0  501  502  0.00000000000E+00  0.00000000000E+00  0.20082285121E+04  0.20082285121E+04  0.00000000000E+00 0. -1.
          2   -1    0    0  503    0 -0.00000000000E+00 -0.00000000000E+00 -0.80528734409E+03  0.80528734409E+03  0.00000000000E+00 0. -1.
         25    1    1    2    0    0 -0.19265887322E+02  0.29643907591E+03  0.19338756383E+04  0.19605477002E+04  0.12500000000E+03 0.  0.
         21    1    1    2  503  502  0.27781554809E+02 -0.30822399014E+02  0.27193011279E+02  0.49611439518E+02  0.00000000000E+00 0.  1.
          2    1    1    2  501    0 -0.85156674876E+01 -0.26561667689E+03 -0.75812748158E+03  0.80335671651E+03  0.00000000000E+00 0. -1.
<mgrwt>
<rscale>  4 0.44153088E+03</rscale>
<asrwt>0</asrwt>
<pdfrwt beam="1">  1       21 0.30895823E+00 0.44153088E+03</pdfrwt>
<pdfrwt beam="2">  1        2 0.12389036E+00 0.44153088E+03</pdfrwt>
<totfact> 0.10671297E+01</totfact>
</mgrwt>
</event>
<event>
 5    0  0.2396052E+000  0.4045980E+03  0.7546771E-02  0.1042199E+00
         21   -1    0    0  501  502  0.00000000000E+00  0.00000000000E+00  0.94976266432E+03  0.94976266432E+03  0.00000000000E+00 0.  1.
          2   -1    0    0  503    0 -0.00000000000E+00 -0.00000000000E+00 -0.24709356867E+03  0.24709356867E+03  0.00000000000E+00 0. -1.
         25    1    1    2    0    0 -0.12822811705E+03 -0.16294310856E+03  0.39372053459E+03  0.46220532882E+03  0.12500000000E+03 0.  0.
         21    1    1    2  503  502  0.11521585527E+03  0.75820821447E+02  0.50298627508E+03  0.52155410380E+03  0.00000000000E+00 0.  1.
          2    1    1    2  501    0  0.13012261777E+02  0.87122287117E+02 -0.19403771402E+03  0.21309680038E+03  0.00000000000E+00 0. -1.
<mgrwt>
<rscale>  4 0.40459797E+03</rscale>
<asrwt>0</asrwt>
<pdfrwt beam="1">  1       21 0.14611733E+00 0.40459797E+03</pdfrwt>
<pdfrwt beam="2">  1        2 0.38014396E-01 0.40459797E+03</pdfrwt>
<totfact> 0.48667428E+02</totfact>
</mgrwt>
</event>
