<event>
 5    0  0.1911311E+001  0.2311958E+03  0.7546771E-02  0.1125801E+00
         21   -1    0    0  502  501  0.00000000000E+00  0.00000000000E+00  0.15015771978E+03  0.15015771978E+03  0.00000000000E+00 0.  1.
         21   -1    0    0  504  502 -0.00000000000E+00 -0.00000000000E+00 -0.91692268484E+03  0.91692268484E+03  0.00000000000E+00 0.  1.
         25    1    1    2    0    0 -0.18029938875E+03  0.10290985977E+03 -0.74136331090E+03  0.77996337579E+03  0.12500000000E+03 0.  0.
         21    1    1    2  503  501  0.17845979156E+03 -0.74465261602E+02  0.55632232610E+02  0.20121609701E+03  0.00000000000E+00 0.  1.
         21    1    1    2  504  503  0.18395971887E+01 -0.28444598165E+02 -0.81033886769E+02  0.85900931820E+02  0.00000000000E+00 0.  1.
<mgrwt>
<rscale>  4 0.23119580E+03</rscale>
<asrwt>0</asrwt>
<pdfrwt beam="1">  1       21 0.23101188E-01 0.23119580E+03</pdfrwt>
<pdfrwt beam="2">  1       21 0.14106503E+00 0.23119580E+03</pdfrwt>
<totfact> 0.59975478E+03</totfact>
</mgrwt>
</event>
<event>
 5    0  0.2007556E+001  0.2515462E+03  0.7546771E-02  0.1112332E+00
         21   -1    0    0  502  501  0.00000000000E+00  0.00000000000E+00  0.42555552888E+03  0.42555552888E+03  0.00000000000E+00 0.  1.
         21   -1    0    0  504  502 -0.00000000000E+00 -0.00000000000E+00 -0.27034016285E+03  0.27034016285E+03  0.00000000000E+00 0.  1.
         25    1    1    2    0    0  0.24715049932E+02 -0.22114222077E+03  0.28728821549E+03  0.38428405413E+03  0.12500000000E+03 0.  0.
         21    1    1    2  503  501 -0.22215299739E+02  0.33968060011E+01  0.31898759891E+02  0.39020362839E+02  0.00000000000E+00 0.  1.
         21    1    1    2  504  503 -0.24997501934E+01  0.21774541476E+03 -0.16397160935E+03  0.27259127476E+03  0.00000000000E+00 0.  1.
<mgrwt>
<rscale>  4 0.25154625E+03</rscale>
<asrwt>0</asrwt>
<pdfrwt beam="1">  1       21 0.65470081E-01 0.25154625E+03</pdfrwt>
<pdfrwt beam="2">  1       21 0.41590794E-01 0.25154625E+03</pdfrwt>
<totfact> 0.11523428E+04</totfact>
</mgrwt>
</event>
<event>
 5    0  0.1911311E+001  0.2500081E+03  0.7546771E-02  0.1113300E+00
         21   -1    0    0  504  501  0.00000000000E+00  0.00000000000E+00  0.86288565577E+03  0.86288565577E+03  0.00000000000E+00 0.  1.
         21   -1    0    0  503  502 -0.00000000000E+00 -0.00000000000E+00 -0.41892474594E+03  0.41892474594E+03  0.00000000000E+00 0.  1.
         25    1    1    2    0    0  0.37046759056E+03  0.34843433784E+02  0.17014134383E+03  0.42782400285E+03  0.12500000000E+03 0.  0.
         21    1    1    2  503  501 -0.17650302878E+03 -0.14255338246E+02 -0.24352101311E+03  0.30109635943E+03  0.00000000000E+00 0.  1.
         21    1    1    2  504  502 -0.19396456178E+03 -0.20588095538E+02  0.51734057911E+03  0.55289003943E+03  0.00000000000E+00 0.  1.
<mgrwt>
<rscale>  4 0.25000812E+03</rscale>
<asrwt>0</asrwt>
<pdfrwt beam="1">  1       21 0.13275164E+00 0.25000812E+03</pdfrwt>
<pdfrwt beam="2">  1       21 0.64449961E-01 0.25000812E+03</pdfrwt>
<totfact> 0.86270588E+02</totfact>
</mgrwt>
</event>
<event>
 5    0  0.1911311E+001  0.3054760E+03  0.7546771E-02  0.1082535E+00
         21   -1    0    0  502  501  0.00000000000E+00  0.00000000000E+00  0.24747610634E+03  0.24747610634E+03  0.00000000000E+00 0. -1.
         21   -1    0    0  504  502 -0.00000000000E+00 -0.00000000000E+00 -0.12377840437E+04  0.12377840437E+04  0.00000000000E+00 0. -1.
         25    1    1    2    0    0  0.29585664741E+03  0.70505271544E+02 -0.94056317145E+03  0.99638658593E+03  0.12500000000E+03 0.  0.
         21    1    1    2  503  501 -0.26072816005E+03 -0.92234869102E+02  0.12917912028E+03  0.30524365618E+03  0.00000000000E+00 0. -1.
         21    1    1    2  504  503 -0.35128487361E+02  0.21729597558E+02 -0.17892388622E+03  0.18362990795E+03  0.00000000000E+00 0. -1.
<mgrwt>
<rscale>  4 0.30547605E+03</rscale>
<asrwt>0</asrwt>
<pdfrwt beam="1">  1       21 0.38073247E-01 0.30547605E+03</pdfrwt>
<pdfrwt beam="2">  1       21 0.19042832E+00 0.30547605E+03</pdfrwt>
<totfact> 0.93306210E+02</totfact>
</mgrwt>
</event>
<event>
 5    0  0.1911311E+001  0.3451921E+03  0.7546771E-02  0.1064606E+00
         21   -1    0    0  504  501  0.00000000000E+00  0.00000000000E+00  0.41758890469E+03  0.41758890469E+03  0.00000000000E+00 0.  1.
         21   -1    0    0  501  502 -0.00000000000E+00 -0.00000000000E+00 -0.36602250052E+03  0.36602250052E+03  0.00000000000E+00 0.  1.
         25    1    1    2    0    0 -0.24400651320E+03 -0.21765785984E+03 -0.98432154785E+02  0.36363169764E+03  0.12500000000E+03 0.  0.
         21    1    1    2  503  502  0.58954097686E+02 -0.41018872607E+02  0.46288469530E+02  0.85444461233E+02  0.00000000000E+00 0.  1.
         21    1    1    2  504  503  0.18505241551E+03  0.25867673244E+03  0.10371008943E+03  0.33453524634E+03  0.00000000000E+00 0.  1.
<mgrwt>
<rscale>  4 0.34519209E+03</rscale>
<asrwt>0</asrwt>
<pdfrwt beam="1">  1       21 0.64244447E-01 0.34519209E+03</pdfrwt>
<pdfrwt beam="2">  1       21 0.56311154E-01 0.34519209E+03</pdfrwt>
<totfact> 0.60863335E+03</totfact>
</mgrwt>
</event>
<event>
 5    0  0.1911311E+001  0.2419231E+03  0.7546771E-02  0.1118518E+00
         21   -1    0    0  504  501  0.00000000000E+00  0.00000000000E+00  0.29395126306E+03  0.29395126306E+03  0.00000000000E+00 0.  1.
         21   -1    0    0  503  502 -0.00000000000E+00 -0.00000000000E+00 -0.27614221203E+03  0.27614221203E+03  0.00000000000E+00 0.  1.
         25    1    1    2    0    0 -0.17441592479E+03 -0.14663538889E+03  0.32134978090E+02  0.26187880577E+03  0.12500000000E+03 0.  0.
         21    1    1    2  503  501  0.53540480993E+02 -0.81145865507E+01 -0.83927553296E+02  0.99881248601E+02  0.00000000000E+00 0.  1.
         21    1    1    2  504  502  0.12087544380E+03  0.15474997544E+03  0.69601626238E+02  0.20833342072E+03  0.00000000000E+00 0.  1.
<mgrwt>
<rscale>  4 0.24192308E+03</rscale>
<asrwt>0</asrwt>
<pdfrwt beam="1">  1       21 0.45223271E-01 0.24192308E+03</pdfrwt>
<pdfrwt beam="2">  1       21 0.42483417E-01 0.24192308E+03</pdfrwt>
<totfact> 0.24357091E+04</totfact>
</mgrwt>
</event>
<event>
 5    0  0.1911311E+001  0.2521548E+03  0.7546771E-02  0.1111951E+00
         21   -1    0    0  502  501  0.00000000000E+00  0.00000000000E+00  0.29993104881E+03  0.29993104881E+03  0.00000000000E+00 0.  1.
         21   -1    0    0  504  502 -0.00000000000E+00 -0.00000000000E+00 -0.45625219368E+03  0.45625219368E+03  0.00000000000E+00 0.  1.
         25    1    1    2    0    0 -0.19317352054E+03 -0.13483261429E+03 -0.31975471149E+03  0.41636992980E+03  0.12500000000E+03 0.  0.
         21    1    1    2  503  501  0.43230781359E+02  0.27783529871E+02  0.14597165518E+03  0.15475318771E+03  0.00000000000E+00 0.  1.
         21    1    1    2  504  503  0.14994273919E+03  0.10704908442E+03  0.17461911433E+02  0.18506012499E+03  0.00000000000E+00 0.  1.
<mgrwt>
<rscale>  4 0.25215481E+03</rscale>
<asrwt>0</asrwt>
<pdfrwt beam="1">  1       21 0.46143239E-01 0.25215481E+03</pdfrwt>
<pdfrwt beam="2">  1       21 0.70192645E-01 0.25215481E+03</pdfrwt>
<totfact> 0.79753840E+03</totfact>
</mgrwt>
</event>
<event>
 5    0  0.1911311E+001  0.2925938E+03  0.7546771E-02  0.1089003E+00
         21   -1    0    0  503  501  0.00000000000E+00  0.00000000000E+00  0.25193609037E+03  0.25193609037E+03  0.00000000000E+00 0. -1.
         21   -1    0    0  504  502 -0.00000000000E+00 -0.00000000000E+00 -0.52195816732E+03  0.52195816732E+03  0.00000000000E+00 0. -1.
         25    1    1    2    0    0  0.58679247617E+02  0.21637648921E+03 -0.32891285646E+03  0.41721781641E+03  0.12500000000E+03 0.  0.
         21    1    1    2  503  502 -0.26536844365E+02  0.57951353528E+02 -0.24303716201E+02  0.68214617977E+02  0.00000000000E+00 0.  1.
         21    1    1    2  504  501 -0.32142403252E+02 -0.27432784273E+03  0.83194495709E+02  0.28846182330E+03  0.00000000000E+00 0. -1.
<mgrwt>
<rscale>  4 0.29259377E+03</rscale>
<asrwt>0</asrwt>
<pdfrwt beam="1">  1       21 0.38759399E-01 0.29259377E+03</pdfrwt>
<pdfrwt beam="2">  1       21 0.80301256E-01 0.29259377E+03</pdfrwt>
<totfact> 0.82483213E+03</totfact>
</mgrwt>
</event>
