<event>
 5    0  0.2104099E+000  0.2438599E+03  0.7546771E-02  0.1117248E+00
         21   -1    0    0  502  501  0.00000000000E+00  0.00000000000E+00  0.88966733386E+03  0.88966733386E+03  0.00000000000E+00 0.  1.
         21   -1    0    0  503  502 -0.00000000000E+00 -0.00000000000E+00 -0.10637432237E+03  0.10637432237E+03  0.00000000000E+00 0.  1.
         25    1    1    2    0    0 -0.15687872615E+03  0.15463281934E+03  0.66655780821E+03  0.71305438448E+03  0.12500000000E+03 0.  0.
         21    1    1    2  503  504  0.47341579178E+02 -0.99065064743E+00 -0.18501434686E+02  0.50838072281E+02  0.00000000000E+00 0.  1.
         21    1    1    2  504  501  0.10953714697E+03 -0.15364216869E+03  0.13523663796E+03  0.23214919947E+03  0.00000000000E+00 0.  1.
<mgrwt>
<rscale>  4 0.24385995E+03</rscale>
<asrwt>0</asrwt>
<pdfrwt beam="1">  1       21 0.13687189E+00 0.24385995E+03</pdfrwt>
<pdfrwt beam="2">  1       21 0.16365281E-01 0.24385995E+03</pdfrwt>
<totfact> 0.12269980E+04</totfact>
</mgrwt>
</event>
<event>
 5    0  0.1856407E+000  0.2346077E+03  0.7546771E-02  0.1123438E+00
         21   -1    0    0  502  501  0.00000000000E+00  0.00000000000E+00  0.17902600378E+03  0.17902600378E+03  0.00000000000E+00 0. -1.
         21   -1    0    0  503  502 -0.00000000000E+00 -0.00000000000E+00 -0.10684251238E+04  0.10684251238E+04  0.00000000000E+00 0. -1.
         25    1    1    2    0    0 -0.11192750152E+03 -0.18500651865E+03  0.54947500583E+02  0.25573307443E+03  0.12500000000E+03 0.  0.
         21    1    1    2  503  504  0.28833197426E+02  0.57125197998E+02 -0.70510039852E+03  0.70799803214E+03  0.00000000000E+00 0. -1.
         21    1    1    2  504  501  0.83094304092E+02  0.12788132065E+03 -0.23924622211E+03  0.28372002104E+03  0.00000000000E+00 0. -1.
<mgrwt>
<rscale>  4 0.23460773E+03</rscale>
<asrwt>0</asrwt>
<pdfrwt beam="1">  1       21 0.27542462E-01 0.23460773E+03</pdfrwt>
<pdfrwt beam="2">  1       21 0.16437310E+00 0.23460773E+03</pdfrwt>
<totfact> 0.28374485E+03</totfact>
</mgrwt>
</event>
<event>
 5    0  0.1856407E+000  0.4364348E+03  0.7546771E-02  0.1031846E+00
         21   -1    0    0  502  501  0.00000000000E+00  0.00000000000E+00  0.19150258072E+04  0.19150258072E+04  0.00000000000E+00 0. -1.
         21   -1    0    0  503  502 -0.00000000000E+00 -0.00000000000E+00 -0.13228086854E+03  0.13228086854E+03  0.00000000000E+00 0.  1.
         25    1    1    2    0    0  0.18030333162E+03 -0.36738713204E+03  0.13056209223E+04  0.13739554538E+04  0.12500000000E+03 0.  0.
         21    1    1    2  503  504  0.13814756484E+02 -0.29006027276E+02  0.19607395849E+02  0.37638372534E+02  0.00000000000E+00 0.  1.
         21    1    1    2  504  501 -0.19411808810E+03  0.39639315932E+03  0.45751662048E+03  0.63571284941E+03  0.00000000000E+00 0. -1.
<mgrwt>
<rscale>  4 0.43643482E+03</rscale>
<asrwt>0</asrwt>
<pdfrwt beam="1">  1       21 0.29461933E+00 0.43643482E+03</pdfrwt>
<pdfrwt beam="2">  1       21 0.20350904E-01 0.43643482E+03</pdfrwt>
<totfact> 0.66253560E+02</totfact>
</mgrwt>
</event>
<event>
 5    0  0.1856407E+000  0.2475581E+03  0.7546771E-02  0.1114858E+00
         21   -1    0    0  502  501  0.00000000000E+00  0.00000000000E+00  0.38347142961E+02  0.38347142961E+02  0.00000000000E+00 0. -1.
         21   -1    0    0  503  502 -0.00000000000E+00 -0.00000000000E+00 -0.14264166326E+04  0.14264166326E+04  0.00000000000E+00 0. -1.
         25    1    1    2    0    0  0.21032376097E+03  0.37734963122E+02 -0.66764052556E+03  0.71205960652E+03  0.12500000000E+03 0.  0.
         21    1    1    2  503  504 -0.63775040836E+02  0.77165056309E+01 -0.23323293201E+03  0.24191816977E+03  0.00000000000E+00 0. -1.
         21    1    1    2  504  501 -0.14654872013E+03 -0.45451468753E+02 -0.48719603209E+03  0.51078599928E+03  0.00000000000E+00 0. -1.
<mgrwt>
<rscale>  4 0.24755810E+03</rscale>
<asrwt>0</asrwt>
<pdfrwt beam="1">  1       21 0.58995610E-02 0.24755810E+03</pdfrwt>
<pdfrwt beam="2">  1       21 0.21944869E+00 0.24755810E+03</pdfrwt>
<totfact> 0.19771968E+04</totfact>
</mgrwt>
</event>
<event>
 5    0  0.1856407E+000  0.2421969E+03  0.7546771E-02  0.1118338E+00
         21   -1    0    0  502  501  0.00000000000E+00  0.00000000000E+00  0.64448508659E+03  0.64448508659E+03  0.00000000000E+00 0.  1.
         21   -1    0    0  503  502 -0.00000000000E+00 -0.00000000000E+00 -0.91114336976E+02  0.91114336976E+02  0.00000000000E+00 0. -1.
         25    1    1    2    0    0  0.15478606439E+03 -0.13811442355E+03  0.42205007996E+03  0.48660619572E+03  0.12500000000E+03 0.  0.
         21    1    1    2  503  504 -0.14135345124E+03  0.11456221542E+03  0.10018704542E+03  0.20770831338E+03  0.00000000000E+00 0. -1.
         21    1    1    2  504  501 -0.13432613147E+02  0.23552208133E+02  0.31133624238E+02  0.41284914462E+02  0.00000000000E+00 0. -1.
<mgrwt>
<rscale>  4 0.24219686E+03</rscale>
<asrwt>0</asrwt>
<pdfrwt beam="1">  1       21 0.99151549E-01 0.24219686E+03</pdfrwt>
<pdfrwt beam="2">  1       21 0.14017591E-01 0.24219686E+03</pdfrwt>
<totfact> 0.36236522E+04</totfact>
</mgrwt>
</event>
<event>
 5    0  0.1856407E+000  0.2429964E+03  0.7546771E-02  0.1117813E+00
         21   -1    0    0  502  501  0.00000000000E+00  0.00000000000E+00  0.12182239778E+04  0.12182239778E+04  0.00000000000E+00 0.  1.
         21   -1    0    0  503  502 -0.00000000000E+00 -0.00000000000E+00 -0.72590367123E+02  0.72590367123E+02  0.00000000000E+00 0.  1.
         25    1    1    2    0    0 -0.69664722449E+02 -0.24422971933E+03  0.71670475596E+03  0.77057902682E+03  0.12500000000E+03 0.  0.
         21    1    1    2  503  504 -0.14897914615E+02  0.17603627909E+03  0.32489991912E+03  0.36982519770E+03  0.00000000000E+00 0.  1.
         21    1    1    2  504  501  0.84562637064E+02  0.68193440239E+02  0.10402893563E+03  0.15041012043E+03  0.00000000000E+00 0.  1.
<mgrwt>
<rscale>  4 0.24299639E+03</rscale>
<asrwt>0</asrwt>
<pdfrwt beam="1">  1       21 0.18741906E+00 0.24299639E+03</pdfrwt>
<pdfrwt beam="2">  1       21 0.11167750E-01 0.24299639E+03</pdfrwt>
<totfact> 0.10424562E+04</totfact>
</mgrwt>
</event>
<event>
 5    0  0.1856407E+000  0.2340759E+03  0.7546771E-02  0.1123803E+00
         21   -1    0    0  502  501  0.00000000000E+00  0.00000000000E+00  0.17153145989E+03  0.17153145989E+03  0.00000000000E+00 0. -1.
         21   -1    0    0  503  502 -0.00000000000E+00 -0.00000000000E+00 -0.23282657614E+04  0.23282657614E+04  0.00000000000E+00 0. -1.
         25    1    1    2    0    0  0.10874053147E+03 -0.17766325102E+03  0.39398194074E+02  0.24610150679E+03  0.12500000000E+03 0.  0.
         21    1    1    2  503  504 -0.21486493147E+03 -0.28701573826E+02 -0.15891655700E+04  0.16038821428E+04  0.00000000000E+00 0. -1.
         21    1    1    2  504  501  0.10612440000E+03  0.20636482485E+03 -0.60696692555E+03  0.64981357167E+03  0.00000000000E+00 0. -1.
<mgrwt>
<rscale>  4 0.23407593E+03</rscale>
<asrwt>0</asrwt>
<pdfrwt beam="1">  1       21 0.26389456E-01 0.23407593E+03</pdfrwt>
<pdfrwt beam="2">  1       21 0.35819473E+00 0.23407593E+03</pdfrwt>
<totfact> 0.20045383E+02</totfact>
</mgrwt>
</event>
<event>
 5    0  0.1856407E+000  0.2983938E+03  0.7546771E-02  0.1086046E+00
         21   -1    0    0  502  501  0.00000000000E+00  0.00000000000E+00  0.66380674853E+03  0.66380674853E+03  0.00000000000E+00 0. -1.
         21   -1    0    0  503  502 -0.00000000000E+00 -0.00000000000E+00 -0.68192978019E+03  0.68192978019E+03  0.00000000000E+00 0. -1.
         25    1    1    2    0    0 -0.25481632012E+02 -0.48846285441E+03  0.35277548334E+03  0.61589026243E+03  0.12500000000E+03 0.  0.
         21    1    1    2  503  504  0.22035345244E+01  0.23464691017E+03  0.47983725748E+02  0.23951297659E+03  0.00000000000E+00 0. -1.
         21    1    1    2  504  501  0.23278097487E+02  0.25381594424E+03 -0.41888224075E+03  0.49033328970E+03  0.00000000000E+00 0. -1.
<mgrwt>
<rscale>  4 0.29839383E+03</rscale>
<asrwt>0</asrwt>
<pdfrwt beam="1">  1       21 0.10212411E+00 0.29839383E+03</pdfrwt>
<pdfrwt beam="2">  1       21 0.10491227E+00 0.29839383E+03</pdfrwt>
<totfact> 0.52045708E+02</totfact>
</mgrwt>
</event>
<event>
 5    0  0.1856407E+000  0.2719890E+03  0.7546771E-02  0.1100147E+00
         21   -1    0    0  502  501  0.00000000000E+00  0.00000000000E+00  0.61453391541E+03  0.61453391541E+03  0.00000000000E+00 0.  1.
         21   -1    0    0  503  502 -0.00000000000E+00 -0.00000000000E+00 -0.27938585459E+03  0.27938585459E+03  0.00000000000E+00 0.  1.
         25    1    1    2    0    0  0.23333263425E+03 -0.62521097126E+02  0.51774275854E+03  0.58483807144E+03  0.12500000000E+03 0.  0.
         21    1    1    2  503  504 -0.23238012966E+02 -0.83518065988E+00 -0.43346765229E+02  0.49189885436E+02  0.00000000000E+00 0.  1.
         21    1    1    2  504  501 -0.21009462128E+03  0.63356277786E+02 -0.13924793248E+03  0.25989181312E+03  0.00000000000E+00 0.  1.
<mgrwt>
<rscale>  4 0.27198898E+03</rscale>
<asrwt>0</asrwt>
<pdfrwt beam="1">  1       21 0.94543679E-01 0.27198898E+03</pdfrwt>
<pdfrwt beam="2">  1       21 0.42982439E-01 0.27198898E+03</pdfrwt>
<totfact> 0.46180100E+03</totfact>
</mgrwt>
</event>
<event>
 5    0  0.1856407E+000  0.2746609E+03  0.7546771E-02  0.1098641E+00
         21   -1    0    0  502  501  0.00000000000E+00  0.00000000000E+00  0.89815412487E+03  0.89815412487E+03  0.00000000000E+00 0. -1.
         21   -1    0    0  503  502 -0.00000000000E+00 -0.00000000000E+00 -0.19503132138E+03  0.19503132138E+03  0.00000000000E+00 0. -1.
         25    1    1    2    0    0  0.20307847439E+03 -0.16527713886E+03  0.72357039608E+03  0.77957457467E+03  0.12500000000E+03 0.  0.
         21    1    1    2  503  504 -0.16783352135E+03  0.10834930171E+03  0.60341107815E+02  0.20868328003E+03  0.00000000000E+00 0. -1.
         21    1    1    2  504  501 -0.35244953035E+02  0.56927837150E+02 -0.80788700404E+02  0.10492759156E+03  0.00000000000E+00 0. -1.
<mgrwt>
<rscale>  4 0.27466089E+03</rscale>
<asrwt>0</asrwt>
<pdfrwt beam="1">  1       21 0.13817755E+00 0.27466089E+03</pdfrwt>
<pdfrwt beam="2">  1       21 0.30004819E-01 0.27466089E+03</pdfrwt>
<totfact> 0.37118547E+03</totfact>
</mgrwt>
</event>
