<event>
 5    0  0.1911311E+001  0.3427469E+03  0.7546771E-02  0.1065632E+00
         21   -1    0    0  504  501  0.00000000000E+00  0.00000000000E+00  0.13475889411E+03  0.13475889411E+03  0.00000000000E+00 0.  1.
         21   -1    0    0  503  502 -0.00000000000E+00 -0.00000000000E+00 -0.25973034514E+04  0.25973034514E+04  0.00000000000E+00 0.  1.
         25    1    1    2    0    0  0.57720229701E+02  0.40905560898E+03 -0.77012566189E+03  0.88282311437E+03  0.12500000000E+03 0.  0.
         21    1    1    2  503  501 -0.14768807858E+03 -0.26280310213E+03 -0.16431881626E+04  0.16706120366E+04  0.00000000000E+00 0.  1.
         21    1    1    2  504  502  0.89967848877E+02 -0.14625250686E+03 -0.49230732831E+02  0.17862719459E+03  0.00000000000E+00 0.  1.
<mgrwt>
<rscale>  4 0.34274695E+03</rscale>
<asrwt>0</asrwt>
<pdfrwt beam="1">  1       21 0.20732139E-01 0.34274695E+03</pdfrwt>
<pdfrwt beam="2">  1       21 0.39958512E+00 0.34274695E+03</pdfrwt>
<totfact> 0.15619956E+02</totfact>
</mgrwt>
</event>
<event>
 5    0  0.1911311E+001  0.2794968E+03  0.7546771E-02  0.1095964E+00
         21   -1    0    0  504  501  0.00000000000E+00  0.00000000000E+00  0.70693792150E+03  0.70693792150E+03  0.00000000000E+00 0. -1.
         21   -1    0    0  501  502 -0.00000000000E+00 -0.00000000000E+00 -0.33035139769E+03  0.33035139769E+03  0.00000000000E+00 0.  1.
         25    1    1    2    0    0 -0.14663390428E+03  0.22379105142E+03  0.53436670962E+03  0.61053805527E+03  0.12500000000E+03 0.  0.
         21    1    1    2  503  502 -0.45119148249E+02 -0.64481732978E+02  0.57418977647E+02  0.97419558717E+02  0.00000000000E+00 0.  1.
         21    1    1    2  504  503  0.19175305253E+03 -0.15930931845E+03 -0.21519916346E+03  0.32933170520E+03  0.00000000000E+00 0.  1.
<mgrwt>
<rscale>  4 0.27949677E+03</rscale>
<asrwt>0</asrwt>
<pdfrwt beam="1">  1       21 0.10875968E+00 0.27949677E+03</pdfrwt>
<pdfrwt beam="2">  1       21 0.50823292E-01 0.27949677E+03</pdfrwt>
<totfact> 0.23149786E+03</totfact>
</mgrwt>
</event>
<event>
 5    0  0.1911311E+001  0.2594624E+03  0.7546771E-02  0.1107467E+00
         21   -1    0    0  502  501  0.00000000000E+00  0.00000000000E+00  0.23504304126E+03  0.23504304126E+03  0.00000000000E+00 0. -1.
         21   -1    0    0  504  502 -0.00000000000E+00 -0.00000000000E+00 -0.35187825362E+03  0.35187825362E+03  0.00000000000E+00 0. -1.
         25    1    1    2    0    0  0.21457563814E+03 -0.75032075475E+02 -0.44597708286E+02  0.26322323685E+03  0.12500000000E+03 0.  0.
         21    1    1    2  503  501 -0.33060867219E+02 -0.72494251486E+02 -0.34257202266E+02  0.86729426072E+02  0.00000000000E+00 0. -1.
         21    1    1    2  504  503 -0.18151477092E+03  0.14752632696E+03 -0.37980301814E+02  0.23696863196E+03  0.00000000000E+00 0. -1.
<mgrwt>
<rscale>  4 0.25946238E+03</rscale>
<asrwt>0</asrwt>
<pdfrwt beam="1">  1       21 0.36160468E-01 0.25946238E+03</pdfrwt>
<pdfrwt beam="2">  1       21 0.54135116E-01 0.25946238E+03</pdfrwt>
<totfact> 0.22976250E+04</totfact>
</mgrwt>
</event>
<event>
 5    0  0.1911311E+001  0.3295349E+03  0.7546771E-02  0.1071343E+00
         21   -1    0    0  503  501  0.00000000000E+00  0.00000000000E+00  0.25857335401E+03  0.25857335401E+03  0.00000000000E+00 0. -1.
         21   -1    0    0  504  502 -0.00000000000E+00 -0.00000000000E+00 -0.58846985310E+03  0.58846985310E+03  0.00000000000E+00 0. -1.
         25    1    1    2    0    0  0.27855924146E+03 -0.16716399885E+03 -0.58975360900E+01  0.34813622972E+03  0.12500000000E+03 0.  0.
         21    1    1    2  503  502 -0.24853348772E+03  0.16544494314E+03 -0.34936613101E+03  0.45956241929E+03  0.00000000000E+00 0. -1.
         21    1    1    2  504  501 -0.30025753731E+02  0.17190557149E+01  0.25367168006E+02  0.39344558103E+02  0.00000000000E+00 0. -1.
<mgrwt>
<rscale>  4 0.32953490E+03</rscale>
<asrwt>0</asrwt>
<pdfrwt beam="1">  1       21 0.39780517E-01 0.32953490E+03</pdfrwt>
<pdfrwt beam="2">  1       21 0.90533822E-01 0.32953490E+03</pdfrwt>
<totfact> 0.58216098E+03</totfact>
</mgrwt>
</event>
<event>
 5    0  0.1911311E+001  0.2736518E+03  0.7546771E-02  0.1099208E+00
         21   -1    0    0  502  501  0.00000000000E+00  0.00000000000E+00  0.53198668700E+03  0.53198668700E+03  0.00000000000E+00 0.  1.
         21   -1    0    0  504  502 -0.00000000000E+00 -0.00000000000E+00 -0.33643633718E+03  0.33643633718E+03  0.00000000000E+00 0.  1.
         25    1    1    2    0    0  0.27721516449E+03 -0.76578950664E+02  0.18042183433E+03  0.36178670707E+03  0.12500000000E+03 0.  0.
         21    1    1    2  503  501 -0.19974408099E+03  0.95151386669E+02  0.20444147965E+03  0.30124375990E+03  0.00000000000E+00 0.  1.
         21    1    1    2  504  503 -0.77471083498E+02 -0.18572436005E+02 -0.18931296416E+03  0.20539255721E+03  0.00000000000E+00 0.  1.
<mgrwt>
<rscale>  4 0.27365182E+03</rscale>
<asrwt>0</asrwt>
<pdfrwt beam="1">  1       21 0.81844106E-01 0.27365182E+03</pdfrwt>
<pdfrwt beam="2">  1       21 0.51759436E-01 0.27365182E+03</pdfrwt>
<totfact> 0.43801524E+03</totfact>
</mgrwt>
</event>
<event>
 5    0  0.1911311E+001  0.2258573E+03  0.7546771E-02  0.1129590E+00
         21   -1    0    0  504  501  0.00000000000E+00  0.00000000000E+00  0.10121473125E+03  0.10121473125E+03  0.00000000000E+00 0. -1.
         21   -1    0    0  503  502 -0.00000000000E+00 -0.00000000000E+00 -0.19715795132E+04  0.19715795132E+04  0.00000000000E+00 0. -1.
         25    1    1    2    0    0  0.19623484394E+03  0.63256114094E+02 -0.16225226044E+04  0.16403396148E+04  0.12500000000E+03 0.  0.
         21    1    1    2  503  501 -0.20356353909E+02  0.46552334620E+00 -0.24451265650E+03  0.24535899626E+03  0.00000000000E+00 0. -1.
         21    1    1    2  504  502 -0.17587849003E+03 -0.63721637440E+02 -0.33295210239E+01  0.18709563341E+03  0.00000000000E+00 0. -1.
<mgrwt>
<rscale>  4 0.22585733E+03</rscale>
<asrwt>0</asrwt>
<pdfrwt beam="1">  1       21 0.15571497E-01 0.22585733E+03</pdfrwt>
<pdfrwt beam="2">  1       21 0.30331992E+00 0.22585733E+03</pdfrwt>
<totfact> 0.11482103E+03</totfact>
</mgrwt>
</event>
