<event>
 5    0  0.1257040E+001  0.2065509E+03  0.7546771E-02  0.1144327E+00
         21   -1    0    0  504  501  0.00000000000E+00  0.00000000000E+00  0.47170859246E+03  0.47170859246E+03  0.00000000000E+00 0. -1.
         21   -1    0    0  501  502 -0.00000000000E+00 -0.00000000000E+00 -0.20662039166E+03  0.20662039166E+03  0.00000000000E+00 0. -1.
         25    1    1    2    0    0 -0.19828067203E+03  0.14797356357E+03  0.18330721516E+03  0.33232203590E+03  0.12500000000E+03 0.  0.
         21    1    1    2  503  502  0.13756238603E+03 -0.59010304325E+02 -0.65628180746E+02  0.16344015472E+03  0.00000000000E+00 0. -1.
         21    1    1    2  504  503  0.60718285994E+02 -0.88963259248E+02  0.14740916639E+03  0.18256679349E+03  0.00000000000E+00 0. -1.
<mgrwt>
<rscale>  4 0.20655094E+03</rscale>
<asrwt>0</asrwt>
<pdfrwt beam="1">  1       21 0.72570553E-01 0.20655094E+03</pdfrwt>
<pdfrwt beam="2">  1       21 0.31787753E-01 0.20655094E+03</pdfrwt>
<totfact> 0.16138216E+04</totfact>
</mgrwt>
</event>
<event>
 5    0  0.1257040E+001  0.3429489E+03  0.7546771E-02  0.1065547E+00
         21   -1    0    0  502  501  0.00000000000E+00  0.00000000000E+00  0.14319217832E+04  0.14319217832E+04  0.00000000000E+00 0.  1.
         21   -1    0    0  504  502 -0.00000000000E+00 -0.00000000000E+00 -0.44134931178E+03  0.44134931178E+03  0.00000000000E+00 0. -1.
         25    1    1    2    0    0  0.15015659809E+03 -0.26057495271E+03  0.99249541591E+03  0.10445661590E+04  0.12500000000E+03 0.  0.
         21    1    1    2  503  501 -0.32695897467E+00 -0.22746478224E+02  0.35113536510E+03  0.35187150182E+03  0.00000000000E+00 0. -1.
         21    1    1    2  504  503 -0.14982963911E+03  0.28332143093E+03 -0.35305830958E+03  0.47683343417E+03  0.00000000000E+00 0. -1.
<mgrwt>
<rscale>  4 0.34294892E+03</rscale>
<asrwt>0</asrwt>
<pdfrwt beam="1">  1       21 0.22029566E+00 0.34294892E+03</pdfrwt>
<pdfrwt beam="2">  1       21 0.67899895E-01 0.34294892E+03</pdfrwt>
<totfact> 0.17020067E+02</totfact>
</mgrwt>
</event>
<event>
 5    0  0.1257040E+001  0.2070648E+03  0.7546771E-02  0.1143912E+00
         21   -1    0    0  502  501  0.00000000000E+00  0.00000000000E+00  0.41207319522E+03  0.41207319522E+03  0.00000000000E+00 0. -1.
         21   -1    0    0  504  502 -0.00000000000E+00 -0.00000000000E+00 -0.31390552391E+03  0.31390552391E+03  0.00000000000E+00 0. -1.
         25    1    1    2    0    0  0.16227067657E+03 -0.13683698335E+03  0.25512143287E+03  0.35463795341E+03  0.12500000000E+03 0.  0.
         21    1    1    2  503  501 -0.10092772791E+03  0.76597981520E+02  0.58359358016E+02  0.13949721037E+03  0.00000000000E+00 0. -1.
         21    1    1    2  504  503 -0.61342948665E+02  0.60239001835E+02 -0.21531311958E+03  0.23184355535E+03  0.00000000000E+00 0. -1.
<mgrwt>
<rscale>  4 0.20706480E+03</rscale>
<asrwt>0</asrwt>
<pdfrwt beam="1">  1       21 0.63395876E-01 0.20706480E+03</pdfrwt>
<pdfrwt beam="2">  1       21 0.48293157E-01 0.20706480E+03</pdfrwt>
<totfact> 0.93310569E+03</totfact>
</mgrwt>
</event>
<event>
 5    0  0.1257040E+001  0.3040107E+03  0.7546771E-02  0.1083253E+00
         21   -1    0    0  502  501  0.00000000000E+00  0.00000000000E+00  0.66074110233E+02  0.66074110233E+02  0.00000000000E+00 0. -1.
         21   -1    0    0  504  502 -0.00000000000E+00 -0.00000000000E+00 -0.13552263868E+04  0.13552263868E+04  0.00000000000E+00 0. -1.
         25    1    1    2    0    0  0.26200203263E+03  0.90290996616E+02 -0.64489998435E+03  0.71296459869E+03  0.12500000000E+03 0.  0.
         21    1    1    2  503  501 -0.40186855024E+02 -0.28419009965E+02 -0.46305958399E+02  0.67578585568E+02  0.00000000000E+00 0. -1.
         21    1    1    2  504  503 -0.22181517760E+03 -0.61871986650E+02 -0.59794633383E+03  0.64075731278E+03  0.00000000000E+00 0. -1.
<mgrwt>
<rscale>  4 0.30401074E+03</rscale>
<asrwt>0</asrwt>
<pdfrwt beam="1">  1       21 0.10165249E-01 0.30401074E+03</pdfrwt>
<pdfrwt beam="2">  1       21 0.20849634E+00 0.30401074E+03</pdfrwt>
<totfact> 0.86432887E+03</totfact>
</mgrwt>
</event>
<event>
 5    0  0.1257040E+001  0.2544908E+03  0.7546771E-02  0.1110499E+00
         21   -1    0    0  502  501  0.00000000000E+00  0.00000000000E+00  0.30780572837E+03  0.30780572837E+03  0.00000000000E+00 0. -1.
         21   -1    0    0  504  502 -0.00000000000E+00 -0.00000000000E+00 -0.78342486369E+03  0.78342486369E+03  0.00000000000E+00 0. -1.
         25    1    1    2    0    0 -0.31626846845E+02 -0.21761164979E+03  0.20490148001E+03  0.32552220213E+03  0.12500000000E+03 0.  0.
         21    1    1    2  503  501 -0.35353433213E+02  0.59882015765E+01  0.12526748215E+02  0.37982143421E+02  0.00000000000E+00 0. -1.
         21    1    1    2  504  503  0.66980280057E+02  0.21162344822E+03 -0.69304736355E+03  0.72772624652E+03  0.00000000000E+00 0. -1.
<mgrwt>
<rscale>  4 0.25449083E+03</rscale>
<asrwt>0</asrwt>
<pdfrwt beam="1">  1       21 0.47354728E-01 0.25449083E+03</pdfrwt>
<pdfrwt beam="2">  1       21 0.12052690E+00 0.25449083E+03</pdfrwt>
<totfact> 0.21190757E+03</totfact>
</mgrwt>
</event>
<event>
 5    0  0.1257040E+001  0.1944403E+03  0.7546771E-02  0.1154516E+00
         21   -1    0    0  502  501  0.00000000000E+00  0.00000000000E+00  0.56967885065E+03  0.56967885065E+03  0.00000000000E+00 0.  1.
         21   -1    0    0  504  502 -0.00000000000E+00 -0.00000000000E+00 -0.74066231287E+03  0.74066231287E+03  0.00000000000E+00 0. -1.
         25    1    1    2    0    0 -0.17209745827E+03 -0.15407460637E+03  0.33436048751E+03  0.42518049706E+03  0.12500000000E+03 0.  0.
         21    1    1    2  503  501  0.45367563652E+02  0.78974114303E+02  0.17057924751E+03  0.19337116187E+03  0.00000000000E+00 0.  1.
         21    1    1    2  504  503  0.12672989462E+03  0.75100492067E+02 -0.67592319724E+03  0.69178950459E+03  0.00000000000E+00 0. -1.
<mgrwt>
<rscale>  4 0.19444030E+03</rscale>
<asrwt>0</asrwt>
<pdfrwt beam="1">  1       21 0.87642900E-01 0.19444030E+03</pdfrwt>
<pdfrwt beam="2">  1       21 0.11394805E+00 0.19444030E+03</pdfrwt>
<totfact> 0.66839290E+02</totfact>
</mgrwt>
</event>
<event>
 5    0  0.1257040E+001  0.2904786E+03  0.7546771E-02  0.1090100E+00
         21   -1    0    0  504  501  0.00000000000E+00  0.00000000000E+00  0.61310267753E+03  0.61310267753E+03  0.00000000000E+00 0. -1.
         21   -1    0    0  503  502 -0.00000000000E+00 -0.00000000000E+00 -0.91745008515E+03  0.91745008515E+03  0.00000000000E+00 0. -1.
         25    1    1    2    0    0 -0.26292824114E+03 -0.80777582575E+02  0.52810326377E+03  0.60841953867E+03  0.12500000000E+03 0.  0.
         21    1    1    2  503  501  0.25786465156E+03  0.45396545394E+02 -0.84470150461E+03  0.88435041513E+03  0.00000000000E+00 0. -1.
         21    1    1    2  504  502  0.50635895828E+01  0.35381037181E+02  0.12250833226E+02  0.37782808871E+02  0.00000000000E+00 0. -1.
<mgrwt>
<rscale>  4 0.29047857E+03</rscale>
<asrwt>0</asrwt>
<pdfrwt beam="1">  1       21 0.94323489E-01 0.29047857E+03</pdfrwt>
<pdfrwt beam="2">  1       21 0.14114617E+00 0.29047857E+03</pdfrwt>
<totfact> 0.29985062E+02</totfact>
</mgrwt>
</event>
<event>
 5    0  0.1257040E+001  0.2295491E+03  0.7546771E-02  0.1126958E+00
         21   -1    0    0  502  501  0.00000000000E+00  0.00000000000E+00  0.60112491143E+02  0.60112491143E+02  0.00000000000E+00 0. -1.
         21   -1    0    0  504  502 -0.00000000000E+00 -0.00000000000E+00 -0.10956661006E+04  0.10956661006E+04  0.00000000000E+00 0. -1.
         25    1    1    2    0    0 -0.17830763419E+03  0.10604068467E+03 -0.28761519172E+03  0.37601294888E+03  0.12500000000E+03 0.  0.
         21    1    1    2  503  501  0.76635974716E+01 -0.25918022958E+02 -0.50256770071E+02  0.57063276967E+02  0.00000000000E+00 0.  1.
         21    1    1    2  504  503  0.17064403672E+03 -0.80122661712E+02 -0.69768164765E+03  0.72270236588E+03  0.00000000000E+00 0. -1.
<mgrwt>
<rscale>  4 0.22954912E+03</rscale>
<asrwt>0</asrwt>
<pdfrwt beam="1">  1       21 0.92480765E-02 0.22954912E+03</pdfrwt>
<pdfrwt beam="2">  1       21 0.16856400E+00 0.22954912E+03</pdfrwt>
<totfact> 0.19845009E+04</totfact>
</mgrwt>
</event>
<event>
 5    0  0.1257040E+001  0.2619258E+03  0.7546771E-02  0.1105992E+00
         21   -1    0    0  502  501  0.00000000000E+00  0.00000000000E+00  0.21273420390E+03  0.21273420390E+03  0.00000000000E+00 0.  1.
         21   -1    0    0  504  502 -0.00000000000E+00 -0.00000000000E+00 -0.56076550134E+03  0.56076550134E+03  0.00000000000E+00 0.  1.
         25    1    1    2    0    0  0.38280016861E+02  0.20410360846E+03 -0.39350256785E+03  0.46216113378E+03  0.12500000000E+03 0.  0.
         21    1    1    2  503  501  0.21564180726E+01 -0.23522624060E+03  0.81411299163E+02  0.24892535836E+03  0.00000000000E+00 0.  1.
         21    1    1    2  504  503 -0.40436434933E+02  0.31122632140E+02 -0.35940028755E+02  0.62413213091E+02  0.00000000000E+00 0. -1.
<mgrwt>
<rscale>  4 0.26192583E+03</rscale>
<asrwt>0</asrwt>
<pdfrwt beam="1">  1       21 0.32728339E-01 0.26192583E+03</pdfrwt>
<pdfrwt beam="2">  1       21 0.86271615E-01 0.26192583E+03</pdfrwt>
<totfact> 0.99732204E+03</totfact>
</mgrwt>
</event>
<event>
 5    0  0.1257040E+001  0.2306879E+03  0.7546771E-02  0.1126157E+00
         21   -1    0    0  504  501  0.00000000000E+00  0.00000000000E+00  0.11412683322E+04  0.11412683322E+04  0.00000000000E+00 0. -1.
         21   -1    0    0  501  502 -0.00000000000E+00 -0.00000000000E+00 -0.53899901542E+02  0.53899901542E+02  0.00000000000E+00 0. -1.
         25    1    1    2    0    0  0.15698040981E+02  0.20428477990E+03  0.36533958244E+03  0.43712322094E+03  0.12500000000E+03 0.  0.
         21    1    1    2  503  502 -0.47632151527E+02 -0.18445507493E+03  0.64121758819E+03  0.66891889787E+03  0.00000000000E+00 0. -1.
         21    1    1    2  504  503  0.31934110546E+02 -0.19829704974E+02  0.80811260080E+02  0.89126114980E+02  0.00000000000E+00 0. -1.
<mgrwt>
<rscale>  4 0.23068791E+03</rscale>
<asrwt>0</asrwt>
<pdfrwt beam="1">  1       21 0.17557972E+00 0.23068791E+03</pdfrwt>
<pdfrwt beam="2">  1       21 0.82922934E-02 0.23068791E+03</pdfrwt>
<totfact> 0.21441879E+04</totfact>
</mgrwt>
</event>
<event>
 5    0  0.1257040E+001  0.2305595E+03  0.7546771E-02  0.1126247E+00
         21   -1    0    0  504  501  0.00000000000E+00  0.00000000000E+00  0.19083660425E+03  0.19083660425E+03  0.00000000000E+00 0. -1.
         21   -1    0    0  503  502 -0.00000000000E+00 -0.00000000000E+00 -0.28994351821E+04  0.28994351821E+04  0.00000000000E+00 0.  1.
         25    1    1    2    0    0  0.16539977233E+03 -0.16447982669E+03 -0.18711751168E+04  0.18897968186E+04  0.12500000000E+03 0.  0.
         21    1    1    2  503  501 -0.13705340992E+03  0.93909688592E+02 -0.10038447602E+04  0.10175003535E+04  0.00000000000E+00 0.  1.
         21    1    1    2  504  502 -0.28346362411E+02  0.70570138096E+02  0.16642129912E+03  0.18297461423E+03  0.00000000000E+00 0. -1.
<mgrwt>
<rscale>  4 0.23055950E+03</rscale>
<asrwt>0</asrwt>
<pdfrwt beam="1">  1       21 0.29359477E-01 0.23055950E+03</pdfrwt>
<pdfrwt beam="2">  1       21 0.44606696E+00 0.23055950E+03</pdfrwt>
<totfact> 0.45849070E+01</totfact>
</mgrwt>
</event>
<event>
 5    0  0.1257040E+001  0.2452819E+03  0.7546771E-02  0.1116323E+00
         21   -1    0    0  503  501  0.00000000000E+00  0.00000000000E+00  0.11998619428E+03  0.11998619428E+03  0.00000000000E+00 0. -1.
         21   -1    0    0  501  502 -0.00000000000E+00 -0.00000000000E+00 -0.56522843830E+03  0.56522843830E+03  0.00000000000E+00 0.  1.
         25    1    1    2    0    0  0.27935285312E+02  0.21932576734E+03 -0.18508446065E+03  0.31426967712E+03  0.12500000000E+03 0.  0.
         21    1    1    2  503  504 -0.39841537601E+02 -0.20200500568E+03 -0.27620334363E+03  0.34450204277E+03  0.00000000000E+00 0.  1.
         21    1    1    2  504  502  0.11906252289E+02 -0.17320761654E+02  0.16045560255E+02  0.26442912694E+02  0.00000000000E+00 0.  1.
<mgrwt>
<rscale>  4 0.24528195E+03</rscale>
<asrwt>0</asrwt>
<pdfrwt beam="1">  1       21 0.18459415E-01 0.24528195E+03</pdfrwt>
<pdfrwt beam="2">  1       21 0.86958220E-01 0.24528195E+03</pdfrwt>
<totfact> 0.29653077E+04</totfact>
</mgrwt>
</event>
<event>
 5    0  0.1257040E+001  0.2980689E+03  0.7546771E-02  0.1086210E+00
         21   -1    0    0  502  501  0.00000000000E+00  0.00000000000E+00  0.26062211054E+03  0.26062211054E+03  0.00000000000E+00 0. -1.
         21   -1    0    0  504  502 -0.00000000000E+00 -0.00000000000E+00 -0.54912113331E+03  0.54912113331E+03  0.00000000000E+00 0.  1.
         25    1    1    2    0    0 -0.23699991915E+02 -0.25502364941E+03 -0.31004410839E+03  0.42113074042E+03  0.12500000000E+03 0.  0.
         21    1    1    2  503  501 -0.65321542211E+02 -0.62770563065E+01 -0.71741591746E+02  0.97227369084E+02  0.00000000000E+00 0.  1.
         21    1    1    2  504  503  0.89021534126E+02  0.26130070572E+03  0.93286677371E+02  0.29138513435E+03  0.00000000000E+00 0. -1.
<mgrwt>
<rscale>  4 0.29806886E+03</rscale>
<asrwt>0</asrwt>
<pdfrwt beam="1">  1       21 0.40095709E-01 0.29806886E+03</pdfrwt>
<pdfrwt beam="2">  1       21 0.84480175E-01 0.29806886E+03</pdfrwt>
<totfact> 0.68323301E+03</totfact>
</mgrwt>
</event>
<event>
 5    0  0.1257040E+001  0.2277583E+03  0.7546771E-02  0.1128228E+00
         21   -1    0    0  502  501  0.00000000000E+00  0.00000000000E+00  0.42991509839E+03  0.42991509839E+03  0.00000000000E+00 0. -1.
         21   -1    0    0  504  502 -0.00000000000E+00 -0.00000000000E+00 -0.34702453478E+03  0.34702453478E+03  0.00000000000E+00 0. -1.
         25    1    1    2    0    0  0.23166687083E+03  0.13622834606E+03  0.25795287808E+03  0.39292796874E+03  0.12500000000E+03 0.  0.
         21    1    1    2  503  501 -0.69976596157E+02 -0.51597089350E+02  0.45181200484E+02  0.97981245737E+02  0.00000000000E+00 0. -1.
         21    1    1    2  504  503 -0.16169027468E+03 -0.84631256709E+02 -0.22024351495E+03  0.28603041869E+03  0.00000000000E+00 0. -1.
<mgrwt>
<rscale>  4 0.22775827E+03</rscale>
<asrwt>0</asrwt>
<pdfrwt beam="1">  1       21 0.66140784E-01 0.22775827E+03</pdfrwt>
<pdfrwt beam="2">  1       21 0.53388390E-01 0.22775827E+03</pdfrwt>
<totfact> 0.67995367E+03</totfact>
</mgrwt>
</event>
<event>
 5    0  0.1257040E+001  0.2972118E+03  0.7546771E-02  0.1086643E+00
         21   -1    0    0  503  501  0.00000000000E+00  0.00000000000E+00  0.32139798559E+03  0.32139798559E+03  0.00000000000E+00 0. -1.
         21   -1    0    0  504  502 -0.00000000000E+00 -0.00000000000E+00 -0.93386405704E+03  0.93386405704E+03  0.00000000000E+00 0. -1.
         25    1    1    2    0    0  0.14538205667E+03  0.30891330435E+03 -0.28583524108E+03  0.46248260189E+03  0.12500000000E+03 0.  0.
         21    1    1    2  503  502  0.10714781740E+02 -0.25382146214E+03 -0.49517487025E+03  0.55654136713E+03  0.00000000000E+00 0. -1.
         21    1    1    2  504  501 -0.15609683841E+03 -0.55091842204E+02  0.16854403989E+03  0.23623807361E+03  0.00000000000E+00 0. -1.
<mgrwt>
<rscale>  4 0.29721178E+03</rscale>
<asrwt>0</asrwt>
<pdfrwt beam="1">  1       21 0.49445845E-01 0.29721178E+03</pdfrwt>
<pdfrwt beam="2">  1       21 0.14367139E+00 0.29721178E+03</pdfrwt>
<totfact> 0.11976568E+03</totfact>
</mgrwt>
</event>
<event>
 5    0  0.1257040E+001  0.2843325E+03  0.7546771E-02  0.1093346E+00
         21   -1    0    0  502  501  0.00000000000E+00  0.00000000000E+00  0.15896733763E+04  0.15896733763E+04  0.00000000000E+00 0.  1.
         21   -1    0    0  504  502 -0.00000000000E+00 -0.00000000000E+00 -0.36613661402E+03  0.36613661402E+03  0.00000000000E+00 0. -1.
         25    1    1    2    0    0  0.11141680844E+03  0.33386715215E+03  0.13574474490E+04  0.14078954355E+04  0.12500000000E+03 0.  0.
         21    1    1    2  503  501 -0.53363058169E+02 -0.88638658950E+02  0.14105775123E+03  0.17493346455E+03  0.00000000000E+00 0.  1.
         21    1    1    2  504  503 -0.58053750272E+02 -0.24522849320E+03 -0.27496843798E+03  0.37298109025E+03  0.00000000000E+00 0. -1.
<mgrwt>
<rscale>  4 0.28433251E+03</rscale>
<asrwt>0</asrwt>
<pdfrwt beam="1">  1       21 0.24456513E+00 0.28433251E+03</pdfrwt>
<pdfrwt beam="2">  1       21 0.56328711E-01 0.28433251E+03</pdfrwt>
<totfact> 0.19062522E+02</totfact>
</mgrwt>
</event>
<event>
 5    0  0.1257040E+001  0.2272621E+03  0.7546771E-02  0.1128582E+00
         21   -1    0    0  502  501  0.00000000000E+00  0.00000000000E+00  0.50479131859E+03  0.50479131859E+03  0.00000000000E+00 0. -1.
         21   -1    0    0  504  502 -0.00000000000E+00 -0.00000000000E+00 -0.20555378610E+03  0.20555378610E+03  0.00000000000E+00 0. -1.
         25    1    1    2    0    0 -0.95863839692E+02  0.18447709595E+03 -0.73053627497E+02  0.25334464111E+03  0.12500000000E+03 0.  0.
         21    1    1    2  503  501  0.86934118299E+02 -0.16603811740E+03  0.38819128450E+03  0.43106689819E+03  0.00000000000E+00 0. -1.
         21    1    1    2  504  503  0.89297213931E+01 -0.18438978549E+02 -0.15900124518E+02  0.25933565389E+02  0.00000000000E+00 0. -1.
<mgrwt>
<rscale>  4 0.22726212E+03</rscale>
<asrwt>0</asrwt>
<pdfrwt beam="1">  1       21 0.77660202E-01 0.22726212E+03</pdfrwt>
<pdfrwt beam="2">  1       21 0.31623660E-01 0.22726212E+03</pdfrwt>
<totfact> 0.13834358E+04</totfact>
</mgrwt>
</event>
<event>
 5    0  0.1257040E+001  0.2547183E+03  0.7546771E-02  0.1110359E+00
         21   -1    0    0  504  501  0.00000000000E+00  0.00000000000E+00  0.57275588249E+03  0.57275588249E+03  0.00000000000E+00 0.  1.
         21   -1    0    0  501  502 -0.00000000000E+00 -0.00000000000E+00 -0.11281304986E+03  0.11281304986E+03  0.00000000000E+00 0. -1.
         25    1    1    2    0    0  0.12647167239E+03 -0.16280457468E+03  0.28007526271E+03  0.36955049213E+03  0.12500000000E+03 0.  0.
         21    1    1    2  503  502  0.14585368299E+02 -0.21851210381E+02  0.28156553448E+02  0.38509737283E+02  0.00000000000E+00 0. -1.
         21    1    1    2  504  503 -0.14105704069E+03  0.18465578506E+03  0.15171101648E+03  0.27750870293E+03  0.00000000000E+00 0. -1.
<mgrwt>
<rscale>  4 0.25471833E+03</rscale>
<asrwt>0</asrwt>
<pdfrwt beam="1">  1       21 0.88116288E-01 0.25471833E+03</pdfrwt>
<pdfrwt beam="2">  1       21 0.17355854E-01 0.25471833E+03</pdfrwt>
<totfact> 0.32113005E+04</totfact>
</mgrwt>
</event>
<event>
 5    0  0.1257040E+001  0.3944494E+03  0.7546771E-02  0.1045719E+00
         21   -1    0    0  502  501  0.00000000000E+00  0.00000000000E+00  0.23541937666E+04  0.23541937666E+04  0.00000000000E+00 0. -1.
         21   -1    0    0  504  502 -0.00000000000E+00 -0.00000000000E+00 -0.16665448137E+03  0.16665448137E+03  0.00000000000E+00 0. -1.
         25    1    1    2    0    0  0.92242698753E+02 -0.37476352451E+03  0.85170263520E+03  0.94338687376E+03  0.12500000000E+03 0.  0.
         21    1    1    2  503  501  0.89962102138E+02  0.48574139527E+02  0.11600491823E+04  0.11645457192E+04  0.00000000000E+00 0. -1.
         21    1    1    2  504  503 -0.18220480089E+03  0.32618938498E+03  0.17578746780E+03  0.41291565504E+03  0.00000000000E+00 0. -1.
<mgrwt>
<rscale>  4 0.39444943E+03</rscale>
<asrwt>0</asrwt>
<pdfrwt beam="1">  1       21 0.36218363E+00 0.39444943E+03</pdfrwt>
<pdfrwt beam="2">  1       21 0.25639153E-01 0.39444943E+03</pdfrwt>
<totfact> 0.17034366E+02</totfact>
</mgrwt>
</event>
<event>
 5    0  0.1257040E+001  0.3755133E+03  0.7546771E-02  0.1052605E+00
         21   -1    0    0  504  501  0.00000000000E+00  0.00000000000E+00  0.68882078209E+03  0.68882078209E+03  0.00000000000E+00 0.  1.
         21   -1    0    0  503  502 -0.00000000000E+00 -0.00000000000E+00 -0.30697924362E+03  0.30697924362E+03  0.00000000000E+00 0. -1.
         25    1    1    2    0    0  0.34807271665E+03  0.59723608303E+02  0.44313958421E+03  0.58027512144E+03  0.12500000000E+03 0.  0.
         21    1    1    2  503  501 -0.35356359477E+03 -0.27807665879E+02 -0.96642795174E+02  0.36758714843E+03  0.00000000000E+00 0. -1.
         21    1    1    2  504  502  0.54908781245E+01 -0.31915942424E+02  0.35344749427E+02  0.47937755845E+02  0.00000000000E+00 0. -1.
<mgrwt>
<rscale>  4 0.37551329E+03</rscale>
<asrwt>0</asrwt>
<pdfrwt beam="1">  1       21 0.10597243E+00 0.37551329E+03</pdfrwt>
<pdfrwt beam="2">  1       21 0.47227576E-01 0.37551329E+03</pdfrwt>
<totfact> 0.27379107E+03</totfact>
</mgrwt>
</event>
<event>
 5    0  0.1257040E+001  0.3810901E+03  0.7546771E-02  0.1050532E+00
         21   -1    0    0  502  501  0.00000000000E+00  0.00000000000E+00  0.43136532299E+03  0.43136532299E+03  0.00000000000E+00 0.  1.
         21   -1    0    0  504  502 -0.00000000000E+00 -0.00000000000E+00 -0.48846005957E+03  0.48846005957E+03  0.00000000000E+00 0.  1.
         25    1    1    2    0    0  0.24144388446E+03 -0.29104331479E+03  0.16513841021E+03  0.43115780748E+03  0.12500000000E+03 0.  0.
         21    1    1    2  503  501 -0.20753856339E+02  0.13502437374E+02  0.40417543008E+02  0.47398482579E+02  0.00000000000E+00 0.  1.
         21    1    1    2  504  503 -0.22069002812E+03  0.27754087741E+03 -0.26265068979E+03  0.44126909250E+03  0.00000000000E+00 0.  1.
<mgrwt>
<rscale>  4 0.38109009E+03</rscale>
<asrwt>0</asrwt>
<pdfrwt beam="1">  1       21 0.66363896E-01 0.38109009E+03</pdfrwt>
<pdfrwt beam="2">  1       21 0.75147701E-01 0.38109009E+03</pdfrwt>
<totfact> 0.29466693E+03</totfact>
</mgrwt>
</event>
<event>
 5    0  0.1257040E+001  0.3178360E+03  0.7546771E-02  0.1076650E+00
         21   -1    0    0  503  501  0.00000000000E+00  0.00000000000E+00  0.15498836304E+03  0.15498836304E+03  0.00000000000E+00 0.  1.
         21   -1    0    0  504  502 -0.00000000000E+00 -0.00000000000E+00 -0.10725761913E+04  0.10725761913E+04  0.00000000000E+00 0. -1.
         25    1    1    2    0    0  0.15161166635E+03  0.24359528517E+03 -0.18520818999E+03  0.36366445244E+03  0.12500000000E+03 0.  0.
         21    1    1    2  503  502 -0.13734249077E+03 -0.25995560955E+03 -0.76790668015E+03  0.82226549734E+03  0.00000000000E+00 0. -1.
         21    1    1    2  504  501 -0.14269175579E+02  0.16360324379E+02  0.35527041925E+02  0.41634604518E+02  0.00000000000E+00 0. -1.
<mgrwt>
<rscale>  4 0.31783599E+03</rscale>
<asrwt>0</asrwt>
<pdfrwt beam="1">  1       21 0.23844363E-01 0.31783599E+03</pdfrwt>
<pdfrwt beam="2">  1       21 0.16501172E+00 0.31783599E+03</pdfrwt>
<totfact> 0.35114130E+03</totfact>
</mgrwt>
</event>
<event>
 5    0  0.2077718E+001  0.3400007E+03  0.7546771E-02  0.1066796E+00
         21   -1    0    0  502  501  0.00000000000E+00  0.00000000000E+00  0.86171445912E+03  0.86171445912E+03  0.00000000000E+00 0.  1.
         21   -1    0    0  504  502 -0.00000000000E+00 -0.00000000000E+00 -0.73050249247E+03  0.73050249247E+03  0.00000000000E+00 0. -1.
         25    1    1    2    0    0  0.29568920028E+03  0.11126045738E+03 -0.64071673089E+03  0.72522680714E+03  0.12500000000E+03 0.  0.
         21    1    1    2  503  501 -0.28737245567E+03 -0.13199049795E+03  0.78122016357E+03  0.84279853096E+03  0.00000000000E+00 0.  1.
         21    1    1    2  504  503 -0.83167446113E+01  0.20730040562E+02 -0.92914660236E+01  0.24191613495E+02  0.00000000000E+00 0.  1.
<mgrwt>
<rscale>  4 0.34000071E+03</rscale>
<asrwt>0</asrwt>
<pdfrwt beam="1">  1       21 0.13257146E+00 0.34000071E+03</pdfrwt>
<pdfrwt beam="2">  1       21 0.11238500E+00 0.34000071E+03</pdfrwt>
<totfact> 0.22265570E+02</totfact>
</mgrwt>
</event>
<event>
 5    0  0.1257040E+001  0.2403470E+03  0.7546771E-02  0.1119562E+00
         21   -1    0    0  503  501  0.00000000000E+00  0.00000000000E+00  0.67386211072E+02  0.67386211072E+02  0.00000000000E+00 0.  1.
         21   -1    0    0  504  502 -0.00000000000E+00 -0.00000000000E+00 -0.16382781958E+04  0.16382781958E+04  0.00000000000E+00 0.  1.
         25    1    1    2    0    0  0.75115248752E+02  0.21837472030E+03 -0.93798840574E+03  0.97405188177E+03  0.12500000000E+03 0.  0.
         21    1    1    2  503  502 -0.25260819582E+02 -0.24785901395E+02 -0.47644996642E+03  0.47776251466E+03  0.00000000000E+00 0. -1.
         21    1    1    2  504  501 -0.49854429169E+02 -0.19358881891E+03 -0.15645361254E+03  0.25385001042E+03  0.00000000000E+00 0.  1.
<mgrwt>
<rscale>  4 0.24034699E+03</rscale>
<asrwt>0</asrwt>
<pdfrwt beam="1">  1       21 0.10367109E-01 0.24034699E+03</pdfrwt>
<pdfrwt beam="2">  1       21 0.25204280E+00 0.24034699E+03</pdfrwt>
<totfact> 0.47051473E+03</totfact>
</mgrwt>
</event>
<event>
 5    0  0.1257040E+001  0.4921357E+03  0.7546771E-02  0.1015852E+00
         21   -1    0    0  502  501  0.00000000000E+00  0.00000000000E+00  0.11747089476E+04  0.11747089476E+04  0.00000000000E+00 0.  1.
         21   -1    0    0  504  502 -0.00000000000E+00 -0.00000000000E+00 -0.31396195137E+03  0.31396195137E+03  0.00000000000E+00 0.  1.
         25    1    1    2    0    0  0.27352181815E+02 -0.37435861063E+03  0.61992547081E+03  0.73540811837E+03  0.12500000000E+03 0.  0.
         21    1    1    2  503  501 -0.32127124675E+02 -0.14608734466E+03  0.17251606475E+03  0.22833190098E+03  0.00000000000E+00 0.  1.
         21    1    1    2  504  503  0.47749428594E+01  0.52044595529E+03  0.68305460708E+02  0.52493087966E+03  0.00000000000E+00 0.  1.
<mgrwt>
<rscale>  4 0.49213575E+03</rscale>
<asrwt>0</asrwt>
<pdfrwt beam="1">  1       21 0.18072445E+00 0.49213575E+03</pdfrwt>
<pdfrwt beam="2">  1       21 0.48301839E-01 0.49213575E+03</pdfrwt>
<totfact> 0.60043534E+02</totfact>
</mgrwt>
</event>
<event>
 5    0  0.1257040E+001  0.4290886E+03  0.7546771E-02  0.1034148E+00
         21   -1    0    0  504  501  0.00000000000E+00  0.00000000000E+00  0.30699398897E+03  0.30699398897E+03  0.00000000000E+00 0.  1.
         21   -1    0    0  501  502 -0.00000000000E+00 -0.00000000000E+00 -0.83451438498E+03  0.83451438498E+03  0.00000000000E+00 0.  1.
         25    1    1    2    0    0 -0.13589615123E+03 -0.40405352540E+03 -0.30623865570E+03  0.53956846605E+03  0.12500000000E+03 0.  0.
         21    1    1    2  503  502 -0.73820421824E+00  0.40916910029E+03 -0.10494291664E+03  0.42241320212E+03  0.00000000000E+00 0.  1.
         21    1    1    2  504  503  0.13663435545E+03 -0.51155748808E+01 -0.11633882366E+03  0.17952670577E+03  0.00000000000E+00 0. -1.
<mgrwt>
<rscale>  4 0.42908864E+03</rscale>
<asrwt>0</asrwt>
<pdfrwt beam="1">  1       21 0.47229845E-01 0.42908864E+03</pdfrwt>
<pdfrwt beam="2">  1       21 0.12838683E+00 0.42908864E+03</pdfrwt>
<totfact> 0.16519657E+03</totfact>
</mgrwt>
</event>
<event>
 5    0  0.1257040E+001  0.3287814E+03  0.7546771E-02  0.1071677E+00
         21   -1    0    0  504  501  0.00000000000E+00  0.00000000000E+00  0.58267478840E+03  0.58267478840E+03  0.00000000000E+00 0. -1.
         21   -1    0    0  503  502 -0.00000000000E+00 -0.00000000000E+00 -0.38754195687E+03  0.38754195687E+03  0.00000000000E+00 0. -1.
         25    1    1    2    0    0 -0.16964975348E+03 -0.29506420983E+03 -0.17772662729E+03  0.40380153643E+03  0.12500000000E+03 0.  0.
         21    1    1    2  503  501  0.14452242296E+03  0.20280285864E+03  0.85075154672E+02  0.26316062044E+03  0.00000000000E+00 0. -1.
         21    1    1    2  504  502  0.25127330523E+02  0.92261351190E+02  0.28778430415E+03  0.30325458839E+03  0.00000000000E+00 0. -1.
<mgrwt>
<rscale>  4 0.32878143E+03</rscale>
<asrwt>0</asrwt>
<pdfrwt beam="1">  1       21 0.89642275E-01 0.32878143E+03</pdfrwt>
<pdfrwt beam="2">  1       21 0.59621840E-01 0.32878143E+03</pdfrwt>
<totfact> 0.25424177E+03</totfact>
</mgrwt>
</event>
<event>
 5    0  0.1257040E+001  0.2201793E+03  0.7546771E-02  0.1133749E+00
         21   -1    0    0  502  501  0.00000000000E+00  0.00000000000E+00  0.26867084930E+03  0.26867084930E+03  0.00000000000E+00 0. -1.
         21   -1    0    0  504  502 -0.00000000000E+00 -0.00000000000E+00 -0.13265058510E+04  0.13265058510E+04  0.00000000000E+00 0. -1.
         25    1    1    2    0    0 -0.20401712582E+03 -0.47258550968E+00 -0.12278387649E+04  0.12509341484E+04  0.12500000000E+03 0.  0.
         21    1    1    2  503  501  0.17899759176E+03 -0.24824641448E+02  0.21884708556E+03  0.28381410736E+03  0.00000000000E+00 0. -1.
         21    1    1    2  504  503  0.25019534062E+02  0.25297226958E+02 -0.48843322422E+02  0.60428444641E+02  0.00000000000E+00 0. -1.
<mgrwt>
<rscale>  4 0.22017926E+03</rscale>
<asrwt>0</asrwt>
<pdfrwt beam="1">  1       21 0.41333977E-01 0.22017926E+03</pdfrwt>
<pdfrwt beam="2">  1       21 0.20407782E+00 0.22017926E+03</pdfrwt>
<totfact> 0.69104307E+02</totfact>
</mgrwt>
</event>
