<event>
 5    0  0.1531977E+001  0.3666370E+03  0.7546771E-02  0.1055986E+00
         21   -1    0    0  504  501  0.00000000000E+00  0.00000000000E+00  0.11724747800E+04  0.11724747800E+04  0.00000000000E+00 0. -1.
         21   -1    0    0  501  502 -0.00000000000E+00 -0.00000000000E+00 -0.13948234457E+03  0.13948234457E+03  0.00000000000E+00 0. -1.
         25    1    1    2    0    0  0.34229625478E+03  0.40384878054E+02  0.22635871752E+03  0.43088389783E+03  0.12500000000E+03 0.  0.
         21    1    1    2  503  502 -0.28854213875E+03 -0.35471589110E+02  0.74166732239E+03  0.79660857174E+03  0.00000000000E+00 0. -1.
         21    1    1    2  504  503 -0.53754116028E+02 -0.49132889438E+01  0.64966395524E+02  0.84464655008E+02  0.00000000000E+00 0. -1.
<mgrwt>
<rscale>  4 0.36663697E+03</rscale>
<asrwt>0</asrwt>
<pdfrwt beam="1">  1       21 0.18038073E+00 0.36663697E+03</pdfrwt>
<pdfrwt beam="2">  1       21 0.21458823E-01 0.36663697E+03</pdfrwt>
<totfact> 0.32538605E+03</totfact>
</mgrwt>
</event>
<event>
 5    0  0.1531977E+001  0.2630906E+03  0.7546771E-02  0.1105300E+00
         21   -1    0    0  502  501  0.00000000000E+00  0.00000000000E+00  0.36369373679E+03  0.36369373679E+03  0.00000000000E+00 0.  1.
         21   -1    0    0  504  502 -0.00000000000E+00 -0.00000000000E+00 -0.21721365425E+03  0.21721365425E+03  0.00000000000E+00 0.  1.
         25    1    1    2    0    0 -0.19012803833E+03 -0.15874155326E+03 -0.14402934526E+01  0.27744301422E+03  0.12500000000E+03 0.  0.
         21    1    1    2  503  501  0.17097489737E+03  0.14596866402E+03  0.16143606550E+03  0.27676862114E+03  0.00000000000E+00 0.  1.
         21    1    1    2  504  503  0.19153140964E+02  0.12772889240E+02 -0.13515689514E+02  0.26695755681E+02  0.00000000000E+00 0.  1.
<mgrwt>
<rscale>  4 0.26309061E+03</rscale>
<asrwt>0</asrwt>
<pdfrwt beam="1">  1       21 0.55952882E-01 0.26309061E+03</pdfrwt>
<pdfrwt beam="2">  1       21 0.33417485E-01 0.26309061E+03</pdfrwt>
<totfact> 0.25029119E+04</totfact>
</mgrwt>
</event>
<event>
 5    0  0.1531977E+001  0.2744935E+03  0.7546771E-02  0.1098735E+00
         21   -1    0    0  502  501  0.00000000000E+00  0.00000000000E+00  0.59629396875E+02  0.59629396875E+02  0.00000000000E+00 0. -1.
         21   -1    0    0  504  502 -0.00000000000E+00 -0.00000000000E+00 -0.13341079455E+04  0.13341079455E+04  0.00000000000E+00 0. -1.
         25    1    1    2    0    0 -0.12405425169E+03 -0.21055219528E+03 -0.41840788168E+03  0.50041167028E+03  0.12500000000E+03 0.  0.
         21    1    1    2  503  501  0.62088695716E+02  0.11217388303E+03 -0.57569425372E+03  0.58979815186E+03  0.00000000000E+00 0. -1.
         21    1    1    2  504  503  0.61965555973E+02  0.98378312250E+02 -0.28037641324E+03  0.30352752025E+03  0.00000000000E+00 0. -1.
<mgrwt>
<rscale>  4 0.27449351E+03</rscale>
<asrwt>0</asrwt>
<pdfrwt beam="1">  1       21 0.91737548E-02 0.27449351E+03</pdfrwt>
<pdfrwt beam="2">  1       21 0.20524734E+00 0.27449351E+03</pdfrwt>
<totfact> 0.11072574E+04</totfact>
</mgrwt>
</event>
<event>
 5    0  0.1531977E+001  0.6712679E+03  0.7546771E-02  0.9767670E-01
         21   -1    0    0  502  501  0.00000000000E+00  0.00000000000E+00  0.22546346478E+03  0.22546346478E+03  0.00000000000E+00 0.  1.
         21   -1    0    0  504  502 -0.00000000000E+00 -0.00000000000E+00 -0.23547005879E+04  0.23547005879E+04  0.00000000000E+00 0.  1.
         25    1    1    2    0    0 -0.51108418989E+03  0.35443984792E+03 -0.64964802088E+03  0.90802103830E+03  0.12500000000E+03 0.  0.
         21    1    1    2  503  501 -0.42866373592E+02  0.42726044695E+02 -0.24454337340E+02  0.65276760757E+02  0.00000000000E+00 0. -1.
         21    1    1    2  504  503  0.55395056348E+03 -0.39716589262E+03 -0.14551347649E+04  0.16068662537E+04  0.00000000000E+00 0.  1.
<mgrwt>
<rscale>  4 0.67126790E+03</rscale>
<asrwt>0</asrwt>
<pdfrwt beam="1">  1       21 0.34686687E-01 0.67126790E+03</pdfrwt>
<pdfrwt beam="2">  1       21 0.36226162E+00 0.67126790E+03</pdfrwt>
<totfact> 0.79457546E+01</totfact>
</mgrwt>
</event>
<event>
 5    0  0.1531977E+001  0.2738571E+03  0.7546771E-02  0.1099092E+00
         21   -1    0    0  504  501  0.00000000000E+00  0.00000000000E+00  0.18163019383E+04  0.18163019383E+04  0.00000000000E+00 0. -1.
         21   -1    0    0  503  502 -0.00000000000E+00 -0.00000000000E+00 -0.10005804793E+03  0.10005804793E+03  0.00000000000E+00 0. -1.
         25    1    1    2    0    0 -0.15020654098E+03 -0.19845607201E+03  0.11319610438E+04  0.11657219318E+04  0.12500000000E+03 0.  0.
         21    1    1    2  503  501 -0.18981239241E+02  0.27812429856E+03  0.29246157620E+03  0.40403859524E+03  0.00000000000E+00 0. -1.
         21    1    1    2  504  502  0.16918778022E+03 -0.79668226544E+02  0.29182127031E+03  0.34659945918E+03  0.00000000000E+00 0. -1.
<mgrwt>
<rscale>  4 0.27385710E+03</rscale>
<asrwt>0</asrwt>
<pdfrwt beam="1">  1       21 0.27943104E+00 0.27385710E+03</pdfrwt>
<pdfrwt beam="2">  1       21 0.15393547E-01 0.27385710E+03</pdfrwt>
<totfact> 0.15410211E+03</totfact>
</mgrwt>
</event>
<event>
 5    0  0.1531977E+001  0.2333346E+03  0.7546771E-02  0.1124314E+00
         21   -1    0    0  504  501  0.00000000000E+00  0.00000000000E+00  0.21992617996E+04  0.21992617996E+04  0.00000000000E+00 0. -1.
         21   -1    0    0  503  502 -0.00000000000E+00 -0.00000000000E+00 -0.28082783388E+02  0.28082783388E+02  0.00000000000E+00 0. -1.
         25    1    1    2    0    0  0.20735207042E+03 -0.44221903312E+02  0.15120233543E+04  0.15319236541E+04  0.12500000000E+03 0.  0.
         21    1    1    2  503  501 -0.18680594575E+03  0.43653386826E+02  0.51057700272E+03  0.54542731437E+03  0.00000000000E+00 0. -1.
         21    1    1    2  504  502 -0.20546124674E+02  0.56851648542E+00  0.14857865921E+03  0.14999361460E+03  0.00000000000E+00 0. -1.
<mgrwt>
<rscale>  4 0.23333459E+03</rscale>
<asrwt>0</asrwt>
<pdfrwt beam="1">  1       21 0.33834784E+00 0.23333459E+03</pdfrwt>
<pdfrwt beam="2">  1       21 0.43204299E-02 0.23333459E+03</pdfrwt>
<totfact> 0.67347828E+03</totfact>
</mgrwt>
</event>
<event>
 5    0  0.1531977E+001  0.3115531E+03  0.7546771E-02  0.1079604E+00
         21   -1    0    0  502  501  0.00000000000E+00  0.00000000000E+00  0.26579861190E+03  0.26579861190E+03  0.00000000000E+00 0. -1.
         21   -1    0    0  504  502 -0.00000000000E+00 -0.00000000000E+00 -0.86590627037E+03  0.86590627037E+03  0.00000000000E+00 0.  1.
         25    1    1    2    0    0  0.26367408076E+03  0.10057906371E+03 -0.71052132891E+03  0.77466491321E+03  0.12500000000E+03 0.  0.
         21    1    1    2  503  501 -0.28717076675E+03 -0.11025449536E+03  0.11956916421E+03  0.33003013204E+03  0.00000000000E+00 0. -1.
         21    1    1    2  504  503  0.23496685992E+02  0.96754316418E+01 -0.91554937698E+01  0.27009837027E+02  0.00000000000E+00 0.  1.
<mgrwt>
<rscale>  4 0.31155307E+03</rscale>
<asrwt>0</asrwt>
<pdfrwt beam="1">  1       21 0.40892094E-01 0.31155307E+03</pdfrwt>
<pdfrwt beam="2">  1       21 0.13321635E+00 0.31155307E+03</pdfrwt>
<totfact> 0.21456185E+03</totfact>
</mgrwt>
</event>
<event>
 5    0  0.1531977E+001  0.3276071E+03  0.7546771E-02  0.1072201E+00
         21   -1    0    0  503  501  0.00000000000E+00  0.00000000000E+00  0.28661743108E+04  0.28661743108E+04  0.00000000000E+00 0. -1.
         21   -1    0    0  504  502 -0.00000000000E+00 -0.00000000000E+00 -0.51647906678E+03  0.51647906678E+03  0.00000000000E+00 0.  1.
         25    1    1    2    0    0  0.32882502873E+03  0.51965021488E+02 -0.87490661936E+02  0.36620469536E+03  0.12500000000E+03 0.  0.
         21    1    1    2  503  502 -0.29898038010E+02 -0.11023285676E+02 -0.28038000873E+03  0.28218496558E+03  0.00000000000E+00 0.  1.
         21    1    1    2  504  501 -0.29892699072E+03 -0.40941735812E+02  0.27175659147E+04  0.27342637166E+04  0.00000000000E+00 0. -1.
<mgrwt>
<rscale>  4 0.32760708E+03</rscale>
<asrwt>0</asrwt>
<pdfrwt beam="1">  1       21 0.44094988E+00 0.32760708E+03</pdfrwt>
<pdfrwt beam="2">  1       21 0.79458320E-01 0.32760708E+03</pdfrwt>
<totfact> 0.53347046E+00</totfact>
</mgrwt>
</event>
<event>
 5    0  0.1531977E+001  0.2528742E+03  0.7546771E-02  0.1111502E+00
         21   -1    0    0  502  501  0.00000000000E+00  0.00000000000E+00  0.12630348669E+04  0.12630348669E+04  0.00000000000E+00 0. -1.
         21   -1    0    0  504  502 -0.00000000000E+00 -0.00000000000E+00 -0.12924566319E+04  0.12924566319E+04  0.00000000000E+00 0.  1.
         25    1    1    2    0    0  0.31534818240E+03 -0.25474396979E+03 -0.11613543754E+03  0.43983111093E+03  0.12500000000E+03 0.  0.
         21    1    1    2  503  501 -0.13658114002E+03  0.14888516453E+03  0.10810922166E+04  0.10998097931E+04  0.00000000000E+00 0. -1.
         21    1    1    2  504  503 -0.17876704237E+03  0.10585880527E+03 -0.99437854405E+03  0.10158505948E+04  0.00000000000E+00 0.  1.
<mgrwt>
<rscale>  4 0.25287416E+03</rscale>
<asrwt>0</asrwt>
<pdfrwt beam="1">  1       21 0.19431306E+00 0.25287416E+03</pdfrwt>
<pdfrwt beam="2">  1       21 0.19883948E+00 0.25287416E+03</pdfrwt>
<totfact> 0.18186573E+01</totfact>
</mgrwt>
</event>
<event>
 5    0  0.1531977E+001  0.2381915E+03  0.7546771E-02  0.1121003E+00
         21   -1    0    0  502  501  0.00000000000E+00  0.00000000000E+00  0.30458229864E+03  0.30458229864E+03  0.00000000000E+00 0.  1.
         21   -1    0    0  504  502 -0.00000000000E+00 -0.00000000000E+00 -0.62316720298E+03  0.62316720298E+03  0.00000000000E+00 0.  1.
         25    1    1    2    0    0  0.17792993269E+03 -0.13125471070E+03  0.14925735615E+03  0.29460077799E+03  0.12500000000E+03 0.  0.
         21    1    1    2  503  501 -0.27894018668E+01  0.31930266933E+02  0.60101552146E+02  0.68114016763E+02  0.00000000000E+00 0. -1.
         21    1    1    2  504  503 -0.17514053082E+03  0.99324443767E+02 -0.52794381263E+03  0.56503470686E+03  0.00000000000E+00 0.  1.
<mgrwt>
<rscale>  4 0.23819148E+03</rscale>
<asrwt>0</asrwt>
<pdfrwt beam="1">  1       21 0.46858815E-01 0.23819148E+03</pdfrwt>
<pdfrwt beam="2">  1       21 0.95871877E-01 0.23819148E+03</pdfrwt>
<totfact> 0.38181510E+03</totfact>
</mgrwt>
</event>
<event>
 5    0  0.1531977E+001  0.2842327E+03  0.7546771E-02  0.1093399E+00
         21   -1    0    0  502  501  0.00000000000E+00  0.00000000000E+00  0.14622222846E+03  0.14622222846E+03  0.00000000000E+00 0.  1.
         21   -1    0    0  504  502 -0.00000000000E+00 -0.00000000000E+00 -0.11967091338E+04  0.11967091338E+04  0.00000000000E+00 0.  1.
         25    1    1    2    0    0  0.18575759834E+03 -0.11116030246E+03 -0.29288105326E+02  0.25168490478E+03  0.12500000000E+03 0.  0.
         21    1    1    2  503  501  0.56109727841E+02  0.11759564665E+02 -0.27251434407E+02  0.63476212842E+02  0.00000000000E+00 0. -1.
         21    1    1    2  504  503 -0.24186732618E+03  0.99400737794E+02 -0.99394736566E+03  0.10277702447E+04  0.00000000000E+00 0.  1.
<mgrwt>
<rscale>  4 0.28423268E+03</rscale>
<asrwt>0</asrwt>
<pdfrwt beam="1">  1       21 0.22495728E-01 0.28423268E+03</pdfrwt>
<pdfrwt beam="2">  1       21 0.18410909E+00 0.28423268E+03</pdfrwt>
<totfact> 0.29358426E+03</totfact>
</mgrwt>
</event>
<event>
 5    0  0.1531977E+001  0.2086433E+03  0.7546771E-02  0.1142645E+00
         21   -1    0    0  503  501  0.00000000000E+00  0.00000000000E+00  0.32306111308E+03  0.32306111308E+03  0.00000000000E+00 0. -1.
         21   -1    0    0  501  502 -0.00000000000E+00 -0.00000000000E+00 -0.21583963190E+03  0.21583963190E+03  0.00000000000E+00 0. -1.
         25    1    1    2    0    0  0.70651461002E+01 -0.21902261816E+03  0.41624196110E+02  0.25569199686E+03  0.12500000000E+03 0.  0.
         21    1    1    2  503  504  0.14266297271E+01  0.14760326210E+03 -0.42287311541E+02  0.15354795659E+03  0.00000000000E+00 0. -1.
         21    1    1    2  504  502 -0.84917758272E+01  0.71419356060E+02  0.10788459661E+03  0.12966079154E+03  0.00000000000E+00 0. -1.
<mgrwt>
<rscale>  4 0.20864333E+03</rscale>
<asrwt>0</asrwt>
<pdfrwt beam="1">  1       21 0.49701710E-01 0.20864333E+03</pdfrwt>
<pdfrwt beam="2">  1       21 0.33206097E-01 0.20864333E+03</pdfrwt>
<totfact> 0.33406815E+04</totfact>
</mgrwt>
</event>
<event>
 5    0  0.1531977E+001  0.5357444E+03  0.7546771E-02  0.1004848E+00
         21   -1    0    0  502  501  0.00000000000E+00  0.00000000000E+00  0.56974869491E+03  0.56974869491E+03  0.00000000000E+00 0. -1.
         21   -1    0    0  504  502 -0.00000000000E+00 -0.00000000000E+00 -0.60734880002E+03  0.60734880002E+03  0.00000000000E+00 0.  1.
         25    1    1    2    0    0 -0.45739223926E+03 -0.22316130824E+03 -0.17040600266E+03  0.55106427554E+03  0.12500000000E+03 0.  0.
         21    1    1    2  503  501  0.49058998537E+03  0.19446650022E+03  0.18374477063E+03  0.55880040639E+03  0.00000000000E+00 0. -1.
         21    1    1    2  504  503 -0.33197746105E+02  0.28694808015E+02 -0.50938873075E+02  0.67232812998E+02  0.00000000000E+00 0. -1.
<mgrwt>
<rscale>  4 0.53574439E+03</rscale>
<asrwt>0</asrwt>
<pdfrwt beam="1">  1       21 0.87653645E-01 0.53574439E+03</pdfrwt>
<pdfrwt beam="2">  1       21 0.93438277E-01 0.53574439E+03</pdfrwt>
<totfact> 0.88322846E+02</totfact>
</mgrwt>
</event>
<event>
 5    0  0.1531977E+001  0.1802823E+03  0.7546771E-02  0.1167530E+00
         21   -1    0    0  504  501  0.00000000000E+00  0.00000000000E+00  0.63421446490E+03  0.63421446490E+03  0.00000000000E+00 0.  1.
         21   -1    0    0  503  502 -0.00000000000E+00 -0.00000000000E+00 -0.19627313164E+03  0.19627313164E+03  0.00000000000E+00 0.  1.
         25    1    1    2    0    0 -0.89572588935E+02  0.18471512028E+03  0.40239367235E+03  0.46870949627E+03  0.12500000000E+03 0.  0.
         21    1    1    2  503  501  0.35533348217E+02 -0.12046607621E+03 -0.12713388277E+03  0.17871127134E+03  0.00000000000E+00 0.  1.
         21    1    1    2  504  502  0.54039240718E+02 -0.64249044072E+02  0.16268154369E+03  0.18306682894E+03  0.00000000000E+00 0.  1.
<mgrwt>
<rscale>  4 0.18028228E+03</rscale>
<asrwt>0</asrwt>
<pdfrwt beam="1">  1       21 0.97571455E-01 0.18028228E+03</pdfrwt>
<pdfrwt beam="2">  1       21 0.30195867E-01 0.18028228E+03</pdfrwt>
<totfact> 0.92363866E+03</totfact>
</mgrwt>
</event>
<event>
 5    0  0.1531977E+001  0.2316221E+03  0.7546771E-02  0.1125503E+00
         21   -1    0    0  503  501  0.00000000000E+00  0.00000000000E+00  0.58185072413E+03  0.58185072413E+03  0.00000000000E+00 0.  1.
         21   -1    0    0  504  502 -0.00000000000E+00 -0.00000000000E+00 -0.18431004835E+03  0.18431004835E+03  0.00000000000E+00 0.  1.
         25    1    1    2    0    0  0.15979977138E+03  0.14088307082E+03  0.37106930601E+01  0.24702788470E+03  0.12500000000E+03 0.  0.
         21    1    1    2  503  502 -0.35138658240E+02  0.54769441929E+01 -0.34554305301E+02  0.49585504288E+02  0.00000000000E+00 0. -1.
         21    1    1    2  504  501 -0.12466111314E+03 -0.14636001501E+03  0.42838428802E+03  0.46954738350E+03  0.00000000000E+00 0.  1.
<mgrwt>
<rscale>  4 0.23162212E+03</rscale>
<asrwt>0</asrwt>
<pdfrwt beam="1">  1       21 0.89515495E-01 0.23162212E+03</pdfrwt>
<pdfrwt beam="2">  1       21 0.28355392E-01 0.23162212E+03</pdfrwt>
<totfact> 0.12338554E+04</totfact>
</mgrwt>
</event>
<event>
 5    0  0.1531977E+001  0.2290303E+03  0.7546771E-02  0.1127324E+00
         21   -1    0    0  502  501  0.00000000000E+00  0.00000000000E+00  0.27920191376E+02  0.27920191376E+02  0.00000000000E+00 0. -1.
         21   -1    0    0  504  502 -0.00000000000E+00 -0.00000000000E+00 -0.23765836372E+04  0.23765836372E+04  0.00000000000E+00 0. -1.
         25    1    1    2    0    0  0.11335919757E+03 -0.17612149961E+03 -0.13826798120E+04  0.14040290427E+04  0.12500000000E+03 0.  0.
         21    1    1    2  503  501 -0.17006942004E+02  0.26146938449E+02 -0.18282458947E+02  0.36154484808E+02  0.00000000000E+00 0. -1.
         21    1    1    2  504  503 -0.96352255562E+02  0.14997456116E+03 -0.94770117491E+03  0.96432030108E+03  0.00000000000E+00 0. -1.
<mgrwt>
<rscale>  4 0.22903032E+03</rscale>
<asrwt>0</asrwt>
<pdfrwt beam="1">  1       21 0.42954132E-02 0.22903032E+03</pdfrwt>
<pdfrwt beam="2">  1       21 0.36562833E+00 0.22903032E+03</pdfrwt>
<totfact> 0.46966023E+03</totfact>
</mgrwt>
</event>
<event>
 5    0  0.1531977E+001  0.2389212E+03  0.7546771E-02  0.1120514E+00
         21   -1    0    0  503  501  0.00000000000E+00  0.00000000000E+00  0.11693296237E+04  0.11693296237E+04  0.00000000000E+00 0.  1.
         21   -1    0    0  504  502 -0.00000000000E+00 -0.00000000000E+00 -0.43308839816E+02  0.43308839816E+02  0.00000000000E+00 0.  1.
         25    1    1    2    0    0 -0.20253853295E+03  0.20892669594E+02  0.65249462137E+03  0.69486156311E+03  0.12500000000E+03 0.  0.
         21    1    1    2  503  502  0.18207910359E+03 -0.29407104790E+02  0.39084511386E+03  0.43217760331E+03  0.00000000000E+00 0.  1.
         21    1    1    2  504  501  0.20459429364E+02  0.85144351962E+01  0.82681048664E+02  0.85599297104E+02  0.00000000000E+00 0. -1.
<mgrwt>
<rscale>  4 0.23892124E+03</rscale>
<asrwt>0</asrwt>
<pdfrwt beam="1">  1       21 0.17989684E+00 0.23892124E+03</pdfrwt>
<pdfrwt beam="2">  1       21 0.66628993E-02 0.23892124E+03</pdfrwt>
<totfact> 0.29154563E+04</totfact>
</mgrwt>
</event>
<event>
 5    0  0.1531977E+001  0.5576368E+03  0.7546771E-02  0.9997416E-01
         21   -1    0    0  502  501  0.00000000000E+00  0.00000000000E+00  0.80944561235E+03  0.80944561235E+03  0.00000000000E+00 0. -1.
         21   -1    0    0  504  502 -0.00000000000E+00 -0.00000000000E+00 -0.45727011604E+03  0.45727011604E+03  0.00000000000E+00 0. -1.
         25    1    1    2    0    0 -0.45102981407E+03 -0.32456438907E+03 -0.21540132886E+02  0.56996395778E+03  0.12500000000E+03 0.  0.
         21    1    1    2  503  501  0.39801710961E+03  0.34162227200E+03  0.29963420837E+03  0.60407288889E+03  0.00000000000E+00 0. -1.
         21    1    1    2  504  503  0.53012704467E+02 -0.17057882930E+02  0.74081420824E+02  0.92678881717E+02  0.00000000000E+00 0. -1.
<mgrwt>
<rscale>  4 0.55763679E+03</rscale>
<asrwt>0</asrwt>
<pdfrwt beam="1">  1       21 0.12453009E+00 0.55763679E+03</pdfrwt>
<pdfrwt beam="2">  1       21 0.70349249E-01 0.55763679E+03</pdfrwt>
<totfact> 0.71368422E+02</totfact>
</mgrwt>
</event>
<event>
 5    0  0.1531977E+001  0.2497278E+03  0.7546771E-02  0.1113477E+00
         21   -1    0    0  502  501  0.00000000000E+00  0.00000000000E+00  0.20498336029E+04  0.20498336029E+04  0.00000000000E+00 0. -1.
         21   -1    0    0  504  502 -0.00000000000E+00 -0.00000000000E+00 -0.94985954583E+02  0.94985954583E+02  0.00000000000E+00 0. -1.
         25    1    1    2    0    0  0.24202757558E+03  0.13038605569E+03  0.28181249181E+03  0.41306313247E+03  0.12500000000E+03 0.  0.
         21    1    1    2  503  501 -0.17556209637E+03 -0.11577294738E+03  0.16446174122E+04  0.16580084010E+04  0.00000000000E+00 0. -1.
         21    1    1    2  504  503 -0.66465479215E+02 -0.14613108314E+02  0.28417744259E+02  0.73748024046E+02  0.00000000000E+00 0. -1.
<mgrwt>
<rscale>  4 0.24972782E+03</rscale>
<asrwt>0</asrwt>
<pdfrwt beam="1">  1       21 0.31535898E+00 0.24972782E+03</pdfrwt>
<pdfrwt beam="2">  1       21 0.14613225E-01 0.24972782E+03</pdfrwt>
<totfact> 0.10687834E+03</totfact>
</mgrwt>
</event>
<event>
 5    0  0.1531977E+001  0.2323814E+03  0.7546771E-02  0.1124975E+00
         21   -1    0    0  504  501  0.00000000000E+00  0.00000000000E+00  0.81380110416E+03  0.81380110416E+03  0.00000000000E+00 0. -1.
         21   -1    0    0  503  502 -0.00000000000E+00 -0.00000000000E+00 -0.52697319441E+03  0.52697319441E+03  0.00000000000E+00 0.  1.
         25    1    1    2    0    0 -0.13546455885E+03 -0.19422785930E+03  0.67188987762E+03  0.72328149132E+03  0.12500000000E+03 0.  0.
         21    1    1    2  503  501  0.54105359854E+02  0.18743703939E+03 -0.46436132493E+03  0.50367794650E+03  0.00000000000E+00 0.  1.
         21    1    1    2  504  502  0.81359198997E+02  0.67908199155E+01  0.79299357061E+02  0.11381486075E+03  0.00000000000E+00 0.  1.
<mgrwt>
<rscale>  4 0.23238140E+03</rscale>
<asrwt>0</asrwt>
<pdfrwt beam="1">  1       21 0.12520017E+00 0.23238140E+03</pdfrwt>
<pdfrwt beam="2">  1       21 0.81072799E-01 0.23238140E+03</pdfrwt>
<totfact> 0.60901424E+02</totfact>
</mgrwt>
</event>
<event>
 5    0  0.1531977E+001  0.2179764E+03  0.7546771E-02  0.1135401E+00
         21   -1    0    0  502  501  0.00000000000E+00  0.00000000000E+00  0.68749950136E+03  0.68749950136E+03  0.00000000000E+00 0. -1.
         21   -1    0    0  504  502 -0.00000000000E+00 -0.00000000000E+00 -0.18496015870E+03  0.18496015870E+03  0.00000000000E+00 0. -1.
         25    1    1    2    0    0  0.10763831196E+03 -0.20249962033E+03  0.46124595538E+03  0.53006125475E+03  0.12500000000E+03 0.  0.
         21    1    1    2  503  501 -0.32775556051E+01  0.14168911456E+03  0.13017325348E+03  0.19243602437E+03  0.00000000000E+00 0. -1.
         21    1    1    2  504  503 -0.10436075636E+03  0.60810505770E+02 -0.88879866205E+02  0.14996238094E+03  0.00000000000E+00 0. -1.
<mgrwt>
<rscale>  4 0.21797637E+03</rscale>
<asrwt>0</asrwt>
<pdfrwt beam="1">  1       21 0.10576915E+00 0.21797637E+03</pdfrwt>
<pdfrwt beam="2">  1       21 0.28455409E-01 0.21797637E+03</pdfrwt>
<totfact> 0.83265198E+03</totfact>
</mgrwt>
</event>
<event>
 5    0  0.1531977E+001  0.3507412E+03  0.7546771E-02  0.1062311E+00
         21   -1    0    0  504  501  0.00000000000E+00  0.00000000000E+00  0.27962593956E+03  0.27962593956E+03  0.00000000000E+00 0. -1.
         21   -1    0    0  503  502 -0.00000000000E+00 -0.00000000000E+00 -0.73673850844E+03  0.73673850844E+03  0.00000000000E+00 0. -1.
         25    1    1    2    0    0  0.70063656186E+02  0.33235646048E+03  0.22283356081E+02  0.36261726475E+03  0.12500000000E+03 0.  0.
         21    1    1    2  503  501 -0.48631966759E+01 -0.30953233723E+02 -0.29035527155E+03  0.29204098526E+03  0.00000000000E+00 0. -1.
         21    1    1    2  504  502 -0.65200459510E+02 -0.30140322675E+03 -0.18904065342E+03  0.36170619799E+03  0.00000000000E+00 0. -1.
<mgrwt>
<rscale>  4 0.35074118E+03</rscale>
<asrwt>0</asrwt>
<pdfrwt beam="1">  1       21 0.43019375E-01 0.35074118E+03</pdfrwt>
<pdfrwt beam="2">  1       21 0.11334439E+00 0.35074118E+03</pdfrwt>
<totfact> 0.28501876E+03</totfact>
</mgrwt>
</event>
<event>
 5    0  0.1531977E+001  0.2878331E+03  0.7546771E-02  0.1091486E+00
         21   -1    0    0  502  501  0.00000000000E+00  0.00000000000E+00  0.14260091650E+04  0.14260091650E+04  0.00000000000E+00 0.  1.
         21   -1    0    0  504  502 -0.00000000000E+00 -0.00000000000E+00 -0.54397293716E+02  0.54397293716E+02  0.00000000000E+00 0.  1.
         25    1    1    2    0    0  0.45199083526E+02 -0.25530362927E+03  0.62328830959E+03  0.68653930488E+03  0.12500000000E+03 0.  0.
         21    1    1    2  503  501 -0.50959535313E+02  0.22962154639E+03  0.70472075968E+03  0.74293625428E+03  0.00000000000E+00 0.  1.
         21    1    1    2  504  503  0.57604517875E+01  0.25682082880E+02  0.43602802020E+02  0.50930899558E+02  0.00000000000E+00 0.  1.
<mgrwt>
<rscale>  4 0.28783311E+03</rscale>
<asrwt>0</asrwt>
<pdfrwt beam="1">  1       21 0.21938600E+00 0.28783311E+03</pdfrwt>
<pdfrwt beam="2">  1       21 0.83688155E-02 0.28783311E+03</pdfrwt>
<totfact> 0.10504149E+04</totfact>
</mgrwt>
</event>
<event>
 5    0  0.1531977E+001  0.2868156E+03  0.7546771E-02  0.1092024E+00
         21   -1    0    0  502  501  0.00000000000E+00  0.00000000000E+00  0.51428142696E+03  0.51428142696E+03  0.00000000000E+00 0.  1.
         21   -1    0    0  504  502 -0.00000000000E+00 -0.00000000000E+00 -0.36189298991E+03  0.36189298991E+03  0.00000000000E+00 0.  1.
         25    1    1    2    0    0  0.24676708539E+03  0.12082581557E+03  0.38157755725E+03  0.48653808108E+03  0.12500000000E+03 0.  0.
         21    1    1    2  503  501 -0.19107808659E+03 -0.88471075448E+02 -0.76693642157E+02  0.22409792751E+03  0.00000000000E+00 0.  1.
         21    1    1    2  504  503 -0.55688998795E+02 -0.32354740118E+02 -0.15249547804E+03  0.16553840829E+03  0.00000000000E+00 0.  1.
<mgrwt>
<rscale>  4 0.28681565E+03</rscale>
<asrwt>0</asrwt>
<pdfrwt beam="1">  1       21 0.79120219E-01 0.28681565E+03</pdfrwt>
<pdfrwt beam="2">  1       21 0.55675845E-01 0.28681565E+03</pdfrwt>
<totfact> 0.40223511E+03</totfact>
</mgrwt>
</event>
<event>
 5    0  0.1531977E+001  0.2727606E+03  0.7546771E-02  0.1099710E+00
         21   -1    0    0  502  501  0.00000000000E+00  0.00000000000E+00  0.57829337584E+03  0.57829337584E+03  0.00000000000E+00 0. -1.
         21   -1    0    0  504  502 -0.00000000000E+00 -0.00000000000E+00 -0.54159440290E+03  0.54159440290E+03  0.00000000000E+00 0. -1.
         25    1    1    2    0    0  0.57925048012E+02  0.22016670658E+03  0.33632535256E+03  0.42493344496E+03  0.12500000000E+03 0.  0.
         21    1    1    2  503  501 -0.94945249367E+02 -0.25865735650E+03  0.98991035503E+02  0.29277543196E+03  0.00000000000E+00 0. -1.
         21    1    1    2  504  503  0.37020201356E+02  0.38490649916E+02 -0.39861741512E+03  0.40217890182E+03  0.00000000000E+00 0. -1.
<mgrwt>
<rscale>  4 0.27276055E+03</rscale>
<asrwt>0</asrwt>
<pdfrwt beam="1">  1       21 0.88968212E-01 0.27276055E+03</pdfrwt>
<pdfrwt beam="2">  1       21 0.83322216E-01 0.27276055E+03</pdfrwt>
<totfact> 0.12664966E+03</totfact>
</mgrwt>
</event>
<event>
 5    0  0.1531977E+001  0.2456897E+03  0.7546771E-02  0.1116060E+00
         21   -1    0    0  504  501  0.00000000000E+00  0.00000000000E+00  0.49869511249E+03  0.49869511249E+03  0.00000000000E+00 0.  1.
         21   -1    0    0  503  502 -0.00000000000E+00 -0.00000000000E+00 -0.21461859611E+03  0.21461859611E+03  0.00000000000E+00 0.  1.
         25    1    1    2    0    0  0.42155259761E+02 -0.22072569957E+03  0.30121015385E+03  0.39604224163E+03  0.12500000000E+03 0.  0.
         21    1    1    2  503  501 -0.72499901068E+01  0.30071783884E+02 -0.10133341501E+03  0.10594968400E+03  0.00000000000E+00 0.  1.
         21    1    1    2  504  502 -0.34905269654E+02  0.19065391568E+03  0.84199777542E+02  0.21132178296E+03  0.00000000000E+00 0.  1.
<mgrwt>
<rscale>  4 0.24568973E+03</rscale>
<asrwt>0</asrwt>
<pdfrwt beam="1">  1       21 0.76722325E-01 0.24568973E+03</pdfrwt>
<pdfrwt beam="2">  1       21 0.33018246E-01 0.24568973E+03</pdfrwt>
<totfact> 0.12924162E+04</totfact>
</mgrwt>
</event>
<event>
 5    0  0.1531977E+001  0.2214534E+03  0.7546771E-02  0.1132804E+00
         21   -1    0    0  502  501  0.00000000000E+00  0.00000000000E+00  0.37371025856E+03  0.37371025856E+03  0.00000000000E+00 0.  1.
         21   -1    0    0  504  502 -0.00000000000E+00 -0.00000000000E+00 -0.25508346157E+03  0.25508346157E+03  0.00000000000E+00 0.  1.
         25    1    1    2    0    0 -0.17522435335E+03  0.13154526446E+03  0.53416732189E+02  0.25784894393E+03  0.12500000000E+03 0.  0.
         21    1    1    2  503  501  0.29012302986E+02 -0.18205071509E+03  0.10373498248E+03  0.21153043086E+03  0.00000000000E+00 0.  1.
         21    1    1    2  504  503  0.14621205036E+03  0.50505450630E+02 -0.38524917684E+02  0.15941434533E+03  0.00000000000E+00 0.  1.
<mgrwt>
<rscale>  4 0.22145345E+03</rscale>
<asrwt>0</asrwt>
<pdfrwt beam="1">  1       21 0.57493886E-01 0.22145345E+03</pdfrwt>
<pdfrwt beam="2">  1       21 0.39243609E-01 0.22145345E+03</pdfrwt>
<totfact> 0.17468564E+04</totfact>
</mgrwt>
</event>
<event>
 5    0  0.1531977E+001  0.7126563E+03  0.7546771E-02  0.9695830E-01
         21   -1    0    0  503  501  0.00000000000E+00  0.00000000000E+00  0.17562298856E+04  0.17562298856E+04  0.00000000000E+00 0. -1.
         21   -1    0    0  504  502 -0.00000000000E+00 -0.00000000000E+00 -0.45839793901E+03  0.45839793901E+03  0.00000000000E+00 0.  1.
         25    1    1    2    0    0 -0.65803688195E+03  0.91576511240E+02  0.98265920173E+03  0.11927459504E+04  0.12500000000E+03 0.  0.
         21    1    1    2  503  502  0.70485689815E+03 -0.11438270502E+03  0.11906838003E+02  0.71417674484E+03  0.00000000000E+00 0.  1.
         21    1    1    2  504  501 -0.46820016201E+02  0.22806193784E+02  0.30326590688E+03  0.30770512941E+03  0.00000000000E+00 0. -1.
<mgrwt>
<rscale>  4 0.71265631E+03</rscale>
<asrwt>0</asrwt>
<pdfrwt beam="1">  1       21 0.27018921E+00 0.71265631E+03</pdfrwt>
<pdfrwt beam="2">  1       21 0.70522761E-01 0.71265631E+03</pdfrwt>
<totfact> 0.62900195E+01</totfact>
</mgrwt>
</event>
<event>
 5    0  0.1531977E+001  0.3631976E+03  0.7546771E-02  0.1057325E+00
         21   -1    0    0  502  501  0.00000000000E+00  0.00000000000E+00  0.17040742830E+04  0.17040742830E+04  0.00000000000E+00 0.  1.
         21   -1    0    0  504  502 -0.00000000000E+00 -0.00000000000E+00 -0.20957120431E+03  0.20957120431E+03  0.00000000000E+00 0.  1.
         25    1    1    2    0    0 -0.65777423280E+02 -0.33460543682E+03 -0.13072472945E+02  0.36343274111E+03  0.12500000000E+03 0.  0.
         21    1    1    2  503  501  0.56797601242E+02  0.26473930540E+03  0.93798754591E+03  0.97628556459E+03  0.00000000000E+00 0.  1.
         21    1    1    2  504  503  0.89798220382E+01  0.69866131420E+02  0.56958800568E+03  0.57392718156E+03  0.00000000000E+00 0.  1.
<mgrwt>
<rscale>  4 0.36319756E+03</rscale>
<asrwt>0</asrwt>
<pdfrwt beam="1">  1       21 0.26216527E+00 0.36319756E+03</pdfrwt>
<pdfrwt beam="2">  1       21 0.32241725E-01 0.36319756E+03</pdfrwt>
<totfact> 0.44339622E+02</totfact>
</mgrwt>
</event>
<event>
 5    0  0.1531977E+001  0.3185100E+03  0.7546771E-02  0.1076337E+00
         21   -1    0    0  502  501  0.00000000000E+00  0.00000000000E+00  0.60316492388E+03  0.60316492388E+03  0.00000000000E+00 0. -1.
         21   -1    0    0  504  502 -0.00000000000E+00 -0.00000000000E+00 -0.53915287900E+03  0.53915287900E+03  0.00000000000E+00 0. -1.
         25    1    1    2    0    0  0.16419650260E+03  0.25226898782E+03 -0.38538479746E+03  0.50472425719E+03  0.12500000000E+03 0.  0.
         21    1    1    2  503  501 -0.17472809483E+03 -0.23431954145E+03  0.50207126126E+03  0.58095706039E+03  0.00000000000E+00 0. -1.
         21    1    1    2  504  503  0.10531592229E+02 -0.17949446368E+02 -0.52674418918E+02  0.56636485309E+02  0.00000000000E+00 0. -1.
<mgrwt>
<rscale>  4 0.31850999E+03</rscale>
<asrwt>0</asrwt>
<pdfrwt beam="1">  1       21 0.92794604E-01 0.31850999E+03</pdfrwt>
<pdfrwt beam="2">  1       21 0.82946597E-01 0.31850999E+03</pdfrwt>
<totfact> 0.11259520E+03</totfact>
</mgrwt>
</event>
<event>
 5    0  0.1531977E+001  0.2492318E+03  0.7546771E-02  0.1113791E+00
         21   -1    0    0  502  501  0.00000000000E+00  0.00000000000E+00  0.98022921975E+02  0.98022921975E+02  0.00000000000E+00 0. -1.
         21   -1    0    0  504  502 -0.00000000000E+00 -0.00000000000E+00 -0.64414340761E+03  0.64414340761E+03  0.00000000000E+00 0.  1.
         25    1    1    2    0    0 -0.19558685243E+03 -0.88471052492E+02 -0.30827051232E+03  0.39590030656E+03  0.12500000000E+03 0.  0.
         21    1    1    2  503  501  0.18250514098E+03  0.11781057751E+03 -0.18978348184E+03  0.28845316541E+03  0.00000000000E+00 0. -1.
         21    1    1    2  504  503  0.13081711449E+02 -0.29339525016E+02 -0.48066491477E+02  0.57812857614E+02  0.00000000000E+00 0. -1.
<mgrwt>
<rscale>  4 0.24923185E+03</rscale>
<asrwt>0</asrwt>
<pdfrwt beam="1">  1       21 0.15080449E-01 0.24923185E+03</pdfrwt>
<pdfrwt beam="2">  1       21 0.99098990E-01 0.24923185E+03</pdfrwt>
<totfact> 0.31646395E+04</totfact>
</mgrwt>
</event>
<event>
 5    0  0.1531977E+001  0.2561196E+03  0.7546771E-02  0.1109497E+00
         21   -1    0    0  504  501  0.00000000000E+00  0.00000000000E+00  0.30346388375E+03  0.30346388375E+03  0.00000000000E+00 0. -1.
         21   -1    0    0  503  502 -0.00000000000E+00 -0.00000000000E+00 -0.32951061141E+03  0.32951061141E+03  0.00000000000E+00 0. -1.
         25    1    1    2    0    0  0.22688024207E+03 -0.13046698082E+03  0.10282990510E+03  0.30772596041E+03  0.12500000000E+03 0.  0.
         21    1    1    2  503  501 -0.18161852023E+03  0.11251915451E+03 -0.16047456834E+03  0.26720391858E+03  0.00000000000E+00 0. -1.
         21    1    1    2  504  502 -0.45261721842E+02  0.17947826313E+02  0.31597935580E+02  0.58044616171E+02  0.00000000000E+00 0. -1.
<mgrwt>
<rscale>  4 0.25611962E+03</rscale>
<asrwt>0</asrwt>
<pdfrwt beam="1">  1       21 0.46686751E-01 0.25611962E+03</pdfrwt>
<pdfrwt beam="2">  1       21 0.50693940E-01 0.25611962E+03</pdfrwt>
<totfact> 0.15691821E+04</totfact>
</mgrwt>
</event>
<event>
 5    0  0.1531977E+001  0.3044405E+03  0.7546771E-02  0.1083042E+00
         21   -1    0    0  503  501  0.00000000000E+00  0.00000000000E+00  0.13494710020E+04  0.13494710020E+04  0.00000000000E+00 0. -1.
         21   -1    0    0  504  502 -0.00000000000E+00 -0.00000000000E+00 -0.82450775298E+03  0.82450775298E+03  0.00000000000E+00 0. -1.
         25    1    1    2    0    0 -0.17569364572E+02  0.37678325552E+03 -0.63749568603E+03  0.75119907742E+03  0.12500000000E+03 0.  0.
         21    1    1    2  503  502  0.10314842041E+02 -0.10142438829E+03 -0.92675146870E+02  0.13777512603E+03  0.00000000000E+00 0. -1.
         21    1    1    2  504  501  0.72545225310E+01 -0.27535886723E+03  0.12551340819E+04  0.12850045515E+04  0.00000000000E+00 0. -1.
<mgrwt>
<rscale>  4 0.30444055E+03</rscale>
<asrwt>0</asrwt>
<pdfrwt beam="1">  1       21 0.20761092E+00 0.30444055E+03</pdfrwt>
<pdfrwt beam="2">  1       21 0.12684735E+00 0.30444055E+03</pdfrwt>
<totfact> 0.48134016E+01</totfact>
</mgrwt>
</event>
<event>
 5    0  0.1531977E+001  0.3238399E+03  0.7546771E-02  0.1073895E+00
         21   -1    0    0  502  501  0.00000000000E+00  0.00000000000E+00  0.29944915976E+03  0.29944915976E+03  0.00000000000E+00 0.  1.
         21   -1    0    0  504  502 -0.00000000000E+00 -0.00000000000E+00 -0.38032773477E+03  0.38032773477E+03  0.00000000000E+00 0.  1.
         25    1    1    2    0    0  0.27699992235E+03  0.48582169670E+02 -0.13285596558E+03  0.33520872867E+03  0.12500000000E+03 0.  0.
         21    1    1    2  503  501  0.24987764387E+02  0.13041940861E+02 -0.10517640923E+02  0.30084902544E+02  0.00000000000E+00 0.  1.
         21    1    1    2  504  503 -0.30198768673E+03 -0.61624110531E+02  0.62495031492E+02  0.31448326330E+03  0.00000000000E+00 0.  1.
<mgrwt>
<rscale>  4 0.32383995E+03</rscale>
<asrwt>0</asrwt>
<pdfrwt beam="1">  1       21 0.46069102E-01 0.32383995E+03</pdfrwt>
<pdfrwt beam="2">  1       21 0.58511959E-01 0.32383995E+03</pdfrwt>
<totfact> 0.11525999E+04</totfact>
</mgrwt>
</event>
<event>
 5    0  0.1531977E+001  0.3117995E+03  0.7546771E-02  0.1079487E+00
         21   -1    0    0  502  501  0.00000000000E+00  0.00000000000E+00  0.13813799820E+04  0.13813799820E+04  0.00000000000E+00 0. -1.
         21   -1    0    0  504  502 -0.00000000000E+00 -0.00000000000E+00 -0.11624647346E+03  0.11624647346E+03  0.00000000000E+00 0. -1.
         25    1    1    2    0    0 -0.20007676752E+03 -0.15585547801E+03  0.72279403095E+03  0.77613004973E+03  0.12500000000E+03 0.  0.
         21    1    1    2  503  501 -0.43960718445E+02 -0.12362530230E+02  0.38159234696E+03  0.38431510011E+03  0.00000000000E+00 0.  1.
         21    1    1    2  504  503  0.24403748596E+03  0.16821800824E+03  0.16074713065E+03  0.33718130562E+03  0.00000000000E+00 0. -1.
<mgrwt>
<rscale>  4 0.31179947E+03</rscale>
<asrwt>0</asrwt>
<pdfrwt beam="1">  1       21 0.21251999E+00 0.31179947E+03</pdfrwt>
<pdfrwt beam="2">  1       21 0.17884074E-01 0.31179947E+03</pdfrwt>
<totfact> 0.28908460E+03</totfact>
</mgrwt>
</event>
<event>
 5    0  0.1531977E+001  0.3268279E+03  0.7546771E-02  0.1072549E+00
         21   -1    0    0  503  501  0.00000000000E+00  0.00000000000E+00  0.48980963276E+03  0.48980963276E+03  0.00000000000E+00 0. -1.
         21   -1    0    0  501  502 -0.00000000000E+00 -0.00000000000E+00 -0.24404399854E+03  0.24404399854E+03  0.00000000000E+00 0. -1.
         25    1    1    2    0    0  0.31162387173E+03 -0.22840953474E+02  0.65512482937E+02  0.34285278475E+03  0.12500000000E+03 0.  0.
         21    1    1    2  503  504 -0.28762197162E+03  0.49761119400E+02  0.10981941995E+03  0.31186996098E+03  0.00000000000E+00 0. -1.
         21    1    1    2  504  502 -0.24001900113E+02 -0.26920165926E+02  0.70433731327E+02  0.79130885570E+02  0.00000000000E+00 0.  1.
<mgrwt>
<rscale>  4 0.32682793E+03</rscale>
<asrwt>0</asrwt>
<pdfrwt beam="1">  1       21 0.75355328E-01 0.32682793E+03</pdfrwt>
<pdfrwt beam="2">  1       21 0.37545231E-01 0.32682793E+03</pdfrwt>
<totfact> 0.10014057E+04</totfact>
</mgrwt>
</event>
<event>
 5    0  0.1531977E+001  0.2181022E+03  0.7546771E-02  0.1135306E+00
         21   -1    0    0  502  501  0.00000000000E+00  0.00000000000E+00  0.16774720729E+04  0.16774720729E+04  0.00000000000E+00 0. -1.
         21   -1    0    0  504  502 -0.00000000000E+00 -0.00000000000E+00 -0.85069150249E+02  0.85069150249E+02  0.00000000000E+00 0. -1.
         25    1    1    2    0    0  0.11942022061E+03  0.18095975775E+03  0.29724473470E+03  0.38857052812E+03  0.12500000000E+03 0.  0.
         21    1    1    2  503  501 -0.10455965242E+03 -0.13906717479E+03  0.13141611014E+04  0.13256288321E+04  0.00000000000E+00 0. -1.
         21    1    1    2  504  503 -0.14860568191E+02 -0.41892582965E+02 -0.19002913441E+02  0.48341862952E+02  0.00000000000E+00 0. -1.
<mgrwt>
<rscale>  4 0.21810218E+03</rscale>
<asrwt>0</asrwt>
<pdfrwt beam="1">  1       21 0.25807260E+00 0.21810218E+03</pdfrwt>
<pdfrwt beam="2">  1       21 0.13087563E-01 0.21810218E+03</pdfrwt>
<totfact> 0.29143742E+03</totfact>
</mgrwt>
</event>
<event>
 5    0  0.1531977E+001  0.2478421E+03  0.7546771E-02  0.1114676E+00
         21   -1    0    0  502  501  0.00000000000E+00  0.00000000000E+00  0.21916804676E+03  0.21916804676E+03  0.00000000000E+00 0.  1.
         21   -1    0    0  504  502 -0.00000000000E+00 -0.00000000000E+00 -0.66469315233E+03  0.66469315233E+03  0.00000000000E+00 0.  1.
         25    1    1    2    0    0 -0.22003415259E+03 -0.37243303859E+02 -0.48354990270E+03  0.54703528258E+03  0.12500000000E+03 0.  0.
         21    1    1    2  503  501  0.24667975555E+02  0.23448333610E+02  0.11983427905E+03  0.12457362402E+03  0.00000000000E+00 0.  1.
         21    1    1    2  504  503  0.19536617703E+03  0.13794970249E+02 -0.81809481909E+02  0.21225229248E+03  0.00000000000E+00 0.  1.
<mgrwt>
<rscale>  4 0.24784211E+03</rscale>
<asrwt>0</asrwt>
<pdfrwt beam="1">  1       21 0.33718161E-01 0.24784211E+03</pdfrwt>
<pdfrwt beam="2">  1       21 0.10226048E+00 0.24784211E+03</pdfrwt>
<totfact> 0.63479149E+03</totfact>
</mgrwt>
</event>
