<event>
 5    0  0.1911311E+001  0.3476871E+03  0.7546771E-02  0.1063568E+00
         21   -1    0    0  504  501  0.00000000000E+00  0.00000000000E+00  0.14709324983E+04  0.14709324983E+04  0.00000000000E+00 0. -1.
         21   -1    0    0  503  502 -0.00000000000E+00 -0.00000000000E+00 -0.19853717582E+03  0.19853717582E+03  0.00000000000E+00 0. -1.
         25    1    1    2    0    0 -0.21449572636E+03 -0.29807759288E+03  0.12067502925E+03  0.40625869921E+03  0.12500000000E+03 0.  0.
         21    1    1    2  503  501  0.13227915046E+03  0.23476809877E+03  0.29233920636E+03  0.39758778329E+03  0.00000000000E+00 0. -1.
         21    1    1    2  504  502  0.82216575898E+02  0.63309494110E+02  0.85938108687E+03  0.86562319162E+03  0.00000000000E+00 0. -1.
<mgrwt>
<rscale>  4 0.34768714E+03</rscale>
<asrwt>0</asrwt>
<pdfrwt beam="1">  1       21 0.22629730E+00 0.34768714E+03</pdfrwt>
<pdfrwt beam="2">  1       21 0.30544182E-01 0.34768714E+03</pdfrwt>
<totfact> 0.82679560E+02</totfact>
</mgrwt>
</event>
<event>
 5    0  0.1911311E+001  0.3084592E+03  0.7546771E-02  0.1081087E+00
         21   -1    0    0  504  501  0.00000000000E+00  0.00000000000E+00  0.13722673273E+04  0.13722673273E+04  0.00000000000E+00 0. -1.
         21   -1    0    0  503  502 -0.00000000000E+00 -0.00000000000E+00 -0.16929685240E+03  0.16929685240E+03  0.00000000000E+00 0. -1.
         25    1    1    2    0    0  0.23566604276E+03  0.55792192449E+02  0.62952770616E+03  0.68598934779E+03  0.12500000000E+03 0.  0.
         21    1    1    2  503  501 -0.28429852051E+03 -0.62865776043E+02  0.11401754154E+02  0.29138935218E+03  0.00000000000E+00 0. -1.
         21    1    1    2  504  502  0.48632477750E+02  0.70735835939E+01  0.56204101457E+03  0.56418547973E+03  0.00000000000E+00 0. -1.
<mgrwt>
<rscale>  4 0.30845917E+03</rscale>
<asrwt>0</asrwt>
<pdfrwt beam="1">  1       21 0.21111804E+00 0.30845917E+03</pdfrwt>
<pdfrwt beam="2">  1       21 0.26045670E-01 0.30845917E+03</pdfrwt>
<totfact> 0.14464268E+03</totfact>
</mgrwt>
</event>
<event>
 5    0  0.1911311E+001  0.2636626E+03  0.7546771E-02  0.1104962E+00
         21   -1    0    0  502  501  0.00000000000E+00  0.00000000000E+00  0.47467732370E+03  0.47467732370E+03  0.00000000000E+00 0.  1.
         21   -1    0    0  504  502 -0.00000000000E+00 -0.00000000000E+00 -0.13562232008E+03  0.13562232008E+03  0.00000000000E+00 0.  1.
         25    1    1    2    0    0 -0.20986256286E+03  0.99250620346E+02  0.21733304091E+03  0.34168937882E+03  0.12500000000E+03 0.  0.
         21    1    1    2  503  501  0.56170102079E+02 -0.41005076566E+02  0.63703922507E+02  0.94311645169E+02  0.00000000000E+00 0.  1.
         21    1    1    2  504  503  0.15369246078E+03 -0.58245543780E+02  0.58018040205E+02  0.17429861979E+03  0.00000000000E+00 0.  1.
<mgrwt>
<rscale>  4 0.26366263E+03</rscale>
<asrwt>0</asrwt>
<pdfrwt beam="1">  1       21 0.73027280E-01 0.26366263E+03</pdfrwt>
<pdfrwt beam="2">  1       21 0.20864973E-01 0.26366263E+03</pdfrwt>
<totfact> 0.34780124E+04</totfact>
</mgrwt>
</event>
<event>
 5    0  0.2007333E+001  0.2605644E+03  0.7546771E-02  0.1106805E+00
         21   -1    0    0  502  501  0.00000000000E+00  0.00000000000E+00  0.38947585472E+03  0.38947585472E+03  0.00000000000E+00 0.  1.
         21   -1    0    0  504  502 -0.00000000000E+00 -0.00000000000E+00 -0.18597055912E+03  0.18597055912E+03  0.00000000000E+00 0.  1.
         25    1    1    2    0    0  0.17552052944E+03 -0.13961777296E+03  0.55596960068E+02  0.26271010782E+03  0.12500000000E+03 0.  0.
         21    1    1    2  503  501 -0.16272701268E+03  0.16505755560E+03  0.16016075082E+03  0.28173665615E+03  0.00000000000E+00 0.  1.
         21    1    1    2  504  503 -0.12793516761E+02 -0.25439782641E+02 -0.12252415277E+02  0.30999649870E+02  0.00000000000E+00 0. -1.
<mgrwt>
<rscale>  4 0.26056439E+03</rscale>
<asrwt>0</asrwt>
<pdfrwt beam="1">  1       21 0.59919362E-01 0.26056439E+03</pdfrwt>
<pdfrwt beam="2">  1       21 0.28610855E-01 0.26056439E+03</pdfrwt>
<totfact> 0.29364875E+04</totfact>
</mgrwt>
</event>
