<event>
 5    0  0.1911311E+001  0.3000020E+03  0.7546771E-02  0.1085240E+00
         21   -1    0    0  502  501  0.00000000000E+00  0.00000000000E+00  0.73850946769E+03  0.73850946769E+03  0.00000000000E+00 0. -1.
         21   -1    0    0  504  502 -0.00000000000E+00 -0.00000000000E+00 -0.91257317868E+03  0.91257317868E+03  0.00000000000E+00 0. -1.
         25    1    1    2    0    0  0.11901289572E+03  0.24845395357E+03 -0.80486735709E+03  0.85984295014E+03  0.12500000000E+03 0.  0.
         21    1    1    2  503  501 -0.14138519568E+03 -0.23315448179E+03  0.68134962928E+03  0.73388562001E+03  0.00000000000E+00 0. -1.
         21    1    1    2  504  503  0.22372299960E+02 -0.15299471783E+02 -0.50545983186E+02  0.57354076215E+02  0.00000000000E+00 0. -1.
<mgrwt>
<rscale>  4 0.30000199E+03</rscale>
<asrwt>0</asrwt>
<pdfrwt beam="1">  1       21 0.11361684E+00 0.30000199E+03</pdfrwt>
<pdfrwt beam="2">  1       21 0.14039587E+00 0.30000199E+03</pdfrwt>
<totfact> 0.19235101E+02</totfact>
</mgrwt>
</event>
<event>
 5    0  0.1911311E+001  0.2909539E+03  0.7546771E-02  0.1089852E+00
         21   -1    0    0  504  501  0.00000000000E+00  0.00000000000E+00  0.70285504226E+03  0.70285504226E+03  0.00000000000E+00 0.  1.
         21   -1    0    0  503  502 -0.00000000000E+00 -0.00000000000E+00 -0.13163728603E+03  0.13163728603E+03  0.00000000000E+00 0.  1.
         25    1    1    2    0    0  0.24622192357E+03  0.57166271017E+02  0.23032120153E+03  0.36409624286E+03  0.12500000000E+03 0.  0.
         21    1    1    2  503  501 -0.26013530070E+03 -0.83273167900E+02  0.23459528210E+03  0.36005519236E+03  0.00000000000E+00 0.  1.
         21    1    1    2  504  502  0.13913377129E+02  0.26106896882E+02  0.10630127259E+03  0.11034089307E+03  0.00000000000E+00 0.  1.
<mgrwt>
<rscale>  4 0.29095390E+03</rscale>
<asrwt>0</asrwt>
<pdfrwt beam="1">  1       21 0.10813154E+00 0.29095390E+03</pdfrwt>
<pdfrwt beam="2">  1       21 0.20251891E-01 0.29095390E+03</pdfrwt>
<totfact> 0.14534351E+04</totfact>
</mgrwt>
</event>
<event>
 5    0  0.1911311E+001  0.4884387E+03  0.7546771E-02  0.1016841E+00
         21   -1    0    0  504  501  0.00000000000E+00  0.00000000000E+00  0.12136693685E+04  0.12136693685E+04  0.00000000000E+00 0.  1.
         21   -1    0    0  503  502 -0.00000000000E+00 -0.00000000000E+00 -0.66625484729E+03  0.66625484729E+03  0.00000000000E+00 0. -1.
         25    1    1    2    0    0 -0.35440565385E+03  0.33556829291E+03  0.86912273040E+03  0.10045938320E+04  0.12500000000E+03 0.  0.
         21    1    1    2  503  501  0.32505105079E+03 -0.34037987601E+03 -0.50460462709E+03  0.69003077851E+03  0.00000000000E+00 0. -1.
         21    1    1    2  504  502  0.29354603060E+02  0.48115830961E+01  0.18289641789E+03  0.18529960531E+03  0.00000000000E+00 0.  1.
<mgrwt>
<rscale>  4 0.48843867E+03</rscale>
<asrwt>0</asrwt>
<pdfrwt beam="1">  1       21 0.18671836E+00 0.48843867E+03</pdfrwt>
<pdfrwt beam="2">  1       21 0.10250075E+00 0.48843867E+03</pdfrwt>
<totfact> 0.99225249E+01</totfact>
</mgrwt>
</event>
<event>
 5    0  0.1911311E+001  0.2455290E+03  0.7546771E-02  0.1116163E+00
         21   -1    0    0  502  501  0.00000000000E+00  0.00000000000E+00  0.19468152211E+03  0.19468152211E+03  0.00000000000E+00 0. -1.
         21   -1    0    0  504  502 -0.00000000000E+00 -0.00000000000E+00 -0.33472961549E+03  0.33472961549E+03  0.00000000000E+00 0. -1.
         25    1    1    2    0    0  0.17653691487E+03 -0.11616449790E+03  0.28996183460E+02  0.24723521501E+03  0.12500000000E+03 0.  0.
         21    1    1    2  503  501 -0.10451250926E+03  0.83839503285E+02 -0.14968381479E+03  0.20089094383E+03  0.00000000000E+00 0. -1.
         21    1    1    2  504  503 -0.72024405613E+02  0.32324994616E+02 -0.19360462047E+02  0.81284978757E+02  0.00000000000E+00 0.  1.
<mgrwt>
<rscale>  4 0.24552897E+03</rscale>
<asrwt>0</asrwt>
<pdfrwt beam="1">  1       21 0.29951004E-01 0.24552897E+03</pdfrwt>
<pdfrwt beam="2">  1       21 0.51496864E-01 0.24552897E+03</pdfrwt>
<totfact> 0.37336453E+04</totfact>
</mgrwt>
</event>
<event>
 5    0  0.1911311E+001  0.2030280E+03  0.7546771E-02  0.1147209E+00
         21   -1    0    0  503  501  0.00000000000E+00  0.00000000000E+00  0.45553879994E+03  0.45553879994E+03  0.00000000000E+00 0. -1.
         21   -1    0    0  504  502 -0.00000000000E+00 -0.00000000000E+00 -0.18245467115E+03  0.18245467115E+03  0.00000000000E+00 0. -1.
         25    1    1    2    0    0  0.15260084429E+03  0.13020205837E+03  0.74643808512E+02  0.24786345400E+03  0.12500000000E+03 0.  0.
         21    1    1    2  503  502 -0.42503860248E+02 -0.14550620793E+03 -0.12078554508E+02  0.15206750527E+03  0.00000000000E+00 0. -1.
         21    1    1    2  504  501 -0.11009698404E+03  0.15304149558E+02  0.21051887479E+03  0.23806251182E+03  0.00000000000E+00 0. -1.
<mgrwt>
<rscale>  4 0.20302801E+03</rscale>
<asrwt>0</asrwt>
<pdfrwt beam="1">  1       21 0.70082892E-01 0.20302801E+03</pdfrwt>
<pdfrwt beam="2">  1       21 0.28069950E-01 0.20302801E+03</pdfrwt>
<totfact> 0.22270448E+04</totfact>
</mgrwt>
</event>
