<event>
 5    0  0.1911311E+001  0.3543869E+03  0.7546771E-02  0.1060829E+00
         21   -1    0    0  503  501  0.00000000000E+00  0.00000000000E+00  0.64174088113E+02  0.64174088113E+02  0.00000000000E+00 0.  1.
         21   -1    0    0  504  502 -0.00000000000E+00 -0.00000000000E+00 -0.24140393451E+04  0.24140393451E+04  0.00000000000E+00 0.  1.
         25    1    1    2    0    0 -0.34954129968E+02  0.34884017577E+03 -0.11329462188E+04  0.11925197667E+04  0.12500000000E+03 0.  0.
         21    1    1    2  503  502  0.72035959499E+02 -0.31097089608E+03 -0.11765134705E+04  0.12190471787E+04  0.00000000000E+00 0.  1.
         21    1    1    2  504  501 -0.37081829531E+02 -0.37869279688E+02 -0.40405567668E+02  0.66646487709E+02  0.00000000000E+00 0.  1.
<mgrwt>
<rscale>  4 0.35438691E+03</rscale>
<asrwt>0</asrwt>
<pdfrwt beam="1">  1       21 0.98729351E-02 0.35438691E+03</pdfrwt>
<pdfrwt beam="2">  1       21 0.37139073E+00 0.35438691E+03</pdfrwt>
<totfact> 0.90995774E+02</totfact>
</mgrwt>
</event>
<event>
 5    0  0.1911311E+001  0.2566360E+03  0.7546771E-02  0.1109181E+00
         21   -1    0    0  502  501  0.00000000000E+00  0.00000000000E+00  0.23580759362E+04  0.23580759362E+04  0.00000000000E+00 0.  1.
         21   -1    0    0  504  502 -0.00000000000E+00 -0.00000000000E+00 -0.21889396874E+03  0.21889396874E+03  0.00000000000E+00 0. -1.
         25    1    1    2    0    0 -0.15620396264E+03 -0.20659479414E+03 -0.10367076440E+03  0.30570200245E+03  0.12500000000E+03 0.  0.
         21    1    1    2  503  501  0.13509729491E+03  0.17764673697E+03  0.22141301271E+04  0.22253498291E+04  0.00000000000E+00 0.  1.
         21    1    1    2  504  503  0.21106667737E+02  0.28948057177E+02  0.28722604763E+02  0.45918073366E+02  0.00000000000E+00 0. -1.
<mgrwt>
<rscale>  4 0.25663603E+03</rscale>
<asrwt>0</asrwt>
<pdfrwt beam="1">  1       21 0.36278090E+00 0.25663603E+03</pdfrwt>
<pdfrwt beam="2">  1       21 0.33675997E-01 0.25663603E+03</pdfrwt>
<totfact> 0.11326074E+02</totfact>
</mgrwt>
</event>
<event>
 5    0  0.1911311E+001  0.2098913E+03  0.7546771E-02  0.1141652E+00
         21   -1    0    0  504  501  0.00000000000E+00  0.00000000000E+00  0.16457007031E+04  0.16457007031E+04  0.00000000000E+00 0.  1.
         21   -1    0    0  503  502 -0.00000000000E+00 -0.00000000000E+00 -0.18873804056E+03  0.18873804056E+03  0.00000000000E+00 0.  1.
         25    1    1    2    0    0  0.11936290150E+03  0.19011677804E+03 -0.43517625828E+02  0.26059676764E+03  0.12500000000E+03 0.  0.
         21    1    1    2  503  501 -0.39814566896E+02 -0.43361238950E+02 -0.50517302267E+01  0.59083980559E+02  0.00000000000E+00 0. -1.
         21    1    1    2  504  502 -0.79548334601E+02 -0.14675553909E+03  0.15055320186E+04  0.15147579955E+04  0.00000000000E+00 0.  1.
<mgrwt>
<rscale>  4 0.20989133E+03</rscale>
<asrwt>0</asrwt>
<pdfrwt beam="1">  1       21 0.25318471E+00 0.20989133E+03</pdfrwt>
<pdfrwt beam="2">  1       21 0.29036623E-01 0.20989133E+03</pdfrwt>
<totfact> 0.70787039E+02</totfact>
</mgrwt>
</event>
<event>
 5    0  0.1911311E+001  0.2767648E+03  0.7546771E-02  0.1097469E+00
         21   -1    0    0  502  501  0.00000000000E+00  0.00000000000E+00  0.13352363068E+04  0.13352363068E+04  0.00000000000E+00 0.  1.
         21   -1    0    0  504  502 -0.00000000000E+00 -0.00000000000E+00 -0.16418401634E+03  0.16418401634E+03  0.00000000000E+00 0.  1.
         25    1    1    2    0    0  0.21031885833E+03  0.16684828656E+03  0.63393607996E+02  0.30284669791E+03  0.12500000000E+03 0.  0.
         21    1    1    2  503  501 -0.19940597402E+03 -0.14168639912E+03  0.11330760652E+04  0.11591803775E+04  0.00000000000E+00 0.  1.
         21    1    1    2  504  503 -0.10912884319E+02 -0.25161887438E+02 -0.25417382760E+02  0.37393247652E+02  0.00000000000E+00 0.  1.
<mgrwt>
<rscale>  4 0.27676482E+03</rscale>
<asrwt>0</asrwt>
<pdfrwt beam="1">  1       21 0.20542096E+00 0.27676482E+03</pdfrwt>
<pdfrwt beam="2">  1       21 0.25259080E-01 0.27676482E+03</pdfrwt>
<totfact> 0.17074165E+03</totfact>
</mgrwt>
</event>
<event>
 5    0  0.1911311E+001  0.2917075E+03  0.7546771E-02  0.1089461E+00
         21   -1    0    0  504  501  0.00000000000E+00  0.00000000000E+00  0.70250689975E+03  0.70250689975E+03  0.00000000000E+00 0. -1.
         21   -1    0    0  503  502 -0.00000000000E+00 -0.00000000000E+00 -0.27044747714E+03  0.27044747714E+03  0.00000000000E+00 0. -1.
         25    1    1    2    0    0 -0.26350522277E+03 -0.94748040999E+02 -0.76559747733E+02  0.31606737996E+03  0.12500000000E+03 0.  0.
         21    1    1    2  503  501  0.43895940490E+02 -0.48130058335E+02 -0.18952218645E+02  0.67842042262E+02  0.00000000000E+00 0. -1.
         21    1    1    2  504  502  0.21960928228E+03  0.14287809933E+03  0.52757138899E+03  0.58904495467E+03  0.00000000000E+00 0. -1.
<mgrwt>
<rscale>  4 0.29170755E+03</rscale>
<asrwt>0</asrwt>
<pdfrwt beam="1">  1       21 0.10807798E+00 0.29170755E+03</pdfrwt>
<pdfrwt beam="2">  1       21 0.41607305E-01 0.29170755E+03</pdfrwt>
<totfact> 0.35387148E+03</totfact>
</mgrwt>
</event>
