<event>
 5    0  0.4115852E+000  0.2381710E+03  0.7546771E-02  0.1121017E+00
         21   -1    0    0  503  502  0.00000000000E+00  0.00000000000E+00  0.42454487419E+03  0.42454487419E+03  0.00000000000E+00 0.  1.
          3   -1    0    0  502    0 -0.00000000000E+00 -0.00000000000E+00 -0.33355787211E+03  0.33355787211E+03  0.00000000000E+00 0.  1.
         25    1    1    2    0    0  0.44644046441E+02 -0.24576164730E+03  0.25962074416E+03  0.38133949306E+03  0.12500000000E+03 0.  0.
         21    1    1    2  503  501 -0.10679259640E+03  0.11569140528E+03 -0.33963426631E+01  0.15748236424E+03  0.00000000000E+00 0.  1.
          3    1    1    2  501    0  0.62148549956E+02  0.13007024202E+03 -0.16523739941E+03  0.21928088901E+03  0.00000000000E+00 0.  1.
<mgrwt>
<rscale>  4 0.23817102E+03</rscale>
<asrwt>0</asrwt>
<pdfrwt beam="1">  1       21 0.65314596E-01 0.23817102E+03</pdfrwt>
<pdfrwt beam="2">  1        3 0.51316596E-01 0.23817102E+03</pdfrwt>
<totfact> 0.39988574E+02</totfact>
</mgrwt>
</event>
<event>
 5    0  0.4115852E+000  0.7526789E+03  0.7546771E-02  0.9631157E-01
          2   -1    0    0  502    0 -0.00000000000E+00  0.00000000000E+00  0.18464144270E+04  0.18464144270E+04  0.00000000000E+00 0.  1.
         21   -1    0    0  503  502  0.00000000000E+00 -0.00000000000E+00 -0.48969066232E+03  0.48969066232E+03  0.00000000000E+00 0. -1.
         25    1    1    2    0    0  0.64506794356E+03  0.44516992178E+03  0.65220294662E+02  0.79634640572E+03  0.12500000000E+03 0.  0.
         21    1    1    2  503  501 -0.57477420241E+02 -0.97336956248E+01  0.32500925502E+01  0.58386314918E+02  0.00000000000E+00 0.  1.
          2    1    1    2  501    0 -0.58759052332E+03 -0.43543622616E+03  0.12882533775E+04  0.14813723687E+04  0.00000000000E+00 0.  1.
<mgrwt>
<rscale>  4 0.75267893E+03</rscale>
<asrwt>0</asrwt>
<pdfrwt beam="1">  1       21 0.75337026E-01 0.75267893E+03</pdfrwt>
<pdfrwt beam="2">  1        2 0.28406376E+00 0.75267893E+03</pdfrwt>
<totfact> 0.14405244E+02</totfact>
</mgrwt>
</event>
<event>
 5    0  0.4115852E+000  0.3489948E+03  0.7546771E-02  0.1063028E+00
         21   -1    0    0  503  502  0.00000000000E+00  0.00000000000E+00  0.15954186288E+04  0.15954186288E+04  0.00000000000E+00 0. -1.
          2   -1    0    0  502    0 -0.00000000000E+00 -0.00000000000E+00 -0.76930215333E+03  0.76930215333E+03  0.00000000000E+00 0.  1.
         25    1    1    2    0    0  0.26939295400E+03 -0.29971702854E+03  0.14152767038E+04  0.14768331013E+04  0.12500000000E+03 0.  0.
         21    1    1    2  503  501 -0.12168455437E+01  0.11762667187E+03  0.81425552367E+02  0.14306514330E+03  0.00000000000E+00 0.  1.
          2    1    1    2  501    0 -0.26817610846E+03  0.18209035666E+03 -0.67058578069E+03  0.74482253752E+03  0.00000000000E+00 0.  1.
<mgrwt>
<rscale>  4 0.34899482E+03</rscale>
<asrwt>0</asrwt>
<pdfrwt beam="1">  1       21 0.24544902E+00 0.34899482E+03</pdfrwt>
<pdfrwt beam="2">  1        2 0.11835418E+00 0.34899482E+03</pdfrwt>
<totfact> 0.28932795E+01</totfact>
</mgrwt>
</event>
<event>
 5    0  0.4115852E+000  0.1909147E+03  0.7546771E-02  0.1157639E+00
          2   -1    0    0  502    0 -0.00000000000E+00  0.00000000000E+00  0.87683568880E+03  0.87683568880E+03  0.00000000000E+00 0.  1.
         21   -1    0    0  503  502  0.00000000000E+00 -0.00000000000E+00 -0.15749616796E+04  0.15749616796E+04  0.00000000000E+00 0.  1.
         25    1    1    2    0    0  0.62065041408E+02  0.20540068556E+03 -0.12087851805E+04  0.12340292232E+04  0.12500000000E+03 0.  0.
         21    1    1    2  503  501 -0.13411548524E+02 -0.69913334999E+02 -0.34388853922E+03  0.35117954305E+03  0.00000000000E+00 0.  1.
          2    1    1    2  501    0 -0.48653492884E+02 -0.13548735056E+03  0.85454772890E+03  0.86658860223E+03  0.00000000000E+00 0.  1.
<mgrwt>
<rscale>  4 0.19091472E+03</rscale>
<asrwt>0</asrwt>
<pdfrwt beam="1">  1       21 0.24230179E+00 0.19091472E+03</pdfrwt>
<pdfrwt beam="2">  1        2 0.13489780E+00 0.19091472E+03</pdfrwt>
<totfact> 0.29511288E+01</totfact>
</mgrwt>
</event>
<event>
 5    0  0.4115852E+000  0.2615088E+03  0.7546771E-02  0.1106240E+00
         21   -1    0    0  503  502  0.00000000000E+00  0.00000000000E+00  0.77466637385E+03  0.77466637385E+03  0.00000000000E+00 0.  1.
          2   -1    0    0  502    0 -0.00000000000E+00 -0.00000000000E+00 -0.43696251954E+03  0.43696251954E+03  0.00000000000E+00 0. -1.
         25    1    1    2    0    0  0.96714316674E+02 -0.30871606061E+03 -0.13521568555E+02  0.34708370452E+03  0.12500000000E+03 0.  0.
         21    1    1    2  503  501 -0.18003629748E+02  0.11826639730E+03  0.55914831834E+03  0.57180233763E+03  0.00000000000E+00 0.  1.
          2    1    1    2  501    0 -0.78710686926E+02  0.19044966331E+03 -0.20792289548E+03  0.29274285124E+03  0.00000000000E+00 0. -1.
<mgrwt>
<rscale>  4 0.26150882E+03</rscale>
<asrwt>0</asrwt>
<pdfrwt beam="1">  1       21 0.11917944E+00 0.26150882E+03</pdfrwt>
<pdfrwt beam="2">  1        2 0.67225003E-01 0.26150882E+03</pdfrwt>
<totfact> 0.46696620E+02</totfact>
</mgrwt>
</event>
<event>
 5    0  0.4115852E+000  0.2400833E+03  0.7546771E-02  0.1119737E+00
         21   -1    0    0  503  502  0.00000000000E+00  0.00000000000E+00  0.53495764793E+02  0.53495764793E+02  0.00000000000E+00 0.  1.
          1   -1    0    0  502    0 -0.00000000000E+00 -0.00000000000E+00 -0.15040478378E+04  0.15040478378E+04  0.00000000000E+00 0.  1.
         25    1    1    2    0    0 -0.12249476382E+03 -0.16768174884E+03 -0.62288334358E+03  0.66837923051E+03  0.12500000000E+03 0.  0.
         21    1    1    2  503  501 -0.67758075470E+02  0.72115375816E+02 -0.15765238695E+03  0.18613451945E+03  0.00000000000E+00 0.  1.
          1    1    1    2  501    0  0.19025283929E+03  0.95566373029E+02 -0.67001634246E+03  0.70302985262E+03  0.00000000000E+00 0.  1.
<mgrwt>
<rscale>  4 0.24008328E+03</rscale>
<asrwt>0</asrwt>
<pdfrwt beam="1">  1       21 0.82301184E-02 0.24008328E+03</pdfrwt>
<pdfrwt beam="2">  1        1 0.23139195E+00 0.24008328E+03</pdfrwt>
<totfact> 0.90832013E+03</totfact>
</mgrwt>
</event>
<event>
 5    0  0.4115852E+000  0.2362010E+03  0.7546771E-02  0.1122350E+00
          2   -1    0    0  502    0 -0.00000000000E+00  0.00000000000E+00  0.17671829885E+04  0.17671829885E+04  0.00000000000E+00 0.  1.
         21   -1    0    0  503  502  0.00000000000E+00 -0.00000000000E+00 -0.18192143267E+03  0.18192143267E+03  0.00000000000E+00 0.  1.
         25    1    1    2    0    0  0.22702927283E+03 -0.29189564187E+02  0.10248216771E+03  0.28021762271E+03  0.12500000000E+03 0.  0.
         21    1    1    2  503  501 -0.33147467705E+02 -0.13210010606E+02 -0.83122762167E+02  0.90458015597E+02  0.00000000000E+00 0.  1.
          2    1    1    2  501    0 -0.19388180513E+03  0.42399574793E+02  0.15659021503E+04  0.15784287829E+04  0.00000000000E+00 0.  1.
<mgrwt>
<rscale>  4 0.23620097E+03</rscale>
<asrwt>0</asrwt>
<pdfrwt beam="1">  1       21 0.27987914E-01 0.23620097E+03</pdfrwt>
<pdfrwt beam="2">  1        2 0.27187429E+00 0.23620097E+03</pdfrwt>
<totfact> 0.15126403E+03</totfact>
</mgrwt>
</event>
<event>
 5    0  0.4115852E+000  0.3446405E+03  0.7546771E-02  0.1064837E+00
         -2   -1    0    0    0  501 -0.00000000000E+00  0.00000000000E+00  0.12419690634E+04  0.12419690634E+04  0.00000000000E+00 0.  1.
         21   -1    0    0  501  502  0.00000000000E+00 -0.00000000000E+00 -0.28855433202E+03  0.28855433202E+03  0.00000000000E+00 0.  1.
         25    1    1    2    0    0  0.34619563310E+03 -0.35787859131E+03  0.39891345475E+03  0.65014263579E+03  0.12500000000E+03 0.  0.
         21    1    1    2  503  502 -0.12775820062E+03  0.24640080891E+03  0.38404031590E+01  0.27757929525E+03  0.00000000000E+00 0.  1.
         -2    1    1    2    0  503 -0.21843743248E+03  0.11147778240E+03  0.55066087346E+03  0.60280146436E+03  0.00000000000E+00 0.  1.
<mgrwt>
<rscale>  4 0.34464049E+03</rscale>
<asrwt>0</asrwt>
<pdfrwt beam="1">  1       21 0.44392975E-01 0.34464049E+03</pdfrwt>
<pdfrwt beam="2">  1       -2 0.19107216E+00 0.34464049E+03</pdfrwt>
<totfact> 0.62038029E+01</totfact>
</mgrwt>
</event>
<event>
 5    0  0.4115852E+000  0.2091609E+03  0.7546771E-02  0.1142232E+00
         21   -1    0    0  503  502  0.00000000000E+00  0.00000000000E+00  0.17507234690E+03  0.17507234690E+03  0.00000000000E+00 0.  1.
          1   -1    0    0  502    0 -0.00000000000E+00 -0.00000000000E+00 -0.12187852926E+04  0.12187852926E+04  0.00000000000E+00 0. -1.
         25    1    1    2    0    0 -0.25650689028E+02  0.21837860043E+03 -0.41669826580E+03  0.48745216760E+03  0.12500000000E+03 0.  0.
         21    1    1    2  503  501  0.91575954057E+01 -0.63359401307E+02  0.12390955154E+03  0.13946989730E+03  0.00000000000E+00 0.  1.
          1    1    1    2  501    0  0.16493093622E+02 -0.15501919912E+03 -0.75092423143E+03  0.76693557460E+03  0.00000000000E+00 0. -1.
<mgrwt>
<rscale>  4 0.20916090E+03</rscale>
<asrwt>0</asrwt>
<pdfrwt beam="1">  1       21 0.26934207E-01 0.20916090E+03</pdfrwt>
<pdfrwt beam="2">  1        1 0.18750543E+00 0.20916090E+03</pdfrwt>
<totfact> 0.16335625E+03</totfact>
</mgrwt>
</event>
<event>
 5    0  0.4115852E+000  0.3046392E+03  0.7546771E-02  0.1082944E+00
         21   -1    0    0  503  502  0.00000000000E+00  0.00000000000E+00  0.16446290316E+03  0.16446290316E+03  0.00000000000E+00 0.  1.
          2   -1    0    0  502    0 -0.00000000000E+00 -0.00000000000E+00 -0.61746318371E+03  0.61746318371E+03  0.00000000000E+00 0. -1.
         25    1    1    2    0    0 -0.25956139951E+02  0.25597207784E+03 -0.17446542611E+03  0.33505016153E+03  0.12500000000E+03 0.  0.
         21    1    1    2  503  501 -0.20417765700E+02  0.34431993137E+02  0.24902544489E+01  0.40107962735E+02  0.00000000000E+00 0. -1.
          2    1    1    2  501    0  0.46373905651E+02 -0.29040407098E+03 -0.28102510889E+03  0.40676796260E+03  0.00000000000E+00 0. -1.
<mgrwt>
<rscale>  4 0.30463920E+03</rscale>
<asrwt>0</asrwt>
<pdfrwt beam="1">  1       21 0.25301985E-01 0.30463920E+03</pdfrwt>
<pdfrwt beam="2">  1        2 0.94994337E-01 0.30463920E+03</pdfrwt>
<totfact> 0.88513887E+03</totfact>
</mgrwt>
</event>
<event>
 5    0  0.4115852E+000  0.2483945E+03  0.7546771E-02  0.1114324E+00
         21   -1    0    0  503  502  0.00000000000E+00  0.00000000000E+00  0.40606459986E+03  0.40606459986E+03  0.00000000000E+00 0. -1.
          1   -1    0    0  502    0 -0.00000000000E+00 -0.00000000000E+00 -0.24050245953E+03  0.24050245953E+03  0.00000000000E+00 0. -1.
         25    1    1    2    0    0  0.38318351147E+02 -0.20049455502E+03 -0.19983956002E+02  0.24018892798E+03  0.12500000000E+03 0.  0.
         21    1    1    2  503  501  0.27966877347E+01 -0.21480263854E+02  0.17923527366E+03  0.18053948743E+03  0.00000000000E+00 0. -1.
          1    1    1    2  501    0 -0.41115038881E+02  0.22197481887E+03  0.63108226726E+01  0.22583864398E+03  0.00000000000E+00 0. -1.
<mgrwt>
<rscale>  4 0.24839454E+03</rscale>
<asrwt>0</asrwt>
<pdfrwt beam="1">  1       21 0.62471477E-01 0.24839454E+03</pdfrwt>
<pdfrwt beam="2">  1        1 0.37000378E-01 0.24839454E+03</pdfrwt>
<totfact> 0.29448535E+03</totfact>
</mgrwt>
</event>
<event>
 5    0  0.4115852E+000  0.3349517E+03  0.7546771E-02  0.1068967E+00
         21   -1    0    0  503  502  0.00000000000E+00  0.00000000000E+00  0.21474003496E+03  0.21474003496E+03  0.00000000000E+00 0.  1.
          1   -1    0    0  502    0 -0.00000000000E+00 -0.00000000000E+00 -0.97246983208E+03  0.97246983208E+03  0.00000000000E+00 0. -1.
         25    1    1    2    0    0  0.22710390844E+03  0.17879810470E+03  0.31381833542E+02  0.31647237944E+03  0.12500000000E+03 0.  0.
         21    1    1    2  503  501  0.32372496354E+02 -0.74260721333E+00 -0.16179425885E+02  0.36198118841E+02  0.00000000000E+00 0.  1.
          1    1    1    2  501    0 -0.25947640479E+03 -0.17805549748E+03 -0.77293220478E+03  0.83453936876E+03  0.00000000000E+00 0. -1.
<mgrwt>
<rscale>  4 0.33495165E+03</rscale>
<asrwt>0</asrwt>
<pdfrwt beam="1">  1       21 0.33036928E-01 0.33495165E+03</pdfrwt>
<pdfrwt beam="2">  1        1 0.14961075E+00 0.33495165E+03</pdfrwt>
<totfact> 0.15714096E+03</totfact>
</mgrwt>
</event>
<event>
 5    0  0.4115852E+000  0.2261081E+03  0.7546771E-02  0.1129409E+00
         21   -1    0    0  503  502  0.00000000000E+00  0.00000000000E+00  0.65084149570E+02  0.65084149570E+02  0.00000000000E+00 0. -1.
          2   -1    0    0  502    0 -0.00000000000E+00 -0.00000000000E+00 -0.14037876578E+04  0.14037876578E+04  0.00000000000E+00 0.  1.
         25    1    1    2    0    0 -0.19958165582E+03 -0.46057475100E+02 -0.11551561081E+04  0.11798155628E+04  0.12500000000E+03 0.  0.
         21    1    1    2  503  501  0.17445080346E+03  0.64884421811E+02 -0.13017279046E+03  0.22712997688E+03  0.00000000000E+00 0. -1.
          2    1    1    2  501    0  0.25130852365E+02 -0.18826946711E+02 -0.53374609746E+02  0.61926267679E+02  0.00000000000E+00 0.  1.
<mgrwt>
<rscale>  4 0.22610807E+03</rscale>
<asrwt>0</asrwt>
<pdfrwt beam="1">  1       21 0.10012947E-01 0.22610807E+03</pdfrwt>
<pdfrwt beam="2">  1        2 0.21596731E+00 0.22610807E+03</pdfrwt>
<totfact> 0.15830758E+04</totfact>
</mgrwt>
</event>
<event>
 5    0  0.4115852E+000  0.2454345E+03  0.7546771E-02  0.1116225E+00
          1   -1    0    0  502    0 -0.00000000000E+00  0.00000000000E+00  0.30109175841E+04  0.30109175841E+04  0.00000000000E+00 0. -1.
         21   -1    0    0  503  502  0.00000000000E+00 -0.00000000000E+00 -0.18212285927E+02  0.18212285927E+02  0.00000000000E+00 0. -1.
         25    1    1    2    0    0 -0.13745164048E+03  0.16037504874E+03  0.15866318003E+04  0.16055025941E+04  0.12500000000E+03 0.  0.
         21    1    1    2  503  501  0.83665061485E+02 -0.48047652590E+02  0.52443649160E+03  0.53323733286E+03  0.00000000000E+00 0. -1.
          1    1    1    2  501    0  0.53786578994E+02 -0.11232739615E+03  0.88163700628E+03  0.89038994314E+03  0.00000000000E+00 0. -1.
<mgrwt>
<rscale>  4 0.24543453E+03</rscale>
<asrwt>0</asrwt>
<pdfrwt beam="1">  1       21 0.28018925E-02 0.24543453E+03</pdfrwt>
<pdfrwt beam="2">  1        1 0.46321770E+00 0.24543453E+03</pdfrwt>
<totfact> 0.57134147E+03</totfact>
</mgrwt>
</event>
<event>
 5    0  0.4115852E+000  0.4645586E+03  0.7546771E-02  0.1023467E+00
          2   -1    0    0  502    0 -0.00000000000E+00  0.00000000000E+00  0.14285155198E+04  0.14285155198E+04  0.00000000000E+00 0.  1.
         21   -1    0    0  503  502  0.00000000000E+00 -0.00000000000E+00 -0.32581252569E+03  0.32581252569E+03  0.00000000000E+00 0. -1.
         25    1    1    2    0    0  0.29890701529E+03  0.30903517348E+03  0.11143582058E+03  0.46140121841E+03  0.12500000000E+03 0.  0.
         21    1    1    2  503  501  0.13629326853E+02  0.17358873969E+02 -0.10493585024E+03  0.10723162650E+03  0.00000000000E+00 0. -1.
          2    1    1    2  501    0 -0.31253634214E+03 -0.32639404745E+03  0.10962030238E+04  0.11856952006E+04  0.00000000000E+00 0.  1.
<mgrwt>
<rscale>  4 0.46455865E+03</rscale>
<asrwt>0</asrwt>
<pdfrwt beam="1">  1       21 0.50125005E-01 0.46455865E+03</pdfrwt>
<pdfrwt beam="2">  1        2 0.21977162E+00 0.46455865E+03</pdfrwt>
<totfact> 0.64540600E+02</totfact>
</mgrwt>
</event>
<event>
 5    0  0.4115852E+000  0.2289387E+03  0.7546771E-02  0.1127389E+00
          1   -1    0    0  502    0 -0.00000000000E+00  0.00000000000E+00  0.82128250164E+03  0.82128250164E+03  0.00000000000E+00 0. -1.
         21   -1    0    0  503  502  0.00000000000E+00 -0.00000000000E+00 -0.99814948498E+02  0.99814948498E+02  0.00000000000E+00 0. -1.
         25    1    1    2    0    0  0.58450088553E+02 -0.20340549661E+03  0.60129151582E+03  0.64958963654E+03  0.12500000000E+03 0.  0.
         21    1    1    2  503  501 -0.81297767933E+02  0.16979459225E+03  0.57556760224E+02  0.19685606741E+03  0.00000000000E+00 0. -1.
          1    1    1    2  501    0  0.22847679381E+02  0.33610904365E+02  0.62619277105E+02  0.74651746198E+02  0.00000000000E+00 0. -1.
<mgrwt>
<rscale>  4 0.22893870E+03</rscale>
<asrwt>0</asrwt>
<pdfrwt beam="1">  1       21 0.15356146E-01 0.22893870E+03</pdfrwt>
<pdfrwt beam="2">  1        1 0.12635115E+00 0.22893870E+03</pdfrwt>
<totfact> 0.92047502E+03</totfact>
</mgrwt>
</event>
<event>
 5    0  0.4115852E+000  0.2953565E+03  0.7546771E-02  0.1087585E+00
          2   -1    0    0  502    0 -0.00000000000E+00  0.00000000000E+00  0.23116180673E+04  0.23116180673E+04  0.00000000000E+00 0. -1.
         21   -1    0    0  503  502  0.00000000000E+00 -0.00000000000E+00 -0.56195403558E+02  0.56195403558E+02  0.00000000000E+00 0. -1.
         25    1    1    2    0    0 -0.15919353539E+03 -0.20413562179E+03  0.80667595696E+03  0.85636734719E+03  0.12500000000E+03 0.  0.
         21    1    1    2  503  501  0.13722799565E+02 -0.26262686116E+02 -0.69759539383E+01  0.30441876474E+02  0.00000000000E+00 0. -1.
          2    1    1    2  501    0  0.14547073583E+03  0.23039830791E+03  0.14557226607E+04  0.14810042472E+04  0.00000000000E+00 0. -1.
<mgrwt>
<rscale>  4 0.29535648E+03</rscale>
<asrwt>0</asrwt>
<pdfrwt beam="1">  1       21 0.86454485E-02 0.29535648E+03</pdfrwt>
<pdfrwt beam="2">  1        2 0.35563348E+00 0.29535648E+03</pdfrwt>
<totfact> 0.66429863E+03</totfact>
</mgrwt>
</event>
<event>
 5    0  0.4115852E+000  0.5643314E+03  0.7546771E-02  0.9982301E-01
          1   -1    0    0  502    0 -0.00000000000E+00  0.00000000000E+00  0.11440658428E+04  0.11440658428E+04  0.00000000000E+00 0. -1.
         21   -1    0    0  503  502  0.00000000000E+00 -0.00000000000E+00 -0.98040592792E+03  0.98040592792E+03  0.00000000000E+00 0. -1.
         25    1    1    2    0    0 -0.51684685960E+03 -0.35819595422E+02  0.55618474229E+03  0.77031174680E+03  0.12500000000E+03 0.  0.
         21    1    1    2  503  501  0.55033910507E+03  0.69395638267E+02 -0.78368759823E+03  0.96013287456E+03  0.00000000000E+00 0. -1.
          1    1    1    2  501    0 -0.33492245469E+02 -0.33576042845E+02  0.39116277087E+03  0.39402714941E+03  0.00000000000E+00 0. -1.
<mgrwt>
<rscale>  4 0.56433141E+03</rscale>
<asrwt>0</asrwt>
<pdfrwt beam="1">  1       21 0.15083168E+00 0.56433141E+03</pdfrwt>
<pdfrwt beam="2">  1        1 0.17601013E+00 0.56433141E+03</pdfrwt>
<totfact> 0.33559583E+01</totfact>
</mgrwt>
</event>
<event>
 5    0  0.4115852E+000  0.2345803E+03  0.7546771E-02  0.1123457E+00
         21   -1    0    0  503  502  0.00000000000E+00  0.00000000000E+00  0.13268600943E+03  0.13268600943E+03  0.00000000000E+00 0. -1.
          2   -1    0    0  502    0 -0.00000000000E+00 -0.00000000000E+00 -0.90535459784E+03  0.90535459784E+03  0.00000000000E+00 0. -1.
         25    1    1    2    0    0 -0.98121228113E+02 -0.26452255641E+03 -0.15549572948E+03  0.34554866537E+03  0.12500000000E+03 0.  0.
         21    1    1    2  503  501  0.55108098779E+02  0.84806367104E+02 -0.95675985227E+02  0.13922254344E+03  0.00000000000E+00 0. -1.
          2    1    1    2  501    0  0.43013129334E+02  0.17971618930E+03 -0.52149687370E+03  0.55326939846E+03  0.00000000000E+00 0. -1.
<mgrwt>
<rscale>  4 0.23458035E+03</rscale>
<asrwt>0</asrwt>
<pdfrwt beam="1">  1       21 0.20413232E-01 0.23458035E+03</pdfrwt>
<pdfrwt beam="2">  1        2 0.13928532E+00 0.23458035E+03</pdfrwt>
<totfact> 0.83873356E+03</totfact>
</mgrwt>
</event>
<event>
 5    0  0.4115852E+000  0.2358958E+03  0.7546771E-02  0.1122557E+00
         21   -1    0    0  503  502  0.00000000000E+00  0.00000000000E+00  0.72958530246E+02  0.72958530246E+02  0.00000000000E+00 0. -1.
          1   -1    0    0  502    0 -0.00000000000E+00 -0.00000000000E+00 -0.10925964259E+04  0.10925964259E+04  0.00000000000E+00 0. -1.
         25    1    1    2    0    0  0.73273161327E+02  0.20961525778E+03 -0.43745507009E+03  0.50626025996E+03  0.12500000000E+03 0.  0.
         21    1    1    2  503  501  0.21228200464E+02 -0.43291631166E+02 -0.18559917291E+01  0.48251907001E+02  0.00000000000E+00 0. -1.
          1    1    1    2  501    0 -0.94501361791E+02 -0.16632362661E+03 -0.58032683381E+03  0.61104278917E+03  0.00000000000E+00 0. -1.
<mgrwt>
<rscale>  4 0.23589582E+03</rscale>
<asrwt>0</asrwt>
<pdfrwt beam="1">  1       21 0.11224390E-01 0.23589582E+03</pdfrwt>
<pdfrwt beam="2">  1        1 0.16809174E+00 0.23589582E+03</pdfrwt>
<totfact> 0.10048484E+04</totfact>
</mgrwt>
</event>
<event>
 5    0  0.4115852E+000  0.3307730E+03  0.7546771E-02  0.1070795E+00
         21   -1    0    0  503  502  0.00000000000E+00  0.00000000000E+00  0.10127086359E+03  0.10127086359E+03  0.00000000000E+00 0. -1.
          2   -1    0    0  502    0 -0.00000000000E+00 -0.00000000000E+00 -0.23341307029E+04  0.23341307029E+04  0.00000000000E+00 0.  1.
         25    1    1    2    0    0  0.19346291495E+03 -0.26630425764E+03 -0.30745636637E+03  0.46744012913E+03  0.12500000000E+03 0.  0.
         21    1    1    2  503  501 -0.67985556668E+01  0.27809036605E+02 -0.12511247964E+02  0.31242506329E+02  0.00000000000E+00 0. -1.
          2    1    1    2  501    0 -0.18666435928E+03  0.23849522103E+03 -0.19128922250E+04  0.19367189311E+04  0.00000000000E+00 0.  1.
<mgrwt>
<rscale>  4 0.33077300E+03</rscale>
<asrwt>0</asrwt>
<pdfrwt beam="1">  1       21 0.15580134E-01 0.33077300E+03</pdfrwt>
<pdfrwt beam="2">  1        2 0.35909701E+00 0.33077300E+03</pdfrwt>
<totfact> 0.22021000E+03</totfact>
</mgrwt>
</event>
<event>
 5    0  0.4115852E+000  0.2483543E+03  0.7546771E-02  0.1114349E+00
         21   -1    0    0  503  502  0.00000000000E+00  0.00000000000E+00  0.23458022642E+03  0.23458022642E+03  0.00000000000E+00 0.  1.
          2   -1    0    0  502    0 -0.00000000000E+00 -0.00000000000E+00 -0.25490919783E+04  0.25490919783E+04  0.00000000000E+00 0.  1.
         25    1    1    2    0    0  0.19160361230E+02  0.30110107383E+03 -0.90488016986E+01  0.32670454070E+03  0.12500000000E+03 0.  0.
         21    1    1    2  503  501 -0.22504491829E+02 -0.89116899021E+02  0.41215044672E+02  0.10073208898E+03  0.00000000000E+00 0.  1.
          2    1    1    2  501    0  0.33441305992E+01 -0.21198417481E+03 -0.23466779949E+04  0.23562355751E+04  0.00000000000E+00 0.  1.
<mgrwt>
<rscale>  4 0.24835435E+03</rscale>
<asrwt>0</asrwt>
<pdfrwt beam="1">  1       21 0.36089267E-01 0.24835435E+03</pdfrwt>
<pdfrwt beam="2">  1        2 0.39216799E+00 0.24835435E+03</pdfrwt>
<totfact> 0.34947277E+02</totfact>
</mgrwt>
</event>
<event>
 5    0  0.4115852E+000  0.2489297E+03  0.7546771E-02  0.1113983E+00
          2   -1    0    0  502    0 -0.00000000000E+00  0.00000000000E+00  0.37673432051E+03  0.37673432051E+03  0.00000000000E+00 0.  1.
         21   -1    0    0  503  502  0.00000000000E+00 -0.00000000000E+00 -0.67669220942E+03  0.67669220942E+03  0.00000000000E+00 0.  1.
         25    1    1    2    0    0  0.16437599122E+02  0.23983145870E+03 -0.35878970549E+03  0.44960468860E+03  0.12500000000E+03 0.  0.
         21    1    1    2  503  501 -0.60760158795E+02 -0.30656715244E+02 -0.23260746466E+03  0.24235895631E+03  0.00000000000E+00 0.  1.
          2    1    1    2  501    0  0.44322559673E+02 -0.20917474346E+03  0.29143928124E+03  0.36146288502E+03  0.00000000000E+00 0.  1.
<mgrwt>
<rscale>  4 0.24892973E+03</rscale>
<asrwt>0</asrwt>
<pdfrwt beam="1">  1       21 0.10410649E+00 0.24892973E+03</pdfrwt>
<pdfrwt beam="2">  1        2 0.57959127E-01 0.24892973E+03</pdfrwt>
<totfact> 0.76920341E+02</totfact>
</mgrwt>
</event>
<event>
 5    0  0.4115852E+000  0.4447927E+03  0.7546771E-02  0.1029286E+00
          2   -1    0    0  502    0 -0.00000000000E+00  0.00000000000E+00  0.34634839875E+04  0.34634839875E+04  0.00000000000E+00 0.  1.
         21   -1    0    0  503  502  0.00000000000E+00 -0.00000000000E+00 -0.25283305978E+03  0.25283305978E+03  0.00000000000E+00 0. -1.
         25    1    1    2    0    0 -0.50731749525E+02 -0.45974544610E+03  0.71119168717E+02  0.48437849021E+03  0.12500000000E+03 0.  0.
         21    1    1    2  503  501 -0.27790515864E+02  0.42574740696E+02 -0.11759891385E+02  0.52184445601E+02  0.00000000000E+00 0. -1.
          2    1    1    2  501    0  0.78522265389E+02  0.41717070541E+03  0.31512916504E+04  0.31797541115E+04  0.00000000000E+00 0.  1.
<mgrwt>
<rscale>  4 0.44479267E+03</rscale>
<asrwt>0</asrwt>
<pdfrwt beam="1">  1       21 0.38897396E-01 0.44479267E+03</pdfrwt>
<pdfrwt beam="2">  1        2 0.53284366E+00 0.44479267E+03</pdfrwt>
<totfact> 0.75795398E+01</totfact>
</mgrwt>
</event>
<event>
 5    0  0.4115852E+000  0.2043098E+03  0.7546771E-02  0.1146153E+00
         21   -1    0    0  503  502  0.00000000000E+00  0.00000000000E+00  0.10095938365E+04  0.10095938365E+04  0.00000000000E+00 0.  1.
          1   -1    0    0  502    0 -0.00000000000E+00 -0.00000000000E+00 -0.26512474147E+04  0.26512474147E+04  0.00000000000E+00 0. -1.
         25    1    1    2    0    0 -0.21397681771E+03 -0.42866192180E+02  0.68694245233E+03  0.73153162732E+03  0.12500000000E+03 0.  0.
         21    1    1    2  503  501  0.12829637006E+03 -0.22170121113E+02  0.28508890000E+03  0.31341211486E+03  0.00000000000E+00 0. -1.
          1    1    1    2  501    0  0.85680447655E+02  0.65036313293E+02 -0.26136849306E+04  0.26158975090E+04  0.00000000000E+00 0. -1.
<mgrwt>
<rscale>  4 0.20430975E+03</rscale>
<asrwt>0</asrwt>
<pdfrwt beam="1">  1       21 0.15532213E+00 0.20430975E+03</pdfrwt>
<pdfrwt beam="2">  1        1 0.40788421E+00 0.20430975E+03</pdfrwt>
<totfact> 0.38918271E+00</totfact>
</mgrwt>
</event>
<event>
 5    0  0.4115852E+000  0.2479568E+03  0.7546771E-02  0.1114603E+00
         21   -1    0    0  503  502  0.00000000000E+00  0.00000000000E+00  0.12183890585E+04  0.12183890585E+04  0.00000000000E+00 0. -1.
          1   -1    0    0  502    0 -0.00000000000E+00 -0.00000000000E+00 -0.85845844885E+02  0.85845844885E+02  0.00000000000E+00 0. -1.
         25    1    1    2    0    0 -0.18331674086E+03 -0.92983105020E+02  0.96724181369E+03  0.99671089663E+03  0.12500000000E+03 0.  0.
         21    1    1    2  503  501  0.34765022871E+01 -0.26367305145E+02  0.63573202542E+02  0.68912066651E+02  0.00000000000E+00 0.  1.
          1    1    1    2  501    0  0.17984023857E+03  0.11935041017E+03  0.10172819737E+03  0.23861194009E+03  0.00000000000E+00 0. -1.
<mgrwt>
<rscale>  4 0.24795675E+03</rscale>
<asrwt>0</asrwt>
<pdfrwt beam="1">  1       21 0.18744446E+00 0.24795675E+03</pdfrwt>
<pdfrwt beam="2">  1        1 0.13207054E-01 0.24795675E+03</pdfrwt>
<totfact> 0.74053363E+02</totfact>
</mgrwt>
</event>
<event>
 5    0  0.4115852E+000  0.2223425E+03  0.7546771E-02  0.1132149E+00
         -1   -1    0    0    0  501 -0.00000000000E+00  0.00000000000E+00  0.42128233900E+03  0.42128233900E+03  0.00000000000E+00 0. -1.
         21   -1    0    0  501  502  0.00000000000E+00 -0.00000000000E+00 -0.36062198283E+03  0.36062198283E+03  0.00000000000E+00 0. -1.
         25    1    1    2    0    0 -0.22536379089E+03  0.39742082728E+01 -0.14879852745E+03  0.29760818932E+03  0.12500000000E+03 0.  0.
         21    1    1    2  503  502  0.46894568838E+02  0.15955321396E+02 -0.10841997584E+03  0.11919968133E+03  0.00000000000E+00 0.  1.
         -1    1    1    2    0  503  0.17846922205E+03 -0.19929529668E+02  0.31787885947E+03  0.36509645119E+03  0.00000000000E+00 0. -1.
<mgrwt>
<rscale>  4 0.22234249E+03</rscale>
<asrwt>0</asrwt>
<pdfrwt beam="1">  1       21 0.55480305E-01 0.22234249E+03</pdfrwt>
<pdfrwt beam="2">  1       -1 0.64812668E-01 0.22234249E+03</pdfrwt>
<totfact> 0.70259066E+02</totfact>
</mgrwt>
</event>
<event>
 5    0  0.4115852E+000  0.1925843E+03  0.7546771E-02  0.1156151E+00
         -2   -1    0    0    0  501 -0.00000000000E+00  0.00000000000E+00  0.17097883980E+03  0.17097883980E+03  0.00000000000E+00 0. -1.
         21   -1    0    0  501  502  0.00000000000E+00 -0.00000000000E+00 -0.83390263192E+03  0.83390263192E+03  0.00000000000E+00 0. -1.
         25    1    1    2    0    0 -0.66132276479E+02 -0.18914133252E+03 -0.26629195486E+03  0.35592741800E+03  0.12500000000E+03 0.  0.
         21    1    1    2  503  502  0.25467509001E+02  0.13359890375E+03 -0.50366008433E+03  0.52169985781E+03  0.00000000000E+00 0. -1.
         -2    1    1    2    0  503  0.40664767479E+02  0.55542428769E+02  0.10702824707E+03  0.12725419591E+03  0.00000000000E+00 0. -1.
<mgrwt>
<rscale>  4 0.19258426E+03</rscale>
<asrwt>0</asrwt>
<pdfrwt beam="1">  1       21 0.12829271E+00 0.19258426E+03</pdfrwt>
<pdfrwt beam="2">  1       -2 0.26304438E-01 0.19258426E+03</pdfrwt>
<totfact> 0.46418589E+02</totfact>
</mgrwt>
</event>
<event>
 5    0  0.4115852E+000  0.3408449E+03  0.7546771E-02  0.1066437E+00
          2   -1    0    0  502    0 -0.00000000000E+00  0.00000000000E+00  0.63687451650E+03  0.63687451650E+03  0.00000000000E+00 0.  1.
         21   -1    0    0  503  502  0.00000000000E+00 -0.00000000000E+00 -0.55078509014E+03  0.55078509014E+03  0.00000000000E+00 0.  1.
         25    1    1    2    0    0 -0.97527356723E+02 -0.33352907392E+03 -0.36504825388E+03  0.51926722997E+03  0.12500000000E+03 0.  0.
         21    1    1    2  503  501 -0.24500185138E+02  0.43974431625E+02 -0.53794942825E+02  0.73674321049E+02  0.00000000000E+00 0.  1.
          2    1    1    2  501    0  0.12202754186E+03  0.28955464230E+03  0.50493262306E+03  0.59471805562E+03  0.00000000000E+00 0.  1.
<mgrwt>
<rscale>  4 0.34084494E+03</rscale>
<asrwt>0</asrwt>
<pdfrwt beam="1">  1       21 0.84736167E-01 0.34084494E+03</pdfrwt>
<pdfrwt beam="2">  1        2 0.97980695E-01 0.34084494E+03</pdfrwt>
<totfact> 0.66717793E+02</totfact>
</mgrwt>
</event>
<event>
 5    0  0.4115852E+000  0.3116618E+03  0.7546771E-02  0.1079552E+00
         21   -1    0    0  503  502  0.00000000000E+00  0.00000000000E+00  0.17232822362E+03  0.17232822362E+03  0.00000000000E+00 0. -1.
          2   -1    0    0  502    0 -0.00000000000E+00 -0.00000000000E+00 -0.21337412632E+04  0.21337412632E+04  0.00000000000E+00 0.  1.
         25    1    1    2    0    0 -0.24201040903E+03 -0.34886735657E+02  0.18123208105E+02  0.27520823584E+03  0.12500000000E+03 0.  0.
         21    1    1    2  503  501 -0.31933232229E+02 -0.56476260996E+02 -0.55808895682E+02  0.85579975543E+02  0.00000000000E+00 0. -1.
          2    1    1    2  501    0  0.27394364126E+03  0.91362996653E+02 -0.19237273520E+04  0.19452812754E+04  0.00000000000E+00 0.  1.
<mgrwt>
<rscale>  4 0.31166178E+03</rscale>
<asrwt>0</asrwt>
<pdfrwt beam="1">  1       21 0.26512035E-01 0.31166178E+03</pdfrwt>
<pdfrwt beam="2">  1        2 0.32826788E+00 0.31166178E+03</pdfrwt>
<totfact> 0.10391896E+03</totfact>
</mgrwt>
</event>
<event>
 5    0  0.4115852E+000  0.2602837E+03  0.7546771E-02  0.1106973E+00
         21   -1    0    0  503  502  0.00000000000E+00  0.00000000000E+00  0.13458261504E+04  0.13458261504E+04  0.00000000000E+00 0.  1.
          1   -1    0    0  502    0 -0.00000000000E+00 -0.00000000000E+00 -0.75770719213E+02  0.75770719213E+02  0.00000000000E+00 0.  1.
         25    1    1    2    0    0 -0.33384931401E+02  0.22706454419E+03  0.10272809626E+04  0.10600019042E+04  0.12500000000E+03 0.  0.
         21    1    1    2  503  501 -0.22157590530E+02 -0.56788401668E+01  0.74750406109E+02  0.78171806025E+02  0.00000000000E+00 0.  1.
          1    1    1    2  501    0  0.55542521932E+02 -0.22138570403E+03  0.16802406252E+03  0.28342315938E+03  0.00000000000E+00 0.  1.
<mgrwt>
<rscale>  4 0.26028365E+03</rscale>
<asrwt>0</asrwt>
<pdfrwt beam="1">  1       21 0.20705016E+00 0.26028365E+03</pdfrwt>
<pdfrwt beam="2">  1        1 0.11657035E-01 0.26028365E+03</pdfrwt>
<totfact> 0.64648680E+02</totfact>
</mgrwt>
</event>
<event>
 5    0  0.4115852E+000  0.3691623E+03  0.7546771E-02  0.1055014E+00
         -4   -1    0    0    0  501 -0.00000000000E+00  0.00000000000E+00  0.44958458096E+03  0.44958458096E+03  0.00000000000E+00 0.  1.
         21   -1    0    0  501  502  0.00000000000E+00 -0.00000000000E+00 -0.66910983110E+03  0.66910983110E+03  0.00000000000E+00 0.  1.
         25    1    1    2    0    0  0.22410375201E+03 -0.31092611288E+03 -0.34334329764E+02  0.40460027872E+03  0.12500000000E+03 0.  0.
         21    1    1    2  503  502  0.10190310544E+02  0.76291068280E+02 -0.33967774171E+03  0.34828887112E+03  0.00000000000E+00 0.  1.
         -4    1    1    2    0  503 -0.23429406256E+03  0.23463504460E+03  0.15448682134E+03  0.36580526223E+03  0.00000000000E+00 0.  1.
<mgrwt>
<rscale>  4 0.36916227E+03</rscale>
<asrwt>0</asrwt>
<pdfrwt beam="1">  1       21 0.10293997E+00 0.36916227E+03</pdfrwt>
<pdfrwt beam="2">  1       -4 0.69166859E-01 0.36916227E+03</pdfrwt>
<totfact> 0.60164526E+01</totfact>
</mgrwt>
</event>
<event>
 5    0  0.4115852E+000  0.3318748E+03  0.7546771E-02  0.1070310E+00
         21   -1    0    0  501  502  0.00000000000E+00  0.00000000000E+00  0.17844632812E+04  0.17844632812E+04  0.00000000000E+00 0.  1.
         -4   -1    0    0    0  501 -0.00000000000E+00 -0.00000000000E+00 -0.24489481874E+03  0.24489481874E+03  0.00000000000E+00 0.  1.
         25    1    1    2    0    0 -0.24164903288E+03  0.13378124086E+01  0.12296193252E+04  0.12593588566E+04  0.12500000000E+03 0.  0.
         21    1    1    2  503  502 -0.65248680830E+02  0.63185503892E+02  0.42602498130E+03  0.43559968198E+03  0.00000000000E+00 0.  1.
         -4    1    1    2    0  503  0.30689771371E+03 -0.64523316300E+02 -0.11607584407E+03  0.33439956131E+03  0.00000000000E+00 0.  1.
<mgrwt>
<rscale>  4 0.33187480E+03</rscale>
<asrwt>0</asrwt>
<pdfrwt beam="1">  1       21 0.27453280E+00 0.33187480E+03</pdfrwt>
<pdfrwt beam="2">  1       -4 0.37676127E-01 0.33187480E+03</pdfrwt>
<totfact> 0.12581699E+01</totfact>
</mgrwt>
</event>
<event>
 5    0  0.4115852E+000  0.2920707E+03  0.7546771E-02  0.1089273E+00
         21   -1    0    0  503  502  0.00000000000E+00  0.00000000000E+00  0.37340862932E+03  0.37340862932E+03  0.00000000000E+00 0.  1.
          2   -1    0    0  502    0 -0.00000000000E+00 -0.00000000000E+00 -0.40400748385E+03  0.40400748385E+03  0.00000000000E+00 0.  1.
         25    1    1    2    0    0 -0.12382577313E+03  0.23980640279E+03 -0.22181959598E+03  0.37103755345E+03  0.12500000000E+03 0.  0.
         21    1    1    2  503  501  0.23774307607E+02 -0.79610516397E+01  0.14810429512E+03  0.15021144523E+03  0.00000000000E+00 0.  1.
          2    1    1    2  501    0  0.10005146552E+03 -0.23184535115E+03  0.43116446337E+02  0.25616711449E+03  0.00000000000E+00 0.  1.
<mgrwt>
<rscale>  4 0.29207072E+03</rscale>
<asrwt>0</asrwt>
<pdfrwt beam="1">  1       21 0.57447482E-01 0.29207072E+03</pdfrwt>
<pdfrwt beam="2">  1        2 0.62154997E-01 0.29207072E+03</pdfrwt>
<totfact> 0.27091485E+03</totfact>
</mgrwt>
</event>
<event>
 5    0  0.4115852E+000  0.2825928E+03  0.7546771E-02  0.1094281E+00
          2   -1    0    0  502    0 -0.00000000000E+00  0.00000000000E+00  0.24054542452E+04  0.24054542452E+04  0.00000000000E+00 0. -1.
         21   -1    0    0  503  502  0.00000000000E+00 -0.00000000000E+00 -0.24494836377E+03  0.24494836377E+03  0.00000000000E+00 0. -1.
         25    1    1    2    0    0  0.13048137290E+03 -0.21702126941E+03  0.84787554336E+02  0.29485174142E+03  0.12500000000E+03 0.  0.
         21    1    1    2  503  501 -0.37036788616E+02 -0.18820161738E+02 -0.12939143471E+03  0.13589726111E+03  0.00000000000E+00 0. -1.
          2    1    1    2  501    0 -0.93444584279E+02  0.23584143115E+03  0.22051097618E+04  0.22196536064E+04  0.00000000000E+00 0. -1.
<mgrwt>
<rscale>  4 0.28259280E+03</rscale>
<asrwt>0</asrwt>
<pdfrwt beam="1">  1       21 0.37684365E-01 0.28259280E+03</pdfrwt>
<pdfrwt beam="2">  1        2 0.37006987E+00 0.28259280E+03</pdfrwt>
<totfact> 0.37542826E+02</totfact>
</mgrwt>
</event>
<event>
 5    0  0.4115852E+000  0.3210419E+03  0.7546771E-02  0.1075171E+00
          2   -1    0    0  502    0 -0.00000000000E+00  0.00000000000E+00  0.36974117418E+03  0.36974117418E+03  0.00000000000E+00 0. -1.
         21   -1    0    0  503  502  0.00000000000E+00 -0.00000000000E+00 -0.15656496412E+04  0.15656496412E+04  0.00000000000E+00 0. -1.
         25    1    1    2    0    0 -0.13378390364E+03  0.34638833709E+03  0.14369527411E+03  0.41732043413E+03  0.12500000000E+03 0.  0.
         21    1    1    2  503  501  0.11817719929E+03 -0.26663856657E+03 -0.13914433246E+04  0.14216808718E+04  0.00000000000E+00 0. -1.
          2    1    1    2  501    0  0.15606704347E+02 -0.79749770520E+02  0.51839583471E+02  0.96389509456E+02  0.00000000000E+00 0. -1.
<mgrwt>
<rscale>  4 0.32104186E+03</rscale>
<asrwt>0</asrwt>
<pdfrwt beam="1">  1       21 0.24086918E+00 0.32104186E+03</pdfrwt>
<pdfrwt beam="2">  1        2 0.56883257E-01 0.32104186E+03</pdfrwt>
<totfact> 0.73413175E+01</totfact>
</mgrwt>
</event>
<event>
 5    0  0.4115852E+000  0.2199358E+03  0.7546771E-02  0.1133931E+00
          1   -1    0    0  502    0 -0.00000000000E+00  0.00000000000E+00  0.64603431757E+03  0.64603431757E+03  0.00000000000E+00 0. -1.
         21   -1    0    0  503  502  0.00000000000E+00 -0.00000000000E+00 -0.27375883496E+03  0.27375883496E+03  0.00000000000E+00 0. -1.
         25    1    1    2    0    0  0.20593754590E+03 -0.88159163719E+02  0.61003395736E+02  0.26368300144E+03  0.12500000000E+03 0.  0.
         21    1    1    2  503  501 -0.34668525369E+02  0.53338723867E+02 -0.14994916324E+03  0.16288547410E+03  0.00000000000E+00 0. -1.
          1    1    1    2  501    0 -0.17126902053E+03  0.34820439852E+02  0.46122125013E+03  0.49322467699E+03  0.00000000000E+00 0. -1.
<mgrwt>
<rscale>  4 0.21993582E+03</rscale>
<asrwt>0</asrwt>
<pdfrwt beam="1">  1       21 0.42116744E-01 0.21993582E+03</pdfrwt>
<pdfrwt beam="2">  1        1 0.99389895E-01 0.21993582E+03</pdfrwt>
<totfact> 0.18875820E+03</totfact>
</mgrwt>
</event>
<event>
 5    0  0.4115852E+000  0.2722800E+03  0.7546771E-02  0.1099982E+00
          1   -1    0    0  502    0 -0.00000000000E+00  0.00000000000E+00  0.15770356956E+04  0.15770356956E+04  0.00000000000E+00 0.  1.
         21   -1    0    0  503  502  0.00000000000E+00 -0.00000000000E+00 -0.18704591298E+03  0.18704591298E+03  0.00000000000E+00 0.  1.
         25    1    1    2    0    0 -0.19798354768E+02 -0.23574592675E+03  0.10337040688E+04  0.10677720818E+04  0.12500000000E+03 0.  0.
         21    1    1    2  503  501 -0.34714507321E+02 -0.11127124489E+02 -0.13713046752E+03  0.14189318180E+03  0.00000000000E+00 0.  1.
          1    1    1    2  501    0  0.54512862089E+02  0.24687305124E+03  0.49341618136E+03  0.55441634499E+03  0.00000000000E+00 0.  1.
<mgrwt>
<rscale>  4 0.27228001E+03</rscale>
<asrwt>0</asrwt>
<pdfrwt beam="1">  1       21 0.28776295E-01 0.27228001E+03</pdfrwt>
<pdfrwt beam="2">  1        1 0.24262087E+00 0.27228001E+03</pdfrwt>
<totfact> 0.79999503E+02</totfact>
</mgrwt>
</event>
<event>
 5    0  0.4115852E+000  0.3492001E+03  0.7546771E-02  0.1062944E+00
         21   -1    0    0  503  502  0.00000000000E+00  0.00000000000E+00  0.10186886403E+03  0.10186886403E+03  0.00000000000E+00 0.  1.
          2   -1    0    0  502    0 -0.00000000000E+00 -0.00000000000E+00 -0.18518357052E+04  0.18518357052E+04  0.00000000000E+00 0. -1.
         25    1    1    2    0    0  0.17445239239E+03 -0.27689419286E+03 -0.30651862994E+03  0.46549189225E+03  0.12500000000E+03 0.  0.
         21    1    1    2  503  501  0.21552496174E+02  0.16410362099E+02 -0.47266777408E+02  0.54478971375E+02  0.00000000000E+00 0. -1.
          2    1    1    2  501    0 -0.19600488856E+03  0.26048383076E+03 -0.13961814339E+04  0.14337337056E+04  0.00000000000E+00 0. -1.
<mgrwt>
<rscale>  4 0.34920014E+03</rscale>
<asrwt>0</asrwt>
<pdfrwt beam="1">  1       21 0.15672134E-01 0.34920014E+03</pdfrwt>
<pdfrwt beam="2">  1        2 0.28489779E+00 0.34920014E+03</pdfrwt>
<totfact> 0.39180318E+03</totfact>
</mgrwt>
</event>
<event>
 5    0  0.4115852E+000  0.3466853E+03  0.7546771E-02  0.1063984E+00
         21   -1    0    0  503  502  0.00000000000E+00  0.00000000000E+00  0.16862158709E+03  0.16862158709E+03  0.00000000000E+00 0.  1.
          2   -1    0    0  502    0 -0.00000000000E+00 -0.00000000000E+00 -0.13647893937E+04  0.13647893937E+04  0.00000000000E+00 0.  1.
         25    1    1    2    0    0  0.37723961350E+03 -0.60962602005E+02 -0.28791240835E+03  0.49451463044E+03  0.12500000000E+03 0.  0.
         21    1    1    2  503  501 -0.27253206690E+03  0.46103661642E+02 -0.25156131503E+03  0.37374104715E+03  0.00000000000E+00 0.  1.
          2    1    1    2  501    0 -0.10470754660E+03  0.14858940363E+02 -0.65669408323E+03  0.66515530320E+03  0.00000000000E+00 0.  1.
<mgrwt>
<rscale>  4 0.34668532E+03</rscale>
<asrwt>0</asrwt>
<pdfrwt beam="1">  1       21 0.25941782E-01 0.34668532E+03</pdfrwt>
<pdfrwt beam="2">  1        2 0.20996760E+00 0.34668532E+03</pdfrwt>
<totfact> 0.27571670E+03</totfact>
</mgrwt>
</event>
<event>
 5    0  0.4115852E+000  0.3638335E+03  0.7546771E-02  0.1057076E+00
         21   -1    0    0  503  502  0.00000000000E+00  0.00000000000E+00  0.51333362251E+03  0.51333362251E+03  0.00000000000E+00 0.  1.
          2   -1    0    0  502    0 -0.00000000000E+00 -0.00000000000E+00 -0.15853776080E+04  0.15853776080E+04  0.00000000000E+00 0. -1.
         25    1    1    2    0    0 -0.28884789172E+03  0.10001770950E+03  0.21804990116E+03  0.39573653630E+03  0.12500000000E+03 0.  0.
         21    1    1    2  503  501 -0.22939618348E+02  0.45593562448E+02  0.18312293461E+03  0.19010262546E+03  0.00000000000E+00 0.  1.
          2    1    1    2  501    0  0.31178751007E+03 -0.14561127195E+03 -0.14732168213E+04  0.15128720688E+04  0.00000000000E+00 0. -1.
<mgrwt>
<rscale>  4 0.36383348E+03</rscale>
<asrwt>0</asrwt>
<pdfrwt beam="1">  1       21 0.78974404E-01 0.36383348E+03</pdfrwt>
<pdfrwt beam="2">  1        2 0.24390424E+00 0.36383348E+03</pdfrwt>
<totfact> 0.20148832E+02</totfact>
</mgrwt>
</event>
<event>
 5    0  0.4115852E+000  0.2657984E+03  0.7546771E-02  0.1103709E+00
          2   -1    0    0  502    0 -0.00000000000E+00  0.00000000000E+00  0.22855295087E+04  0.22855295087E+04  0.00000000000E+00 0. -1.
         21   -1    0    0  503  502  0.00000000000E+00 -0.00000000000E+00 -0.17333694636E+03  0.17333694636E+03  0.00000000000E+00 0.  1.
         25    1    1    2    0    0 -0.28899760262E+03  0.24759256910E+02  0.75826394056E+03  0.82141453523E+03  0.12500000000E+03 0.  0.
         21    1    1    2  503  501  0.69843673639E+02 -0.28914531233E+01 -0.12446042180E+03  0.14274766493E+03  0.00000000000E+00 0.  1.
          2    1    1    2  501    0  0.21915392898E+03 -0.21867803787E+02  0.14783890436E+04  0.14947042549E+04  0.00000000000E+00 0. -1.
<mgrwt>
<rscale>  4 0.26579839E+03</rscale>
<asrwt>0</asrwt>
<pdfrwt beam="1">  1       21 0.26667224E-01 0.26579839E+03</pdfrwt>
<pdfrwt beam="2">  1        2 0.35161990E+00 0.26579839E+03</pdfrwt>
<totfact> 0.87201725E+02</totfact>
</mgrwt>
</event>
<event>
 5    0  0.4115852E+000  0.2421839E+03  0.7546771E-02  0.1118346E+00
         21   -1    0    0  503  502  0.00000000000E+00  0.00000000000E+00  0.21873287865E+03  0.21873287865E+03  0.00000000000E+00 0.  1.
          1   -1    0    0  502    0 -0.00000000000E+00 -0.00000000000E+00 -0.67421235942E+03  0.67421235942E+03  0.00000000000E+00 0.  1.
         25    1    1    2    0    0 -0.14859429948E+03 -0.13659727434E+03 -0.97433722388E+00  0.23741320631E+03  0.12500000000E+03 0.  0.
         21    1    1    2  503  501  0.49083422473E+02 -0.48391290268E+02  0.65263919055E+02  0.94922486619E+02  0.00000000000E+00 0.  1.
          1    1    1    2  501    0  0.99510877003E+02  0.18498856461E+03 -0.51976906260E+03  0.56060954515E+03  0.00000000000E+00 0.  1.
<mgrwt>
<rscale>  4 0.24218391E+03</rscale>
<asrwt>0</asrwt>
<pdfrwt beam="1">  1       21 0.33651212E-01 0.24218391E+03</pdfrwt>
<pdfrwt beam="2">  1        1 0.10372498E+00 0.24218391E+03</pdfrwt>
<totfact> 0.27664611E+03</totfact>
</mgrwt>
</event>
<event>
 5    0  0.4115852E+000  0.2575413E+03  0.7546771E-02  0.1108630E+00
         -2   -1    0    0    0  501 -0.00000000000E+00  0.00000000000E+00  0.31637335465E+03  0.31637335465E+03  0.00000000000E+00 0. -1.
         21   -1    0    0  501  502  0.00000000000E+00 -0.00000000000E+00 -0.22544071874E+03  0.22544071874E+03  0.00000000000E+00 0.  1.
         25    1    1    2    0    0 -0.10496547095E+03 -0.21351303597E+03  0.62473229162E+02  0.27592294393E+03  0.12500000000E+03 0.  0.
         21    1    1    2  503  502  0.26853676453E+02  0.12454200248E+02 -0.30271793263E+02  0.42339207719E+02  0.00000000000E+00 0. -1.
         -2    1    1    2    0  503  0.78111794499E+02  0.20105883572E+03  0.58731200011E+02  0.22355192175E+03  0.00000000000E+00 0. -1.
<mgrwt>
<rscale>  4 0.25754128E+03</rscale>
<asrwt>0</asrwt>
<pdfrwt beam="1">  1       21 0.34683187E-01 0.25754128E+03</pdfrwt>
<pdfrwt beam="2">  1       -2 0.48672824E-01 0.25754128E+03</pdfrwt>
<totfact> 0.25951309E+03</totfact>
</mgrwt>
</event>
<event>
 5    0  0.4115852E+000  0.2964299E+03  0.7546771E-02  0.1087039E+00
          2   -1    0    0  502    0 -0.00000000000E+00  0.00000000000E+00  0.15443703061E+04  0.15443703061E+04  0.00000000000E+00 0. -1.
         21   -1    0    0  503  502  0.00000000000E+00 -0.00000000000E+00 -0.58788800810E+02  0.58788800810E+02  0.00000000000E+00 0.  1.
         25    1    1    2    0    0 -0.63184109699E+02  0.24442961140E+03  0.64344082291E+03  0.70240953811E+03  0.12500000000E+03 0.  0.
         21    1    1    2  503  501 -0.97977830864E+01  0.28014176118E+02  0.35794157670E+02  0.46497444449E+02  0.00000000000E+00 0.  1.
          2    1    1    2  501    0  0.72981892786E+02 -0.27244378752E+03  0.80634652470E+03  0.85425212434E+03  0.00000000000E+00 0. -1.
<mgrwt>
<rscale>  4 0.29642988E+03</rscale>
<asrwt>0</asrwt>
<pdfrwt beam="1">  1       21 0.90444321E-02 0.29642988E+03</pdfrwt>
<pdfrwt beam="2">  1        2 0.23759540E+00 0.29642988E+03</pdfrwt>
<totfact> 0.15656247E+04</totfact>
</mgrwt>
</event>
<event>
 5    0  0.4115852E+000  0.3073098E+03  0.7546771E-02  0.1081643E+00
          2   -1    0    0  502    0 -0.00000000000E+00  0.00000000000E+00  0.16322176895E+04  0.16322176895E+04  0.00000000000E+00 0.  1.
         21   -1    0    0  503  502  0.00000000000E+00 -0.00000000000E+00 -0.16728884087E+03  0.16728884087E+03  0.00000000000E+00 0.  1.
         25    1    1    2    0    0 -0.26828211238E+03 -0.10404816923E+03  0.11764655075E+04  0.12175785000E+04  0.12500000000E+03 0.  0.
         21    1    1    2  503  501  0.19720429779E+02  0.72112194723E+01 -0.10471362026E+03  0.10679812407E+03  0.00000000000E+00 0.  1.
          2    1    1    2  501    0  0.24856168260E+03  0.96836949753E+02  0.39317696141E+03  0.47512990631E+03  0.00000000000E+00 0.  1.
<mgrwt>
<rscale>  4 0.30730975E+03</rscale>
<asrwt>0</asrwt>
<pdfrwt beam="1">  1       21 0.25736746E-01 0.30730975E+03</pdfrwt>
<pdfrwt beam="2">  1        2 0.25111040E+00 0.30730975E+03</pdfrwt>
<totfact> 0.20323796E+03</totfact>
</mgrwt>
</event>
<event>
 5    0  0.4115852E+000  0.2861110E+03  0.7546771E-02  0.1092397E+00
         -1   -1    0    0    0  501 -0.00000000000E+00  0.00000000000E+00  0.35914709643E+03  0.35914709643E+03  0.00000000000E+00 0.  1.
         21   -1    0    0  501  502  0.00000000000E+00 -0.00000000000E+00 -0.56488333435E+03  0.56488333435E+03  0.00000000000E+00 0.  1.
         25    1    1    2    0    0  0.17217598699E+03  0.20273060605E+03 -0.37317729833E+03  0.47500585798E+03  0.12500000000E+03 0.  0.
         21    1    1    2  503  502  0.43653606697E+02 -0.62263432141E+02 -0.66572078531E+02  0.10106539467E+03  0.00000000000E+00 0. -1.
         -1    1    1    2    0  503 -0.21582959369E+03 -0.14046717391E+03  0.23401313893E+03  0.34795917814E+03  0.00000000000E+00 0.  1.
<mgrwt>
<rscale>  4 0.28611096E+03</rscale>
<asrwt>0</asrwt>
<pdfrwt beam="1">  1       21 0.86905128E-01 0.28611096E+03</pdfrwt>
<pdfrwt beam="2">  1       -1 0.55253399E-01 0.28611096E+03</pdfrwt>
<totfact> 0.34400718E+02</totfact>
</mgrwt>
</event>
<event>
 5    0  0.4115852E+000  0.1941410E+03  0.7546771E-02  0.1154779E+00
          1   -1    0    0  502    0 -0.00000000000E+00  0.00000000000E+00  0.83357877254E+03  0.83357877254E+03  0.00000000000E+00 0.  1.
         21   -1    0    0  503  502  0.00000000000E+00 -0.00000000000E+00 -0.13021854776E+03  0.13021854776E+03  0.00000000000E+00 0. -1.
         25    1    1    2    0    0  0.24961300628E+02  0.20178852087E+03  0.68061809627E+02  0.24819162680E+03  0.12500000000E+03 0.  0.
         21    1    1    2  503  501 -0.58207315454E+02 -0.61192586030E+02  0.24475839256E+02  0.87930033918E+02  0.00000000000E+00 0. -1.
          1    1    1    2  501    0  0.33246014826E+02 -0.14059593484E+03  0.61082257591E+03  0.62767565958E+03  0.00000000000E+00 0.  1.
<mgrwt>
<rscale>  4 0.19414105E+03</rscale>
<asrwt>0</asrwt>
<pdfrwt beam="1">  1       21 0.20033623E-01 0.19414105E+03</pdfrwt>
<pdfrwt beam="2">  1        1 0.12824288E+00 0.19414105E+03</pdfrwt>
<totfact> 0.55591214E+03</totfact>
</mgrwt>
</event>
<event>
 5    0  0.4115852E+000  0.2745283E+03  0.7546771E-02  0.1098716E+00
         21   -1    0    0  503  502  0.00000000000E+00  0.00000000000E+00  0.97492286991E+02  0.97492286991E+02  0.00000000000E+00 0. -1.
          2   -1    0    0  502    0 -0.00000000000E+00 -0.00000000000E+00 -0.11974853416E+04  0.11974853416E+04  0.00000000000E+00 0. -1.
         25    1    1    2    0    0 -0.22076509315E+03  0.17868284690E+01 -0.68092988527E+03  0.72665736614E+03  0.12500000000E+03 0.  0.
         21    1    1    2  503  501 -0.78191403695E+02 -0.29624328810E+01 -0.47957920608E+02  0.91774908169E+02  0.00000000000E+00 0. -1.
          2    1    1    2  501    0  0.29895649685E+03  0.11756044120E+01 -0.37110524874E+03  0.47654535429E+03  0.00000000000E+00 0. -1.
<mgrwt>
<rscale>  4 0.27452826E+03</rscale>
<asrwt>0</asrwt>
<pdfrwt beam="1">  1       21 0.14998813E-01 0.27452826E+03</pdfrwt>
<pdfrwt beam="2">  1        2 0.18422852E+00 0.27452826E+03</pdfrwt>
<totfact> 0.98130986E+03</totfact>
</mgrwt>
</event>
<event>
 5    0  0.4115852E+000  0.4476084E+03  0.7546771E-02  0.1028438E+00
         21   -1    0    0  501  502  0.00000000000E+00  0.00000000000E+00  0.56195880561E+03  0.56195880561E+03  0.00000000000E+00 0.  1.
         -2   -1    0    0    0  501 -0.00000000000E+00 -0.00000000000E+00 -0.55047024522E+03  0.55047024522E+03  0.00000000000E+00 0.  1.
         25    1    1    2    0    0  0.44730443692E+03  0.12171134684E+02  0.25717814367E+03  0.53103200788E+03  0.12500000000E+03 0.  0.
         21    1    1    2  503  502 -0.23484550494E+02 -0.48282964857E+02  0.41761470544E+02  0.68020505948E+02  0.00000000000E+00 0. -1.
         -2    1    1    2    0  503 -0.42381988643E+03  0.36111830174E+02 -0.28745105382E+03  0.51337653701E+03  0.00000000000E+00 0.  1.
<mgrwt>
<rscale>  4 0.44760837E+03</rscale>
<asrwt>0</asrwt>
<pdfrwt beam="1">  1       21 0.86455201E-01 0.44760837E+03</pdfrwt>
<pdfrwt beam="2">  1       -2 0.84687730E-01 0.44760837E+03</pdfrwt>
<totfact> 0.10715023E+02</totfact>
</mgrwt>
</event>
<event>
 5    0  0.4115852E+000  0.1946988E+03  0.7546771E-02  0.1154290E+00
         21   -1    0    0  503  502  0.00000000000E+00  0.00000000000E+00  0.73271117018E+02  0.73271117018E+02  0.00000000000E+00 0. -1.
          2   -1    0    0  502    0 -0.00000000000E+00 -0.00000000000E+00 -0.10174541600E+04  0.10174541600E+04  0.00000000000E+00 0. -1.
         25    1    1    2    0    0 -0.10860720894E+03 -0.17872535566E+03 -0.31463519283E+03  0.39794293957E+03  0.12500000000E+03 0.  0.
         21    1    1    2  503  501  0.56179576374E+02  0.11261853470E+03 -0.11221938938E+03  0.16861871341E+03  0.00000000000E+00 0. -1.
          2    1    1    2  501    0  0.52427632566E+02  0.66106820957E+02 -0.51732846080E+03  0.52416362406E+03  0.00000000000E+00 0. -1.
<mgrwt>
<rscale>  4 0.19469879E+03</rscale>
<asrwt>0</asrwt>
<pdfrwt beam="1">  1       21 0.11272480E-01 0.19469879E+03</pdfrwt>
<pdfrwt beam="2">  1        2 0.15653141E+00 0.19469879E+03</pdfrwt>
<totfact> 0.21373413E+04</totfact>
</mgrwt>
</event>
<event>
 5    0  0.4115852E+000  0.5707629E+03  0.7546771E-02  0.9982510E-01
          1   -1    0    0  502    0 -0.00000000000E+00  0.00000000000E+00  0.44997173930E+03  0.44997173930E+03  0.00000000000E+00 0.  1.
         21   -1    0    0  503  502  0.00000000000E+00 -0.00000000000E+00 -0.72706540321E+03  0.72706540321E+03  0.00000000000E+00 0.  1.
         25    1    1    2    0    0 -0.48592402139E+03 -0.21306462691E+03 -0.26508814589E+03  0.60614801401E+03  0.12500000000E+03 0.  0.
         21    1    1    2  503  501  0.17145371909E+03  0.35152610785E+02 -0.96459135966E+02  0.19984105871E+03  0.00000000000E+00 0.  1.
          1    1    1    2  501    0  0.31447030230E+03  0.17791201612E+03  0.84453617953E+02  0.37104806979E+03  0.00000000000E+00 0.  1.
<mgrwt>
<rscale>  4 0.56423835E+03</rscale>
<asrwt>0</asrwt>
<pdfrwt beam="1">  1       21 0.11185621E+00 0.57076288E+03</pdfrwt>
<pdfrwt beam="2">  1        1 0.69226422E-01 0.57076288E+03</pdfrwt>
<totfact> 0.31181413E+02</totfact>
</mgrwt>
</event>
<event>
 5    0  0.4115852E+000  0.6497978E+03  0.7546771E-02  0.9807159E-01
         21   -1    0    0  503  502  0.00000000000E+00  0.00000000000E+00  0.27524687250E+03  0.27524687250E+03  0.00000000000E+00 0.  1.
          1   -1    0    0  502    0 -0.00000000000E+00 -0.00000000000E+00 -0.18687662514E+04  0.18687662514E+04  0.00000000000E+00 0.  1.
         25    1    1    2    0    0 -0.24632274336E+02 -0.64147004270E+03 -0.43903616572E+03  0.78769811440E+03  0.12500000000E+03 0.  0.
         21    1    1    2  503  501 -0.47885900131E+02  0.93949615669E+01 -0.14663662841E+02  0.50954369215E+02  0.00000000000E+00 0. -1.
          1    1    1    2  501    0  0.72518174467E+02  0.63207508114E+03 -0.11398195503E+04  0.13053606402E+04  0.00000000000E+00 0.  1.
<mgrwt>
<rscale>  4 0.64979783E+03</rscale>
<asrwt>0</asrwt>
<pdfrwt beam="1">  1       21 0.42345674E-01 0.64979783E+03</pdfrwt>
<pdfrwt beam="2">  1        1 0.28750249E+00 0.64979783E+03</pdfrwt>
<totfact> 0.20798668E+02</totfact>
</mgrwt>
</event>
<event>
 5    0  0.4115852E+000  0.2262017E+03  0.7546771E-02  0.1129342E+00
          2   -1    0    0  502    0 -0.00000000000E+00  0.00000000000E+00  0.20747417072E+04  0.20747417072E+04  0.00000000000E+00 0. -1.
         21   -1    0    0  503  502  0.00000000000E+00 -0.00000000000E+00 -0.57890800095E+03  0.57890800095E+03  0.00000000000E+00 0.  1.
         25    1    1    2    0    0  0.10697023634E+03  0.18719104502E+03 -0.36863738715E+03  0.44497375429E+03  0.12500000000E+03 0.  0.
         21    1    1    2  503  501  0.33922925468E+01 -0.34685076140E+02 -0.16593827118E+03  0.16955846188E+03  0.00000000000E+00 0.  1.
          2    1    1    2  501    0 -0.11036252889E+03 -0.15250596888E+03  0.20304093646E+04  0.20391174920E+04  0.00000000000E+00 0. -1.
<mgrwt>
<rscale>  4 0.22620168E+03</rscale>
<asrwt>0</asrwt>
<pdfrwt beam="1">  1       21 0.89062771E-01 0.22620168E+03</pdfrwt>
<pdfrwt beam="2">  1        2 0.31919103E+00 0.22620168E+03</pdfrwt>
<totfact> 0.91815553E+01</totfact>
</mgrwt>
</event>
<event>
 5    0  0.4115852E+000  0.2573004E+03  0.7546771E-02  0.1108776E+00
          2   -1    0    0  502    0 -0.00000000000E+00  0.00000000000E+00  0.33479601674E+04  0.33479601674E+04  0.00000000000E+00 0.  1.
         21   -1    0    0  503  502  0.00000000000E+00 -0.00000000000E+00 -0.41601681844E+02  0.41601681844E+02  0.00000000000E+00 0. -1.
         25    1    1    2    0    0 -0.20323716513E+03  0.72800605562E+02  0.40963050586E+03  0.47961174380E+03  0.12500000000E+03 0.  0.
         21    1    1    2  503  501 -0.27678253224E+01  0.20460100199E+02  0.47885156115E+02  0.52146569718E+02  0.00000000000E+00 0.  1.
          2    1    1    2  501    0  0.20600499045E+03 -0.93260705761E+02  0.28488428236E+04  0.28578035357E+04  0.00000000000E+00 0.  1.
<mgrwt>
<rscale>  4 0.25730037E+03</rscale>
<asrwt>0</asrwt>
<pdfrwt beam="1">  1       21 0.64002614E-02 0.25730037E+03</pdfrwt>
<pdfrwt beam="2">  1        2 0.51507058E+00 0.25730037E+03</pdfrwt>
<totfact> 0.28645245E+03</totfact>
</mgrwt>
</event>
<event>
 5    0  0.4115852E+000  0.5633857E+03  0.7546771E-02  0.9984423E-01
         21   -1    0    0  503  502  0.00000000000E+00  0.00000000000E+00  0.37868913160E+03  0.37868913160E+03  0.00000000000E+00 0.  1.
          2   -1    0    0  502    0 -0.00000000000E+00 -0.00000000000E+00 -0.15927881890E+04  0.15927881890E+04  0.00000000000E+00 0. -1.
         25    1    1    2    0    0 -0.56729139291E+03 -0.26976186248E+03 -0.98844998810E+02  0.64806351595E+03  0.12500000000E+03 0.  0.
         21    1    1    2  503  501  0.43021554457E+03  0.78757403945E+02 -0.49739250705E+03  0.66233484699E+03  0.00000000000E+00 0.  1.
          2    1    1    2  501    0  0.13707584834E+03  0.19100445853E+03 -0.61786155157E+03  0.66107895768E+03  0.00000000000E+00 0. -1.
<mgrwt>
<rscale>  4 0.56338573E+03</rscale>
<asrwt>0</asrwt>
<pdfrwt beam="1">  1       21 0.58259868E-01 0.56338573E+03</pdfrwt>
<pdfrwt beam="2">  1        2 0.24504433E+00 0.56338573E+03</pdfrwt>
<totfact> 0.36906997E+02</totfact>
</mgrwt>
</event>
<event>
 5    0  0.4115852E+000  0.3983429E+03  0.7546771E-02  0.1044355E+00
         21   -1    0    0  503  502  0.00000000000E+00  0.00000000000E+00  0.67010590570E+03  0.67010590570E+03  0.00000000000E+00 0. -1.
          2   -1    0    0  502    0 -0.00000000000E+00 -0.00000000000E+00 -0.76537298913E+03  0.76537298913E+03  0.00000000000E+00 0.  1.
         25    1    1    2    0    0  0.13783142915E+02  0.39860372829E+03 -0.19919740666E+03  0.46301135413E+03  0.12500000000E+03 0.  0.
         21    1    1    2  503  501 -0.17007514019E+02 -0.32353718621E+02  0.46011781805E+03  0.46156735708E+03  0.00000000000E+00 0. -1.
          2    1    1    2  501    0  0.32243711039E+01 -0.36625000967E+03 -0.35618749482E+03  0.51090018362E+03  0.00000000000E+00 0.  1.
<mgrwt>
<rscale>  4 0.39834295E+03</rscale>
<asrwt>0</asrwt>
<pdfrwt beam="1">  1       21 0.10309322E+00 0.39834295E+03</pdfrwt>
<pdfrwt beam="2">  1        2 0.11774969E+00 0.39834295E+03</pdfrwt>
<totfact> 0.32708860E+02</totfact>
</mgrwt>
</event>
<event>
 5    0  0.4115852E+000  0.3421894E+03  0.7546771E-02  0.1065867E+00
          2   -1    0    0  502    0 -0.00000000000E+00  0.00000000000E+00  0.46821251653E+03  0.46821251653E+03  0.00000000000E+00 0.  1.
         21   -1    0    0  503  502  0.00000000000E+00 -0.00000000000E+00 -0.47804967494E+03  0.47804967494E+03  0.00000000000E+00 0. -1.
         25    1    1    2    0    0 -0.45407129972E+02 -0.28298396178E+03 -0.14231672713E+03  0.34354152718E+03  0.12500000000E+03 0.  0.
         21    1    1    2  503  501  0.73970172272E+02 -0.46580544310E+02 -0.14609378651E+03  0.17024901747E+03  0.00000000000E+00 0. -1.
          2    1    1    2  501    0 -0.28563042300E+02  0.32956450609E+03  0.27857335522E+03  0.43247164681E+03  0.00000000000E+00 0.  1.
<mgrwt>
<rscale>  4 0.34218935E+03</rscale>
<asrwt>0</asrwt>
<pdfrwt beam="1">  1       21 0.73546104E-01 0.34218935E+03</pdfrwt>
<pdfrwt beam="2">  1        2 0.72032695E-01 0.34218935E+03</pdfrwt>
<totfact> 0.13157029E+03</totfact>
</mgrwt>
</event>
<event>
 5    0  0.4115852E+000  0.5436906E+03  0.7546771E-02  0.1002965E+00
          2   -1    0    0  502    0 -0.00000000000E+00  0.00000000000E+00  0.81396676322E+03  0.81396676322E+03  0.00000000000E+00 0.  1.
         21   -1    0    0  503  502  0.00000000000E+00 -0.00000000000E+00 -0.78907677825E+03  0.78907677825E+03  0.00000000000E+00 0.  1.
         25    1    1    2    0    0  0.53969103265E+03  0.16686412248E+03 -0.39549539404E+03  0.70082212637E+03  0.12500000000E+03 0.  0.
         21    1    1    2  503  501 -0.50828469006E+02  0.17584939698E+02 -0.13159502253E+03  0.14216192641E+03  0.00000000000E+00 0. -1.
          2    1    1    2  501    0 -0.48886256364E+03 -0.18444906218E+03  0.55198040154E+03  0.76005948870E+03  0.00000000000E+00 0.  1.
<mgrwt>
<rscale>  4 0.54369060E+03</rscale>
<asrwt>0</asrwt>
<pdfrwt beam="1">  1       21 0.12139643E+00 0.54369060E+03</pdfrwt>
<pdfrwt beam="2">  1        2 0.12522566E+00 0.54369060E+03</pdfrwt>
<totfact> 0.19214135E+02</totfact>
</mgrwt>
</event>
<event>
 5    0  0.4115852E+000  0.2546355E+03  0.7546771E-02  0.1110410E+00
          2   -1    0    0  502    0 -0.00000000000E+00  0.00000000000E+00  0.35849280957E+03  0.35849280957E+03  0.00000000000E+00 0.  1.
         21   -1    0    0  503  502  0.00000000000E+00 -0.00000000000E+00 -0.47166607263E+03  0.47166607263E+03  0.00000000000E+00 0.  1.
         25    1    1    2    0    0  0.51719248009E+02 -0.25559296111E+03  0.64484079954E+02  0.29628675122E+03  0.12500000000E+03 0.  0.
         21    1    1    2  503  501 -0.38917190265E+02  0.53204398656E+02 -0.29316895515E+03  0.30048842240E+03  0.00000000000E+00 0.  1.
          2    1    1    2  501    0 -0.12802057744E+02  0.20238856245E+03  0.11551161214E+03  0.23338370858E+03  0.00000000000E+00 0.  1.
<mgrwt>
<rscale>  4 0.25463547E+03</rscale>
<asrwt>0</asrwt>
<pdfrwt beam="1">  1       21 0.72564011E-01 0.25463547E+03</pdfrwt>
<pdfrwt beam="2">  1        2 0.55152740E-01 0.25463547E+03</pdfrwt>
<totfact> 0.18701997E+03</totfact>
</mgrwt>
</event>
<event>
 5    0  0.4115852E+000  0.2614104E+03  0.7546771E-02  0.1106299E+00
         -2   -1    0    0    0  501 -0.00000000000E+00  0.00000000000E+00  0.19619978845E+03  0.19619978845E+03  0.00000000000E+00 0.  1.
         21   -1    0    0  501  502  0.00000000000E+00 -0.00000000000E+00 -0.32958578455E+03  0.32958578455E+03  0.00000000000E+00 0.  1.
         25    1    1    2    0    0  0.22838413110E+03  0.23474689571E+02 -0.11471416522E+03  0.28547278695E+03  0.12500000000E+03 0.  0.
         21    1    1    2  503  502 -0.27277305335E+02 -0.18959881360E+02 -0.20707525428E+02  0.39144988145E+02  0.00000000000E+00 0.  1.
         -2    1    1    2    0  503 -0.20110682576E+03 -0.45148082109E+01  0.20356945469E+01  0.20116779790E+03  0.00000000000E+00 0.  1.
<mgrwt>
<rscale>  4 0.26141035E+03</rscale>
<asrwt>0</asrwt>
<pdfrwt beam="1">  1       21 0.50705505E-01 0.26141035E+03</pdfrwt>
<pdfrwt beam="2">  1       -2 0.30184583E-01 0.26141035E+03</pdfrwt>
<totfact> 0.29562006E+03</totfact>
</mgrwt>
</event>
<event>
 5    0  0.4115852E+000  0.2507747E+03  0.7546771E-02  0.1112816E+00
          4   -1    0    0  502    0 -0.00000000000E+00  0.00000000000E+00  0.28738819325E+03  0.28738819325E+03  0.00000000000E+00 0. -1.
         21   -1    0    0  503  502  0.00000000000E+00 -0.00000000000E+00 -0.10027450850E+04  0.10027450850E+04  0.00000000000E+00 0.  1.
         25    1    1    2    0    0  0.17659289168E+03  0.96279473371E+02 -0.72048968790E+03  0.75840963651E+03  0.12500000000E+03 0.  0.
         21    1    1    2  503  501  0.42598175523E+02 -0.83330461025E+02 -0.20652851317E+03  0.22674346087E+03  0.00000000000E+00 0. -1.
          4    1    1    2  501    0 -0.21919106721E+03 -0.12949012346E+02  0.21166130931E+03  0.30498018087E+03  0.00000000000E+00 0. -1.
<mgrwt>
<rscale>  4 0.25077468E+03</rscale>
<asrwt>0</asrwt>
<pdfrwt beam="1">  1       21 0.15426848E+00 0.25077468E+03</pdfrwt>
<pdfrwt beam="2">  1        4 0.44213567E-01 0.25077468E+03</pdfrwt>
<totfact> 0.56822330E+01</totfact>
</mgrwt>
</event>
<event>
 5    0  0.4115852E+000  0.2026672E+03  0.7546771E-02  0.1147508E+00
         -1   -1    0    0    0  501 -0.00000000000E+00  0.00000000000E+00  0.57790327458E+03  0.57790327458E+03  0.00000000000E+00 0. -1.
         21   -1    0    0  501  502  0.00000000000E+00 -0.00000000000E+00 -0.20714034368E+03  0.20714034368E+03  0.00000000000E+00 0.  1.
         25    1    1    2    0    0  0.11439035320E+03  0.17100199371E+03  0.33864210855E+03  0.41548804128E+03  0.12500000000E+03 0.  0.
         21    1    1    2  503  502 -0.45443816924E+02 -0.58254578220E+02 -0.13656198836E+03  0.15526723107E+03  0.00000000000E+00 0.  1.
         -1    1    1    2    0  503 -0.68946536280E+02 -0.11274741549E+03  0.16868281071E+03  0.21428834591E+03  0.00000000000E+00 0. -1.
<mgrwt>
<rscale>  4 0.20266722E+03</rscale>
<asrwt>0</asrwt>
<pdfrwt beam="1">  1       21 0.31867745E-01 0.20266722E+03</pdfrwt>
<pdfrwt beam="2">  1       -1 0.88908195E-01 0.20266722E+03</pdfrwt>
<totfact> 0.11519617E+03</totfact>
</mgrwt>
</event>
<event>
 5    0  0.4115852E+000  0.2217693E+03  0.7546771E-02  0.1132571E+00
         21   -1    0    0  503  502  0.00000000000E+00  0.00000000000E+00  0.34206671370E+02  0.34206671370E+02  0.00000000000E+00 0.  1.
          1   -1    0    0  502    0 -0.00000000000E+00 -0.00000000000E+00 -0.18904912885E+04  0.18904912885E+04  0.00000000000E+00 0.  1.
         25    1    1    2    0    0  0.19926492229E+03  0.52424459998E+02 -0.80888973156E+03  0.84402750612E+03  0.12500000000E+03 0.  0.
         21    1    1    2  503  501 -0.33140468265E+02 -0.15526586544E+01 -0.20106613661E+02  0.38794036895E+02  0.00000000000E+00 0.  1.
          1    1    1    2  501    0 -0.16612445403E+03 -0.50871801344E+02 -0.10272882719E+04  0.10418764168E+04  0.00000000000E+00 0.  1.
<mgrwt>
<rscale>  4 0.22176931E+03</rscale>
<asrwt>0</asrwt>
<pdfrwt beam="1">  1       21 0.52625611E-02 0.22176931E+03</pdfrwt>
<pdfrwt beam="2">  1        1 0.29084502E+00 0.22176931E+03</pdfrwt>
<totfact> 0.11085586E+04</totfact>
</mgrwt>
</event>
<event>
 5    0  0.4115852E+000  0.1874947E+03  0.7546771E-02  0.1160741E+00
         21   -1    0    0  503  502  0.00000000000E+00  0.00000000000E+00  0.10584437086E+03  0.10584437086E+03  0.00000000000E+00 0.  1.
          2   -1    0    0  502    0 -0.00000000000E+00 -0.00000000000E+00 -0.98551718692E+03  0.98551718692E+03  0.00000000000E+00 0. -1.
         25    1    1    2    0    0 -0.17902639593E+03 -0.99977030086E+02 -0.39662278968E+03  0.46365989074E+03  0.12500000000E+03 0.  0.
         21    1    1    2  503  501  0.64491480073E+02  0.48852235988E+02  0.39695699838E+02  0.90119035441E+02  0.00000000000E+00 0.  1.
          2    1    1    2  501    0  0.11453491586E+03  0.51124794097E+02 -0.52274572622E+03  0.53758263160E+03  0.00000000000E+00 0. -1.
<mgrwt>
<rscale>  4 0.18749470E+03</rscale>
<asrwt>0</asrwt>
<pdfrwt beam="1">  1       21 0.16283750E-01 0.18749470E+03</pdfrwt>
<pdfrwt beam="2">  1        2 0.15161803E+00 0.18749470E+03</pdfrwt>
<totfact> 0.11521422E+04</totfact>
</mgrwt>
</event>
<event>
 5    0  0.4115852E+000  0.2719126E+03  0.7546771E-02  0.1100190E+00
          2   -1    0    0  502    0 -0.00000000000E+00  0.00000000000E+00  0.27025458608E+04  0.27025458608E+04  0.00000000000E+00 0.  1.
         21   -1    0    0  503  502  0.00000000000E+00 -0.00000000000E+00 -0.53016085344E+02  0.53016085344E+02  0.00000000000E+00 0.  1.
         25    1    1    2    0    0 -0.27724000545E+03  0.12131204692E+03  0.12304717262E+04  0.12732887742E+04  0.12500000000E+03 0.  0.
         21    1    1    2  503  501  0.16169637675E+03  0.72251583203E+02  0.38287414532E+03  0.42185142015E+03  0.00000000000E+00 0.  1.
          2    1    1    2  501    0  0.11554362870E+03 -0.19356363012E+03  0.10361839039E+04  0.10604217518E+04  0.00000000000E+00 0.  1.
<mgrwt>
<rscale>  4 0.27191256E+03</rscale>
<asrwt>0</asrwt>
<pdfrwt beam="1">  1       21 0.81563229E-02 0.27191256E+03</pdfrwt>
<pdfrwt beam="2">  1        2 0.41577618E+00 0.27191256E+03</pdfrwt>
<totfact> 0.45263112E+03</totfact>
</mgrwt>
</event>
<event>
 5    0  0.4115852E+000  0.3278504E+03  0.7546771E-02  0.1072092E+00
          1   -1    0    0  502    0 -0.00000000000E+00  0.00000000000E+00  0.10605415364E+04  0.10605415364E+04  0.00000000000E+00 0. -1.
         21   -1    0    0  503  502  0.00000000000E+00 -0.00000000000E+00 -0.55311411851E+03  0.55311411851E+03  0.00000000000E+00 0. -1.
         25    1    1    2    0    0  0.29210091872E+03  0.14493966318E+03  0.81803574752E+03  0.88945935090E+03  0.12500000000E+03 0.  0.
         21    1    1    2  503  501 -0.30449538456E+02 -0.12798626381E+03 -0.41997716979E+03  0.44010053540E+03  0.00000000000E+00 0. -1.
          1    1    1    2  501    0 -0.26165138026E+03 -0.16953399371E+02  0.10936884017E+03  0.28409576861E+03  0.00000000000E+00 0. -1.
<mgrwt>
<rscale>  4 0.32785037E+03</rscale>
<asrwt>0</asrwt>
<pdfrwt beam="1">  1       21 0.85094480E-01 0.32785037E+03</pdfrwt>
<pdfrwt beam="2">  1        1 0.16316024E+00 0.32785037E+03</pdfrwt>
<totfact> 0.17846870E+02</totfact>
</mgrwt>
</event>
<event>
 5    0  0.4115852E+000  0.2755934E+03  0.7546771E-02  0.1098120E+00
          1   -1    0    0  502    0 -0.00000000000E+00  0.00000000000E+00  0.11124978297E+04  0.11124978297E+04  0.00000000000E+00 0. -1.
         21   -1    0    0  503  502  0.00000000000E+00 -0.00000000000E+00 -0.70876070083E+02  0.70876070083E+02  0.00000000000E+00 0. -1.
         25    1    1    2    0    0  0.18918544355E+03  0.13701461948E+03  0.41128086217E+03  0.48922498463E+03  0.12500000000E+03 0.  0.
         21    1    1    2  503  501  0.24808313031E+02 -0.10327630978E+01  0.15984355436E+02  0.29529961290E+02  0.00000000000E+00 0. -1.
          1    1    1    2  501    0 -0.21399375658E+03 -0.13598185639E+03  0.61435654206E+03  0.66461895391E+03  0.00000000000E+00 0. -1.
<mgrwt>
<rscale>  4 0.27559335E+03</rscale>
<asrwt>0</asrwt>
<pdfrwt beam="1">  1       21 0.10904012E-01 0.27559335E+03</pdfrwt>
<pdfrwt beam="2">  1        1 0.17115350E+00 0.27559335E+03</pdfrwt>
<totfact> 0.10140253E+04</totfact>
</mgrwt>
</event>
<event>
 5    0  0.4115852E+000  0.3674402E+03  0.7546771E-02  0.1055676E+00
          2   -1    0    0  502    0 -0.00000000000E+00  0.00000000000E+00  0.16836862497E+04  0.16836862497E+04  0.00000000000E+00 0. -1.
         21   -1    0    0  503  502  0.00000000000E+00 -0.00000000000E+00 -0.36682292517E+03  0.36682292517E+03  0.00000000000E+00 0.  1.
         25    1    1    2    0    0 -0.26703961964E+03  0.24167562908E+03  0.33235197094E+03  0.50576684424E+03  0.12500000000E+03 0.  0.
         21    1    1    2  503  501  0.37329776892E+01 -0.23894023827E+02 -0.25645447046E+03  0.25759222603E+03  0.00000000000E+00 0.  1.
          2    1    1    2  501    0  0.26330664195E+03 -0.21778160525E+03  0.12409658240E+04  0.12871501046E+04  0.00000000000E+00 0. -1.
<mgrwt>
<rscale>  4 0.36744022E+03</rscale>
<asrwt>0</asrwt>
<pdfrwt beam="1">  1       21 0.56434297E-01 0.36744022E+03</pdfrwt>
<pdfrwt beam="2">  1        2 0.25902865E+00 0.36744022E+03</pdfrwt>
<totfact> 0.37616258E+02</totfact>
</mgrwt>
</event>
<event>
 5    0  0.4115852E+000  0.2247453E+03  0.7546771E-02  0.1130394E+00
          2   -1    0    0  502    0 -0.00000000000E+00  0.00000000000E+00  0.34559943779E+04  0.34559943779E+04  0.00000000000E+00 0.  1.
         21   -1    0    0  503  502  0.00000000000E+00 -0.00000000000E+00 -0.43782863204E+03  0.43782863204E+03  0.00000000000E+00 0.  1.
         25    1    1    2    0    0  0.24701383041E+03  0.16556052246E+02  0.22387022695E+04  0.22558153264E+04  0.12500000000E+03 0.  0.
         21    1    1    2  503  501 -0.99744869469E+02  0.27505873355E+02 -0.41805228530E+03  0.43066614134E+03  0.00000000000E+00 0.  1.
          2    1    1    2  501    0 -0.14726896094E+03 -0.44061925600E+02  0.11975157617E+04  0.12073415423E+04  0.00000000000E+00 0.  1.
<mgrwt>
<rscale>  4 0.22474526E+03</rscale>
<asrwt>0</asrwt>
<pdfrwt beam="1">  1       21 0.67358253E-01 0.22474526E+03</pdfrwt>
<pdfrwt beam="2">  1        2 0.53169143E+00 0.22474526E+03</pdfrwt>
<totfact> 0.27945706E+01</totfact>
</mgrwt>
</event>
<event>
 5    0  0.4115852E+000  0.2636020E+03  0.7546771E-02  0.1104998E+00
         21   -1    0    0  503  502  0.00000000000E+00  0.00000000000E+00  0.65489512175E+02  0.65489512175E+02  0.00000000000E+00 0. -1.
          2   -1    0    0  502    0 -0.00000000000E+00 -0.00000000000E+00 -0.15874731463E+04  0.15874731463E+04  0.00000000000E+00 0. -1.
         25    1    1    2    0    0 -0.22110104735E+03  0.93883613939E+02 -0.47910191406E+03  0.55033031005E+03  0.12500000000E+03 0.  0.
         21    1    1    2  503  501  0.13005975487E+01 -0.27499597689E+02  0.66141005491E+01  0.28313702568E+02  0.00000000000E+00 0. -1.
          2    1    1    2  501    0  0.21980044980E+03 -0.66384016250E+02 -0.10494958206E+04  0.10743186458E+04  0.00000000000E+00 0. -1.
<mgrwt>
<rscale>  4 0.26360199E+03</rscale>
<asrwt>0</asrwt>
<pdfrwt beam="1">  1       21 0.10075311E-01 0.26360199E+03</pdfrwt>
<pdfrwt beam="2">  1        2 0.24422661E+00 0.26360199E+03</pdfrwt>
<totfact> 0.12359335E+04</totfact>
</mgrwt>
</event>
<event>
 5    0  0.4115852E+000  0.3248793E+03  0.7546771E-02  0.1073425E+00
          2   -1    0    0  502    0 -0.00000000000E+00  0.00000000000E+00  0.44551354647E+04  0.44551354647E+04  0.00000000000E+00 0.  1.
         21   -1    0    0  503  502  0.00000000000E+00 -0.00000000000E+00 -0.99656359985E+02  0.99656359985E+02  0.00000000000E+00 0.  1.
         25    1    1    2    0    0  0.32075399679E+03  0.66216285163E+02  0.26016218055E+03  0.43655135215E+03  0.12500000000E+03 0.  0.
         21    1    1    2  503  501 -0.36401414298E+02  0.23730516399E+02  0.73525398489E+02  0.85405998585E+02  0.00000000000E+00 0. -1.
          2    1    1    2  501    0 -0.28435258249E+03 -0.89946801561E+02  0.40217915257E+04  0.40328344739E+04  0.00000000000E+00 0.  1.
<mgrwt>
<rscale>  4 0.32487927E+03</rscale>
<asrwt>0</asrwt>
<pdfrwt beam="1">  1       21 0.15331751E-01 0.32487927E+03</pdfrwt>
<pdfrwt beam="2">  1        2 0.68540530E+00 0.32487927E+03</pdfrwt>
<totfact> 0.84530935E+01</totfact>
</mgrwt>
</event>
<event>
 5    0  0.4115852E+000  0.3180279E+03  0.7546771E-02  0.1076561E+00
         21   -1    0    0  503  502  0.00000000000E+00  0.00000000000E+00  0.85343873054E+02  0.85343873054E+02  0.00000000000E+00 0.  1.
          1   -1    0    0  502    0 -0.00000000000E+00 -0.00000000000E+00 -0.13244821701E+04  0.13244821701E+04  0.00000000000E+00 0.  1.
         25    1    1    2    0    0 -0.34580658223E+02 -0.29786862468E+03 -0.69522554292E+03  0.76738849029E+03  0.12500000000E+03 0.  0.
         21    1    1    2  503  501  0.17901649151E+02  0.12871184274E+02  0.59877818366E+01  0.22847099559E+02  0.00000000000E+00 0. -1.
          1    1    1    2  501    0  0.16679009072E+02  0.28499744040E+03 -0.54990053594E+03  0.61959045329E+03  0.00000000000E+00 0.  1.
<mgrwt>
<rscale>  4 0.31802790E+03</rscale>
<asrwt>0</asrwt>
<pdfrwt beam="1">  1       21 0.13129827E-01 0.31802790E+03</pdfrwt>
<pdfrwt beam="2">  1        1 0.20376648E+00 0.31802790E+03</pdfrwt>
<totfact> 0.50960501E+03</totfact>
</mgrwt>
</event>
<event>
 5    0  0.4115852E+000  0.2110803E+03  0.7546771E-02  0.1140713E+00
          2   -1    0    0  502    0 -0.00000000000E+00  0.00000000000E+00  0.14671044363E+04  0.14671044363E+04  0.00000000000E+00 0. -1.
         21   -1    0    0  503  502  0.00000000000E+00 -0.00000000000E+00 -0.10006655403E+03  0.10006655403E+03  0.00000000000E+00 0.  1.
         25    1    1    2    0    0  0.98040975782E+02  0.17855696019E+03  0.12377126165E+03  0.26914484237E+03  0.12500000000E+03 0.  0.
         21    1    1    2  503  501  0.24591837571E+02 -0.63532881821E+02  0.32215455983E+02  0.75359280463E+02  0.00000000000E+00 0. -1.
          2    1    1    2  501    0 -0.12263281335E+03 -0.11502407837E+03  0.12110511646E+04  0.12226668675E+04  0.00000000000E+00 0. -1.
<mgrwt>
<rscale>  4 0.21108030E+03</rscale>
<asrwt>0</asrwt>
<pdfrwt beam="1">  1       21 0.15394856E-01 0.21108030E+03</pdfrwt>
<pdfrwt beam="2">  1        2 0.22570836E+00 0.21108030E+03</pdfrwt>
<totfact> 0.67839920E+03</totfact>
</mgrwt>
</event>
<event>
 5    0  0.4115852E+000  0.3143525E+03  0.7546771E-02  0.1078278E+00
          2   -1    0    0  502    0 -0.00000000000E+00  0.00000000000E+00  0.93887926011E+03  0.93887926011E+03  0.00000000000E+00 0.  1.
         21   -1    0    0  503  502  0.00000000000E+00 -0.00000000000E+00 -0.23539563683E+03  0.23539563683E+03  0.00000000000E+00 0.  1.
         25    1    1    2    0    0 -0.35582728665E+02  0.30415635363E+03  0.47342725055E+03  0.57752539304E+03  0.12500000000E+03 0.  0.
         21    1    1    2  503  501 -0.31457627991E+02 -0.38580247355E+02 -0.13296985795E+03  0.14198239669E+03  0.00000000000E+00 0.  1.
          2    1    1    2  501    0  0.67040356656E+02 -0.26557610628E+03  0.36302623068E+03  0.45476710721E+03  0.00000000000E+00 0.  1.
<mgrwt>
<rscale>  4 0.31435249E+03</rscale>
<asrwt>0</asrwt>
<pdfrwt beam="1">  1       21 0.36214714E-01 0.31435249E+03</pdfrwt>
<pdfrwt beam="2">  1        2 0.14444296E+00 0.31435249E+03</pdfrwt>
<totfact> 0.25584769E+03</totfact>
</mgrwt>
</event>
<event>
 5    0  0.4115852E+000  0.9552534E+03  0.7546771E-02  0.9359031E-01
         21   -1    0    0  503  502  0.00000000000E+00  0.00000000000E+00  0.74563174537E+03  0.74563174537E+03  0.00000000000E+00 0. -1.
          2   -1    0    0  502    0 -0.00000000000E+00 -0.00000000000E+00 -0.25858684420E+04  0.25858684420E+04  0.00000000000E+00 0. -1.
         25    1    1    2    0    0  0.68182387278E+03  0.67779316094E+03 -0.39721318926E+03  0.10477073447E+04  0.12500000000E+03 0.  0.
         21    1    1    2  503  501  0.17684269063E+02 -0.46762808317E+02  0.29910627522E+03  0.30325576250E+03  0.00000000000E+00 0. -1.
          2    1    1    2  501    0 -0.69950814184E+03 -0.63103035262E+03 -0.17421297826E+04  0.19805370801E+04  0.00000000000E+00 0. -1.
<mgrwt>
<rscale>  4 0.95525335E+03</rscale>
<asrwt>0</asrwt>
<pdfrwt beam="1">  1       21 0.11471258E+00 0.95525335E+03</pdfrwt>
<pdfrwt beam="2">  1        2 0.39782592E+00 0.95525335E+03</pdfrwt>
<totfact> 0.19243717E+01</totfact>
</mgrwt>
</event>
<event>
 5    0  0.4115852E+000  0.2366134E+03  0.7546771E-02  0.1122070E+00
         21   -1    0    0  503  502  0.00000000000E+00  0.00000000000E+00  0.45313682618E+02  0.45313682618E+02  0.00000000000E+00 0. -1.
          2   -1    0    0  502    0 -0.00000000000E+00 -0.00000000000E+00 -0.38116269147E+04  0.38116269147E+04  0.00000000000E+00 0. -1.
         25    1    1    2    0    0 -0.23649958131E+03 -0.94671629360E+02 -0.18847915242E+04  0.19060322293E+04  0.12500000000E+03 0.  0.
         21    1    1    2  503  501  0.18857403586E+03  0.43144231154E+02 -0.24171687092E+03  0.30959431095E+03  0.00000000000E+00 0. -1.
          2    1    1    2  501    0  0.47925545441E+02  0.51527398207E+02 -0.16398048369E+04  0.16413140570E+04  0.00000000000E+00 0. -1.
<mgrwt>
<rscale>  4 0.23661338E+03</rscale>
<asrwt>0</asrwt>
<pdfrwt beam="1">  1       21 0.69713361E-02 0.23661338E+03</pdfrwt>
<pdfrwt beam="2">  1        2 0.58640412E+00 0.23661338E+03</pdfrwt>
<totfact> 0.12160524E+03</totfact>
</mgrwt>
</event>
<event>
 5    0  0.4115852E+000  0.1937488E+03  0.7546771E-02  0.1155123E+00
         21   -1    0    0  501  502  0.00000000000E+00  0.00000000000E+00  0.88745966917E+03  0.88745966917E+03  0.00000000000E+00 0.  1.
         -3   -1    0    0    0  501 -0.00000000000E+00 -0.00000000000E+00 -0.84424301740E+02  0.84424301740E+02  0.00000000000E+00 0.  1.
         25    1    1    2    0    0  0.94389381777E+02  0.21544985051E+03  0.44694024946E+03  0.52029662700E+03  0.12500000000E+03 0.  0.
         21    1    1    2  503  502 -0.87875507634E+02 -0.86776414223E+02  0.26922106277E+03  0.29619627200E+03  0.00000000000E+00 0.  1.
         -3    1    1    2    0  503 -0.65138741434E+01 -0.12867343629E+03  0.86874055198E+02  0.15539107191E+03  0.00000000000E+00 0.  1.
<mgrwt>
<rscale>  4 0.19374877E+03</rscale>
<asrwt>0</asrwt>
<pdfrwt beam="1">  1       21 0.13653225E+00 0.19374877E+03</pdfrwt>
<pdfrwt beam="2">  1       -3 0.12988355E-01 0.19374877E+03</pdfrwt>
<totfact> 0.89289911E+02</totfact>
</mgrwt>
</event>
<event>
 5    0  0.4115852E+000  0.2382267E+03  0.7546771E-02  0.1120980E+00
         -4   -1    0    0    0  501 -0.00000000000E+00  0.00000000000E+00  0.13321764429E+04  0.13321764429E+04  0.00000000000E+00 0.  1.
         21   -1    0    0  501  502  0.00000000000E+00 -0.00000000000E+00 -0.28238982906E+03  0.28238982906E+03  0.00000000000E+00 0.  1.
         25    1    1    2    0    0 -0.14501438001E+03  0.14113808853E+03  0.12048696869E+04  0.12281225886E+04  0.12500000000E+03 0.  0.
         21    1    1    2  503  502  0.20620856118E+02  0.26559988774E+02 -0.17360020311E+03  0.17682670395E+03  0.00000000000E+00 0.  1.
         -4    1    1    2    0  503  0.12439352389E+03 -0.16769807730E+03  0.18517130070E+02  0.20961697933E+03  0.00000000000E+00 0.  1.
<mgrwt>
<rscale>  4 0.23822669E+03</rscale>
<asrwt>0</asrwt>
<pdfrwt beam="1">  1       21 0.43444590E-01 0.23822669E+03</pdfrwt>
<pdfrwt beam="2">  1       -4 0.20495022E+00 0.23822669E+03</pdfrwt>
<totfact> 0.28421556E+01</totfact>
</mgrwt>
</event>
<event>
 5    0  0.4115852E+000  0.2877387E+03  0.7546771E-02  0.1091536E+00
         21   -1    0    0  503  502  0.00000000000E+00  0.00000000000E+00  0.65589143830E+03  0.65589143830E+03  0.00000000000E+00 0. -1.
          1   -1    0    0  502    0 -0.00000000000E+00 -0.00000000000E+00 -0.23717665032E+03  0.23717665032E+03  0.00000000000E+00 0. -1.
         25    1    1    2    0    0  0.18583866024E+03 -0.14156983775E+03  0.45789379593E+03  0.52902717789E+03  0.12500000000E+03 0.  0.
         21    1    1    2  503  501  0.14020468854E+02 -0.30593048417E+02  0.70686878918E+02  0.78288843455E+02  0.00000000000E+00 0. -1.
          1    1    1    2  501    0 -0.19985912909E+03  0.17216288617E+03 -0.10986588686E+03  0.28575206727E+03  0.00000000000E+00 0. -1.
<mgrwt>
<rscale>  4 0.28773873E+03</rscale>
<asrwt>0</asrwt>
<pdfrwt beam="1">  1       21 0.10090637E+00 0.28773873E+03</pdfrwt>
<pdfrwt beam="2">  1        1 0.36488716E-01 0.28773873E+03</pdfrwt>
<totfact> 0.99130466E+02</totfact>
</mgrwt>
</event>
<event>
 5    0  0.4115852E+000  0.3562484E+03  0.7546771E-02  0.1060079E+00
          2   -1    0    0  502    0 -0.00000000000E+00  0.00000000000E+00  0.81792102662E+03  0.81792102662E+03  0.00000000000E+00 0.  1.
         21   -1    0    0  503  502  0.00000000000E+00 -0.00000000000E+00 -0.73714308021E+03  0.73714308021E+03  0.00000000000E+00 0.  1.
         25    1    1    2    0    0 -0.20674701473E+03 -0.21839321546E+03  0.26930409688E+03  0.42259865269E+03  0.12500000000E+03 0.  0.
         21    1    1    2  503  501  0.22365048205E+03  0.25305860869E+03 -0.61640029084E+03  0.70285668248E+03  0.00000000000E+00 0.  1.
          2    1    1    2  501    0 -0.16903467321E+02 -0.34665393235E+02  0.42787414037E+03  0.42960877166E+03  0.00000000000E+00 0.  1.
<mgrwt>
<rscale>  4 0.35624841E+03</rscale>
<asrwt>0</asrwt>
<pdfrwt beam="1">  1       21 0.11340663E+00 0.35624841E+03</pdfrwt>
<pdfrwt beam="2">  1        2 0.12583400E+00 0.35624841E+03</pdfrwt>
<totfact> 0.24124727E+02</totfact>
</mgrwt>
</event>
<event>
 5    0  0.4115852E+000  0.3277275E+03  0.7546771E-02  0.1072147E+00
          2   -1    0    0  502    0 -0.00000000000E+00  0.00000000000E+00  0.10981129086E+04  0.10981129086E+04  0.00000000000E+00 0. -1.
         21   -1    0    0  503  502  0.00000000000E+00 -0.00000000000E+00 -0.23749703582E+03  0.23749703582E+03  0.00000000000E+00 0. -1.
         25    1    1    2    0    0  0.34260173121E+02 -0.40310297540E+03  0.54460877709E+03  0.68984743844E+03  0.12500000000E+03 0.  0.
         21    1    1    2  503  501 -0.22072462068E+02  0.28089627465E+03 -0.25432033631E+02  0.28290758037E+03  0.00000000000E+00 0. -1.
          2    1    1    2  501    0 -0.12187711053E+02  0.12220670075E+03  0.34143912930E+03  0.36285492559E+03  0.00000000000E+00 0. -1.
<mgrwt>
<rscale>  4 0.32772754E+03</rscale>
<asrwt>0</asrwt>
<pdfrwt beam="1">  1       21 0.36538006E-01 0.32772754E+03</pdfrwt>
<pdfrwt beam="2">  1        2 0.16894044E+00 0.32772754E+03</pdfrwt>
<totfact> 0.19979168E+03</totfact>
</mgrwt>
</event>
<event>
 5    0  0.4115852E+000  0.2525349E+03  0.7546771E-02  0.1111713E+00
          2   -1    0    0  502    0 -0.00000000000E+00  0.00000000000E+00  0.63477887158E+03  0.63477887158E+03  0.00000000000E+00 0. -1.
         21   -1    0    0  503  502  0.00000000000E+00 -0.00000000000E+00 -0.46164708826E+03  0.46164708826E+03  0.00000000000E+00 0. -1.
         25    1    1    2    0    0 -0.10831069253E+03  0.17435826352E+03 -0.32989059147E+03  0.40814802770E+03  0.12500000000E+03 0.  0.
         21    1    1    2  503  501  0.58894551105E+02  0.40883857665E+02 -0.53554592845E+02  0.89488280698E+02  0.00000000000E+00 0. -1.
          2    1    1    2  501    0  0.49416141425E+02 -0.21524212118E+03  0.55657696764E+03  0.59878965144E+03  0.00000000000E+00 0. -1.
<mgrwt>
<rscale>  4 0.25253495E+03</rscale>
<asrwt>0</asrwt>
<pdfrwt beam="1">  1       21 0.71022629E-01 0.25253495E+03</pdfrwt>
<pdfrwt beam="2">  1        2 0.97658288E-01 0.25253495E+03</pdfrwt>
<totfact> 0.10350624E+03</totfact>
</mgrwt>
</event>
<event>
 5    0  0.4115852E+000  0.2424838E+03  0.7546771E-02  0.1118149E+00
          1   -1    0    0  502    0 -0.00000000000E+00  0.00000000000E+00  0.30333408245E+04  0.30333408245E+04  0.00000000000E+00 0. -1.
         21   -1    0    0  503  502  0.00000000000E+00 -0.00000000000E+00 -0.24576438320E+02  0.24576438320E+02  0.00000000000E+00 0. -1.
         25    1    1    2    0    0 -0.20358142930E+03 -0.51021074283E+01  0.22258318265E+04  0.22386209482E+04  0.12500000000E+03 0.  0.
         21    1    1    2  503  501 -0.14055805931E+02 -0.17497516191E+02  0.65471975244E+02  0.69212053109E+02  0.00000000000E+00 0. -1.
          1    1    1    2  501    0  0.21763723523E+03  0.22599623619E+02  0.71746058441E+03  0.75008426149E+03  0.00000000000E+00 0. -1.
<mgrwt>
<rscale>  4 0.24248375E+03</rscale>
<asrwt>0</asrwt>
<pdfrwt beam="1">  1       21 0.37809929E-02 0.24248375E+03</pdfrwt>
<pdfrwt beam="2">  1        1 0.46666752E+00 0.24248375E+03</pdfrwt>
<totfact> 0.33454947E+03</totfact>
</mgrwt>
</event>
<event>
 5    0  0.4115852E+000  0.4225919E+03  0.7546771E-02  0.1036226E+00
         21   -1    0    0  503  502  0.00000000000E+00  0.00000000000E+00  0.12923897327E+03  0.12923897327E+03  0.00000000000E+00 0. -1.
          1   -1    0    0  502    0 -0.00000000000E+00 -0.00000000000E+00 -0.17560917441E+04  0.17560917441E+04  0.00000000000E+00 0. -1.
         25    1    1    2    0    0  0.16192072405E+03  0.35690299122E+03 -0.47001121233E+03  0.62460676088E+03  0.12500000000E+03 0.  0.
         21    1    1    2  503  501  0.19232800431E+02  0.98415842554E+01  0.10332711634E+02  0.23948326096E+02  0.00000000000E+00 0.  1.
          1    1    1    2  501    0 -0.18115352448E+03 -0.36674457548E+03 -0.11671742701E+04  0.12367756304E+04  0.00000000000E+00 0. -1.
<mgrwt>
<rscale>  4 0.42259187E+03</rscale>
<asrwt>0</asrwt>
<pdfrwt beam="1">  1       21 0.19882921E-01 0.42259187E+03</pdfrwt>
<pdfrwt beam="2">  1        1 0.27016793E+00 0.42259187E+03</pdfrwt>
<totfact> 0.11771005E+03</totfact>
</mgrwt>
</event>
<event>
 5    0  0.4115852E+000  0.2122207E+03  0.7546771E-02  0.1139819E+00
          1   -1    0    0  502    0 -0.00000000000E+00  0.00000000000E+00  0.92783917921E+03  0.92783917921E+03  0.00000000000E+00 0.  1.
         21   -1    0    0  503  502  0.00000000000E+00 -0.00000000000E+00 -0.12052216301E+03  0.12052216301E+03  0.00000000000E+00 0.  1.
         25    1    1    2    0    0  0.15939251704E+03  0.14839109541E+03  0.11524935688E+03  0.27628482757E+03  0.12500000000E+03 0.  0.
         21    1    1    2  503  501 -0.25154972990E+02 -0.50649370064E+02 -0.37918356147E+01  0.56679002914E+02  0.00000000000E+00 0. -1.
          1    1    1    2  501    0 -0.13423754405E+03 -0.97741725347E+02  0.69585949493E+03  0.71539751173E+03  0.00000000000E+00 0.  1.
<mgrwt>
<rscale>  4 0.21222071E+03</rscale>
<asrwt>0</asrwt>
<pdfrwt beam="1">  1       21 0.18541872E-01 0.21222071E+03</pdfrwt>
<pdfrwt beam="2">  1        1 0.14274448E+00 0.21222071E+03</pdfrwt>
<totfact> 0.53764357E+03</totfact>
</mgrwt>
</event>
<event>
 5    0  0.4115852E+000  0.3563126E+03  0.7546771E-02  0.1060054E+00
          2   -1    0    0  502    0 -0.00000000000E+00  0.00000000000E+00  0.10345595036E+04  0.10345595036E+04  0.00000000000E+00 0. -1.
         21   -1    0    0  503  502  0.00000000000E+00 -0.00000000000E+00 -0.33573190440E+03  0.33573190440E+03  0.00000000000E+00 0. -1.
         25    1    1    2    0    0  0.72559825135E+02 -0.22889954473E+03  0.21074133556E+03  0.34306973098E+03  0.12500000000E+03 0.  0.
         21    1    1    2  503  501  0.23712104085E+03 -0.11707179656E+03 -0.95758365551E+02  0.28125052558E+03  0.00000000000E+00 0. -1.
          2    1    1    2  501    0 -0.30968086598E+03  0.34597134130E+03  0.58384462918E+03  0.74597115144E+03  0.00000000000E+00 0. -1.
<mgrwt>
<rscale>  4 0.35631260E+03</rscale>
<asrwt>0</asrwt>
<pdfrwt beam="1">  1       21 0.51651063E-01 0.35631260E+03</pdfrwt>
<pdfrwt beam="2">  1        2 0.15916300E+00 0.35631260E+03</pdfrwt>
<totfact> 0.10554719E+03</totfact>
</mgrwt>
</event>
<event>
 5    0  0.4115852E+000  0.4301393E+03  0.7546771E-02  0.1033816E+00
          1   -1    0    0  502    0 -0.00000000000E+00  0.00000000000E+00  0.75074744257E+03  0.75074744257E+03  0.00000000000E+00 0. -1.
         21   -1    0    0  503  502  0.00000000000E+00 -0.00000000000E+00 -0.59672703707E+03  0.59672703707E+03  0.00000000000E+00 0.  1.
         25    1    1    2    0    0  0.35566648657E+03  0.17728621198E+03 -0.42061689375E+03  0.59200728199E+03  0.12500000000E+03 0.  0.
         21    1    1    2  503  501 -0.61409263018E+01  0.43979065905E+02 -0.35342064032E+01  0.44546153915E+02  0.00000000000E+00 0.  1.
          1    1    1    2  501    0 -0.34952556027E+03 -0.22126527788E+03  0.57817150565E+03  0.71092104374E+03  0.00000000000E+00 0. -1.
<mgrwt>
<rscale>  4 0.43013928E+03</rscale>
<asrwt>0</asrwt>
<pdfrwt beam="1">  1       21 0.91804160E-01 0.43013928E+03</pdfrwt>
<pdfrwt beam="2">  1        1 0.11549961E+00 0.43013928E+03</pdfrwt>
<totfact> 0.25392029E+02</totfact>
</mgrwt>
</event>
<event>
 5    0  0.4115852E+000  0.2213093E+03  0.7546771E-02  0.1132911E+00
         21   -1    0    0  503  502  0.00000000000E+00  0.00000000000E+00  0.69841626551E+03  0.69841626551E+03  0.00000000000E+00 0.  1.
          2   -1    0    0  502    0 -0.00000000000E+00 -0.00000000000E+00 -0.49856322701E+03  0.49856322701E+03  0.00000000000E+00 0. -1.
         25    1    1    2    0    0 -0.83261243758E+02 -0.21327334441E+03  0.20347861929E+03  0.33082699808E+03  0.12500000000E+03 0.  0.
         21    1    1    2  503  501  0.51453092168E+02  0.36443091452E+02  0.41019443876E+03  0.41501204464E+03  0.00000000000E+00 0.  1.
          2    1    1    2  501    0  0.31808151590E+02  0.17683025296E+03 -0.41382001955E+03  0.45114044980E+03  0.00000000000E+00 0. -1.
<mgrwt>
<rscale>  4 0.22130932E+03</rscale>
<asrwt>0</asrwt>
<pdfrwt beam="1">  1       21 0.10744866E+00 0.22130932E+03</pdfrwt>
<pdfrwt beam="2">  1        2 0.76702035E-01 0.22130932E+03</pdfrwt>
<totfact> 0.53117005E+02</totfact>
</mgrwt>
</event>
<event>
 5    0  0.4115852E+000  0.2714862E+03  0.7546771E-02  0.1100432E+00
          2   -1    0    0  502    0 -0.00000000000E+00  0.00000000000E+00  0.19791916127E+04  0.19791916127E+04  0.00000000000E+00 0.  1.
         21   -1    0    0  503  502  0.00000000000E+00 -0.00000000000E+00 -0.11826554967E+03  0.11826554967E+03  0.00000000000E+00 0. -1.
         25    1    1    2    0    0  0.62241258410E+02  0.21598610484E+03  0.59822977810E+02  0.26406014544E+03  0.12500000000E+03 0.  0.
         21    1    1    2  503  501  0.46298556910E+02  0.10050820540E+01  0.61655839353E+02  0.77110369525E+02  0.00000000000E+00 0.  1.
          2    1    1    2  501    0 -0.10853981532E+03 -0.21699118690E+03  0.17394472459E+04  0.17562866474E+04  0.00000000000E+00 0.  1.
<mgrwt>
<rscale>  4 0.27148617E+03</rscale>
<asrwt>0</asrwt>
<pdfrwt beam="1">  1       21 0.18194701E-01 0.27148617E+03</pdfrwt>
<pdfrwt beam="2">  1        2 0.30449099E+00 0.27148617E+03</pdfrwt>
<totfact> 0.26134375E+03</totfact>
</mgrwt>
</event>
<event>
 5    0  0.4115852E+000  0.3531109E+03  0.7546771E-02  0.1061345E+00
         -1   -1    0    0    0  501 -0.00000000000E+00  0.00000000000E+00  0.95644015690E+03  0.95644015690E+03  0.00000000000E+00 0. -1.
         21   -1    0    0  501  502  0.00000000000E+00 -0.00000000000E+00 -0.35335921956E+03  0.35335921956E+03  0.00000000000E+00 0. -1.
         25    1    1    2    0    0 -0.36143435968E+03  0.17235457417E+03 -0.61001355861E+02  0.42389510614E+03  0.12500000000E+03 0.  0.
         21    1    1    2  503  502  0.23924640329E+03 -0.11319669143E+03  0.66232844918E+02  0.27283533896E+03  0.00000000000E+00 0. -1.
         -1    1    1    2    0  503  0.12218795639E+03 -0.59157882746E+02  0.59784944828E+03  0.61306893135E+03  0.00000000000E+00 0. -1.
<mgrwt>
<rscale>  4 0.35311085E+03</rscale>
<asrwt>0</asrwt>
<pdfrwt beam="1">  1       21 0.54362957E-01 0.35311085E+03</pdfrwt>
<pdfrwt beam="2">  1       -1 0.14714464E+00 0.35311085E+03</pdfrwt>
<totfact> 0.11116263E+02</totfact>
</mgrwt>
</event>
<event>
 5    0  0.4115852E+000  0.2222194E+03  0.7546771E-02  0.1132239E+00
         21   -1    0    0  503  502  0.00000000000E+00  0.00000000000E+00  0.16117217341E+03  0.16117217341E+03  0.00000000000E+00 0.  1.
          1   -1    0    0  502    0 -0.00000000000E+00 -0.00000000000E+00 -0.37055393122E+03  0.37055393122E+03  0.00000000000E+00 0. -1.
         25    1    1    2    0    0 -0.20716731529E+03 -0.32940647157E+02 -0.68903957657E+02  0.25372453200E+03  0.12500000000E+03 0.  0.
         21    1    1    2  503  501  0.34066403490E+02  0.26128409726E+02  0.14748821871E+02  0.45395389504E+02  0.00000000000E+00 0.  1.
          1    1    1    2  501    0  0.17310091179E+03  0.68122374311E+01 -0.15522662203E+03  0.23260618313E+03  0.00000000000E+00 0. -1.
<mgrwt>
<rscale>  4 0.22221944E+03</rscale>
<asrwt>0</asrwt>
<pdfrwt beam="1">  1       21 0.24795719E-01 0.22221944E+03</pdfrwt>
<pdfrwt beam="2">  1        1 0.57008297E-01 0.22221944E+03</pdfrwt>
<totfact> 0.11231385E+04</totfact>
</mgrwt>
</event>
<event>
 5    0  0.4115852E+000  0.2740745E+03  0.7546771E-02  0.1098970E+00
         -2   -1    0    0    0  501 -0.00000000000E+00  0.00000000000E+00  0.10927337691E+04  0.10927337691E+04  0.00000000000E+00 0. -1.
         21   -1    0    0  501  502  0.00000000000E+00 -0.00000000000E+00 -0.36886742289E+03  0.36886742289E+03  0.00000000000E+00 0.  1.
         25    1    1    2    0    0  0.21296331756E+03  0.11359825222E+02  0.13238855490E+03  0.28041781278E+03  0.12500000000E+03 0.  0.
         21    1    1    2  503  502  0.38345555649E+02 -0.20782498236E+02 -0.27526218784E+03  0.27869618929E+03  0.00000000000E+00 0.  1.
         -2    1    1    2    0  503 -0.25130887321E+03  0.94226730138E+01  0.86673997911E+03  0.90248718988E+03  0.00000000000E+00 0. -1.
<mgrwt>
<rscale>  4 0.27407448E+03</rscale>
<asrwt>0</asrwt>
<pdfrwt beam="1">  1       21 0.56748835E-01 0.27407448E+03</pdfrwt>
<pdfrwt beam="2">  1       -2 0.16811289E+00 0.27407448E+03</pdfrwt>
<totfact> 0.54272096E+01</totfact>
</mgrwt>
</event>
<event>
 5    0  0.4115852E+000  0.2725965E+03  0.7546771E-02  0.1099803E+00
          2   -1    0    0  502    0 -0.00000000000E+00  0.00000000000E+00  0.15048449960E+04  0.15048449960E+04  0.00000000000E+00 0. -1.
         21   -1    0    0  503  502  0.00000000000E+00 -0.00000000000E+00 -0.46373638775E+02  0.46373638775E+02  0.00000000000E+00 0. -1.
         25    1    1    2    0    0  0.10477164642E+03  0.21841874583E+03  0.66796073111E+03  0.72144326508E+03  0.12500000000E+03 0.  0.
         21    1    1    2  503  501  0.39864512301E+01 -0.55648616764E+02  0.15121881807E+03  0.16118247820E+03  0.00000000000E+00 0. -1.
          2    1    1    2  501    0 -0.10875809765E+03 -0.16277012907E+03  0.63929180805E+03  0.66859289150E+03  0.00000000000E+00 0. -1.
<mgrwt>
<rscale>  4 0.27259649E+03</rscale>
<asrwt>0</asrwt>
<pdfrwt beam="1">  1       21 0.71344071E-02 0.27259649E+03</pdfrwt>
<pdfrwt beam="2">  1        2 0.23151458E+00 0.27259649E+03</pdfrwt>
<totfact> 0.25063415E+04</totfact>
</mgrwt>
</event>
<event>
 5    0  0.4115852E+000  0.3161094E+03  0.7546771E-02  0.1077454E+00
         21   -1    0    0  501  502  0.00000000000E+00  0.00000000000E+00  0.11076932040E+03  0.11076932040E+03  0.00000000000E+00 0.  1.
         -2   -1    0    0    0  501 -0.00000000000E+00 -0.00000000000E+00 -0.96167672572E+03  0.96167672572E+03  0.00000000000E+00 0.  1.
         25    1    1    2    0    0 -0.24376039367E+03  0.15773714006E+03 -0.24830786575E+03  0.40197255014E+03  0.12500000000E+03 0.  0.
         21    1    1    2  503  502  0.20459406376E+02 -0.16263618358E+02 -0.29919101807E+02  0.39727134862E+02  0.00000000000E+00 0.  1.
         -2    1    1    2    0  503  0.22330098729E+03 -0.14147352170E+03 -0.57268043776E+03  0.63074636112E+03  0.00000000000E+00 0.  1.
<mgrwt>
<rscale>  4 0.31610937E+03</rscale>
<asrwt>0</asrwt>
<pdfrwt beam="1">  1       21 0.17041434E-01 0.31610937E+03</pdfrwt>
<pdfrwt beam="2">  1       -2 0.14795026E+00 0.31610937E+03</pdfrwt>
<totfact> 0.81795413E+02</totfact>
</mgrwt>
</event>
<event>
 5    0  0.4115852E+000  0.2461861E+03  0.7546771E-02  0.1115739E+00
          2   -1    0    0  502    0 -0.00000000000E+00  0.00000000000E+00  0.14810601510E+04  0.14810601510E+04  0.00000000000E+00 0.  1.
         21   -1    0    0  503  502  0.00000000000E+00 -0.00000000000E+00 -0.56387717836E+02  0.56387717836E+02  0.00000000000E+00 0.  1.
         25    1    1    2    0    0 -0.16561408761E+03 -0.16385074506E+03  0.76080169983E+03  0.80543113867E+03  0.12500000000E+03 0.  0.
         21    1    1    2  503  501  0.56362688025E+02 -0.34782499597E+01  0.23456737591E+02  0.61147930158E+02  0.00000000000E+00 0. -1.
          2    1    1    2  501    0  0.10925139958E+03  0.16732899502E+03  0.64041399573E+03  0.67086880000E+03  0.00000000000E+00 0.  1.
<mgrwt>
<rscale>  4 0.24618607E+03</rscale>
<asrwt>0</asrwt>
<pdfrwt beam="1">  1       21 0.86750346E-02 0.24618607E+03</pdfrwt>
<pdfrwt beam="2">  1        2 0.22785538E+00 0.24618607E+03</pdfrwt>
<totfact> 0.18437800E+04</totfact>
</mgrwt>
</event>
<event>
 5    0  0.4115852E+000  0.3519406E+03  0.7546771E-02  0.1061821E+00
         -1   -1    0    0    0  501 -0.00000000000E+00  0.00000000000E+00  0.85942848313E+03  0.85942848313E+03  0.00000000000E+00 0.  1.
         21   -1    0    0  501  502  0.00000000000E+00 -0.00000000000E+00 -0.66844946338E+03  0.66844946338E+03  0.00000000000E+00 0. -1.
         25    1    1    2    0    0 -0.21801704826E+03 -0.90384354765E+02 -0.53743771139E+03  0.60013753302E+03  0.12500000000E+03 0.  0.
         21    1    1    2  503  502 -0.81432220001E+02 -0.59445338580E+02 -0.24472938178E+02  0.10374911776E+03  0.00000000000E+00 0. -1.
         -1    1    1    2    0  503  0.29944926826E+03  0.14982969335E+03  0.75288966931E+03  0.82399129572E+03  0.00000000000E+00 0.  1.
<mgrwt>
<rscale>  4 0.35194057E+03</rscale>
<asrwt>0</asrwt>
<pdfrwt beam="1">  1       21 0.10283838E+00 0.35194057E+03</pdfrwt>
<pdfrwt beam="2">  1       -1 0.13221977E+00 0.35194057E+03</pdfrwt>
<totfact> 0.34331494E+01</totfact>
</mgrwt>
</event>
<event>
 5    0  0.4115852E+000  0.2382190E+03  0.7546771E-02  0.1120985E+00
          3   -1    0    0  502    0 -0.00000000000E+00  0.00000000000E+00  0.43420514811E+03  0.43420514811E+03  0.00000000000E+00 0.  1.
         21   -1    0    0  503  502  0.00000000000E+00 -0.00000000000E+00 -0.63318062540E+03  0.63318062540E+03  0.00000000000E+00 0.  1.
         25    1    1    2    0    0 -0.17519780451E+02  0.32685774364E+03 -0.33697383860E+02  0.35199920591E+03  0.12500000000E+03 0.  0.
         21    1    1    2  503  501  0.61098135624E+02 -0.14849270634E+03 -0.39201656601E+03  0.42362725837E+03  0.00000000000E+00 0.  1.
          3    1    1    2  501    0 -0.43578355174E+02 -0.17836503730E+03  0.22673847258E+03  0.29175930922E+03  0.00000000000E+00 0.  1.
<mgrwt>
<rscale>  4 0.23821898E+03</rscale>
<asrwt>0</asrwt>
<pdfrwt beam="1">  1       21 0.97412404E-01 0.23821898E+03</pdfrwt>
<pdfrwt beam="2">  1        3 0.66800792E-01 0.23821898E+03</pdfrwt>
<totfact> 0.93249066E+01</totfact>
</mgrwt>
</event>
<event>
 5    0  0.4115852E+000  0.2432171E+03  0.7546771E-02  0.1117668E+00
         21   -1    0    0  503  502  0.00000000000E+00  0.00000000000E+00  0.31352461129E+03  0.31352461129E+03  0.00000000000E+00 0.  1.
          2   -1    0    0  502    0 -0.00000000000E+00 -0.00000000000E+00 -0.10296727451E+04  0.10296727451E+04  0.00000000000E+00 0. -1.
         25    1    1    2    0    0  0.21370428446E+03 -0.93676992159E+02 -0.75738085176E+02  0.27532918044E+03  0.12500000000E+03 0.  0.
         21    1    1    2  503  501 -0.37681370319E+02 -0.12917321094E+02  0.19933536889E+03  0.20327649186E+03  0.00000000000E+00 0.  1.
          2    1    1    2  501    0 -0.17602291414E+03  0.10659431325E+03 -0.83974541755E+03  0.86459168410E+03  0.00000000000E+00 0. -1.
<mgrwt>
<rscale>  4 0.24321710E+03</rscale>
<asrwt>0</asrwt>
<pdfrwt beam="1">  1       21 0.48234556E-01 0.24321710E+03</pdfrwt>
<pdfrwt beam="2">  1        2 0.15841119E+00 0.24321710E+03</pdfrwt>
<totfact> 0.12817448E+03</totfact>
</mgrwt>
</event>
<event>
 5    0  0.4115852E+000  0.1861478E+03  0.7546771E-02  0.1161982E+00
          1   -1    0    0  502    0 -0.00000000000E+00  0.00000000000E+00  0.71719441624E+03  0.71719441624E+03  0.00000000000E+00 0.  1.
         21   -1    0    0  503  502  0.00000000000E+00 -0.00000000000E+00 -0.73967811705E+03  0.73967811705E+03  0.00000000000E+00 0.  1.
         25    1    1    2    0    0 -0.20540772352E+03  0.33087555189E+02 -0.55885315289E+03  0.60928561913E+03  0.12500000000E+03 0.  0.
         21    1    1    2  503  501  0.69036924144E+02 -0.18842072236E+02 -0.14012305874E+03  0.15733909931E+03  0.00000000000E+00 0.  1.
          1    1    1    2  501    0  0.13637079937E+03 -0.14245482953E+02  0.67649251082E+03  0.69024781484E+03  0.00000000000E+00 0.  1.
<mgrwt>
<rscale>  4 0.18614782E+03</rscale>
<asrwt>0</asrwt>
<pdfrwt beam="1">  1       21 0.11379663E+00 0.18614782E+03</pdfrwt>
<pdfrwt beam="2">  1        1 0.11033760E+00 0.18614782E+03</pdfrwt>
<totfact> 0.18329302E+02</totfact>
</mgrwt>
</event>
