<event>
 5    0  0.2005720E+000  0.3100791E+03  0.7546771E-02  0.1080308E+00
         21   -1    0    0  502  501  0.00000000000E+00  0.00000000000E+00  0.15629564752E+03  0.15629564752E+03  0.00000000000E+00 0. -1.
         21   -1    0    0  503  502 -0.00000000000E+00 -0.00000000000E+00 -0.70374611421E+03  0.70374611421E+03  0.00000000000E+00 0. -1.
         25    1    1    2    0    0  0.26298801302E+03  0.11190063599E+03 -0.16451560547E+03  0.35266816098E+03  0.12500000000E+03 0.  0.
         21    1    1    2  503  504  0.10070424088E+02 -0.35521962017E+02 -0.88352495780E+01  0.37964257690E+02  0.00000000000E+00 0. -1.
         21    1    1    2  504  501 -0.27305843711E+03 -0.76378673971E+02 -0.37409961165E+03  0.46940934306E+03  0.00000000000E+00 0. -1.
<mgrwt>
<rscale>  4 0.31007911E+03</rscale>
<asrwt>0</asrwt>
<pdfrwt beam="1">  1       21 0.24045485E-01 0.31007911E+03</pdfrwt>
<pdfrwt beam="2">  1       21 0.10826863E+00 0.31007911E+03</pdfrwt>
<totfact> 0.10357508E+04</totfact>
</mgrwt>
</event>
<event>
 5    0  0.7181984E+000  0.2741128E+03  0.7546771E-02  0.1098949E+00
         21   -1    0    0  502  501  0.00000000000E+00  0.00000000000E+00  0.12173859858E+04  0.12173859858E+04  0.00000000000E+00 0. -1.
         21   -1    0    0  503  502 -0.00000000000E+00 -0.00000000000E+00 -0.57626525877E+02  0.57626525877E+02  0.00000000000E+00 0. -1.
         25    1    1    2    0    0  0.28915300712E+02  0.24223276322E+03  0.58503163039E+03  0.64606486884E+03  0.12500000000E+03 0.  0.
         21    1    1    2  503  504 -0.33682339942E+02 -0.45718485609E+02  0.16516647330E+03  0.17465578677E+03  0.00000000000E+00 0.  1.
         21    1    1    2  504  501  0.47670392301E+01 -0.19651427761E+03  0.40956135619E+03  0.45429185603E+03  0.00000000000E+00 0. -1.
<mgrwt>
<rscale>  4 0.27411276E+03</rscale>
<asrwt>0</asrwt>
<pdfrwt beam="1">  1       21 0.18729013E+00 0.27411276E+03</pdfrwt>
<pdfrwt beam="2">  1       21 0.88656202E-02 0.27411276E+03</pdfrwt>
<totfact> 0.15451604E+04</totfact>
</mgrwt>
</event>
<event>
 5    0  0.1856407E+000  0.3113044E+03  0.7546771E-02  0.1079722E+00
         21   -1    0    0  502  501  0.00000000000E+00  0.00000000000E+00  0.90828075695E+03  0.90828075695E+03  0.00000000000E+00 0. -1.
         21   -1    0    0  503  502 -0.00000000000E+00 -0.00000000000E+00 -0.17579869489E+03  0.17579869489E+03  0.00000000000E+00 0.  1.
         25    1    1    2    0    0 -0.27789431909E+03  0.76757563883E+02  0.71498610803E+03  0.78099110806E+03  0.12500000000E+03 0.  0.
         21    1    1    2  503  504  0.21624375367E+02  0.19061101510E+02 -0.12180620382E+01  0.28851739565E+02  0.00000000000E+00 0. -1.
         21    1    1    2  504  501  0.25626994372E+03 -0.95818665393E+02  0.18714016069E+02  0.27423660421E+03  0.00000000000E+00 0.  1.
<mgrwt>
<rscale>  4 0.31130444E+03</rscale>
<asrwt>0</asrwt>
<pdfrwt beam="1">  1       21 0.13973550E+00 0.31130444E+03</pdfrwt>
<pdfrwt beam="2">  1       21 0.27045954E-01 0.31130444E+03</pdfrwt>
<totfact> 0.43254182E+03</totfact>
</mgrwt>
</event>
<event>
 5    0  0.1856407E+000  0.2512630E+03  0.7546771E-02  0.1112509E+00
         21   -1    0    0  502  501  0.00000000000E+00  0.00000000000E+00  0.11008143836E+04  0.11008143836E+04  0.00000000000E+00 0. -1.
         21   -1    0    0  503  502 -0.00000000000E+00 -0.00000000000E+00 -0.18657616772E+03  0.18657616772E+03  0.00000000000E+00 0.  1.
         25    1    1    2    0    0  0.19611769795E+03 -0.11397153425E+03  0.98704637847E+03  0.10204593159E+04  0.12500000000E+03 0.  0.
         21    1    1    2  503  504 -0.29153421047E+02  0.79766589129E+02 -0.37709353014E+02  0.92922688321E+02  0.00000000000E+00 0.  1.
         21    1    1    2  504  501 -0.16696427690E+03  0.34204945119E+02 -0.35098809601E+02  0.17400854711E+03  0.00000000000E+00 0.  1.
<mgrwt>
<rscale>  4 0.25126299E+03</rscale>
<asrwt>0</asrwt>
<pdfrwt beam="1">  1       21 0.16935606E+00 0.25126299E+03</pdfrwt>
<pdfrwt beam="2">  1       21 0.28704026E-01 0.25126299E+03</pdfrwt>
<totfact> 0.23807559E+03</totfact>
</mgrwt>
</event>
<event>
 5    0  0.1856407E+000  0.5780761E+03  0.7546771E-02  0.9951965E-01
         21   -1    0    0  502  501  0.00000000000E+00  0.00000000000E+00  0.12924132956E+04  0.12924132956E+04  0.00000000000E+00 0.  1.
         21   -1    0    0  503  502 -0.00000000000E+00 -0.00000000000E+00 -0.68927042832E+03  0.68927042832E+03  0.00000000000E+00 0. -1.
         25    1    1    2    0    0 -0.40897265880E+03  0.38895809479E+03  0.10886667721E+04  0.12326262109E+04  0.12500000000E+03 0.  0.
         21    1    1    2  503  504  0.85060493525E+01 -0.21734460127E+02 -0.40412647898E+02  0.46668209122E+02  0.00000000000E+00 0. -1.
         21    1    1    2  504  501  0.40046660944E+03 -0.36722363466E+03 -0.44511125694E+03  0.70238930387E+03  0.00000000000E+00 0. -1.
<mgrwt>
<rscale>  4 0.57807615E+03</rscale>
<asrwt>0</asrwt>
<pdfrwt beam="1">  1       21 0.19883282E+00 0.57807615E+03</pdfrwt>
<pdfrwt beam="2">  1       21 0.10604160E+00 0.57807615E+03</pdfrwt>
<totfact> 0.72207203E+01</totfact>
</mgrwt>
</event>
<event>
 5    0  0.2706678E+000  0.2943958E+03  0.7546771E-02  0.1088076E+00
         21   -1    0    0  502  501  0.00000000000E+00  0.00000000000E+00  0.73072456752E+03  0.73072456752E+03  0.00000000000E+00 0.  1.
         21   -1    0    0  503  502 -0.00000000000E+00 -0.00000000000E+00 -0.13226454730E+03  0.13226454730E+03  0.00000000000E+00 0.  1.
         25    1    1    2    0    0  0.22488754497E+03 -0.14307158729E+03  0.48666680796E+03  0.56878244430E+03  0.12500000000E+03 0.  0.
         21    1    1    2  503  504 -0.47858156478E+02  0.22145140975E+02  0.68707437076E+00  0.52737865727E+02  0.00000000000E+00 0.  1.
         21    1    1    2  504  501 -0.17702938849E+03  0.12092644632E+03  0.11110613790E+03  0.24146880479E+03  0.00000000000E+00 0.  1.
<mgrwt>
<rscale>  4 0.29439580E+03</rscale>
<asrwt>0</asrwt>
<pdfrwt beam="1">  1       21 0.11241916E+00 0.29439580E+03</pdfrwt>
<pdfrwt beam="2">  1       21 0.20348392E-01 0.29439580E+03</pdfrwt>
<totfact> 0.13073970E+04</totfact>
</mgrwt>
</event>
<event>
 5    0  0.2130117E+000  0.3075554E+03  0.7546771E-02  0.1081524E+00
         21   -1    0    0  502  501  0.00000000000E+00  0.00000000000E+00  0.44956029928E+03  0.44956029928E+03  0.00000000000E+00 0. -1.
         21   -1    0    0  503  502 -0.00000000000E+00 -0.00000000000E+00 -0.25053681860E+03  0.25053681860E+03  0.00000000000E+00 0.  1.
         25    1    1    2    0    0  0.67465853755E+02 -0.27278874961E+03  0.26477517381E+03  0.40582784035E+03  0.12500000000E+03 0.  0.
         21    1    1    2  503  504 -0.40164162816E+01  0.41374066548E+02 -0.30901793200E+02  0.51796387958E+02  0.00000000000E+00 0.  1.
         21    1    1    2  504  501 -0.63449437474E+02  0.23141468306E+03 -0.34849899926E+02  0.24247288957E+03  0.00000000000E+00 0.  1.
<mgrwt>
<rscale>  4 0.30755543E+03</rscale>
<asrwt>0</asrwt>
<pdfrwt beam="1">  1       21 0.69163123E-01 0.30755543E+03</pdfrwt>
<pdfrwt beam="2">  1       21 0.38544126E-01 0.30755543E+03</pdfrwt>
<totfact> 0.11605016E+04</totfact>
</mgrwt>
</event>
<event>
 5    0  0.1856407E+000  0.2709783E+03  0.7546771E-02  0.1100721E+00
         21   -1    0    0  502  501  0.00000000000E+00  0.00000000000E+00  0.82498239342E+03  0.82498239342E+03  0.00000000000E+00 0.  1.
         21   -1    0    0  503  502 -0.00000000000E+00 -0.00000000000E+00 -0.71140992623E+03  0.71140992623E+03  0.00000000000E+00 0.  1.
         25    1    1    2    0    0 -0.29565874784E+03  0.11068127504E+03  0.71481409868E+03  0.79135872744E+03  0.12500000000E+03 0.  0.
         21    1    1    2  503  504  0.61232667987E+02 -0.67788434057E+02  0.71515805481E+01  0.91628906602E+02  0.00000000000E+00 0.  1.
         21    1    1    2  504  501  0.23442607985E+03 -0.42892840979E+02 -0.60839321204E+03  0.65340468561E+03  0.00000000000E+00 0.  1.
<mgrwt>
<rscale>  4 0.27097826E+03</rscale>
<asrwt>0</asrwt>
<pdfrwt beam="1">  1       21 0.12692037E+00 0.27097826E+03</pdfrwt>
<pdfrwt beam="2">  1       21 0.10944768E+00 0.27097826E+03</pdfrwt>
<totfact> 0.28014334E+02</totfact>
</mgrwt>
</event>
<event>
 5    0  0.2748740E+000  0.2170616E+03  0.7546771E-02  0.1136093E+00
         21   -1    0    0  502  501  0.00000000000E+00  0.00000000000E+00  0.10859662696E+03  0.10859662696E+03  0.00000000000E+00 0.  1.
         21   -1    0    0  503  502 -0.00000000000E+00 -0.00000000000E+00 -0.82917089730E+03  0.82917089730E+03  0.00000000000E+00 0.  1.
         25    1    1    2    0    0  0.92273069994E+01 -0.20882468801E+03 -0.10028501560E+03  0.26339130182E+03  0.12500000000E+03 0.  0.
         21    1    1    2  503  504 -0.20681457865E+02  0.14043115829E+03 -0.18287546806E+03  0.23149961067E+03  0.00000000000E+00 0.  1.
         21    1    1    2  504  501  0.11454150866E+02  0.68393529718E+02 -0.43741378668E+03  0.44287661177E+03  0.00000000000E+00 0.  1.
<mgrwt>
<rscale>  4 0.21706159E+03</rscale>
<asrwt>0</asrwt>
<pdfrwt beam="1">  1       21 0.16707173E-01 0.21706159E+03</pdfrwt>
<pdfrwt beam="2">  1       21 0.12756476E+00 0.21706159E+03</pdfrwt>
<totfact> 0.14365672E+04</totfact>
</mgrwt>
</event>
<event>
 5    0  0.1856407E+000  0.2692099E+03  0.7546771E-02  0.1101733E+00
         21   -1    0    0  502  501  0.00000000000E+00  0.00000000000E+00  0.12518597449E+04  0.12518597449E+04  0.00000000000E+00 0.  1.
         21   -1    0    0  503  502 -0.00000000000E+00 -0.00000000000E+00 -0.53128789109E+03  0.53128789109E+03  0.00000000000E+00 0. -1.
         25    1    1    2    0    0 -0.22719923192E+03  0.72315185760E+02  0.12070771001E+04  0.12367332383E+04  0.12500000000E+03 0.  0.
         21    1    1    2  503  504  0.20515137071E+03 -0.79472965030E+02 -0.46657361156E+03  0.51584297231E+03  0.00000000000E+00 0. -1.
         21    1    1    2  504  501  0.22047861204E+02  0.71577792704E+01 -0.19931634738E+02  0.30571425401E+02  0.00000000000E+00 0. -1.
<mgrwt>
<rscale>  4 0.26920991E+03</rscale>
<asrwt>0</asrwt>
<pdfrwt beam="1">  1       21 0.19259381E+00 0.26920991E+03</pdfrwt>
<pdfrwt beam="2">  1       21 0.81736599E-01 0.26920991E+03</pdfrwt>
<totfact> 0.18010290E+02</totfact>
</mgrwt>
</event>
<event>
 5    0  0.1856407E+000  0.3140078E+03  0.7546771E-02  0.1078441E+00
         21   -1    0    0  502  501  0.00000000000E+00  0.00000000000E+00  0.13842950696E+03  0.13842950696E+03  0.00000000000E+00 0.  1.
         21   -1    0    0  503  502 -0.00000000000E+00 -0.00000000000E+00 -0.21424737870E+04  0.21424737870E+04  0.00000000000E+00 0. -1.
         25    1    1    2    0    0 -0.16717775819E+03 -0.23202124288E+03 -0.72665028210E+02  0.32044885131E+03  0.12500000000E+03 0.  0.
         21    1    1    2  503  504  0.18703400120E+03  0.24466898112E+03 -0.18591629518E+04  0.18844976809E+04  0.00000000000E+00 0. -1.
         21    1    1    2  504  501 -0.19856243006E+02 -0.12647738247E+02 -0.72216300045E+02  0.75956761788E+02  0.00000000000E+00 0. -1.
<mgrwt>
<rscale>  4 0.31400780E+03</rscale>
<asrwt>0</asrwt>
<pdfrwt beam="1">  1       21 0.21296847E-01 0.31400780E+03</pdfrwt>
<pdfrwt beam="2">  1       21 0.32961136E+00 0.31400780E+03</pdfrwt>
<totfact> 0.40995746E+02</totfact>
</mgrwt>
</event>
