<event>
 5    0  0.3188794E-002  0.4651933E+03  0.7546771E-02  0.1023286E+00
         21   -1    0    0  501  502  0.00000000000E+00  0.00000000000E+00  0.64189212122E+02  0.64189212122E+02  0.00000000000E+00 0.  1.
          2   -1    0    0  503    0 -0.00000000000E+00 -0.00000000000E+00 -0.29462772709E+04  0.29462772709E+04  0.00000000000E+00 0.  1.
         25    1    1    2    0    0 -0.94867996296E+02 -0.23388505461E+03 -0.23440133332E+04  0.23608739191E+04  0.12500000000E+03 0.  0.
         21    1    1    2  503  502  0.46451123268E+02  0.14090235211E+03 -0.52305499575E+03  0.54368898119E+03  0.00000000000E+00 0. -1.
          2    1    1    2  501    0  0.48416873029E+02  0.92982702502E+02 -0.15019729816E+02  0.10590358276E+03  0.00000000000E+00 0.  1.
<mgrwt>
<rscale>  4 0.46519333E+03</rscale>
<asrwt>0</asrwt>
<pdfrwt beam="1">  1       21 0.98752642E-02 0.46519333E+03</pdfrwt>
<pdfrwt beam="2">  1        2 0.45327339E+00 0.46519333E+03</pdfrwt>
<totfact> 0.21768015E+03</totfact>
</mgrwt>
</event>
<event>
 5    0  0.3188794E-002  0.6319311E+03  0.7546771E-02  0.9841288E-01
         21   -1    0    0  501  502  0.00000000000E+00  0.00000000000E+00  0.19708624848E+04  0.19708624848E+04  0.00000000000E+00 0. -1.
          4   -1    0    0  503    0 -0.00000000000E+00 -0.00000000000E+00 -0.14331870476E+03  0.14331870476E+03  0.00000000000E+00 0. -1.
         25    1    1    2    0    0 -0.86350079775E+02  0.18644396712E+03  0.66992590256E+03  0.71178887605E+03  0.12500000000E+03 0.  0.
         21    1    1    2  503  502  0.25923665160E+03  0.19777355163E+03  0.28367389369E+03  0.43219081112E+03  0.00000000000E+00 0. -1.
          4    1    1    2  501    0 -0.17288657182E+03 -0.38421751875E+03  0.87394398376E+03  0.97020150236E+03  0.00000000000E+00 0. -1.
<mgrwt>
<rscale>  4 0.63193113E+03</rscale>
<asrwt>0</asrwt>
<pdfrwt beam="1">  1       21 0.30320959E+00 0.63193113E+03</pdfrwt>
<pdfrwt beam="2">  1        4 0.22049033E-01 0.63193113E+03</pdfrwt>
<totfact> 0.21321019E+01</totfact>
</mgrwt>
</event>
<event>
 5    0  0.3188794E-002  0.4502340E+03  0.7546771E-02  0.1027652E+00
          2   -1    0    0  503    0 -0.00000000000E+00  0.00000000000E+00  0.10344170578E+04  0.10344170578E+04  0.00000000000E+00 0.  1.
         21   -1    0    0  501  502  0.00000000000E+00 -0.00000000000E+00 -0.99503257290E+02  0.99503257290E+02  0.00000000000E+00 0. -1.
         25    1    1    2    0    0 -0.33936111710E+02 -0.28489979489E+03  0.42026909589E+03  0.52399491006E+03  0.12500000000E+03 0.  0.
         21    1    1    2  503  502  0.64707769024E+02  0.11610529120E+03  0.11791503368E+03  0.17768367732E+03  0.00000000000E+00 0.  1.
          2    1    1    2  501    0 -0.30771657315E+02  0.16879450369E+03  0.39672967093E+03  0.43224172770E+03  0.00000000000E+00 0.  1.
<mgrwt>
<rscale>  4 0.45023403E+03</rscale>
<asrwt>0</asrwt>
<pdfrwt beam="1">  1       21 0.15308194E-01 0.45023403E+03</pdfrwt>
<pdfrwt beam="2">  1        2 0.15914108E+00 0.45023403E+03</pdfrwt>
<totfact> 0.11428357E+04</totfact>
</mgrwt>
</event>
<event>
 5    0  0.3188794E-002  0.4881081E+03  0.7546771E-02  0.1016930E+00
          4   -1    0    0  503    0 -0.00000000000E+00  0.00000000000E+00  0.17159656307E+03  0.17159656307E+03  0.00000000000E+00 0. -1.
         21   -1    0    0  501  502  0.00000000000E+00 -0.00000000000E+00 -0.63570514941E+03  0.63570514941E+03  0.00000000000E+00 0. -1.
         25    1    1    2    0    0 -0.26093625213E+03  0.82824279472E+02 -0.59455159715E+02  0.30676946550E+03  0.12500000000E+03 0.  0.
         21    1    1    2  503  502  0.14557333267E+03 -0.76071080344E+02 -0.15687270331E+03  0.22712870689E+03  0.00000000000E+00 0.  1.
          4    1    1    2  501    0  0.11536291947E+03 -0.67531991278E+01 -0.24778072332E+03  0.27340354009E+03  0.00000000000E+00 0. -1.
<mgrwt>
<rscale>  4 0.48810810E+03</rscale>
<asrwt>0</asrwt>
<pdfrwt beam="1">  1       21 0.97800795E-01 0.48810810E+03</pdfrwt>
<pdfrwt beam="2">  1        4 0.26399470E-01 0.48810810E+03</pdfrwt>
<totfact> 0.47709473E+02</totfact>
</mgrwt>
</event>
<event>
 5    0  0.3188794E-002  0.4307932E+03  0.7546771E-02  0.1033610E+00
          1   -1    0    0  503    0 -0.00000000000E+00  0.00000000000E+00  0.26920013247E+04  0.26920013247E+04  0.00000000000E+00 0.  1.
         21   -1    0    0  501  502  0.00000000000E+00 -0.00000000000E+00 -0.42998407685E+02  0.42998407685E+02  0.00000000000E+00 0.  1.
         25    1    1    2    0    0 -0.10284009039E+03 -0.19174947587E+03  0.78083538560E+03  0.82016635209E+03  0.12500000000E+03 0.  0.
         21    1    1    2  503  502 -0.11083210308E+03  0.14164389945E+03  0.55390342161E+03  0.58237080094E+03  0.00000000000E+00 0.  1.
          1    1    1    2  501    0  0.21367219347E+03  0.50105576416E+02  0.13142641098E+04  0.13324625793E+04  0.00000000000E+00 0.  1.
<mgrwt>
<rscale>  4 0.43079320E+03</rscale>
<asrwt>0</asrwt>
<pdfrwt beam="1">  1       21 0.66151418E-02 0.43079320E+03</pdfrwt>
<pdfrwt beam="2">  1        1 0.41415392E+00 0.43079320E+03</pdfrwt>
<totfact> 0.20688884E+03</totfact>
</mgrwt>
</event>
<event>
 5    0  0.3188794E-002  0.4487567E+03  0.7546771E-02  0.1028093E+00
          1   -1    0    0  503    0 -0.00000000000E+00  0.00000000000E+00  0.16141816759E+03  0.16141816759E+03  0.00000000000E+00 0.  1.
         21   -1    0    0  501  502  0.00000000000E+00 -0.00000000000E+00 -0.43704139463E+03  0.43704139463E+03  0.00000000000E+00 0. -1.
         25    1    1    2    0    0 -0.19679520074E+03 -0.92973742718E+02 -0.80982239739E+02  0.26373393984E+03  0.12500000000E+03 0.  0.
         21    1    1    2  503  502  0.17991711696E+03  0.81897328037E+02 -0.71921879269E+02  0.21035707270E+03  0.00000000000E+00 0.  1.
          1    1    1    2  501    0  0.16878083776E+02  0.11076414680E+02 -0.12271910803E+03  0.12436854968E+03  0.00000000000E+00 0.  1.
<mgrwt>
<rscale>  4 0.44875675E+03</rscale>
<asrwt>0</asrwt>
<pdfrwt beam="1">  1       21 0.67237138E-01 0.44875675E+03</pdfrwt>
<pdfrwt beam="2">  1        1 0.24833564E-01 0.44875675E+03</pdfrwt>
<totfact> 0.39998476E+03</totfact>
</mgrwt>
</event>
<event>
 5    0  0.3188794E-002  0.7968612E+03  0.7546771E-02  0.9564572E-01
         21   -1    0    0  501  502  0.00000000000E+00  0.00000000000E+00  0.55429304005E+03  0.55429304005E+03  0.00000000000E+00 0. -1.
          2   -1    0    0  503    0 -0.00000000000E+00 -0.00000000000E+00 -0.81887914318E+03  0.81887914318E+03  0.00000000000E+00 0. -1.
         25    1    1    2    0    0 -0.20075286433E+03  0.25236787461E+02  0.20857174481E+02  0.23874385794E+03  0.12500000000E+03 0.  0.
         21    1    1    2  503  502  0.30500332744E+02 -0.52466252235E+03 -0.30271897718E+03  0.60649798994E+03  0.00000000000E+00 0. -1.
          2    1    1    2  501    0  0.17025253159E+03  0.49942573489E+03  0.17275699573E+02  0.52793033534E+03  0.00000000000E+00 0. -1.
<mgrwt>
<rscale>  4 0.79686116E+03</rscale>
<asrwt>0</asrwt>
<pdfrwt beam="1">  1       21 0.85275853E-01 0.79686116E+03</pdfrwt>
<pdfrwt beam="2">  1        2 0.12598141E+00 0.79686116E+03</pdfrwt>
<totfact> 0.43201905E+02</totfact>
</mgrwt>
</event>
<event>
 5    0  0.3188794E-002  0.7767039E+03  0.7546771E-02  0.9594363E-01
          1   -1    0    0  503    0 -0.00000000000E+00  0.00000000000E+00  0.14930681682E+04  0.14930681682E+04  0.00000000000E+00 0.  1.
         21   -1    0    0  501  502  0.00000000000E+00 -0.00000000000E+00 -0.17718194184E+03  0.17718194184E+03  0.00000000000E+00 0. -1.
         25    1    1    2    0    0  0.46056076291E+03 -0.78343848332E+02  0.54228347000E+03  0.72660191078E+03  0.12500000000E+03 0.  0.
         21    1    1    2  503  502 -0.27756537329E+03 -0.88882822652E+02  0.38881623109E+03  0.48592258043E+03  0.00000000000E+00 0.  1.
          1    1    1    2  501    0 -0.18299538962E+03  0.16722667098E+03  0.38478652528E+03  0.45772561885E+03  0.00000000000E+00 0.  1.
<mgrwt>
<rscale>  4 0.77670393E+03</rscale>
<asrwt>0</asrwt>
<pdfrwt beam="1">  1       21 0.27258761E-01 0.77670393E+03</pdfrwt>
<pdfrwt beam="2">  1        1 0.22970279E+00 0.77670393E+03</pdfrwt>
<totfact> 0.89243067E+02</totfact>
</mgrwt>
</event>
<event>
 5    0  0.3188794E-002  0.3910576E+03  0.7546771E-02  0.1046921E+00
          2   -1    0    0  502    0 -0.00000000000E+00  0.00000000000E+00  0.55586203445E+03  0.55586203445E+03  0.00000000000E+00 0.  1.
         21   -1    0    0  503  502  0.00000000000E+00 -0.00000000000E+00 -0.10516520932E+03  0.10516520932E+03  0.00000000000E+00 0. -1.
         25    1    1    2    0    0 -0.10816093158E+03 -0.17202655156E+03  0.13843401822E+03  0.27582766171E+03  0.12500000000E+03 0.  0.
         21    1    1    2  503  501  0.28252342557E+02  0.13411131085E+03  0.19344273503E+03  0.23707410296E+03  0.00000000000E+00 0.  1.
          2    1    1    2  501    0  0.79908589023E+02  0.37915240714E+02  0.11882007187E+03  0.14812547910E+03  0.00000000000E+00 0.  1.
<mgrwt>
<rscale>  4 0.39105759E+03</rscale>
<asrwt>0</asrwt>
<pdfrwt beam="1">  1       21 0.16179263E-01 0.39105759E+03</pdfrwt>
<pdfrwt beam="2">  1        2 0.85517234E-01 0.39105759E+03</pdfrwt>
<totfact> 0.23094479E+04</totfact>
</mgrwt>
</event>
<event>
 5    0  0.3188794E-002  0.4380508E+03  0.7546771E-02  0.1031347E+00
         21   -1    0    0  501  502  0.00000000000E+00  0.00000000000E+00  0.36571430951E+02  0.36571430951E+02  0.00000000000E+00 0.  1.
          2   -1    0    0  503    0 -0.00000000000E+00 -0.00000000000E+00 -0.21218559933E+04  0.21218559933E+04  0.00000000000E+00 0. -1.
         25    1    1    2    0    0  0.68183922977E+02 -0.22052495897E+03 -0.68764671079E+03  0.73604572123E+03  0.12500000000E+03 0.  0.
         21    1    1    2  503  502 -0.77707210917E+02  0.10197731231E+03 -0.97275952516E+03  0.98117219520E+03  0.00000000000E+00 0. -1.
          2    1    1    2  501    0  0.95232879398E+01  0.11854764666E+03 -0.42487832637E+03  0.44120950779E+03  0.00000000000E+00 0. -1.
<mgrwt>
<rscale>  4 0.43805080E+03</rscale>
<asrwt>0</asrwt>
<pdfrwt beam="1">  1       21 0.56263749E-02 0.43805080E+03</pdfrwt>
<pdfrwt beam="2">  1        2 0.32643933E+00 0.43805080E+03</pdfrwt>
<totfact> 0.17214500E+04</totfact>
</mgrwt>
</event>
<event>
 5    0  0.3188794E-002  0.5661401E+03  0.7546771E-02  0.9978257E-01
         -3   -1    0    0    0  501 -0.00000000000E+00  0.00000000000E+00  0.14409689851E+04  0.14409689851E+04  0.00000000000E+00 0.  1.
         21   -1    0    0  501  502  0.00000000000E+00 -0.00000000000E+00 -0.94509313797E+02  0.94509313797E+02  0.00000000000E+00 0. -1.
         25    1    1    2    0    0 -0.22622950333E+03  0.17703805721E+03  0.10325117777E+04  0.10789938985E+04  0.12500000000E+03 0.  0.
         21    1    1    2  503  502  0.15139921727E+03 -0.15456139760E+03  0.31028003629E+03  0.37826531632E+03  0.00000000000E+00 0.  1.
         -3    1    1    2    0  503  0.74830286067E+02 -0.22476659606E+02  0.36678573309E+01  0.78219084099E+02  0.00000000000E+00 0.  1.
<mgrwt>
<rscale>  4 0.56614006E+03</rscale>
<asrwt>0</asrwt>
<pdfrwt beam="1">  1       21 0.14539896E-01 0.56614006E+03</pdfrwt>
<pdfrwt beam="2">  1       -3 0.22168752E+00 0.56614006E+03</pdfrwt>
<totfact> 0.22894789E+02</totfact>
</mgrwt>
</event>
<event>
 5    0  0.3188794E-002  0.5633137E+03  0.7546771E-02  0.9984585E-01
         21   -1    0    0  501  502  0.00000000000E+00  0.00000000000E+00  0.19149799566E+03  0.19149799566E+03  0.00000000000E+00 0.  1.
          2   -1    0    0  503    0 -0.00000000000E+00 -0.00000000000E+00 -0.48894575430E+03  0.48894575430E+03  0.00000000000E+00 0. -1.
         25    1    1    2    0    0 -0.20549351367E+03  0.17618511201E+03 -0.87678236126E+02  0.31077524184E+03  0.12500000000E+03 0.  0.
         21    1    1    2  503  502  0.16950270084E+03 -0.17980385189E+03 -0.22128842684E+03  0.33170643437E+03  0.00000000000E+00 0. -1.
          2    1    1    2  501    0  0.35990812826E+02  0.36187398788E+01  0.11518904326E+02  0.37962073746E+02  0.00000000000E+00 0. -1.
<mgrwt>
<rscale>  4 0.56331368E+03</rscale>
<asrwt>0</asrwt>
<pdfrwt beam="1">  1       21 0.29461231E-01 0.56331368E+03</pdfrwt>
<pdfrwt beam="2">  1        2 0.75222422E-01 0.56331368E+03</pdfrwt>
<totfact> 0.83177939E+03</totfact>
</mgrwt>
</event>
<event>
 5    0  0.3188794E-002  0.7918131E+03  0.7546771E-02  0.9571944E-01
          2   -1    0    0  503    0 -0.00000000000E+00  0.00000000000E+00  0.51889744464E+03  0.51889744464E+03  0.00000000000E+00 0. -1.
         21   -1    0    0  501  502  0.00000000000E+00 -0.00000000000E+00 -0.38715507347E+03  0.38715507347E+03  0.00000000000E+00 0.  1.
         25    1    1    2    0    0 -0.39314677306E+03  0.82130893645E+02  0.99467406135E+02  0.43223677972E+03  0.12500000000E+03 0.  0.
         21    1    1    2  503  502  0.35672071007E+03 -0.10146127420E+03  0.10913371496E+03  0.38659309732E+03  0.00000000000E+00 0.  1.
          2    1    1    2  501    0  0.36426062992E+02  0.19330380556E+02 -0.76858749915E+02  0.87222641075E+02  0.00000000000E+00 0. -1.
<mgrwt>
<rscale>  4 0.79181307E+03</rscale>
<asrwt>0</asrwt>
<pdfrwt beam="1">  1       21 0.59562319E-01 0.79181307E+03</pdfrwt>
<pdfrwt beam="2">  1        2 0.79830376E-01 0.79181307E+03</pdfrwt>
<totfact> 0.17342529E+03</totfact>
</mgrwt>
</event>
<event>
 5    0  0.3188794E-002  0.9717944E+03  0.7546771E-02  0.9340033E-01
          2   -1    0    0  503    0 -0.00000000000E+00  0.00000000000E+00  0.74705135524E+03  0.74705135524E+03  0.00000000000E+00 0.  1.
         21   -1    0    0  501  502  0.00000000000E+00 -0.00000000000E+00 -0.53931370330E+03  0.53931370330E+03  0.00000000000E+00 0.  1.
         25    1    1    2    0    0  0.26199424362E+03  0.98804477541E+02 -0.28200707422E+03  0.41660088620E+03  0.12500000000E+03 0.  0.
         21    1    1    2  503  502 -0.27642957105E+02 -0.61886661725E+02  0.60305514557E+03  0.60685220653E+03  0.00000000000E+00 0.  1.
          2    1    1    2  501    0 -0.23435128651E+03 -0.36917815816E+02 -0.11331041942E+03  0.26291196581E+03  0.00000000000E+00 0.  1.
<mgrwt>
<rscale>  4 0.97179441E+03</rscale>
<asrwt>0</asrwt>
<pdfrwt beam="1">  1       21 0.82971339E-01 0.97179441E+03</pdfrwt>
<pdfrwt beam="2">  1        2 0.11493098E+00 0.97179441E+03</pdfrwt>
<totfact> 0.50824672E+02</totfact>
</mgrwt>
</event>
<event>
 5    0  0.3188794E-002  0.4995719E+03  0.7546771E-02  0.1013891E+00
         21   -1    0    0  503  502  0.00000000000E+00  0.00000000000E+00  0.24989760587E+03  0.24989760587E+03  0.00000000000E+00 0. -1.
          2   -1    0    0  502    0 -0.00000000000E+00 -0.00000000000E+00 -0.10656873190E+04  0.10656873190E+04  0.00000000000E+00 0.  1.
         25    1    1    2    0    0  0.73594991782E+02 -0.30620984176E+03  0.42758114831E+02  0.34151712459E+03  0.12500000000E+03 0.  0.
         21    1    1    2  503  501 -0.90440032783E+02  0.11191793705E+03 -0.66775899583E+02  0.15863179041E+03  0.00000000000E+00 0.  1.
          2    1    1    2  501    0  0.16845041001E+02  0.19429190471E+03 -0.79177192841E+03  0.81543600991E+03  0.00000000000E+00 0.  1.
<mgrwt>
<rscale>  4 0.49957190E+03</rscale>
<asrwt>0</asrwt>
<pdfrwt beam="1">  1       21 0.38445786E-01 0.49957190E+03</pdfrwt>
<pdfrwt beam="2">  1        2 0.16395189E+00 0.49957190E+03</pdfrwt>
<totfact> 0.18053750E+03</totfact>
</mgrwt>
</event>
<event>
 5    0  0.3188794E-002  0.5883935E+03  0.7546771E-02  0.9929783E-01
         -1   -1    0    0    0  501 -0.00000000000E+00  0.00000000000E+00  0.15462185990E+04  0.15462185990E+04  0.00000000000E+00 0.  1.
         21   -1    0    0  503  502  0.00000000000E+00 -0.00000000000E+00 -0.14899607230E+03  0.14899607230E+03  0.00000000000E+00 0. -1.
         25    1    1    2    0    0  0.29611373404E+03 -0.16213939041E+03  0.42824617942E+03  0.55945716154E+03  0.12500000000E+03 0.  0.
         21    1    1    2  503  501 -0.17591569159E+03 -0.14155728040E+03  0.20534026358E+03  0.30520389582E+03  0.00000000000E+00 0.  1.
         -1    1    1    2    0  502 -0.12019804245E+03  0.30369667081E+03  0.76363608370E+03  0.83055361392E+03  0.00000000000E+00 0.  1.
<mgrwt>
<rscale>  4 0.58839354E+03</rscale>
<asrwt>0</asrwt>
<pdfrwt beam="1">  1       21 0.22922474E-01 0.58839354E+03</pdfrwt>
<pdfrwt beam="2">  1       -1 0.23787977E+00 0.58839354E+03</pdfrwt>
<totfact> 0.14135009E+02</totfact>
</mgrwt>
</event>
<event>
 5    0  0.3188794E-002  0.5173252E+03  0.7546771E-02  0.1009353E+00
         21   -1    0    0  503  502  0.00000000000E+00  0.00000000000E+00  0.26527326382E+03  0.26527326382E+03  0.00000000000E+00 0. -1.
          4   -1    0    0  502    0 -0.00000000000E+00 -0.00000000000E+00 -0.44446770863E+03  0.44446770863E+03  0.00000000000E+00 0.  1.
         25    1    1    2    0    0 -0.21373147094E+03 -0.15520612432E+03 -0.29926548912E+02  0.29375275492E+03  0.12500000000E+03 0.  0.
         21    1    1    2  503  501  0.92151405029E+02  0.20517475685E+03 -0.10968222238E+02  0.22518628776E+03  0.00000000000E+00 0.  1.
          4    1    1    2  501    0  0.12158006591E+03 -0.49968632531E+02 -0.13829967366E+03  0.19080192976E+03  0.00000000000E+00 0.  1.
<mgrwt>
<rscale>  4 0.51732519E+03</rscale>
<asrwt>0</asrwt>
<pdfrwt beam="1">  1       21 0.40811272E-01 0.51732519E+03</pdfrwt>
<pdfrwt beam="2">  1        4 0.68379647E-01 0.51732519E+03</pdfrwt>
<totfact> 0.47718081E+02</totfact>
</mgrwt>
</event>
<event>
 5    0  0.3188794E-002  0.4436246E+03  0.7546771E-02  0.1029640E+00
          2   -1    0    0  503    0 -0.00000000000E+00  0.00000000000E+00  0.11899896857E+04  0.11899896857E+04  0.00000000000E+00 0.  1.
         21   -1    0    0  501  502  0.00000000000E+00 -0.00000000000E+00 -0.12647125408E+03  0.12647125408E+03  0.00000000000E+00 0. -1.
         25    1    1    2    0    0  0.27896124457E+03 -0.72597275537E+02  0.55146057567E+03  0.63468378497E+03  0.12500000000E+03 0.  0.
         21    1    1    2  503  502  0.25657966682E+02 -0.43106343190E+02 -0.23093794485E+02  0.55225097747E+02  0.00000000000E+00 0. -1.
          2    1    1    2  501    0 -0.30461921125E+03  0.11570361873E+03  0.53515165042E+03  0.62655205705E+03  0.00000000000E+00 0.  1.
<mgrwt>
<rscale>  4 0.44362463E+03</rscale>
<asrwt>0</asrwt>
<pdfrwt beam="1">  1       21 0.19457117E-01 0.44362463E+03</pdfrwt>
<pdfrwt beam="2">  1        2 0.18307533E+00 0.44362463E+03</pdfrwt>
<totfact> 0.58855584E+03</totfact>
</mgrwt>
</event>
<event>
 5    0  0.3188794E-002  0.7348896E+03  0.7546771E-02  0.9659359E-01
         21   -1    0    0  503  502  0.00000000000E+00  0.00000000000E+00  0.33091056666E+03  0.33091056666E+03  0.00000000000E+00 0. -1.
         -2   -1    0    0    0  501 -0.00000000000E+00 -0.00000000000E+00 -0.65636857819E+03  0.65636857819E+03  0.00000000000E+00 0.  1.
         25    1    1    2    0    0 -0.13553243505E+03 -0.32640559810E+03 -0.37844136740E+03  0.53268426294E+03  0.12500000000E+03 0.  0.
         21    1    1    2  503  501  0.15239584913E+03  0.28066336886E+03 -0.65905991272E+02  0.32609817715E+03  0.00000000000E+00 0. -1.
         -2    1    1    2    0  502 -0.16863414077E+02  0.45742229236E+02  0.11888934714E+03  0.12849670476E+03  0.00000000000E+00 0.  1.
<mgrwt>
<rscale>  4 0.73488959E+03</rscale>
<asrwt>0</asrwt>
<pdfrwt beam="1">  1       21 0.50909319E-01 0.73488959E+03</pdfrwt>
<pdfrwt beam="2">  1       -2 0.10097978E+00 0.73488959E+03</pdfrwt>
<totfact> 0.22225856E+02</totfact>
</mgrwt>
</event>
<event>
 5    0  0.3188794E-002  0.4658041E+03  0.7546771E-02  0.1023111E+00
          2   -1    0    0  503    0 -0.00000000000E+00  0.00000000000E+00  0.21390539286E+04  0.21390539286E+04  0.00000000000E+00 0. -1.
         21   -1    0    0  501  502  0.00000000000E+00 -0.00000000000E+00 -0.69958685467E+02  0.69958685467E+02  0.00000000000E+00 0. -1.
         25    1    1    2    0    0 -0.22709571160E+03  0.61784923418E+01  0.48201288231E+03  0.54733175927E+03  0.12500000000E+03 0.  0.
         21    1    1    2  503  502 -0.44333711406E+02  0.23770948624E+01  0.11237716223E+04  0.11246482951E+04  0.00000000000E+00 0. -1.
          2    1    1    2  501    0  0.27142942301E+03 -0.85555872043E+01  0.46331073846E+03  0.53703255964E+03  0.00000000000E+00 0. -1.
<mgrwt>
<rscale>  4 0.46580406E+03</rscale>
<asrwt>0</asrwt>
<pdfrwt beam="1">  1       21 0.10762876E-01 0.46580406E+03</pdfrwt>
<pdfrwt beam="2">  1        2 0.32908517E+00 0.46580406E+03</pdfrwt>
<totfact> 0.53145163E+03</totfact>
</mgrwt>
</event>
<event>
 5    0  0.3188794E-002  0.6595298E+03  0.7546771E-02  0.9789060E-01
         21   -1    0    0  501  502  0.00000000000E+00  0.00000000000E+00  0.19390470061E+03  0.19390470061E+03  0.00000000000E+00 0.  1.
          1   -1    0    0  503    0 -0.00000000000E+00 -0.00000000000E+00 -0.75773661639E+03  0.75773661639E+03  0.00000000000E+00 0. -1.
         25    1    1    2    0    0 -0.18186504641E+03  0.25082338982E+03 -0.14456815124E+03  0.36402227725E+03  0.12500000000E+03 0.  0.
         21    1    1    2  503  502  0.17836243670E+03 -0.19910353592E+03 -0.45284400965E+03  0.52585461291E+03  0.00000000000E+00 0. -1.
          1    1    1    2  501    0  0.35026097124E+01 -0.51719853894E+02  0.33580245104E+02  0.61764426840E+02  0.00000000000E+00 0. -1.
<mgrwt>
<rscale>  4 0.65952982E+03</rscale>
<asrwt>0</asrwt>
<pdfrwt beam="1">  1       21 0.29831493E-01 0.65952982E+03</pdfrwt>
<pdfrwt beam="2">  1        1 0.11657486E+00 0.65952982E+03</pdfrwt>
<totfact> 0.27189558E+03</totfact>
</mgrwt>
</event>
<event>
 5    0  0.3188794E-002  0.6770149E+03  0.7546771E-02  0.9757368E-01
         21   -1    0    0  501  502  0.00000000000E+00  0.00000000000E+00  0.14051585076E+03  0.14051585076E+03  0.00000000000E+00 0.  1.
          4   -1    0    0  503    0 -0.00000000000E+00 -0.00000000000E+00 -0.12579073177E+04  0.12579073177E+04  0.00000000000E+00 0.  1.
         25    1    1    2    0    0 -0.21543727763E+03  0.18993593996E+03 -0.52244341798E+03  0.60914777096E+03  0.12500000000E+03 0.  0.
         21    1    1    2  503  502  0.18429795094E+03 -0.31276472454E+03 -0.54109643836E+03  0.65159255923E+03  0.00000000000E+00 0.  1.
          4    1    1    2  501    0  0.31139326684E+02  0.12282878459E+03 -0.53851610588E+02  0.13768283826E+03  0.00000000000E+00 0.  1.
<mgrwt>
<rscale>  4 0.67701488E+03</rscale>
<asrwt>0</asrwt>
<pdfrwt beam="1">  1       21 0.21617822E-01 0.67701488E+03</pdfrwt>
<pdfrwt beam="2">  1        4 0.19352421E+00 0.67701488E+03</pdfrwt>
<totfact> 0.12456840E+02</totfact>
</mgrwt>
</event>
<event>
 5    0  0.3188794E-002  0.3565793E+03  0.7546771E-02  0.1059947E+00
         21   -1    0    0  503  502  0.00000000000E+00  0.00000000000E+00  0.12187121450E+03  0.12187121450E+03  0.00000000000E+00 0.  1.
         -3   -1    0    0    0  501 -0.00000000000E+00 -0.00000000000E+00 -0.71564821386E+03  0.71564821386E+03  0.00000000000E+00 0. -1.
         25    1    1    2    0    0 -0.22080777353E+03 -0.60282893377E+02 -0.35820586932E+03  0.44308751382E+03  0.12500000000E+03 0.  0.
         21    1    1    2  503  501  0.84087325447E+02 -0.41927262678E+01 -0.22803803301E+03  0.24308352834E+03  0.00000000000E+00 0. -1.
         -3    1    1    2    0  502  0.13672044809E+03  0.64475619645E+02 -0.75330970372E+01  0.15134838620E+03  0.00000000000E+00 0. -1.
<mgrwt>
<rscale>  4 0.35657928E+03</rscale>
<asrwt>0</asrwt>
<pdfrwt beam="1">  1       21 0.18749418E-01 0.35657928E+03</pdfrwt>
<pdfrwt beam="2">  1       -3 0.11009973E+00 0.35657928E+03</pdfrwt>
<totfact> 0.91886325E+02</totfact>
</mgrwt>
</event>
<event>
 5    0  0.3188794E-002  0.4410373E+03  0.7546771E-02  0.1030429E+00
         21   -1    0    0  501  502  0.00000000000E+00  0.00000000000E+00  0.17975306243E+03  0.17975306243E+03  0.00000000000E+00 0.  1.
          1   -1    0    0  503    0 -0.00000000000E+00 -0.00000000000E+00 -0.87261884923E+03  0.87261884923E+03  0.00000000000E+00 0.  1.
         25    1    1    2    0    0 -0.27553435297E+03  0.85677140386E+01 -0.42587502830E+03  0.52248169836E+03  0.12500000000E+03 0.  0.
         21    1    1    2  503  502  0.74067344088E+02 -0.11117514787E+03 -0.27276929113E+03  0.30372515725E+03  0.00000000000E+00 0.  1.
          1    1    1    2  501    0  0.20146700888E+03  0.10260743383E+03  0.57785326269E+01  0.22616505606E+03  0.00000000000E+00 0.  1.
<mgrwt>
<rscale>  4 0.44103728E+03</rscale>
<asrwt>0</asrwt>
<pdfrwt beam="1">  1       21 0.27654317E-01 0.44103728E+03</pdfrwt>
<pdfrwt beam="2">  1        1 0.13424906E+00 0.44103728E+03</pdfrwt>
<totfact> 0.26115430E+03</totfact>
</mgrwt>
</event>
<event>
 5    0  0.3188794E-002  0.6083692E+03  0.7546771E-02  0.9888193E-01
         21   -1    0    0  503  502  0.00000000000E+00  0.00000000000E+00  0.51928478230E+02  0.51928478230E+02  0.00000000000E+00 0. -1.
         -2   -1    0    0    0  501 -0.00000000000E+00 -0.00000000000E+00 -0.33610294930E+04  0.33610294930E+04  0.00000000000E+00 0. -1.
         25    1    1    2    0    0 -0.23496382751E+03  0.45309759033E+02 -0.12042964552E+04  0.12341863419E+04  0.12500000000E+03 0.  0.
         21    1    1    2  503  501  0.33179420837E+03  0.19460278104E+01 -0.20038026276E+04  0.20310874315E+04  0.00000000000E+00 0. -1.
         -2    1    1    2    0  502 -0.96830380859E+02 -0.47255786844E+02 -0.10100193193E+03  0.14768419787E+03  0.00000000000E+00 0. -1.
<mgrwt>
<rscale>  4 0.60836921E+03</rscale>
<asrwt>0</asrwt>
<pdfrwt beam="1">  1       21 0.79889954E-02 0.60836921E+03</pdfrwt>
<pdfrwt beam="2">  1       -2 0.51708154E+00 0.60836921E+03</pdfrwt>
<totfact> 0.13866576E+01</totfact>
</mgrwt>
</event>
<event>
 5    0  0.3188794E-002  0.4189036E+03  0.7546771E-02  0.1037424E+00
         21   -1    0    0  501  502  0.00000000000E+00  0.00000000000E+00  0.98687276998E+02  0.98687276998E+02  0.00000000000E+00 0. -1.
          2   -1    0    0  503    0 -0.00000000000E+00 -0.00000000000E+00 -0.12226441185E+04  0.12226441185E+04  0.00000000000E+00 0. -1.
         25    1    1    2    0    0  0.20516630776E+03 -0.15441123231E+03 -0.50374766887E+03  0.57907059707E+03  0.12500000000E+03 0.  0.
         21    1    1    2  503  502  0.30671603660E+02  0.78185300466E+02 -0.11176052981E+02  0.84726575762E+02  0.00000000000E+00 0.  1.
          2    1    1    2  501    0 -0.23583791142E+03  0.76225931841E+02 -0.60903311967E+03  0.65753422269E+03  0.00000000000E+00 0. -1.
<mgrwt>
<rscale>  4 0.41890363E+03</rscale>
<asrwt>0</asrwt>
<pdfrwt beam="1">  1       21 0.15182659E-01 0.41890363E+03</pdfrwt>
<pdfrwt beam="2">  1        2 0.18809909E+00 0.41890363E+03</pdfrwt>
<totfact> 0.90106112E+03</totfact>
</mgrwt>
</event>
<event>
 5    0  0.3188794E-002  0.1034602E+04  0.7546771E-02  0.9271387E-01
         -1   -1    0    0    0  501 -0.00000000000E+00  0.00000000000E+00  0.40156808578E+03  0.40156808578E+03  0.00000000000E+00 0.  1.
         21   -1    0    0  503  502  0.00000000000E+00 -0.00000000000E+00 -0.10314302404E+04  0.10314302404E+04  0.00000000000E+00 0. -1.
         25    1    1    2    0    0 -0.35956227416E+03 -0.83307912916E+02 -0.48135020950E+03  0.61931273323E+03  0.12500000000E+03 0.  0.
         21    1    1    2  503  501  0.38284150484E+03  0.92633278274E+02  0.21538117819E+03  0.44892938642E+03  0.00000000000E+00 0.  1.
         -1    1    1    2    0  502 -0.23279230676E+02 -0.93253653573E+01 -0.36389312335E+03  0.36475620658E+03  0.00000000000E+00 0.  1.
<mgrwt>
<rscale>  4 0.10346022E+04</rscale>
<asrwt>0</asrwt>
<pdfrwt beam="1">  1       21 0.15868158E+00 0.10346022E+04</pdfrwt>
<pdfrwt beam="2">  1       -1 0.61779705E-01 0.10346022E+04</pdfrwt>
<totfact> 0.50367077E+01</totfact>
</mgrwt>
</event>
<event>
 5    0  0.3188794E-002  0.5472627E+03  0.7546771E-02  0.1002129E+00
         21   -1    0    0  501  502  0.00000000000E+00  0.00000000000E+00  0.29562939683E+03  0.29562939683E+03  0.00000000000E+00 0. -1.
          2   -1    0    0  503    0 -0.00000000000E+00 -0.00000000000E+00 -0.86734403825E+03  0.86734403825E+03  0.00000000000E+00 0. -1.
         25    1    1    2    0    0  0.11888632813E+03 -0.38094631351E+03 -0.32285474107E+03  0.52831263152E+03  0.12500000000E+03 0.  0.
         21    1    1    2  503  502 -0.78412626537E+02  0.16923287272E+02 -0.25605245204E+03  0.26832405008E+03  0.00000000000E+00 0. -1.
          2    1    1    2  501    0 -0.40473701590E+02  0.36402302623E+03  0.71925516973E+01  0.36633675348E+03  0.00000000000E+00 0. -1.
<mgrwt>
<rscale>  4 0.54726270E+03</rscale>
<asrwt>0</asrwt>
<pdfrwt beam="1">  1       21 0.45481446E-01 0.54726270E+03</pdfrwt>
<pdfrwt beam="2">  1        2 0.13343754E+00 0.54726270E+03</pdfrwt>
<totfact> 0.16913476E+03</totfact>
</mgrwt>
</event>
<event>
 5    0  0.3188794E-002  0.6147683E+03  0.7546771E-02  0.9875232E-01
         21   -1    0    0  501  502  0.00000000000E+00  0.00000000000E+00  0.38783480407E+03  0.38783480407E+03  0.00000000000E+00 0. -1.
          2   -1    0    0  503    0 -0.00000000000E+00 -0.00000000000E+00 -0.91075096613E+03  0.91075096613E+03  0.00000000000E+00 0. -1.
         25    1    1    2    0    0 -0.28869017993E+03  0.22024816334E+03 -0.15252463614E+03  0.41320701600E+03  0.12500000000E+03 0.  0.
         21    1    1    2  503  502 -0.72561867951E+02  0.12825690799E+03 -0.35367410313E+03  0.38314544282E+03  0.00000000000E+00 0. -1.
          2    1    1    2  501    0  0.36125204788E+03 -0.34850507133E+03 -0.16717422794E+02  0.50223331139E+03  0.00000000000E+00 0. -1.
<mgrwt>
<rscale>  4 0.61476831E+03</rscale>
<asrwt>0</asrwt>
<pdfrwt beam="1">  1       21 0.59666893E-01 0.61476831E+03</pdfrwt>
<pdfrwt beam="2">  1        2 0.14011553E+00 0.61476831E+03</pdfrwt>
<totfact> 0.87079404E+02</totfact>
</mgrwt>
</event>
<event>
 5    0  0.3188794E-002  0.4185877E+03  0.7546771E-02  0.1037527E+00
         21   -1    0    0  503  502  0.00000000000E+00  0.00000000000E+00  0.55201699315E+03  0.55201699315E+03  0.00000000000E+00 0.  1.
          1   -1    0    0  502    0 -0.00000000000E+00 -0.00000000000E+00 -0.10897919345E+03  0.10897919345E+03  0.00000000000E+00 0. -1.
         25    1    1    2    0    0 -0.16028482065E+03  0.12674327061E+03  0.19459430682E+03  0.30862116684E+03  0.12500000000E+03 0.  0.
         21    1    1    2  503  501  0.10648437812E+03 -0.14363253068E+03  0.12958942447E+03  0.22082265641E+03  0.00000000000E+00 0. -1.
          1    1    1    2  501    0  0.53800442525E+02  0.16889260065E+02  0.11885406842E+03  0.13155236334E+03  0.00000000000E+00 0. -1.
<mgrwt>
<rscale>  4 0.41858771E+03</rscale>
<asrwt>0</asrwt>
<pdfrwt beam="1">  1       21 0.84925689E-01 0.41858771E+03</pdfrwt>
<pdfrwt beam="2">  1        1 0.16766030E-01 0.41858771E+03</pdfrwt>
<totfact> 0.39420403E+03</totfact>
</mgrwt>
</event>
<event>
 5    0  0.3188794E-002  0.7462817E+03  0.7546771E-02  0.9641202E-01
          1   -1    0    0  503    0 -0.00000000000E+00  0.00000000000E+00  0.41426179586E+03  0.41426179586E+03  0.00000000000E+00 0.  1.
         21   -1    0    0  501  502  0.00000000000E+00 -0.00000000000E+00 -0.14649005436E+04  0.14649005436E+04  0.00000000000E+00 0.  1.
         25    1    1    2    0    0 -0.62301980464E+03  0.59132726090E+01 -0.66909824751E+02  0.63897618767E+03  0.12500000000E+03 0.  0.
         21    1    1    2  503  502  0.92054138622E+02 -0.57181394684E+02  0.13543027915E+02  0.10921121710E+03  0.00000000000E+00 0.  1.
          1    1    1    2  501    0  0.53096566602E+03  0.51268122075E+02 -0.99727195091E+03  0.11309749347E+04  0.00000000000E+00 0.  1.
<mgrwt>
<rscale>  4 0.74628170E+03</rscale>
<asrwt>0</asrwt>
<pdfrwt beam="1">  1       21 0.22536932E+00 0.74628170E+03</pdfrwt>
<pdfrwt beam="2">  1        1 0.63732584E-01 0.74628170E+03</pdfrwt>
<totfact> 0.45380689E+01</totfact>
</mgrwt>
</event>
<event>
 5    0  0.3188794E-002  0.4003035E+03  0.7546771E-02  0.1043675E+00
          1   -1    0    0  503    0 -0.00000000000E+00  0.00000000000E+00  0.10833345184E+04  0.10833345184E+04  0.00000000000E+00 0. -1.
         21   -1    0    0  501  502  0.00000000000E+00 -0.00000000000E+00 -0.18656310417E+03  0.18656310417E+03  0.00000000000E+00 0. -1.
         25    1    1    2    0    0  0.31655200498E+03 -0.92432777902E+02  0.75498897464E+03  0.83329607111E+03  0.12500000000E+03 0.  0.
         21    1    1    2  503  502  0.36833230001E+02 -0.13013200898E+02  0.35562619029E+02  0.52827361301E+02  0.00000000000E+00 0.  1.
          1    1    1    2  501    0 -0.35338523498E+03  0.10544597880E+03  0.10621982054E+03  0.38377419015E+03  0.00000000000E+00 0. -1.
<mgrwt>
<rscale>  4 0.40030353E+03</rscale>
<asrwt>0</asrwt>
<pdfrwt beam="1">  1       21 0.28702017E-01 0.40030353E+03</pdfrwt>
<pdfrwt beam="2">  1        1 0.16666685E+00 0.40030353E+03</pdfrwt>
<totfact> 0.16848122E+03</totfact>
</mgrwt>
</event>
<event>
 5    0  0.3188794E-002  0.4324776E+03  0.7546771E-02  0.1033080E+00
          1   -1    0    0  503    0 -0.00000000000E+00  0.00000000000E+00  0.53369687748E+03  0.53369687748E+03  0.00000000000E+00 0. -1.
         21   -1    0    0  501  502  0.00000000000E+00 -0.00000000000E+00 -0.21945234047E+03  0.21945234047E+03  0.00000000000E+00 0.  1.
         25    1    1    2    0    0  0.20182673232E+03  0.13387204231E+03  0.17628688798E+03  0.32458869430E+03  0.12500000000E+03 0.  0.
         21    1    1    2  503  502 -0.12671243159E+03  0.96689586494E+02  0.83886890184E+02  0.18011642568E+03  0.00000000000E+00 0.  1.
          1    1    1    2  501    0 -0.75114300739E+02 -0.23056162880E+03  0.54070758846E+02  0.24844409797E+03  0.00000000000E+00 0. -1.
<mgrwt>
<rscale>  4 0.43247759E+03</rscale>
<asrwt>0</asrwt>
<pdfrwt beam="1">  1       21 0.33761899E-01 0.43247759E+03</pdfrwt>
<pdfrwt beam="2">  1        1 0.82107211E-01 0.43247759E+03</pdfrwt>
<totfact> 0.36480239E+03</totfact>
</mgrwt>
</event>
<event>
 5    0  0.3188794E-002  0.4968768E+03  0.7546771E-02  0.1014597E+00
          2   -1    0    0  503    0 -0.00000000000E+00  0.00000000000E+00  0.65580965710E+03  0.65580965710E+03  0.00000000000E+00 0.  1.
         21   -1    0    0  501  502  0.00000000000E+00 -0.00000000000E+00 -0.44038652735E+03  0.44038652735E+03  0.00000000000E+00 0.  1.
         25    1    1    2    0    0 -0.16082924064E+03  0.18138017950E+03  0.13178880017E+03  0.30291599827E+03  0.12500000000E+03 0.  0.
         21    1    1    2  503  502  0.14118840028E+03 -0.38850041302E+01  0.40318897875E+03  0.42721260540E+03  0.00000000000E+00 0.  1.
          2    1    1    2  501    0  0.19640840353E+02 -0.17749517537E+03 -0.31955464916E+03  0.36606758077E+03  0.00000000000E+00 0.  1.
<mgrwt>
<rscale>  4 0.49687680E+03</rscale>
<asrwt>0</asrwt>
<pdfrwt beam="1">  1       21 0.67751773E-01 0.49687680E+03</pdfrwt>
<pdfrwt beam="2">  1        2 0.10089379E+00 0.49687680E+03</pdfrwt>
<totfact> 0.10288609E+03</totfact>
</mgrwt>
</event>
<event>
 5    0  0.3188794E-002  0.9191262E+03  0.7546771E-02  0.9401984E-01
          1   -1    0    0  503    0 -0.00000000000E+00  0.00000000000E+00  0.19071283960E+04  0.19071283960E+04  0.00000000000E+00 0. -1.
         21   -1    0    0  501  502  0.00000000000E+00 -0.00000000000E+00 -0.22985692734E+03  0.22985692734E+03  0.00000000000E+00 0. -1.
         25    1    1    2    0    0 -0.15752096928E+03  0.21411404977E+03  0.11486975418E+03  0.31540092343E+03  0.12500000000E+03 0.  0.
         21    1    1    2  503  502  0.14138397332E+03 -0.22630202414E+03  0.16806086130E+04  0.17016601729E+04  0.00000000000E+00 0. -1.
          1    1    1    2  501    0  0.16136995966E+02  0.12187974377E+02 -0.11820689852E+03  0.11992422698E+03  0.00000000000E+00 0. -1.
<mgrwt>
<rscale>  4 0.91912616E+03</rscale>
<asrwt>0</asrwt>
<pdfrwt beam="1">  1       21 0.35362605E-01 0.91912616E+03</pdfrwt>
<pdfrwt beam="2">  1        1 0.29340436E+00 0.91912616E+03</pdfrwt>
<totfact> 0.27080711E+02</totfact>
</mgrwt>
</event>
<event>
 5    0  0.3188794E-002  0.5240656E+03  0.7546771E-02  0.1007682E+00
         21   -1    0    0  501  502  0.00000000000E+00  0.00000000000E+00  0.17970865621E+03  0.17970865621E+03  0.00000000000E+00 0. -1.
          1   -1    0    0  503    0 -0.00000000000E+00 -0.00000000000E+00 -0.51334509947E+03  0.51334509947E+03  0.00000000000E+00 0.  1.
         25    1    1    2    0    0  0.15410504770E+03  0.14322229458E+03 -0.38661400709E+03  0.45755478565E+03  0.12500000000E+03 0.  0.
         21    1    1    2  503  502 -0.89853587852E+02 -0.94143084261E+02  0.76924570469E+02  0.15117531910E+03  0.00000000000E+00 0. -1.
          1    1    1    2  501    0 -0.64251459851E+02 -0.49079210316E+02 -0.23947006642E+02  0.84323650925E+02  0.00000000000E+00 0.  1.
<mgrwt>
<rscale>  4 0.52406564E+03</rscale>
<asrwt>0</asrwt>
<pdfrwt beam="1">  1       21 0.27647486E-01 0.52406564E+03</pdfrwt>
<pdfrwt beam="2">  1        1 0.78976167E-01 0.52406564E+03</pdfrwt>
<totfact> 0.56564708E+03</totfact>
</mgrwt>
</event>
<event>
 5    0  0.3188794E-002  0.4590077E+03  0.7546771E-02  0.1025069E+00
         21   -1    0    0  501  502  0.00000000000E+00  0.00000000000E+00  0.66528007637E+02  0.66528007637E+02  0.00000000000E+00 0.  1.
          2   -1    0    0  503    0 -0.00000000000E+00 -0.00000000000E+00 -0.89164426449E+03  0.89164426449E+03  0.00000000000E+00 0. -1.
         25    1    1    2    0    0  0.19678012173E+03 -0.10340025628E+03 -0.37461511490E+03  0.45318375259E+03  0.12500000000E+03 0.  0.
         21    1    1    2  503  502 -0.17443434942E+03  0.92722156475E+02 -0.42857016628E+03  0.47190796558E+03  0.00000000000E+00 0. -1.
          2    1    1    2  501    0 -0.22345772304E+02  0.10678099807E+02 -0.21930975681E+02  0.33080553950E+02  0.00000000000E+00 0. -1.
<mgrwt>
<rscale>  4 0.45900772E+03</rscale>
<asrwt>0</asrwt>
<pdfrwt beam="1">  1       21 0.10235079E-01 0.45900772E+03</pdfrwt>
<pdfrwt beam="2">  1        2 0.13717603E+00 0.45900772E+03</pdfrwt>
<totfact> 0.29422239E+04</totfact>
</mgrwt>
</event>
<event>
 5    0  0.3188794E-002  0.7063943E+03  0.7546771E-02  0.9706359E-01
         -3   -1    0    0    0  501 -0.00000000000E+00  0.00000000000E+00  0.29575985703E+03  0.29575985703E+03  0.00000000000E+00 0. -1.
         21   -1    0    0  503  502  0.00000000000E+00 -0.00000000000E+00 -0.55820850142E+03  0.55820850142E+03  0.00000000000E+00 0.  1.
         25    1    1    2    0    0 -0.33830093727E+03 -0.40227361053E+02 -0.28362825335E+03  0.46058196972E+03  0.12500000000E+03 0.  0.
         21    1    1    2  503  501  0.28325943544E+03 -0.47629321917E+02  0.32622485140E+02  0.28908249101E+03  0.00000000000E+00 0. -1.
         -3    1    1    2    0  502  0.55041501824E+02  0.87856682970E+02 -0.11442876188E+02  0.10430389773E+03  0.00000000000E+00 0. -1.
<mgrwt>
<rscale>  4 0.70639430E+03</rscale>
<asrwt>0</asrwt>
<pdfrwt beam="1">  1       21 0.85878230E-01 0.70639430E+03</pdfrwt>
<pdfrwt beam="2">  1       -3 0.45501517E-01 0.70639430E+03</pdfrwt>
<totfact> 0.25658133E+02</totfact>
</mgrwt>
</event>
<event>
 5    0  0.3188794E-002  0.7088877E+03  0.7546771E-02  0.9702153E-01
          2   -1    0    0  503    0 -0.00000000000E+00  0.00000000000E+00  0.13321274430E+04  0.13321274430E+04  0.00000000000E+00 0.  1.
         21   -1    0    0  501  502  0.00000000000E+00 -0.00000000000E+00 -0.25712015822E+03  0.25712015822E+03  0.00000000000E+00 0.  1.
         25    1    1    2    0    0 -0.68593288049E+02 -0.29415263839E+03  0.35343920251E+03  0.48143024802E+03  0.12500000000E+03 0.  0.
         21    1    1    2  503  502 -0.25464553407E+03  0.25954267524E+03  0.69159555535E+03  0.78135213602E+03  0.00000000000E+00 0.  1.
          2    1    1    2  501    0  0.32323882212E+03  0.34609963153E+02  0.29972526948E+02  0.32646521721E+03  0.00000000000E+00 0.  1.
<mgrwt>
<rscale>  4 0.70888765E+03</rscale>
<asrwt>0</asrwt>
<pdfrwt beam="1">  1       21 0.39556948E-01 0.70888765E+03</pdfrwt>
<pdfrwt beam="2">  1        2 0.20494268E+00 0.70888765E+03</pdfrwt>
<totfact> 0.11425825E+03</totfact>
</mgrwt>
</event>
<event>
 5    0  0.3188794E-002  0.4822943E+03  0.7546771E-02  0.1018507E+00
         21   -1    0    0  501  502  0.00000000000E+00  0.00000000000E+00  0.23118366507E+03  0.23118366507E+03  0.00000000000E+00 0. -1.
          2   -1    0    0  503    0 -0.00000000000E+00 -0.00000000000E+00 -0.12736093486E+04  0.12736093486E+04  0.00000000000E+00 0. -1.
         25    1    1    2    0    0  0.20062699354E+03  0.23319872189E+03 -0.83691635752E+03  0.90038148799E+03  0.12500000000E+03 0.  0.
         21    1    1    2  503  502  0.33054906022E+02  0.11849453635E+03 -0.12341428894E+03  0.17425460875E+03  0.00000000000E+00 0.  1.
          2    1    1    2  501    0 -0.23368189956E+03 -0.35169325824E+03 -0.82095037085E+02  0.43015691693E+03  0.00000000000E+00 0. -1.
<mgrwt>
<rscale>  4 0.48229430E+03</rscale>
<asrwt>0</asrwt>
<pdfrwt beam="1">  1       21 0.35566718E-01 0.48229430E+03</pdfrwt>
<pdfrwt beam="2">  1        2 0.19593990E+00 0.48229430E+03</pdfrwt>
<totfact> 0.16018347E+03</totfact>
</mgrwt>
</event>
<event>
 5    0  0.3188794E-002  0.3927448E+03  0.7546771E-02  0.1046321E+00
         21   -1    0    0  503  502  0.00000000000E+00  0.00000000000E+00  0.84955578342E+02  0.84955578342E+02  0.00000000000E+00 0.  1.
          1   -1    0    0  502    0 -0.00000000000E+00 -0.00000000000E+00 -0.80351136378E+03  0.80351136378E+03  0.00000000000E+00 0. -1.
         25    1    1    2    0    0  0.36200778221E+02 -0.21226309711E+03 -0.28350959788E+03  0.37731791745E+03  0.12500000000E+03 0.  0.
         21    1    1    2  503  501  0.59529177460E+02  0.12605335417E+03 -0.23352323221E+03  0.27196740806E+03  0.00000000000E+00 0. -1.
          1    1    1    2  501    0 -0.95729955682E+02  0.86209742938E+02 -0.20152295535E+03  0.23918161661E+03  0.00000000000E+00 0. -1.
<mgrwt>
<rscale>  4 0.39274481E+03</rscale>
<asrwt>0</asrwt>
<pdfrwt beam="1">  1       21 0.13070088E-01 0.39274481E+03</pdfrwt>
<pdfrwt beam="2">  1        1 0.12361714E+00 0.39274481E+03</pdfrwt>
<totfact> 0.12416565E+04</totfact>
</mgrwt>
</event>
<event>
 5    0  0.3188794E-002  0.6638832E+03  0.7546771E-02  0.9781072E-01
         -2   -1    0    0    0  501 -0.00000000000E+00  0.00000000000E+00  0.53369214120E+03  0.53369214120E+03  0.00000000000E+00 0. -1.
         21   -1    0    0  503  502  0.00000000000E+00 -0.00000000000E+00 -0.76583305715E+03  0.76583305715E+03  0.00000000000E+00 0.  1.
         25    1    1    2    0    0  0.26771090610E+03  0.19618813054E+03  0.25375742169E+02  0.35556692774E+03  0.12500000000E+03 0.  0.
         21    1    1    2  503  501  0.34023315429E+02  0.30633584529E+03 -0.11966790858E+02  0.30845168210E+03  0.00000000000E+00 0.  1.
         -2    1    1    2    0  502 -0.30173422153E+03 -0.50252397583E+03 -0.24554986727E+03  0.63550658851E+03  0.00000000000E+00 0. -1.
<mgrwt>
<rscale>  4 0.66388321E+03</rscale>
<asrwt>0</asrwt>
<pdfrwt beam="1">  1       21 0.11782047E+00 0.66388321E+03</pdfrwt>
<pdfrwt beam="2">  1       -2 0.82106483E-01 0.66388321E+03</pdfrwt>
<totfact> 0.51301441E+01</totfact>
</mgrwt>
</event>
<event>
 5    0  0.3188794E-002  0.4518163E+03  0.7546771E-02  0.1027182E+00
         21   -1    0    0  501  502  0.00000000000E+00  0.00000000000E+00  0.22397345945E+02  0.22397345945E+02  0.00000000000E+00 0. -1.
          2   -1    0    0  503    0 -0.00000000000E+00 -0.00000000000E+00 -0.31173861751E+04  0.31173861751E+04  0.00000000000E+00 0.  1.
         25    1    1    2    0    0  0.20406287252E+03 -0.16290240385E+02 -0.11264029947E+04  0.11516578200E+04  0.12500000000E+03 0.  0.
         21    1    1    2  503  502 -0.17222661007E+03  0.69564711703E+02 -0.17783092457E+04  0.17879835087E+04  0.00000000000E+00 0. -1.
          2    1    1    2  501    0 -0.31836262449E+02 -0.53274471318E+02 -0.19027658879E+03  0.20014219231E+03  0.00000000000E+00 0.  1.
<mgrwt>
<rscale>  4 0.45181627E+03</rscale>
<asrwt>0</asrwt>
<pdfrwt beam="1">  1       21 0.34457434E-02 0.45181627E+03</pdfrwt>
<pdfrwt beam="2">  1        2 0.47959817E+00 0.45181627E+03</pdfrwt>
<totfact> 0.10770189E+04</totfact>
</mgrwt>
</event>
<event>
 5    0  0.3188794E-002  0.4427089E+03  0.7546771E-02  0.1029919E+00
         21   -1    0    0  503  502  0.00000000000E+00  0.00000000000E+00  0.24070870750E+03  0.24070870750E+03  0.00000000000E+00 0. -1.
         -1   -1    0    0    0  501 -0.00000000000E+00 -0.00000000000E+00 -0.52732297690E+03  0.52732297690E+03  0.00000000000E+00 0.  1.
         25    1    1    2    0    0 -0.30401017566E+03  0.30851949079E+02 -0.13888348567E+03  0.35817265705E+03  0.12500000000E+03 0.  0.
         21    1    1    2  503  501  0.66557228645E+02 -0.42232882895E+02 -0.15295969370E+03  0.17207599769E+03  0.00000000000E+00 0.  1.
         -1    1    1    2    0  502  0.23745294701E+03  0.11380933816E+02  0.52289099655E+01  0.23778302967E+03  0.00000000000E+00 0.  1.
<mgrwt>
<rscale>  4 0.44270893E+03</rscale>
<asrwt>0</asrwt>
<pdfrwt beam="1">  1       21 0.37032109E-01 0.44270893E+03</pdfrwt>
<pdfrwt beam="2">  1       -1 0.81126611E-01 0.44270893E+03</pdfrwt>
<totfact> 0.97303414E+02</totfact>
</mgrwt>
</event>
<event>
 5    0  0.3188794E-002  0.3517686E+03  0.7546771E-02  0.1061891E+00
          2   -1    0    0  502    0 -0.00000000000E+00  0.00000000000E+00  0.68891034707E+03  0.68891034707E+03  0.00000000000E+00 0. -1.
         21   -1    0    0  503  502  0.00000000000E+00 -0.00000000000E+00 -0.15322162770E+03  0.15322162770E+03  0.00000000000E+00 0. -1.
         25    1    1    2    0    0  0.77677020174E+02 -0.26227570433E+03  0.42005725351E+03  0.51661916416E+03  0.12500000000E+03 0.  0.
         21    1    1    2  503  501  0.26112827786E+02  0.43134114088E+02  0.56894619484E+02  0.76022557832E+02  0.00000000000E+00 0.  1.
          2    1    1    2  501    0 -0.10378984796E+03  0.21914159024E+03  0.58736846364E+02  0.24949025278E+03  0.00000000000E+00 0. -1.
<mgrwt>
<rscale>  4 0.35176856E+03</rscale>
<asrwt>0</asrwt>
<pdfrwt beam="1">  1       21 0.23572559E-01 0.35176856E+03</pdfrwt>
<pdfrwt beam="2">  1        2 0.10598621E+00 0.35176856E+03</pdfrwt>
<totfact> 0.88201709E+03</totfact>
</mgrwt>
</event>
<event>
 5    0  0.3188794E-002  0.3857270E+03  0.7546771E-02  0.1048837E+00
         21   -1    0    0  501  502  0.00000000000E+00  0.00000000000E+00  0.48692049363E+03  0.48692049363E+03  0.00000000000E+00 0. -1.
          2   -1    0    0  503    0 -0.00000000000E+00 -0.00000000000E+00 -0.65905044000E+03  0.65905044000E+03  0.00000000000E+00 0. -1.
         25    1    1    2    0    0 -0.84537803795E+02  0.19080053957E+03 -0.58446434508E+03  0.63306797173E+03  0.12500000000E+03 0.  0.
         21    1    1    2  503  502 -0.19002583527E+02 -0.65697599257E+02 -0.14366473487E+01  0.68405677282E+02  0.00000000000E+00 0.  1.
          2    1    1    2  501    0  0.10354038732E+03 -0.12510294031E+03  0.41377104605E+03  0.44449728462E+03  0.00000000000E+00 0. -1.
<mgrwt>
<rscale>  4 0.38572699E+03</rscale>
<asrwt>0</asrwt>
<pdfrwt beam="1">  1       21 0.74910846E-01 0.38572699E+03</pdfrwt>
<pdfrwt beam="2">  1        2 0.10139237E+00 0.38572699E+03</pdfrwt>
<totfact> 0.83778603E+02</totfact>
</mgrwt>
</event>
<event>
 5    0  0.3188794E-002  0.3365347E+03  0.7546771E-02  0.1068281E+00
         -1   -1    0    0    0  501 -0.00000000000E+00  0.00000000000E+00  0.28104942256E+03  0.28104942256E+03  0.00000000000E+00 0.  1.
         21   -1    0    0  501  502  0.00000000000E+00 -0.00000000000E+00 -0.22966692535E+03  0.22966692535E+03  0.00000000000E+00 0. -1.
         25    1    1    2    0    0 -0.20723975961E+03 -0.71835502595E+02  0.10512072740E+03  0.27346667937E+03  0.12500000000E+03 0.  0.
         21    1    1    2  503  502  0.63409460613E+02 -0.81916529017E+01 -0.31120400948E+02  0.71107961774E+02  0.00000000000E+00 0. -1.
         -1    1    1    2    0  503  0.14383029900E+03  0.80027155497E+02 -0.22617829242E+02  0.16614170676E+03  0.00000000000E+00 0.  1.
<mgrwt>
<rscale>  4 0.33653475E+03</rscale>
<asrwt>0</asrwt>
<pdfrwt beam="1">  1       21 0.35333373E-01 0.33653475E+03</pdfrwt>
<pdfrwt beam="2">  1       -1 0.43238373E-01 0.33653475E+03</pdfrwt>
<totfact> 0.37107427E+03</totfact>
</mgrwt>
</event>
<event>
 5    0  0.3188794E-002  0.4702760E+03  0.7546771E-02  0.1021842E+00
         21   -1    0    0  501  502  0.00000000000E+00  0.00000000000E+00  0.24859034366E+03  0.24859034366E+03  0.00000000000E+00 0.  1.
          1   -1    0    0  503    0 -0.00000000000E+00 -0.00000000000E+00 -0.79361723579E+03  0.79361723579E+03  0.00000000000E+00 0.  1.
         25    1    1    2    0    0 -0.18886832467E+03 -0.19062956119E+03 -0.42872409549E+03  0.52099925501E+03  0.12500000000E+03 0.  0.
         21    1    1    2  503  502  0.16229545922E+03  0.62969381096E+02 -0.26899714787E+03  0.32041289706E+03  0.00000000000E+00 0. -1.
          1    1    1    2  501    0  0.26572865452E+02  0.12766018010E+03  0.15269435123E+03  0.20079542739E+03  0.00000000000E+00 0.  1.
<mgrwt>
<rscale>  4 0.47027596E+03</rscale>
<asrwt>0</asrwt>
<pdfrwt beam="1">  1       21 0.38244668E-01 0.47027596E+03</pdfrwt>
<pdfrwt beam="2">  1        1 0.12209496E+00 0.47027596E+03</pdfrwt>
<totfact> 0.15765517E+03</totfact>
</mgrwt>
</event>
<event>
 5    0  0.3188794E-002  0.5650469E+03  0.7546771E-02  0.9980699E-01
         21   -1    0    0  501  502  0.00000000000E+00  0.00000000000E+00  0.14059462825E+03  0.14059462825E+03  0.00000000000E+00 0. -1.
          1   -1    0    0  503    0 -0.00000000000E+00 -0.00000000000E+00 -0.61813589593E+03  0.61813589593E+03  0.00000000000E+00 0.  1.
         25    1    1    2    0    0 -0.76653606628E+01 -0.22262033647E+03 -0.41311458805E+03  0.48570282562E+03  0.12500000000E+03 0.  0.
         21    1    1    2  503  502 -0.11081044260E+02  0.23831232989E+03 -0.47393452931E+02  0.24323177321E+03  0.00000000000E+00 0. -1.
          1    1    1    2  501    0  0.18746404923E+02 -0.15691993419E+02 -0.17033226699E+02  0.29795925339E+02  0.00000000000E+00 0.  1.
<mgrwt>
<rscale>  4 0.56504690E+03</rscale>
<asrwt>0</asrwt>
<pdfrwt beam="1">  1       21 0.21629943E-01 0.56504690E+03</pdfrwt>
<pdfrwt beam="2">  1        1 0.95097829E-01 0.56504690E+03</pdfrwt>
<totfact> 0.70016994E+03</totfact>
</mgrwt>
</event>
<event>
 5    0  0.3188794E-002  0.4015087E+03  0.7546771E-02  0.1043259E+00
          2   -1    0    0  503    0 -0.00000000000E+00  0.00000000000E+00  0.61327683597E+03  0.61327683597E+03  0.00000000000E+00 0.  1.
         21   -1    0    0  501  502  0.00000000000E+00 -0.00000000000E+00 -0.12343892506E+03  0.12343892506E+03  0.00000000000E+00 0. -1.
         25    1    1    2    0    0  0.17395628090E+03 -0.13790989351E+03  0.40633611002E+03  0.47959770715E+03  0.12500000000E+03 0.  0.
         21    1    1    2  503  502 -0.42650243763E+02  0.84023853439E+02  0.37274151882E+01  0.94302411760E+02  0.00000000000E+00 0. -1.
          2    1    1    2  501    0 -0.13130603714E+03  0.53886040071E+02  0.79774385695E+02  0.16281564212E+03  0.00000000000E+00 0.  1.
<mgrwt>
<rscale>  4 0.40150872E+03</rscale>
<asrwt>0</asrwt>
<pdfrwt beam="1">  1       21 0.18990604E-01 0.40150872E+03</pdfrwt>
<pdfrwt beam="2">  1        2 0.94350281E-01 0.40150872E+03</pdfrwt>
<totfact> 0.15219586E+04</totfact>
</mgrwt>
</event>
<event>
 5    0  0.3188794E-002  0.7914059E+03  0.7546771E-02  0.9572541E-01
          1   -1    0    0  503    0 -0.00000000000E+00  0.00000000000E+00  0.58946352014E+03  0.58946352014E+03  0.00000000000E+00 0.  1.
         21   -1    0    0  501  502  0.00000000000E+00 -0.00000000000E+00 -0.36475842646E+03  0.36475842646E+03  0.00000000000E+00 0. -1.
         25    1    1    2    0    0 -0.30798642081E+03 -0.10563870180E+03 -0.81124367207E+02  0.35808006601E+03  0.12500000000E+03 0.  0.
         21    1    1    2  503  502  0.25543531481E+03  0.17913830628E+03  0.37099342313E+03  0.48474101625E+03  0.00000000000E+00 0.  1.
          1    1    1    2  501    0  0.52551105998E+02 -0.73499604478E+02 -0.65163962251E+02  0.11140086434E+03  0.00000000000E+00 0.  1.
<mgrwt>
<rscale>  4 0.79140591E+03</rscale>
<asrwt>0</asrwt>
<pdfrwt beam="1">  1       21 0.56116681E-01 0.79140591E+03</pdfrwt>
<pdfrwt beam="2">  1        1 0.90686695E-01 0.79140591E+03</pdfrwt>
<totfact> 0.10378625E+03</totfact>
</mgrwt>
</event>
<event>
 5    0  0.3188794E-002  0.3111145E+03  0.7546771E-02  0.1079813E+00
          2   -1    0    0  503    0 -0.00000000000E+00  0.00000000000E+00  0.17695969154E+04  0.17695969154E+04  0.00000000000E+00 0.  1.
         21   -1    0    0  501  502  0.00000000000E+00 -0.00000000000E+00 -0.46628726150E+02  0.46628726150E+02  0.00000000000E+00 0. -1.
         25    1    1    2    0    0  0.17693192487E+03  0.18344763125E+03  0.72268947779E+03  0.77644254182E+03  0.12500000000E+03 0.  0.
         21    1    1    2  503  502 -0.13762096907E+02  0.18477663973E+02  0.11194669458E+03  0.11429296481E+03  0.00000000000E+00 0.  1.
          2    1    1    2  501    0 -0.16316982797E+03 -0.20192529522E+03  0.88833201684E+03  0.92549013488E+03  0.00000000000E+00 0.  1.
<mgrwt>
<rscale>  4 0.31111445E+03</rscale>
<asrwt>0</asrwt>
<pdfrwt beam="1">  1       21 0.71736515E-02 0.31111445E+03</pdfrwt>
<pdfrwt beam="2">  1        2 0.27224563E+00 0.31111445E+03</pdfrwt>
<totfact> 0.17808204E+04</totfact>
</mgrwt>
</event>
<event>
 5    0  0.3188794E-002  0.3864810E+03  0.7546771E-02  0.1048564E+00
         21   -1    0    0  501  502  0.00000000000E+00  0.00000000000E+00  0.38168289116E+03  0.38168289116E+03  0.00000000000E+00 0.  1.
         -1   -1    0    0    0  501 -0.00000000000E+00 -0.00000000000E+00 -0.16042892755E+03  0.16042892755E+03  0.00000000000E+00 0. -1.
         25    1    1    2    0    0  0.18148111080E+03 -0.12107298176E+03  0.42302143109E+02  0.25496770737E+03  0.12500000000E+03 0.  0.
         21    1    1    2  503  502 -0.83510105721E+02  0.76633694814E+02  0.11747246163E+03  0.16323737372E+03  0.00000000000E+00 0. -1.
         -1    1    1    2    0  503 -0.97971005082E+02  0.44439286944E+02  0.61479358875E+02  0.12390673762E+03  0.00000000000E+00 0. -1.
<mgrwt>
<rscale>  4 0.38648100E+03</rscale>
<asrwt>0</asrwt>
<pdfrwt beam="1">  1       21 0.58720445E-01 0.38648100E+03</pdfrwt>
<pdfrwt beam="2">  1       -1 0.24681374E-01 0.38648100E+03</pdfrwt>
<totfact> 0.33811360E+03</totfact>
</mgrwt>
</event>
<event>
 5    0  0.3188794E-002  0.6079898E+03  0.7546771E-02  0.9888967E-01
         21   -1    0    0  501  502  0.00000000000E+00  0.00000000000E+00  0.67655392033E+02  0.67655392033E+02  0.00000000000E+00 0.  1.
          1   -1    0    0  503    0 -0.00000000000E+00 -0.00000000000E+00 -0.18875434015E+04  0.18875434015E+04  0.00000000000E+00 0. -1.
         25    1    1    2    0    0 -0.27124384326E+03 -0.14904226361E+03 -0.10315357733E+04  0.10841945722E+04  0.12500000000E+03 0.  0.
         21    1    1    2  503  502  0.26381325016E+03  0.49888631220E+02 -0.61712888856E+03  0.67300399076E+03  0.00000000000E+00 0.  1.
          1    1    1    2  501    0  0.74305930977E+01  0.99153632386E+02 -0.17122334757E+03  0.19800023051E+03  0.00000000000E+00 0. -1.
<mgrwt>
<rscale>  4 0.60798982E+03</rscale>
<asrwt>0</asrwt>
<pdfrwt beam="1">  1       21 0.10408521E-01 0.60798982E+03</pdfrwt>
<pdfrwt beam="2">  1        1 0.29039132E+00 0.60798982E+03</pdfrwt>
<totfact> 0.30748635E+03</totfact>
</mgrwt>
</event>
<event>
 5    0  0.3188794E-002  0.4143182E+03  0.7546771E-02  0.1038932E+00
          1   -1    0    0  503    0 -0.00000000000E+00  0.00000000000E+00  0.20327956597E+04  0.20327956597E+04  0.00000000000E+00 0.  1.
         21   -1    0    0  501  502  0.00000000000E+00 -0.00000000000E+00 -0.50204310282E+02  0.50204310282E+02  0.00000000000E+00 0.  1.
         25    1    1    2    0    0  0.78295936608E+02 -0.20278908145E+03  0.11801051696E+04  0.12064521858E+04  0.12500000000E+03 0.  0.
         21    1    1    2  503  502 -0.13490381737E+03 -0.60158080832E+01  0.27310400570E+03  0.30466543587E+03  0.00000000000E+00 0. -1.
          1    1    1    2  501    0  0.56607880759E+02  0.20880488953E+03  0.52938217408E+03  0.57188234829E+03  0.00000000000E+00 0.  1.
<mgrwt>
<rscale>  4 0.41431819E+03</rscale>
<asrwt>0</asrwt>
<pdfrwt beam="1">  1       21 0.77237416E-02 0.41431819E+03</pdfrwt>
<pdfrwt beam="2">  1        1 0.31273773E+00 0.41431819E+03</pdfrwt>
<totfact> 0.43633064E+03</totfact>
</mgrwt>
</event>
<event>
 5    0  0.3188794E-002  0.4822766E+03  0.7546771E-02  0.1018511E+00
         21   -1    0    0  503  502  0.00000000000E+00  0.00000000000E+00  0.14458534401E+03  0.14458534401E+03  0.00000000000E+00 0. -1.
         -4   -1    0    0    0  501 -0.00000000000E+00 -0.00000000000E+00 -0.61782439235E+03  0.61782439235E+03  0.00000000000E+00 0.  1.
         25    1    1    2    0    0  0.92482922181E+02 -0.21391092004E+03 -0.35685231701E+03  0.44416162460E+03  0.12500000000E+03 0.  0.
         21    1    1    2  503  501 -0.78701965152E+02  0.19353981933E+03 -0.16336813345E+03  0.26521841568E+03  0.00000000000E+00 0. -1.
         -4    1    1    2    0  502 -0.13780957029E+02  0.20371100708E+02  0.46981402127E+02  0.53029696081E+02  0.00000000000E+00 0.  1.
<mgrwt>
<rscale>  4 0.48227661E+03</rscale>
<asrwt>0</asrwt>
<pdfrwt beam="1">  1       21 0.22243899E-01 0.48227661E+03</pdfrwt>
<pdfrwt beam="2">  1       -4 0.95049907E-01 0.48227661E+03</pdfrwt>
<totfact> 0.75804630E+02</totfact>
</mgrwt>
</event>
<event>
 5    0  0.3188794E-002  0.4454777E+03  0.7546771E-02  0.1029079E+00
          2   -1    0    0  503    0 -0.00000000000E+00  0.00000000000E+00  0.82976850194E+03  0.82976850194E+03  0.00000000000E+00 0. -1.
         21   -1    0    0  501  502  0.00000000000E+00 -0.00000000000E+00 -0.16543161045E+03  0.16543161045E+03  0.00000000000E+00 0. -1.
         25    1    1    2    0    0 -0.21704418391E+03 -0.61752144668E+02  0.58968428415E+03  0.64364125109E+03  0.12500000000E+03 0.  0.
         21    1    1    2  503  502  0.16159769335E+03  0.34724368136E+02  0.17057246313E+03  0.23751749708E+03  0.00000000000E+00 0.  1.
          2    1    1    2  501    0  0.55446490557E+02  0.27027776532E+02 -0.95919855791E+02  0.11404136422E+03  0.00000000000E+00 0. -1.
<mgrwt>
<rscale>  4 0.44547774E+03</rscale>
<asrwt>0</asrwt>
<pdfrwt beam="1">  1       21 0.25451018E-01 0.44547774E+03</pdfrwt>
<pdfrwt beam="2">  1        2 0.12765669E+00 0.44547774E+03</pdfrwt>
<totfact> 0.59107573E+03</totfact>
</mgrwt>
</event>
<event>
 5    0  0.3188794E-002  0.5494552E+03  0.7546771E-02  0.1001620E+00
         21   -1    0    0  501  502  0.00000000000E+00  0.00000000000E+00  0.59361313927E+03  0.59361313927E+03  0.00000000000E+00 0.  1.
          2   -1    0    0  503    0 -0.00000000000E+00 -0.00000000000E+00 -0.33904943045E+03  0.33904943045E+03  0.00000000000E+00 0. -1.
         25    1    1    2    0    0  0.17947066158E+03 -0.24340932219E+03 -0.14548909162E+03  0.35811994119E+03  0.12500000000E+03 0.  0.
         21    1    1    2  503  502 -0.17033568743E+03  0.80375630010E+02  0.60596736901E+02  0.19785462550E+03  0.00000000000E+00 0.  1.
          2    1    1    2  501    0 -0.91349741573E+01  0.16303369219E+03  0.33945606355E+03  0.37668800302E+03  0.00000000000E+00 0. -1.
<mgrwt>
<rscale>  4 0.54945519E+03</rscale>
<asrwt>0</asrwt>
<pdfrwt beam="1">  1       21 0.91325098E-01 0.54945519E+03</pdfrwt>
<pdfrwt beam="2">  1        2 0.52161451E-01 0.54945519E+03</pdfrwt>
<totfact> 0.10880585E+03</totfact>
</mgrwt>
</event>
<event>
 5    0  0.3188794E-002  0.4567861E+03  0.7546771E-02  0.1025717E+00
         21   -1    0    0  501  502  0.00000000000E+00  0.00000000000E+00  0.13094961914E+03  0.13094961914E+03  0.00000000000E+00 0. -1.
          2   -1    0    0  503    0 -0.00000000000E+00 -0.00000000000E+00 -0.74788025695E+03  0.74788025695E+03  0.00000000000E+00 0.  1.
         25    1    1    2    0    0 -0.18722149333E+02 -0.20672074444E+03 -0.34788595212E+03  0.42395002151E+03  0.12500000000E+03 0.  0.
         21    1    1    2  503  502 -0.18031988794E+00  0.21432137771E+03 -0.32838716844E+03  0.39213749866E+03  0.00000000000E+00 0. -1.
          2    1    1    2  501    0  0.18902469221E+02 -0.76006332708E+01  0.59342482740E+02  0.62742355921E+02  0.00000000000E+00 0.  1.
<mgrwt>
<rscale>  4 0.45678606E+03</rscale>
<asrwt>0</asrwt>
<pdfrwt beam="1">  1       21 0.20146095E-01 0.45678606E+03</pdfrwt>
<pdfrwt beam="2">  1        2 0.11505850E+00 0.45678606E+03</pdfrwt>
<totfact> 0.10592378E+04</totfact>
</mgrwt>
</event>
<event>
 5    0  0.3188794E-002  0.6299707E+03  0.7546771E-02  0.9845106E-01
          2   -1    0    0  503    0 -0.00000000000E+00  0.00000000000E+00  0.33603707086E+03  0.33603707086E+03  0.00000000000E+00 0.  1.
         21   -1    0    0  501  502  0.00000000000E+00 -0.00000000000E+00 -0.45390081182E+03  0.45390081182E+03  0.00000000000E+00 0. -1.
         25    1    1    2    0    0 -0.24492379897E+03  0.53917737399E+02  0.13447634937E+03  0.31081132259E+03  0.12500000000E+03 0.  0.
         21    1    1    2  503  502  0.28807621274E+03  0.41102888648E+02 -0.13111476133E+03  0.31916834499E+03  0.00000000000E+00 0. -1.
          2    1    1    2  501    0 -0.43152413773E+02 -0.95020626047E+02 -0.12122532900E+03  0.15995821511E+03  0.00000000000E+00 0.  1.
<mgrwt>
<rscale>  4 0.62997070E+03</rscale>
<asrwt>0</asrwt>
<pdfrwt beam="1">  1       21 0.69830894E-01 0.62997070E+03</pdfrwt>
<pdfrwt beam="2">  1        2 0.51698011E-01 0.62997070E+03</pdfrwt>
<totfact> 0.20259437E+03</totfact>
</mgrwt>
</event>
<event>
 5    0  0.3188794E-002  0.6803381E+03  0.7546771E-02  0.9751460E-01
         21   -1    0    0  501  502  0.00000000000E+00  0.00000000000E+00  0.31143191070E+04  0.31143191070E+04  0.00000000000E+00 0.  1.
          2   -1    0    0  503    0 -0.00000000000E+00 -0.00000000000E+00 -0.91459586858E+02  0.91459586858E+02  0.00000000000E+00 0. -1.
         25    1    1    2    0    0  0.32951895738E+03 -0.10584050749E+03  0.11700453574E+04  0.12265464095E+04  0.12500000000E+03 0.  0.
         21    1    1    2  503  502 -0.17351482390E+03 -0.22594974751E+03  0.47881199641E+03  0.55715492497E+03  0.00000000000E+00 0. -1.
          2    1    1    2  501    0 -0.15600413348E+03  0.33179025501E+03  0.13740021664E+04  0.14220773594E+04  0.00000000000E+00 0. -1.
<mgrwt>
<rscale>  4 0.68033806E+03</rscale>
<asrwt>0</asrwt>
<pdfrwt beam="1">  1       21 0.47912594E+00 0.68033806E+03</pdfrwt>
<pdfrwt beam="2">  1        2 0.14070708E-01 0.68033806E+03</pdfrwt>
<totfact> 0.93878053E+00</totfact>
</mgrwt>
</event>
<event>
 5    0  0.3188794E-002  0.4911429E+03  0.7546771E-02  0.1016117E+00
         21   -1    0    0  501  502  0.00000000000E+00  0.00000000000E+00  0.58166056523E+02  0.58166056523E+02  0.00000000000E+00 0.  1.
          2   -1    0    0  503    0 -0.00000000000E+00 -0.00000000000E+00 -0.16301458045E+04  0.16301458045E+04  0.00000000000E+00 0. -1.
         25    1    1    2    0    0  0.25187281267E+03 -0.69221728837E+02 -0.92204717512E+03  0.96645100996E+03  0.12500000000E+03 0.  0.
         21    1    1    2  503  502 -0.20084276946E+03  0.13113520574E+02 -0.59525908694E+03  0.62836546934E+03  0.00000000000E+00 0. -1.
          2    1    1    2  501    0 -0.51030043202E+02  0.56108208263E+02 -0.54673485932E+02  0.93495381745E+02  0.00000000000E+00 0. -1.
<mgrwt>
<rscale>  4 0.49114286E+03</rscale>
<asrwt>0</asrwt>
<pdfrwt beam="1">  1       21 0.89486231E-02 0.49114286E+03</pdfrwt>
<pdfrwt beam="2">  1        2 0.25079169E+00 0.49114286E+03</pdfrwt>
<totfact> 0.13852790E+04</totfact>
</mgrwt>
</event>
<event>
 5    0  0.3188794E-002  0.6454454E+03  0.7546771E-02  0.9815363E-01
         21   -1    0    0  501  502  0.00000000000E+00  0.00000000000E+00  0.11098350968E+03  0.11098350968E+03  0.00000000000E+00 0.  1.
          1   -1    0    0  503    0 -0.00000000000E+00 -0.00000000000E+00 -0.11352219951E+04  0.11352219951E+04  0.00000000000E+00 0. -1.
         25    1    1    2    0    0 -0.97352588179E+02 -0.20655570437E+03 -0.91236837477E+03  0.94878018356E+03  0.12500000000E+03 0.  0.
         21    1    1    2  503  502  0.68080467420E+02  0.22676272649E+03 -0.11185816323E+03  0.26185593912E+03  0.00000000000E+00 0.  1.
          1    1    1    2  501    0  0.29272120759E+02 -0.20207022128E+02 -0.11947372860E-01  0.35569382054E+02  0.00000000000E+00 0. -1.
<mgrwt>
<rscale>  4 0.64544544E+03</rscale>
<asrwt>0</asrwt>
<pdfrwt beam="1">  1       21 0.17074385E-01 0.64544544E+03</pdfrwt>
<pdfrwt beam="2">  1        1 0.17464955E+00 0.64544544E+03</pdfrwt>
<totfact> 0.40213928E+03</totfact>
</mgrwt>
</event>
<event>
 5    0  0.3188794E-002  0.8859795E+03  0.7546771E-02  0.9443279E-01
          2   -1    0    0  503    0 -0.00000000000E+00  0.00000000000E+00  0.18631470981E+04  0.18631470981E+04  0.00000000000E+00 0. -1.
         21   -1    0    0  501  502  0.00000000000E+00 -0.00000000000E+00 -0.49882746133E+03  0.49882746133E+03  0.00000000000E+00 0. -1.
         25    1    1    2    0    0 -0.16143807928E+02 -0.44325559329E+03  0.10290678249E+04  0.11275379070E+04  0.12500000000E+03 0.  0.
         21    1    1    2  503  502  0.15519399282E+02  0.41932828511E+03  0.72836758134E+03  0.84059288362E+03  0.00000000000E+00 0.  1.
          2    1    1    2  501    0  0.62440864529E+00  0.23927308182E+02 -0.39311576950E+03  0.39384376876E+03  0.00000000000E+00 0. -1.
<mgrwt>
<rscale>  4 0.88597946E+03</rscale>
<asrwt>0</asrwt>
<pdfrwt beam="1">  1       21 0.76742687E-01 0.88597946E+03</pdfrwt>
<pdfrwt beam="2">  1        2 0.28663801E+00 0.88597946E+03</pdfrwt>
<totfact> 0.13156650E+02</totfact>
</mgrwt>
</event>
<event>
 5    0  0.3188794E-002  0.4752676E+03  0.7546771E-02  0.1020444E+00
         -2   -1    0    0    0  501 -0.00000000000E+00  0.00000000000E+00  0.80068861968E+03  0.80068861968E+03  0.00000000000E+00 0.  1.
         21   -1    0    0  503  502  0.00000000000E+00 -0.00000000000E+00 -0.14527836217E+03  0.14527836217E+03  0.00000000000E+00 0.  1.
         25    1    1    2    0    0 -0.20618972414E+03  0.95913775414E+02  0.36585411151E+03  0.44853972573E+03  0.12500000000E+03 0.  0.
         21    1    1    2  503  501  0.20021142209E+03 -0.76675285366E+02  0.36282844935E+03  0.42143587481E+03  0.00000000000E+00 0. -1.
         -2    1    1    2    0  502  0.59783020475E+01 -0.19238490048E+02 -0.73272303343E+02  0.75991381300E+02  0.00000000000E+00 0.  1.
<mgrwt>
<rscale>  4 0.47526758E+03</rscale>
<asrwt>0</asrwt>
<pdfrwt beam="1">  1       21 0.22350518E-01 0.47526758E+03</pdfrwt>
<pdfrwt beam="2">  1       -2 0.12318286E+00 0.47526758E+03</pdfrwt>
<totfact> 0.75739918E+02</totfact>
</mgrwt>
</event>
<event>
 5    0  0.3188794E-002  0.5009233E+03  0.7546771E-02  0.1013538E+00
          1   -1    0    0  503    0 -0.00000000000E+00  0.00000000000E+00  0.56168390921E+03  0.56168390921E+03  0.00000000000E+00 0.  1.
         21   -1    0    0  501  502  0.00000000000E+00 -0.00000000000E+00 -0.25952348000E+03  0.25952348000E+03  0.00000000000E+00 0.  1.
         25    1    1    2    0    0 -0.17048698945E+03  0.21629434875E+03  0.32564478595E+03  0.44443063068E+03  0.12500000000E+03 0.  0.
         21    1    1    2  503  502 -0.20526516021E+02 -0.16717640412E+03  0.32970111939E+02  0.17162842490E+03  0.00000000000E+00 0.  1.
          1    1    1    2  501    0  0.19101350547E+03 -0.49117944636E+02 -0.56454468677E+02  0.20514833363E+03  0.00000000000E+00 0.  1.
<mgrwt>
<rscale>  4 0.50092326E+03</rscale>
<asrwt>0</asrwt>
<pdfrwt beam="1">  1       21 0.39926689E-01 0.50092326E+03</pdfrwt>
<pdfrwt beam="2">  1        1 0.86412909E-01 0.50092326E+03</pdfrwt>
<totfact> 0.23875576E+03</totfact>
</mgrwt>
</event>
<event>
 5    0  0.3188794E-002  0.5210765E+03  0.7546771E-02  0.1008419E+00
         21   -1    0    0  501  502  0.00000000000E+00  0.00000000000E+00  0.26777868611E+02  0.26777868611E+02  0.00000000000E+00 0.  1.
          2   -1    0    0  503    0 -0.00000000000E+00 -0.00000000000E+00 -0.38086632251E+04  0.38086632251E+04  0.00000000000E+00 0. -1.
         25    1    1    2    0    0 -0.20620990953E+03 -0.60282367796E+01 -0.11970308216E+04  0.12210924020E+04  0.12500000000E+03 0.  0.
         21    1    1    2  503  502  0.24755329765E+03 -0.54964954932E+02 -0.24262246017E+04  0.24394404275E+04  0.00000000000E+00 0.  1.
          2    1    1    2  501    0 -0.41343388115E+02  0.60993191712E+02 -0.15862993323E+03  0.17490826422E+03  0.00000000000E+00 0. -1.
<mgrwt>
<rscale>  4 0.52107651E+03</rscale>
<asrwt>0</asrwt>
<pdfrwt beam="1">  1       21 0.41196718E-02 0.52107651E+03</pdfrwt>
<pdfrwt beam="2">  1        2 0.58594823E+00 0.52107651E+03</pdfrwt>
<totfact> 0.26855452E+03</totfact>
</mgrwt>
</event>
<event>
 5    0  0.3188794E-002  0.4709837E+03  0.7546771E-02  0.1021643E+00
         21   -1    0    0  501  502  0.00000000000E+00  0.00000000000E+00  0.26809014633E+03  0.26809014633E+03  0.00000000000E+00 0. -1.
          2   -1    0    0  503    0 -0.00000000000E+00 -0.00000000000E+00 -0.52655613300E+03  0.52655613300E+03  0.00000000000E+00 0.  1.
         25    1    1    2    0    0 -0.96273365275E+02 -0.24411677432E+03 -0.27464646534E+02  0.29196038631E+03  0.12500000000E+03 0.  0.
         21    1    1    2  503  502  0.61269467604E+02 -0.40635337048E+01 -0.24410240216E+03  0.25170705732E+03  0.00000000000E+00 0.  1.
          2    1    1    2  501    0  0.35003897670E+02  0.24818030802E+03  0.13101062015E+02  0.25097883570E+03  0.00000000000E+00 0.  1.
<mgrwt>
<rscale>  4 0.47098368E+03</rscale>
<asrwt>0</asrwt>
<pdfrwt beam="1">  1       21 0.41244638E-01 0.47098368E+03</pdfrwt>
<pdfrwt beam="2">  1        2 0.81008635E-01 0.47098368E+03</pdfrwt>
<totfact> 0.39031378E+03</totfact>
</mgrwt>
</event>
<event>
 5    0  0.3188794E-002  0.9104047E+03  0.7546771E-02  0.9412668E-01
          1   -1    0    0  503    0 -0.00000000000E+00  0.00000000000E+00  0.21814714010E+04  0.21814714010E+04  0.00000000000E+00 0. -1.
         21   -1    0    0  501  502  0.00000000000E+00 -0.00000000000E+00 -0.58384467664E+03  0.58384467664E+03  0.00000000000E+00 0. -1.
         25    1    1    2    0    0  0.29912854355E+03  0.32237506404E+03  0.94574838341E+03  0.10504611236E+04  0.12500000000E+03 0.  0.
         21    1    1    2  503  502 -0.35328512133E+03 -0.27760537080E+03  0.11381015031E+04  0.12235808719E+04  0.00000000000E+00 0. -1.
          1    1    1    2  501    0  0.54156577783E+02 -0.44769693248E+02 -0.48622316213E+03  0.49127408210E+03  0.00000000000E+00 0. -1.
<mgrwt>
<rscale>  4 0.91040466E+03</rscale>
<asrwt>0</asrwt>
<pdfrwt beam="1">  1       21 0.89822259E-01 0.91040466E+03</pdfrwt>
<pdfrwt beam="2">  1        1 0.33561098E+00 0.91040466E+03</pdfrwt>
<totfact> 0.22582637E+01</totfact>
</mgrwt>
</event>
<event>
 5    0  0.3188794E-002  0.5910959E+03  0.7546771E-02  0.9924053E-01
         -3   -1    0    0    0  501 -0.00000000000E+00  0.00000000000E+00  0.86771958391E+03  0.86771958391E+03  0.00000000000E+00 0. -1.
         21   -1    0    0  503  502  0.00000000000E+00 -0.00000000000E+00 -0.11021189602E+03  0.11021189602E+03  0.00000000000E+00 0.  1.
         25    1    1    2    0    0 -0.22543920573E+03  0.74743087934E+02  0.13134651730E+03  0.29880808604E+03  0.12500000000E+03 0.  0.
         21    1    1    2  503  501  0.20383383032E+03 -0.83861226887E+02  0.61470075809E+03  0.65302217249E+03  0.00000000000E+00 0.  1.
         -3    1    1    2    0  502  0.21605375414E+02  0.91181389528E+01  0.11460412497E+02  0.26101221415E+02  0.00000000000E+00 0. -1.
<mgrwt>
<rscale>  4 0.59109585E+03</rscale>
<asrwt>0</asrwt>
<pdfrwt beam="1">  1       21 0.16955677E-01 0.59109585E+03</pdfrwt>
<pdfrwt beam="2">  1       -3 0.13349532E+00 0.59109585E+03</pdfrwt>
<totfact> 0.68334663E+02</totfact>
</mgrwt>
</event>
<event>
 5    0  0.3188794E-002  0.5050737E+03  0.7546771E-02  0.1012463E+00
          1   -1    0    0  503    0 -0.00000000000E+00  0.00000000000E+00  0.10658995690E+04  0.10658995690E+04  0.00000000000E+00 0.  1.
         21   -1    0    0  501  502  0.00000000000E+00 -0.00000000000E+00 -0.17030914341E+03  0.17030914341E+03  0.00000000000E+00 0.  1.
         25    1    1    2    0    0 -0.18791442460E+03  0.95482172325E+02  0.68889207426E+03  0.73118121296E+03  0.12500000000E+03 0.  0.
         21    1    1    2  503  502  0.21795023747E+03 -0.86013917774E+02  0.31480222130E+03  0.39242978812E+03  0.00000000000E+00 0. -1.
          1    1    1    2  501    0 -0.30035812869E+02 -0.94682545507E+01 -0.10810386997E+03  0.11259771135E+03  0.00000000000E+00 0.  1.
<mgrwt>
<rscale>  4 0.50507370E+03</rscale>
<asrwt>0</asrwt>
<pdfrwt beam="1">  1       21 0.26201407E-01 0.50507370E+03</pdfrwt>
<pdfrwt beam="2">  1        1 0.16398455E+00 0.50507370E+03</pdfrwt>
<totfact> 0.20296637E+03</totfact>
</mgrwt>
</event>
<event>
 5    0  0.3188794E-002  0.3274073E+03  0.7546771E-02  0.1072290E+00
          2   -1    0    0  503    0 -0.00000000000E+00  0.00000000000E+00  0.40171475747E+03  0.40171475747E+03  0.00000000000E+00 0.  1.
         21   -1    0    0  501  502  0.00000000000E+00 -0.00000000000E+00 -0.13892612036E+03  0.13892612036E+03  0.00000000000E+00 0. -1.
         25    1    1    2    0    0  0.16839992765E+03 -0.11912562356E+03  0.13901875631E+03  0.27838941148E+03  0.12500000000E+03 0.  0.
         21    1    1    2  503  502 -0.31783213961E+02  0.78785341768E+02  0.69695078843E+02  0.10988497068E+03  0.00000000000E+00 0.  1.
          2    1    1    2  501    0 -0.13661671369E+03  0.40340281788E+02  0.54074801964E+02  0.15236649566E+03  0.00000000000E+00 0.  1.
<mgrwt>
<rscale>  4 0.32740729E+03</rscale>
<asrwt>0</asrwt>
<pdfrwt beam="1">  1       21 0.21373250E-01 0.32740729E+03</pdfrwt>
<pdfrwt beam="2">  1        2 0.61802270E-01 0.32740729E+03</pdfrwt>
<totfact> 0.19850058E+04</totfact>
</mgrwt>
</event>
<event>
 5    0  0.3188794E-002  0.4284833E+03  0.7546771E-02  0.1034340E+00
         21   -1    0    0  503  502  0.00000000000E+00  0.00000000000E+00  0.26251257907E+03  0.26251257907E+03  0.00000000000E+00 0. -1.
         -4   -1    0    0    0  501 -0.00000000000E+00 -0.00000000000E+00 -0.28245095350E+03  0.28245095350E+03  0.00000000000E+00 0.  1.
         25    1    1    2    0    0 -0.50108406231E+01  0.21335288288E+03 -0.57400924761E+02  0.25389845868E+03  0.12500000000E+03 0.  0.
         21    1    1    2  503  501 -0.83675832342E+02 -0.15805437565E+03 -0.33393406727E+01  0.17886861596E+03  0.00000000000E+00 0. -1.
         -4    1    1    2    0  502  0.88686672965E+02 -0.55298507226E+02  0.40801890999E+02  0.11219645793E+03  0.00000000000E+00 0.  1.
<mgrwt>
<rscale>  4 0.42848333E+03</rscale>
<asrwt>0</asrwt>
<pdfrwt beam="1">  1       21 0.40386551E-01 0.42848333E+03</pdfrwt>
<pdfrwt beam="2">  1       -4 0.43453993E-01 0.42848333E+03</pdfrwt>
<totfact> 0.12785047E+03</totfact>
</mgrwt>
</event>
<event>
 5    0  0.3188794E-002  0.5369543E+03  0.7546771E-02  0.1004559E+00
         21   -1    0    0  501  502  0.00000000000E+00  0.00000000000E+00  0.96144312716E+02  0.96144312716E+02  0.00000000000E+00 0. -1.
          2   -1    0    0  503    0 -0.00000000000E+00 -0.00000000000E+00 -0.98397694264E+03  0.98397694264E+03  0.00000000000E+00 0.  1.
         25    1    1    2    0    0 -0.82061725823E+02  0.21547860206E+03 -0.31803780517E+03  0.41223561262E+03  0.12500000000E+03 0.  0.
         21    1    1    2  503  502  0.45274016899E+02 -0.25595243479E+03 -0.55239069283E+03  0.61048903594E+03  0.00000000000E+00 0.  1.
          2    1    1    2  501    0  0.36787708924E+02  0.40473832723E+02 -0.17404131917E+02  0.57396606790E+02  0.00000000000E+00 0.  1.
<mgrwt>
<rscale>  4 0.53695432E+03</rscale>
<asrwt>0</asrwt>
<pdfrwt beam="1">  1       21 0.14791433E-01 0.53695432E+03</pdfrwt>
<pdfrwt beam="2">  1        2 0.15138107E+00 0.53695432E+03</pdfrwt>
<totfact> 0.12961567E+04</totfact>
</mgrwt>
</event>
<event>
 5    0  0.3188794E-002  0.5107249E+03  0.7546771E-02  0.1011017E+00
         21   -1    0    0  503  502  0.00000000000E+00  0.00000000000E+00  0.16580608072E+03  0.16580608072E+03  0.00000000000E+00 0.  1.
         -3   -1    0    0    0  501 -0.00000000000E+00 -0.00000000000E+00 -0.11992804539E+04  0.11992804539E+04  0.00000000000E+00 0. -1.
         25    1    1    2    0    0  0.20831333802E+03  0.25047419519E+03 -0.23510950133E+03  0.42075318997E+03  0.12500000000E+03 0.  0.
         21    1    1    2  503  501 -0.33705591398E+02  0.86858780099E+02 -0.32121135296E+03  0.33445066578E+03  0.00000000000E+00 0. -1.
         -3    1    1    2    0  502 -0.17460774662E+03 -0.33733297528E+03 -0.47715351888E+03  0.60988267886E+03  0.00000000000E+00 0. -1.
<mgrwt>
<rscale>  4 0.51072495E+03</rscale>
<asrwt>0</asrwt>
<pdfrwt beam="1">  1       21 0.25508628E-01 0.51072495E+03</pdfrwt>
<pdfrwt beam="2">  1       -3 0.18450468E+00 0.51072495E+03</pdfrwt>
<totfact> 0.13455914E+02</totfact>
</mgrwt>
</event>
<event>
 5    0  0.3188794E-002  0.3777990E+03  0.7546771E-02  0.1051750E+00
         21   -1    0    0  501  502  0.00000000000E+00  0.00000000000E+00  0.14907518070E+03  0.14907518070E+03  0.00000000000E+00 0.  1.
          1   -1    0    0  503    0 -0.00000000000E+00 -0.00000000000E+00 -0.98081969810E+03  0.98081969810E+03  0.00000000000E+00 0.  1.
         25    1    1    2    0    0  0.20435852453E+03  0.77237747406E+01 -0.15359760043E+03  0.28467399969E+03  0.12500000000E+03 0.  0.
         21    1    1    2  503  502  0.13527368077E+03 -0.27871264014E+02 -0.87224824937E+02  0.16335221502E+03  0.00000000000E+00 0.  1.
          1    1    1    2  501    0 -0.33963220530E+03  0.20147489274E+02 -0.59092209203E+03  0.68186866408E+03  0.00000000000E+00 0.  1.
<mgrwt>
<rscale>  4 0.37779895E+03</rscale>
<asrwt>0</asrwt>
<pdfrwt beam="1">  1       21 0.22934644E-01 0.37779895E+03</pdfrwt>
<pdfrwt beam="2">  1        1 0.15089534E+00 0.37779895E+03</pdfrwt>
<totfact> 0.31287374E+03</totfact>
</mgrwt>
</event>
<event>
 5    0  0.3188794E-002  0.3870542E+03  0.7546771E-02  0.1048357E+00
         21   -1    0    0  501  502  0.00000000000E+00  0.00000000000E+00  0.67115167673E+02  0.67115167673E+02  0.00000000000E+00 0. -1.
          2   -1    0    0  503    0 -0.00000000000E+00 -0.00000000000E+00 -0.25027764155E+04  0.25027764155E+04  0.00000000000E+00 0. -1.
         25    1    1    2    0    0  0.21962863906E+03  0.48786070235E+02 -0.19616595704E+04  0.19784716550E+04  0.12500000000E+03 0.  0.
         21    1    1    2  503  502 -0.95029154595E+02 -0.61712140605E+02 -0.44977819283E+03  0.46383116677E+03  0.00000000000E+00 0.  1.
          2    1    1    2  501    0 -0.12459948446E+03  0.12926070370E+02 -0.24223484641E+02  0.12758876139E+03  0.00000000000E+00 0. -1.
<mgrwt>
<rscale>  4 0.38705424E+03</rscale>
<asrwt>0</asrwt>
<pdfrwt beam="1">  1       21 0.10325410E-01 0.38705424E+03</pdfrwt>
<pdfrwt beam="2">  1        2 0.38504253E+00 0.38705424E+03</pdfrwt>
<totfact> 0.36962570E+03</totfact>
</mgrwt>
</event>
<event>
 5    0  0.3188794E-002  0.4039221E+03  0.7546771E-02  0.1042430E+00
          2   -1    0    0  503    0 -0.00000000000E+00  0.00000000000E+00  0.80167567871E+03  0.80167567871E+03  0.00000000000E+00 0. -1.
         21   -1    0    0  501  502  0.00000000000E+00 -0.00000000000E+00 -0.68247245403E+02  0.68247245403E+02  0.00000000000E+00 0.  1.
         25    1    1    2    0    0  0.18274817882E+03 -0.84612343540E+02  0.52300081956E+03  0.57420466978E+03  0.12500000000E+03 0.  0.
         21    1    1    2  503  502 -0.12548038982E+03  0.82270160133E+02  0.16040048884E+03  0.21964067087E+03  0.00000000000E+00 0.  1.
          2    1    1    2  501    0 -0.57267788994E+02  0.23421834067E+01  0.50027124909E+02  0.76077583466E+02  0.00000000000E+00 0. -1.
<mgrwt>
<rscale>  4 0.40392212E+03</rscale>
<asrwt>0</asrwt>
<pdfrwt beam="1">  1       21 0.10499577E-01 0.40392212E+03</pdfrwt>
<pdfrwt beam="2">  1        2 0.12333471E+00 0.40392212E+03</pdfrwt>
<totfact> 0.32530166E+04</totfact>
</mgrwt>
</event>
<event>
 5    0  0.3188794E-002  0.5314596E+03  0.7546771E-02  0.1005879E+00
         21   -1    0    0  503  502  0.00000000000E+00  0.00000000000E+00  0.28224052515E+03  0.28224052515E+03  0.00000000000E+00 0.  1.
         -2   -1    0    0    0  501 -0.00000000000E+00 -0.00000000000E+00 -0.84750956971E+03  0.84750956971E+03  0.00000000000E+00 0.  1.
         25    1    1    2    0    0 -0.48412432496E+02  0.22296098363E+03 -0.59034980154E+02  0.26676861271E+03  0.12500000000E+03 0.  0.
         21    1    1    2  503  501  0.13602647894E+03  0.21293793454E+03 -0.21189245765E+03  0.32976382541E+03  0.00000000000E+00 0.  1.
         -2    1    1    2    0  502 -0.87614046446E+02 -0.43589891817E+03 -0.29434160676E+03  0.53321765674E+03  0.00000000000E+00 0.  1.
<mgrwt>
<rscale>  4 0.53145957E+03</rscale>
<asrwt>0</asrwt>
<pdfrwt beam="1">  1       21 0.43421620E-01 0.53145957E+03</pdfrwt>
<pdfrwt beam="2">  1       -2 0.13038609E+00 0.53145957E+03</pdfrwt>
<totfact> 0.17218150E+02</totfact>
</mgrwt>
</event>
<event>
 5    0  0.3188794E-002  0.4583483E+03  0.7546771E-02  0.1025261E+00
         21   -1    0    0  501  502  0.00000000000E+00  0.00000000000E+00  0.10789371838E+03  0.10789371838E+03  0.00000000000E+00 0. -1.
          2   -1    0    0  503    0 -0.00000000000E+00 -0.00000000000E+00 -0.79493115130E+03  0.79493115130E+03  0.00000000000E+00 0.  1.
         25    1    1    2    0    0  0.46758932330E+02 -0.21971502666E+03 -0.43888629847E+03  0.50863274931E+03  0.12500000000E+03 0.  0.
         21    1    1    2  503  502 -0.49804971435E+02  0.19369856084E+03 -0.28549427164E+03  0.34857803544E+03  0.00000000000E+00 0.  1.
          2    1    1    2  501    0  0.30460391049E+01  0.26016465821E+02  0.37343137193E+02  0.45614084925E+02  0.00000000000E+00 0.  1.
<mgrwt>
<rscale>  4 0.45834825E+03</rscale>
<asrwt>0</asrwt>
<pdfrwt beam="1">  1       21 0.16599033E-01 0.45834825E+03</pdfrwt>
<pdfrwt beam="2">  1        2 0.12229710E+00 0.45834825E+03</pdfrwt>
<totfact> 0.14113785E+04</totfact>
</mgrwt>
</event>
<event>
 5    0  0.3188794E-002  0.4703895E+03  0.7546771E-02  0.1021810E+00
         21   -1    0    0  501  502  0.00000000000E+00  0.00000000000E+00  0.62413280089E+02  0.62413280089E+02  0.00000000000E+00 0.  1.
          2   -1    0    0  503    0 -0.00000000000E+00 -0.00000000000E+00 -0.12889321017E+04  0.12889321017E+04  0.00000000000E+00 0. -1.
         25    1    1    2    0    0  0.50163590680E+01  0.21333832131E+03 -0.85830100316E+03  0.89322114576E+03  0.12500000000E+03 0.  0.
         21    1    1    2  503  502  0.45512768433E+02 -0.19489448595E+03 -0.34643578766E+03  0.40009127424E+03  0.00000000000E+00 0.  1.
          2    1    1    2  501    0 -0.50529127501E+02 -0.18443835358E+02 -0.21782030769E+02  0.58032961782E+02  0.00000000000E+00 0. -1.
<mgrwt>
<rscale>  4 0.47038950E+03</rscale>
<asrwt>0</asrwt>
<pdfrwt beam="1">  1       21 0.96020434E-02 0.47038950E+03</pdfrwt>
<pdfrwt beam="2">  1        2 0.19829724E+00 0.47038950E+03</pdfrwt>
<totfact> 0.18899259E+04</totfact>
</mgrwt>
</event>
<event>
 5    0  0.3188794E-002  0.4572062E+03  0.7546771E-02  0.1025595E+00
         21   -1    0    0  501  502  0.00000000000E+00  0.00000000000E+00  0.36162069763E+03  0.36162069763E+03  0.00000000000E+00 0.  1.
          1   -1    0    0  503    0 -0.00000000000E+00 -0.00000000000E+00 -0.14768316920E+04  0.14768316920E+04  0.00000000000E+00 0.  1.
         25    1    1    2    0    0 -0.17611173437E+03  0.17108011534E+03 -0.95092510443E+03  0.99003399088E+03  0.12500000000E+03 0.  0.
         21    1    1    2  503  502  0.16685531440E+03 -0.63943442248E+02 -0.48143920233E+03  0.51353010164E+03  0.00000000000E+00 0. -1.
          1    1    1    2  501    0  0.92564199729E+01 -0.10713667309E+03  0.31715331235E+03  0.33488829715E+03  0.00000000000E+00 0.  1.
<mgrwt>
<rscale>  4 0.45720616E+03</rscale>
<asrwt>0</asrwt>
<pdfrwt beam="1">  1       21 0.55633953E-01 0.45720616E+03</pdfrwt>
<pdfrwt beam="2">  1        1 0.22720488E+00 0.45720616E+03</pdfrwt>
<totfact> 0.22445998E+02</totfact>
</mgrwt>
</event>
<event>
 5    0  0.3188794E-002  0.5325568E+03  0.7546771E-02  0.1005614E+00
          2   -1    0    0  503    0 -0.00000000000E+00  0.00000000000E+00  0.54736462725E+03  0.54736462725E+03  0.00000000000E+00 0. -1.
         21   -1    0    0  501  502  0.00000000000E+00 -0.00000000000E+00 -0.23432887495E+03  0.23432887495E+03  0.00000000000E+00 0. -1.
         25    1    1    2    0    0  0.24062349423E+03  0.36883300526E+02  0.11411987347E+03  0.29649348957E+03  0.12500000000E+03 0.  0.
         21    1    1    2  503  502 -0.22249341593E+03 -0.57188042247E+02  0.30151107344E+03  0.37905503521E+03  0.00000000000E+00 0.  1.
          2    1    1    2  501    0 -0.18130078304E+02  0.20304741722E+02 -0.10259519461E+03  0.10614497743E+03  0.00000000000E+00 0. -1.
<mgrwt>
<rscale>  4 0.53255678E+03</rscale>
<asrwt>0</asrwt>
<pdfrwt beam="1">  1       21 0.36050596E-01 0.53255678E+03</pdfrwt>
<pdfrwt beam="2">  1        2 0.84209942E-01 0.53255678E+03</pdfrwt>
<totfact> 0.48769547E+03</totfact>
</mgrwt>
</event>
<event>
 5    0  0.3188794E-002  0.6384154E+03  0.7546771E-02  0.9828763E-01
         21   -1    0    0  501  502  0.00000000000E+00  0.00000000000E+00  0.11428401333E+03  0.11428401333E+03  0.00000000000E+00 0. -1.
          2   -1    0    0  503    0 -0.00000000000E+00 -0.00000000000E+00 -0.29042500155E+04  0.29042500155E+04  0.00000000000E+00 0.  1.
         25    1    1    2    0    0 -0.29737067024E+03  0.58738057645E+02 -0.21249326912E+04  0.21500798629E+04  0.12500000000E+03 0.  0.
         21    1    1    2  503  502  0.19426524787E+02  0.18494448220E+03 -0.26558539846E+03  0.32421822163E+03  0.00000000000E+00 0. -1.
          2    1    1    2  501    0  0.27794414546E+03 -0.24368253984E+03 -0.39944791253E+03  0.54423594428E+03  0.00000000000E+00 0.  1.
<mgrwt>
<rscale>  4 0.63841544E+03</rscale>
<asrwt>0</asrwt>
<pdfrwt beam="1">  1       21 0.17582155E-01 0.63841544E+03</pdfrwt>
<pdfrwt beam="2">  1        2 0.44680771E+00 0.63841544E+03</pdfrwt>
<totfact> 0.76166927E+02</totfact>
</mgrwt>
</event>
<event>
 5    0  0.3188794E-002  0.5509010E+03  0.7546771E-02  0.1001286E+00
         -2   -1    0    0    0  501 -0.00000000000E+00  0.00000000000E+00  0.26428781814E+03  0.26428781814E+03  0.00000000000E+00 0. -1.
         21   -1    0    0  501  502  0.00000000000E+00 -0.00000000000E+00 -0.36033150836E+03  0.36033150836E+03  0.00000000000E+00 0.  1.
         25    1    1    2    0    0  0.21811520656E+03 -0.54553548999E+02 -0.24286829972E+03  0.35378007865E+03  0.12500000000E+03 0.  0.
         21    1    1    2  503  502 -0.18163905196E+03  0.42480412374E+02  0.10506659823E+03  0.21409418651E+03  0.00000000000E+00 0. -1.
         -2    1    1    2    0  503 -0.36476154594E+02  0.12073136625E+02  0.41758011266E+02  0.56745061343E+02  0.00000000000E+00 0. -1.
<mgrwt>
<rscale>  4 0.55090096E+03</rscale>
<asrwt>0</asrwt>
<pdfrwt beam="1">  1       21 0.55435616E-01 0.55090096E+03</pdfrwt>
<pdfrwt beam="2">  1       -2 0.40659665E-01 0.55090096E+03</pdfrwt>
<totfact> 0.13309769E+03</totfact>
</mgrwt>
</event>
<event>
 5    0  0.3188794E-002  0.3106434E+03  0.7546771E-02  0.1080038E+00
          2   -1    0    0  502    0 -0.00000000000E+00  0.00000000000E+00  0.57446870356E+03  0.57446870356E+03  0.00000000000E+00 0.  1.
         21   -1    0    0  503  502  0.00000000000E+00 -0.00000000000E+00 -0.12771024025E+03  0.12771024025E+03  0.00000000000E+00 0.  1.
         25    1    1    2    0    0  0.64836879044E+02  0.21316101521E+03  0.30025738039E+03  0.39423461767E+03  0.12500000000E+03 0.  0.
         21    1    1    2  503  501 -0.54865207189E+02 -0.24854058730E+01  0.55996624640E+02  0.78434623562E+02  0.00000000000E+00 0. -1.
          2    1    1    2  501    0 -0.99716718549E+01 -0.21067560934E+03  0.90504458276E+02  0.22950970258E+03  0.00000000000E+00 0.  1.
<mgrwt>
<rscale>  4 0.31064336E+03</rscale>
<asrwt>0</asrwt>
<pdfrwt beam="1">  1       21 0.19647730E-01 0.31064336E+03</pdfrwt>
<pdfrwt beam="2">  1        2 0.88379799E-01 0.31064336E+03</pdfrwt>
<totfact> 0.15591644E+04</totfact>
</mgrwt>
</event>
<event>
 5    0  0.3188794E-002  0.4671309E+03  0.7546771E-02  0.1022733E+00
          4   -1    0    0  503    0 -0.00000000000E+00  0.00000000000E+00  0.39330703657E+03  0.39330703657E+03  0.00000000000E+00 0. -1.
         21   -1    0    0  501  502  0.00000000000E+00 -0.00000000000E+00 -0.25320408078E+03  0.25320408078E+03  0.00000000000E+00 0. -1.
         25    1    1    2    0    0  0.24153146416E+03  0.49148220426E+02 -0.77329301687E+02  0.28698051615E+03  0.12500000000E+03 0.  0.
         21    1    1    2  503  502 -0.87561425531E+02  0.50967182597E+01  0.16706780148E+03  0.18869189190E+03  0.00000000000E+00 0.  1.
          4    1    1    2  501    0 -0.15397003862E+03 -0.54244938686E+02  0.50364456000E+02  0.17083870930E+03  0.00000000000E+00 0. -1.
<mgrwt>
<rscale>  4 0.46713086E+03</rscale>
<asrwt>0</asrwt>
<pdfrwt beam="1">  1       21 0.38954474E-01 0.46713086E+03</pdfrwt>
<pdfrwt beam="2">  1        4 0.60508775E-01 0.46713086E+03</pdfrwt>
<totfact> 0.68759472E+02</totfact>
</mgrwt>
</event>
<event>
 5    0  0.3188794E-002  0.6845465E+03  0.7546771E-02  0.9744031E-01
          2   -1    0    0  503    0 -0.00000000000E+00  0.00000000000E+00  0.14863909497E+04  0.14863909497E+04  0.00000000000E+00 0.  1.
         21   -1    0    0  501  502  0.00000000000E+00 -0.00000000000E+00 -0.22027910663E+03  0.22027910663E+03  0.00000000000E+00 0.  1.
         25    1    1    2    0    0  0.19989581757E+03 -0.11988194260E+03  0.13226932306E+04  0.13488782007E+04  0.12500000000E+03 0.  0.
         21    1    1    2  503  502 -0.18456388063E+03  0.64640073472E+02  0.78750912150E+02  0.21081715133E+03  0.00000000000E+00 0. -1.
          2    1    1    2  501    0 -0.15331936945E+02  0.55241869123E+02 -0.13533229964E+03  0.14697470435E+03  0.00000000000E+00 0.  1.
<mgrwt>
<rscale>  4 0.68454650E+03</rscale>
<asrwt>0</asrwt>
<pdfrwt beam="1">  1       21 0.33889094E-01 0.68454650E+03</pdfrwt>
<pdfrwt beam="2">  1        2 0.22867552E+00 0.68454650E+03</pdfrwt>
<totfact> 0.12901983E+03</totfact>
</mgrwt>
</event>
<event>
 5    0  0.3188794E-002  0.3067671E+03  0.7546771E-02  0.1081906E+00
          2   -1    0    0  503    0 -0.00000000000E+00  0.00000000000E+00  0.23920799529E+04  0.23920799529E+04  0.00000000000E+00 0. -1.
         21   -1    0    0  501  502  0.00000000000E+00 -0.00000000000E+00 -0.34561873371E+02  0.34561873371E+02  0.00000000000E+00 0. -1.
         25    1    1    2    0    0  0.82138597795E+02  0.18374076845E+03  0.99085888687E+03  0.10187903381E+04  0.12500000000E+03 0.  0.
         21    1    1    2  503  502  0.39132241052E+02  0.48806680386E+02  0.45285472851E+03  0.45715514814E+03  0.00000000000E+00 0. -1.
          2    1    1    2  501    0 -0.12127083885E+03 -0.23254744883E+03  0.91380446412E+03  0.95069634003E+03  0.00000000000E+00 0. -1.
<mgrwt>
<rscale>  4 0.30676713E+03</rscale>
<asrwt>0</asrwt>
<pdfrwt beam="1">  1       21 0.53172132E-02 0.30676713E+03</pdfrwt>
<pdfrwt beam="2">  1        2 0.36801217E+00 0.30676713E+03</pdfrwt>
<totfact> 0.13957832E+04</totfact>
</mgrwt>
</event>
<event>
 5    0  0.3188794E-002  0.5723736E+03  0.7546771E-02  0.9964440E-01
          3   -1    0    0  502    0 -0.00000000000E+00  0.00000000000E+00  0.10864743661E+04  0.10864743661E+04  0.00000000000E+00 0. -1.
         21   -1    0    0  503  502  0.00000000000E+00 -0.00000000000E+00 -0.11032845225E+03  0.11032845225E+03  0.00000000000E+00 0.  1.
         25    1    1    2    0    0 -0.29497478230E+03 -0.10860050243E+03  0.45239345049E+03  0.56487965565E+03  0.12500000000E+03 0.  0.
         21    1    1    2  503  501  0.22990243805E+03  0.33696013721E+02  0.25274503325E+03  0.34332288621E+03  0.00000000000E+00 0.  1.
          3    1    1    2  501    0  0.65072344244E+02  0.74904488712E+02  0.27100743009E+03  0.28860027647E+03  0.00000000000E+00 0. -1.
<mgrwt>
<rscale>  4 0.57237363E+03</rscale>
<asrwt>0</asrwt>
<pdfrwt beam="1">  1       21 0.16973609E-01 0.57237363E+03</pdfrwt>
<pdfrwt beam="2">  1        3 0.16714990E+00 0.57237363E+03</pdfrwt>
<totfact> 0.38376498E+02</totfact>
</mgrwt>
</event>
<event>
 5    0  0.3188794E-002  0.7420161E+03  0.7546771E-02  0.9647960E-01
          2   -1    0    0  503    0 -0.00000000000E+00  0.00000000000E+00  0.60367980836E+03  0.60367980836E+03  0.00000000000E+00 0.  1.
         21   -1    0    0  501  502  0.00000000000E+00 -0.00000000000E+00 -0.63272855096E+03  0.63272855096E+03  0.00000000000E+00 0.  1.
         25    1    1    2    0    0 -0.29737009245E+03  0.32575804298E+02  0.41190777451E+03  0.52419764365E+03  0.12500000000E+03 0.  0.
         21    1    1    2  503  502  0.29554108021E+03  0.58246765677E+02 -0.43314559314E+02  0.30432444340E+03  0.00000000000E+00 0. -1.
          2    1    1    2  501    0  0.18290122343E+01 -0.90822569975E+02 -0.39764195780E+03  0.40788627227E+03  0.00000000000E+00 0.  1.
<mgrwt>
<rscale>  4 0.74201610E+03</rscale>
<asrwt>0</asrwt>
<pdfrwt beam="1">  1       21 0.97342854E-01 0.74201610E+03</pdfrwt>
<pdfrwt beam="2">  1        2 0.92873817E-01 0.74201610E+03</pdfrwt>
<totfact> 0.46652547E+02</totfact>
</mgrwt>
</event>
<event>
 5    0  0.3188794E-002  0.3870630E+03  0.7546771E-02  0.1048354E+00
         21   -1    0    0  503  502  0.00000000000E+00  0.00000000000E+00  0.37901345119E+03  0.37901345119E+03  0.00000000000E+00 0. -1.
         -2   -1    0    0    0  501 -0.00000000000E+00 -0.00000000000E+00 -0.20558054232E+03  0.20558054232E+03  0.00000000000E+00 0.  1.
         25    1    1    2    0    0 -0.18599490864E+03 -0.17399911564E+03  0.11491002935E+03  0.30610310865E+03  0.12500000000E+03 0.  0.
         21    1    1    2  503  501  0.37672727663E+02  0.89048501643E+02 -0.32493153104E+01  0.96744137313E+02  0.00000000000E+00 0.  1.
         -2    1    1    2    0  502  0.14832218097E+03  0.84950614001E+02  0.61772194825E+02  0.18174674754E+03  0.00000000000E+00 0.  1.
<mgrwt>
<rscale>  4 0.38706303E+03</rscale>
<asrwt>0</asrwt>
<pdfrwt beam="1">  1       21 0.58309762E-01 0.38706303E+03</pdfrwt>
<pdfrwt beam="2">  1       -2 0.31627776E-01 0.38706303E+03</pdfrwt>
<totfact> 0.19668054E+03</totfact>
</mgrwt>
</event>
<event>
 5    0  0.3188794E-002  0.7246401E+03  0.7546771E-02  0.9675998E-01
          2   -1    0    0  503    0 -0.00000000000E+00  0.00000000000E+00  0.50037298534E+03  0.50037298534E+03  0.00000000000E+00 0. -1.
         21   -1    0    0  501  502  0.00000000000E+00 -0.00000000000E+00 -0.11111604299E+04  0.11111604299E+04  0.00000000000E+00 0. -1.
         25    1    1    2    0    0 -0.53943553390E+03  0.47856113244E+02 -0.93879835661E+02  0.56366597054E+03  0.12500000000E+03 0.  0.
         21    1    1    2  503  502 -0.28265913453E+02  0.44336256717E+02  0.15485131511E+03  0.16353469147E+03  0.00000000000E+00 0. -1.
          2    1    1    2  501    0  0.56770144735E+03 -0.92192369962E+02 -0.67175892398E+03  0.88433275318E+03  0.00000000000E+00 0. -1.
<mgrwt>
<rscale>  4 0.72464010E+03</rscale>
<asrwt>0</asrwt>
<pdfrwt beam="1">  1       21 0.17094776E+00 0.72464010E+03</pdfrwt>
<pdfrwt beam="2">  1        2 0.76980460E-01 0.72464010E+03</pdfrwt>
<totfact> 0.13184811E+02</totfact>
</mgrwt>
</event>
<event>
 5    0  0.3188794E-002  0.4177548E+03  0.7546771E-02  0.1037800E+00
         21   -1    0    0  501  502  0.00000000000E+00  0.00000000000E+00  0.17198135092E+03  0.17198135092E+03  0.00000000000E+00 0. -1.
          1   -1    0    0  503    0 -0.00000000000E+00 -0.00000000000E+00 -0.91193611249E+03  0.91193611249E+03  0.00000000000E+00 0. -1.
         25    1    1    2    0    0 -0.20705723427E+03 -0.61268722519E+02 -0.45572222628E+03  0.51955202064E+03  0.12500000000E+03 0.  0.
         21    1    1    2  503  502  0.16525462674E+03 -0.24164074284E+01 -0.39600046732E+03  0.42910523278E+03  0.00000000000E+00 0. -1.
          1    1    1    2  501    0  0.41802607532E+02  0.63685129947E+02  0.11176793204E+03  0.13526020998E+03  0.00000000000E+00 0. -1.
<mgrwt>
<rscale>  4 0.41775476E+03</rscale>
<asrwt>0</asrwt>
<pdfrwt beam="1">  1       21 0.26458669E-01 0.41775476E+03</pdfrwt>
<pdfrwt beam="2">  1        1 0.14029786E+00 0.41775476E+03</pdfrwt>
<totfact> 0.26606247E+03</totfact>
</mgrwt>
</event>
<event>
 5    0  0.3188794E-002  0.4121505E+03  0.7546771E-02  0.1039652E+00
          2   -1    0    0  503    0 -0.00000000000E+00  0.00000000000E+00  0.11914778350E+03  0.11914778350E+03  0.00000000000E+00 0.  1.
         21   -1    0    0  501  502  0.00000000000E+00 -0.00000000000E+00 -0.94175024808E+03  0.94175024808E+03  0.00000000000E+00 0. -1.
         25    1    1    2    0    0 -0.17635117185E+03 -0.13376660727E+03 -0.24419062788E+03  0.35248731010E+03  0.12500000000E+03 0.  0.
         21    1    1    2  503  502  0.13769729387E+03  0.71412218656E+01 -0.25945371945E+02  0.14030218856E+03  0.00000000000E+00 0.  1.
          2    1    1    2  501    0  0.38653877982E+02  0.12662538540E+03 -0.55246646475E+03  0.56810853293E+03  0.00000000000E+00 0.  1.
<mgrwt>
<rscale>  4 0.41215050E+03</rscale>
<asrwt>0</asrwt>
<pdfrwt beam="1">  1       21 0.14488465E+00 0.41215050E+03</pdfrwt>
<pdfrwt beam="2">  1        2 0.18330428E-01 0.41215050E+03</pdfrwt>
<totfact> 0.11347663E+03</totfact>
</mgrwt>
</event>
<event>
 5    0  0.3188794E-002  0.5169891E+03  0.7546771E-02  0.1009437E+00
         21   -1    0    0  501  502  0.00000000000E+00  0.00000000000E+00  0.34292970691E+03  0.34292970691E+03  0.00000000000E+00 0.  1.
         -1   -1    0    0    0  501 -0.00000000000E+00 -0.00000000000E+00 -0.37414503766E+03  0.37414503766E+03  0.00000000000E+00 0. -1.
         25    1    1    2    0    0  0.10162435925E+03  0.28386116047E+03 -0.84391699767E+02  0.33712257089E+03  0.12500000000E+03 0.  0.
         21    1    1    2  503  502 -0.42747511412E+02 -0.11425076497E+03  0.13560218175E+03  0.18239665217E+03  0.00000000000E+00 0.  1.
         -1    1    1    2    0  503 -0.58876847842E+02 -0.16961039550E+03 -0.82425812730E+02  0.19755552150E+03  0.00000000000E+00 0. -1.
<mgrwt>
<rscale>  4 0.51698908E+03</rscale>
<asrwt>0</asrwt>
<pdfrwt beam="1">  1       21 0.52758416E-01 0.51698908E+03</pdfrwt>
<pdfrwt beam="2">  1       -1 0.57560775E-01 0.51698908E+03</pdfrwt>
<totfact> 0.91567096E+02</totfact>
</mgrwt>
</event>
<event>
 5    0  0.3188794E-002  0.5979987E+03  0.7546771E-02  0.9909567E-01
         21   -1    0    0  501  502  0.00000000000E+00  0.00000000000E+00  0.32246052638E+03  0.32246052638E+03  0.00000000000E+00 0.  1.
          3   -1    0    0  503    0 -0.00000000000E+00 -0.00000000000E+00 -0.33294131646E+03  0.33294131646E+03  0.00000000000E+00 0. -1.
         25    1    1    2    0    0 -0.26056639031E+03 -0.13070310809E+03 -0.22098484008E+02  0.31794887831E+03  0.12500000000E+03 0.  0.
         21    1    1    2  503  502  0.25914264834E+03  0.10739563062E+03 -0.37554651821E+02  0.28301781842E+03  0.00000000000E+00 0.  1.
          3    1    1    2  501    0  0.14237419637E+01  0.23307477469E+02  0.49172345743E+02  0.54435146119E+02  0.00000000000E+00 0. -1.
<mgrwt>
<rscale>  4 0.59799872E+03</rscale>
<asrwt>0</asrwt>
<pdfrwt beam="1">  1       21 0.49609312E-01 0.59799872E+03</pdfrwt>
<pdfrwt beam="2">  1        3 0.51221741E-01 0.59799872E+03</pdfrwt>
<totfact> 0.69749339E+02</totfact>
</mgrwt>
</event>
<event>
 5    0  0.3188794E-002  0.4517739E+03  0.7546771E-02  0.1027194E+00
          2   -1    0    0  503    0 -0.00000000000E+00  0.00000000000E+00  0.58178988181E+03  0.58178988181E+03  0.00000000000E+00 0.  1.
         21   -1    0    0  501  502  0.00000000000E+00 -0.00000000000E+00 -0.20552270984E+03  0.20552270984E+03  0.00000000000E+00 0. -1.
         25    1    1    2    0    0  0.12173182472E+03  0.20709448460E+03  0.82585763110E+02  0.28311158749E+03  0.12500000000E+03 0.  0.
         21    1    1    2  503  502 -0.10725244400E+03  0.63398319887E+01  0.26800764973E+03  0.28874102674E+03  0.00000000000E+00 0.  1.
          2    1    1    2  501    0 -0.14479380728E+02 -0.21343431659E+03  0.25673759136E+02  0.21545997742E+03  0.00000000000E+00 0.  1.
<mgrwt>
<rscale>  4 0.45177392E+03</rscale>
<asrwt>0</asrwt>
<pdfrwt beam="1">  1       21 0.31618879E-01 0.45177392E+03</pdfrwt>
<pdfrwt beam="2">  1        2 0.89506135E-01 0.45177392E+03</pdfrwt>
<totfact> 0.59814700E+03</totfact>
</mgrwt>
</event>
<event>
 5    0  0.3188794E-002  0.6925928E+03  0.7546771E-02  0.9729984E-01
          2   -1    0    0  503    0 -0.00000000000E+00  0.00000000000E+00  0.86978851791E+03  0.86978851791E+03  0.00000000000E+00 0.  1.
         21   -1    0    0  501  502  0.00000000000E+00 -0.00000000000E+00 -0.22819271255E+03  0.22819271255E+03  0.00000000000E+00 0. -1.
         25    1    1    2    0    0  0.27344917130E+02  0.32906851339E+03  0.58417232281E+03  0.68258049616E+03  0.12500000000E+03 0.  0.
         21    1    1    2  503  502 -0.12134361653E+03 -0.23913178188E+03  0.87132126274E+02  0.28195795752E+03  0.00000000000E+00 0. -1.
          2    1    1    2  501    0  0.93998699399E+02 -0.89936731511E+02 -0.29708643730E+02  0.13344277678E+03  0.00000000000E+00 0.  1.
<mgrwt>
<rscale>  4 0.69259278E+03</rscale>
<asrwt>0</asrwt>
<pdfrwt beam="1">  1       21 0.35106572E-01 0.69259278E+03</pdfrwt>
<pdfrwt beam="2">  1        2 0.13381362E+00 0.69259278E+03</pdfrwt>
<totfact> 0.28207856E+03</totfact>
</mgrwt>
</event>
<event>
 5    0  0.3188794E-002  0.4435758E+03  0.7546771E-02  0.1029655E+00
         21   -1    0    0  503  502  0.00000000000E+00  0.00000000000E+00  0.24903568470E+03  0.24903568470E+03  0.00000000000E+00 0. -1.
          2   -1    0    0  502    0 -0.00000000000E+00 -0.00000000000E+00 -0.52560775928E+03  0.52560775928E+03  0.00000000000E+00 0.  1.
         25    1    1    2    0    0 -0.30145884123E+03 -0.63812373441E+01 -0.17168701887E+03  0.36880833179E+03  0.12500000000E+03 0.  0.
         21    1    1    2  503  501  0.37157755136E+02 -0.51957165761E+02  0.61047506145E+02  0.88357477596E+02  0.00000000000E+00 0. -1.
          2    1    1    2  501    0  0.26430108610E+03  0.58338403105E+02 -0.16593256185E+03  0.31747763460E+03  0.00000000000E+00 0.  1.
<mgrwt>
<rscale>  4 0.44357578E+03</rscale>
<asrwt>0</asrwt>
<pdfrwt beam="1">  1       21 0.38313182E-01 0.44357578E+03</pdfrwt>
<pdfrwt beam="2">  1        2 0.80862732E-01 0.44357578E+03</pdfrwt>
<totfact> 0.45719883E+03</totfact>
</mgrwt>
</event>
<event>
 5    0  0.3188794E-002  0.4858337E+03  0.7546771E-02  0.1017544E+00
         21   -1    0    0  501  502  0.00000000000E+00  0.00000000000E+00  0.88695944840E+02  0.88695944840E+02  0.00000000000E+00 0. -1.
          2   -1    0    0  503    0 -0.00000000000E+00 -0.00000000000E+00 -0.80773226434E+03  0.80773226434E+03  0.00000000000E+00 0.  1.
         25    1    1    2    0    0  0.24329123335E+03  0.17105397059E+02 -0.32623892332E+03  0.42607517403E+03  0.12500000000E+03 0.  0.
         21    1    1    2  503  502 -0.20615913229E+03  0.10338120627E+02 -0.35513962901E+03  0.41077076412E+03  0.00000000000E+00 0.  1.
          2    1    1    2  501    0 -0.37132101067E+02 -0.27443517686E+02 -0.37657767165E+02  0.59582271025E+02  0.00000000000E+00 0.  1.
<mgrwt>
<rscale>  4 0.48583371E+03</rscale>
<asrwt>0</asrwt>
<pdfrwt beam="1">  1       21 0.13645530E-01 0.48583371E+03</pdfrwt>
<pdfrwt beam="2">  1        2 0.12426650E+00 0.48583371E+03</pdfrwt>
<totfact> 0.19833645E+04</totfact>
</mgrwt>
</event>
<event>
 5    0  0.3188794E-002  0.3942592E+03  0.7546771E-02  0.1045786E+00
         21   -1    0    0  501  502  0.00000000000E+00  0.00000000000E+00  0.10310074408E+03  0.10310074408E+03  0.00000000000E+00 0.  1.
          2   -1    0    0  503    0 -0.00000000000E+00 -0.00000000000E+00 -0.15134226814E+04  0.15134226814E+04  0.00000000000E+00 0.  1.
         25    1    1    2    0    0 -0.16280375179E+03 -0.22203505791E+03 -0.83203867998E+03  0.88527848360E+03  0.12500000000E+03 0.  0.
         21    1    1    2  503  502  0.68675135937E+02  0.10576539543E+02 -0.47105323894E+03  0.47615049239E+03  0.00000000000E+00 0.  1.
          2    1    1    2  501    0  0.94128615850E+02  0.21145851837E+03 -0.10723001839E+03  0.25509444948E+03  0.00000000000E+00 0.  1.
<mgrwt>
<rscale>  4 0.39425919E+03</rscale>
<asrwt>0</asrwt>
<pdfrwt beam="1">  1       21 0.15861655E-01 0.39425919E+03</pdfrwt>
<pdfrwt beam="2">  1        2 0.23283422E+00 0.39425919E+03</pdfrwt>
<totfact> 0.57478219E+03</totfact>
</mgrwt>
</event>
<event>
 5    0  0.3188794E-002  0.6616516E+03  0.7546771E-02  0.9785158E-01
         21   -1    0    0  501  502  0.00000000000E+00  0.00000000000E+00  0.22085521669E+03  0.22085521669E+03  0.00000000000E+00 0.  1.
          2   -1    0    0  503    0 -0.00000000000E+00 -0.00000000000E+00 -0.20625088892E+04  0.20625088892E+04  0.00000000000E+00 0.  1.
         25    1    1    2    0    0 -0.23072274435E+03 -0.15389611734E+03 -0.18695310039E+04  0.18941193664E+04  0.12500000000E+03 0.  0.
         21    1    1    2  503  502  0.14871158660E+03  0.64110881348E+02 -0.11723059384E+03  0.19992086742E+03  0.00000000000E+00 0. -1.
          2    1    1    2  501    0  0.82011157752E+02  0.89785235987E+02  0.14510792518E+03  0.18932387210E+03  0.00000000000E+00 0.  1.
<mgrwt>
<rscale>  4 0.66165161E+03</rscale>
<asrwt>0</asrwt>
<pdfrwt beam="1">  1       21 0.33977725E-01 0.66165161E+03</pdfrwt>
<pdfrwt beam="2">  1        2 0.31730906E+00 0.66165161E+03</pdfrwt>
<totfact> 0.62472451E+02</totfact>
</mgrwt>
</event>
<event>
 5    0  0.3188794E-002  0.4217047E+03  0.7546771E-02  0.1036513E+00
         -2   -1    0    0    0  501 -0.00000000000E+00  0.00000000000E+00  0.23727612618E+03  0.23727612618E+03  0.00000000000E+00 0. -1.
         21   -1    0    0  503  502  0.00000000000E+00 -0.00000000000E+00 -0.69876383020E+03  0.69876383020E+03  0.00000000000E+00 0.  1.
         25    1    1    2    0    0 -0.20631070286E+03  0.16683379572E+03 -0.92185345879E+02  0.30744228646E+03  0.12500000000E+03 0.  0.
         21    1    1    2  503  501  0.67822466446E+02  0.60816748364E+02  0.69940429196E+02  0.11484871559E+03  0.00000000000E+00 0. -1.
         -2    1    1    2    0  502  0.13848823641E+03 -0.22765054409E+03 -0.43924278733E+03  0.51374895433E+03  0.00000000000E+00 0. -1.
<mgrwt>
<rscale>  4 0.42170470E+03</rscale>
<asrwt>0</asrwt>
<pdfrwt beam="1">  1       21 0.10750213E+00 0.42170470E+03</pdfrwt>
<pdfrwt beam="2">  1       -2 0.36504020E-01 0.42170470E+03</pdfrwt>
<totfact> 0.36388600E+02</totfact>
</mgrwt>
</event>
<event>
 5    0  0.3188794E-002  0.7136498E+03  0.7546771E-02  0.9694170E-01
         21   -1    0    0  501  502  0.00000000000E+00  0.00000000000E+00  0.66953221514E+03  0.66953221514E+03  0.00000000000E+00 0. -1.
          2   -1    0    0  503    0 -0.00000000000E+00 -0.00000000000E+00 -0.84044283382E+03  0.84044283382E+03  0.00000000000E+00 0. -1.
         25    1    1    2    0    0 -0.25171208672E+03 -0.22568403844E+03 -0.24951953528E+03  0.43838026678E+03  0.12500000000E+03 0.  0.
         21    1    1    2  503  502  0.12191469966E+03  0.31622585393E+03 -0.42506816572E+03  0.54364044202E+03  0.00000000000E+00 0. -1.
          2    1    1    2  501    0  0.12979738706E+03 -0.90541815487E+02  0.50367708233E+03  0.52795434017E+03  0.00000000000E+00 0. -1.
<mgrwt>
<rscale>  4 0.71364985E+03</rscale>
<asrwt>0</asrwt>
<pdfrwt beam="1">  1       21 0.10300496E+00 0.71364985E+03</pdfrwt>
<pdfrwt beam="2">  1        2 0.12929890E+00 0.71364985E+03</pdfrwt>
<totfact> 0.26774000E+02</totfact>
</mgrwt>
</event>
<event>
 5    0  0.3188794E-002  0.4351923E+03  0.7546771E-02  0.1032232E+00
          2   -1    0    0  503    0 -0.00000000000E+00  0.00000000000E+00  0.22057295400E+04  0.22057295400E+04  0.00000000000E+00 0. -1.
         21   -1    0    0  501  502  0.00000000000E+00 -0.00000000000E+00 -0.97770834136E+02  0.97770834136E+02  0.00000000000E+00 0. -1.
         25    1    1    2    0    0 -0.11082300975E+02 -0.26204793771E+03  0.94767764435E+03  0.99121635210E+03  0.12500000000E+03 0.  0.
         21    1    1    2  503  502  0.56409015190E+02  0.50791351961E+02  0.10786434215E+04  0.10813109494E+04  0.00000000000E+00 0.  1.
          2    1    1    2  501    0 -0.45326714215E+02  0.21125658575E+03  0.81637640014E+02  0.23097307270E+03  0.00000000000E+00 0. -1.
<mgrwt>
<rscale>  4 0.43519232E+03</rscale>
<asrwt>0</asrwt>
<pdfrwt beam="1">  1       21 0.15041668E-01 0.43519232E+03</pdfrwt>
<pdfrwt beam="2">  1        2 0.33934297E+00 0.43519232E+03</pdfrwt>
<totfact> 0.26693443E+03</totfact>
</mgrwt>
</event>
<event>
 5    0  0.3188794E-002  0.4881475E+03  0.7546771E-02  0.1016920E+00
         21   -1    0    0  501  502  0.00000000000E+00  0.00000000000E+00  0.10250192858E+03  0.10250192858E+03  0.00000000000E+00 0. -1.
          1   -1    0    0  503    0 -0.00000000000E+00 -0.00000000000E+00 -0.92509365905E+03  0.92509365905E+03  0.00000000000E+00 0.  1.
         25    1    1    2    0    0  0.69056428475E+02  0.21200299523E+03 -0.32049814753E+03  0.40994892715E+03  0.12500000000E+03 0.  0.
         21    1    1    2  503  502 -0.10219939057E+03 -0.18578372014E+03 -0.52737250266E+03  0.56840308115E+03  0.00000000000E+00 0.  1.
          1    1    1    2  501    0  0.33142962092E+02 -0.26219275087E+02  0.25278919726E+02  0.49243579326E+02  0.00000000000E+00 0.  1.
<mgrwt>
<rscale>  4 0.48814753E+03</rscale>
<asrwt>0</asrwt>
<pdfrwt beam="1">  1       21 0.15769528E-01 0.48814753E+03</pdfrwt>
<pdfrwt beam="2">  1        1 0.14232210E+00 0.48814753E+03</pdfrwt>
<totfact> 0.68887648E+03</totfact>
</mgrwt>
</event>
<event>
 5    0  0.3188794E-002  0.5157377E+03  0.7546771E-02  0.1009751E+00
          2   -1    0    0  503    0 -0.00000000000E+00  0.00000000000E+00  0.13474506664E+04  0.13474506664E+04  0.00000000000E+00 0.  1.
         21   -1    0    0  501  502  0.00000000000E+00 -0.00000000000E+00 -0.26446134710E+03  0.26446134710E+03  0.00000000000E+00 0.  1.
         25    1    1    2    0    0 -0.23876374142E+02 -0.23741462953E+03  0.51182854738E+03  0.57838503565E+03  0.12500000000E+03 0.  0.
         21    1    1    2  503  502 -0.25064274799E+02  0.22606865693E+03  0.78322992236E+03  0.81558835622E+03  0.00000000000E+00 0.  1.
          2    1    1    2  501    0  0.48940648941E+02  0.11345972596E+02 -0.21206915046E+03  0.21793862161E+03  0.00000000000E+00 0.  1.
<mgrwt>
<rscale>  4 0.51573770E+03</rscale>
<asrwt>0</asrwt>
<pdfrwt beam="1">  1       21 0.40686362E-01 0.51573770E+03</pdfrwt>
<pdfrwt beam="2">  1        2 0.20730010E+00 0.51573770E+03</pdfrwt>
<totfact> 0.10957809E+03</totfact>
</mgrwt>
</event>
<event>
 5    0  0.3188794E-002  0.4145122E+03  0.7546771E-02  0.1038867E+00
          2   -1    0    0  502    0 -0.00000000000E+00  0.00000000000E+00  0.21547817137E+03  0.21547817137E+03  0.00000000000E+00 0. -1.
         21   -1    0    0  503  502  0.00000000000E+00 -0.00000000000E+00 -0.29837959832E+03  0.29837959832E+03  0.00000000000E+00 0.  1.
         25    1    1    2    0    0 -0.20122626259E+03  0.71054331705E+02  0.17498932259E+01  0.24732324787E+03  0.12500000000E+03 0.  0.
         21    1    1    2  503  501  0.12419168393E+03 -0.66037902136E+02 -0.11687830053E+03  0.18288005908E+03  0.00000000000E+00 0.  1.
          2    1    1    2  501    0  0.77034578654E+02 -0.50164295687E+01  0.32226980348E+02  0.83654462740E+02  0.00000000000E+00 0. -1.
<mgrwt>
<rscale>  4 0.41451217E+03</rscale>
<asrwt>0</asrwt>
<pdfrwt beam="1">  1       21 0.45904553E-01 0.41451217E+03</pdfrwt>
<pdfrwt beam="2">  1        2 0.33150488E-01 0.41451217E+03</pdfrwt>
<totfact> 0.84879164E+03</totfact>
</mgrwt>
</event>
<event>
 5    0  0.3188794E-002  0.4709559E+03  0.7546771E-02  0.1021651E+00
          2   -1    0    0  503    0 -0.00000000000E+00  0.00000000000E+00  0.92775521231E+03  0.92775521231E+03  0.00000000000E+00 0. -1.
         21   -1    0    0  501  502  0.00000000000E+00 -0.00000000000E+00 -0.66295414940E+02  0.66295414940E+02  0.00000000000E+00 0.  1.
         25    1    1    2    0    0  0.18544387781E+03 -0.75129773440E+02  0.32054261763E+03  0.39800312108E+03  0.12500000000E+03 0.  0.
         21    1    1    2  503  502 -0.20807689881E+03  0.78904752615E+02  0.51722019767E+03  0.56306188708E+03  0.00000000000E+00 0. -1.
          2    1    1    2  501    0  0.22633021003E+02 -0.37749791744E+01  0.23696982072E+02  0.32985619091E+02  0.00000000000E+00 0. -1.
<mgrwt>
<rscale>  4 0.47095585E+03</rscale>
<asrwt>0</asrwt>
<pdfrwt beam="1">  1       21 0.10199295E-01 0.47095585E+03</pdfrwt>
<pdfrwt beam="2">  1        2 0.14273156E+00 0.47095585E+03</pdfrwt>
<totfact> 0.28002242E+04</totfact>
</mgrwt>
</event>
<event>
 5    0  0.3188794E-002  0.5158272E+03  0.7546771E-02  0.1009728E+00
          2   -1    0    0  503    0 -0.00000000000E+00  0.00000000000E+00  0.30618518491E+03  0.30618518491E+03  0.00000000000E+00 0. -1.
         21   -1    0    0  501  502  0.00000000000E+00 -0.00000000000E+00 -0.24148638118E+03  0.24148638118E+03  0.00000000000E+00 0.  1.
         25    1    1    2    0    0  0.99806601338E+02  0.19049518223E+03  0.11210154225E+03  0.27283974765E+03  0.12500000000E+03 0.  0.
         21    1    1    2  503  502 -0.10921128945E+03 -0.21659935414E+03 -0.46979866666E+02  0.24708195772E+03  0.00000000000E+00 0.  1.
          2    1    1    2  501    0  0.94046881157E+01  0.26104171905E+02 -0.42287185158E+00  0.27749860720E+02  0.00000000000E+00 0. -1.
<mgrwt>
<rscale>  4 0.51582725E+03</rscale>
<asrwt>0</asrwt>
<pdfrwt beam="1">  1       21 0.37151751E-01 0.51582725E+03</pdfrwt>
<pdfrwt beam="2">  1        2 0.47105413E-01 0.51582725E+03</pdfrwt>
<totfact> 0.88303569E+03</totfact>
</mgrwt>
</event>
<event>
 5    0  0.3188794E-002  0.3617405E+03  0.7546771E-02  0.1057897E+00
         -1   -1    0    0    0  501 -0.00000000000E+00  0.00000000000E+00  0.35439077425E+02  0.35439077425E+02  0.00000000000E+00 0.  1.
         21   -1    0    0  501  502  0.00000000000E+00 -0.00000000000E+00 -0.17713000836E+04  0.17713000836E+04  0.00000000000E+00 0. -1.
         25    1    1    2    0    0  0.85677417341E+02  0.18546215182E+03 -0.11631392539E+04  0.11875414745E+04  0.12500000000E+03 0.  0.
         21    1    1    2  503  502 -0.12143767474E+01 -0.11660933102E+03 -0.38352969669E+03  0.40086685949E+03  0.00000000000E+00 0.  1.
         -1    1    1    2    0  503 -0.84463040593E+02 -0.68852820804E+02 -0.18919205562E+03  0.21833082712E+03  0.00000000000E+00 0.  1.
<mgrwt>
<rscale>  4 0.36174050E+03</rscale>
<asrwt>0</asrwt>
<pdfrwt beam="1">  1       21 0.27250771E+00 0.36174050E+03</pdfrwt>
<pdfrwt beam="2">  1       -1 0.54521657E-02 0.36174050E+03</pdfrwt>
<totfact> 0.61035422E+02</totfact>
</mgrwt>
</event>
<event>
 5    0  0.3188794E-002  0.4639151E+03  0.7546771E-02  0.1023652E+00
          1   -1    0    0  502    0 -0.00000000000E+00  0.00000000000E+00  0.32541927162E+03  0.32541927162E+03  0.00000000000E+00 0.  1.
         21   -1    0    0  503  502  0.00000000000E+00 -0.00000000000E+00 -0.52327610592E+03  0.52327610592E+03  0.00000000000E+00 0. -1.
         25    1    1    2    0    0  0.25500153006E+03 -0.20945249722E+03 -0.28089735922E+03  0.45102600295E+03  0.12500000000E+03 0.  0.
         21    1    1    2  503  501  0.14477418994E+02  0.90311157218E+02 -0.31243701746E+00  0.91464738537E+02  0.00000000000E+00 0.  1.
          1    1    1    2  501    0 -0.26947894905E+03  0.11914134000E+03  0.83352961927E+02  0.30620463605E+03  0.00000000000E+00 0.  1.
<mgrwt>
<rscale>  4 0.46391514E+03</rscale>
<asrwt>0</asrwt>
<pdfrwt beam="1">  1       21 0.80504016E-01 0.46391514E+03</pdfrwt>
<pdfrwt beam="2">  1        1 0.50064504E-01 0.46391514E+03</pdfrwt>
<totfact> 0.10769674E+03</totfact>
</mgrwt>
</event>
<event>
 5    0  0.3188794E-002  0.1110283E+04  0.7546771E-02  0.9195227E-01
         21   -1    0    0  501  502  0.00000000000E+00  0.00000000000E+00  0.18133822488E+03  0.18133822488E+03  0.00000000000E+00 0.  1.
          2   -1    0    0  503    0 -0.00000000000E+00 -0.00000000000E+00 -0.22381360203E+04  0.22381360203E+04  0.00000000000E+00 0. -1.
         25    1    1    2    0    0  0.24196116123E+03  0.30813313591E+03 -0.23161123130E+03  0.47197457076E+03  0.12500000000E+03 0.  0.
         21    1    1    2  503  502 -0.18414917965E+03 -0.32684055262E+03 -0.18456442831E+04  0.18833848484E+04  0.00000000000E+00 0. -1.
          2    1    1    2  501    0 -0.57811981572E+02  0.18707416711E+02  0.20457718995E+02  0.64114826053E+02  0.00000000000E+00 0. -1.
<mgrwt>
<rscale>  4 0.11102826E+04</rscale>
<asrwt>0</asrwt>
<pdfrwt beam="1">  1       21 0.27898189E-01 0.11102826E+04</pdfrwt>
<pdfrwt beam="2">  1        2 0.34432861E+00 0.11102826E+04</pdfrwt>
<totfact> 0.69322468E+02</totfact>
</mgrwt>
</event>
<event>
 5    0  0.3188794E-002  0.4469571E+03  0.7546771E-02  0.1028633E+00
         21   -1    0    0  501  502  0.00000000000E+00  0.00000000000E+00  0.75029727582E+02  0.75029727582E+02  0.00000000000E+00 0.  1.
          2   -1    0    0  503    0 -0.00000000000E+00 -0.00000000000E+00 -0.13676194830E+04  0.13676194830E+04  0.00000000000E+00 0. -1.
         25    1    1    2    0    0  0.26627183628E+03  0.17483290759E+02 -0.63203009590E+03  0.69734740149E+03  0.12500000000E+03 0.  0.
         21    1    1    2  503  502 -0.13154674822E+03 -0.19364531076E+02 -0.56419179034E+03  0.57964809007E+03  0.00000000000E+00 0. -1.
          2    1    1    2  501    0 -0.13472508806E+03  0.18812403176E+01 -0.96367869199E+02  0.16565371904E+03  0.00000000000E+00 0. -1.
<mgrwt>
<rscale>  4 0.44695714E+03</rscale>
<asrwt>0</asrwt>
<pdfrwt beam="1">  1       21 0.11543035E-01 0.44695714E+03</pdfrwt>
<pdfrwt beam="2">  1        2 0.21040299E+00 0.44695714E+03</pdfrwt>
<totfact> 0.12277457E+04</totfact>
</mgrwt>
</event>
<event>
 5    0  0.3188794E-002  0.3630712E+03  0.7546771E-02  0.1057374E+00
         21   -1    0    0  501  502  0.00000000000E+00  0.00000000000E+00  0.12059371967E+03  0.12059371967E+03  0.00000000000E+00 0. -1.
          2   -1    0    0  503    0 -0.00000000000E+00 -0.00000000000E+00 -0.82430468494E+03  0.82430468494E+03  0.00000000000E+00 0.  1.
         25    1    1    2    0    0 -0.47736985118E+02  0.20723201592E+03 -0.48543343579E+03  0.54451313001E+03  0.12500000000E+03 0.  0.
         21    1    1    2  503  502  0.33197812341E+02 -0.11068309272E+03 -0.26724431550E+03  0.29115694380E+03  0.00000000000E+00 0. -1.
          2    1    1    2  501    0  0.14539172777E+02 -0.96548923200E+02  0.48966786022E+02  0.10922833080E+03  0.00000000000E+00 0.  1.
<mgrwt>
<rscale>  4 0.36307117E+03</rscale>
<asrwt>0</asrwt>
<pdfrwt beam="1">  1       21 0.18552880E-01 0.36307117E+03</pdfrwt>
<pdfrwt beam="2">  1        2 0.12681610E+00 0.36307117E+03</pdfrwt>
<totfact> 0.11066250E+04</totfact>
</mgrwt>
</event>
<event>
 5    0  0.3188794E-002  0.5014589E+03  0.7546771E-02  0.1013399E+00
          2   -1    0    0  503    0 -0.00000000000E+00  0.00000000000E+00  0.93593882033E+03  0.93593882033E+03  0.00000000000E+00 0.  1.
         21   -1    0    0  501  502  0.00000000000E+00 -0.00000000000E+00 -0.19906395391E+03  0.19906395391E+03  0.00000000000E+00 0. -1.
         25    1    1    2    0    0 -0.21605435126E+03 -0.13544668810E+03  0.55018310274E+03  0.61915404752E+03  0.12500000000E+03 0.  0.
         21    1    1    2  503  502 -0.66886670368E+02  0.17176455758E+03  0.12853655827E+03  0.22471879477E+03  0.00000000000E+00 0. -1.
          2    1    1    2  501    0  0.28294102163E+03 -0.36317869474E+02  0.58155205416E+02  0.29112993195E+03  0.00000000000E+00 0.  1.
<mgrwt>
<rscale>  4 0.50145887E+03</rscale>
<asrwt>0</asrwt>
<pdfrwt beam="1">  1       21 0.30625224E-01 0.50145887E+03</pdfrwt>
<pdfrwt beam="2">  1        2 0.14399059E+00 0.50145887E+03</pdfrwt>
<totfact> 0.34513306E+03</totfact>
</mgrwt>
</event>
<event>
 5    0  0.3188794E-002  0.3682268E+03  0.7546771E-02  0.1055373E+00
          2   -1    0    0  503    0 -0.00000000000E+00  0.00000000000E+00  0.10399432855E+04  0.10399432855E+04  0.00000000000E+00 0. -1.
         21   -1    0    0  501  502  0.00000000000E+00 -0.00000000000E+00 -0.70072124621E+02  0.70072124621E+02  0.00000000000E+00 0.  1.
         25    1    1    2    0    0  0.14301796415E+03 -0.16800693813E+03  0.65374259360E+03  0.70120243013E+03  0.12500000000E+03 0.  0.
         21    1    1    2  503  502 -0.10443555517E+03  0.26012710280E+02  0.17162282897E+03  0.20257798919E+03  0.00000000000E+00 0. -1.
          2    1    1    2  501    0 -0.38582408978E+02  0.14199422785E+03  0.14450573829E+03  0.20623499078E+03  0.00000000000E+00 0. -1.
<mgrwt>
<rscale>  4 0.36822679E+03</rscale>
<asrwt>0</asrwt>
<pdfrwt beam="1">  1       21 0.10780328E-01 0.36822679E+03</pdfrwt>
<pdfrwt beam="2">  1        2 0.15999126E+00 0.36822679E+03</pdfrwt>
<totfact> 0.21774582E+04</totfact>
</mgrwt>
</event>
<event>
 5    0  0.3188794E-002  0.8432894E+03  0.7546771E-02  0.9499388E-01
         21   -1    0    0  501  502  0.00000000000E+00  0.00000000000E+00  0.84465640166E+03  0.84465640166E+03  0.00000000000E+00 0. -1.
          2   -1    0    0  503    0 -0.00000000000E+00 -0.00000000000E+00 -0.41852746874E+03  0.41852746874E+03  0.00000000000E+00 0. -1.
         25    1    1    2    0    0 -0.21676922087E+03 -0.34689010034E+03 -0.12845273290E+03  0.44659460523E+03  0.12500000000E+03 0.  0.
         21    1    1    2  503  502  0.28031385919E+03  0.23441954585E+03  0.15550817857E+03  0.39712866521E+03  0.00000000000E+00 0.  1.
          2    1    1    2  501    0 -0.63544638322E+02  0.11247055450E+03  0.39907348725E+03  0.41946059996E+03  0.00000000000E+00 0. -1.
<mgrwt>
<rscale>  4 0.84328937E+03</rscale>
<asrwt>0</asrwt>
<pdfrwt beam="1">  1       21 0.12994714E+00 0.84328937E+03</pdfrwt>
<pdfrwt beam="2">  1        2 0.64388842E-01 0.84328937E+03</pdfrwt>
<totfact> 0.33825440E+02</totfact>
</mgrwt>
</event>
<event>
 5    0  0.3188794E-002  0.3782958E+03  0.7546771E-02  0.1051565E+00
          2   -1    0    0  503    0 -0.00000000000E+00  0.00000000000E+00  0.34624276419E+04  0.34624276419E+04  0.00000000000E+00 0.  1.
         21   -1    0    0  501  502  0.00000000000E+00 -0.00000000000E+00 -0.24488313561E+02  0.24488313561E+02  0.00000000000E+00 0. -1.
         25    1    1    2    0    0  0.13947564984E+03 -0.20069736319E+03  0.16768630587E+04  0.16991843944E+04  0.12500000000E+03 0.  0.
         21    1    1    2  503  502 -0.10308793881E+03 -0.10101180905E+00  0.54847567486E+03  0.55807947395E+03  0.00000000000E+00 0.  1.
          2    1    1    2  501    0 -0.36387711029E+02  0.20079837500E+03  0.12126005948E+04  0.12296520872E+04  0.00000000000E+00 0.  1.
<mgrwt>
<rscale>  4 0.37829577E+03</rscale>
<asrwt>0</asrwt>
<pdfrwt beam="1">  1       21 0.37674356E-02 0.37829577E+03</pdfrwt>
<pdfrwt beam="2">  1        2 0.53268079E+00 0.37829577E+03</pdfrwt>
<totfact> 0.56876428E+03</totfact>
</mgrwt>
</event>
<event>
 5    0  0.3188794E-002  0.7476654E+03  0.7546771E-02  0.9639020E-01
          1   -1    0    0  502    0 -0.00000000000E+00  0.00000000000E+00  0.29625148231E+04  0.29625148231E+04  0.00000000000E+00 0. -1.
         21   -1    0    0  503  502  0.00000000000E+00 -0.00000000000E+00 -0.14693490152E+03  0.14693490152E+03  0.00000000000E+00 0.  1.
         25    1    1    2    0    0 -0.25085592956E+03  0.12326963563E+03  0.31040268800E+03  0.43600335914E+03  0.12500000000E+03 0.  0.
         21    1    1    2  503  501  0.43778127989E+03 -0.42671957019E+02  0.53419824823E+03  0.69198346320E+03  0.00000000000E+00 0.  1.
          1    1    1    2  501    0 -0.18692535033E+03 -0.80597678609E+02  0.19709789854E+04  0.19814629023E+04  0.00000000000E+00 0. -1.
<mgrwt>
<rscale>  4 0.74766539E+03</rscale>
<asrwt>0</asrwt>
<pdfrwt beam="1">  1       21 0.22605372E-01 0.74766539E+03</pdfrwt>
<pdfrwt beam="2">  1        1 0.45577147E+00 0.74766539E+03</pdfrwt>
<totfact> 0.12935813E+02</totfact>
</mgrwt>
</event>
<event>
 5    0  0.3188794E-002  0.4845748E+03  0.7546771E-02  0.1017885E+00
          1   -1    0    0  503    0 -0.00000000000E+00  0.00000000000E+00  0.89514773390E+03  0.89514773390E+03  0.00000000000E+00 0. -1.
         21   -1    0    0  501  502  0.00000000000E+00 -0.00000000000E+00 -0.87507753462E+02  0.87507753462E+02  0.00000000000E+00 0.  1.
         25    1    1    2    0    0  0.22026216593E+03 -0.54097590872E+02  0.29787434265E+03  0.39471014059E+03  0.12500000000E+03 0.  0.
         21    1    1    2  503  502 -0.19585915101E+03  0.27306952242E+02  0.51469045996E+03  0.55137350884E+03  0.00000000000E+00 0. -1.
          1    1    1    2  501    0 -0.24403014923E+02  0.26790638630E+02 -0.49248221772E+01  0.36571837922E+02  0.00000000000E+00 0. -1.
<mgrwt>
<rscale>  4 0.48457478E+03</rscale>
<asrwt>0</asrwt>
<pdfrwt beam="1">  1       21 0.13462732E-01 0.48457478E+03</pdfrwt>
<pdfrwt beam="2">  1        1 0.13771503E+00 0.48457478E+03</pdfrwt>
<totfact> 0.97635306E+03</totfact>
</mgrwt>
</event>
<event>
 5    0  0.3188794E-002  0.5114651E+03  0.7546771E-02  0.1010829E+00
         21   -1    0    0  501  502  0.00000000000E+00  0.00000000000E+00  0.75212974625E+03  0.75212974625E+03  0.00000000000E+00 0.  1.
          1   -1    0    0  503    0 -0.00000000000E+00 -0.00000000000E+00 -0.15106563455E+03  0.15106563455E+03  0.00000000000E+00 0. -1.
         25    1    1    2    0    0  0.17409470092E+03  0.98668256306E+02  0.88805885441E+02  0.25210290554E+03  0.12500000000E+03 0.  0.
         21    1    1    2  503  502 -0.26080730697E+03 -0.45927882411E+02  0.22865386477E+03  0.34987485138E+03  0.00000000000E+00 0.  1.
          1    1    1    2  501    0  0.86712606046E+02 -0.52740373895E+02  0.28360436149E+03  0.30121762389E+03  0.00000000000E+00 0. -1.
<mgrwt>
<rscale>  4 0.51146508E+03</rscale>
<asrwt>0</asrwt>
<pdfrwt beam="1">  1       21 0.11571227E+00 0.51146508E+03</pdfrwt>
<pdfrwt beam="2">  1        1 0.23240867E-01 0.51146508E+03</pdfrwt>
<totfact> 0.11930015E+03</totfact>
</mgrwt>
</event>
<event>
 5    0  0.3188794E-002  0.5654507E+03  0.7546771E-02  0.9979796E-01
          4   -1    0    0  503    0 -0.00000000000E+00  0.00000000000E+00  0.72972235446E+03  0.72972235446E+03  0.00000000000E+00 0.  1.
         21   -1    0    0  501  502  0.00000000000E+00 -0.00000000000E+00 -0.15534482116E+04  0.15534482116E+04  0.00000000000E+00 0.  1.
         25    1    1    2    0    0  0.22289562271E+03 -0.12733499893E+03  0.58637532947E+03  0.65219451668E+03  0.12500000000E+03 0.  0.
         21    1    1    2  503  502 -0.17741318495E+03 -0.34469514818E+02  0.28174057529E+02  0.18291354013E+03  0.00000000000E+00 0. -1.
          4    1    1    2  501    0 -0.45482437758E+02  0.16180451375E+03 -0.14382752441E+04  0.14480625092E+04  0.00000000000E+00 0.  1.
<mgrwt>
<rscale>  4 0.56545072E+03</rscale>
<asrwt>0</asrwt>
<pdfrwt beam="1">  1       21 0.23899203E+00 0.56545072E+03</pdfrwt>
<pdfrwt beam="2">  1        4 0.11226498E+00 0.56545072E+03</pdfrwt>
<totfact> 0.17290503E+00</totfact>
</mgrwt>
</event>
<event>
 5    0  0.3188794E-002  0.5058599E+03  0.7546771E-02  0.1012261E+00
         21   -1    0    0  501  502  0.00000000000E+00  0.00000000000E+00  0.47676890860E+02  0.47676890860E+02  0.00000000000E+00 0.  1.
          1   -1    0    0  503    0 -0.00000000000E+00 -0.00000000000E+00 -0.34069844252E+04  0.34069844252E+04  0.00000000000E+00 0. -1.
         25    1    1    2    0    0 -0.92106805693E+02 -0.20101091498E+03 -0.69376886373E+03  0.73880260414E+03  0.12500000000E+03 0.  0.
         21    1    1    2  503  502  0.10144303315E+03 -0.70998301770E+02 -0.18880960114E+04  0.18921516842E+04  0.00000000000E+00 0. -1.
          1    1    1    2  501    0 -0.93362274552E+01  0.27200921675E+03 -0.77744265927E+03  0.82370702777E+03  0.00000000000E+00 0. -1.
<mgrwt>
<rscale>  4 0.50585990E+03</rscale>
<asrwt>0</asrwt>
<pdfrwt beam="1">  1       21 0.73349059E-02 0.50585990E+03</pdfrwt>
<pdfrwt beam="2">  1        1 0.52415147E+00 0.50585990E+03</pdfrwt>
<totfact> 0.51978510E+02</totfact>
</mgrwt>
</event>
<event>
 5    0  0.3188794E-002  0.4630984E+03  0.7546771E-02  0.1023886E+00
         21   -1    0    0  501  502  0.00000000000E+00  0.00000000000E+00  0.10915470067E+03  0.10915470067E+03  0.00000000000E+00 0.  1.
          2   -1    0    0  503    0 -0.00000000000E+00 -0.00000000000E+00 -0.25280092251E+04  0.25280092251E+04  0.00000000000E+00 0.  1.
         25    1    1    2    0    0 -0.30262994184E+03 -0.11761551247E+03 -0.13910973984E+04  0.14339439537E+04  0.12500000000E+03 0.  0.
         21    1    1    2  503  502 -0.15073919079E+02 -0.10723104052E+03 -0.65636962427E+03  0.66524191295E+03  0.00000000000E+00 0. -1.
          2    1    1    2  501    0  0.31770386092E+03  0.22484655299E+03 -0.37138750174E+03  0.53797805911E+03  0.00000000000E+00 0.  1.
<mgrwt>
<rscale>  4 0.46309836E+03</rscale>
<asrwt>0</asrwt>
<pdfrwt beam="1">  1       21 0.16793031E-01 0.46309836E+03</pdfrwt>
<pdfrwt beam="2">  1        2 0.38892449E+00 0.46309836E+03</pdfrwt>
<totfact> 0.14341684E+03</totfact>
</mgrwt>
</event>
<event>
 5    0  0.3188794E-002  0.5685889E+03  0.7546771E-02  0.9972806E-01
         21   -1    0    0  501  502  0.00000000000E+00  0.00000000000E+00  0.65357005012E+02  0.65357005012E+02  0.00000000000E+00 0.  1.
          2   -1    0    0  503    0 -0.00000000000E+00 -0.00000000000E+00 -0.34066777623E+04  0.34066777623E+04  0.00000000000E+00 0. -1.
         25    1    1    2    0    0  0.39815760210E+03  0.12208834608E+03 -0.19528480857E+04  0.20006688097E+04  0.12500000000E+03 0.  0.
         21    1    1    2  503  502 -0.57382491014E+02  0.34729127931E+02 -0.56883332275E+02  0.87946438771E+02  0.00000000000E+00 0. -1.
          2    1    1    2  501    0 -0.34077511108E+03 -0.15681747401E+03 -0.13315893393E+04  0.13834195188E+04  0.00000000000E+00 0. -1.
<mgrwt>
<rscale>  4 0.56858885E+03</rscale>
<asrwt>0</asrwt>
<pdfrwt beam="1">  1       21 0.10054921E-01 0.56858885E+03</pdfrwt>
<pdfrwt beam="2">  1        2 0.52410441E+00 0.56858885E+03</pdfrwt>
<totfact> 0.10530876E+03</totfact>
</mgrwt>
</event>
<event>
 5    0  0.3188794E-002  0.2908469E+03  0.7546771E-02  0.1089908E+00
         -3   -1    0    0    0  501 -0.00000000000E+00  0.00000000000E+00  0.77388293392E+03  0.77388293392E+03  0.00000000000E+00 0. -1.
         21   -1    0    0  503  502  0.00000000000E+00 -0.00000000000E+00 -0.15777502381E+03  0.15777502381E+03  0.00000000000E+00 0. -1.
         25    1    1    2    0    0  0.20766102083E+03  0.99757977261E+02  0.61307400955E+03  0.66675294884E+03  0.12500000000E+03 0.  0.
         21    1    1    2  503  501 -0.77591362399E+01  0.21134593166E+02  0.20752692559E+02  0.30619429647E+02  0.00000000000E+00 0.  1.
         -3    1    1    2    0  502 -0.19990188459E+03 -0.12089257043E+03 -0.17718792000E+02  0.23428557923E+03  0.00000000000E+00 0. -1.
<mgrwt>
<rscale>  4 0.29084695E+03</rscale>
<asrwt>0</asrwt>
<pdfrwt beam="1">  1       21 0.24273081E-01 0.29084695E+03</pdfrwt>
<pdfrwt beam="2">  1       -3 0.11905891E+00 0.29084695E+03</pdfrwt>
<totfact> 0.47019731E+02</totfact>
</mgrwt>
</event>
<event>
 5    0  0.3188794E-002  0.4279933E+03  0.7546771E-02  0.1034496E+00
          2   -1    0    0  503    0 -0.00000000000E+00  0.00000000000E+00  0.58167122004E+03  0.58167122004E+03  0.00000000000E+00 0.  1.
         21   -1    0    0  501  502  0.00000000000E+00 -0.00000000000E+00 -0.17584815564E+03  0.17584815564E+03  0.00000000000E+00 0. -1.
         25    1    1    2    0    0 -0.13908700275E+03 -0.15278045132E+03  0.31777830644E+03  0.39911791827E+03  0.12500000000E+03 0.  0.
         21    1    1    2  503  502  0.12070052543E+03  0.13918142202E+03  0.18363181570E+03  0.26011675996E+03  0.00000000000E+00 0. -1.
          2    1    1    2  501    0  0.18386477314E+02  0.13599029301E+02 -0.95587057743E+02  0.98284697455E+02  0.00000000000E+00 0.  1.
<mgrwt>
<rscale>  4 0.42799328E+03</rscale>
<asrwt>0</asrwt>
<pdfrwt beam="1">  1       21 0.27053563E-01 0.42799328E+03</pdfrwt>
<pdfrwt beam="2">  1        2 0.89487880E-01 0.42799328E+03</pdfrwt>
<totfact> 0.81747630E+03</totfact>
</mgrwt>
</event>
<event>
 5    0  0.3188794E-002  0.5748500E+03  0.7546771E-02  0.9959003E-01
          3   -1    0    0  503    0 -0.00000000000E+00  0.00000000000E+00  0.20331588370E+03  0.20331588370E+03  0.00000000000E+00 0.  1.
         21   -1    0    0  501  502  0.00000000000E+00 -0.00000000000E+00 -0.81713606368E+03  0.81713606368E+03  0.00000000000E+00 0.  1.
         25    1    1    2    0    0  0.10305143617E+03 -0.19661813013E+03 -0.13014750412E+03  0.28607981477E+03  0.12500000000E+03 0.  0.
         21    1    1    2  503  502 -0.15518752344E+03  0.27638681965E+03 -0.90249498547E+02  0.32957216736E+03  0.00000000000E+00 0.  1.
          3    1    1    2  501    0  0.52136087275E+02 -0.79768689523E+02 -0.39342317731E+03  0.40479996525E+03  0.00000000000E+00 0.  1.
<mgrwt>
<rscale>  4 0.57485000E+03</rscale>
<asrwt>0</asrwt>
<pdfrwt beam="1">  1       21 0.12571324E+00 0.57485000E+03</pdfrwt>
<pdfrwt beam="2">  1        3 0.31279367E-01 0.57485000E+03</pdfrwt>
<totfact> 0.21208425E+02</totfact>
</mgrwt>
</event>
<event>
 5    0  0.3188794E-002  0.4161228E+03  0.7546771E-02  0.1038336E+00
          2   -1    0    0  503    0 -0.00000000000E+00  0.00000000000E+00  0.62039100073E+03  0.62039100073E+03  0.00000000000E+00 0.  1.
         21   -1    0    0  501  502  0.00000000000E+00 -0.00000000000E+00 -0.14805254079E+03  0.14805254079E+03  0.00000000000E+00 0.  1.
         25    1    1    2    0    0 -0.63055417503E+02  0.20207832552E+03  0.46183664178E+03  0.52319185679E+03  0.12500000000E+03 0.  0.
         21    1    1    2  503  502 -0.26916357380E+02 -0.65319076816E+02 -0.29779797877E+02  0.76667518887E+02  0.00000000000E+00 0. -1.
          2    1    1    2  501    0  0.89971774883E+02 -0.13675924870E+03  0.40281616043E+02  0.16858416584E+03  0.00000000000E+00 0.  1.
<mgrwt>
<rscale>  4 0.41612276E+03</rscale>
<asrwt>0</asrwt>
<pdfrwt beam="1">  1       21 0.22777314E-01 0.41612276E+03</pdfrwt>
<pdfrwt beam="2">  1        2 0.95444768E-01 0.41612276E+03</pdfrwt>
<totfact> 0.10594239E+04</totfact>
</mgrwt>
</event>
<event>
 5    0  0.3188794E-002  0.4599423E+03  0.7546771E-02  0.1024798E+00
         21   -1    0    0  501  502  0.00000000000E+00  0.00000000000E+00  0.47419803379E+02  0.47419803379E+02  0.00000000000E+00 0.  1.
          1   -1    0    0  503    0 -0.00000000000E+00 -0.00000000000E+00 -0.15634663102E+04  0.15634663102E+04  0.00000000000E+00 0.  1.
         25    1    1    2    0    0 -0.17889891632E+03 -0.92827813379E+02 -0.71786733504E+03  0.75602932212E+03  0.12500000000E+03 0.  0.
         21    1    1    2  503  502  0.19856515585E+03  0.97025662054E+02 -0.80408088728E+03  0.83389937853E+03  0.00000000000E+00 0.  1.
          1    1    1    2  501    0 -0.19666239538E+02 -0.41978486752E+01  0.59017154949E+01  0.20957412933E+02  0.00000000000E+00 0.  1.
<mgrwt>
<rscale>  4 0.45994226E+03</rscale>
<asrwt>0</asrwt>
<pdfrwt beam="1">  1       21 0.72953542E-02 0.45994226E+03</pdfrwt>
<pdfrwt beam="2">  1        1 0.24053328E+00 0.45994226E+03</pdfrwt>
<totfact> 0.97774523E+03</totfact>
</mgrwt>
</event>
<event>
 5    0  0.3188794E-002  0.4941820E+03  0.7546771E-02  0.1015309E+00
          2   -1    0    0  503    0 -0.00000000000E+00  0.00000000000E+00  0.14219382903E+04  0.14219382903E+04  0.00000000000E+00 0. -1.
         21   -1    0    0  501  502  0.00000000000E+00 -0.00000000000E+00 -0.62884454216E+02  0.62884454216E+02  0.00000000000E+00 0.  1.
         25    1    1    2    0    0 -0.58956352202E+02 -0.21985036519E+03  0.59273708148E+03  0.64712617185E+03  0.12500000000E+03 0.  0.
         21    1    1    2  503  502  0.83643225920E+02  0.20931425892E+03  0.77682857562E+03  0.80887037536E+03  0.00000000000E+00 0.  1.
          2    1    1    2  501    0 -0.24686873717E+02  0.10536106269E+02 -0.10511821026E+02  0.28826197295E+02  0.00000000000E+00 0. -1.
<mgrwt>
<rscale>  4 0.49418201E+03</rscale>
<asrwt>0</asrwt>
<pdfrwt beam="1">  1       21 0.96745325E-02 0.49418201E+03</pdfrwt>
<pdfrwt beam="2">  1        2 0.21875971E+00 0.49418201E+03</pdfrwt>
<totfact> 0.15652708E+04</totfact>
</mgrwt>
</event>
<event>
 5    0  0.3188794E-002  0.1375563E+04  0.7546771E-02  0.8971699E-01
          2   -1    0    0  503    0 -0.00000000000E+00  0.00000000000E+00  0.10190035512E+04  0.10190035512E+04  0.00000000000E+00 0. -1.
         21   -1    0    0  501  502  0.00000000000E+00 -0.00000000000E+00 -0.97743376707E+03  0.97743376707E+03  0.00000000000E+00 0.  1.
         25    1    1    2    0    0  0.64111478041E+03 -0.31261637254E+03  0.13322502026E+03  0.73629550051E+03  0.12500000000E+03 0.  0.
         21    1    1    2  503  502 -0.53380696252E+03  0.31233470412E+03  0.41333637667E+03  0.74387485568E+03  0.00000000000E+00 0. -1.
          2    1    1    2  501    0 -0.10730781789E+03  0.28166842603E+00 -0.50499161281E+03  0.51626696207E+03  0.00000000000E+00 0. -1.
<mgrwt>
<rscale>  4 0.13755635E+04</rscale>
<asrwt>0</asrwt>
<pdfrwt beam="1">  1       21 0.15037443E+00 0.13755635E+04</pdfrwt>
<pdfrwt beam="2">  1        2 0.15676978E+00 0.13755635E+04</pdfrwt>
<totfact> 0.68164715E+01</totfact>
</mgrwt>
</event>
<event>
 5    0  0.3188794E-002  0.4953886E+03  0.7546771E-02  0.1014990E+00
          1   -1    0    0  503    0 -0.00000000000E+00  0.00000000000E+00  0.49848184068E+03  0.49848184068E+03  0.00000000000E+00 0. -1.
         21   -1    0    0  501  502  0.00000000000E+00 -0.00000000000E+00 -0.38539548274E+03  0.38539548274E+03  0.00000000000E+00 0. -1.
         25    1    1    2    0    0 -0.37515068649E+01 -0.23020555098E+03  0.94219191103E+02  0.27840784019E+03  0.12500000000E+03 0.  0.
         21    1    1    2  503  502 -0.20570016986E+02  0.19639363258E+03  0.27911786197E+03  0.34190695428E+03  0.00000000000E+00 0. -1.
          1    1    1    2  501    0  0.24321523851E+02  0.33811918398E+02 -0.26025069513E+03  0.26356252895E+03  0.00000000000E+00 0. -1.
<mgrwt>
<rscale>  4 0.49538862E+03</rscale>
<asrwt>0</asrwt>
<pdfrwt beam="1">  1       21 0.59291612E-01 0.49538862E+03</pdfrwt>
<pdfrwt beam="2">  1        1 0.76689514E-01 0.49538862E+03</pdfrwt>
<totfact> 0.12157376E+03</totfact>
</mgrwt>
</event>
<event>
 5    0  0.3188794E-002  0.5690139E+03  0.7546771E-02  0.9971863E-01
         21   -1    0    0  501  502  0.00000000000E+00  0.00000000000E+00  0.11942490061E+04  0.11942490061E+04  0.00000000000E+00 0. -1.
         -3   -1    0    0    0  501 -0.00000000000E+00 -0.00000000000E+00 -0.28917594895E+03  0.28917594895E+03  0.00000000000E+00 0. -1.
         25    1    1    2    0    0  0.41296199597E+03  0.63450083997E+02  0.49962676845E+03  0.66318581938E+03  0.12500000000E+03 0.  0.
         21    1    1    2  503  502  0.50692163746E+02 -0.70503771542E+02  0.34123037544E+03  0.35210601584E+03  0.00000000000E+00 0. -1.
         -3    1    1    2    0  503 -0.46365415972E+03  0.70536875445E+01  0.64215913218E+02  0.46813311979E+03  0.00000000000E+00 0. -1.
<mgrwt>
<rscale>  4 0.56901386E+03</rscale>
<asrwt>0</asrwt>
<pdfrwt beam="1">  1       21 0.18373061E+00 0.56901386E+03</pdfrwt>
<pdfrwt beam="2">  1       -3 0.44488608E-01 0.56901386E+03</pdfrwt>
<totfact> 0.37295231E+01</totfact>
</mgrwt>
</event>
<event>
 5    0  0.3188794E-002  0.6005603E+03  0.7546771E-02  0.9904244E-01
         21   -1    0    0  501  502  0.00000000000E+00  0.00000000000E+00  0.13820782565E+03  0.13820782565E+03  0.00000000000E+00 0. -1.
          2   -1    0    0  503    0 -0.00000000000E+00 -0.00000000000E+00 -0.25295233374E+04  0.25295233374E+04  0.00000000000E+00 0. -1.
         25    1    1    2    0    0  0.12718752188E+03 -0.20337846465E+03 -0.20287233003E+04  0.20466760112E+04  0.12500000000E+03 0.  0.
         21    1    1    2  503  502  0.78471221746E+02  0.19366363117E+03 -0.35870589720E+03  0.41513040767E+03  0.00000000000E+00 0.  1.
          2    1    1    2  501    0 -0.20565874363E+03  0.97148334825E+01 -0.38863142219E+01  0.20592474416E+03  0.00000000000E+00 0. -1.
<mgrwt>
<rscale>  4 0.60056030E+03</rscale>
<asrwt>0</asrwt>
<pdfrwt beam="1">  1       21 0.21262743E-01 0.60056030E+03</pdfrwt>
<pdfrwt beam="2">  1        2 0.38915742E+00 0.60056030E+03</pdfrwt>
<totfact> 0.88222274E+02</totfact>
</mgrwt>
</event>
<event>
 5    0  0.3188794E-002  0.4673066E+03  0.7546771E-02  0.1022683E+00
          1   -1    0    0  503    0 -0.00000000000E+00  0.00000000000E+00  0.34596648366E+03  0.34596648366E+03  0.00000000000E+00 0. -1.
         21   -1    0    0  501  502  0.00000000000E+00 -0.00000000000E+00 -0.28917310029E+03  0.28917310029E+03  0.00000000000E+00 0. -1.
         25    1    1    2    0    0 -0.34338060369E+02  0.20868695776E+03 -0.29533310724E+02  0.24744002339E+03  0.12500000000E+03 0.  0.
         21    1    1    2  503  502 -0.55929965935E+02 -0.15239935102E+03  0.18252640183E+03  0.24427363887E+03  0.00000000000E+00 0.  1.
          1    1    1    2  501    0  0.90268026304E+02 -0.56287606750E+02 -0.96199707731E+02  0.14342592169E+03  0.00000000000E+00 0. -1.
<mgrwt>
<rscale>  4 0.46730658E+03</rscale>
<asrwt>0</asrwt>
<pdfrwt beam="1">  1       21 0.44488169E-01 0.46730658E+03</pdfrwt>
<pdfrwt beam="2">  1        1 0.53225613E-01 0.46730658E+03</pdfrwt>
<totfact> 0.36577990E+03</totfact>
</mgrwt>
</event>
<event>
 5    0  0.3188794E-002  0.4662143E+03  0.7546771E-02  0.1022994E+00
          4   -1    0    0  503    0 -0.00000000000E+00  0.00000000000E+00  0.23539598031E+04  0.23539598031E+04  0.00000000000E+00 0.  1.
         21   -1    0    0  501  502  0.00000000000E+00 -0.00000000000E+00 -0.60550499370E+02  0.60550499370E+02  0.00000000000E+00 0. -1.
         25    1    1    2    0    0  0.29385740197E+03 -0.18099702048E+03  0.12459513963E+04  0.12988964454E+04  0.12500000000E+03 0.  0.
         21    1    1    2  503  502 -0.33301178165E+02  0.91855966228E+02  0.40507845415E+03  0.41669538156E+03  0.00000000000E+00 0.  1.
          4    1    1    2  501    0 -0.26055622380E+03  0.89141054250E+02  0.64237945333E+03  0.69891847548E+03  0.00000000000E+00 0.  1.
<mgrwt>
<rscale>  4 0.46621427E+03</rscale>
<asrwt>0</asrwt>
<pdfrwt beam="1">  1       21 0.93154633E-02 0.46621427E+03</pdfrwt>
<pdfrwt beam="2">  1        4 0.36214759E+00 0.46621427E+03</pdfrwt>
<totfact> 0.55161297E+01</totfact>
</mgrwt>
</event>
<event>
 5    0  0.3188794E-002  0.4198393E+03  0.7546771E-02  0.1037119E+00
         21   -1    0    0  501  502  0.00000000000E+00  0.00000000000E+00  0.29030559843E+03  0.29030559843E+03  0.00000000000E+00 0. -1.
          2   -1    0    0  503    0 -0.00000000000E+00 -0.00000000000E+00 -0.28179525908E+03  0.28179525908E+03  0.00000000000E+00 0. -1.
         25    1    1    2    0    0  0.20302916078E+03  0.19328169055E+02 -0.58478151055E+02  0.24625010131E+03  0.12500000000E+03 0.  0.
         21    1    1    2  503  502 -0.17673230724E+03 -0.34344274936E+02 -0.64253465629E+02  0.19116052283E+03  0.00000000000E+00 0.  1.
          2    1    1    2  501    0 -0.26296853541E+02  0.15016105881E+02  0.13124195603E+03  0.13469023337E+03  0.00000000000E+00 0. -1.
<mgrwt>
<rscale>  4 0.41983926E+03</rscale>
<asrwt>0</asrwt>
<pdfrwt beam="1">  1       21 0.44662400E-01 0.41983926E+03</pdfrwt>
<pdfrwt beam="2">  1        2 0.43353117E-01 0.41983926E+03</pdfrwt>
<totfact> 0.66851579E+03</totfact>
</mgrwt>
</event>
<event>
 5    0  0.3188794E-002  0.3689373E+03  0.7546771E-02  0.1055100E+00
         -2   -1    0    0    0  501 -0.00000000000E+00  0.00000000000E+00  0.65347246489E+03  0.65347246489E+03  0.00000000000E+00 0.  1.
         21   -1    0    0  503  502  0.00000000000E+00 -0.00000000000E+00 -0.16140055859E+03  0.16140055859E+03  0.00000000000E+00 0. -1.
         25    1    1    2    0    0 -0.53510876171E+02 -0.27735755155E+03  0.18219030145E+03  0.35862087392E+03  0.12500000000E+03 0.  0.
         21    1    1    2  503  501  0.59441829321E+02  0.25657388427E+01  0.45727213169E+02  0.75039270472E+02  0.00000000000E+00 0.  1.
         -2    1    1    2    0  502 -0.59309531497E+01  0.27479181271E+03  0.26415439169E+03  0.38121287909E+03  0.00000000000E+00 0.  1.
<mgrwt>
<rscale>  4 0.36893729E+03</rscale>
<asrwt>0</asrwt>
<pdfrwt beam="1">  1       21 0.24830856E-01 0.36893729E+03</pdfrwt>
<pdfrwt beam="2">  1       -2 0.10053422E+00 0.36893729E+03</pdfrwt>
<totfact> 0.10253352E+03</totfact>
</mgrwt>
</event>
<event>
 5    0  0.3188794E-002  0.4947411E+03  0.7546771E-02  0.1015161E+00
         21   -1    0    0  503  502  0.00000000000E+00  0.00000000000E+00  0.12898473722E+04  0.12898473722E+04  0.00000000000E+00 0. -1.
         -2   -1    0    0    0  501 -0.00000000000E+00 -0.00000000000E+00 -0.30551639834E+03  0.30551639834E+03  0.00000000000E+00 0. -1.
         25    1    1    2    0    0 -0.14769046241E+03 -0.17483025044E+03 -0.13982598393E+03  0.29589591909E+03  0.12500000000E+03 0.  0.
         21    1    1    2  503  501  0.17286184253E+03  0.11276305565E+03  0.36308048966E+02  0.20955905550E+03  0.00000000000E+00 0.  1.
         -2    1    1    2    0  502 -0.25171380126E+02  0.62067194786E+02  0.10878489089E+04  0.10899087960E+04  0.00000000000E+00 0. -1.
<mgrwt>
<rscale>  4 0.49474111E+03</rscale>
<asrwt>0</asrwt>
<pdfrwt beam="1">  1       21 0.19843805E+00 0.49474111E+03</pdfrwt>
<pdfrwt beam="2">  1       -2 0.47002523E-01 0.49474111E+03</pdfrwt>
<totfact> 0.41134982E+01</totfact>
</mgrwt>
</event>
<event>
 5    0  0.3188794E-002  0.3865419E+03  0.7546771E-02  0.1048542E+00
          2   -1    0    0  503    0 -0.00000000000E+00  0.00000000000E+00  0.14137260016E+04  0.14137260016E+04  0.00000000000E+00 0.  1.
         21   -1    0    0  501  502  0.00000000000E+00 -0.00000000000E+00 -0.46630024609E+02  0.46630024609E+02  0.00000000000E+00 0. -1.
         25    1    1    2    0    0  0.87418012158E+02  0.21552971005E+03  0.62794020669E+03  0.68119664411E+03  0.12500000000E+03 0.  0.
         21    1    1    2  503  502 -0.79162231906E+02 -0.89026300688E+02  0.38407097009E+03  0.40212293051E+03  0.00000000000E+00 0.  1.
          2    1    1    2  501    0 -0.82557802524E+01 -0.12650340937E+03  0.35508480020E+03  0.37703645158E+03  0.00000000000E+00 0.  1.
<mgrwt>
<rscale>  4 0.38654195E+03</rscale>
<asrwt>0</asrwt>
<pdfrwt beam="1">  1       21 0.71738510E-02 0.38654195E+03</pdfrwt>
<pdfrwt beam="2">  1        2 0.21749627E+00 0.38654195E+03</pdfrwt>
<totfact> 0.27298101E+04</totfact>
</mgrwt>
</event>
<event>
 5    0  0.3188794E-002  0.4177912E+03  0.7546771E-02  0.1037788E+00
         21   -1    0    0  503  502  0.00000000000E+00  0.00000000000E+00  0.17762267253E+03  0.17762267253E+03  0.00000000000E+00 0.  1.
         -3   -1    0    0    0  501 -0.00000000000E+00 -0.00000000000E+00 -0.50800580489E+03  0.50800580489E+03  0.00000000000E+00 0. -1.
         25    1    1    2    0    0 -0.88104509232E+02 -0.19869761345E+03 -0.15403116712E+02  0.25120788631E+03  0.12500000000E+03 0.  0.
         21    1    1    2  503  501  0.12617238715E+03  0.35146152007E+02 -0.14739747338E+03  0.19718199319E+03  0.00000000000E+00 0. -1.
         -3    1    1    2    0  502 -0.38067877919E+02  0.16355146145E+03 -0.16758254228E+03  0.23723859793E+03  0.00000000000E+00 0. -1.
<mgrwt>
<rscale>  4 0.41779116E+03</rscale>
<asrwt>0</asrwt>
<pdfrwt beam="1">  1       21 0.27326565E-01 0.41779116E+03</pdfrwt>
<pdfrwt beam="2">  1       -3 0.78154739E-01 0.41779116E+03</pdfrwt>
<totfact> 0.97101638E+02</totfact>
</mgrwt>
</event>
<event>
 5    0  0.3188794E-002  0.5140180E+03  0.7546771E-02  0.1010183E+00
          1   -1    0    0  503    0 -0.00000000000E+00  0.00000000000E+00  0.21254425209E+04  0.21254425209E+04  0.00000000000E+00 0. -1.
         21   -1    0    0  501  502  0.00000000000E+00 -0.00000000000E+00 -0.91011100084E+02  0.91011100084E+02  0.00000000000E+00 0. -1.
         25    1    1    2    0    0 -0.21268750983E+03  0.23936310335E+02  0.19199756016E+04  0.19359081162E+04  0.12500000000E+03 0.  0.
         21    1    1    2  503  502  0.15088611507E+02  0.32375289811E+02 -0.13848578484E+02  0.38309381535E+02  0.00000000000E+00 0.  1.
          1    1    1    2  501    0  0.19759889832E+03 -0.56311600146E+02  0.12830439774E+03  0.24223612325E+03  0.00000000000E+00 0. -1.
<mgrwt>
<rscale>  4 0.51401800E+03</rscale>
<asrwt>0</asrwt>
<pdfrwt beam="1">  1       21 0.14001709E-01 0.51401800E+03</pdfrwt>
<pdfrwt beam="2">  1        1 0.32699112E+00 0.51401800E+03</pdfrwt>
<totfact> 0.12648968E+03</totfact>
</mgrwt>
</event>
<event>
 5    0  0.3188794E-002  0.4572647E+03  0.7546771E-02  0.1025578E+00
          2   -1    0    0  502    0 -0.00000000000E+00  0.00000000000E+00  0.10479880499E+04  0.10479880499E+04  0.00000000000E+00 0. -1.
         21   -1    0    0  503  502  0.00000000000E+00 -0.00000000000E+00 -0.14738794649E+03  0.14738794649E+03  0.00000000000E+00 0. -1.
         25    1    1    2    0    0 -0.28531062288E+03  0.68678592743E+02  0.42093260689E+03  0.52813649767E+03  0.12500000000E+03 0.  0.
         21    1    1    2  503  501  0.11371402698E+02  0.59706492459E+02 -0.35075990227E+02  0.70174775607E+02  0.00000000000E+00 0.  1.
          2    1    1    2  501    0  0.27393922018E+03 -0.12838508520E+03  0.51474348678E+03  0.59706472316E+03  0.00000000000E+00 0. -1.
<mgrwt>
<rscale>  4 0.45726475E+03</rscale>
<asrwt>0</asrwt>
<pdfrwt beam="1">  1       21 0.22675069E-01 0.45726475E+03</pdfrwt>
<pdfrwt beam="2">  1        2 0.16122893E+00 0.45726475E+03</pdfrwt>
<totfact> 0.53264370E+03</totfact>
</mgrwt>
</event>
<event>
 5    0  0.3188794E-002  0.3237967E+03  0.7546771E-02  0.1073915E+00
         21   -1    0    0  501  502  0.00000000000E+00  0.00000000000E+00  0.37009806512E+03  0.37009806512E+03  0.00000000000E+00 0.  1.
          2   -1    0    0  503    0 -0.00000000000E+00 -0.00000000000E+00 -0.25114759958E+03  0.25114759958E+03  0.00000000000E+00 0.  1.
         25    1    1    2    0    0 -0.19863235126E+03 -0.25623760134E+02 -0.15176683711E+02  0.23657286358E+03  0.12500000000E+03 0.  0.
         21    1    1    2  503  502  0.42352545543E+02  0.11798345203E+02 -0.96325435469E+02  0.10588450586E+03  0.00000000000E+00 0.  1.
          2    1    1    2  501    0  0.15627980572E+03  0.13825414931E+02  0.23045258471E+03  0.27878829526E+03  0.00000000000E+00 0.  1.
<mgrwt>
<rscale>  4 0.32379674E+03</rscale>
<asrwt>0</asrwt>
<pdfrwt beam="1">  1       21 0.56938163E-01 0.32379674E+03</pdfrwt>
<pdfrwt beam="2">  1        2 0.38638093E-01 0.32379674E+03</pdfrwt>
<totfact> 0.46016064E+03</totfact>
</mgrwt>
</event>
<event>
 5    0  0.3188794E-002  0.3615589E+03  0.7546771E-02  0.1057968E+00
          2   -1    0    0  503    0 -0.00000000000E+00  0.00000000000E+00  0.18278014959E+04  0.18278014959E+04  0.00000000000E+00 0. -1.
         21   -1    0    0  501  502  0.00000000000E+00 -0.00000000000E+00 -0.40827656089E+02  0.40827656089E+02  0.00000000000E+00 0. -1.
         25    1    1    2    0    0  0.74172611644E+02 -0.20819584853E+03  0.12924809843E+04  0.13171860850E+04  0.12500000000E+03 0.  0.
         21    1    1    2  503  502  0.22878718549E+02  0.80354287096E+02  0.17131971266E+03  0.19060611523E+03  0.00000000000E+00 0. -1.
          2    1    1    2  501    0 -0.97051330193E+02  0.12784156143E+03  0.32317314291E+03  0.36083695185E+03  0.00000000000E+00 0. -1.
<mgrwt>
<rscale>  4 0.36155890E+03</rscale>
<asrwt>0</asrwt>
<pdfrwt beam="1">  1       21 0.62811793E-02 0.36155890E+03</pdfrwt>
<pdfrwt beam="2">  1        2 0.28120017E+00 0.36155890E+03</pdfrwt>
<totfact> 0.20698475E+04</totfact>
</mgrwt>
</event>
<event>
 5    0  0.3188794E-002  0.4835352E+03  0.7546771E-02  0.1018168E+00
         21   -1    0    0  501  502  0.00000000000E+00  0.00000000000E+00  0.23620310658E+03  0.23620310658E+03  0.00000000000E+00 0.  1.
          1   -1    0    0  503    0 -0.00000000000E+00 -0.00000000000E+00 -0.11417945485E+04  0.11417945485E+04  0.00000000000E+00 0.  1.
         25    1    1    2    0    0 -0.69917732564E+02 -0.19795567247E+03 -0.66199947741E+03  0.70565093757E+03  0.12500000000E+03 0.  0.
         21    1    1    2  503  502  0.84840709657E+02  0.21580747813E+03 -0.42783783762E+03  0.48663747177E+03  0.00000000000E+00 0.  1.
          1    1    1    2  501    0 -0.14922977093E+02 -0.17851805661E+02  0.18424587309E+03  0.18570924576E+03  0.00000000000E+00 0.  1.
<mgrwt>
<rscale>  4 0.48353519E+03</rscale>
<asrwt>0</asrwt>
<pdfrwt beam="1">  1       21 0.36338939E-01 0.48353519E+03</pdfrwt>
<pdfrwt beam="2">  1        1 0.17566070E+00 0.48353519E+03</pdfrwt>
<totfact> 0.93272345E+02</totfact>
</mgrwt>
</event>
<event>
 5    0  0.3188794E-002  0.6411277E+03  0.7546771E-02  0.9823571E-01
         21   -1    0    0  501  502  0.00000000000E+00  0.00000000000E+00  0.72642888591E+02  0.72642888591E+02  0.00000000000E+00 0.  1.
          2   -1    0    0  503    0 -0.00000000000E+00 -0.00000000000E+00 -0.17405505997E+04  0.17405505997E+04  0.00000000000E+00 0. -1.
         25    1    1    2    0    0 -0.11660931354E+03  0.24714443867E+03 -0.43919276251E+03  0.53215917563E+03  0.12500000000E+03 0.  0.
         21    1    1    2  503  502  0.55560408350E+02 -0.26947258910E+03 -0.11286977229E+04  0.11617491059E+04  0.00000000000E+00 0.  1.
          2    1    1    2  501    0  0.61048905188E+02  0.22328150423E+02 -0.10001722566E+03  0.11928520677E+03  0.00000000000E+00 0. -1.
<mgrwt>
<rscale>  4 0.64112767E+03</rscale>
<asrwt>0</asrwt>
<pdfrwt beam="1">  1       21 0.11175830E-01 0.64112767E+03</pdfrwt>
<pdfrwt beam="2">  1        2 0.26777700E+00 0.64112767E+03</pdfrwt>
<totfact> 0.79103141E+03</totfact>
</mgrwt>
</event>
<event>
 5    0  0.3188794E-002  0.4287432E+03  0.7546771E-02  0.1034258E+00
         21   -1    0    0  503  502  0.00000000000E+00  0.00000000000E+00  0.30755634004E+02  0.30755634004E+02  0.00000000000E+00 0. -1.
          1   -1    0    0  502    0 -0.00000000000E+00 -0.00000000000E+00 -0.31006553832E+04  0.31006553832E+04  0.00000000000E+00 0.  1.
         25    1    1    2    0    0  0.19156589167E+03 -0.78129034779E+02 -0.14230557231E+04  0.14434383354E+04  0.12500000000E+03 0.  0.
         21    1    1    2  503  501 -0.70726044359E+02  0.95131042890E+02 -0.17673860854E+03  0.21281124129E+03  0.00000000000E+00 0. -1.
          1    1    1    2  501    0 -0.12083984731E+03 -0.17002008111E+02 -0.14701054175E+04  0.14751614405E+04  0.00000000000E+00 0.  1.
<mgrwt>
<rscale>  4 0.42874323E+03</rscale>
<asrwt>0</asrwt>
<pdfrwt beam="1">  1       21 0.47316340E-02 0.42874323E+03</pdfrwt>
<pdfrwt beam="2">  1        1 0.47702411E+00 0.42874323E+03</pdfrwt>
<totfact> 0.19158187E+03</totfact>
</mgrwt>
</event>
<event>
 5    0  0.3188794E-002  0.4262859E+03  0.7546771E-02  0.1035040E+00
         21   -1    0    0  501  502  0.00000000000E+00  0.00000000000E+00  0.76930738016E+02  0.76930738016E+02  0.00000000000E+00 0. -1.
          2   -1    0    0  503    0 -0.00000000000E+00 -0.00000000000E+00 -0.15868525007E+04  0.15868525007E+04  0.00000000000E+00 0. -1.
         25    1    1    2    0    0 -0.73928099312E+01 -0.30031965973E+03 -0.84954320648E+03  0.90972260131E+03  0.12500000000E+03 0.  0.
         21    1    1    2  503  502 -0.58467656708E+02  0.36205262868E+02 -0.47866745555E+02  0.83788503210E+02  0.00000000000E+00 0.  1.
          2    1    1    2  501    0  0.65860466639E+02  0.26411439686E+03 -0.61251181068E+03  0.67027213423E+03  0.00000000000E+00 0. -1.
<mgrwt>
<rscale>  4 0.42628593E+03</rscale>
<asrwt>0</asrwt>
<pdfrwt beam="1">  1       21 0.11835499E-01 0.42628593E+03</pdfrwt>
<pdfrwt beam="2">  1        2 0.24413114E+00 0.42628593E+03</pdfrwt>
<totfact> 0.89254847E+03</totfact>
</mgrwt>
</event>
<event>
 5    0  0.3188794E-002  0.3154078E+03  0.7546771E-02  0.1077782E+00
         21   -1    0    0  501  502  0.00000000000E+00  0.00000000000E+00  0.93221195505E+02  0.93221195505E+02  0.00000000000E+00 0.  1.
          1   -1    0    0  503    0 -0.00000000000E+00 -0.00000000000E+00 -0.13866056791E+04  0.13866056791E+04  0.00000000000E+00 0.  1.
         25    1    1    2    0    0 -0.21008724233E+03  0.38645769376E+02 -0.95207197697E+03  0.98371550471E+03  0.12500000000E+03 0.  0.
         21    1    1    2  503  502  0.47282938441E+02  0.48014605987E+02 -0.29951502561E+03  0.30700216484E+03  0.00000000000E+00 0. -1.
          1    1    1    2  501    0  0.16280430389E+03 -0.86660375363E+02 -0.41797481045E+02  0.18910920507E+03  0.00000000000E+00 0.  1.
<mgrwt>
<rscale>  4 0.31540780E+03</rscale>
<asrwt>0</asrwt>
<pdfrwt beam="1">  1       21 0.14341723E-01 0.31540780E+03</pdfrwt>
<pdfrwt beam="2">  1        1 0.21332394E+00 0.31540780E+03</pdfrwt>
<totfact> 0.39363245E+03</totfact>
</mgrwt>
</event>
<event>
 5    0  0.3188794E-002  0.3955114E+03  0.7546771E-02  0.1045345E+00
         21   -1    0    0  501  502  0.00000000000E+00  0.00000000000E+00  0.10363588239E+03  0.10363588239E+03  0.00000000000E+00 0.  1.
          3   -1    0    0  503    0 -0.00000000000E+00 -0.00000000000E+00 -0.13583034629E+04  0.13583034629E+04  0.00000000000E+00 0.  1.
         25    1    1    2    0    0  0.16151114894E+03  0.20822654716E+03 -0.63086031081E+03  0.69502077518E+03  0.12500000000E+03 0.  0.
         21    1    1    2  503  502 -0.42690599164E+02 -0.18476925982E+02 -0.51660257578E+03  0.51869268874E+03  0.00000000000E+00 0.  1.
          3    1    1    2  501    0 -0.11882054978E+03 -0.18974962117E+03 -0.10720469392E+03  0.24822588137E+03  0.00000000000E+00 0.  1.
<mgrwt>
<rscale>  4 0.39551144E+03</rscale>
<asrwt>0</asrwt>
<pdfrwt beam="1">  1       21 0.15943981E-01 0.39551144E+03</pdfrwt>
<pdfrwt beam="2">  1        3 0.20896977E+00 0.39551144E+03</pdfrwt>
<totfact> 0.23714059E+02</totfact>
</mgrwt>
</event>
<event>
 5    0  0.3188794E-002  0.3914597E+03  0.7546771E-02  0.1046778E+00
         21   -1    0    0  501  502  0.00000000000E+00  0.00000000000E+00  0.64130785587E+02  0.64130785587E+02  0.00000000000E+00 0. -1.
          2   -1    0    0  503    0 -0.00000000000E+00 -0.00000000000E+00 -0.23757546842E+04  0.23757546842E+04  0.00000000000E+00 0. -1.
         25    1    1    2    0    0  0.80817620209E+02 -0.19381773985E+03 -0.14991916887E+04  0.15189791057E+04  0.12500000000E+03 0.  0.
         21    1    1    2  503  502 -0.13891989204E+03 -0.22007208727E+02 -0.58638222838E+03  0.60301506731E+03  0.00000000000E+00 0.  1.
          2    1    1    2  501    0  0.58102271836E+02  0.21582494857E+03 -0.22604998147E+03  0.31789129674E+03  0.00000000000E+00 0. -1.
<mgrwt>
<rscale>  4 0.39145971E+03</rscale>
<asrwt>0</asrwt>
<pdfrwt beam="1">  1       21 0.98662773E-02 0.39145971E+03</pdfrwt>
<pdfrwt beam="2">  1        2 0.36550062E+00 0.39145971E+03</pdfrwt>
<totfact> 0.47064715E+03</totfact>
</mgrwt>
</event>
<event>
 5    0  0.3188794E-002  0.5184820E+03  0.7546771E-02  0.1009064E+00
         21   -1    0    0  501  502  0.00000000000E+00  0.00000000000E+00  0.56471579238E+02  0.56471579238E+02  0.00000000000E+00 0.  1.
          2   -1    0    0  503    0 -0.00000000000E+00 -0.00000000000E+00 -0.15161487468E+04  0.15161487468E+04  0.00000000000E+00 0. -1.
         25    1    1    2    0    0 -0.21355110189E+03  0.50749055579E+02 -0.92065042781E+03  0.95467363533E+03  0.12500000000E+03 0.  0.
         21    1    1    2  503  502  0.21144548640E+03 -0.11302583956E+03 -0.43422340267E+03  0.49601814237E+03  0.00000000000E+00 0.  1.
          2    1    1    2  501    0  0.21056154830E+01  0.62276783977E+02 -0.10480333708E+03  0.12192854835E+03  0.00000000000E+00 0. -1.
<mgrwt>
<rscale>  4 0.51848195E+03</rscale>
<asrwt>0</asrwt>
<pdfrwt beam="1">  1       21 0.86879349E-02 0.51848195E+03</pdfrwt>
<pdfrwt beam="2">  1        2 0.23325366E+00 0.51848195E+03</pdfrwt>
<totfact> 0.16788068E+04</totfact>
</mgrwt>
</event>
<event>
 5    0  0.3188794E-002  0.4864450E+03  0.7546771E-02  0.1017379E+00
         21   -1    0    0  501  502  0.00000000000E+00  0.00000000000E+00  0.12209296926E+03  0.12209296926E+03  0.00000000000E+00 0. -1.
          2   -1    0    0  503    0 -0.00000000000E+00 -0.00000000000E+00 -0.17059823392E+04  0.17059823392E+04  0.00000000000E+00 0. -1.
         25    1    1    2    0    0  0.12344383086E+03  0.16828140587E+03 -0.48311866713E+03  0.54091187588E+03  0.12500000000E+03 0.  0.
         21    1    1    2  503  502 -0.28039655290E+02 -0.16952087510E+03 -0.11614497312E+04  0.11740907237E+04  0.00000000000E+00 0. -1.
          2    1    1    2  501    0 -0.95404175572E+02  0.12394692286E+01  0.60679028416E+02  0.11307270887E+03  0.00000000000E+00 0. -1.
<mgrwt>
<rscale>  4 0.48644496E+03</rscale>
<asrwt>0</asrwt>
<pdfrwt beam="1">  1       21 0.18783535E-01 0.48644496E+03</pdfrwt>
<pdfrwt beam="2">  1        2 0.26245881E+00 0.48644496E+03</pdfrwt>
<totfact> 0.32285027E+03</totfact>
</mgrwt>
</event>
<event>
 5    0  0.3188794E-002  0.4369489E+03  0.7546771E-02  0.1031687E+00
         21   -1    0    0  501  502  0.00000000000E+00  0.00000000000E+00  0.10083999390E+03  0.10083999390E+03  0.00000000000E+00 0.  1.
         -2   -1    0    0    0  501 -0.00000000000E+00 -0.00000000000E+00 -0.90686628064E+03  0.90686628064E+03  0.00000000000E+00 0. -1.
         25    1    1    2    0    0  0.27632291414E+03  0.27478524846E+02 -0.44593491802E+03  0.53999293821E+03  0.12500000000E+03 0.  0.
         21    1    1    2  503  502 -0.12932522210E+03  0.22728168582E+02 -0.23111967284E+03  0.26581551101E+03  0.00000000000E+00 0.  1.
         -2    1    1    2    0  503 -0.14699769204E+03 -0.50206693428E+02 -0.12897169588E+03  0.20189782532E+03  0.00000000000E+00 0. -1.
<mgrwt>
<rscale>  4 0.43694890E+03</rscale>
<asrwt>0</asrwt>
<pdfrwt beam="1">  1       21 0.15513846E-01 0.43694890E+03</pdfrwt>
<pdfrwt beam="2">  1       -2 0.13951788E+00 0.43694890E+03</pdfrwt>
<totfact> 0.11105654E+03</totfact>
</mgrwt>
</event>
<event>
 5    0  0.3188794E-002  0.3582257E+03  0.7546771E-02  0.1059289E+00
          1   -1    0    0  502    0 -0.00000000000E+00  0.00000000000E+00  0.22148336515E+04  0.22148336515E+04  0.00000000000E+00 0.  1.
         21   -1    0    0  503  502  0.00000000000E+00 -0.00000000000E+00 -0.32656961660E+02  0.32656961660E+02  0.00000000000E+00 0.  1.
         25    1    1    2    0    0  0.17768560554E+03 -0.96529988559E+02  0.13376787119E+04  0.13586388591E+04  0.12500000000E+03 0.  0.
         21    1    1    2  503  501 -0.44041622395E+02 -0.21065008825E+02  0.35148825315E+02  0.60156786990E+02  0.00000000000E+00 0. -1.
          1    1    1    2  501    0 -0.13364398314E+03  0.11759499738E+03  0.80934915260E+03  0.82869496707E+03  0.00000000000E+00 0.  1.
<mgrwt>
<rscale>  4 0.35822568E+03</rscale>
<asrwt>0</asrwt>
<pdfrwt beam="1">  1       21 0.50241497E-02 0.35822568E+03</pdfrwt>
<pdfrwt beam="2">  1        1 0.34074352E+00 0.35822568E+03</pdfrwt>
<totfact> 0.70956484E+03</totfact>
</mgrwt>
</event>
<event>
 5    0  0.3188794E-002  0.5109292E+03  0.7546771E-02  0.1010965E+00
          2   -1    0    0  503    0 -0.00000000000E+00  0.00000000000E+00  0.13628951911E+04  0.13628951911E+04  0.00000000000E+00 0. -1.
         21   -1    0    0  501  502  0.00000000000E+00 -0.00000000000E+00 -0.14302336713E+03  0.14302336713E+03  0.00000000000E+00 0.  1.
         25    1    1    2    0    0 -0.10372220726E+03 -0.30842803952E+03  0.31851131025E+03  0.47218704620E+03  0.12500000000E+03 0.  0.
         21    1    1    2  503  502 -0.22620321349E+02 -0.39278931886E+02  0.44016312420E+03  0.44249077881E+03  0.00000000000E+00 0. -1.
          2    1    1    2  501    0  0.12634252861E+03  0.34770697141E+03  0.46119738950E+03  0.59124073319E+03  0.00000000000E+00 0. -1.
<mgrwt>
<rscale>  4 0.51092918E+03</rscale>
<asrwt>0</asrwt>
<pdfrwt beam="1">  1       21 0.22003596E-01 0.51092918E+03</pdfrwt>
<pdfrwt beam="2">  1        2 0.20967618E+00 0.51092918E+03</pdfrwt>
<totfact> 0.36612637E+03</totfact>
</mgrwt>
</event>
<event>
 5    0  0.3188794E-002  0.1515169E+04  0.7546771E-02  0.8874428E-01
         21   -1    0    0  501  502  0.00000000000E+00  0.00000000000E+00  0.14346277074E+04  0.14346277074E+04  0.00000000000E+00 0. -1.
          2   -1    0    0  503    0 -0.00000000000E+00 -0.00000000000E+00 -0.18036185722E+04  0.18036185722E+04  0.00000000000E+00 0. -1.
         25    1    1    2    0    0 -0.19113458369E+03 -0.10247307659E+03 -0.16159922960E+01  0.25032133737E+03  0.12500000000E+03 0.  0.
         21    1    1    2  503  502 -0.11034903867E+04 -0.52810034240E+03 -0.82661895881E+03  0.14764416372E+04  0.00000000000E+00 0. -1.
          2    1    1    2  501    0  0.12946249703E+04  0.63057341899E+03  0.45924408627E+03  0.15114833050E+04  0.00000000000E+00 0. -1.
<mgrwt>
<rscale>  4 0.15151690E+04</rscale>
<asrwt>0</asrwt>
<pdfrwt beam="1">  1       21 0.22071196E+00 0.15151690E+04</pdfrwt>
<pdfrwt beam="2">  1        2 0.27747978E+00 0.15151690E+04</pdfrwt>
<totfact> 0.71442650E+00</totfact>
</mgrwt>
</event>
<event>
 5    0  0.3188794E-002  0.3529203E+03  0.7546771E-02  0.1061423E+00
         21   -1    0    0  503  502  0.00000000000E+00  0.00000000000E+00  0.12315084830E+03  0.12315084830E+03  0.00000000000E+00 0.  1.
         -2   -1    0    0    0  501 -0.00000000000E+00 -0.00000000000E+00 -0.89857348073E+03  0.89857348073E+03  0.00000000000E+00 0.  1.
         25    1    1    2    0    0 -0.22279042633E+03  0.21713536233E+02 -0.64005729454E+03  0.68949647716E+03  0.12500000000E+03 0.  0.
         21    1    1    2  503  501  0.26102167073E+02  0.72172726783E+02 -0.72054760171E+02  0.10527162049E+03  0.00000000000E+00 0. -1.
         -2    1    1    2    0  502  0.19668825925E+03 -0.93886263016E+02 -0.63310577724E+02  0.22695623138E+03  0.00000000000E+00 0.  1.
<mgrwt>
<rscale>  4 0.35292032E+03</rscale>
<asrwt>0</asrwt>
<pdfrwt beam="1">  1       21 0.18946285E-01 0.35292032E+03</pdfrwt>
<pdfrwt beam="2">  1       -2 0.13824207E+00 0.35292032E+03</pdfrwt>
<totfact> 0.79283262E+02</totfact>
</mgrwt>
</event>
<event>
 5    0  0.3188794E-002  0.5984905E+03  0.7546771E-02  0.9908543E-01
         21   -1    0    0  501  502  0.00000000000E+00  0.00000000000E+00  0.34424595228E+03  0.34424595228E+03  0.00000000000E+00 0.  1.
          2   -1    0    0  503    0 -0.00000000000E+00 -0.00000000000E+00 -0.13004373070E+04  0.13004373070E+04  0.00000000000E+00 0.  1.
         25    1    1    2    0    0 -0.19801978865E+03  0.38510241617E+03 -0.89909071456E+03  0.10057359597E+04  0.12500000000E+03 0.  0.
         21    1    1    2  503  502 -0.20647143134E+01 -0.14600517601E+03 -0.23746169700E+03  0.27876483281E+03  0.00000000000E+00 0.  1.
          2    1    1    2  501    0  0.20008450296E+03 -0.23909724015E+03  0.18036105682E+03  0.36018246680E+03  0.00000000000E+00 0.  1.
<mgrwt>
<rscale>  4 0.59849052E+03</rscale>
<asrwt>0</asrwt>
<pdfrwt beam="1">  1       21 0.52960916E-01 0.59849052E+03</pdfrwt>
<pdfrwt beam="2">  1        2 0.20006728E+00 0.59849052E+03</pdfrwt>
<totfact> 0.65535601E+02</totfact>
</mgrwt>
</event>
<event>
 5    0  0.3188794E-002  0.5173634E+03  0.7546771E-02  0.1009344E+00
          3   -1    0    0  503    0 -0.00000000000E+00  0.00000000000E+00  0.31534296695E+03  0.31534296695E+03  0.00000000000E+00 0. -1.
         21   -1    0    0  501  502  0.00000000000E+00 -0.00000000000E+00 -0.28961999880E+03  0.28961999880E+03  0.00000000000E+00 0.  1.
         25    1    1    2    0    0 -0.67706866467E+01  0.24890049287E+03  0.14586429782E+03  0.31448162256E+03  0.12500000000E+03 0.  0.
         21    1    1    2  503  502 -0.18214836881E+02 -0.19984292379E+03 -0.61128033105E+02  0.20977514367E+03  0.00000000000E+00 0.  1.
          3    1    1    2  501    0  0.24985523528E+02 -0.49057569078E+02 -0.59013296560E+02  0.80706199519E+02  0.00000000000E+00 0. -1.
<mgrwt>
<rscale>  4 0.51736343E+03</rscale>
<asrwt>0</asrwt>
<pdfrwt beam="1">  1       21 0.44556923E-01 0.51736343E+03</pdfrwt>
<pdfrwt beam="2">  1        3 0.48514303E-01 0.51736343E+03</pdfrwt>
<totfact> 0.98436221E+02</totfact>
</mgrwt>
</event>
<event>
 5    0  0.3188794E-002  0.7771577E+03  0.7546771E-02  0.9593682E-01
          1   -1    0    0  503    0 -0.00000000000E+00  0.00000000000E+00  0.37223322804E+03  0.37223322804E+03  0.00000000000E+00 0.  1.
         21   -1    0    0  501  502  0.00000000000E+00 -0.00000000000E+00 -0.12100601118E+04  0.12100601118E+04  0.00000000000E+00 0.  1.
         25    1    1    2    0    0 -0.30675540941E+03 -0.21727132680E+03  0.19895996984E+02  0.39664412431E+03  0.12500000000E+03 0.  0.
         21    1    1    2  503  502  0.37352878376E+03  0.15078722044E+02 -0.83991080314E+02  0.38315221744E+03  0.00000000000E+00 0. -1.
          1    1    1    2  501    0 -0.66773374345E+02  0.20219260476E+03 -0.77373180044E+03  0.80249699809E+03  0.00000000000E+00 0.  1.
<mgrwt>
<rscale>  4 0.77715774E+03</rscale>
<asrwt>0</asrwt>
<pdfrwt beam="1">  1       21 0.18616309E+00 0.77715774E+03</pdfrwt>
<pdfrwt beam="2">  1        1 0.57266651E-01 0.77715774E+03</pdfrwt>
<totfact> 0.95381736E+01</totfact>
</mgrwt>
</event>
<event>
 5    0  0.3188794E-002  0.4089334E+03  0.7546771E-02  0.1040730E+00
         21   -1    0    0  501  502  0.00000000000E+00  0.00000000000E+00  0.49943448834E+03  0.49943448834E+03  0.00000000000E+00 0.  1.
          2   -1    0    0  503    0 -0.00000000000E+00 -0.00000000000E+00 -0.77902221108E+03  0.77902221108E+03  0.00000000000E+00 0.  1.
         25    1    1    2    0    0 -0.17745799891E+03  0.11470613972E+03 -0.22487096219E+03  0.33292760400E+03  0.12500000000E+03 0.  0.
         21    1    1    2  503  502 -0.70810083643E+02  0.30997964425E+01 -0.45472909781E+03  0.46021976173E+03  0.00000000000E+00 0.  1.
          2    1    1    2  501    0  0.24826808255E+03 -0.11780593617E+03  0.40001233727E+03  0.48530933370E+03  0.00000000000E+00 0.  1.
<mgrwt>
<rscale>  4 0.40893337E+03</rscale>
<asrwt>0</asrwt>
<pdfrwt beam="1">  1       21 0.76836076E-01 0.40893337E+03</pdfrwt>
<pdfrwt beam="2">  1        2 0.11984957E+00 0.40893337E+03</pdfrwt>
<totfact> 0.63752491E+02</totfact>
</mgrwt>
</event>
<event>
 5    0  0.3188794E-002  0.5762509E+03  0.7546771E-02  0.9955941E-01
          2   -1    0    0  503    0 -0.00000000000E+00  0.00000000000E+00  0.25229390930E+03  0.25229390930E+03  0.00000000000E+00 0. -1.
         21   -1    0    0  501  502  0.00000000000E+00 -0.00000000000E+00 -0.50863017668E+03  0.50863017668E+03  0.00000000000E+00 0.  1.
         25    1    1    2    0    0 -0.20110432912E+03 -0.74403884513E+02  0.15176755782E+03  0.29092487145E+03  0.12500000000E+03 0.  0.
         21    1    1    2  503  502  0.15810980568E+03  0.17694118033E+02 -0.24602385849E+03  0.29298384156E+03  0.00000000000E+00 0.  1.
          2    1    1    2  501    0  0.42994523437E+02  0.56709766480E+02 -0.16207996671E+03  0.17701537297E+03  0.00000000000E+00 0. -1.
<mgrwt>
<rscale>  4 0.57625093E+03</rscale>
<asrwt>0</asrwt>
<pdfrwt beam="1">  1       21 0.78250795E-01 0.57625093E+03</pdfrwt>
<pdfrwt beam="2">  1        2 0.38814448E-01 0.57625093E+03</pdfrwt>
<totfact> 0.21594908E+03</totfact>
</mgrwt>
</event>
<event>
 5    0  0.3188794E-002  0.5226798E+03  0.7546771E-02  0.1008023E+00
         21   -1    0    0  503  502  0.00000000000E+00  0.00000000000E+00  0.13316462801E+03  0.13316462801E+03  0.00000000000E+00 0. -1.
          2   -1    0    0  502    0 -0.00000000000E+00 -0.00000000000E+00 -0.10297409201E+04  0.10297409201E+04  0.00000000000E+00 0.  1.
         25    1    1    2    0    0 -0.33807203445E+03 -0.54959384471E+01 -0.38654426014E+03  0.52854930788E+03  0.12500000000E+03 0.  0.
         21    1    1    2  503  501  0.13528734565E+03 -0.71877141067E+02 -0.27239184952E+03  0.31251609397E+03  0.00000000000E+00 0.  1.
          2    1    1    2  501    0  0.20278468880E+03  0.77373079514E+02 -0.23764018242E+03  0.32184014626E+03  0.00000000000E+00 0.  1.
<mgrwt>
<rscale>  4 0.52267984E+03</rscale>
<asrwt>0</asrwt>
<pdfrwt beam="1">  1       21 0.20486866E-01 0.52267984E+03</pdfrwt>
<pdfrwt beam="2">  1        2 0.15842168E+00 0.52267984E+03</pdfrwt>
<totfact> 0.65757903E+03</totfact>
</mgrwt>
</event>
<event>
 5    0  0.3188794E-002  0.3974405E+03  0.7546771E-02  0.1044670E+00
         21   -1    0    0  501  502  0.00000000000E+00  0.00000000000E+00  0.10684514215E+04  0.10684514215E+04  0.00000000000E+00 0. -1.
          2   -1    0    0  503    0 -0.00000000000E+00 -0.00000000000E+00 -0.28968726260E+03  0.28968726260E+03  0.00000000000E+00 0.  1.
         25    1    1    2    0    0  0.22509020758E+03 -0.90377432069E+02  0.93952334263E+03  0.97834696970E+03  0.12500000000E+03 0.  0.
         21    1    1    2  503  502 -0.76251108734E+02 -0.56925993257E+01  0.59676345249E+02  0.96994347529E+02  0.00000000000E+00 0.  1.
          2    1    1    2  501    0 -0.14883909884E+03  0.96070031395E+02 -0.22043552897E+03  0.28279736687E+03  0.00000000000E+00 0.  1.
<mgrwt>
<rscale>  4 0.39744048E+03</rscale>
<asrwt>0</asrwt>
<pdfrwt beam="1">  1       21 0.16437714E+00 0.39744048E+03</pdfrwt>
<pdfrwt beam="2">  1        2 0.44567272E-01 0.39744048E+03</pdfrwt>
<totfact> 0.29679016E+02</totfact>
</mgrwt>
</event>
<event>
 5    0  0.3188794E-002  0.3803233E+03  0.7546771E-02  0.1050814E+00
         21   -1    0    0  501  502  0.00000000000E+00  0.00000000000E+00  0.12189341782E+04  0.12189341782E+04  0.00000000000E+00 0. -1.
          1   -1    0    0  503    0 -0.00000000000E+00 -0.00000000000E+00 -0.65299956980E+02  0.65299956980E+02  0.00000000000E+00 0. -1.
         25    1    1    2    0    0 -0.39006034056E+02 -0.23196143686E+03  0.52915279054E+03  0.59241476570E+03  0.12500000000E+03 0.  0.
         21    1    1    2  503  502 -0.70545374328E+02  0.86102904472E+02  0.29347412819E+03  0.31387485391E+03  0.00000000000E+00 0.  1.
          1    1    1    2  501    0  0.10955140838E+03  0.14585853239E+03  0.33100730246E+03  0.37794451555E+03  0.00000000000E+00 0. -1.
<mgrwt>
<rscale>  4 0.38032332E+03</rscale>
<asrwt>0</asrwt>
<pdfrwt beam="1">  1       21 0.18752832E+00 0.38032332E+03</pdfrwt>
<pdfrwt beam="2">  1        1 0.10046148E-01 0.38032332E+03</pdfrwt>
<totfact> 0.10148744E+03</totfact>
</mgrwt>
</event>
<event>
 5    0  0.3188794E-002  0.8207586E+03  0.7546771E-02  0.9530447E-01
         21   -1    0    0  501  502  0.00000000000E+00  0.00000000000E+00  0.17219879838E+04  0.17219879838E+04  0.00000000000E+00 0. -1.
          1   -1    0    0  503    0 -0.00000000000E+00 -0.00000000000E+00 -0.11730793017E+03  0.11730793017E+03  0.00000000000E+00 0.  1.
         25    1    1    2    0    0 -0.18574659528E+03  0.34734678391E+03  0.75390253346E+03  0.85973578262E+03  0.12500000000E+03 0.  0.
         21    1    1    2  503  502  0.14189999887E+03 -0.37879915744E+03  0.60391218422E+03  0.72686610707E+03  0.00000000000E+00 0.  1.
          1    1    1    2  501    0  0.43846596413E+02  0.31452373539E+02  0.24686533598E+03  0.25269402432E+03  0.00000000000E+00 0.  1.
<mgrwt>
<rscale>  4 0.82075864E+03</rscale>
<asrwt>0</asrwt>
<pdfrwt beam="1">  1       21 0.26492121E+00 0.82075864E+03</pdfrwt>
<pdfrwt beam="2">  1        1 0.18047375E-01 0.82075864E+03</pdfrwt>
<totfact> 0.13070208E+02</totfact>
</mgrwt>
</event>
<event>
 5    0  0.3188794E-002  0.5486264E+03  0.7546771E-02  0.1001812E+00
         21   -1    0    0  501  502  0.00000000000E+00  0.00000000000E+00  0.12278080867E+03  0.12278080867E+03  0.00000000000E+00 0. -1.
          1   -1    0    0  503    0 -0.00000000000E+00 -0.00000000000E+00 -0.13666828439E+04  0.13666828439E+04  0.00000000000E+00 0. -1.
         25    1    1    2    0    0  0.27702520517E+03 -0.13489502034E+03 -0.92651190746E+03  0.98437236119E+03  0.12500000000E+03 0.  0.
         21    1    1    2  503  502 -0.16955210945E+03  0.11054248025E+03 -0.33704947805E+03  0.39315379740E+03  0.00000000000E+00 0.  1.
          1    1    1    2  501    0 -0.10747309572E+03  0.24352540090E+02  0.19659350251E+02  0.11193749401E+03  0.00000000000E+00 0. -1.
<mgrwt>
<rscale>  4 0.54862641E+03</rscale>
<asrwt>0</asrwt>
<pdfrwt beam="1">  1       21 0.18889356E-01 0.54862641E+03</pdfrwt>
<pdfrwt beam="2">  1        1 0.21025889E+00 0.54862641E+03</pdfrwt>
<totfact> 0.23069390E+03</totfact>
</mgrwt>
</event>
<event>
 5    0  0.3188794E-002  0.4967686E+03  0.7546771E-02  0.1014626E+00
          2   -1    0    0  503    0 -0.00000000000E+00  0.00000000000E+00  0.72562149677E+02  0.72562149677E+02  0.00000000000E+00 0. -1.
         21   -1    0    0  501  502  0.00000000000E+00 -0.00000000000E+00 -0.12019871210E+04  0.12019871210E+04  0.00000000000E+00 0.  1.
         25    1    1    2    0    0  0.17054702609E+03 -0.11649494868E+03 -0.23686991982E+03  0.33821549357E+03  0.12500000000E+03 0.  0.
         21    1    1    2  503  502 -0.14344571961E+03  0.16118809860E+03 -0.56813016610E+03  0.60772540118E+03  0.00000000000E+00 0.  1.
          2    1    1    2  501    0 -0.27101306470E+02 -0.44693149915E+02 -0.32442488541E+03  0.32860837594E+03  0.00000000000E+00 0. -1.
<mgrwt>
<rscale>  4 0.49676860E+03</rscale>
<asrwt>0</asrwt>
<pdfrwt beam="1">  1       21 0.18492107E+00 0.49676860E+03</pdfrwt>
<pdfrwt beam="2">  1        2 0.11163409E-01 0.49676860E+03</pdfrwt>
<totfact> 0.10223026E+03</totfact>
</mgrwt>
</event>
<event>
 5    0  0.3188794E-002  0.5438281E+03  0.7546771E-02  0.1002933E+00
          1   -1    0    0  503    0 -0.00000000000E+00  0.00000000000E+00  0.12897114589E+04  0.12897114589E+04  0.00000000000E+00 0. -1.
         21   -1    0    0  501  502  0.00000000000E+00 -0.00000000000E+00 -0.17692574173E+03  0.17692574173E+03  0.00000000000E+00 0. -1.
         25    1    1    2    0    0 -0.18523651411E+03 -0.15013782928E+03  0.33698940308E+03  0.43132446224E+03  0.12500000000E+03 0.  0.
         21    1    1    2  503  502  0.20770948100E+03 -0.81314286707E+01  0.83828754040E+03  0.86367548826E+03  0.00000000000E+00 0. -1.
          1    1    1    2  501    0 -0.22472966888E+02  0.15826925795E+03 -0.62491226332E+02  0.17163725010E+03  0.00000000000E+00 0. -1.
<mgrwt>
<rscale>  4 0.54382808E+03</rscale>
<asrwt>0</asrwt>
<pdfrwt beam="1">  1       21 0.27219346E-01 0.54382808E+03</pdfrwt>
<pdfrwt beam="2">  1        1 0.19841714E+00 0.54382808E+03</pdfrwt>
<totfact> 0.12884437E+03</totfact>
</mgrwt>
</event>
<event>
 5    0  0.3188794E-002  0.5668180E+03  0.7546771E-02  0.9976745E-01
         21   -1    0    0  501  502  0.00000000000E+00  0.00000000000E+00  0.14960080793E+04  0.14960080793E+04  0.00000000000E+00 0. -1.
          2   -1    0    0  503    0 -0.00000000000E+00 -0.00000000000E+00 -0.66777614757E+02  0.66777614757E+02  0.00000000000E+00 0.  1.
         25    1    1    2    0    0  0.17318825000E+03  0.18640760885E+03  0.47973334310E+03  0.55723518110E+03  0.12500000000E+03 0.  0.
         21    1    1    2  503  502 -0.15267489381E+03 -0.22746307990E+03  0.69678082859E+03  0.74870060706E+03  0.00000000000E+00 0.  1.
          2    1    1    2  501    0 -0.20513356188E+02  0.41055471058E+02  0.25271629285E+03  0.25684990590E+03  0.00000000000E+00 0.  1.
<mgrwt>
<rscale>  4 0.56681804E+03</rscale>
<asrwt>0</asrwt>
<pdfrwt beam="1">  1       21 0.23015506E+00 0.56681804E+03</pdfrwt>
<pdfrwt beam="2">  1        2 0.10273480E-01 0.56681804E+03</pdfrwt>
<totfact> 0.56023126E+02</totfact>
</mgrwt>
</event>
<event>
 5    0  0.3188794E-002  0.5181814E+03  0.7546771E-02  0.1009139E+00
          2   -1    0    0  503    0 -0.00000000000E+00  0.00000000000E+00  0.58478441388E+03  0.58478441388E+03  0.00000000000E+00 0. -1.
         21   -1    0    0  501  502  0.00000000000E+00 -0.00000000000E+00 -0.20255098074E+03  0.20255098074E+03  0.00000000000E+00 0. -1.
         25    1    1    2    0    0  0.11833248942E+02 -0.21333601260E+03  0.67836845764E+02  0.25666927688E+03  0.12500000000E+03 0.  0.
         21    1    1    2  503  502  0.40978870765E+02  0.18774228107E+03  0.39011044595E+03  0.43487077619E+03  0.00000000000E+00 0. -1.
          2    1    1    2  501    0 -0.52812119707E+02  0.25593731535E+02 -0.75713858572E+02  0.95795341544E+02  0.00000000000E+00 0. -1.
<mgrwt>
<rscale>  4 0.51818136E+03</rscale>
<asrwt>0</asrwt>
<pdfrwt beam="1">  1       21 0.31161690E-01 0.51818136E+03</pdfrwt>
<pdfrwt beam="2">  1        2 0.89966832E-01 0.51818136E+03</pdfrwt>
<totfact> 0.60666499E+03</totfact>
</mgrwt>
</event>
<event>
 5    0  0.3188794E-002  0.5343781E+03  0.7546771E-02  0.1005176E+00
         -1   -1    0    0    0  501 -0.00000000000E+00  0.00000000000E+00  0.49080013273E+03  0.49080013273E+03  0.00000000000E+00 0. -1.
         21   -1    0    0  501  502  0.00000000000E+00 -0.00000000000E+00 -0.17383576117E+03  0.17383576117E+03  0.00000000000E+00 0.  1.
         25    1    1    2    0    0  0.95777210239E+02  0.24871450028E+03  0.17951644461E+03  0.34479462081E+03  0.12500000000E+03 0.  0.
         21    1    1    2  503  502 -0.10883209168E+03 -0.21390761656E+03  0.14702149076E+03  0.28145374637E+03  0.00000000000E+00 0.  1.
         -1    1    1    2    0  503  0.13054881438E+02 -0.34806883727E+02 -0.95735638164E+01  0.38387526728E+02  0.00000000000E+00 0. -1.
<mgrwt>
<rscale>  4 0.53437814E+03</rscale>
<asrwt>0</asrwt>
<pdfrwt beam="1">  1       21 0.26743963E-01 0.53437814E+03</pdfrwt>
<pdfrwt beam="2">  1       -1 0.75507712E-01 0.53437814E+03</pdfrwt>
<totfact> 0.21392842E+03</totfact>
</mgrwt>
</event>
<event>
 5    0  0.3188794E-002  0.5741294E+03  0.7546771E-02  0.9960582E-01
          2   -1    0    0  503    0 -0.00000000000E+00  0.00000000000E+00  0.19680121942E+04  0.19680121942E+04  0.00000000000E+00 0. -1.
         21   -1    0    0  501  502  0.00000000000E+00 -0.00000000000E+00 -0.46934700726E+02  0.46934700726E+02  0.00000000000E+00 0.  1.
         25    1    1    2    0    0  0.22410921194E+03 -0.85782070933E+02  0.13556763689E+04  0.13824134402E+04  0.12500000000E+03 0.  0.
         21    1    1    2  503  502 -0.24526348616E+03  0.80040657683E+02  0.54309805333E+03  0.60126215585E+03  0.00000000000E+00 0.  1.
          2    1    1    2  501    0  0.21154274219E+02  0.57414132494E+01  0.22303071254E+02  0.31271298841E+02  0.00000000000E+00 0. -1.
<mgrwt>
<rscale>  4 0.57412940E+03</rscale>
<asrwt>0</asrwt>
<pdfrwt beam="1">  1       21 0.72207247E-02 0.57412940E+03</pdfrwt>
<pdfrwt beam="2">  1        2 0.30277104E+00 0.57412940E+03</pdfrwt>
<totfact> 0.13176471E+04</totfact>
</mgrwt>
</event>
<event>
 5    0  0.3188794E-002  0.4240042E+03  0.7546771E-02  0.1035771E+00
         21   -1    0    0  503  502  0.00000000000E+00  0.00000000000E+00  0.33398332512E+02  0.33398332512E+02  0.00000000000E+00 0.  1.
         -1   -1    0    0    0  501 -0.00000000000E+00 -0.00000000000E+00 -0.22633175123E+04  0.22633175123E+04  0.00000000000E+00 0. -1.
         25    1    1    2    0    0 -0.21532001402E+03  0.13294122035E+02 -0.15053031478E+04  0.15258119179E+04  0.12500000000E+03 0.  0.
         21    1    1    2  503  501  0.16155542408E+03 -0.40581952842E+02 -0.66708151603E+03  0.68756439624E+03  0.00000000000E+00 0.  1.
         -1    1    1    2    0  502  0.53764589941E+02  0.27287830806E+02 -0.57534515961E+02  0.83339530647E+02  0.00000000000E+00 0. -1.
<mgrwt>
<rscale>  4 0.42400422E+03</rscale>
<asrwt>0</asrwt>
<pdfrwt beam="1">  1       21 0.51382058E-02 0.42400422E+03</pdfrwt>
<pdfrwt beam="2">  1       -1 0.34820264E+00 0.42400422E+03</pdfrwt>
<totfact> 0.44053899E+02</totfact>
</mgrwt>
</event>
<event>
 5    0  0.3188794E-002  0.6126426E+03  0.7546771E-02  0.9879518E-01
         21   -1    0    0  501  502  0.00000000000E+00  0.00000000000E+00  0.35114925494E+03  0.35114925494E+03  0.00000000000E+00 0.  1.
          1   -1    0    0  503    0 -0.00000000000E+00 -0.00000000000E+00 -0.46827205570E+03  0.46827205570E+03  0.00000000000E+00 0. -1.
         25    1    1    2    0    0  0.15265933789E+03 -0.19564446382E+03 -0.11873747837E+03  0.30216753372E+03  0.12500000000E+03 0.  0.
         21    1    1    2  503  502  0.63559115758E+01  0.31409334545E+03  0.35284098691E+02  0.31613287537E+03  0.00000000000E+00 0.  1.
          1    1    1    2  501    0 -0.15901524946E+03 -0.11844888164E+03 -0.33669421082E+02  0.20112090154E+03  0.00000000000E+00 0. -1.
<mgrwt>
<rscale>  4 0.61264258E+03</rscale>
<asrwt>0</asrwt>
<pdfrwt beam="1">  1       21 0.54022963E-01 0.61264258E+03</pdfrwt>
<pdfrwt beam="2">  1        1 0.72041854E-01 0.61264258E+03</pdfrwt>
<totfact> 0.15894104E+03</totfact>
</mgrwt>
</event>
<event>
 5    0  0.3188794E-002  0.3761413E+03  0.7546771E-02  0.1052369E+00
         -2   -1    0    0    0  501 -0.00000000000E+00  0.00000000000E+00  0.64705807915E+03  0.64705807915E+03  0.00000000000E+00 0. -1.
         21   -1    0    0  503  502  0.00000000000E+00 -0.00000000000E+00 -0.18279886645E+03  0.18279886645E+03  0.00000000000E+00 0. -1.
         25    1    1    2    0    0 -0.96358543157E+02 -0.22150407289E+03  0.44903870589E+03  0.52498550697E+03  0.12500000000E+03 0.  0.
         21    1    1    2  503  501  0.19416694085E+02  0.96113634893E+02  0.95840943506E+02  0.13711427815E+03  0.00000000000E+00 0.  1.
         -2    1    1    2    0  502  0.76941849072E+02  0.12539043799E+03 -0.80620436689E+02  0.16775716047E+03  0.00000000000E+00 0. -1.
<mgrwt>
<rscale>  4 0.37614132E+03</rscale>
<asrwt>0</asrwt>
<pdfrwt beam="1">  1       21 0.28122903E-01 0.37614132E+03</pdfrwt>
<pdfrwt beam="2">  1       -2 0.99547395E-01 0.37614132E+03</pdfrwt>
<totfact> 0.82209810E+02</totfact>
</mgrwt>
</event>
<event>
 5    0  0.3188794E-002  0.4249656E+03  0.7546771E-02  0.1035462E+00
          2   -1    0    0  503    0 -0.00000000000E+00  0.00000000000E+00  0.13308927540E+04  0.13308927540E+04  0.00000000000E+00 0. -1.
         21   -1    0    0  501  502  0.00000000000E+00 -0.00000000000E+00 -0.89433240620E+02  0.89433240620E+02  0.00000000000E+00 0. -1.
         25    1    1    2    0    0  0.88227101577E+00  0.20421392164E+03  0.81404499123E+03  0.84852716630E+03  0.12500000000E+03 0.  0.
         21    1    1    2  503  502 -0.25904522729E+02 -0.18050367822E+03  0.47742164087E+03  0.51106168446E+03  0.00000000000E+00 0.  1.
          2    1    1    2  501    0  0.25022251714E+02 -0.23710243422E+02 -0.50007118713E+02  0.60737143874E+02  0.00000000000E+00 0. -1.
<mgrwt>
<rscale>  4 0.42496562E+03</rscale>
<asrwt>0</asrwt>
<pdfrwt beam="1">  1       21 0.13758961E-01 0.42496562E+03</pdfrwt>
<pdfrwt beam="2">  1        2 0.20475272E+00 0.42496562E+03</pdfrwt>
<totfact> 0.93709874E+03</totfact>
</mgrwt>
</event>
<event>
 5    0  0.3188794E-002  0.5868532E+03  0.7546771E-02  0.9933063E-01
          2   -1    0    0  503    0 -0.00000000000E+00  0.00000000000E+00  0.17474944336E+04  0.17474944336E+04  0.00000000000E+00 0. -1.
         21   -1    0    0  501  502  0.00000000000E+00 -0.00000000000E+00 -0.27298227176E+03  0.27298227176E+03  0.00000000000E+00 0. -1.
         25    1    1    2    0    0 -0.19318544477E+03 -0.64308366144E+02  0.80140699733E+03  0.83626213438E+03  0.12500000000E+03 0.  0.
         21    1    1    2  503  502  0.32927470966E+03 -0.92910165203E+02  0.84678191776E+03  0.91328733127E+03  0.00000000000E+00 0. -1.
          2    1    1    2  501    0 -0.13608926489E+03  0.15721853135E+03 -0.17367675322E+03  0.27092723973E+03  0.00000000000E+00 0. -1.
<mgrwt>
<rscale>  4 0.58685316E+03</rscale>
<asrwt>0</asrwt>
<pdfrwt beam="1">  1       21 0.41997274E-01 0.58685316E+03</pdfrwt>
<pdfrwt beam="2">  1        2 0.26884529E+00 0.58685316E+03</pdfrwt>
<totfact> 0.60839393E+02</totfact>
</mgrwt>
</event>
<event>
 5    0  0.3188794E-002  0.4402720E+03  0.7546771E-02  0.1030663E+00
          1   -1    0    0  503    0 -0.00000000000E+00  0.00000000000E+00  0.13753032051E+03  0.13753032051E+03  0.00000000000E+00 0.  1.
         21   -1    0    0  501  502  0.00000000000E+00 -0.00000000000E+00 -0.59684933846E+03  0.59684933846E+03  0.00000000000E+00 0. -1.
         25    1    1    2    0    0  0.20183530650E+03  0.24233484696E+02 -0.76641400700E+02  0.25064647820E+03  0.12500000000E+03 0.  0.
         21    1    1    2  503  502 -0.16574348207E+03  0.76799436081E+02 -0.19247901971E+03  0.26536244697E+03  0.00000000000E+00 0. -1.
          1    1    1    2  501    0 -0.36091824430E+02 -0.10103292078E+03 -0.19019859755E+03  0.21837073380E+03  0.00000000000E+00 0.  1.
<mgrwt>
<rscale>  4 0.44027197E+03</rscale>
<asrwt>0</asrwt>
<pdfrwt beam="1">  1       21 0.91822974E-01 0.44027197E+03</pdfrwt>
<pdfrwt beam="2">  1        1 0.21158511E-01 0.44027197E+03</pdfrwt>
<totfact> 0.24065668E+03</totfact>
</mgrwt>
</event>
<event>
 5    0  0.3188794E-002  0.4366207E+03  0.7546771E-02  0.1031789E+00
          1   -1    0    0  503    0 -0.00000000000E+00  0.00000000000E+00  0.14029880701E+04  0.14029880701E+04  0.00000000000E+00 0.  1.
         21   -1    0    0  501  502  0.00000000000E+00 -0.00000000000E+00 -0.12197380971E+03  0.12197380971E+03  0.00000000000E+00 0.  1.
         25    1    1    2    0    0 -0.21634132601E+03 -0.75730449579E+02  0.41600297231E+03  0.49114370942E+03  0.12500000000E+03 0.  0.
         21    1    1    2  503  502 -0.13765924707E+03  0.68624589407E+02  0.50891246505E+03  0.53164960233E+03  0.00000000000E+00 0. -1.
          1    1    1    2  501    0  0.35400057308E+03  0.71058601718E+01  0.35609882305E+03  0.50216856808E+03  0.00000000000E+00 0.  1.
<mgrwt>
<rscale>  4 0.43662065E+03</rscale>
<asrwt>0</asrwt>
<pdfrwt beam="1">  1       21 0.18765202E-01 0.43662065E+03</pdfrwt>
<pdfrwt beam="2">  1        1 0.21584431E+00 0.43662065E+03</pdfrwt>
<totfact> 0.22557073E+03</totfact>
</mgrwt>
</event>
<event>
 5    0  0.3188794E-002  0.4696149E+03  0.7546771E-02  0.1022029E+00
         21   -1    0    0  501  502  0.00000000000E+00  0.00000000000E+00  0.11455746452E+03  0.11455746452E+03  0.00000000000E+00 0. -1.
          1   -1    0    0  503    0 -0.00000000000E+00 -0.00000000000E+00 -0.14720939095E+04  0.14720939095E+04  0.00000000000E+00 0. -1.
         25    1    1    2    0    0 -0.26831599525E+03  0.17905789398E+03 -0.50833971807E+03  0.61488980449E+03  0.12500000000E+03 0.  0.
         21    1    1    2  503  502 -0.60117484956E+02 -0.70822488005E+02 -0.36577809648E+03  0.37739045122E+03  0.00000000000E+00 0.  1.
          1    1    1    2  501    0  0.32843348021E+03 -0.10823540597E+03 -0.48341863045E+03  0.59437111832E+03  0.00000000000E+00 0. -1.
<mgrwt>
<rscale>  4 0.46961490E+03</rscale>
<asrwt>0</asrwt>
<pdfrwt beam="1">  1       21 0.17624227E-01 0.46961490E+03</pdfrwt>
<pdfrwt beam="2">  1        1 0.22647596E+00 0.46961490E+03</pdfrwt>
<totfact> 0.22619371E+03</totfact>
</mgrwt>
</event>
<event>
 5    0  0.3188794E-002  0.7136429E+03  0.7546771E-02  0.9694181E-01
         21   -1    0    0  501  502  0.00000000000E+00  0.00000000000E+00  0.39917108247E+03  0.39917108247E+03  0.00000000000E+00 0.  1.
          1   -1    0    0  503    0 -0.00000000000E+00 -0.00000000000E+00 -0.15807131343E+04  0.15807131343E+04  0.00000000000E+00 0. -1.
         25    1    1    2    0    0  0.31132126846E+03  0.47563975004E+03 -0.46782122737E+02  0.58392437098E+03  0.12500000000E+03 0.  0.
         21    1    1    2  503  502  0.10286884341E+03  0.57514855651E+02 -0.75915325943E+02  0.14018949418E+03  0.00000000000E+00 0. -1.
          1    1    1    2  501    0 -0.41419011187E+03 -0.53315460569E+03 -0.10588446031E+04  0.12557703516E+04  0.00000000000E+00 0. -1.
<mgrwt>
<rscale>  4 0.71364293E+03</rscale>
<asrwt>0</asrwt>
<pdfrwt beam="1">  1       21 0.61410934E-01 0.71364293E+03</pdfrwt>
<pdfrwt beam="2">  1        1 0.24318664E+00 0.71364293E+03</pdfrwt>
<totfact> 0.14365405E+02</totfact>
</mgrwt>
</event>
<event>
 5    0  0.3188794E-002  0.4595647E+03  0.7546771E-02  0.1024908E+00
         21   -1    0    0  501  502  0.00000000000E+00  0.00000000000E+00  0.10208029989E+03  0.10208029989E+03  0.00000000000E+00 0.  1.
          2   -1    0    0  503    0 -0.00000000000E+00 -0.00000000000E+00 -0.23342347445E+04  0.23342347445E+04  0.00000000000E+00 0.  1.
         25    1    1    2    0    0 -0.25286858593E+03  0.12509589205E+03 -0.14978936105E+04  0.15293468450E+04  0.12500000000E+03 0.  0.
         21    1    1    2  503  502 -0.22646190712E+02 -0.14638049456E+03 -0.56233246148E+03  0.58151345331E+03  0.00000000000E+00 0.  1.
          2    1    1    2  501    0  0.27551477664E+03  0.21284602502E+02 -0.17192837272E+03  0.32545474616E+03  0.00000000000E+00 0.  1.
<mgrwt>
<rscale>  4 0.45956472E+03</rscale>
<asrwt>0</asrwt>
<pdfrwt beam="1">  1       21 0.15704663E-01 0.45956472E+03</pdfrwt>
<pdfrwt beam="2">  1        2 0.35911301E+00 0.45956472E+03</pdfrwt>
<totfact> 0.20832978E+03</totfact>
</mgrwt>
</event>
<event>
 5    0  0.3188794E-002  0.7181185E+03  0.7546771E-02  0.9686739E-01
         21   -1    0    0  501  502  0.00000000000E+00  0.00000000000E+00  0.29497467861E+03  0.29497467861E+03  0.00000000000E+00 0.  1.
          2   -1    0    0  503    0 -0.00000000000E+00 -0.00000000000E+00 -0.83888327493E+03  0.83888327493E+03  0.00000000000E+00 0. -1.
         25    1    1    2    0    0 -0.27135205763E+03  0.15474229736E+03 -0.75552597232E+02  0.34483374649E+03  0.12500000000E+03 0.  0.
         21    1    1    2  503  502  0.18322035762E+03 -0.14073443816E+03 -0.59260613777E+03  0.63604867428E+03  0.00000000000E+00 0. -1.
          2    1    1    2  501    0  0.88131700006E+02 -0.14007859204E+02  0.12425013868E+03  0.15297553277E+03  0.00000000000E+00 0. -1.
<mgrwt>
<rscale>  4 0.71811853E+03</rscale>
<asrwt>0</asrwt>
<pdfrwt beam="1">  1       21 0.45380720E-01 0.71811853E+03</pdfrwt>
<pdfrwt beam="2">  1        2 0.12905896E+00 0.71811853E+03</pdfrwt>
<totfact> 0.17318579E+03</totfact>
</mgrwt>
</event>
<event>
 5    0  0.3188794E-002  0.3978318E+03  0.7546771E-02  0.1044533E+00
         21   -1    0    0  503  502  0.00000000000E+00  0.00000000000E+00  0.62155262857E+03  0.62155262857E+03  0.00000000000E+00 0. -1.
         -1   -1    0    0    0  501 -0.00000000000E+00 -0.00000000000E+00 -0.10348407719E+03  0.10348407719E+03  0.00000000000E+00 0. -1.
         25    1    1    2    0    0 -0.43302018951E+02  0.19529303928E+03  0.19184051169E+03  0.30404311859E+03  0.12500000000E+03 0.  0.
         21    1    1    2  503  501 -0.40799266203E+02 -0.15655907602E+03  0.14399642762E+03  0.21658784725E+03  0.00000000000E+00 0. -1.
         -1    1    1    2    0  502  0.84101285154E+02 -0.38733963256E+02  0.18223161207E+03  0.20440573992E+03  0.00000000000E+00 0. -1.
<mgrwt>
<rscale>  4 0.39783181E+03</rscale>
<asrwt>0</asrwt>
<pdfrwt beam="1">  1       21 0.95623479E-01 0.39783181E+03</pdfrwt>
<pdfrwt beam="2">  1       -1 0.15920628E-01 0.39783181E+03</pdfrwt>
<totfact> 0.22868990E+03</totfact>
</mgrwt>
</event>
<event>
 5    0  0.3188794E-002  0.8106089E+03  0.7546771E-02  0.9544787E-01
          2   -1    0    0  503    0 -0.00000000000E+00  0.00000000000E+00  0.71266100538E+03  0.71266100538E+03  0.00000000000E+00 0.  1.
         21   -1    0    0  501  502  0.00000000000E+00 -0.00000000000E+00 -0.25500640970E+03  0.25500640970E+03  0.00000000000E+00 0. -1.
         25    1    1    2    0    0 -0.40077806678E+03  0.13011730967E+02  0.29393645203E+03  0.51265583171E+03  0.12500000000E+03 0.  0.
         21    1    1    2  503  502  0.38487171963E+03 -0.33290894381E+02  0.17822145589E+03  0.42543790564E+03  0.00000000000E+00 0. -1.
          2    1    1    2  501    0  0.15906347155E+02  0.20279163413E+02 -0.14503312242E+02  0.29573677731E+02  0.00000000000E+00 0.  1.
<mgrwt>
<rscale>  4 0.81060889E+03</rscale>
<asrwt>0</asrwt>
<pdfrwt beam="1">  1       21 0.39231756E-01 0.81060889E+03</pdfrwt>
<pdfrwt beam="2">  1        2 0.10964015E+00 0.81060889E+03</pdfrwt>
<totfact> 0.28796192E+03</totfact>
</mgrwt>
</event>
<event>
 5    0  0.3188794E-002  0.6535007E+03  0.7546771E-02  0.9800232E-01
         21   -1    0    0  501  502  0.00000000000E+00  0.00000000000E+00  0.59165910401E+03  0.59165910401E+03  0.00000000000E+00 0. -1.
          2   -1    0    0  503    0 -0.00000000000E+00 -0.00000000000E+00 -0.67495749716E+03  0.67495749716E+03  0.00000000000E+00 0.  1.
         25    1    1    2    0    0  0.18721302284E+02 -0.42724058296E+03  0.12662363509E+03  0.46318845825E+03  0.12500000000E+03 0.  0.
         21    1    1    2  503  502 -0.12338483232E+03 -0.14670443268E+03 -0.40614755143E+02  0.19594786488E+03  0.00000000000E+00 0.  1.
          2    1    1    2  501    0  0.10466353004E+03  0.57394501564E+03 -0.16930727310E+03  0.60748027805E+03  0.00000000000E+00 0.  1.
<mgrwt>
<rscale>  4 0.65350070E+03</rscale>
<asrwt>0</asrwt>
<pdfrwt beam="1">  1       21 0.91024477E-01 0.65350070E+03</pdfrwt>
<pdfrwt beam="2">  1        2 0.10383962E+00 0.65350070E+03</pdfrwt>
<totfact> 0.48592399E+02</totfact>
</mgrwt>
</event>
<event>
 5    0  0.3188794E-002  0.4241681E+03  0.7546771E-02  0.1035718E+00
         21   -1    0    0  503  502  0.00000000000E+00  0.00000000000E+00  0.84176513770E+02  0.84176513770E+02  0.00000000000E+00 0. -1.
          1   -1    0    0  502    0 -0.00000000000E+00 -0.00000000000E+00 -0.95814032067E+03  0.95814032067E+03  0.00000000000E+00 0.  1.
         25    1    1    2    0    0 -0.22348302968E+03  0.70454092025E+02 -0.66380235306E+03  0.71495944470E+03  0.12500000000E+03 0.  0.
         21    1    1    2  503  501  0.92845298548E+02 -0.16280734901E+02 -0.31265326826E+02  0.99311794128E+02  0.00000000000E+00 0.  1.
          1    1    1    2  501    0  0.13063773113E+03 -0.54173357123E+02 -0.17889612701E+03  0.22804559561E+03  0.00000000000E+00 0.  1.
<mgrwt>
<rscale>  4 0.42416809E+03</rscale>
<asrwt>0</asrwt>
<pdfrwt beam="1">  1       21 0.12950233E-01 0.42416809E+03</pdfrwt>
<pdfrwt beam="2">  1        1 0.14740621E+00 0.42416809E+03</pdfrwt>
<totfact> 0.94255144E+03</totfact>
</mgrwt>
</event>
<event>
 5    0  0.3188794E-002  0.1359086E+04  0.7546771E-02  0.8983978E-01
          1   -1    0    0  503    0 -0.00000000000E+00  0.00000000000E+00  0.15032551452E+04  0.15032551452E+04  0.00000000000E+00 0.  1.
         21   -1    0    0  501  502  0.00000000000E+00 -0.00000000000E+00 -0.12594780087E+04  0.12594780087E+04  0.00000000000E+00 0.  1.
         25    1    1    2    0    0 -0.76880409116E+02 -0.21784517566E+03 -0.23059575234E+03  0.34952327370E+03  0.12500000000E+03 0.  0.
         21    1    1    2  503  502 -0.12296460811E+01  0.32229636404E+03  0.14212786066E+04  0.14573638310E+04  0.00000000000E+00 0.  1.
          1    1    1    2  501    0  0.78110055197E+02 -0.10445118838E+03 -0.94690571774E+03  0.95584604920E+03  0.00000000000E+00 0.  1.
<mgrwt>
<rscale>  4 0.13590862E+04</rscale>
<asrwt>0</asrwt>
<pdfrwt beam="1">  1       21 0.19376585E+00 0.13590862E+04</pdfrwt>
<pdfrwt beam="2">  1        1 0.23127002E+00 0.13590862E+04</pdfrwt>
<totfact> 0.74795913E+00</totfact>
</mgrwt>
</event>
<event>
 5    0  0.3188794E-002  0.4810916E+03  0.7546771E-02  0.1018836E+00
         21   -1    0    0  501  502  0.00000000000E+00  0.00000000000E+00  0.29384007903E+03  0.29384007903E+03  0.00000000000E+00 0.  1.
          1   -1    0    0  503    0 -0.00000000000E+00 -0.00000000000E+00 -0.88106170855E+03  0.88106170855E+03  0.00000000000E+00 0. -1.
         25    1    1    2    0    0 -0.22117749940E+03  0.82100596832E+02 -0.36403166767E+03  0.45144661845E+03  0.12500000000E+03 0.  0.
         21    1    1    2  503  502  0.19033452533E+03 -0.73621337167E+02 -0.45015148228E+03  0.49425063461E+03  0.00000000000E+00 0. -1.
          1    1    1    2  501    0  0.30842974070E+02 -0.84792596654E+01  0.22696152042E+03  0.22920453452E+03  0.00000000000E+00 0. -1.
<mgrwt>
<rscale>  4 0.48109156E+03</rscale>
<asrwt>0</asrwt>
<pdfrwt beam="1">  1       21 0.45206166E-01 0.48109156E+03</pdfrwt>
<pdfrwt beam="2">  1        1 0.13554796E+00 0.48109156E+03</pdfrwt>
<totfact> 0.94006488E+02</totfact>
</mgrwt>
</event>
<event>
 5    0  0.3188794E-002  0.7580698E+03  0.7546771E-02  0.9622774E-01
          2   -1    0    0  503    0 -0.00000000000E+00  0.00000000000E+00  0.20221223494E+04  0.20221223494E+04  0.00000000000E+00 0. -1.
         21   -1    0    0  501  502  0.00000000000E+00 -0.00000000000E+00 -0.21464843995E+03  0.21464843995E+03  0.00000000000E+00 0.  1.
         25    1    1    2    0    0 -0.21812401648E+03 -0.17446970710E+03  0.31619608058E+03  0.44002582497E+03  0.12500000000E+03 0.  0.
         21    1    1    2  503  502  0.19855747680E+03  0.14510556910E+03  0.16326333248E+04  0.16510518681E+04  0.00000000000E+00 0. -1.
          2    1    1    2  501    0  0.19566539686E+02  0.29364138004E+02 -0.14135549595E+03  0.14569309631E+03  0.00000000000E+00 0. -1.
<mgrwt>
<rscale>  4 0.75806983E+03</rscale>
<asrwt>0</asrwt>
<pdfrwt beam="1">  1       21 0.33022838E-01 0.75806983E+03</pdfrwt>
<pdfrwt beam="2">  1        2 0.31109573E+00 0.75806983E+03</pdfrwt>
<totfact> 0.68354970E+02</totfact>
</mgrwt>
</event>
<event>
 5    0  0.3188794E-002  0.7901676E+03  0.7546771E-02  0.9574359E-01
          2   -1    0    0  503    0 -0.00000000000E+00  0.00000000000E+00  0.87714842783E+03  0.87714842783E+03  0.00000000000E+00 0.  1.
         21   -1    0    0  501  502  0.00000000000E+00 -0.00000000000E+00 -0.32630257583E+03  0.32630257583E+03  0.00000000000E+00 0. -1.
         25    1    1    2    0    0  0.17872746881E+03 -0.25868056723E+03  0.79378190872E+02  0.34754142365E+03  0.12500000000E+03 0.  0.
         21    1    1    2  503  502 -0.19657155243E+03  0.27981439902E+03  0.61826323834E+03  0.70653089459E+03  0.00000000000E+00 0.  1.
          2    1    1    2  501    0  0.17844083618E+02 -0.21133831787E+02 -0.14679557722E+03  0.14937868542E+03  0.00000000000E+00 0.  1.
<mgrwt>
<rscale>  4 0.79016763E+03</rscale>
<asrwt>0</asrwt>
<pdfrwt beam="1">  1       21 0.50200397E-01 0.79016763E+03</pdfrwt>
<pdfrwt beam="2">  1        2 0.13494591E+00 0.79016763E+03</pdfrwt>
<totfact> 0.13014012E+03</totfact>
</mgrwt>
</event>
<event>
 5    0  0.3188794E-002  0.4472121E+03  0.7546771E-02  0.1028557E+00
         21   -1    0    0  503  502  0.00000000000E+00  0.00000000000E+00  0.24166196799E+03  0.24166196799E+03  0.00000000000E+00 0. -1.
          2   -1    0    0  502    0 -0.00000000000E+00 -0.00000000000E+00 -0.30296062040E+03  0.30296062040E+03  0.00000000000E+00 0.  1.
         25    1    1    2    0    0 -0.23080444618E+03 -0.44583060688E+02 -0.99526421963E+02  0.28423379522E+03  0.12500000000E+03 0.  0.
         21    1    1    2  503  501  0.15243004863E+03  0.77535661725E+02  0.12098416258E+02  0.17144407322E+03  0.00000000000E+00 0.  1.
          2    1    1    2  501    0  0.78374397546E+02 -0.32952601037E+02  0.26129353294E+02  0.88944719963E+02  0.00000000000E+00 0.  1.
<mgrwt>
<rscale>  4 0.44721210E+03</rscale>
<asrwt>0</asrwt>
<pdfrwt beam="1">  1       21 0.37178765E-01 0.44721210E+03</pdfrwt>
<pdfrwt beam="2">  1        2 0.46609326E-01 0.44721210E+03</pdfrwt>
<totfact> 0.89855332E+03</totfact>
</mgrwt>
</event>
<event>
 5    0  0.3188794E-002  0.4304254E+03  0.7546771E-02  0.1033726E+00
         21   -1    0    0  501  502  0.00000000000E+00  0.00000000000E+00  0.21421081487E+03  0.21421081487E+03  0.00000000000E+00 0. -1.
          1   -1    0    0  503    0 -0.00000000000E+00 -0.00000000000E+00 -0.61638795951E+03  0.61638795951E+03  0.00000000000E+00 0. -1.
         25    1    1    2    0    0  0.24396156862E+03  0.15348007096E+03 -0.28315636434E+03  0.42293723625E+03  0.12500000000E+03 0.  0.
         21    1    1    2  503  502  0.34129862931E+02 -0.10131020899E+03 -0.35634555307E+02  0.11268729974E+03  0.00000000000E+00 0.  1.
          1    1    1    2  501    0 -0.27809143155E+03 -0.52169861971E+02 -0.83386224997E+02  0.29497423840E+03  0.00000000000E+00 0. -1.
<mgrwt>
<rscale>  4 0.43042536E+03</rscale>
<asrwt>0</asrwt>
<pdfrwt beam="1">  1       21 0.32955510E-01 0.43042536E+03</pdfrwt>
<pdfrwt beam="2">  1        1 0.94828918E-01 0.43042536E+03</pdfrwt>
<totfact> 0.31319159E+03</totfact>
</mgrwt>
</event>
<event>
 5    0  0.3188794E-002  0.3861690E+03  0.7546771E-02  0.1048677E+00
         21   -1    0    0  501  502  0.00000000000E+00  0.00000000000E+00  0.11043462472E+03  0.11043462472E+03  0.00000000000E+00 0.  1.
          2   -1    0    0  503    0 -0.00000000000E+00 -0.00000000000E+00 -0.80041418808E+03  0.80041418808E+03  0.00000000000E+00 0. -1.
         25    1    1    2    0    0  0.61840929068E+02  0.26939860135E+03 -0.28016181507E+03  0.41293528493E+03  0.12500000000E+03 0.  0.
         21    1    1    2  503  502 -0.42028830776E+02 -0.65753109349E+02 -0.12024957455E+03  0.14335220328E+03  0.00000000000E+00 0. -1.
          2    1    1    2  501    0 -0.19812098291E+02 -0.20364549200E+03 -0.28956817374E+03  0.35456132459E+03  0.00000000000E+00 0. -1.
<mgrwt>
<rscale>  4 0.38616899E+03</rscale>
<asrwt>0</asrwt>
<pdfrwt beam="1">  1       21 0.16989943E-01 0.38616899E+03</pdfrwt>
<pdfrwt beam="2">  1        2 0.12314064E+00 0.38616899E+03</pdfrwt>
<totfact> 0.13514205E+04</totfact>
</mgrwt>
</event>
<event>
 5    0  0.3188794E-002  0.4461601E+03  0.7546771E-02  0.1028873E+00
          1   -1    0    0  503    0 -0.00000000000E+00  0.00000000000E+00  0.54490303734E+03  0.54490303734E+03  0.00000000000E+00 0.  1.
         21   -1    0    0  501  502  0.00000000000E+00 -0.00000000000E+00 -0.29365159976E+03  0.29365159976E+03  0.00000000000E+00 0.  1.
         25    1    1    2    0    0 -0.24854297990E+03 -0.21185518203E+03  0.28667556985E+03  0.45217708186E+03  0.12500000000E+03 0.  0.
         21    1    1    2  503  502  0.72460590722E+02 -0.34958646396E+02  0.44741311930E+01  0.80577056384E+02  0.00000000000E+00 0. -1.
          1    1    1    2  501    0  0.17608238917E+03  0.24681382842E+03 -0.39898263465E+02  0.30580049886E+03  0.00000000000E+00 0.  1.
<mgrwt>
<rscale>  4 0.44616009E+03</rscale>
<asrwt>0</asrwt>
<pdfrwt beam="1">  1       21 0.45177169E-01 0.44616009E+03</pdfrwt>
<pdfrwt beam="2">  1        1 0.83831236E-01 0.44616009E+03</pdfrwt>
<totfact> 0.19448203E+03</totfact>
</mgrwt>
</event>
<event>
 5    0  0.3188794E-002  0.5677197E+03  0.7546771E-02  0.9974737E-01
          2   -1    0    0  503    0 -0.00000000000E+00  0.00000000000E+00  0.83176269773E+03  0.83176269773E+03  0.00000000000E+00 0. -1.
         21   -1    0    0  501  502  0.00000000000E+00 -0.00000000000E+00 -0.12515817510E+03  0.12515817510E+03  0.00000000000E+00 0.  1.
         25    1    1    2    0    0 -0.24733869605E+03  0.13934468476E+03  0.47449482774E+03  0.56688950712E+03  0.12500000000E+03 0.  0.
         21    1    1    2  503  502  0.22918508200E+03 -0.95485926002E+02  0.23581338313E+03  0.34241979432E+03  0.00000000000E+00 0.  1.
          2    1    1    2  501    0  0.18153614055E+02 -0.43858758763E+02 -0.37036882374E+01  0.47611571388E+02  0.00000000000E+00 0. -1.
<mgrwt>
<rscale>  4 0.56771969E+03</rscale>
<asrwt>0</asrwt>
<pdfrwt beam="1">  1       21 0.19255104E-01 0.56771969E+03</pdfrwt>
<pdfrwt beam="2">  1        2 0.12796349E+00 0.56771969E+03</pdfrwt>
<totfact> 0.99260826E+03</totfact>
</mgrwt>
</event>
<event>
 5    0  0.3188794E-002  0.4239781E+03  0.7546771E-02  0.1035779E+00
         -1   -1    0    0    0  501 -0.00000000000E+00  0.00000000000E+00  0.45921572458E+03  0.45921572458E+03  0.00000000000E+00 0.  1.
         21   -1    0    0  503  502  0.00000000000E+00 -0.00000000000E+00 -0.29553776768E+03  0.29553776768E+03  0.00000000000E+00 0. -1.
         25    1    1    2    0    0  0.24635877276E+02 -0.22645314884E+03 -0.18365263968E+03  0.31818429743E+03  0.12500000000E+03 0.  0.
         21    1    1    2  503  501  0.23304986679E+02  0.11580989547E+02  0.10922024544E+03  0.11227779717E+03  0.00000000000E+00 0.  1.
         -1    1    1    2    0  502 -0.47940863955E+02  0.21487215930E+03  0.23811035114E+03  0.32429139766E+03  0.00000000000E+00 0.  1.
<mgrwt>
<rscale>  4 0.42397811E+03</rscale>
<asrwt>0</asrwt>
<pdfrwt beam="1">  1       21 0.45467349E-01 0.42397811E+03</pdfrwt>
<pdfrwt beam="2">  1       -1 0.70648573E-01 0.42397811E+03</pdfrwt>
<totfact> 0.85069364E+02</totfact>
</mgrwt>
</event>
<event>
 5    0  0.3188794E-002  0.1025964E+04  0.7546771E-02  0.9280518E-01
          2   -1    0    0  502    0 -0.00000000000E+00  0.00000000000E+00  0.22383089608E+04  0.22383089608E+04  0.00000000000E+00 0. -1.
         21   -1    0    0  503  502  0.00000000000E+00 -0.00000000000E+00 -0.40056909090E+03  0.40056909090E+03  0.00000000000E+00 0. -1.
         25    1    1    2    0    0  0.58081031696E+02  0.66899968707E+03  0.14183603414E+04  0.15742633343E+04  0.12500000000E+03 0.  0.
         21    1    1    2  503  501  0.45495631151E+02  0.12395345533E+03 -0.45452867535E+02  0.13964338405E+03  0.00000000000E+00 0.  1.
          2    1    1    2  501    0 -0.10357666285E+03 -0.79295314240E+03  0.46483239598E+03  0.92497133333E+03  0.00000000000E+00 0. -1.
<mgrwt>
<rscale>  4 0.10259636E+04</rscale>
<asrwt>0</asrwt>
<pdfrwt beam="1">  1       21 0.61626016E-01 0.10259636E+04</pdfrwt>
<pdfrwt beam="2">  1        2 0.34435522E+00 0.10259636E+04</pdfrwt>
<totfact> 0.13155638E+02</totfact>
</mgrwt>
</event>
<event>
 5    0  0.3188794E-002  0.4158491E+03  0.7546771E-02  0.1038426E+00
         21   -1    0    0  501  502  0.00000000000E+00  0.00000000000E+00  0.49177507448E+02  0.49177507448E+02  0.00000000000E+00 0.  1.
          2   -1    0    0  503    0 -0.00000000000E+00 -0.00000000000E+00 -0.26774851566E+04  0.26774851566E+04  0.00000000000E+00 0. -1.
         25    1    1    2    0    0  0.15002376352E+03 -0.17019849028E+03 -0.19468453756E+04  0.19640026915E+04  0.12500000000E+03 0.  0.
         21    1    1    2  503  502 -0.59763438616E+02  0.13127765630E+03 -0.63987347856E+03  0.65592953905E+03  0.00000000000E+00 0. -1.
          2    1    1    2  501    0 -0.90260324903E+02  0.38920833979E+02 -0.41588795021E+02  0.10673043353E+03  0.00000000000E+00 0. -1.
<mgrwt>
<rscale>  4 0.41584909E+03</rscale>
<asrwt>0</asrwt>
<pdfrwt beam="1">  1       21 0.75657668E-02 0.41584909E+03</pdfrwt>
<pdfrwt beam="2">  1        2 0.41192099E+00 0.41584909E+03</pdfrwt>
<totfact> 0.50864186E+03</totfact>
</mgrwt>
</event>
<event>
 5    0  0.3188794E-002  0.5240774E+03  0.7546771E-02  0.1007679E+00
          2   -1    0    0  503    0 -0.00000000000E+00  0.00000000000E+00  0.88079887998E+03  0.88079887998E+03  0.00000000000E+00 0. -1.
         21   -1    0    0  501  502  0.00000000000E+00 -0.00000000000E+00 -0.23960085697E+03  0.23960085697E+03  0.00000000000E+00 0.  1.
         25    1    1    2    0    0 -0.73067253523E+02  0.24184620065E+03  0.41270095674E+03  0.49977543758E+03  0.12500000000E+03 0.  0.
         21    1    1    2  503  502  0.15633292320E+02 -0.24138801861E+03  0.38456914147E+03  0.45431927092E+03  0.00000000000E+00 0. -1.
          2    1    1    2  501    0  0.57433961203E+02 -0.45818204815E+00 -0.15607207521E+03  0.16630502846E+03  0.00000000000E+00 0. -1.
<mgrwt>
<rscale>  4 0.52407738E+03</rscale>
<asrwt>0</asrwt>
<pdfrwt beam="1">  1       21 0.36861671E-01 0.52407738E+03</pdfrwt>
<pdfrwt beam="2">  1        2 0.13550752E+00 0.52407738E+03</pdfrwt>
<totfact> 0.25717513E+03</totfact>
</mgrwt>
</event>
<event>
 5    0  0.3188794E-002  0.5724793E+03  0.7546771E-02  0.9964207E-01
         21   -1    0    0  501  502  0.00000000000E+00  0.00000000000E+00  0.58283500655E+02  0.58283500655E+02  0.00000000000E+00 0. -1.
          2   -1    0    0  503    0 -0.00000000000E+00 -0.00000000000E+00 -0.19715252171E+04  0.19715252171E+04  0.00000000000E+00 0.  1.
         25    1    1    2    0    0 -0.97160614975E+02  0.21031850917E+03 -0.44636561047E+03  0.51820972454E+03  0.12500000000E+03 0.  0.
         21    1    1    2  503  502  0.56206358302E+02 -0.18479639182E+03 -0.14462973258E+04  0.14591383813E+04  0.00000000000E+00 0.  1.
          2    1    1    2  501    0  0.40954256674E+02 -0.25522117347E+02 -0.20578780240E+02  0.52460611984E+02  0.00000000000E+00 0.  1.
<mgrwt>
<rscale>  4 0.57247929E+03</rscale>
<asrwt>0</asrwt>
<pdfrwt beam="1">  1       21 0.89666951E-02 0.57247929E+03</pdfrwt>
<pdfrwt beam="2">  1        2 0.30331148E+00 0.57247929E+03</pdfrwt>
<totfact> 0.89220180E+03</totfact>
</mgrwt>
</event>
<event>
 5    0  0.3188794E-002  0.3773823E+03  0.7546771E-02  0.1051906E+00
         21   -1    0    0  501  502  0.00000000000E+00  0.00000000000E+00  0.77388585233E+02  0.77388585233E+02  0.00000000000E+00 0.  1.
          2   -1    0    0  503    0 -0.00000000000E+00 -0.00000000000E+00 -0.10590089138E+04  0.10590089138E+04  0.00000000000E+00 0. -1.
         25    1    1    2    0    0 -0.26923322658E+02  0.23234867063E+03 -0.28287223791E+03  0.38775310834E+03  0.12500000000E+03 0.  0.
         21    1    1    2  503  502  0.11528971148E+02 -0.39278264185E+02 -0.32618784787E+03  0.32874642403E+03  0.00000000000E+00 0. -1.
          2    1    1    2  501    0  0.15394351511E+02 -0.19307040644E+03 -0.37256024277E+03  0.41989796665E+03  0.00000000000E+00 0. -1.
<mgrwt>
<rscale>  4 0.37738229E+03</rscale>
<asrwt>0</asrwt>
<pdfrwt beam="1">  1       21 0.11905937E-01 0.37738229E+03</pdfrwt>
<pdfrwt beam="2">  1        2 0.16292444E+00 0.37738229E+03</pdfrwt>
<totfact> 0.17693853E+04</totfact>
</mgrwt>
</event>
<event>
 5    0  0.3188794E-002  0.8015383E+03  0.7546771E-02  0.9557793E-01
         21   -1    0    0  503  502  0.00000000000E+00  0.00000000000E+00  0.50430491865E+03  0.50430491865E+03  0.00000000000E+00 0. -1.
          2   -1    0    0  502    0 -0.00000000000E+00 -0.00000000000E+00 -0.21535847626E+04  0.21535847626E+04  0.00000000000E+00 0. -1.
         25    1    1    2    0    0  0.27347275255E+03  0.49011282518E+03 -0.41333205403E+02  0.57648188321E+03  0.12500000000E+03 0.  0.
         21    1    1    2  503  501  0.52584709416E+02  0.20423145984E+03  0.81401787886E+02  0.22605727576E+03  0.00000000000E+00 0.  1.
          2    1    1    2  501    0 -0.32605746197E+03 -0.69434428503E+03 -0.16893484265E+04  0.18553505223E+04  0.00000000000E+00 0. -1.
<mgrwt>
<rscale>  4 0.80153828E+03</rscale>
<asrwt>0</asrwt>
<pdfrwt beam="1">  1       21 0.77585374E-01 0.80153828E+03</pdfrwt>
<pdfrwt beam="2">  1        2 0.33132072E+00 0.80153828E+03</pdfrwt>
<totfact> 0.90419479E+01</totfact>
</mgrwt>
</event>
<event>
 5    0  0.3188794E-002  0.9153197E+03  0.7546771E-02  0.9406631E-01
          2   -1    0    0  503    0 -0.00000000000E+00  0.00000000000E+00  0.24403666913E+04  0.24403666913E+04  0.00000000000E+00 0. -1.
         21   -1    0    0  501  502  0.00000000000E+00 -0.00000000000E+00 -0.26191237898E+03  0.26191237898E+03  0.00000000000E+00 0. -1.
         25    1    1    2    0    0 -0.22168039939E+03 -0.30699303567E+03  0.19129278820E+04  0.19540483631E+04  0.12500000000E+03 0.  0.
         21    1    1    2  503  502  0.32809170911E+03  0.63686993566E+02  0.33554856670E+03  0.47359586501E+03  0.00000000000E+00 0. -1.
          2    1    1    2  501    0 -0.10641130972E+03  0.24330604210E+03 -0.70022136405E+02  0.27463484219E+03  0.00000000000E+00 0. -1.
<mgrwt>
<rscale>  4 0.91531970E+03</rscale>
<asrwt>0</asrwt>
<pdfrwt beam="1">  1       21 0.40294214E-01 0.91531970E+03</pdfrwt>
<pdfrwt beam="2">  1        2 0.37544101E+00 0.91531970E+03</pdfrwt>
<totfact> 0.25856782E+02</totfact>
</mgrwt>
</event>
<event>
 5    0  0.3188794E-002  0.4711680E+03  0.7546771E-02  0.1021591E+00
         21   -1    0    0  501  502  0.00000000000E+00  0.00000000000E+00  0.45456823002E+02  0.45456823002E+02  0.00000000000E+00 0. -1.
          2   -1    0    0  503    0 -0.00000000000E+00 -0.00000000000E+00 -0.19144191384E+04  0.19144191384E+04  0.00000000000E+00 0. -1.
         25    1    1    2    0    0  0.15258844795E+03  0.15040146285E+03 -0.12621644324E+04  0.12863078515E+04  0.12500000000E+03 0.  0.
         21    1    1    2  503  502 -0.18044573330E+03 -0.93232080757E+02 -0.55675052882E+03  0.59264157371E+03  0.00000000000E+00 0.  1.
          2    1    1    2  501    0  0.27857285348E+02 -0.57169382096E+02 -0.50047354183E+02  0.80926536173E+02  0.00000000000E+00 0. -1.
<mgrwt>
<rscale>  4 0.47116802E+03</rscale>
<asrwt>0</asrwt>
<pdfrwt beam="1">  1       21 0.69933581E-02 0.47116802E+03</pdfrwt>
<pdfrwt beam="2">  1        2 0.29452599E+00 0.47116802E+03</pdfrwt>
<totfact> 0.15130138E+04</totfact>
</mgrwt>
</event>
<event>
 5    0  0.3188794E-002  0.4647366E+03  0.7546771E-02  0.1023416E+00
         21   -1    0    0  503  502  0.00000000000E+00  0.00000000000E+00  0.41689809870E+03  0.41689809870E+03  0.00000000000E+00 0. -1.
          1   -1    0    0  502    0 -0.00000000000E+00 -0.00000000000E+00 -0.96865771527E+03  0.96865771527E+03  0.00000000000E+00 0.  1.
         25    1    1    2    0    0  0.34153340919E+03  0.37664250826E+02  0.20575901485E+03  0.41955385539E+03  0.12500000000E+03 0.  0.
         21    1    1    2  503  501 -0.33909346570E+02 -0.92533226395E+02  0.42348373807E+02  0.10726428360E+03  0.00000000000E+00 0.  1.
          1    1    1    2  501    0 -0.30762406262E+03  0.54868975569E+02 -0.79986700522E+03  0.85873767498E+03  0.00000000000E+00 0.  1.
<mgrwt>
<rscale>  4 0.46473657E+03</rscale>
<asrwt>0</asrwt>
<pdfrwt beam="1">  1       21 0.64138170E-01 0.46473657E+03</pdfrwt>
<pdfrwt beam="2">  1        1 0.14902426E+00 0.46473657E+03</pdfrwt>
<totfact> 0.37844549E+02</totfact>
</mgrwt>
</event>
<event>
 5    0  0.3188794E-002  0.7468629E+03  0.7546771E-02  0.9640285E-01
          2   -1    0    0  503    0 -0.00000000000E+00  0.00000000000E+00  0.52152955773E+03  0.52152955773E+03  0.00000000000E+00 0.  1.
         21   -1    0    0  501  502  0.00000000000E+00 -0.00000000000E+00 -0.36534769115E+03  0.36534769115E+03  0.00000000000E+00 0. -1.
         25    1    1    2    0    0 -0.37022050387E+02 -0.32976811337E+03  0.23030112284E+03  0.42282531616E+03  0.12500000000E+03 0.  0.
         21    1    1    2  503  502  0.99466318555E+02  0.34663527183E+03  0.65121433939E+01  0.36068264197E+03  0.00000000000E+00 0. -1.
          2    1    1    2  501    0 -0.62444268167E+02 -0.16867158464E+02 -0.80631399646E+02  0.10336929075E+03  0.00000000000E+00 0.  1.
<mgrwt>
<rscale>  4 0.74686290E+03</rscale>
<asrwt>0</asrwt>
<pdfrwt beam="1">  1       21 0.56207337E-01 0.74686290E+03</pdfrwt>
<pdfrwt beam="2">  1        2 0.80235316E-01 0.74686290E+03</pdfrwt>
<totfact> 0.19688310E+03</totfact>
</mgrwt>
</event>
<event>
 5    0  0.3188794E-002  0.6801482E+03  0.7546771E-02  0.9751797E-01
          3   -1    0    0  503    0 -0.00000000000E+00  0.00000000000E+00  0.10583611648E+03  0.10583611648E+03  0.00000000000E+00 0. -1.
         21   -1    0    0  501  502  0.00000000000E+00 -0.00000000000E+00 -0.13840534572E+04  0.13840534572E+04  0.00000000000E+00 0.  1.
         25    1    1    2    0    0 -0.18547590193E+03 -0.91670639772E+02 -0.96994328471E+03  0.99960981986E+03  0.12500000000E+03 0.  0.
         21    1    1    2  503  502  0.22081003272E+03  0.44094417916E+02 -0.57220426957E+02  0.23232642016E+03  0.00000000000E+00 0. -1.
          3    1    1    2  501    0 -0.35334130793E+02  0.47576221855E+02 -0.25105362907E+03  0.25795333367E+03  0.00000000000E+00 0. -1.
<mgrwt>
<rscale>  4 0.68014823E+03</rscale>
<asrwt>0</asrwt>
<pdfrwt beam="1">  1       21 0.21293130E+00 0.68014823E+03</pdfrwt>
<pdfrwt beam="2">  1        3 0.16282480E-01 0.68014823E+03</pdfrwt>
<totfact> 0.15355776E+02</totfact>
</mgrwt>
</event>
<event>
 5    0  0.3188794E-002  0.5393566E+03  0.7546771E-02  0.1003988E+00
          2   -1    0    0  503    0 -0.00000000000E+00  0.00000000000E+00  0.13956179896E+04  0.13956179896E+04  0.00000000000E+00 0. -1.
         21   -1    0    0  501  502  0.00000000000E+00 -0.00000000000E+00 -0.22905590181E+03  0.22905590181E+03  0.00000000000E+00 0. -1.
         25    1    1    2    0    0 -0.49822591671E+02  0.26802139002E+03  0.10510648819E+04  0.10930142461E+04  0.12500000000E+03 0.  0.
         21    1    1    2  503  502  0.81426723866E+01 -0.19879352152E+03  0.28285137085E+03  0.34581796556E+03  0.00000000000E+00 0.  1.
          2    1    1    2  501    0  0.41679919285E+02 -0.69227868499E+02 -0.16735416491E+03  0.18584167983E+03  0.00000000000E+00 0. -1.
<mgrwt>
<rscale>  4 0.53935662E+03</rscale>
<asrwt>0</asrwt>
<pdfrwt beam="1">  1       21 0.35239371E-01 0.53935662E+03</pdfrwt>
<pdfrwt beam="2">  1        2 0.21471045E+00 0.53935662E+03</pdfrwt>
<totfact> 0.13756702E+03</totfact>
</mgrwt>
</event>
<event>
 5    0  0.3188794E-002  0.4257772E+03  0.7546771E-02  0.1035202E+00
         21   -1    0    0  501  502  0.00000000000E+00  0.00000000000E+00  0.40500934300E+03  0.40500934300E+03  0.00000000000E+00 0.  1.
          1   -1    0    0  503    0 -0.00000000000E+00 -0.00000000000E+00 -0.24015795055E+03  0.24015795055E+03  0.00000000000E+00 0. -1.
         25    1    1    2    0    0 -0.17421357620E+03 -0.12918316409E+03 -0.63710422042E+02  0.25830733224E+03  0.12500000000E+03 0.  0.
         21    1    1    2  503  502 -0.12482822601E+02  0.12041933221E+03  0.12124632344E+03  0.17133974255E+03  0.00000000000E+00 0. -1.
          1    1    1    2  501    0  0.18669639880E+03  0.87638318711E+01  0.10731549105E+03  0.21552021876E+03  0.00000000000E+00 0. -1.
<mgrwt>
<rscale>  4 0.42577721E+03</rscale>
<asrwt>0</asrwt>
<pdfrwt beam="1">  1       21 0.62309130E-01 0.42577721E+03</pdfrwt>
<pdfrwt beam="2">  1        1 0.36947377E-01 0.42577721E+03</pdfrwt>
<totfact> 0.28532353E+03</totfact>
</mgrwt>
</event>
<event>
 5    0  0.3188794E-002  0.4245624E+03  0.7546771E-02  0.1035592E+00
          1   -1    0    0  503    0 -0.00000000000E+00  0.00000000000E+00  0.11105134667E+04  0.11105134667E+04  0.00000000000E+00 0. -1.
         21   -1    0    0  501  502  0.00000000000E+00 -0.00000000000E+00 -0.59854224038E+02  0.59854224038E+02  0.00000000000E+00 0.  1.
         25    1    1    2    0    0 -0.15925190382E+01  0.21012420175E+03  0.62496611309E+03  0.67109042519E+03  0.12500000000E+03 0.  0.
         21    1    1    2  503  502 -0.15190598589E+02 -0.17919041953E+03  0.42775892418E+03  0.46402333773E+03  0.00000000000E+00 0.  1.
          1    1    1    2  501    0  0.16783117627E+02 -0.30933782213E+02 -0.20657946080E+01  0.35253927819E+02  0.00000000000E+00 0. -1.
<mgrwt>
<rscale>  4 0.42456242E+03</rscale>
<asrwt>0</asrwt>
<pdfrwt beam="1">  1       21 0.92083429E-02 0.42456242E+03</pdfrwt>
<pdfrwt beam="2">  1        1 0.17084821E+00 0.42456242E+03</pdfrwt>
<totfact> 0.13411522E+04</totfact>
</mgrwt>
</event>
<event>
 5    0  0.3188794E-002  0.7785892E+03  0.7546771E-02  0.9591536E-01
          1   -1    0    0  503    0 -0.00000000000E+00  0.00000000000E+00  0.11100008280E+04  0.11100008280E+04  0.00000000000E+00 0.  1.
         21   -1    0    0  501  502  0.00000000000E+00 -0.00000000000E+00 -0.53162124168E+03  0.53162124168E+03  0.00000000000E+00 0.  1.
         25    1    1    2    0    0 -0.27137127260E+03  0.15573424639E+03  0.80124693680E+03  0.86920491073E+03  0.12500000000E+03 0.  0.
         21    1    1    2  503  502  0.29295633241E+03 -0.16370714286E+03  0.17184590150E+03  0.37703375868E+03  0.00000000000E+00 0. -1.
          1    1    1    2  501    0 -0.21585059809E+02  0.79728964720E+01 -0.39471325200E+03  0.39538340025E+03  0.00000000000E+00 0.  1.
<mgrwt>
<rscale>  4 0.77858920E+03</rscale>
<asrwt>0</asrwt>
<pdfrwt beam="1">  1       21 0.81787884E-01 0.77858920E+03</pdfrwt>
<pdfrwt beam="2">  1        1 0.17076936E+00 0.77858920E+03</pdfrwt>
<totfact> 0.15810948E+02</totfact>
</mgrwt>
</event>
<event>
 5    0  0.3188794E-002  0.6028218E+03  0.7546771E-02  0.9899569E-01
          1   -1    0    0  502    0 -0.00000000000E+00  0.00000000000E+00  0.10621614724E+04  0.10621614724E+04  0.00000000000E+00 0. -1.
         21   -1    0    0  503  502  0.00000000000E+00 -0.00000000000E+00 -0.33926307391E+03  0.33926307391E+03  0.00000000000E+00 0. -1.
         25    1    1    2    0    0  0.14099933329E+03  0.20240086367E+03  0.18727945473E+03  0.33398430467E+03  0.12500000000E+03 0.  0.
         21    1    1    2  503  501  0.17047959885E+03  0.27018868037E+03  0.34499506735E+03  0.47019869536E+03  0.00000000000E+00 0. -1.
          1    1    1    2  501    0 -0.31147893214E+03 -0.47258954404E+03  0.19062387637E+03  0.59724154623E+03  0.00000000000E+00 0. -1.
<mgrwt>
<rscale>  4 0.60282181E+03</rscale>
<asrwt>0</asrwt>
<pdfrwt beam="1">  1       21 0.52194320E-01 0.60282181E+03</pdfrwt>
<pdfrwt beam="2">  1        1 0.16340946E+00 0.60282181E+03</pdfrwt>
<totfact> 0.48752306E+02</totfact>
</mgrwt>
</event>
<event>
 5    0  0.3188794E-002  0.4245328E+03  0.7546771E-02  0.1035601E+00
          2   -1    0    0  503    0 -0.00000000000E+00  0.00000000000E+00  0.22455493417E+03  0.22455493417E+03  0.00000000000E+00 0. -1.
         21   -1    0    0  501  502  0.00000000000E+00 -0.00000000000E+00 -0.98523143849E+03  0.98523143849E+03  0.00000000000E+00 0. -1.
         25    1    1    2    0    0  0.24830833423E+03 -0.69775620885E+02 -0.79189271139E+02  0.29735770846E+03  0.12500000000E+03 0.  0.
         21    1    1    2  503  502 -0.93718327500E+02 -0.23516053466E+02  0.82710907738E+02  0.12718971633E+03  0.00000000000E+00 0.  1.
          2    1    1    2  501    0 -0.15459000673E+03  0.93291674351E+02 -0.76419814091E+03  0.78523894787E+03  0.00000000000E+00 0. -1.
<mgrwt>
<rscale>  4 0.42453282E+03</rscale>
<asrwt>0</asrwt>
<pdfrwt beam="1">  1       21 0.15157406E+00 0.42453282E+03</pdfrwt>
<pdfrwt beam="2">  1        2 0.34546914E-01 0.42453282E+03</pdfrwt>
<totfact> 0.48693397E+02</totfact>
</mgrwt>
</event>
<event>
 5    0  0.3188794E-002  0.7425377E+03  0.7546771E-02  0.9647131E-01
          2   -1    0    0  502    0 -0.00000000000E+00  0.00000000000E+00  0.11808468726E+04  0.11808468726E+04  0.00000000000E+00 0.  1.
         21   -1    0    0  503  502  0.00000000000E+00 -0.00000000000E+00 -0.26455897897E+03  0.26455897897E+03  0.00000000000E+00 0. -1.
         25    1    1    2    0    0 -0.21080968910E+03  0.35797872551E+03  0.67138045580E+03  0.79935361973E+03  0.12500000000E+03 0.  0.
         21    1    1    2  503  501 -0.39433089365E+02 -0.80846483913E+02 -0.10226589983E+03  0.13619631701E+03  0.00000000000E+00 0.  1.
          2    1    1    2  501    0  0.25024277846E+03 -0.27713224160E+03  0.34717333768E+03  0.50985591484E+03  0.00000000000E+00 0.  1.
<mgrwt>
<rscale>  4 0.74253775E+03</rscale>
<asrwt>0</asrwt>
<pdfrwt beam="1">  1       21 0.40701382E-01 0.74253775E+03</pdfrwt>
<pdfrwt beam="2">  1        2 0.18166875E+00 0.74253775E+03</pdfrwt>
<totfact> 0.13122317E+03</totfact>
</mgrwt>
</event>
<event>
 5    0  0.3188794E-002  0.3322776E+03  0.7546771E-02  0.1070134E+00
          2   -1    0    0  503    0 -0.00000000000E+00  0.00000000000E+00  0.57764337167E+03  0.57764337167E+03  0.00000000000E+00 0.  1.
         21   -1    0    0  501  502  0.00000000000E+00 -0.00000000000E+00 -0.16147852677E+03  0.16147852677E+03  0.00000000000E+00 0.  1.
         25    1    1    2    0    0  0.11087228406E+03  0.18955034966E+03  0.42061604541E+03  0.49067795558E+03  0.12500000000E+03 0.  0.
         21    1    1    2  503  502 -0.28720130354E+01 -0.66545978453E+02  0.41436007492E+02  0.78444620109E+02  0.00000000000E+00 0. -1.
          2    1    1    2  501    0 -0.10800027103E+03 -0.12300437121E+03 -0.45887207995E+02  0.16999932275E+03  0.00000000000E+00 0.  1.
<mgrwt>
<rscale>  4 0.33227760E+03</rscale>
<asrwt>0</asrwt>
<pdfrwt beam="1">  1       21 0.24842851E-01 0.33227760E+03</pdfrwt>
<pdfrwt beam="2">  1        2 0.88868210E-01 0.33227760E+03</pdfrwt>
<totfact> 0.98684973E+03</totfact>
</mgrwt>
</event>
<event>
 5    0  0.3188794E-002  0.4853644E+03  0.7546771E-02  0.1017671E+00
         21   -1    0    0  501  502  0.00000000000E+00  0.00000000000E+00  0.59889584842E+03  0.59889584842E+03  0.00000000000E+00 0.  1.
          2   -1    0    0  503    0 -0.00000000000E+00 -0.00000000000E+00 -0.10888102352E+03  0.10888102352E+03  0.00000000000E+00 0. -1.
         25    1    1    2    0    0 -0.21019267654E+03  0.17494028562E+02  0.30292837882E+03  0.38971477391E+03  0.12500000000E+03 0.  0.
         21    1    1    2  503  502  0.22634208811E+03 -0.30943406225E+02  0.14378594953E+03  0.26993079579E+03  0.00000000000E+00 0.  1.
          2    1    1    2  501    0 -0.16149411568E+02  0.13449377663E+02  0.43300496549E+02  0.48131302236E+02  0.00000000000E+00 0. -1.
<mgrwt>
<rscale>  4 0.48536439E+03</rscale>
<asrwt>0</asrwt>
<pdfrwt beam="1">  1       21 0.92137821E-01 0.48536439E+03</pdfrwt>
<pdfrwt beam="2">  1        2 0.16750927E-01 0.48536439E+03</pdfrwt>
<totfact> 0.38969744E+03</totfact>
</mgrwt>
</event>
<event>
 5    0  0.3188794E-002  0.7900848E+03  0.7546771E-02  0.9574481E-01
          2   -1    0    0  503    0 -0.00000000000E+00  0.00000000000E+00  0.27533496111E+04  0.27533496111E+04  0.00000000000E+00 0. -1.
         21   -1    0    0  501  502  0.00000000000E+00 -0.00000000000E+00 -0.63421641462E+02  0.63421641462E+02  0.00000000000E+00 0.  1.
         25    1    1    2    0    0 -0.88730005627E+02 -0.32023876883E+03  0.19262398951E+04  0.19586860434E+04  0.12500000000E+03 0.  0.
         21    1    1    2  503  502  0.10928763762E+03  0.34047658615E+03  0.73516171222E+03  0.81751503751E+03  0.00000000000E+00 0.  1.
          2    1    1    2  501    0 -0.20557631993E+02 -0.20237817324E+02  0.28526362288E+02  0.40570171660E+02  0.00000000000E+00 0. -1.
<mgrwt>
<rscale>  4 0.79008476E+03</rscale>
<asrwt>0</asrwt>
<pdfrwt beam="1">  1       21 0.97571777E-02 0.79008476E+03</pdfrwt>
<pdfrwt beam="2">  1        2 0.42359216E+00 0.79008476E+03</pdfrwt>
<totfact> 0.27069831E+03</totfact>
</mgrwt>
</event>
<event>
 5    0  0.3188794E-002  0.9064168E+03  0.7546771E-02  0.9417595E-01
         21   -1    0    0  501  502  0.00000000000E+00  0.00000000000E+00  0.65003128454E+03  0.65003128454E+03  0.00000000000E+00 0. -1.
          2   -1    0    0  503    0 -0.00000000000E+00 -0.00000000000E+00 -0.12179522386E+04  0.12179522386E+04  0.00000000000E+00 0. -1.
         25    1    1    2    0    0  0.23364558930E+03  0.17041903162E+02  0.58392323888E+02  0.27187377835E+03  0.12500000000E+03 0.  0.
         21    1    1    2  503  502 -0.10087558001E+03 -0.11922547274E+03 -0.10910112043E+04  0.11021324983E+04  0.00000000000E+00 0. -1.
          2    1    1    2  501    0 -0.13277000929E+03  0.10218356958E+03  0.46469792635E+03  0.49397724645E+03  0.00000000000E+00 0. -1.
<mgrwt>
<rscale>  4 0.90641684E+03</rscale>
<asrwt>0</asrwt>
<pdfrwt beam="1">  1       21 0.10000481E+00 0.90641684E+03</pdfrwt>
<pdfrwt beam="2">  1        2 0.18737727E+00 0.90641684E+03</pdfrwt>
<totfact> 0.16021011E+02</totfact>
</mgrwt>
</event>
<event>
 5    0  0.3188794E-002  0.3493071E+03  0.7546771E-02  0.1062900E+00
          1   -1    0    0  503    0 -0.00000000000E+00  0.00000000000E+00  0.19001194013E+04  0.19001194013E+04  0.00000000000E+00 0.  1.
         21   -1    0    0  501  502  0.00000000000E+00 -0.00000000000E+00 -0.66645749740E+02  0.66645749740E+02  0.00000000000E+00 0.  1.
         25    1    1    2    0    0 -0.16466382908E+03 -0.13866254927E+03  0.38331259432E+03  0.45705035187E+03  0.12500000000E+03 0.  0.
         21    1    1    2  503  502 -0.82755026829E+02 -0.50415131636E+02  0.21367781653E+03  0.23462371841E+03  0.00000000000E+00 0. -1.
          1    1    1    2  501    0  0.24741885591E+03  0.18907768091E+03  0.12364832407E+04  0.12750910807E+04  0.00000000000E+00 0.  1.
<mgrwt>
<rscale>  4 0.34930713E+03</rscale>
<asrwt>0</asrwt>
<pdfrwt beam="1">  1       21 0.10253194E-01 0.34930713E+03</pdfrwt>
<pdfrwt beam="2">  1        1 0.29232602E+00 0.34930713E+03</pdfrwt>
<totfact> 0.32752702E+03</totfact>
</mgrwt>
</event>
<event>
 5    0  0.3188794E-002  0.7079533E+03  0.7546771E-02  0.9703727E-01
          1   -1    0    0  503    0 -0.00000000000E+00  0.00000000000E+00  0.44830650071E+03  0.44830650071E+03  0.00000000000E+00 0. -1.
         21   -1    0    0  501  502  0.00000000000E+00 -0.00000000000E+00 -0.37632293030E+03  0.37632293030E+03  0.00000000000E+00 0.  1.
         25    1    1    2    0    0 -0.26338629865E+03  0.98782500075E+02 -0.82235631777E+02  0.31861893191E+03  0.12500000000E+03 0.  0.
         21    1    1    2  503  502  0.28825684078E+03 -0.20149792361E+03  0.18302176096E+03  0.39647242585E+03  0.00000000000E+00 0. -1.
          1    1    1    2  501    0 -0.24870542127E+02  0.10271542354E+03 -0.28802558774E+02  0.10953807324E+03  0.00000000000E+00 0. -1.
<mgrwt>
<rscale>  4 0.70795325E+03</rscale>
<asrwt>0</asrwt>
<pdfrwt beam="1">  1       21 0.57895836E-01 0.70795325E+03</pdfrwt>
<pdfrwt beam="2">  1        1 0.68970231E-01 0.70795325E+03</pdfrwt>
<totfact> 0.14306989E+03</totfact>
</mgrwt>
</event>
<event>
 5    0  0.3188794E-002  0.6030077E+03  0.7546771E-02  0.9899186E-01
          1   -1    0    0  503    0 -0.00000000000E+00  0.00000000000E+00  0.30800277826E+03  0.30800277826E+03  0.00000000000E+00 0.  1.
         21   -1    0    0  501  502  0.00000000000E+00 -0.00000000000E+00 -0.88226533019E+03  0.88226533019E+03  0.00000000000E+00 0. -1.
         25    1    1    2    0    0  0.34017363589E+02 -0.25225503982E+03 -0.92892004920E+02  0.29840192814E+03  0.12500000000E+03 0.  0.
         21    1    1    2  503  502 -0.46134384390E+02  0.28236581714E+03  0.10487304082E+03  0.30472477878E+03  0.00000000000E+00 0. -1.
          1    1    1    2  501    0  0.12117020801E+02 -0.30110777321E+02 -0.58624358784E+03  0.58714140153E+03  0.00000000000E+00 0.  1.
<mgrwt>
<rscale>  4 0.60300769E+03</rscale>
<asrwt>0</asrwt>
<pdfrwt beam="1">  1       21 0.13573313E+00 0.60300769E+03</pdfrwt>
<pdfrwt beam="2">  1        1 0.47385043E-01 0.60300769E+03</pdfrwt>
<totfact> 0.30908961E+02</totfact>
</mgrwt>
</event>
<event>
 5    0  0.3188794E-002  0.4324804E+03  0.7546771E-02  0.1033079E+00
         21   -1    0    0  501  502  0.00000000000E+00  0.00000000000E+00  0.95320244993E+03  0.95320244993E+03  0.00000000000E+00 0. -1.
          2   -1    0    0  503    0 -0.00000000000E+00 -0.00000000000E+00 -0.11908160790E+03  0.11908160790E+03  0.00000000000E+00 0.  1.
         25    1    1    2    0    0 -0.19602761500E+03  0.14186454291E+03  0.44119617083E+03  0.51848957129E+03  0.12500000000E+03 0.  0.
         21    1    1    2  503  502  0.98578976123E+01 -0.46454179283E+02 -0.46906397706E+02  0.66748625933E+02  0.00000000000E+00 0.  1.
          2    1    1    2  501    0  0.18616971739E+03 -0.95410363627E+02  0.43983106891E+03  0.48704586061E+03  0.00000000000E+00 0.  1.
<mgrwt>
<rscale>  4 0.43248043E+03</rscale>
<asrwt>0</asrwt>
<pdfrwt beam="1">  1       21 0.14664653E+00 0.43248043E+03</pdfrwt>
<pdfrwt beam="2">  1        2 0.18320248E-01 0.43248043E+03</pdfrwt>
<totfact> 0.10937987E+03</totfact>
</mgrwt>
</event>
<event>
 5    0  0.3188794E-002  0.7842331E+03  0.7546771E-02  0.9583124E-01
         21   -1    0    0  503  502  0.00000000000E+00  0.00000000000E+00  0.39254116058E+03  0.39254116058E+03  0.00000000000E+00 0.  1.
          2   -1    0    0  502    0 -0.00000000000E+00 -0.00000000000E+00 -0.70565056076E+03  0.70565056076E+03  0.00000000000E+00 0. -1.
         25    1    1    2    0    0 -0.13863501500E+03 -0.29131653299E+03 -0.51669380518E+03  0.62183798379E+03  0.12500000000E+03 0.  0.
         21    1    1    2  503  501  0.91718241044E+02  0.43421034747E+02  0.19972720552E+03  0.22402807553E+03  0.00000000000E+00 0. -1.
          2    1    1    2  501    0  0.46916773952E+02  0.24789549824E+03  0.38571994766E+01  0.25232566202E+03  0.00000000000E+00 0. -1.
<mgrwt>
<rscale>  4 0.78423311E+03</rscale>
<asrwt>0</asrwt>
<pdfrwt beam="1">  1       21 0.60390948E-01 0.78423311E+03</pdfrwt>
<pdfrwt beam="2">  1        2 0.10856162E+00 0.78423311E+03</pdfrwt>
<totfact> 0.11589163E+03</totfact>
</mgrwt>
</event>
<event>
 5    0  0.3188794E-002  0.4426547E+03  0.7546771E-02  0.1029935E+00
         -1   -1    0    0    0  501 -0.00000000000E+00  0.00000000000E+00  0.24567472356E+03  0.24567472356E+03  0.00000000000E+00 0. -1.
         21   -1    0    0  501  502  0.00000000000E+00 -0.00000000000E+00 -0.28004259168E+03  0.28004259168E+03  0.00000000000E+00 0.  1.
         25    1    1    2    0    0 -0.12826977254E+03 -0.16861081402E+03  0.70029785533E+02  0.25575752582E+03  0.12500000000E+03 0.  0.
         21    1    1    2  503  502  0.90329661270E+02  0.16218401392E+03 -0.32575751514E+02  0.18847886264E+03  0.00000000000E+00 0. -1.
         -1    1    1    2    0  503  0.37940111270E+02  0.64268001020E+01 -0.71821902137E+02  0.81480926783E+02  0.00000000000E+00 0. -1.
<mgrwt>
<rscale>  4 0.44265468E+03</rscale>
<asrwt>0</asrwt>
<pdfrwt beam="1">  1       21 0.43083475E-01 0.44265468E+03</pdfrwt>
<pdfrwt beam="2">  1       -1 0.37796111E-01 0.44265468E+03</pdfrwt>
<totfact> 0.31017786E+03</totfact>
</mgrwt>
</event>
<event>
 5    0  0.3188794E-002  0.4698929E+03  0.7546771E-02  0.1021950E+00
         21   -1    0    0  501  502  0.00000000000E+00  0.00000000000E+00  0.11642793801E+03  0.11642793801E+03  0.00000000000E+00 0. -1.
          2   -1    0    0  503    0 -0.00000000000E+00 -0.00000000000E+00 -0.87837673209E+03  0.87837673209E+03  0.00000000000E+00 0.  1.
         25    1    1    2    0    0  0.64611076610E+02 -0.28638695989E+03 -0.33220661405E+03  0.46062817590E+03  0.12500000000E+03 0.  0.
         21    1    1    2  503  502 -0.66844430040E+02  0.11997548923E+03 -0.27280370949E+03  0.30542455657E+03  0.00000000000E+00 0.  1.
          2    1    1    2  501    0  0.22333534295E+01  0.16641147066E+03 -0.15693847055E+03  0.22875193763E+03  0.00000000000E+00 0.  1.
<mgrwt>
<rscale>  4 0.46989286E+03</rscale>
<asrwt>0</asrwt>
<pdfrwt beam="1">  1       21 0.17911990E-01 0.46989286E+03</pdfrwt>
<pdfrwt beam="2">  1        2 0.13513489E+00 0.46989286E+03</pdfrwt>
<totfact> 0.10699974E+04</totfact>
</mgrwt>
</event>
<event>
 5    0  0.3188794E-002  0.8645060E+03  0.7546771E-02  0.9471072E-01
          2   -1    0    0  503    0 -0.00000000000E+00  0.00000000000E+00  0.16817347201E+04  0.16817347201E+04  0.00000000000E+00 0.  1.
         21   -1    0    0  501  502  0.00000000000E+00 -0.00000000000E+00 -0.23567369721E+03  0.23567369721E+03  0.00000000000E+00 0.  1.
         25    1    1    2    0    0 -0.40470593200E+03 -0.21851746107E+03  0.11178079946E+04  0.12151775528E+04  0.12500000000E+03 0.  0.
         21    1    1    2  503  502  0.34055523565E+03  0.84231311077E+02  0.40414985165E+03  0.53517276171E+03  0.00000000000E+00 0. -1.
          2    1    1    2  501    0  0.64150696350E+02  0.13428615000E+03 -0.75896823297E+02  0.16705810279E+03  0.00000000000E+00 0.  1.
<mgrwt>
<rscale>  4 0.86450595E+03</rscale>
<asrwt>0</asrwt>
<pdfrwt beam="1">  1       21 0.36257493E-01 0.86450595E+03</pdfrwt>
<pdfrwt beam="2">  1        2 0.25872841E+00 0.86450595E+03</pdfrwt>
<totfact> 0.85227443E+02</totfact>
</mgrwt>
</event>
<event>
 5    0  0.3188794E-002  0.9641515E+03  0.7546771E-02  0.9348761E-01
         21   -1    0    0  503  502  0.00000000000E+00  0.00000000000E+00  0.16468682302E+04  0.16468682302E+04  0.00000000000E+00 0.  1.
          1   -1    0    0  502    0 -0.00000000000E+00 -0.00000000000E+00 -0.88901882207E+03  0.88901882207E+03  0.00000000000E+00 0. -1.
         25    1    1    2    0    0  0.36921420923E+03 -0.73122638142E+03  0.11262478924E+04  0.13982383446E+04  0.12500000000E+03 0.  0.
         21    1    1    2  503  501 -0.53673755701E+02 -0.10701653955E+03  0.71855589284E+02  0.13963036023E+03  0.00000000000E+00 0. -1.
          1    1    1    2  501    0 -0.31554045353E+03  0.83824292096E+03 -0.44025407361E+03  0.99801834737E+03  0.00000000000E+00 0. -1.
<mgrwt>
<rscale>  4 0.96415154E+03</rscale>
<asrwt>0</asrwt>
<pdfrwt beam="1">  1       21 0.25336434E+00 0.96415154E+03</pdfrwt>
<pdfrwt beam="2">  1        1 0.13677213E+00 0.96415154E+03</pdfrwt>
<totfact> 0.92877651E+00</totfact>
</mgrwt>
</event>
<event>
 5    0  0.3188794E-002  0.5486849E+03  0.7546771E-02  0.1001799E+00
         21   -1    0    0  501  502  0.00000000000E+00  0.00000000000E+00  0.59818767033E+02  0.59818767033E+02  0.00000000000E+00 0.  1.
          2   -1    0    0  503    0 -0.00000000000E+00 -0.00000000000E+00 -0.14327474426E+04  0.14327474426E+04  0.00000000000E+00 0. -1.
         25    1    1    2    0    0 -0.14901645533E+03 -0.18897520520E+03 -0.64911327640E+03  0.70348459667E+03  0.12500000000E+03 0.  0.
         21    1    1    2  503  502  0.16964557953E+03  0.21947829745E+03 -0.63719480032E+03  0.69495867449E+03  0.00000000000E+00 0.  1.
          2    1    1    2  501    0 -0.20629124194E+02 -0.30503092248E+02 -0.86620598815E+02  0.94122938441E+02  0.00000000000E+00 0. -1.
<mgrwt>
<rscale>  4 0.54868490E+03</rscale>
<asrwt>0</asrwt>
<pdfrwt beam="1">  1       21 0.92028886E-02 0.54868490E+03</pdfrwt>
<pdfrwt beam="2">  1        2 0.22042265E+00 0.54868490E+03</pdfrwt>
<totfact> 0.16775399E+04</totfact>
</mgrwt>
</event>
<event>
 5    0  0.3188794E-002  0.3829197E+03  0.7546771E-02  0.1049860E+00
          2   -1    0    0  503    0 -0.00000000000E+00  0.00000000000E+00  0.89904329959E+03  0.89904329959E+03  0.00000000000E+00 0. -1.
         21   -1    0    0  501  502  0.00000000000E+00 -0.00000000000E+00 -0.15929356488E+03  0.15929356488E+03  0.00000000000E+00 0. -1.
         25    1    1    2    0    0  0.24745868647E+03 -0.59193493025E+02  0.51259439705E+03  0.58576248344E+03  0.12500000000E+03 0.  0.
         21    1    1    2  503  502  0.40335679356E+02  0.89217183165E+02  0.13912313570E+03  0.17012324853E+03  0.00000000000E+00 0. -1.
          2    1    1    2  501    0 -0.28779436582E+03 -0.30023690140E+02  0.88032201954E+02  0.30245113250E+03  0.00000000000E+00 0. -1.
<mgrwt>
<rscale>  4 0.38291970E+03</rscale>
<asrwt>0</asrwt>
<pdfrwt beam="1">  1       21 0.24506703E-01 0.38291970E+03</pdfrwt>
<pdfrwt beam="2">  1        2 0.13831435E+00 0.38291970E+03</pdfrwt>
<totfact> 0.57753716E+03</totfact>
</mgrwt>
</event>
<event>
 5    0  0.3188794E-002  0.7274068E+03  0.7546771E-02  0.9671478E-01
         -1   -1    0    0    0  501 -0.00000000000E+00  0.00000000000E+00  0.14967008703E+04  0.14967008703E+04  0.00000000000E+00 0. -1.
         21   -1    0    0  503  502  0.00000000000E+00 -0.00000000000E+00 -0.17697173919E+03  0.17697173919E+03  0.00000000000E+00 0.  1.
         25    1    1    2    0    0 -0.15879696705E+02  0.37945179024E+03  0.46481359042E+03  0.61311703591E+03  0.12500000000E+03 0.  0.
         21    1    1    2  503  501 -0.22669326503E+03 -0.23505800094E+03  0.32835897627E+03  0.46310011608E+03  0.00000000000E+00 0.  1.
         -1    1    1    2    0  502  0.24257296174E+03 -0.14439378930E+03  0.52655656441E+03  0.59745545748E+03  0.00000000000E+00 0. -1.
<mgrwt>
<rscale>  4 0.72740679E+03</rscale>
<asrwt>0</asrwt>
<pdfrwt beam="1">  1       21 0.27226422E-01 0.72740679E+03</pdfrwt>
<pdfrwt beam="2">  1       -1 0.23026166E+00 0.72740679E+03</pdfrwt>
<totfact> 0.11020794E+02</totfact>
</mgrwt>
</event>
<event>
 5    0  0.3188794E-002  0.1432080E+04  0.7546771E-02  0.8930919E-01
          2   -1    0    0  503    0 -0.00000000000E+00  0.00000000000E+00  0.20716426031E+04  0.20716426031E+04  0.00000000000E+00 0.  1.
         21   -1    0    0  501  502  0.00000000000E+00 -0.00000000000E+00 -0.32587195939E+03  0.32587195939E+03  0.00000000000E+00 0. -1.
         25    1    1    2    0    0 -0.61546339933E+03  0.11796607165E+03  0.14858463253E+04  0.16174286668E+04  0.12500000000E+03 0.  0.
         21    1    1    2  503  502  0.60416688676E+03 -0.33120527132E+02  0.31109350225E+03  0.68036296453E+03  0.00000000000E+00 0. -1.
          2    1    1    2  501    0  0.11296512577E+02 -0.84845544515E+02 -0.51169183810E+02  0.99722931125E+02  0.00000000000E+00 0.  1.
<mgrwt>
<rscale>  4 0.14320802E+04</rscale>
<asrwt>0</asrwt>
<pdfrwt beam="1">  1       21 0.50134149E-01 0.14320802E+04</pdfrwt>
<pdfrwt beam="2">  1        2 0.31871424E+00 0.14320802E+04</pdfrwt>
<totfact> 0.24393938E+02</totfact>
</mgrwt>
</event>
<event>
 5    0  0.3188794E-002  0.3275696E+03  0.7546771E-02  0.1072217E+00
         21   -1    0    0  503  502  0.00000000000E+00  0.00000000000E+00  0.53101505266E+02  0.53101505266E+02  0.00000000000E+00 0. -1.
          1   -1    0    0  502    0 -0.00000000000E+00 -0.00000000000E+00 -0.24117575871E+04  0.24117575871E+04  0.00000000000E+00 0.  1.
         25    1    1    2    0    0  0.17902341684E+03 -0.14324041331E+03 -0.35707546181E+03  0.44237437224E+03  0.12500000000E+03 0.  0.
         21    1    1    2  503  501 -0.44720421320E+02  0.43059000745E+02 -0.13721541036E+03  0.15060565218E+03  0.00000000000E+00 0.  1.
          1    1    1    2  501    0 -0.13430299552E+03  0.10018141257E+03 -0.18643652097E+04  0.18718790680E+04  0.00000000000E+00 0.  1.
<mgrwt>
<rscale>  4 0.32756960E+03</rscale>
<asrwt>0</asrwt>
<pdfrwt beam="1">  1       21 0.81694630E-02 0.32756960E+03</pdfrwt>
<pdfrwt beam="2">  1        1 0.37103960E+00 0.32756960E+03</pdfrwt>
<totfact> 0.22764667E+03</totfact>
</mgrwt>
</event>
<event>
 5    0  0.3188794E-002  0.3857416E+03  0.7546771E-02  0.1048832E+00
         21   -1    0    0  501  502  0.00000000000E+00  0.00000000000E+00  0.29760469982E+02  0.29760469982E+02  0.00000000000E+00 0. -1.
          2   -1    0    0  503    0 -0.00000000000E+00 -0.00000000000E+00 -0.23748270229E+04  0.23748270229E+04  0.00000000000E+00 0. -1.
         25    1    1    2    0    0  0.20072951172E+03 -0.35983256113E+02 -0.90126786035E+03  0.93246763359E+03  0.12500000000E+03 0.  0.
         21    1    1    2  503  502 -0.76335976958E+02  0.10238910860E+03 -0.95122669810E+03  0.95976191950E+03  0.00000000000E+00 0. -1.
          2    1    1    2  501    0 -0.12439353476E+03 -0.66405852491E+02 -0.49257199450E+03  0.51235793983E+03  0.00000000000E+00 0. -1.
<mgrwt>
<rscale>  4 0.38574161E+03</rscale>
<asrwt>0</asrwt>
<pdfrwt beam="1">  1       21 0.45785349E-02 0.38574161E+03</pdfrwt>
<pdfrwt beam="2">  1        2 0.36535792E+00 0.38574161E+03</pdfrwt>
<totfact> 0.18084723E+04</totfact>
</mgrwt>
</event>
<event>
 5    0  0.3188794E-002  0.4328096E+03  0.7546771E-02  0.1032976E+00
          1   -1    0    0  502    0 -0.00000000000E+00  0.00000000000E+00  0.40616503225E+03  0.40616503225E+03  0.00000000000E+00 0.  1.
         21   -1    0    0  503  502  0.00000000000E+00 -0.00000000000E+00 -0.27602504662E+03  0.27602504662E+03  0.00000000000E+00 0. -1.
         25    1    1    2    0    0  0.14325477225E+03 -0.14369317260E+03 -0.89226783177E+02  0.25447215262E+03  0.12500000000E+03 0.  0.
         21    1    1    2  503  501  0.81376750328E+02  0.79867033834E+02  0.14113563515E+03  0.18143920771E+03  0.00000000000E+00 0.  1.
          1    1    1    2  501    0 -0.22463152258E+03  0.63826138765E+02  0.78231133659E+02  0.24627871853E+03  0.00000000000E+00 0.  1.
<mgrwt>
<rscale>  4 0.43280964E+03</rscale>
<asrwt>0</asrwt>
<pdfrwt beam="1">  1       21 0.42465392E-01 0.43280964E+03</pdfrwt>
<pdfrwt beam="2">  1        1 0.62486928E-01 0.43280964E+03</pdfrwt>
<totfact> 0.32894434E+03</totfact>
</mgrwt>
</event>
<event>
 5    0  0.3188794E-002  0.3112559E+03  0.7546771E-02  0.1079745E+00
          2   -1    0    0  503    0 -0.00000000000E+00  0.00000000000E+00  0.14331297975E+04  0.14331297975E+04  0.00000000000E+00 0.  1.
         21   -1    0    0  501  502  0.00000000000E+00 -0.00000000000E+00 -0.49125905421E+02  0.49125905421E+02  0.00000000000E+00 0. -1.
         25    1    1    2    0    0 -0.12491267970E+03 -0.17364421656E+03  0.90727482080E+03  0.94049353637E+03  0.12500000000E+03 0.  0.
         21    1    1    2  503  502 -0.24293327973E+02  0.56933778780E+02  0.17366183605E+03  0.18436391797E+03  0.00000000000E+00 0.  1.
          2    1    1    2  501    0  0.14920600767E+03  0.11671043778E+03  0.30306723519E+03  0.35739824854E+03  0.00000000000E+00 0.  1.
<mgrwt>
<rscale>  4 0.31125590E+03</rscale>
<asrwt>0</asrwt>
<pdfrwt beam="1">  1       21 0.75578327E-02 0.31125590E+03</pdfrwt>
<pdfrwt beam="2">  1        2 0.22048148E+00 0.31125590E+03</pdfrwt>
<totfact> 0.24595065E+04</totfact>
</mgrwt>
</event>
<event>
 5    0  0.3188794E-002  0.3714812E+03  0.7546771E-02  0.1054128E+00
         21   -1    0    0  501  502  0.00000000000E+00  0.00000000000E+00  0.34473518117E+03  0.34473518117E+03  0.00000000000E+00 0.  1.
          1   -1    0    0  503    0 -0.00000000000E+00 -0.00000000000E+00 -0.10423134670E+04  0.10423134670E+04  0.00000000000E+00 0.  1.
         25    1    1    2    0    0  0.20698781455E+03  0.11596094001E+03 -0.50051593241E+03  0.56783104316E+03  0.12500000000E+03 0.  0.
         21    1    1    2  503  502  0.13055415970E+02 -0.38621655793E+02 -0.46339958881E+03  0.46518948300E+03  0.00000000000E+00 0.  1.
          1    1    1    2  501    0 -0.22004323052E+03 -0.77339284221E+02  0.26633723542E+03  0.35402812198E+03  0.00000000000E+00 0.  1.
<mgrwt>
<rscale>  4 0.37148119E+03</rscale>
<asrwt>0</asrwt>
<pdfrwt beam="1">  1       21 0.53036181E-01 0.37148119E+03</pdfrwt>
<pdfrwt beam="2">  1        1 0.16035592E+00 0.37148119E+03</pdfrwt>
<totfact> 0.51787822E+02</totfact>
</mgrwt>
</event>
<event>
 5    0  0.3188794E-002  0.6051745E+03  0.7546771E-02  0.9894728E-01
          1   -1    0    0  503    0 -0.00000000000E+00  0.00000000000E+00  0.48474838102E+03  0.48474838102E+03  0.00000000000E+00 0.  1.
         21   -1    0    0  501  502  0.00000000000E+00 -0.00000000000E+00 -0.45855621870E+03  0.45855621870E+03  0.00000000000E+00 0. -1.
         25    1    1    2    0    0 -0.74692744209E+02 -0.37471512682E+03 -0.15176774309E+03  0.42970790096E+03  0.12500000000E+03 0.  0.
         21    1    1    2  503  502 -0.83392336110E+02  0.17854576940E+03 -0.12964890296E+02  0.19748661188E+03  0.00000000000E+00 0.  1.
          1    1    1    2  501    0  0.15808508032E+03  0.19616935742E+03  0.19092479571E+03  0.31611008687E+03  0.00000000000E+00 0.  1.
<mgrwt>
<rscale>  4 0.60517445E+03</rscale>
<asrwt>0</asrwt>
<pdfrwt beam="1">  1       21 0.70547110E-01 0.60517445E+03</pdfrwt>
<pdfrwt beam="2">  1        1 0.74576674E-01 0.60517445E+03</pdfrwt>
<totfact> 0.84018908E+02</totfact>
</mgrwt>
</event>
<event>
 5    0  0.3188794E-002  0.5389798E+03  0.7546771E-02  0.1004077E+00
          2   -1    0    0  503    0 -0.00000000000E+00  0.00000000000E+00  0.61407138370E+03  0.61407138370E+03  0.00000000000E+00 0.  1.
         21   -1    0    0  501  502  0.00000000000E+00 -0.00000000000E+00 -0.48035986125E+03  0.48035986125E+03  0.00000000000E+00 0. -1.
         25    1    1    2    0    0  0.59140506309E+02 -0.37385824384E+03 -0.13441880254E+03  0.42066732753E+03  0.12500000000E+03 0.  0.
         21    1    1    2  503  502  0.13990501934E+03 -0.83746805622E+01 -0.37917271588E+02  0.14519390206E+03  0.00000000000E+00 0.  1.
          2    1    1    2  501    0 -0.19904552564E+03  0.38223292441E+03  0.30604759657E+03  0.52857001537E+03  0.00000000000E+00 0.  1.
<mgrwt>
<rscale>  4 0.53897979E+03</rscale>
<asrwt>0</asrwt>
<pdfrwt beam="1">  1       21 0.73901517E-01 0.53897979E+03</pdfrwt>
<pdfrwt beam="2">  1        2 0.94472520E-01 0.53897979E+03</pdfrwt>
<totfact> 0.90748928E+02</totfact>
</mgrwt>
</event>
<event>
 5    0  0.3188794E-002  0.4820928E+03  0.7546771E-02  0.1018562E+00
          2   -1    0    0  503    0 -0.00000000000E+00  0.00000000000E+00  0.34652893321E+04  0.34652893321E+04  0.00000000000E+00 0. -1.
         21   -1    0    0  501  502  0.00000000000E+00 -0.00000000000E+00 -0.19099972415E+02  0.19099972415E+02  0.00000000000E+00 0.  1.
         25    1    1    2    0    0  0.16505761857E+03  0.12615142548E+03  0.10197511912E+04  0.10481773187E+04  0.12500000000E+03 0.  0.
         21    1    1    2  503  502 -0.14006277860E+03 -0.10670640917E+03  0.22556960344E+04  0.22625579416E+04  0.00000000000E+00 0. -1.
          2    1    1    2  501    0 -0.24994839967E+02 -0.19445016310E+02  0.17074213414E+03  0.17365404416E+03  0.00000000000E+00 0. -1.
<mgrwt>
<rscale>  4 0.48209277E+03</rscale>
<asrwt>0</asrwt>
<pdfrwt beam="1">  1       21 0.29384600E-02 0.48209277E+03</pdfrwt>
<pdfrwt beam="2">  1        2 0.53312094E+00 0.48209277E+03</pdfrwt>
<totfact> 0.83736353E+03</totfact>
</mgrwt>
</event>
<event>
 5    0  0.3188794E-002  0.5339449E+03  0.7546771E-02  0.1005280E+00
          1   -1    0    0  503    0 -0.00000000000E+00  0.00000000000E+00  0.86510232084E+03  0.86510232084E+03  0.00000000000E+00 0.  1.
         21   -1    0    0  501  502  0.00000000000E+00 -0.00000000000E+00 -0.17736008719E+03  0.17736008719E+03  0.00000000000E+00 0. -1.
         25    1    1    2    0    0  0.99906198889E+02 -0.19151355327E+03  0.22093322196E+03  0.33330943315E+03  0.12500000000E+03 0.  0.
         21    1    1    2  503  502 -0.14144004230E+03  0.20546973162E+03  0.55621445987E+03  0.60958807530E+03  0.00000000000E+00 0.  1.
          1    1    1    2  501    0  0.41533843416E+02 -0.13956178352E+02 -0.89405448184E+02  0.99564899579E+02  0.00000000000E+00 0.  1.
<mgrwt>
<rscale>  4 0.53394493E+03</rscale>
<asrwt>0</asrwt>
<pdfrwt beam="1">  1       21 0.27286168E-01 0.53394493E+03</pdfrwt>
<pdfrwt beam="2">  1        1 0.13309266E+00 0.53394493E+03</pdfrwt>
<totfact> 0.26751608E+03</totfact>
</mgrwt>
</event>
<event>
 5    0  0.3188794E-002  0.4414343E+03  0.7546771E-02  0.1030308E+00
         -4   -1    0    0    0  501 -0.00000000000E+00  0.00000000000E+00  0.22857089534E+03  0.22857089534E+03  0.00000000000E+00 0.  1.
         21   -1    0    0  503  502  0.00000000000E+00 -0.00000000000E+00 -0.51971407797E+03  0.51971407797E+03  0.00000000000E+00 0. -1.
         25    1    1    2    0    0 -0.18843260753E+03 -0.68151307491E+02 -0.73079162766E+02  0.24721855174E+03  0.12500000000E+03 0.  0.
         21    1    1    2  503  501  0.16629824472E+03  0.50412035126E+02  0.87244517355E+02  0.19444301297E+03  0.00000000000E+00 0.  1.
         -4    1    1    2    0  502  0.22134362812E+02  0.17739272365E+02 -0.30530853722E+03  0.30662340860E+03  0.00000000000E+00 0.  1.
<mgrwt>
<rscale>  4 0.44143434E+03</rscale>
<asrwt>0</asrwt>
<pdfrwt beam="1">  1       21 0.79956012E-01 0.44143434E+03</pdfrwt>
<pdfrwt beam="2">  1       -4 0.35164753E-01 0.44143434E+03</pdfrwt>
<totfact> 0.44221435E+02</totfact>
</mgrwt>
</event>
<event>
 5    0  0.3188794E-002  0.5692455E+03  0.7546771E-02  0.9971350E-01
         21   -1    0    0  501  502  0.00000000000E+00  0.00000000000E+00  0.59231622396E+02  0.59231622396E+02  0.00000000000E+00 0. -1.
          2   -1    0    0  503    0 -0.00000000000E+00 -0.00000000000E+00 -0.27779629145E+04  0.27779629145E+04  0.00000000000E+00 0. -1.
         25    1    1    2    0    0  0.26001762896E+03 -0.21312173586E+03 -0.11727447844E+04  0.12263708130E+04  0.12500000000E+03 0.  0.
         21    1    1    2  503  502 -0.18622839339E+03  0.21472265162E+02 -0.11456544071E+04  0.11608902158E+04  0.00000000000E+00 0. -1.
          2    1    1    2  501    0 -0.73789235576E+02  0.19164947069E+03 -0.40033210056E+03  0.44993350802E+03  0.00000000000E+00 0. -1.
<mgrwt>
<rscale>  4 0.56924547E+03</rscale>
<asrwt>0</asrwt>
<pdfrwt beam="1">  1       21 0.91125574E-02 0.56924547E+03</pdfrwt>
<pdfrwt beam="2">  1        2 0.42737890E+00 0.56924547E+03</pdfrwt>
<totfact> 0.30822928E+03</totfact>
</mgrwt>
</event>
<event>
 5    0  0.3188794E-002  0.4077099E+03  0.7546771E-02  0.1041142E+00
          2   -1    0    0  503    0 -0.00000000000E+00  0.00000000000E+00  0.17929273432E+04  0.17929273432E+04  0.00000000000E+00 0. -1.
         21   -1    0    0  501  502  0.00000000000E+00 -0.00000000000E+00 -0.70159738809E+02  0.70159738809E+02  0.00000000000E+00 0. -1.
         25    1    1    2    0    0  0.18953664600E+03 -0.12169660381E+03  0.14312728066E+04  0.14542699373E+04  0.12500000000E+03 0.  0.
         21    1    1    2  503  502 -0.83961778239E+02  0.84651725681E+02  0.26963038960E+03  0.29481526735E+03  0.00000000000E+00 0.  1.
          2    1    1    2  501    0 -0.10557486776E+03  0.37044878127E+02  0.21864408170E+02  0.11400187736E+03  0.00000000000E+00 0. -1.
<mgrwt>
<rscale>  4 0.40770991E+03</rscale>
<asrwt>0</asrwt>
<pdfrwt beam="1">  1       21 0.10793807E-01 0.40770991E+03</pdfrwt>
<pdfrwt beam="2">  1        2 0.27583494E+00 0.40770991E+03</pdfrwt>
<totfact> 0.82053813E+03</totfact>
</mgrwt>
</event>
<event>
 5    0  0.3188794E-002  0.5389192E+03  0.7546771E-02  0.1004092E+00
         21   -1    0    0  503  502  0.00000000000E+00  0.00000000000E+00  0.81081125066E+03  0.81081125066E+03  0.00000000000E+00 0. -1.
         -1   -1    0    0    0  501 -0.00000000000E+00 -0.00000000000E+00 -0.27898731093E+03  0.27898731093E+03  0.00000000000E+00 0. -1.
         25    1    1    2    0    0 -0.20274349926E+03  0.11670199963E+03  0.80986452402E+02  0.27732307636E+03  0.12500000000E+03 0.  0.
         21    1    1    2  503  501 -0.87759069968E+02 -0.85777948261E+02  0.50121543839E+03  0.51601979269E+03  0.00000000000E+00 0.  1.
         -1    1    1    2    0  502  0.29050256923E+03 -0.30924051373E+02 -0.50377951055E+02  0.29645569253E+03  0.00000000000E+00 0. -1.
<mgrwt>
<rscale>  4 0.53891916E+03</rscale>
<asrwt>0</asrwt>
<pdfrwt beam="1">  1       21 0.12474019E+00 0.53891916E+03</pdfrwt>
<pdfrwt beam="2">  1       -1 0.42921125E-01 0.53891916E+03</pdfrwt>
<totfact> 0.21148180E+02</totfact>
</mgrwt>
</event>
<event>
 5    0  0.3188794E-002  0.5442930E+03  0.7546771E-02  0.1002824E+00
          2   -1    0    0  503    0 -0.00000000000E+00  0.00000000000E+00  0.18680639161E+04  0.18680639161E+04  0.00000000000E+00 0.  1.
         21   -1    0    0  501  502  0.00000000000E+00 -0.00000000000E+00 -0.44955370148E+02  0.44955370148E+02  0.00000000000E+00 0. -1.
         25    1    1    2    0    0  0.24642952953E+03  0.16334217537E+02  0.89565624197E+03  0.93745369137E+03  0.12500000000E+03 0.  0.
         21    1    1    2  503  502 -0.26721957781E+03  0.11014334504E+02  0.84246868778E+03  0.88390107377E+03  0.00000000000E+00 0. -1.
          2    1    1    2  501    0  0.20790048273E+02 -0.27348552041E+02  0.84983616189E+02  0.91664521089E+02  0.00000000000E+00 0.  1.
<mgrwt>
<rscale>  4 0.54429304E+03</rscale>
<asrwt>0</asrwt>
<pdfrwt beam="1">  1       21 0.69162122E-02 0.54429304E+03</pdfrwt>
<pdfrwt beam="2">  1        2 0.28739439E+00 0.54429304E+03</pdfrwt>
<totfact> 0.16164987E+04</totfact>
</mgrwt>
</event>
<event>
 5    0  0.3188794E-002  0.4930811E+03  0.7546771E-02  0.1015601E+00
          2   -1    0    0  503    0 -0.00000000000E+00  0.00000000000E+00  0.16211107463E+04  0.16211107463E+04  0.00000000000E+00 0.  1.
         21   -1    0    0  501  502  0.00000000000E+00 -0.00000000000E+00 -0.63298743604E+02  0.63298743604E+02  0.00000000000E+00 0. -1.
         25    1    1    2    0    0  0.23839211965E+03  0.14103693679E+03  0.99581717999E+03  0.10411527631E+04  0.12500000000E+03 0.  0.
         21    1    1    2  503  502 -0.12013515344E+03 -0.13801242691E+03  0.42208887420E+03  0.46004228371E+03  0.00000000000E+00 0. -1.
          2    1    1    2  501    0 -0.11825696620E+03 -0.30245098816E+01  0.13990594852E+03  0.18321444306E+03  0.00000000000E+00 0.  1.
<mgrwt>
<rscale>  4 0.49308112E+03</rscale>
<asrwt>0</asrwt>
<pdfrwt beam="1">  1       21 0.97382695E-02 0.49308112E+03</pdfrwt>
<pdfrwt beam="2">  1        2 0.24940162E+00 0.49308112E+03</pdfrwt>
<totfact> 0.12034264E+04</totfact>
</mgrwt>
</event>
<event>
 5    0  0.3188794E-002  0.4374222E+03  0.7546771E-02  0.1031541E+00
          2   -1    0    0  503    0 -0.00000000000E+00  0.00000000000E+00  0.34502306592E+03  0.34502306592E+03  0.00000000000E+00 0.  1.
         21   -1    0    0  501  502  0.00000000000E+00 -0.00000000000E+00 -0.70642337662E+03  0.70642337662E+03  0.00000000000E+00 0.  1.
         25    1    1    2    0    0 -0.38601976749E+02 -0.27459929242E+03  0.10252482447E+03  0.32098477166E+03  0.12500000000E+03 0.  0.
         21    1    1    2  503  502 -0.10397064907E+03 -0.76354620129E+02  0.32123713668E+01  0.12903582144E+03  0.00000000000E+00 0. -1.
          2    1    1    2  501    0  0.14257262582E+03  0.35095391255E+03 -0.46713750654E+03  0.60142584945E+03  0.00000000000E+00 0.  1.
<mgrwt>
<rscale>  4 0.43742220E+03</rscale>
<asrwt>0</asrwt>
<pdfrwt beam="1">  1       21 0.10868052E+00 0.43742220E+03</pdfrwt>
<pdfrwt beam="2">  1        2 0.53080472E-01 0.43742220E+03</pdfrwt>
<totfact> 0.71572822E+02</totfact>
</mgrwt>
</event>
<event>
 5    0  0.3188794E-002  0.5536541E+03  0.7546771E-02  0.1000652E+00
          2   -1    0    0  503    0 -0.00000000000E+00  0.00000000000E+00  0.31336118655E+04  0.31336118655E+04  0.00000000000E+00 0. -1.
         21   -1    0    0  501  502  0.00000000000E+00 -0.00000000000E+00 -0.51706910015E+02  0.51706910015E+02  0.00000000000E+00 0.  1.
         25    1    1    2    0    0 -0.33730155852E+03  0.79250668679E+02  0.13851748556E+04  0.14333134306E+04  0.12500000000E+03 0.  0.
         21    1    1    2  503  502  0.15547633070E+03  0.43046260702E+02  0.11764946057E+04  0.11875038641E+04  0.00000000000E+00 0. -1.
          2    1    1    2  501    0  0.18182522782E+03 -0.12229692938E+03  0.52023549416E+03  0.56450148077E+03  0.00000000000E+00 0. -1.
<mgrwt>
<rscale>  4 0.55365410E+03</rscale>
<asrwt>0</asrwt>
<pdfrwt beam="1">  1       21 0.79549117E-02 0.55365410E+03</pdfrwt>
<pdfrwt beam="2">  1        2 0.48209398E+00 0.55365410E+03</pdfrwt>
<totfact> 0.24080577E+03</totfact>
</mgrwt>
</event>
<event>
 5    0  0.3188794E-002  0.3787294E+03  0.7546771E-02  0.1051404E+00
         21   -1    0    0  501  502  0.00000000000E+00  0.00000000000E+00  0.68091868620E+03  0.68091868620E+03  0.00000000000E+00 0.  1.
          2   -1    0    0  503    0 -0.00000000000E+00 -0.00000000000E+00 -0.12749851923E+03  0.12749851923E+03  0.00000000000E+00 0.  1.
         25    1    1    2    0    0  0.12064084854E+03  0.18398444305E+03  0.10692993047E+03  0.27470620607E+03  0.12500000000E+03 0.  0.
         21    1    1    2  503  502  0.46488567297E+02 -0.71532266832E+02  0.18417346378E+03  0.20297269976E+03  0.00000000000E+00 0. -1.
          2    1    1    2  501    0 -0.16712941584E+03 -0.11245217622E+03  0.26231677272E+03  0.33073829960E+03  0.00000000000E+00 0.  1.
<mgrwt>
<rscale>  4 0.37872939E+03</rscale>
<asrwt>0</asrwt>
<pdfrwt beam="1">  1       21 0.10475672E+00 0.37872939E+03</pdfrwt>
<pdfrwt beam="2">  1        2 0.19615157E-01 0.37872939E+03</pdfrwt>
<totfact> 0.24166480E+03</totfact>
</mgrwt>
</event>
<event>
 5    0  0.3188794E-002  0.5214296E+03  0.7546771E-02  0.1008332E+00
         21   -1    0    0  501  502  0.00000000000E+00  0.00000000000E+00  0.44904016066E+03  0.44904016066E+03  0.00000000000E+00 0. -1.
          2   -1    0    0  503    0 -0.00000000000E+00 -0.00000000000E+00 -0.44912599136E+03  0.44912599136E+03  0.00000000000E+00 0.  1.
         25    1    1    2    0    0 -0.25782759811E+03  0.19902106234E+03  0.77112202386E+02  0.35728944199E+03  0.12500000000E+03 0.  0.
         21    1    1    2  503  502  0.92671192426E+02  0.13424407847E+03 -0.31477580282E+02  0.16613326148E+03  0.00000000000E+00 0. -1.
          2    1    1    2  501    0  0.16515640568E+03 -0.33326514081E+03 -0.45720452810E+02  0.37474344854E+03  0.00000000000E+00 0.  1.
<mgrwt>
<rscale>  4 0.52142958E+03</rscale>
<asrwt>0</asrwt>
<pdfrwt beam="1">  1       21 0.69083102E-01 0.52142958E+03</pdfrwt>
<pdfrwt beam="2">  1        2 0.69096306E-01 0.52142958E+03</pdfrwt>
<totfact> 0.15260322E+03</totfact>
</mgrwt>
</event>
<event>
 5    0  0.3188794E-002  0.4092766E+03  0.7546771E-02  0.1040614E+00
         21   -1    0    0  501  502  0.00000000000E+00  0.00000000000E+00  0.28105625450E+02  0.28105625450E+02  0.00000000000E+00 0.  1.
          2   -1    0    0  503    0 -0.00000000000E+00 -0.00000000000E+00 -0.20887581482E+04  0.20887581482E+04  0.00000000000E+00 0. -1.
         25    1    1    2    0    0 -0.17165296622E+03  0.13233965307E+03 -0.97244337116E+03  0.10041163452E+04  0.12500000000E+03 0.  0.
         21    1    1    2  503  502  0.12811619736E+03 -0.79552113810E+02 -0.89867043376E+03  0.91123589007E+03  0.00000000000E+00 0. -1.
          2    1    1    2  501    0  0.43536768854E+02 -0.52787539255E+02 -0.18953871780E+03  0.20151153835E+03  0.00000000000E+00 0. -1.
<mgrwt>
<rscale>  4 0.40927657E+03</rscale>
<asrwt>0</asrwt>
<pdfrwt beam="1">  1       21 0.43239403E-02 0.40927657E+03</pdfrwt>
<pdfrwt beam="2">  1        2 0.32134756E+00 0.40927657E+03</pdfrwt>
<totfact> 0.28362539E+04</totfact>
</mgrwt>
</event>
<event>
 5    0  0.3188794E-002  0.4946251E+03  0.7546771E-02  0.1015191E+00
         21   -1    0    0  503  502  0.00000000000E+00  0.00000000000E+00  0.22759316415E+03  0.22759316415E+03  0.00000000000E+00 0.  1.
         -1   -1    0    0    0  501 -0.00000000000E+00 -0.00000000000E+00 -0.42632945496E+03  0.42632945496E+03  0.00000000000E+00 0. -1.
         25    1    1    2    0    0 -0.15124755413E+02  0.25795168320E+03 -0.28017133514E+02  0.28840559783E+03  0.12500000000E+03 0.  0.
         21    1    1    2  503  501  0.70871014575E+02 -0.15529537081E+03 -0.18032452195E+03  0.24830683865E+03  0.00000000000E+00 0. -1.
         -1    1    1    2    0  502 -0.55746259162E+02 -0.10265631239E+03  0.96053646548E+01  0.11721018264E+03  0.00000000000E+00 0. -1.
<mgrwt>
<rscale>  4 0.49462510E+03</rscale>
<asrwt>0</asrwt>
<pdfrwt beam="1">  1       21 0.35014333E-01 0.49462510E+03</pdfrwt>
<pdfrwt beam="2">  1       -1 0.65589146E-01 0.49462510E+03</pdfrwt>
<totfact> 0.16721929E+03</totfact>
</mgrwt>
</event>
<event>
 5    0  0.3188794E-002  0.4687725E+03  0.7546771E-02  0.1022267E+00
         21   -1    0    0  501  502  0.00000000000E+00  0.00000000000E+00  0.66668885169E+03  0.66668885169E+03  0.00000000000E+00 0. -1.
          2   -1    0    0  503    0 -0.00000000000E+00 -0.00000000000E+00 -0.12599937698E+03  0.12599937698E+03  0.00000000000E+00 0.  1.
         25    1    1    2    0    0 -0.90332726860E+02 -0.22038928996E+03  0.27641198039E+03  0.38569420993E+03  0.12500000000E+03 0.  0.
         21    1    1    2  503  502  0.49358563249E+02  0.17315455318E+03  0.54536311196E+02  0.18813021100E+03  0.00000000000E+00 0.  1.
          2    1    1    2  501    0  0.40974163611E+02  0.47234736784E+02  0.20974118311E+03  0.21886380774E+03  0.00000000000E+00 0.  1.
<mgrwt>
<rscale>  4 0.46877254E+03</rscale>
<asrwt>0</asrwt>
<pdfrwt beam="1">  1       21 0.10256751E+00 0.46877254E+03</pdfrwt>
<pdfrwt beam="2">  1        2 0.19384520E-01 0.46877254E+03</pdfrwt>
<totfact> 0.25370038E+03</totfact>
</mgrwt>
</event>
<event>
 5    0  0.3188794E-002  0.5127253E+03  0.7546771E-02  0.1010510E+00
          1   -1    0    0  503    0 -0.00000000000E+00  0.00000000000E+00  0.16977260805E+04  0.16977260805E+04  0.00000000000E+00 0.  1.
         21   -1    0    0  501  502  0.00000000000E+00 -0.00000000000E+00 -0.83118233457E+02  0.83118233457E+02  0.00000000000E+00 0. -1.
         25    1    1    2    0    0 -0.24271529519E+03 -0.53803847899E+01  0.11242904235E+04  0.11569760670E+04  0.12500000000E+03 0.  0.
         21    1    1    2  503  502  0.21984887239E+03  0.34731027949E+02  0.52671963168E+03  0.57181582820E+03  0.00000000000E+00 0.  1.
          1    1    1    2  501    0  0.22866422803E+02 -0.29350643159E+02 -0.36402208153E+02  0.52052418811E+02  0.00000000000E+00 0.  1.
<mgrwt>
<rscale>  4 0.51272528E+03</rscale>
<asrwt>0</asrwt>
<pdfrwt beam="1">  1       21 0.12787422E-01 0.51272528E+03</pdfrwt>
<pdfrwt beam="2">  1        1 0.26118860E+00 0.51272528E+03</pdfrwt>
<totfact> 0.28724306E+03</totfact>
</mgrwt>
</event>
<event>
 5    0  0.3188794E-002  0.7417023E+03  0.7546771E-02  0.9648459E-01
          1   -1    0    0  503    0 -0.00000000000E+00  0.00000000000E+00  0.28886007171E+04  0.28886007171E+04  0.00000000000E+00 0.  1.
         21   -1    0    0  501  502  0.00000000000E+00 -0.00000000000E+00 -0.12816686260E+03  0.12816686260E+03  0.00000000000E+00 0. -1.
         25    1    1    2    0    0  0.36145616715E+02 -0.30219337603E+03  0.18155133669E+04  0.18450856694E+04  0.12500000000E+03 0.  0.
         21    1    1    2  503  502 -0.30784985313E+02  0.37027890637E+03  0.10107163165E+04  0.10768480191E+04  0.00000000000E+00 0. -1.
          1    1    1    2  501    0 -0.53606314020E+01 -0.68085530343E+02 -0.65795828905E+02  0.94833891159E+02  0.00000000000E+00 0.  1.
<mgrwt>
<rscale>  4 0.74170227E+03</rscale>
<asrwt>0</asrwt>
<pdfrwt beam="1">  1       21 0.19717981E-01 0.74170227E+03</pdfrwt>
<pdfrwt beam="2">  1        1 0.44440006E+00 0.74170227E+03</pdfrwt>
<totfact> 0.19036085E+02</totfact>
</mgrwt>
</event>
<event>
 5    0  0.3188794E-002  0.4317308E+03  0.7546771E-02  0.1033315E+00
         21   -1    0    0  501  502  0.00000000000E+00  0.00000000000E+00  0.12188605239E+03  0.12188605239E+03  0.00000000000E+00 0.  1.
          2   -1    0    0  503    0 -0.00000000000E+00 -0.00000000000E+00 -0.10014804101E+04  0.10014804101E+04  0.00000000000E+00 0. -1.
         25    1    1    2    0    0  0.34339908610E+02  0.31019802079E+03 -0.54987273844E+03  0.64450529082E+03  0.12500000000E+03 0.  0.
         21    1    1    2  503  502 -0.67400409706E+02 -0.50590275894E+02 -0.63254160870E+02  0.10537210310E+03  0.00000000000E+00 0. -1.
          2    1    1    2  501    0  0.33060501095E+02 -0.25960774490E+03 -0.26646745837E+03  0.37348906853E+03  0.00000000000E+00 0. -1.
<mgrwt>
<rscale>  4 0.43173083E+03</rscale>
<asrwt>0</asrwt>
<pdfrwt beam="1">  1       21 0.18751700E-01 0.43173083E+03</pdfrwt>
<pdfrwt beam="2">  1        2 0.15407391E+00 0.43173083E+03</pdfrwt>
<totfact> 0.82141248E+03</totfact>
</mgrwt>
</event>
<event>
 5    0  0.3188794E-002  0.6365817E+03  0.7546771E-02  0.9832289E-01
         21   -1    0    0  501  502  0.00000000000E+00  0.00000000000E+00  0.57191760275E+03  0.57191760275E+03  0.00000000000E+00 0.  1.
          2   -1    0    0  503    0 -0.00000000000E+00 -0.00000000000E+00 -0.75318787017E+03  0.75318787017E+03  0.00000000000E+00 0.  1.
         25    1    1    2    0    0 -0.45717589028E+03  0.25203455864E+03 -0.30186076508E+03  0.61585398830E+03  0.12500000000E+03 0.  0.
         21    1    1    2  503  502  0.97129858550E+01  0.99301285205E+02 -0.54908700313E+02  0.11388613923E+03  0.00000000000E+00 0. -1.
          2    1    1    2  501    0  0.44746290443E+03 -0.35133584385E+03  0.17549919798E+03  0.59536534540E+03  0.00000000000E+00 0.  1.
<mgrwt>
<rscale>  4 0.63658165E+03</rscale>
<asrwt>0</asrwt>
<pdfrwt beam="1">  1       21 0.87987324E-01 0.63658165E+03</pdfrwt>
<pdfrwt beam="2">  1        2 0.11587506E+00 0.63658165E+03</pdfrwt>
<totfact> 0.46014321E+02</totfact>
</mgrwt>
</event>
<event>
 5    0  0.3188794E-002  0.3763765E+03  0.7546771E-02  0.1052281E+00
         21   -1    0    0  501  502  0.00000000000E+00  0.00000000000E+00  0.71554800809E+03  0.71554800809E+03  0.00000000000E+00 0.  1.
         -2   -1    0    0    0  501 -0.00000000000E+00 -0.00000000000E+00 -0.99468786352E+02  0.99468786352E+02  0.00000000000E+00 0.  1.
         25    1    1    2    0    0 -0.19939427356E+03 -0.67100606700E+02  0.47731359079E+03  0.53638962676E+03  0.12500000000E+03 0.  0.
         21    1    1    2  503  502  0.67001742886E+02 -0.12392775948E+02 -0.40876830568E+01  0.68260703177E+02  0.00000000000E+00 0.  1.
         -2    1    1    2    0  503  0.13239253068E+03  0.79493382648E+02  0.14285331400E+03  0.21036646450E+03  0.00000000000E+00 0.  1.
<mgrwt>
<rscale>  4 0.37637649E+03</rscale>
<asrwt>0</asrwt>
<pdfrwt beam="1">  1       21 0.11008431E+00 0.37637649E+03</pdfrwt>
<pdfrwt beam="2">  1       -2 0.15302891E-01 0.37637649E+03</pdfrwt>
<totfact> 0.16236081E+03</totfact>
</mgrwt>
</event>
<event>
 5    0  0.3188794E-002  0.1018148E+04  0.7546771E-02  0.9288861E-01
         21   -1    0    0  501  502  0.00000000000E+00  0.00000000000E+00  0.25515845104E+03  0.25515845104E+03  0.00000000000E+00 0. -1.
          1   -1    0    0  503    0 -0.00000000000E+00 -0.00000000000E+00 -0.18909165650E+04  0.18909165650E+04  0.00000000000E+00 0.  1.
         25    1    1    2    0    0  0.21934948305E+03 -0.31726898486E+03 -0.25252757763E+03  0.47767036953E+03  0.12500000000E+03 0.  0.
         21    1    1    2  503  502 -0.18079319450E+03  0.34400847838E+03 -0.14963224730E+04  0.15459653798E+04  0.00000000000E+00 0.  1.
          1    1    1    2  501    0 -0.38556288540E+02 -0.26739493517E+02  0.11309193665E+03  0.12243926671E+03  0.00000000000E+00 0.  1.
<mgrwt>
<rscale>  4 0.10181479E+04</rscale>
<asrwt>0</asrwt>
<pdfrwt beam="1">  1       21 0.39255148E-01 0.10181479E+04</pdfrwt>
<pdfrwt beam="2">  1        1 0.29091023E+00 0.10181479E+04</pdfrwt>
<totfact> 0.22043818E+02</totfact>
</mgrwt>
</event>
<event>
 5    0  0.3188794E-002  0.5833631E+03  0.7546771E-02  0.9940536E-01
         21   -1    0    0  501  502  0.00000000000E+00  0.00000000000E+00  0.23664011041E+03  0.23664011041E+03  0.00000000000E+00 0.  1.
          2   -1    0    0  503    0 -0.00000000000E+00 -0.00000000000E+00 -0.18456318041E+04  0.18456318041E+04  0.00000000000E+00 0.  1.
         25    1    1    2    0    0  0.10156467261E+03 -0.22928497469E+03 -0.41948447401E+03  0.50445932074E+03  0.12500000000E+03 0.  0.
         21    1    1    2  503  502  0.19866043285E+03  0.33238557276E+02 -0.12022642132E+04  0.12190201014E+04  0.00000000000E+00 0.  1.
          2    1    1    2  501    0 -0.30022510546E+03  0.19604641742E+03  0.12756993490E+02  0.35879249241E+03  0.00000000000E+00 0.  1.
<mgrwt>
<rscale>  4 0.58336311E+03</rscale>
<asrwt>0</asrwt>
<pdfrwt beam="1">  1       21 0.36406172E-01 0.58336311E+03</pdfrwt>
<pdfrwt beam="2">  1        2 0.28394335E+00 0.58336311E+03</pdfrwt>
<totfact> 0.72373216E+02</totfact>
</mgrwt>
</event>
<event>
 5    0  0.3188794E-002  0.4429700E+03  0.7546771E-02  0.1029839E+00
          1   -1    0    0  503    0 -0.00000000000E+00  0.00000000000E+00  0.71057504643E+03  0.71057504643E+03  0.00000000000E+00 0.  1.
         21   -1    0    0  501  502  0.00000000000E+00 -0.00000000000E+00 -0.53209814708E+03  0.53209814708E+03  0.00000000000E+00 0.  1.
         25    1    1    2    0    0 -0.15506361903E+03  0.16006908887E+03  0.51440586924E+03  0.57437377853E+03  0.12500000000E+03 0.  0.
         21    1    1    2  503  502 -0.10460815834E+03 -0.10506457581E+03  0.84828724572E+02  0.17081377109E+03  0.00000000000E+00 0. -1.
          1    1    1    2  501    0  0.25967177737E+03 -0.55004513063E+02 -0.42075769446E+03  0.49748564388E+03  0.00000000000E+00 0.  1.
<mgrwt>
<rscale>  4 0.44296996E+03</rscale>
<asrwt>0</asrwt>
<pdfrwt beam="1">  1       21 0.81861253E-01 0.44296996E+03</pdfrwt>
<pdfrwt beam="2">  1        1 0.10931924E+00 0.44296996E+03</pdfrwt>
<totfact> 0.35975035E+02</totfact>
</mgrwt>
</event>
<event>
 5    0  0.3188794E-002  0.3687790E+03  0.7546771E-02  0.1055161E+00
         21   -1    0    0  501  502  0.00000000000E+00  0.00000000000E+00  0.12496539980E+03  0.12496539980E+03  0.00000000000E+00 0. -1.
          2   -1    0    0  503    0 -0.00000000000E+00 -0.00000000000E+00 -0.84888126971E+03  0.84888126971E+03  0.00000000000E+00 0.  1.
         25    1    1    2    0    0 -0.19903194576E+03 -0.93354497677E+02 -0.56635843917E+03  0.62025451171E+03  0.12500000000E+03 0.  0.
         21    1    1    2  503  502  0.74671695444E+02  0.85528732922E+02 -0.19310887449E+03  0.22401353455E+03  0.00000000000E+00 0.  1.
          2    1    1    2  501    0  0.12436025032E+03  0.78257647558E+01  0.35551443744E+02  0.12957862326E+03  0.00000000000E+00 0.  1.
<mgrwt>
<rscale>  4 0.36877898E+03</rscale>
<asrwt>0</asrwt>
<pdfrwt beam="1">  1       21 0.19225447E-01 0.36877898E+03</pdfrwt>
<pdfrwt beam="2">  1        2 0.13059712E+00 0.36877898E+03</pdfrwt>
<totfact> 0.99459932E+03</totfact>
</mgrwt>
</event>
<event>
 5    0  0.3188794E-002  0.5772005E+03  0.7546771E-02  0.9953870E-01
         21   -1    0    0  503  502  0.00000000000E+00  0.00000000000E+00  0.16523692215E+03  0.16523692215E+03  0.00000000000E+00 0.  1.
          2   -1    0    0  502    0 -0.00000000000E+00 -0.00000000000E+00 -0.11390373616E+04  0.11390373616E+04  0.00000000000E+00 0.  1.
         25    1    1    2    0    0  0.13174406744E+03 -0.35105819614E+03 -0.38983796787E+03  0.55515493114E+03  0.12500000000E+03 0.  0.
         21    1    1    2  503  501  0.27146204253E+02  0.13446345275E+03 -0.40175612470E+03  0.42452952814E+03  0.00000000000E+00 0. -1.
          2    1    1    2  501    0 -0.15889027169E+03  0.21659474339E+03 -0.18220634689E+03  0.32458982447E+03  0.00000000000E+00 0.  1.
<mgrwt>
<rscale>  4 0.57720051E+03</rscale>
<asrwt>0</asrwt>
<pdfrwt beam="1">  1       21 0.25421064E-01 0.57720051E+03</pdfrwt>
<pdfrwt beam="2">  1        2 0.17523652E+00 0.57720051E+03</pdfrwt>
<totfact> 0.36852290E+03</totfact>
</mgrwt>
</event>
<event>
 5    0  0.3188794E-002  0.9540470E+03  0.7546771E-02  0.9360433E-01
         21   -1    0    0  503  502  0.00000000000E+00  0.00000000000E+00  0.43605379133E+03  0.43605379133E+03  0.00000000000E+00 0. -1.
         -4   -1    0    0    0  501 -0.00000000000E+00 -0.00000000000E+00 -0.99535154831E+03  0.99535154831E+03  0.00000000000E+00 0. -1.
         25    1    1    2    0    0  0.58050051386E+02  0.43844407103E+03 -0.64126320108E+03  0.78895279006E+03  0.12500000000E+03 0.  0.
         21    1    1    2  503  501  0.44422576378E+02 -0.40782765098E+03 -0.10820662352E+03  0.42427046983E+03  0.00000000000E+00 0. -1.
         -4    1    1    2    0  502 -0.10247262776E+03 -0.30616420048E+02  0.19017206763E+03  0.21818207975E+03  0.00000000000E+00 0. -1.
<mgrwt>
<rscale>  4 0.95404699E+03</rscale>
<asrwt>0</asrwt>
<pdfrwt beam="1">  1       21 0.67085199E-01 0.95404699E+03</pdfrwt>
<pdfrwt beam="2">  1       -4 0.15313101E+00 0.95404699E+03</pdfrwt>
<totfact> 0.22240595E+01</totfact>
</mgrwt>
</event>
<event>
 5    0  0.3188794E-002  0.3277703E+03  0.7546771E-02  0.1072128E+00
         21   -1    0    0  503  502  0.00000000000E+00  0.00000000000E+00  0.24973997736E+03  0.24973997736E+03  0.00000000000E+00 0.  1.
         -1   -1    0    0    0  501 -0.00000000000E+00 -0.00000000000E+00 -0.35093767544E+03  0.35093767544E+03  0.00000000000E+00 0.  1.
         25    1    1    2    0    0 -0.23980164227E+03  0.24249107530E+02 -0.13744628890E+03  0.30431780951E+03  0.12500000000E+03 0.  0.
         21    1    1    2  503  501  0.36251318154E+02 -0.38788866521E+02 -0.51736829143E+02  0.74131192650E+02  0.00000000000E+00 0. -1.
         -1    1    1    2    0  502  0.20355032411E+03  0.14539758992E+02  0.87985419964E+02  0.22222865064E+03  0.00000000000E+00 0.  1.
<mgrwt>
<rscale>  4 0.32777034E+03</rscale>
<asrwt>0</asrwt>
<pdfrwt beam="1">  1       21 0.38421535E-01 0.32777034E+03</pdfrwt>
<pdfrwt beam="2">  1       -1 0.53990412E-01 0.32777034E+03</pdfrwt>
<totfact> 0.20791982E+03</totfact>
</mgrwt>
</event>
<event>
 5    0  0.3188794E-002  0.6927294E+03  0.7546771E-02  0.9729747E-01
          3   -1    0    0  503    0 -0.00000000000E+00  0.00000000000E+00  0.35328702128E+03  0.35328702128E+03  0.00000000000E+00 0.  1.
         21   -1    0    0  501  502  0.00000000000E+00 -0.00000000000E+00 -0.53228929363E+03  0.53228929363E+03  0.00000000000E+00 0.  1.
         25    1    1    2    0    0 -0.52413293930E+02 -0.21332384793E+03  0.27678094542E+03  0.37481583374E+03  0.12500000000E+03 0.  0.
         21    1    1    2  503  502  0.46311081920E+01  0.15139900961E+03 -0.27951625397E+03  0.31791892600E+03  0.00000000000E+00 0. -1.
          3    1    1    2  501    0  0.47782185738E+02  0.61924838323E+02 -0.17626696380E+03  0.19284155518E+03  0.00000000000E+00 0.  1.
<mgrwt>
<rscale>  4 0.69272936E+03</rscale>
<asrwt>0</asrwt>
<pdfrwt beam="1">  1       21 0.81890661E-01 0.69272936E+03</pdfrwt>
<pdfrwt beam="2">  1        3 0.54351849E-01 0.69272936E+03</pdfrwt>
<totfact> 0.19952894E+02</totfact>
</mgrwt>
</event>
<event>
 5    0  0.3188794E-002  0.4574628E+03  0.7546771E-02  0.1025520E+00
          1   -1    0    0  502    0 -0.00000000000E+00  0.00000000000E+00  0.15052231351E+04  0.15052231351E+04  0.00000000000E+00 0.  1.
         21   -1    0    0  503  502  0.00000000000E+00 -0.00000000000E+00 -0.92860125840E+02  0.92860125840E+02  0.00000000000E+00 0. -1.
         25    1    1    2    0    0  0.19268287885E+03 -0.17335858592E+03  0.18426368375E+03  0.34169869222E+03  0.12500000000E+03 0.  0.
         21    1    1    2  503  501 -0.38762698197E+02  0.38970583541E+02  0.38354921638E+03  0.38746774645E+03  0.00000000000E+00 0.  1.
          1    1    1    2  501    0 -0.15392018065E+03  0.13438800238E+03  0.84455010912E+03  0.86891682226E+03  0.00000000000E+00 0.  1.
<mgrwt>
<rscale>  4 0.45746279E+03</rscale>
<asrwt>0</asrwt>
<pdfrwt beam="1">  1       21 0.14286174E-01 0.45746279E+03</pdfrwt>
<pdfrwt beam="2">  1        1 0.23157277E+00 0.45746279E+03</pdfrwt>
<totfact> 0.31860945E+03</totfact>
</mgrwt>
</event>
<event>
 5    0  0.3188794E-002  0.6588152E+03  0.7546771E-02  0.9790377E-01
         -2   -1    0    0    0  501 -0.00000000000E+00  0.00000000000E+00  0.14861368725E+03  0.14861368725E+03  0.00000000000E+00 0.  1.
         21   -1    0    0  503  502  0.00000000000E+00 -0.00000000000E+00 -0.13181965952E+04  0.13181965952E+04  0.00000000000E+00 0. -1.
         25    1    1    2    0    0 -0.23413326131E+03 -0.10158781163E+03 -0.55473384016E+03  0.62329214735E+03  0.12500000000E+03 0.  0.
         21    1    1    2  503  501  0.24692748442E+03  0.67316995323E+02 -0.30187305263E+02  0.25771308430E+03  0.00000000000E+00 0.  1.
         -2    1    1    2    0  502 -0.12794223104E+02  0.34270816311E+02 -0.58466176249E+03  0.58580505077E+03  0.00000000000E+00 0.  1.
<mgrwt>
<rscale>  4 0.65881520E+03</rscale>
<asrwt>0</asrwt>
<pdfrwt beam="1">  1       21 0.20279948E+00 0.65881520E+03</pdfrwt>
<pdfrwt beam="2">  1       -2 0.22863643E-01 0.65881520E+03</pdfrwt>
<totfact> 0.14249062E+02</totfact>
</mgrwt>
</event>
<event>
 5    0  0.3188794E-002  0.4809736E+03  0.7546771E-02  0.1018868E+00
          1   -1    0    0  503    0 -0.00000000000E+00  0.00000000000E+00  0.10359644600E+04  0.10359644600E+04  0.00000000000E+00 0. -1.
         21   -1    0    0  501  502  0.00000000000E+00 -0.00000000000E+00 -0.82200954671E+02  0.82200954671E+02  0.00000000000E+00 0.  1.
         25    1    1    2    0    0 -0.19396720677E+03  0.11038143345E+03  0.66659657974E+03  0.71399113319E+03  0.12500000000E+03 0.  0.
         21    1    1    2  503  502  0.19655360719E+03 -0.69847479002E+02  0.29647558254E+03  0.36250484392E+03  0.00000000000E+00 0.  1.
          1    1    1    2  501    0 -0.25864004235E+01 -0.40533954451E+02 -0.93086569677E+01  0.41669437542E+02  0.00000000000E+00 0. -1.
<mgrwt>
<rscale>  4 0.48097359E+03</rscale>
<asrwt>0</asrwt>
<pdfrwt beam="1">  1       21 0.12646302E-01 0.48097359E+03</pdfrwt>
<pdfrwt beam="2">  1        1 0.15937914E+00 0.48097359E+03</pdfrwt>
<totfact> 0.85150004E+03</totfact>
</mgrwt>
</event>
<event>
 5    0  0.3188794E-002  0.4222198E+03  0.7546771E-02  0.1036346E+00
          1   -1    0    0  503    0 -0.00000000000E+00  0.00000000000E+00  0.20989392184E+04  0.20989392184E+04  0.00000000000E+00 0. -1.
         21   -1    0    0  501  502  0.00000000000E+00 -0.00000000000E+00 -0.69099631770E+02  0.69099631770E+02  0.00000000000E+00 0.  1.
         25    1    1    2    0    0 -0.13131509955E+03  0.20530391738E+03  0.28463250737E+03  0.39501141517E+03  0.12500000000E+03 0.  0.
         21    1    1    2  503  502  0.46057802202E+02  0.32484699018E+02  0.44047111967E+03  0.44406236507E+03  0.00000000000E+00 0. -1.
          1    1    1    2  501    0  0.85257297350E+02 -0.23778861639E+03  0.13047359596E+04  0.13289650699E+04  0.00000000000E+00 0. -1.
<mgrwt>
<rscale>  4 0.42221978E+03</rscale>
<asrwt>0</asrwt>
<pdfrwt beam="1">  1       21 0.10630714E-01 0.42221978E+03</pdfrwt>
<pdfrwt beam="2">  1        1 0.32291368E+00 0.42221978E+03</pdfrwt>
<totfact> 0.22275563E+03</totfact>
</mgrwt>
</event>
<event>
 5    0  0.3188794E-002  0.4155408E+03  0.7546771E-02  0.1038527E+00
          2   -1    0    0  502    0 -0.00000000000E+00  0.00000000000E+00  0.78119171502E+03  0.78119171502E+03  0.00000000000E+00 0. -1.
         21   -1    0    0  503  502  0.00000000000E+00 -0.00000000000E+00 -0.13368212328E+03  0.13368212328E+03  0.00000000000E+00 0. -1.
         25    1    1    2    0    0 -0.92083915623E+02  0.19855881782E+03  0.55631521942E+03  0.61075091077E+03  0.12500000000E+03 0.  0.
         21    1    1    2  503  501 -0.51751845249E+02 -0.51616477548E+02 -0.11978741488E+02  0.74067567050E+02  0.00000000000E+00 0.  1.
          2    1    1    2  501    0  0.14383576087E+03 -0.14694234028E+03  0.10317311381E+03  0.23005536048E+03  0.00000000000E+00 0. -1.
<mgrwt>
<rscale>  4 0.41554079E+03</rscale>
<asrwt>0</asrwt>
<pdfrwt beam="1">  1       21 0.20566481E-01 0.41554079E+03</pdfrwt>
<pdfrwt beam="2">  1        2 0.12018334E+00 0.41554079E+03</pdfrwt>
<totfact> 0.96851409E+03</totfact>
</mgrwt>
</event>
<event>
 5    0  0.3188794E-002  0.4558710E+03  0.7546771E-02  0.1025986E+00
          1   -1    0    0  503    0 -0.00000000000E+00  0.00000000000E+00  0.19974238533E+04  0.19974238533E+04  0.00000000000E+00 0. -1.
         21   -1    0    0  501  502  0.00000000000E+00 -0.00000000000E+00 -0.66062494007E+02  0.66062494007E+02  0.00000000000E+00 0.  1.
         25    1    1    2    0    0  0.15971196132E+03 -0.18464474523E+03  0.93206253004E+03  0.97157972007E+03  0.12500000000E+03 0.  0.
         21    1    1    2  503  502  0.54086234883E+02  0.17231240878E+03  0.70607323933E+03  0.72880471068E+03  0.00000000000E+00 0.  1.
          1    1    1    2  501    0 -0.21379819620E+03  0.12332336448E+02  0.29322558992E+03  0.36310191655E+03  0.00000000000E+00 0. -1.
<mgrwt>
<rscale>  4 0.45587105E+03</rscale>
<asrwt>0</asrwt>
<pdfrwt beam="1">  1       21 0.10163462E-01 0.45587105E+03</pdfrwt>
<pdfrwt beam="2">  1        1 0.30729593E+00 0.45587105E+03</pdfrwt>
<totfact> 0.27953296E+03</totfact>
</mgrwt>
</event>
<event>
 5    0  0.3188794E-002  0.4715045E+03  0.7546771E-02  0.1021496E+00
          2   -1    0    0  503    0 -0.00000000000E+00  0.00000000000E+00  0.10854578441E+04  0.10854578441E+04  0.00000000000E+00 0.  1.
         21   -1    0    0  501  502  0.00000000000E+00 -0.00000000000E+00 -0.10357230671E+03  0.10357230671E+03  0.00000000000E+00 0. -1.
         25    1    1    2    0    0  0.12455622941E+03 -0.18176010654E+03  0.51764662157E+03  0.57631069350E+03  0.12500000000E+03 0.  0.
         21    1    1    2  503  502 -0.96967405424E+02  0.19433668813E+03  0.51199293936E+03  0.55615303292E+03  0.00000000000E+00 0.  1.
          2    1    1    2  501    0 -0.27588823985E+02 -0.12576581590E+02 -0.47754023498E+02  0.56566424438E+02  0.00000000000E+00 0.  1.
<mgrwt>
<rscale>  4 0.47150447E+03</rscale>
<asrwt>0</asrwt>
<pdfrwt beam="1">  1       21 0.15934202E-01 0.47150447E+03</pdfrwt>
<pdfrwt beam="2">  1        2 0.16699351E+00 0.47150447E+03</pdfrwt>
<totfact> 0.98421279E+03</totfact>
</mgrwt>
</event>
<event>
 5    0  0.3188794E-002  0.7298149E+03  0.7546771E-02  0.9667561E-01
          2   -1    0    0  503    0 -0.00000000000E+00  0.00000000000E+00  0.27263279730E+04  0.27263279730E+04  0.00000000000E+00 0.  1.
         21   -1    0    0  501  502  0.00000000000E+00 -0.00000000000E+00 -0.53394171080E+02  0.53394171080E+02  0.00000000000E+00 0. -1.
         25    1    1    2    0    0  0.67976507502E+02 -0.20355372725E+03  0.23935119002E+04  0.24063622217E+04  0.12500000000E+03 0.  0.
         21    1    1    2  503  502 -0.40943465689E+02  0.21225902651E+03  0.22527128996E+03  0.31221373416E+03  0.00000000000E+00 0. -1.
          2    1    1    2  501    0 -0.27033041814E+02 -0.87052992531E+01  0.54150611759E+02  0.61146188260E+02  0.00000000000E+00 0.  1.
<mgrwt>
<rscale>  4 0.72981493E+03</rscale>
<asrwt>0</asrwt>
<pdfrwt beam="1">  1       21 0.82144900E-02 0.72981493E+03</pdfrwt>
<pdfrwt beam="2">  1        2 0.41943496E+00 0.72981493E+03</pdfrwt>
<totfact> 0.38648081E+03</totfact>
</mgrwt>
</event>
<event>
 5    0  0.3188794E-002  0.4590624E+03  0.7546771E-02  0.1025053E+00
          2   -1    0    0  503    0 -0.00000000000E+00  0.00000000000E+00  0.45766641457E+04  0.45766641457E+04  0.00000000000E+00 0. -1.
         21   -1    0    0  501  502  0.00000000000E+00 -0.00000000000E+00 -0.28476159876E+02  0.28476159876E+02  0.00000000000E+00 0.  1.
         25    1    1    2    0    0  0.28110532322E+03  0.40293373342E+02  0.11154434669E+04  0.11577922467E+04  0.12500000000E+03 0.  0.
         21    1    1    2  503  502 -0.61349270324E+02  0.40649616918E+02  0.12272915047E+04  0.12294960601E+04  0.00000000000E+00 0. -1.
          2    1    1    2  501    0 -0.21975605289E+03 -0.80942990259E+02  0.22054530142E+04  0.22178519987E+04  0.00000000000E+00 0. -1.
<mgrwt>
<rscale>  4 0.45906243E+03</rscale>
<asrwt>0</asrwt>
<pdfrwt beam="1">  1       21 0.43809513E-02 0.45906243E+03</pdfrwt>
<pdfrwt beam="2">  1        2 0.70410159E+00 0.45906243E+03</pdfrwt>
<totfact> 0.55795405E+02</totfact>
</mgrwt>
</event>
<event>
 5    0  0.3188794E-002  0.4668274E+03  0.7546771E-02  0.1022819E+00
         21   -1    0    0  503  502  0.00000000000E+00  0.00000000000E+00  0.12782588204E+03  0.12782588204E+03  0.00000000000E+00 0. -1.
         -1   -1    0    0    0  501 -0.00000000000E+00 -0.00000000000E+00 -0.77434930272E+03  0.77434930272E+03  0.00000000000E+00 0.  1.
         25    1    1    2    0    0 -0.10991422227E+03  0.25553325020E+03 -0.24188765991E+03  0.38924673182E+03  0.12500000000E+03 0.  0.
         21    1    1    2  503  501  0.12176092585E+03 -0.10308157164E+03 -0.17257636622E+03  0.23501943675E+03  0.00000000000E+00 0.  1.
         -1    1    1    2    0  502 -0.11846703575E+02 -0.15245167856E+03 -0.23205939455E+03  0.27790901619E+03  0.00000000000E+00 0.  1.
<mgrwt>
<rscale>  4 0.46682740E+03</rscale>
<asrwt>0</asrwt>
<pdfrwt beam="1">  1       21 0.19665521E-01 0.46682740E+03</pdfrwt>
<pdfrwt beam="2">  1       -1 0.11913066E+00 0.46682740E+03</pdfrwt>
<totfact> 0.14171094E+03</totfact>
</mgrwt>
</event>
<event>
 5    0  0.3188794E-002  0.3336882E+03  0.7546771E-02  0.1069517E+00
          2   -1    0    0  503    0 -0.00000000000E+00  0.00000000000E+00  0.18057090317E+04  0.18057090317E+04  0.00000000000E+00 0. -1.
         21   -1    0    0  501  502  0.00000000000E+00 -0.00000000000E+00 -0.43882360239E+02  0.43882360239E+02  0.00000000000E+00 0. -1.
         25    1    1    2    0    0  0.13144791436E+03  0.16654752578E+03  0.12981003729E+04  0.13212517590E+04  0.12500000000E+03 0.  0.
         21    1    1    2  503  502  0.66793804870E+00 -0.79769037518E+02  0.25062941793E+03  0.26301834655E+03  0.00000000000E+00 0.  1.
          2    1    1    2  501    0 -0.13211585241E+03 -0.86778488262E+02  0.21309688067E+03  0.26532128644E+03  0.00000000000E+00 0. -1.
<mgrwt>
<rscale>  4 0.33368818E+03</rscale>
<asrwt>0</asrwt>
<pdfrwt beam="1">  1       21 0.67511337E-02 0.33368818E+03</pdfrwt>
<pdfrwt beam="2">  1        2 0.27780133E+00 0.33368818E+03</pdfrwt>
<totfact> 0.18855485E+04</totfact>
</mgrwt>
</event>
<event>
 5    0  0.3188794E-002  0.1047366E+04  0.7546771E-02  0.9258068E-01
          1   -1    0    0  503    0 -0.00000000000E+00  0.00000000000E+00  0.21907103730E+04  0.21907103730E+04  0.00000000000E+00 0. -1.
         21   -1    0    0  501  502  0.00000000000E+00 -0.00000000000E+00 -0.19332276500E+03  0.19332276500E+03  0.00000000000E+00 0.  1.
         25    1    1    2    0    0  0.18091595680E+03  0.12345909362E+03  0.20879212284E+04  0.21030960005E+04  0.12500000000E+03 0.  0.
         21    1    1    2  503  502 -0.94674666232E+02 -0.14833229961E+03 -0.54495377220E+02  0.18421593219E+03  0.00000000000E+00 0.  1.
          1    1    1    2  501    0 -0.86241290571E+02  0.24873205983E+02 -0.36038243234E+02  0.96721205279E+02  0.00000000000E+00 0. -1.
<mgrwt>
<rscale>  4 0.10473658E+04</rscale>
<asrwt>0</asrwt>
<pdfrwt beam="1">  1       21 0.29741965E-01 0.10473658E+04</pdfrwt>
<pdfrwt beam="2">  1        1 0.33703235E+00 0.10473658E+04</pdfrwt>
<totfact> 0.24354648E+02</totfact>
</mgrwt>
</event>
<event>
 5    0  0.3188794E-002  0.5896634E+03  0.7546771E-02  0.9927086E-01
          2   -1    0    0  503    0 -0.00000000000E+00  0.00000000000E+00  0.35223431501E+03  0.35223431501E+03  0.00000000000E+00 0.  1.
         21   -1    0    0  501  502  0.00000000000E+00 -0.00000000000E+00 -0.14462860336E+04  0.14462860336E+04  0.00000000000E+00 0.  1.
         25    1    1    2    0    0  0.40971146886E+03  0.30582123656E+03  0.38189219486E+02  0.52770591519E+03  0.12500000000E+03 0.  0.
         21    1    1    2  503  502 -0.59886458182E+02  0.19058637973E+01 -0.17181638271E+02  0.62331604216E+02  0.00000000000E+00 0. -1.
          2    1    1    2  501    0 -0.34982501068E+03 -0.30772710035E+03 -0.11150592999E+04  0.12084828292E+04  0.00000000000E+00 0.  1.
<mgrwt>
<rscale>  4 0.58966343E+03</rscale>
<asrwt>0</asrwt>
<pdfrwt beam="1">  1       21 0.22250554E+00 0.58966343E+03</pdfrwt>
<pdfrwt beam="2">  1        2 0.54189895E-01 0.58966343E+03</pdfrwt>
<totfact> 0.89942865E+01</totfact>
</mgrwt>
</event>
<event>
 5    0  0.3188794E-002  0.5128090E+03  0.7546771E-02  0.1010489E+00
         21   -1    0    0  503  502  0.00000000000E+00  0.00000000000E+00  0.29480487930E+03  0.29480487930E+03  0.00000000000E+00 0. -1.
         -2   -1    0    0    0  501 -0.00000000000E+00 -0.00000000000E+00 -0.27651250866E+03  0.27651250866E+03  0.00000000000E+00 0.  1.
         25    1    1    2    0    0  0.24507840406E+03 -0.28633713732E+02 -0.63835682346E+02  0.28387199234E+03  0.12500000000E+03 0.  0.
         21    1    1    2  503  501 -0.22347364393E+03  0.44381450142E+02  0.31250557920E+02  0.22997125911E+03  0.00000000000E+00 0.  1.
         -2    1    1    2    0  502 -0.21604760125E+02 -0.15747736410E+02  0.50877495066E+02  0.57474136499E+02  0.00000000000E+00 0.  1.
<mgrwt>
<rscale>  4 0.51280903E+03</rscale>
<asrwt>0</asrwt>
<pdfrwt beam="1">  1       21 0.45354597E-01 0.51280903E+03</pdfrwt>
<pdfrwt beam="2">  1       -2 0.42540386E-01 0.51280903E+03</pdfrwt>
<totfact> 0.18795760E+03</totfact>
</mgrwt>
</event>
<event>
 5    0  0.3188794E-002  0.4162265E+03  0.7546771E-02  0.1038301E+00
          1   -1    0    0  503    0 -0.00000000000E+00  0.00000000000E+00  0.32625651244E+03  0.32625651244E+03  0.00000000000E+00 0. -1.
         21   -1    0    0  501  502  0.00000000000E+00 -0.00000000000E+00 -0.29364741581E+03  0.29364741581E+03  0.00000000000E+00 0.  1.
         25    1    1    2    0    0  0.22278226251E+03  0.25517855298E+02 -0.65490340908E+02  0.26494731963E+03  0.12500000000E+03 0.  0.
         21    1    1    2  503  502 -0.81683493625E+02  0.11483243777E+03  0.55353917202E+02  0.15140256948E+03  0.00000000000E+00 0. -1.
          1    1    1    2  501    0 -0.14109876888E+03 -0.14035029307E+03  0.42745520329E+02  0.20355403914E+03  0.00000000000E+00 0. -1.
<mgrwt>
<rscale>  4 0.41622648E+03</rscale>
<asrwt>0</asrwt>
<pdfrwt beam="1">  1       21 0.45176525E-01 0.41622648E+03</pdfrwt>
<pdfrwt beam="2">  1        1 0.50193310E-01 0.41622648E+03</pdfrwt>
<totfact> 0.38503415E+03</totfact>
</mgrwt>
</event>
<event>
 5    0  0.3188794E-002  0.7061647E+03  0.7546771E-02  0.9706747E-01
         -1   -1    0    0    0  501 -0.00000000000E+00  0.00000000000E+00  0.17793577264E+03  0.17793577264E+03  0.00000000000E+00 0.  1.
         21   -1    0    0  503  502  0.00000000000E+00 -0.00000000000E+00 -0.96828527340E+03  0.96828527340E+03  0.00000000000E+00 0. -1.
         25    1    1    2    0    0  0.16043245961E+03 -0.24589078640E+03 -0.20894279036E+03  0.38142226282E+03  0.12500000000E+03 0.  0.
         21    1    1    2  503  501 -0.23205875855E+03  0.30415459895E+03 -0.36172999162E+03  0.52650724052E+03  0.00000000000E+00 0. -1.
         -1    1    1    2    0  502  0.71626298932E+02 -0.58263812548E+02 -0.21967671877E+03  0.23829154270E+03  0.00000000000E+00 0.  1.
<mgrwt>
<rscale>  4 0.70616468E+03</rscale>
<asrwt>0</asrwt>
<pdfrwt beam="1">  1       21 0.14896697E+00 0.70616468E+03</pdfrwt>
<pdfrwt beam="2">  1       -1 0.27374734E-01 0.70616468E+03</pdfrwt>
<totfact> 0.28309989E+02</totfact>
</mgrwt>
</event>
<event>
 5    0  0.3188794E-002  0.6233785E+03  0.7546771E-02  0.9858056E-01
         21   -1    0    0  501  502  0.00000000000E+00  0.00000000000E+00  0.48615530016E+03  0.48615530016E+03  0.00000000000E+00 0. -1.
          2   -1    0    0  503    0 -0.00000000000E+00 -0.00000000000E+00 -0.82985470515E+03  0.82985470515E+03  0.00000000000E+00 0. -1.
         25    1    1    2    0    0 -0.21507277713E+03 -0.47099201233E+03  0.14288879690E+03  0.55148162564E+03  0.12500000000E+03 0.  0.
         21    1    1    2  503  502  0.40466193522E+01 -0.33325902733E+02 -0.68535138217E+02  0.76315503612E+02  0.00000000000E+00 0. -1.
          2    1    1    2  501    0  0.21102615778E+03  0.50431791507E+03 -0.41805306367E+03  0.68821287605E+03  0.00000000000E+00 0. -1.
<mgrwt>
<rscale>  4 0.62337851E+03</rscale>
<asrwt>0</asrwt>
<pdfrwt beam="1">  1       21 0.74793124E-01 0.62337851E+03</pdfrwt>
<pdfrwt beam="2">  1        2 0.12766995E+00 0.62337851E+03</pdfrwt>
<totfact> 0.59371536E+02</totfact>
</mgrwt>
</event>
<event>
 5    0  0.3188794E-002  0.6735328E+03  0.7546771E-02  0.9763597E-01
          1   -1    0    0  502    0 -0.00000000000E+00  0.00000000000E+00  0.14745438603E+04  0.14745438603E+04  0.00000000000E+00 0. -1.
         21   -1    0    0  503  502  0.00000000000E+00 -0.00000000000E+00 -0.12012919950E+03  0.12012919950E+03  0.00000000000E+00 0.  1.
         25    1    1    2    0    0 -0.79882451589E+02  0.30409532845E+03  0.92734091668E+03  0.98713795926E+03  0.12500000000E+03 0.  0.
         21    1    1    2  503  501  0.18868395509E+03 -0.17956546364E+03  0.20960081618E+03  0.33433200981E+03  0.00000000000E+00 0.  1.
          1    1    1    2  501    0 -0.10880150350E+03 -0.12452986481E+03  0.21747292790E+03  0.27320309069E+03  0.00000000000E+00 0. -1.
<mgrwt>
<rscale>  4 0.67353276E+03</rscale>
<asrwt>0</asrwt>
<pdfrwt beam="1">  1       21 0.18481416E-01 0.67353276E+03</pdfrwt>
<pdfrwt beam="2">  1        1 0.22685289E+00 0.67353276E+03</pdfrwt>
<totfact> 0.19861083E+03</totfact>
</mgrwt>
</event>
<event>
 5    0  0.3188794E-002  0.5086306E+03  0.7546771E-02  0.1011550E+00
         21   -1    0    0  503  502  0.00000000000E+00  0.00000000000E+00  0.14966645055E+03  0.14966645055E+03  0.00000000000E+00 0. -1.
         -2   -1    0    0    0  501 -0.00000000000E+00 -0.00000000000E+00 -0.50254734020E+03  0.50254734020E+03  0.00000000000E+00 0.  1.
         25    1    1    2    0    0 -0.23195237603E+03 -0.48833188809E+01 -0.25228887212E+03  0.36482931152E+03  0.12500000000E+03 0.  0.
         21    1    1    2  503  501  0.22969088614E+03  0.39244279001E+02 -0.98200359599E+02  0.25286622399E+03  0.00000000000E+00 0. -1.
         -2    1    1    2    0  502  0.22614898846E+01 -0.34360960120E+02 -0.23916579374E+01  0.34518255236E+02  0.00000000000E+00 0.  1.
<mgrwt>
<rscale>  4 0.50863059E+03</rscale>
<asrwt>0</asrwt>
<pdfrwt beam="1">  1       21 0.23025608E-01 0.50863059E+03</pdfrwt>
<pdfrwt beam="2">  1       -2 0.77314974E-01 0.50863059E+03</pdfrwt>
<totfact> 0.21189511E+03</totfact>
</mgrwt>
</event>
<event>
 5    0  0.3188794E-002  0.5738646E+03  0.7546771E-02  0.9961163E-01
         -1   -1    0    0    0  501 -0.00000000000E+00  0.00000000000E+00  0.47812030275E+03  0.47812030275E+03  0.00000000000E+00 0. -1.
         21   -1    0    0  503  502  0.00000000000E+00 -0.00000000000E+00 -0.67605401644E+03  0.67605401644E+03  0.00000000000E+00 0. -1.
         25    1    1    2    0    0  0.27899848735E+03 -0.38255306313E+02  0.61995906486E+02  0.31428031568E+03  0.12500000000E+03 0.  0.
         21    1    1    2  503  501 -0.22408437187E+03  0.60067046295E+02  0.24156754044E+03  0.33492795100E+03  0.00000000000E+00 0. -1.
         -1    1    1    2    0  502 -0.54914115478E+02 -0.21811739982E+02 -0.50149716061E+03  0.50496605251E+03  0.00000000000E+00 0. -1.
<mgrwt>
<rscale>  4 0.57386462E+03</rscale>
<asrwt>0</asrwt>
<pdfrwt beam="1">  1       21 0.10400831E+00 0.57386462E+03</pdfrwt>
<pdfrwt beam="2">  1       -1 0.73556970E-01 0.57386462E+03</pdfrwt>
<totfact> 0.11693437E+02</totfact>
</mgrwt>
</event>
<event>
 5    0  0.3188794E-002  0.4781321E+03  0.7546771E-02  0.1019650E+00
         21   -1    0    0  501  502  0.00000000000E+00  0.00000000000E+00  0.43307035374E+03  0.43307035374E+03  0.00000000000E+00 0.  1.
          1   -1    0    0  503    0 -0.00000000000E+00 -0.00000000000E+00 -0.31783719865E+03  0.31783719865E+03  0.00000000000E+00 0. -1.
         25    1    1    2    0    0 -0.28597669455E+03 -0.72025600781E+02 -0.56477071976E+02  0.32524608630E+03  0.12500000000E+03 0.  0.
         21    1    1    2  503  502  0.23051122627E+02  0.93359290274E+02  0.12509469805E+03  0.15778464695E+03  0.00000000000E+00 0.  1.
          1    1    1    2  501    0  0.26292557193E+03 -0.21333689493E+02  0.46615529021E+02  0.26787681913E+03  0.00000000000E+00 0. -1.
<mgrwt>
<rscale>  4 0.47813211E+03</rscale>
<asrwt>0</asrwt>
<pdfrwt beam="1">  1       21 0.66626208E-01 0.47813211E+03</pdfrwt>
<pdfrwt beam="2">  1        1 0.48898030E-01 0.47813211E+03</pdfrwt>
<totfact> 0.17023068E+03</totfact>
</mgrwt>
</event>
<event>
 5    0  0.3188794E-002  0.5274513E+03  0.7546771E-02  0.1006852E+00
          4   -1    0    0  503    0 -0.00000000000E+00  0.00000000000E+00  0.12659697674E+04  0.12659697674E+04  0.00000000000E+00 0. -1.
         21   -1    0    0  501  502  0.00000000000E+00 -0.00000000000E+00 -0.77234823283E+02  0.77234823283E+02  0.00000000000E+00 0.  1.
         25    1    1    2    0    0 -0.47179971288E+02  0.22478281235E+03  0.49417575985E+03  0.55909564839E+03  0.12500000000E+03 0.  0.
         21    1    1    2  503  502  0.24626802262E+02 -0.25800681261E+03  0.69725060020E+03  0.74386315557E+03  0.00000000000E+00 0.  1.
          4    1    1    2  501    0  0.22553169026E+02  0.33224000255E+02 -0.26914159690E+01  0.40245786686E+02  0.00000000000E+00 0. -1.
<mgrwt>
<rscale>  4 0.52745130E+03</rscale>
<asrwt>0</asrwt>
<pdfrwt beam="1">  1       21 0.11882281E-01 0.52745130E+03</pdfrwt>
<pdfrwt beam="2">  1        4 0.19476456E+00 0.52745130E+03</pdfrwt>
<totfact> 0.38096940E+02</totfact>
</mgrwt>
</event>
<event>
 5    0  0.3188794E-002  0.6746273E+03  0.7546771E-02  0.9761634E-01
          1   -1    0    0  503    0 -0.00000000000E+00  0.00000000000E+00  0.12794581184E+04  0.12794581184E+04  0.00000000000E+00 0.  1.
         21   -1    0    0  501  502  0.00000000000E+00 -0.00000000000E+00 -0.27610137481E+03  0.27610137481E+03  0.00000000000E+00 0. -1.
         25    1    1    2    0    0 -0.21495579757E+03  0.22734657847E+03  0.24741958509E+03  0.41801185717E+03  0.12500000000E+03 0.  0.
         21    1    1    2  503  502  0.20672488732E+03 -0.14022038195E+03 -0.10587384795E+03  0.27130463732E+03  0.00000000000E+00 0. -1.
          1    1    1    2  501    0  0.82309102538E+01 -0.87126196523E+02  0.86181100641E+03  0.86624299868E+03  0.00000000000E+00 0.  1.
<mgrwt>
<rscale>  4 0.67462733E+03</rscale>
<asrwt>0</asrwt>
<pdfrwt beam="1">  1       21 0.42477135E-01 0.67462733E+03</pdfrwt>
<pdfrwt beam="2">  1        1 0.19683971E+00 0.67462733E+03</pdfrwt>
<totfact> 0.51752150E+02</totfact>
</mgrwt>
</event>
<event>
 5    0  0.3188794E-002  0.4104825E+03  0.7546771E-02  0.1040209E+00
         21   -1    0    0  501  502  0.00000000000E+00  0.00000000000E+00  0.37528101435E+02  0.37528101435E+02  0.00000000000E+00 0. -1.
          1   -1    0    0  503    0 -0.00000000000E+00 -0.00000000000E+00 -0.39756181669E+04  0.39756181669E+04  0.00000000000E+00 0. -1.
         25    1    1    2    0    0 -0.44104893132E+01 -0.24414275214E+03 -0.28247075417E+04  0.28379962706E+04  0.12500000000E+03 0.  0.
         21    1    1    2  503  502  0.69611661310E+02  0.11010024101E+03 -0.92883080001E+03  0.93792030659E+03  0.00000000000E+00 0.  1.
          1    1    1    2  501    0 -0.65201171997E+02  0.13404251112E+03 -0.18455172375E+03  0.23722969114E+03  0.00000000000E+00 0. -1.
<mgrwt>
<rscale>  4 0.41048254E+03</rscale>
<asrwt>0</asrwt>
<pdfrwt beam="1">  1       21 0.57735581E-02 0.41048254E+03</pdfrwt>
<pdfrwt beam="2">  1        1 0.61163314E+00 0.41048254E+03</pdfrwt>
<totfact> 0.28782290E+02</totfact>
</mgrwt>
</event>
<event>
 5    0  0.3188794E-002  0.5806522E+03  0.7546771E-02  0.9946380E-01
          1   -1    0    0  503    0 -0.00000000000E+00  0.00000000000E+00  0.10235443784E+04  0.10235443784E+04  0.00000000000E+00 0. -1.
         21   -1    0    0  501  502  0.00000000000E+00 -0.00000000000E+00 -0.12182915624E+04  0.12182915624E+04  0.00000000000E+00 0. -1.
         25    1    1    2    0    0  0.21104905539E+03 -0.37811882193E+02  0.92954600640E+03  0.96210821649E+03  0.12500000000E+03 0.  0.
         21    1    1    2  503  502 -0.14158629376E+03  0.14455728498E+02  0.10370720105E+02  0.14269967940E+03  0.00000000000E+00 0.  1.
          1    1    1    2  501    0 -0.69462761630E+02  0.23356153695E+02 -0.11346639105E+04  0.11370280449E+04  0.00000000000E+00 0. -1.
<mgrwt>
<rscale>  4 0.58065225E+03</rscale>
<asrwt>0</asrwt>
<pdfrwt beam="1">  1       21 0.18742947E+00 0.58065225E+03</pdfrwt>
<pdfrwt beam="2">  1        1 0.15746837E+00 0.58065225E+03</pdfrwt>
<totfact> 0.22011568E+01</totfact>
</mgrwt>
</event>
<event>
 5    0  0.3188794E-002  0.4175525E+03  0.7546771E-02  0.1037866E+00
         21   -1    0    0  501  502  0.00000000000E+00  0.00000000000E+00  0.14322604109E+04  0.14322604109E+04  0.00000000000E+00 0.  1.
         -1   -1    0    0    0  501 -0.00000000000E+00 -0.00000000000E+00 -0.77473859846E+02  0.77473859846E+02  0.00000000000E+00 0.  1.
         25    1    1    2    0    0 -0.23707164023E+03  0.21739588880E+02  0.29377344452E+03  0.39825043507E+03  0.12500000000E+03 0.  0.
         21    1    1    2  503  502 -0.81253284354E+00  0.35024276111E+02  0.47761783484E+03  0.47890098797E+03  0.00000000000E+00 0. -1.
         -1    1    1    2    0  503  0.23788417308E+03 -0.56763864991E+02  0.58339527165E+03  0.63258284766E+03  0.00000000000E+00 0.  1.
<mgrwt>
<rscale>  4 0.41755253E+03</rscale>
<asrwt>0</asrwt>
<pdfrwt beam="1">  1       21 0.22034774E+00 0.41755253E+03</pdfrwt>
<pdfrwt beam="2">  1       -1 0.11919056E-01 0.41755253E+03</pdfrwt>
<totfact> 0.37238311E+02</totfact>
</mgrwt>
</event>
<event>
 5    0  0.3188794E-002  0.8417395E+03  0.7546771E-02  0.9501491E-01
         21   -1    0    0  503  502  0.00000000000E+00  0.00000000000E+00  0.15917385002E+04  0.15917385002E+04  0.00000000000E+00 0.  1.
         -3   -1    0    0    0  501 -0.00000000000E+00 -0.00000000000E+00 -0.15554069391E+03  0.15554069391E+03  0.00000000000E+00 0. -1.
         25    1    1    2    0    0 -0.29511325444E+03  0.14613704745E+03  0.18606636188E+03  0.39836360351E+03  0.12500000000E+03 0.  0.
         21    1    1    2  503  501  0.33315104069E+03 -0.21937112278E+03  0.83150862261E+03  0.92223635522E+03  0.00000000000E+00 0.  1.
         -3    1    1    2    0  502 -0.38037786255E+02  0.73234075328E+02  0.41862282178E+03  0.42667923536E+03  0.00000000000E+00 0. -1.
<mgrwt>
<rscale>  4 0.84173951E+03</rscale>
<asrwt>0</asrwt>
<pdfrwt beam="1">  1       21 0.24488283E+00 0.84173951E+03</pdfrwt>
<pdfrwt beam="2">  1       -3 0.23929339E-01 0.84173951E+03</pdfrwt>
<totfact> 0.46190109E+01</totfact>
</mgrwt>
</event>
<event>
 5    0  0.3188794E-002  0.4411143E+03  0.7546771E-02  0.1030405E+00
         -2   -1    0    0    0  501 -0.00000000000E+00  0.00000000000E+00  0.20171861368E+03  0.20171861368E+03  0.00000000000E+00 0. -1.
         21   -1    0    0  503  502  0.00000000000E+00 -0.00000000000E+00 -0.52951890668E+03  0.52951890668E+03  0.00000000000E+00 0. -1.
         25    1    1    2    0    0 -0.23857673340E+03  0.57450099163E+02 -0.36396906652E+02  0.27779328003E+03  0.12500000000E+03 0.  0.
         21    1    1    2  503  501  0.13881062243E+03  0.81059648178E+02 -0.73800280079E+02  0.17687717999E+03  0.00000000000E+00 0.  1.
         -2    1    1    2    0  502  0.99766110970E+02 -0.13850974734E+03 -0.21760310627E+03  0.27656706034E+03  0.00000000000E+00 0. -1.
<mgrwt>
<rscale>  4 0.44111428E+03</rscale>
<asrwt>0</asrwt>
<pdfrwt beam="1">  1       21 0.81464446E-01 0.44111428E+03</pdfrwt>
<pdfrwt beam="2">  1       -2 0.31033633E-01 0.44111428E+03</pdfrwt>
<totfact> 0.95330629E+02</totfact>
</mgrwt>
</event>
<event>
 5    0  0.3188794E-002  0.6287557E+03  0.7546771E-02  0.9847480E-01
          2   -1    0    0  503    0 -0.00000000000E+00  0.00000000000E+00  0.14139671089E+04  0.14139671089E+04  0.00000000000E+00 0. -1.
         21   -1    0    0  501  502  0.00000000000E+00 -0.00000000000E+00 -0.86666643741E+02  0.86666643741E+02  0.00000000000E+00 0.  1.
         25    1    1    2    0    0 -0.21120164894E+03  0.20279822969E+03  0.98642423248E+03  0.10365283522E+04  0.12500000000E+03 0.  0.
         21    1    1    2  503  502  0.15660072614E+03 -0.20482942679E+03  0.30174674189E+03  0.39690046328E+03  0.00000000000E+00 0.  1.
          2    1    1    2  501    0  0.54600922797E+02  0.20311971066E+01  0.39129490816E+02  0.67204937196E+02  0.00000000000E+00 0. -1.
<mgrwt>
<rscale>  4 0.62875568E+03</rscale>
<asrwt>0</asrwt>
<pdfrwt beam="1">  1       21 0.13333331E-01 0.62875568E+03</pdfrwt>
<pdfrwt beam="2">  1        2 0.21753338E+00 0.62875568E+03</pdfrwt>
<totfact> 0.86633353E+03</totfact>
</mgrwt>
</event>
<event>
 5    0  0.3188794E-002  0.4916084E+03  0.7546771E-02  0.1015993E+00
         21   -1    0    0  501  502  0.00000000000E+00  0.00000000000E+00  0.26086964133E+03  0.26086964133E+03  0.00000000000E+00 0.  1.
          2   -1    0    0  503    0 -0.00000000000E+00 -0.00000000000E+00 -0.79052377861E+03  0.79052377861E+03  0.00000000000E+00 0. -1.
         25    1    1    2    0    0 -0.76903693345E+02 -0.25702118881E+03 -0.34304490810E+03  0.45307712205E+03  0.12500000000E+03 0.  0.
         21    1    1    2  503  502 -0.58116114826E+02  0.17951112143E+03 -0.33420334541E+03  0.38378848550E+03  0.00000000000E+00 0. -1.
          2    1    1    2  501    0  0.13501980817E+03  0.77510067384E+02  0.14759411623E+03  0.21452781239E+03  0.00000000000E+00 0. -1.
<mgrwt>
<rscale>  4 0.49160843E+03</rscale>
<asrwt>0</asrwt>
<pdfrwt beam="1">  1       21 0.40133791E-01 0.49160843E+03</pdfrwt>
<pdfrwt beam="2">  1        2 0.12161904E+00 0.49160843E+03</pdfrwt>
<totfact> 0.25080981E+03</totfact>
</mgrwt>
</event>
<event>
 5    0  0.3188794E-002  0.4954305E+03  0.7546771E-02  0.1014979E+00
         21   -1    0    0  501  502  0.00000000000E+00  0.00000000000E+00  0.31621750405E+03  0.31621750405E+03  0.00000000000E+00 0.  1.
          4   -1    0    0  503    0 -0.00000000000E+00 -0.00000000000E+00 -0.54675529018E+03  0.54675529018E+03  0.00000000000E+00 0.  1.
         25    1    1    2    0    0  0.28774253922E+03 -0.15994176654E+03 -0.31764376008E+03  0.47423590741E+03  0.12500000000E+03 0.  0.
         21    1    1    2  503  502 -0.10860754460E+03 -0.31535036257E+02  0.21626552525E+01  0.11311381142E+03  0.00000000000E+00 0. -1.
          4    1    1    2  501    0 -0.17913499462E+03  0.19147680280E+03  0.84943318699E+02  0.27562307541E+03  0.00000000000E+00 0.  1.
<mgrwt>
<rscale>  4 0.49543048E+03</rscale>
<asrwt>0</asrwt>
<pdfrwt beam="1">  1       21 0.48648847E-01 0.49543048E+03</pdfrwt>
<pdfrwt beam="2">  1        4 0.84116197E-01 0.49543048E+03</pdfrwt>
<totfact> 0.20758812E+02</totfact>
</mgrwt>
</event>
<event>
 5    0  0.3188794E-002  0.6370068E+03  0.7546771E-02  0.9831470E-01
          2   -1    0    0  503    0 -0.00000000000E+00  0.00000000000E+00  0.93481163390E+03  0.93481163390E+03  0.00000000000E+00 0.  1.
         21   -1    0    0  501  502  0.00000000000E+00 -0.00000000000E+00 -0.14816814970E+03  0.14816814970E+03  0.00000000000E+00 0. -1.
         25    1    1    2    0    0 -0.22725641955E+03 -0.26122784673E+03  0.50444092623E+03  0.62447667386E+03  0.12500000000E+03 0.  0.
         21    1    1    2  503  502  0.19483198319E+03  0.17655110352E+03  0.24848061612E+03  0.36176292018E+03  0.00000000000E+00 0.  1.
          2    1    1    2  501    0  0.32424436363E+02  0.84676743207E+02  0.33721941836E+02  0.96740189553E+02  0.00000000000E+00 0.  1.
<mgrwt>
<rscale>  4 0.63700682E+03</rscale>
<asrwt>0</asrwt>
<pdfrwt beam="1">  1       21 0.22795101E-01 0.63700682E+03</pdfrwt>
<pdfrwt beam="2">  1        2 0.14381717E+00 0.63700682E+03</pdfrwt>
<totfact> 0.60658551E+03</totfact>
</mgrwt>
</event>
<event>
 5    0  0.4211352E-002  0.6522288E+03  0.7546771E-02  0.9802606E-01
         21   -1    0    0  503  502  0.00000000000E+00  0.00000000000E+00  0.96330002051E+03  0.96330002051E+03  0.00000000000E+00 0. -1.
          1   -1    0    0  502    0 -0.00000000000E+00 -0.00000000000E+00 -0.54239281324E+03  0.54239281324E+03  0.00000000000E+00 0. -1.
         25    1    1    2    0    0  0.15583138424E+03 -0.12970196733E+03  0.46439228740E+03  0.52191112005E+03  0.12500000000E+03 0.  0.
         21    1    1    2  503  501  0.29144053731E+03 -0.19351858238E+03  0.17389341233E+03  0.39067370959E+03  0.00000000000E+00 0. -1.
          1    1    1    2  501    0 -0.44727192154E+03  0.32322054971E+03 -0.21737849245E+03  0.59310800411E+03  0.00000000000E+00 0. -1.
<mgrwt>
<rscale>  4 0.65222882E+03</rscale>
<asrwt>0</asrwt>
<pdfrwt beam="1">  1       21 0.14820000E+00 0.65222882E+03</pdfrwt>
<pdfrwt beam="2">  1        1 0.83445048E-01 0.65222882E+03</pdfrwt>
<totfact> 0.11361105E+02</totfact>
</mgrwt>
</event>
<event>
 5    0  0.3188794E-002  0.6286948E+03  0.7546771E-02  0.9847599E-01
         21   -1    0    0  501  502  0.00000000000E+00  0.00000000000E+00  0.10846520819E+03  0.10846520819E+03  0.00000000000E+00 0. -1.
          2   -1    0    0  503    0 -0.00000000000E+00 -0.00000000000E+00 -0.14468878489E+04  0.14468878489E+04  0.00000000000E+00 0. -1.
         25    1    1    2    0    0 -0.25076411413E+03 -0.26314574230E+02 -0.30983344233E+03  0.41856523952E+03  0.12500000000E+03 0.  0.
         21    1    1    2  503  502  0.24201605267E+03  0.47145239602E+02 -0.10654205116E+04  0.10935791283E+04  0.00000000000E+00 0. -1.
          2    1    1    2  501    0  0.87480614552E+01 -0.20830665372E+02  0.36831313178E+02  0.43208689282E+02  0.00000000000E+00 0. -1.
<mgrwt>
<rscale>  4 0.62869480E+03</rscale>
<asrwt>0</asrwt>
<pdfrwt beam="1">  1       21 0.16686957E-01 0.62869480E+03</pdfrwt>
<pdfrwt beam="2">  1        2 0.22259811E+00 0.62869480E+03</pdfrwt>
<totfact> 0.54625553E+03</totfact>
</mgrwt>
</event>
<event>
 5    0  0.3188794E-002  0.4017017E+03  0.7546771E-02  0.1043192E+00
         21   -1    0    0  503  502  0.00000000000E+00  0.00000000000E+00  0.64806238232E+03  0.64806238232E+03  0.00000000000E+00 0. -1.
         -4   -1    0    0    0  501 -0.00000000000E+00 -0.00000000000E+00 -0.96317892633E+02  0.96317892633E+02  0.00000000000E+00 0.  1.
         25    1    1    2    0    0 -0.61500062075E+02  0.19057462478E+03  0.19947834888E+03  0.30905914793E+03  0.12500000000E+03 0.  0.
         21    1    1    2  503  501  0.37739097605E+02 -0.16120906419E+03  0.13174400509E+03  0.21158706185E+03  0.00000000000E+00 0.  1.
         -4    1    1    2    0  502  0.23760964470E+02 -0.29365560595E+02  0.22052213571E+03  0.22373406518E+03  0.00000000000E+00 0.  1.
<mgrwt>
<rscale>  4 0.40170167E+03</rscale>
<asrwt>0</asrwt>
<pdfrwt beam="1">  1       21 0.99701902E-01 0.40170167E+03</pdfrwt>
<pdfrwt beam="2">  1       -4 0.14818138E-01 0.40170167E+03</pdfrwt>
<totfact> 0.13250314E+03</totfact>
</mgrwt>
</event>
<event>
 5    0  0.3188794E-002  0.5040943E+03  0.7546771E-02  0.1012716E+00
         21   -1    0    0  503  502  0.00000000000E+00  0.00000000000E+00  0.55270438916E+03  0.55270438916E+03  0.00000000000E+00 0. -1.
         -4   -1    0    0    0  501 -0.00000000000E+00 -0.00000000000E+00 -0.16547585399E+03  0.16547585399E+03  0.00000000000E+00 0.  1.
         25    1    1    2    0    0  0.20539468702E+03 -0.23754304307E+02  0.16264671427E+03  0.29125624129E+03  0.12500000000E+03 0.  0.
         21    1    1    2  503  501 -0.25477308270E+03  0.35545202766E+00  0.71848428122E+02  0.26471049590E+03  0.00000000000E+00 0. -1.
         -4    1    1    2    0  502  0.49378395681E+02  0.23398852279E+02  0.15273339278E+03  0.16221350596E+03  0.00000000000E+00 0.  1.
<mgrwt>
<rscale>  4 0.50409428E+03</rscale>
<asrwt>0</asrwt>
<pdfrwt beam="1">  1       21 0.85031444E-01 0.50409428E+03</pdfrwt>
<pdfrwt beam="2">  1       -4 0.25457824E-01 0.50409428E+03</pdfrwt>
<totfact> 0.71246363E+02</totfact>
</mgrwt>
</event>
<event>
 5    0  0.3188794E-002  0.6563730E+03  0.7546771E-02  0.9794894E-01
         21   -1    0    0  501  502  0.00000000000E+00  0.00000000000E+00  0.34392365895E+03  0.34392365895E+03  0.00000000000E+00 0. -1.
          2   -1    0    0  503    0 -0.00000000000E+00 -0.00000000000E+00 -0.72787135424E+03  0.72787135424E+03  0.00000000000E+00 0. -1.
         25    1    1    2    0    0 -0.23616318857E+03 -0.27454788388E+02 -0.16825882582E+02  0.26913737638E+03  0.12500000000E+03 0.  0.
         21    1    1    2  503  502  0.22239948448E+03  0.42278807727E+02 -0.56244237476E+03  0.60629238261E+03  0.00000000000E+00 0. -1.
          2    1    1    2  501    0  0.13763704086E+02 -0.14824019339E+02  0.19532056205E+03  0.19636525421E+03  0.00000000000E+00 0. -1.
<mgrwt>
<rscale>  4 0.65637303E+03</rscale>
<asrwt>0</asrwt>
<pdfrwt beam="1">  1       21 0.52911333E-01 0.65637303E+03</pdfrwt>
<pdfrwt beam="2">  1        2 0.11198021E+00 0.65637303E+03</pdfrwt>
<totfact> 0.15146798E+03</totfact>
</mgrwt>
</event>
<event>
 5    0  0.3188794E-002  0.6461811E+03  0.7546771E-02  0.9813972E-01
          2   -1    0    0  503    0 -0.00000000000E+00  0.00000000000E+00  0.25781108847E+04  0.25781108847E+04  0.00000000000E+00 0. -1.
         21   -1    0    0  501  502  0.00000000000E+00 -0.00000000000E+00 -0.17837807530E+03  0.17837807530E+03  0.00000000000E+00 0. -1.
         25    1    1    2    0    0  0.29773780730E+03  0.84246821874E+02  0.14980861252E+04  0.15348069479E+04  0.12500000000E+03 0.  0.
         21    1    1    2  503  502 -0.28798739180E+03 -0.10497098656E+03  0.10385687301E+04  0.10828576328E+04  0.00000000000E+00 0. -1.
          2    1    1    2  501    0 -0.97504154986E+01  0.20724164687E+02 -0.13692204592E+03  0.13882437921E+03  0.00000000000E+00 0. -1.
<mgrwt>
<rscale>  4 0.64618109E+03</rscale>
<asrwt>0</asrwt>
<pdfrwt beam="1">  1       21 0.27442783E-01 0.64618109E+03</pdfrwt>
<pdfrwt beam="2">  1        2 0.39663242E+00 0.64618109E+03</pdfrwt>
<totfact> 0.49782789E+02</totfact>
</mgrwt>
</event>
<event>
 5    0  0.3188794E-002  0.8747011E+03  0.7546771E-02  0.9457771E-01
          2   -1    0    0  503    0 -0.00000000000E+00  0.00000000000E+00  0.49885717642E+03  0.49885717642E+03  0.00000000000E+00 0.  1.
         21   -1    0    0  501  502  0.00000000000E+00 -0.00000000000E+00 -0.79761276836E+03  0.79761276836E+03  0.00000000000E+00 0.  1.
         25    1    1    2    0    0  0.14420138230E+03  0.36778312001E+03  0.15631278104E+03  0.44285115732E+03  0.12500000000E+03 0.  0.
         21    1    1    2  503  502 -0.36305743407E+03 -0.10272845727E+03 -0.21394431286E+03  0.43374647592E+03  0.00000000000E+00 0. -1.
          2    1    1    2  501    0  0.21885605177E+03 -0.26505466274E+03 -0.24112406012E+03  0.41987231155E+03  0.00000000000E+00 0.  1.
<mgrwt>
<rscale>  4 0.87470110E+03</rscale>
<asrwt>0</asrwt>
<pdfrwt beam="1">  1       21 0.12270966E+00 0.87470110E+03</pdfrwt>
<pdfrwt beam="2">  1        2 0.76747258E-01 0.87470110E+03</pdfrwt>
<totfact> 0.31984474E+02</totfact>
</mgrwt>
</event>
<event>
 5    0  0.3188794E-002  0.3614890E+03  0.7546771E-02  0.1057996E+00
         21   -1    0    0  501  502  0.00000000000E+00  0.00000000000E+00  0.32231164831E+03  0.32231164831E+03  0.00000000000E+00 0.  1.
          1   -1    0    0  503    0 -0.00000000000E+00 -0.00000000000E+00 -0.16831772437E+03  0.16831772437E+03  0.00000000000E+00 0. -1.
         25    1    1    2    0    0  0.18859062778E+03 -0.77572146712E+02  0.14649133935E+03  0.28047918878E+03  0.12500000000E+03 0.  0.
         21    1    1    2  503  502 -0.87538213022E+02  0.56685429228E+02 -0.12518099364E+02  0.10503751443E+03  0.00000000000E+00 0. -1.
          1    1    1    2  501    0 -0.10105241476E+03  0.20886717483E+02  0.20020683952E+02  0.10511266946E+03  0.00000000000E+00 0. -1.
<mgrwt>
<rscale>  4 0.36148900E+03</rscale>
<asrwt>0</asrwt>
<pdfrwt beam="1">  1       21 0.49586407E-01 0.36148900E+03</pdfrwt>
<pdfrwt beam="2">  1        1 0.25895035E-01 0.36148900E+03</pdfrwt>
<totfact> 0.74344793E+03</totfact>
</mgrwt>
</event>
<event>
 5    0  0.3188794E-002  0.4215896E+03  0.7546771E-02  0.1036550E+00
          1   -1    0    0  503    0 -0.00000000000E+00  0.00000000000E+00  0.56788890385E+03  0.56788890385E+03  0.00000000000E+00 0.  1.
         21   -1    0    0  501  502  0.00000000000E+00 -0.00000000000E+00 -0.14372371872E+03  0.14372371872E+03  0.00000000000E+00 0. -1.
         25    1    1    2    0    0 -0.20696114601E+02  0.23402218077E+03  0.19466065006E+03  0.32971575476E+03  0.12500000000E+03 0.  0.
         21    1    1    2  503  502 -0.44020749019E+02 -0.13417337081E+03  0.22144443945E+03  0.26263655408E+03  0.00000000000E+00 0.  1.
          1    1    1    2  501    0  0.64716863619E+02 -0.99848809966E+02  0.80600956184E+01  0.11926031372E+03  0.00000000000E+00 0.  1.
<mgrwt>
<rscale>  4 0.42158963E+03</rscale>
<asrwt>0</asrwt>
<pdfrwt beam="1">  1       21 0.22111342E-01 0.42158963E+03</pdfrwt>
<pdfrwt beam="2">  1        1 0.87367523E-01 0.42158963E+03</pdfrwt>
<totfact> 0.77003992E+03</totfact>
</mgrwt>
</event>
<event>
 5    0  0.3188794E-002  0.7559659E+03  0.7546771E-02  0.9626037E-01
          2   -1    0    0  503    0 -0.00000000000E+00  0.00000000000E+00  0.79888120114E+03  0.79888120114E+03  0.00000000000E+00 0.  1.
         21   -1    0    0  501  502  0.00000000000E+00 -0.00000000000E+00 -0.26852850861E+03  0.26852850861E+03  0.00000000000E+00 0. -1.
         25    1    1    2    0    0 -0.20885965703E+03 -0.14452944855E+03 -0.31125555868E+02  0.28478925201E+03  0.12500000000E+03 0.  0.
         21    1    1    2  503  502  0.18810629701E+03  0.14621173981E+03  0.64968389420E+03  0.69199061714E+03  0.00000000000E+00 0.  1.
          2    1    1    2  501    0  0.20753360011E+02 -0.16822912637E+01 -0.88205645805E+02  0.90629840602E+02  0.00000000000E+00 0.  1.
<mgrwt>
<rscale>  4 0.75596593E+03</rscale>
<asrwt>0</asrwt>
<pdfrwt beam="1">  1       21 0.41312079E-01 0.75596593E+03</pdfrwt>
<pdfrwt beam="2">  1        2 0.12290480E+00 0.75596593E+03</pdfrwt>
<totfact> 0.22424327E+03</totfact>
</mgrwt>
</event>
<event>
 5    0  0.3188794E-002  0.5617479E+03  0.7546771E-02  0.9988107E-01
         -3   -1    0    0    0  501 -0.00000000000E+00  0.00000000000E+00  0.13752939824E+03  0.13752939824E+03  0.00000000000E+00 0. -1.
         21   -1    0    0  503  502  0.00000000000E+00 -0.00000000000E+00 -0.11751749368E+04  0.11751749368E+04  0.00000000000E+00 0. -1.
         25    1    1    2    0    0  0.39352060271E+02  0.32486766632E+03 -0.26148207121E+03  0.43713322778E+03  0.12500000000E+03 0.  0.
         21    1    1    2  503  501 -0.12503695948E+03 -0.10473464076E+03 -0.39217961734E+03  0.42474514531E+03  0.00000000000E+00 0. -1.
         -3    1    1    2    0  502  0.85684899204E+02 -0.22013302556E+03 -0.38398384998E+03  0.45082596191E+03  0.00000000000E+00 0. -1.
<mgrwt>
<rscale>  4 0.56174792E+03</rscale>
<asrwt>0</asrwt>
<pdfrwt beam="1">  1       21 0.18079614E+00 0.56174792E+03</pdfrwt>
<pdfrwt beam="2">  1       -3 0.21158370E-01 0.56174792E+03</pdfrwt>
<totfact> 0.16199919E+02</totfact>
</mgrwt>
</event>
<event>
 5    0  0.3188794E-002  0.3952943E+03  0.7546771E-02  0.1045421E+00
         -1   -1    0    0    0  501 -0.00000000000E+00  0.00000000000E+00  0.44554571287E+03  0.44554571287E+03  0.00000000000E+00 0. -1.
         21   -1    0    0  501  502  0.00000000000E+00 -0.00000000000E+00 -0.32561881148E+03  0.32561881148E+03  0.00000000000E+00 0.  1.
         25    1    1    2    0    0  0.18445331355E+03  0.85799257122E+02  0.27885152340E+03  0.36710721799E+03  0.12500000000E+03 0.  0.
         21    1    1    2  503  502  0.85572747261E+02 -0.46532977600E+02 -0.27645739305E+02  0.10125364181E+03  0.00000000000E+00 0.  1.
         -1    1    1    2    0  503 -0.27002606081E+03 -0.39266279523E+02 -0.13127888271E+03  0.30280366455E+03  0.00000000000E+00 0. -1.
<mgrwt>
<rscale>  4 0.39529426E+03</rscale>
<asrwt>0</asrwt>
<pdfrwt beam="1">  1       21 0.50095202E-01 0.39529426E+03</pdfrwt>
<pdfrwt beam="2">  1       -1 0.68545494E-01 0.39529426E+03</pdfrwt>
<totfact> 0.74159336E+02</totfact>
</mgrwt>
</event>
<event>
 5    0  0.3188794E-002  0.3638479E+03  0.7546771E-02  0.1057071E+00
         21   -1    0    0  503  502  0.00000000000E+00  0.00000000000E+00  0.16798808588E+02  0.16798808588E+02  0.00000000000E+00 0. -1.
          2   -1    0    0  502    0 -0.00000000000E+00 -0.00000000000E+00 -0.33770965508E+04  0.33770965508E+04  0.00000000000E+00 0.  1.
         25    1    1    2    0    0  0.36509731741E+01  0.21631387722E+03 -0.20420331515E+04  0.20572626023E+04  0.12500000000E+03 0.  0.
         21    1    1    2  503  501  0.20237438683E+02 -0.10877310496E+03 -0.67112503754E+03  0.68018376803E+03  0.00000000000E+00 0. -1.
          2    1    1    2  501    0 -0.23888411857E+02 -0.10754077226E+03 -0.64713955326E+03  0.65644898912E+03  0.00000000000E+00 0.  1.
<mgrwt>
<rscale>  4 0.36384787E+03</rscale>
<asrwt>0</asrwt>
<pdfrwt beam="1">  1       21 0.25844309E-02 0.36384787E+03</pdfrwt>
<pdfrwt beam="2">  1        2 0.51955356E+00 0.36384787E+03</pdfrwt>
<totfact> 0.12241595E+04</totfact>
</mgrwt>
</event>
<event>
 5    0  0.3188794E-002  0.7529035E+03  0.7546771E-02  0.9630806E-01
         21   -1    0    0  503  502  0.00000000000E+00  0.00000000000E+00  0.79845812587E+03  0.79845812587E+03  0.00000000000E+00 0.  1.
         -2   -1    0    0    0  501 -0.00000000000E+00 -0.00000000000E+00 -0.47743038146E+03  0.47743038146E+03  0.00000000000E+00 0. -1.
         25    1    1    2    0    0 -0.33591210168E+03 -0.25282461561E+03  0.53512674027E+03  0.69191246157E+03  0.12500000000E+03 0.  0.
         21    1    1    2  503  501  0.11080919198E+03 -0.74869492979E+02 -0.10961372793E+03  0.17291410398E+03  0.00000000000E+00 0. -1.
         -2    1    1    2    0  502  0.22510290970E+03  0.32769410859E+03 -0.10448526794E+03  0.41106194178E+03  0.00000000000E+00 0. -1.
<mgrwt>
<rscale>  4 0.75290349E+03</rscale>
<asrwt>0</asrwt>
<pdfrwt beam="1">  1       21 0.12283971E+00 0.75290349E+03</pdfrwt>
<pdfrwt beam="2">  1       -2 0.73450828E-01 0.75290349E+03</pdfrwt>
<totfact> 0.58093119E+01</totfact>
</mgrwt>
</event>
<event>
 5    0  0.3188794E-002  0.4284922E+03  0.7546771E-02  0.1034337E+00
         21   -1    0    0  501  502  0.00000000000E+00  0.00000000000E+00  0.28974591195E+03  0.28974591195E+03  0.00000000000E+00 0. -1.
          1   -1    0    0  503    0 -0.00000000000E+00 -0.00000000000E+00 -0.45096936609E+03  0.45096936609E+03  0.00000000000E+00 0. -1.
         25    1    1    2    0    0 -0.21194101808E+03  0.10037310636E+03 -0.25764482630E+03  0.37013458653E+03  0.12500000000E+03 0.  0.
         21    1    1    2  503  502  0.10839036948E+03 -0.11056720216E+03 -0.73452008834E+02  0.17137320675E+03  0.00000000000E+00 0.  1.
          1    1    1    2  501    0  0.10355064859E+03  0.10194095800E+02  0.16987338100E+03  0.19920748476E+03  0.00000000000E+00 0. -1.
<mgrwt>
<rscale>  4 0.42849221E+03</rscale>
<asrwt>0</asrwt>
<pdfrwt beam="1">  1       21 0.44576294E-01 0.42849221E+03</pdfrwt>
<pdfrwt beam="2">  1        1 0.69379902E-01 0.42849221E+03</pdfrwt>
<totfact> 0.25921395E+03</totfact>
</mgrwt>
</event>
<event>
 5    0  0.3188794E-002  0.5397934E+03  0.7546771E-02  0.1003884E+00
         21   -1    0    0  503  502  0.00000000000E+00  0.00000000000E+00  0.81821035528E+03  0.81821035528E+03  0.00000000000E+00 0.  1.
         -1   -1    0    0    0  501 -0.00000000000E+00 -0.00000000000E+00 -0.11057032320E+03  0.11057032320E+03  0.00000000000E+00 0. -1.
         25    1    1    2    0    0 -0.21656190303E+03  0.48539216600E+02  0.55074639511E+03  0.60679626327E+03  0.12500000000E+03 0.  0.
         21    1    1    2  503  501  0.18882888610E+03 -0.31332167045E+01  0.39280650626E+02  0.19289669460E+03  0.00000000000E+00 0. -1.
         -1    1    1    2    0  502  0.27733016929E+02 -0.45405999895E+02  0.11761298635E+03  0.12908772061E+03  0.00000000000E+00 0. -1.
<mgrwt>
<rscale>  4 0.53979340E+03</rscale>
<asrwt>0</asrwt>
<pdfrwt beam="1">  1       21 0.12587851E+00 0.53979340E+03</pdfrwt>
<pdfrwt beam="2">  1       -1 0.17010819E-01 0.53979340E+03</pdfrwt>
<totfact> 0.10117750E+03</totfact>
</mgrwt>
</event>
<event>
 5    0  0.3188794E-002  0.4589062E+03  0.7546771E-02  0.1025099E+00
          2   -1    0    0  503    0 -0.00000000000E+00  0.00000000000E+00  0.40976309613E+04  0.40976309613E+04  0.00000000000E+00 0.  1.
         21   -1    0    0  501  502  0.00000000000E+00 -0.00000000000E+00 -0.29892118657E+02  0.29892118657E+02  0.00000000000E+00 0. -1.
         25    1    1    2    0    0 -0.12586877538E+03 -0.17677380380E+03  0.18258048589E+04  0.18428999726E+04  0.12500000000E+03 0.  0.
         21    1    1    2  503  502 -0.75772378499E+02  0.19420273222E+03  0.15415862739E+04  0.15556170462E+04  0.00000000000E+00 0.  1.
          2    1    1    2  501    0  0.20164115388E+03 -0.17428928425E+02  0.70034770986E+03  0.72900606115E+03  0.00000000000E+00 0.  1.
<mgrwt>
<rscale>  4 0.45890618E+03</rscale>
<asrwt>0</asrwt>
<pdfrwt beam="1">  1       21 0.45987907E-02 0.45890618E+03</pdfrwt>
<pdfrwt beam="2">  1        2 0.63040432E+00 0.45890618E+03</pdfrwt>
<totfact> 0.13590789E+03</totfact>
</mgrwt>
</event>
<event>
 5    0  0.3188794E-002  0.4989494E+03  0.7546771E-02  0.1014054E+00
          1   -1    0    0  503    0 -0.00000000000E+00  0.00000000000E+00  0.23557595592E+04  0.23557595592E+04  0.00000000000E+00 0.  1.
         21   -1    0    0  501  502  0.00000000000E+00 -0.00000000000E+00 -0.10069049822E+03  0.10069049822E+03  0.00000000000E+00 0.  1.
         25    1    1    2    0    0 -0.21510851529E+03 -0.19752885140E+03  0.49670942716E+03  0.58960544054E+03  0.12500000000E+03 0.  0.
         21    1    1    2  503  502 -0.61650018318E+02 -0.16094526758E+03  0.42226361018E+03  0.45608185713E+03  0.00000000000E+00 0.  1.
          1    1    1    2  501    0  0.27675853361E+03  0.35847411898E+03  0.13360960236E+04  0.14107627598E+04  0.00000000000E+00 0.  1.
<mgrwt>
<rscale>  4 0.49894938E+03</rscale>
<asrwt>0</asrwt>
<pdfrwt beam="1">  1       21 0.15490848E-01 0.49894938E+03</pdfrwt>
<pdfrwt beam="2">  1        1 0.36242451E+00 0.49894938E+03</pdfrwt>
<totfact> 0.73920058E+02</totfact>
</mgrwt>
</event>
<event>
 5    0  0.3188794E-002  0.4381244E+03  0.7546771E-02  0.1031324E+00
         -1   -1    0    0    0  501 -0.00000000000E+00  0.00000000000E+00  0.34936404632E+03  0.34936404632E+03  0.00000000000E+00 0.  1.
         21   -1    0    0  503  502  0.00000000000E+00 -0.00000000000E+00 -0.33362776093E+03  0.33362776093E+03  0.00000000000E+00 0. -1.
         25    1    1    2    0    0 -0.16595590340E+03 -0.13363303019E+03  0.23260454110E+03  0.33930667717E+03  0.12500000000E+03 0.  0.
         21    1    1    2  503  501  0.12557405952E+03  0.18783020653E+02 -0.48511691448E+02  0.13592288437E+03  0.00000000000E+00 0. -1.
         -1    1    1    2    0  502  0.40381843875E+02  0.11485000954E+03 -0.16835656427E+03  0.20776224570E+03  0.00000000000E+00 0.  1.
<mgrwt>
<rscale>  4 0.43812436E+03</rscale>
<asrwt>0</asrwt>
<pdfrwt beam="1">  1       21 0.51327348E-01 0.43812436E+03</pdfrwt>
<pdfrwt beam="2">  1       -1 0.53748315E-01 0.43812436E+03</pdfrwt>
<totfact> 0.11229100E+03</totfact>
</mgrwt>
</event>
<event>
 5    0  0.3188794E-002  0.2730757E+03  0.7546771E-02  0.1099532E+00
          2   -1    0    0  503    0 -0.00000000000E+00  0.00000000000E+00  0.19289668235E+04  0.19289668235E+04  0.00000000000E+00 0.  1.
         21   -1    0    0  501  502  0.00000000000E+00 -0.00000000000E+00 -0.44307908165E+02  0.44307908165E+02  0.00000000000E+00 0.  1.
         25    1    1    2    0    0 -0.11094561505E+02  0.21015855279E+03  0.15093774184E+04  0.15290961048E+04  0.12500000000E+03 0.  0.
         21    1    1    2  503  502  0.22886107564E+02 -0.76716573138E-01  0.68100738818E+02  0.71843513503E+02  0.00000000000E+00 0. -1.
          2    1    1    2  501    0 -0.11791546059E+02 -0.21008183622E+03  0.30718075812E+03  0.37233511334E+03  0.00000000000E+00 0.  1.
<mgrwt>
<rscale>  4 0.27307568E+03</rscale>
<asrwt>0</asrwt>
<pdfrwt beam="1">  1       21 0.68166027E-02 0.27307568E+03</pdfrwt>
<pdfrwt beam="2">  1        2 0.29676406E+00 0.27307568E+03</pdfrwt>
<totfact> 0.16192560E+04</totfact>
</mgrwt>
</event>
<event>
 5    0  0.3188794E-002  0.6946593E+03  0.7546771E-02  0.9726409E-01
         21   -1    0    0  501  502  0.00000000000E+00  0.00000000000E+00  0.53724562373E+03  0.53724562373E+03  0.00000000000E+00 0. -1.
          2   -1    0    0  503    0 -0.00000000000E+00 -0.00000000000E+00 -0.95949500174E+03  0.95949500174E+03  0.00000000000E+00 0.  1.
         25    1    1    2    0    0  0.30268211375E+03  0.13201935081E+02 -0.30764958247E+03  0.44951531527E+03  0.12500000000E+03 0.  0.
         21    1    1    2  503  502  0.23298433106E+03 -0.27838117576E+03 -0.24174535531E+03  0.43614056719E+03  0.00000000000E+00 0. -1.
          2    1    1    2  501    0 -0.53566644480E+03  0.26517924068E+03  0.12714555977E+03  0.61108474301E+03  0.00000000000E+00 0.  1.
<mgrwt>
<rscale>  4 0.69465930E+03</rscale>
<asrwt>0</asrwt>
<pdfrwt beam="1">  1       21 0.82653173E-01 0.69465930E+03</pdfrwt>
<pdfrwt beam="2">  1        2 0.14761461E+00 0.69465930E+03</pdfrwt>
<totfact> 0.37993185E+02</totfact>
</mgrwt>
</event>
<event>
 5    0  0.3188794E-002  0.4355306E+03  0.7546771E-02  0.1032127E+00
          1   -1    0    0  502    0 -0.00000000000E+00  0.00000000000E+00  0.32390499021E+04  0.32390499021E+04  0.00000000000E+00 0. -1.
         21   -1    0    0  503  502  0.00000000000E+00 -0.00000000000E+00 -0.32188715340E+02  0.32188715340E+02  0.00000000000E+00 0. -1.
         25    1    1    2    0    0  0.20542007216E+03  0.10649964072E+03  0.18965722389E+04  0.19147195191E+04  0.12500000000E+03 0.  0.
         21    1    1    2  503  501  0.44623510246E+01 -0.10968833668E+03  0.21618045622E+03  0.24245707544E+03  0.00000000000E+00 0.  1.
          1    1    1    2  501    0 -0.20988242318E+03  0.31886959657E+01  0.10941084916E+04  0.11140620228E+04  0.00000000000E+00 0. -1.
<mgrwt>
<rscale>  4 0.43553061E+03</rscale>
<asrwt>0</asrwt>
<pdfrwt beam="1">  1       21 0.49521126E-02 0.43553061E+03</pdfrwt>
<pdfrwt beam="2">  1        1 0.49831511E+00 0.43553061E+03</pdfrwt>
<totfact> 0.14034271E+03</totfact>
</mgrwt>
</event>
<event>
 5    0  0.3188794E-002  0.5481219E+03  0.7546771E-02  0.1001930E+00
          1   -1    0    0  503    0 -0.00000000000E+00  0.00000000000E+00  0.37494397581E+03  0.37494397581E+03  0.00000000000E+00 0. -1.
         21   -1    0    0  501  502  0.00000000000E+00 -0.00000000000E+00 -0.42204987304E+03  0.42204987304E+03  0.00000000000E+00 0.  1.
         25    1    1    2    0    0  0.29133351230E+03  0.66938515888E+02 -0.49100590400E+01  0.32404488729E+03  0.12500000000E+03 0.  0.
         21    1    1    2  503  502 -0.19176581092E+03  0.43600012503E+02  0.13727679185E+03  0.23983328566E+03  0.00000000000E+00 0. -1.
          1    1    1    2  501    0 -0.99567701382E+02 -0.11053852839E+03 -0.17947263004E+03  0.23311567590E+03  0.00000000000E+00 0. -1.
<mgrwt>
<rscale>  4 0.54812192E+03</rscale>
<asrwt>0</asrwt>
<pdfrwt beam="1">  1       21 0.64930750E-01 0.54812192E+03</pdfrwt>
<pdfrwt beam="2">  1        1 0.57683689E-01 0.54812192E+03</pdfrwt>
<totfact> 0.14383990E+03</totfact>
</mgrwt>
</event>
<event>
 5    0  0.3188794E-002  0.4715060E+03  0.7546771E-02  0.1021496E+00
         21   -1    0    0  501  502  0.00000000000E+00  0.00000000000E+00  0.23419096907E+03  0.23419096907E+03  0.00000000000E+00 0.  1.
          2   -1    0    0  503    0 -0.00000000000E+00 -0.00000000000E+00 -0.58655884469E+03  0.58655884469E+03  0.00000000000E+00 0.  1.
         25    1    1    2    0    0 -0.54038940715E+02  0.21838856646E+03 -0.32386152883E+03  0.41367265190E+03  0.12500000000E+03 0.  0.
         21    1    1    2  503  502 -0.75330454848E+02 -0.18801061379E+03 -0.12929484460E+03  0.24029112586E+03  0.00000000000E+00 0.  1.
          2    1    1    2  501    0  0.12936939556E+03 -0.30377952665E+02  0.10078849781E+03  0.16678603601E+03  0.00000000000E+00 0.  1.
<mgrwt>
<rscale>  4 0.47150602E+03</rscale>
<asrwt>0</asrwt>
<pdfrwt beam="1">  1       21 0.36029380E-01 0.47150602E+03</pdfrwt>
<pdfrwt beam="2">  1        2 0.90239822E-01 0.47150602E+03</pdfrwt>
<totfact> 0.45397028E+03</totfact>
</mgrwt>
</event>
<event>
 5    0  0.3188794E-002  0.6457766E+03  0.7546771E-02  0.9814737E-01
          2   -1    0    0  503    0 -0.00000000000E+00  0.00000000000E+00  0.34705547928E+04  0.34705547928E+04  0.00000000000E+00 0.  1.
         21   -1    0    0  501  502  0.00000000000E+00 -0.00000000000E+00 -0.32146449798E+02  0.32146449798E+02  0.00000000000E+00 0. -1.
         25    1    1    2    0    0  0.14735762481E+03 -0.15962980887E+03  0.55176638052E+03  0.60602564643E+03  0.12500000000E+03 0.  0.
         21    1    1    2  503  502 -0.16027924528E+03  0.14212903583E+03  0.27480235776E+04  0.27563605864E+04  0.00000000000E+00 0.  1.
          2    1    1    2  501    0  0.12921620474E+02  0.17500773036E+02  0.13861838490E+03  0.14031500977E+03  0.00000000000E+00 0.  1.
<mgrwt>
<rscale>  4 0.64577660E+03</rscale>
<asrwt>0</asrwt>
<pdfrwt beam="1">  1       21 0.49456104E-02 0.64577660E+03</pdfrwt>
<pdfrwt beam="2">  1        2 0.53393121E+00 0.64577660E+03</pdfrwt>
<totfact> 0.32920202E+03</totfact>
</mgrwt>
</event>
<event>
 5    0  0.3188794E-002  0.7313567E+03  0.7546771E-02  0.9665061E-01
         -4   -1    0    0    0  501 -0.00000000000E+00  0.00000000000E+00  0.20778026655E+04  0.20778026655E+04  0.00000000000E+00 0. -1.
         21   -1    0    0  503  502  0.00000000000E+00 -0.00000000000E+00 -0.70282264375E+02  0.70282264375E+02  0.00000000000E+00 0.  1.
         25    1    1    2    0    0 -0.29997576576E+03  0.78925334700E+01  0.14485759883E+04  0.14846026896E+04  0.12500000000E+03 0.  0.
         21    1    1    2  503  501  0.32462584758E+03  0.12272978083E+02  0.49557106044E+03  0.59255653136E+03  0.00000000000E+00 0.  1.
         -4    1    1    2    0  502 -0.24650081824E+02 -0.20165511553E+02  0.63373352309E+02  0.70925708830E+02  0.00000000000E+00 0. -1.
<mgrwt>
<rscale>  4 0.73135674E+03</rscale>
<asrwt>0</asrwt>
<pdfrwt beam="1">  1       21 0.10812658E-01 0.73135674E+03</pdfrwt>
<pdfrwt beam="2">  1       -4 0.31966190E+00 0.73135674E+03</pdfrwt>
<totfact> 0.74704288E+01</totfact>
</mgrwt>
</event>
<event>
 5    0  0.3188794E-002  0.3803193E+03  0.7546771E-02  0.1050816E+00
          2   -1    0    0  502    0 -0.00000000000E+00  0.00000000000E+00  0.30640658784E+03  0.30640658784E+03  0.00000000000E+00 0.  1.
         21   -1    0    0  503  502  0.00000000000E+00 -0.00000000000E+00 -0.45824171383E+03  0.45824171383E+03  0.00000000000E+00 0.  1.
         25    1    1    2    0    0 -0.11358972580E+03  0.28162568432E+03 -0.13386736513E+03  0.35462814795E+03  0.12500000000E+03 0.  0.
         21    1    1    2  503  501 -0.39575322398E+02  0.32153373279E+02 -0.32645924516E+02  0.60545866445E+02  0.00000000000E+00 0.  1.
          2    1    1    2  501    0  0.15316504820E+03 -0.31377905759E+03  0.14678163660E+02  0.34947428727E+03  0.00000000000E+00 0.  1.
<mgrwt>
<rscale>  4 0.38031932E+03</rscale>
<asrwt>0</asrwt>
<pdfrwt beam="1">  1       21 0.70498725E-01 0.38031932E+03</pdfrwt>
<pdfrwt beam="2">  1        2 0.47139475E-01 0.38031932E+03</pdfrwt>
<totfact> 0.22879260E+03</totfact>
</mgrwt>
</event>
<event>
 5    0  0.3188794E-002  0.4002773E+03  0.7546771E-02  0.1043684E+00
         21   -1    0    0  501  502  0.00000000000E+00  0.00000000000E+00  0.43804367552E+03  0.43804367552E+03  0.00000000000E+00 0. -1.
         -2   -1    0    0    0  501 -0.00000000000E+00 -0.00000000000E+00 -0.20329029508E+03  0.20329029508E+03  0.00000000000E+00 0.  1.
         25    1    1    2    0    0  0.24778951416E+03 -0.74740178707E+02  0.23634064488E+03  0.37211239977E+03  0.12500000000E+03 0.  0.
         21    1    1    2  503  502 -0.71620619442E+02  0.63086963232E+01 -0.30370730310E+02  0.78049305174E+02  0.00000000000E+00 0.  1.
         -2    1    1    2    0  503 -0.17616889472E+03  0.68431482383E+02  0.28783465865E+02  0.19117226566E+03  0.00000000000E+00 0.  1.
<mgrwt>
<rscale>  4 0.40027735E+03</rscale>
<asrwt>0</asrwt>
<pdfrwt beam="1">  1       21 0.67391334E-01 0.40027735E+03</pdfrwt>
<pdfrwt beam="2">  1       -2 0.31275430E-01 0.40027735E+03</pdfrwt>
<totfact> 0.14567268E+03</totfact>
</mgrwt>
</event>
<event>
 5    0  0.3188794E-002  0.5544493E+03  0.7546771E-02  0.1000469E+00
         21   -1    0    0  503  502  0.00000000000E+00  0.00000000000E+00  0.13429597895E+03  0.13429597895E+03  0.00000000000E+00 0. -1.
         -2   -1    0    0    0  501 -0.00000000000E+00 -0.00000000000E+00 -0.63336614580E+03  0.63336614580E+03  0.00000000000E+00 0.  1.
         25    1    1    2    0    0  0.56899116643E+02  0.25308652297E+03 -0.30006676529E+03  0.41587902233E+03  0.12500000000E+03 0.  0.
         21    1    1    2  503  501 -0.37296417966E+02 -0.26079071824E+03 -0.19990187399E+03  0.33070164913E+03  0.00000000000E+00 0. -1.
         -2    1    1    2    0  502 -0.19602698677E+02  0.77041952629E+01  0.89847242310E+00  0.21081453289E+02  0.00000000000E+00 0.  1.
<mgrwt>
<rscale>  4 0.55444933E+03</rscale>
<asrwt>0</asrwt>
<pdfrwt beam="1">  1       21 0.20660920E-01 0.55444933E+03</pdfrwt>
<pdfrwt beam="2">  1       -2 0.97440947E-01 0.55444933E+03</pdfrwt>
<totfact> 0.15339512E+03</totfact>
</mgrwt>
</event>
<event>
 5    0  0.3188794E-002  0.4666558E+03  0.7546771E-02  0.1022868E+00
         21   -1    0    0  503  502  0.00000000000E+00  0.00000000000E+00  0.25917071476E+04  0.25917071476E+04  0.00000000000E+00 0. -1.
          1   -1    0    0  502    0 -0.00000000000E+00 -0.00000000000E+00 -0.29144533056E+02  0.29144533056E+02  0.00000000000E+00 0.  1.
         25    1    1    2    0    0 -0.31377093951E+02 -0.24207010760E+03  0.95851746392E+03  0.99697702464E+03  0.12500000000E+03 0.  0.
         21    1    1    2  503  501  0.45548326590E+02  0.17419574025E+03  0.10251345477E+04  0.10408264250E+04  0.00000000000E+00 0.  1.
          1    1    1    2  501    0 -0.14171232639E+02  0.67874367356E+02  0.57891060292E+03  0.58304823107E+03  0.00000000000E+00 0.  1.
<mgrwt>
<rscale>  4 0.46665576E+03</rscale>
<asrwt>0</asrwt>
<pdfrwt beam="1">  1       21 0.39872400E+00 0.46665576E+03</pdfrwt>
<pdfrwt beam="2">  1        1 0.44837763E-02 0.46665576E+03</pdfrwt>
<totfact> 0.14763091E+02</totfact>
</mgrwt>
</event>
<event>
 5    0  0.3188794E-002  0.3977780E+03  0.7546771E-02  0.1044552E+00
          2   -1    0    0  503    0 -0.00000000000E+00  0.00000000000E+00  0.24231726269E+03  0.24231726269E+03  0.00000000000E+00 0. -1.
         21   -1    0    0  501  502  0.00000000000E+00 -0.00000000000E+00 -0.30521987447E+03  0.30521987447E+03  0.00000000000E+00 0.  1.
         25    1    1    2    0    0 -0.14973111420E+03  0.18343637778E+03  0.23937112200E+02  0.26882391373E+03  0.12500000000E+03 0.  0.
         21    1    1    2  503  502  0.40656789787E+02 -0.12275833611E+03 -0.49084551561E+01  0.12940895090E+03  0.00000000000E+00 0. -1.
          2    1    1    2  501    0  0.10907432441E+03 -0.60678041669E+02 -0.81931268817E+02  0.14930427253E+03  0.00000000000E+00 0. -1.
<mgrwt>
<rscale>  4 0.39777798E+03</rscale>
<asrwt>0</asrwt>
<pdfrwt beam="1">  1       21 0.46956903E-01 0.39777798E+03</pdfrwt>
<pdfrwt beam="2">  1        2 0.37279579E-01 0.39777798E+03</pdfrwt>
<totfact> 0.71245702E+03</totfact>
</mgrwt>
</event>
<event>
 5    0  0.3188794E-002  0.4271348E+03  0.7546771E-02  0.1034769E+00
          2   -1    0    0  503    0 -0.00000000000E+00  0.00000000000E+00  0.18387827608E+04  0.18387827608E+04  0.00000000000E+00 0. -1.
         21   -1    0    0  501  502  0.00000000000E+00 -0.00000000000E+00 -0.33515567674E+02  0.33515567674E+02  0.00000000000E+00 0.  1.
         25    1    1    2    0    0  0.44650084579E+02  0.19757223301E+03  0.11026797571E+04  0.11280762670E+04  0.12500000000E+03 0.  0.
         21    1    1    2  503  502 -0.60184916233E+02 -0.17665734527E+03  0.69090904540E+03  0.71567125889E+03  0.00000000000E+00 0.  1.
          2    1    1    2  501    0  0.15534831654E+02 -0.20914887745E+02  0.11678390610E+02  0.28550802636E+02  0.00000000000E+00 0. -1.
<mgrwt>
<rscale>  4 0.42713481E+03</rscale>
<asrwt>0</asrwt>
<pdfrwt beam="1">  1       21 0.51562426E-02 0.42713481E+03</pdfrwt>
<pdfrwt beam="2">  1        2 0.28288958E+00 0.42713481E+03</pdfrwt>
<totfact> 0.28438926E+04</totfact>
</mgrwt>
</event>
<event>
 5    0  0.3188794E-002  0.4804128E+03  0.7546771E-02  0.1019022E+00
         21   -1    0    0  501  502  0.00000000000E+00  0.00000000000E+00  0.89871629113E+03  0.89871629113E+03  0.00000000000E+00 0.  1.
         -4   -1    0    0    0  501 -0.00000000000E+00 -0.00000000000E+00 -0.10784826211E+03  0.10784826211E+03  0.00000000000E+00 0.  1.
         25    1    1    2    0    0 -0.22300909548E+03 -0.63608130145E+02  0.13675549906E+03  0.29682674645E+03  0.12500000000E+03 0.  0.
         21    1    1    2  503  502  0.17098251168E+03  0.68694068359E+02  0.30207772590E+03  0.35384296914E+03  0.00000000000E+00 0. -1.
         -4    1    1    2    0  503  0.52026583798E+02 -0.50859382135E+01  0.35203480406E+03  0.35589483764E+03  0.00000000000E+00 0.  1.
<mgrwt>
<rscale>  4 0.48041282E+03</rscale>
<asrwt>0</asrwt>
<pdfrwt beam="1">  1       21 0.13826404E+00 0.48041282E+03</pdfrwt>
<pdfrwt beam="2">  1       -4 0.16592041E-01 0.48041282E+03</pdfrwt>
<totfact> 0.47043258E+02</totfact>
</mgrwt>
</event>
<event>
 5    0  0.3188794E-002  0.5728546E+03  0.7546771E-02  0.9963382E-01
          2   -1    0    0  503    0 -0.00000000000E+00  0.00000000000E+00  0.72109149513E+03  0.72109149513E+03  0.00000000000E+00 0.  1.
         21   -1    0    0  501  502  0.00000000000E+00 -0.00000000000E+00 -0.67808474893E+03  0.67808474893E+03  0.00000000000E+00 0.  1.
         25    1    1    2    0    0 -0.22102794123E+02  0.25810248363E+03  0.39798754308E+03  0.49104430554E+03  0.12500000000E+03 0.  0.
         21    1    1    2  503  502 -0.23950314119E+02 -0.27151863738E+03  0.20815041099E+03  0.34296148703E+03  0.00000000000E+00 0. -1.
          2    1    1    2  501    0  0.46053108242E+02  0.13416153755E+02 -0.56313120787E+03  0.56517045149E+03  0.00000000000E+00 0.  1.
<mgrwt>
<rscale>  4 0.57285464E+03</rscale>
<asrwt>0</asrwt>
<pdfrwt beam="1">  1       21 0.10432073E+00 0.57285464E+03</pdfrwt>
<pdfrwt beam="2">  1        2 0.11093715E+00 0.57285464E+03</pdfrwt>
<totfact> 0.32634853E+02</totfact>
</mgrwt>
</event>
<event>
 5    0  0.3188794E-002  0.4189801E+03  0.7546771E-02  0.1037399E+00
         21   -1    0    0  501  502  0.00000000000E+00  0.00000000000E+00  0.14307778503E+04  0.14307778503E+04  0.00000000000E+00 0.  1.
          2   -1    0    0  503    0 -0.00000000000E+00 -0.00000000000E+00 -0.79293903377E+02  0.79293903377E+02  0.00000000000E+00 0. -1.
         25    1    1    2    0    0 -0.22838902220E+02  0.21105175557E+03  0.50997832512E+03  0.56636326777E+03  0.12500000000E+03 0.  0.
         21    1    1    2  503  502  0.21910536148E+02 -0.90967235364E+02 -0.10968270879E+00  0.93568806418E+02  0.00000000000E+00 0. -1.
          2    1    1    2  501    0  0.92836607186E+00 -0.12008452021E+03  0.84161530451E+03  0.85013967949E+03  0.00000000000E+00 0. -1.
<mgrwt>
<rscale>  4 0.41898008E+03</rscale>
<asrwt>0</asrwt>
<pdfrwt beam="1">  1       21 0.22011965E+00 0.41898008E+03</pdfrwt>
<pdfrwt beam="2">  1        2 0.12199063E-01 0.41898008E+03</pdfrwt>
<totfact> 0.54590640E+02</totfact>
</mgrwt>
</event>
<event>
 5    0  0.3188794E-002  0.4395545E+03  0.7546771E-02  0.1030884E+00
         21   -1    0    0  503  502  0.00000000000E+00  0.00000000000E+00  0.10626172873E+04  0.10626172873E+04  0.00000000000E+00 0. -1.
         -2   -1    0    0    0  501 -0.00000000000E+00 -0.00000000000E+00 -0.17073563827E+03  0.17073563827E+03  0.00000000000E+00 0. -1.
         25    1    1    2    0    0  0.20706739677E+03  0.30383367400E+02  0.21880990648E+03  0.32757110830E+03  0.12500000000E+03 0.  0.
         21    1    1    2  503  501 -0.44944273209E+02  0.11656879837E+03 -0.61545077083E+02  0.13926977045E+03  0.00000000000E+00 0.  1.
         -2    1    1    2    0  502 -0.16212312356E+03 -0.14695216577E+03  0.73461681961E+03  0.76651204679E+03  0.00000000000E+00 0. -1.
<mgrwt>
<rscale>  4 0.43955452E+03</rscale>
<asrwt>0</asrwt>
<pdfrwt beam="1">  1       21 0.16347958E+00 0.43955452E+03</pdfrwt>
<pdfrwt beam="2">  1       -2 0.26267022E-01 0.43955452E+03</pdfrwt>
<totfact> 0.22229779E+02</totfact>
</mgrwt>
</event>
<event>
 5    0  0.3188794E-002  0.4393621E+03  0.7546771E-02  0.1030943E+00
         21   -1    0    0  501  502  0.00000000000E+00  0.00000000000E+00  0.11299480195E+03  0.11299480195E+03  0.00000000000E+00 0. -1.
          2   -1    0    0  503    0 -0.00000000000E+00 -0.00000000000E+00 -0.11296796128E+04  0.11296796128E+04  0.00000000000E+00 0. -1.
         25    1    1    2    0    0 -0.19550210264E+03 -0.12254651146E+03 -0.83617144227E+03  0.87638256514E+03  0.12500000000E+03 0.  0.
         21    1    1    2  503  502  0.11378780950E+03  0.10222841176E+03 -0.22421554482E+03  0.27142388307E+03  0.00000000000E+00 0.  1.
          2    1    1    2  501    0  0.81714293137E+02  0.20318099702E+02  0.43702176199E+02  0.94867966580E+02  0.00000000000E+00 0. -1.
<mgrwt>
<rscale>  4 0.43936213E+03</rscale>
<asrwt>0</asrwt>
<pdfrwt beam="1">  1       21 0.17383815E-01 0.43936213E+03</pdfrwt>
<pdfrwt beam="2">  1        2 0.17379687E+00 0.43936213E+03</pdfrwt>
<totfact> 0.79054534E+03</totfact>
</mgrwt>
</event>
<event>
 5    0  0.3188794E-002  0.3874393E+03  0.7546771E-02  0.1048218E+00
         21   -1    0    0  501  502  0.00000000000E+00  0.00000000000E+00  0.13509479089E+03  0.13509479089E+03  0.00000000000E+00 0.  1.
          2   -1    0    0  503    0 -0.00000000000E+00 -0.00000000000E+00 -0.11599181095E+04  0.11599181095E+04  0.00000000000E+00 0.  1.
         25    1    1    2    0    0 -0.59536673864E+02  0.19891242204E+03 -0.89642570427E+03  0.92860907300E+03  0.12500000000E+03 0.  0.
         21    1    1    2  503  502  0.10491128064E+03 -0.50102073199E+02 -0.16945473372E+03  0.20550304457E+03  0.00000000000E+00 0. -1.
          2    1    1    2  501    0 -0.45374606780E+02 -0.14881034885E+03  0.41057119371E+02  0.16090078283E+03  0.00000000000E+00 0.  1.
<mgrwt>
<rscale>  4 0.38743927E+03</rscale>
<asrwt>0</asrwt>
<pdfrwt beam="1">  1       21 0.20783815E-01 0.38743927E+03</pdfrwt>
<pdfrwt beam="2">  1        2 0.17844894E+00 0.38743927E+03</pdfrwt>
<totfact> 0.54648687E+03</totfact>
</mgrwt>
</event>
<event>
 5    0  0.3188794E-002  0.4051648E+03  0.7546771E-02  0.1042006E+00
         21   -1    0    0  501  502  0.00000000000E+00  0.00000000000E+00  0.81785599892E+02  0.81785599892E+02  0.00000000000E+00 0. -1.
          2   -1    0    0  503    0 -0.00000000000E+00 -0.00000000000E+00 -0.12227674015E+04  0.12227674015E+04  0.00000000000E+00 0.  1.
         25    1    1    2    0    0 -0.19882744999E+03  0.27676061005E+02 -0.85454859806E+03  0.88666601698E+03  0.12500000000E+03 0.  0.
         21    1    1    2  503  502  0.12401101359E+02 -0.10072398427E+03 -0.71513531377E+02  0.12415028591E+03  0.00000000000E+00 0. -1.
          2    1    1    2  501    0  0.18642634863E+03  0.73047923264E+02 -0.21491967215E+03  0.29373669848E+03  0.00000000000E+00 0.  1.
<mgrwt>
<rscale>  4 0.40516482E+03</rscale>
<asrwt>0</asrwt>
<pdfrwt beam="1">  1       21 0.12582400E-01 0.40516482E+03</pdfrwt>
<pdfrwt beam="2">  1        2 0.18811806E+00 0.40516482E+03</pdfrwt>
<totfact> 0.12757249E+04</totfact>
</mgrwt>
</event>
<event>
 5    0  0.3188794E-002  0.6673488E+03  0.7546771E-02  0.9774759E-01
          1   -1    0    0  503    0 -0.00000000000E+00  0.00000000000E+00  0.53846315902E+03  0.53846315902E+03  0.00000000000E+00 0. -1.
         21   -1    0    0  501  502  0.00000000000E+00 -0.00000000000E+00 -0.45373178496E+03  0.45373178496E+03  0.00000000000E+00 0. -1.
         25    1    1    2    0    0 -0.22648144103E+03 -0.14989693585E+03 -0.97630156134E+01  0.29913751183E+03  0.12500000000E+03 0.  0.
         21    1    1    2  503  502  0.25616892610E+03  0.13144474533E+03  0.33973888024E+03  0.44533442099E+03  0.00000000000E+00 0. -1.
          1    1    1    2  501    0 -0.29687485069E+02  0.18452190522E+02 -0.24524449056E+03  0.24772301116E+03  0.00000000000E+00 0. -1.
<mgrwt>
<rscale>  4 0.66734878E+03</rscale>
<asrwt>0</asrwt>
<pdfrwt beam="1">  1       21 0.69804890E-01 0.66734878E+03</pdfrwt>
<pdfrwt beam="2">  1        1 0.82840486E-01 0.66734878E+03</pdfrwt>
<totfact> 0.73733565E+02</totfact>
</mgrwt>
</event>
<event>
 5    0  0.3188794E-002  0.5084774E+03  0.7546771E-02  0.1011590E+00
         21   -1    0    0  501  502  0.00000000000E+00  0.00000000000E+00  0.50708950152E+03  0.50708950152E+03  0.00000000000E+00 0.  1.
          1   -1    0    0  503    0 -0.00000000000E+00 -0.00000000000E+00 -0.38907854811E+03  0.38907854811E+03  0.00000000000E+00 0.  1.
         25    1    1    2    0    0  0.18018822366E+03 -0.15409446322E+03 -0.14223757269E+03  0.30342944258E+03  0.12500000000E+03 0.  0.
         21    1    1    2  503  502 -0.99087741818E+02 -0.16991593024E+03  0.72862516768E+02  0.20975879071E+03  0.00000000000E+00 0. -1.
          1    1    1    2  501    0 -0.81100481840E+02  0.32401039346E+03  0.18738600934E+03  0.38297981634E+03  0.00000000000E+00 0.  1.
<mgrwt>
<rscale>  4 0.50847740E+03</rscale>
<asrwt>0</asrwt>
<pdfrwt beam="1">  1       21 0.78013770E-01 0.50847740E+03</pdfrwt>
<pdfrwt beam="2">  1        1 0.59858238E-01 0.50847740E+03</pdfrwt>
<totfact> 0.91026208E+02</totfact>
</mgrwt>
</event>
<event>
 5    0  0.3188794E-002  0.5316098E+03  0.7546771E-02  0.1005842E+00
          2   -1    0    0  503    0 -0.00000000000E+00  0.00000000000E+00  0.26080195046E+04  0.26080195046E+04  0.00000000000E+00 0. -1.
         21   -1    0    0  501  502  0.00000000000E+00 -0.00000000000E+00 -0.73354449655E+02  0.73354449655E+02  0.00000000000E+00 0.  1.
         25    1    1    2    0    0 -0.18467766086E+03  0.10177630175E+03  0.46685118827E+03  0.52729430682E+03  0.12500000000E+03 0.  0.
         21    1    1    2  503  502  0.12583574367E+03  0.23205876057E+03  0.95038934739E+03  0.98637001900E+03  0.00000000000E+00 0. -1.
          2    1    1    2  501    0  0.58841917183E+02 -0.33383506231E+03  0.11174245193E+04  0.11677096285E+04  0.00000000000E+00 0. -1.
<mgrwt>
<rscale>  4 0.53160978E+03</rscale>
<asrwt>0</asrwt>
<pdfrwt beam="1">  1       21 0.11285302E-01 0.53160978E+03</pdfrwt>
<pdfrwt beam="2">  1        2 0.40123370E+00 0.53160978E+03</pdfrwt>
<totfact> 0.26453383E+03</totfact>
</mgrwt>
</event>
<event>
 5    0  0.3188794E-002  0.5527332E+03  0.7546771E-02  0.1000863E+00
         21   -1    0    0  503  502  0.00000000000E+00  0.00000000000E+00  0.19143189959E+03  0.19143189959E+03  0.00000000000E+00 0. -1.
         -3   -1    0    0    0  501 -0.00000000000E+00 -0.00000000000E+00 -0.13792508193E+04  0.13792508193E+04  0.00000000000E+00 0. -1.
         25    1    1    2    0    0  0.62039247582E+02 -0.25572772750E+03 -0.70338614704E+03  0.76132950206E+03  0.12500000000E+03 0.  0.
         21    1    1    2  503  501 -0.99804239817E+02  0.24157464936E+03 -0.61737618385E+03  0.67042713988E+03  0.00000000000E+00 0. -1.
         -3    1    1    2    0  502  0.37764992235E+02  0.14153078145E+02  0.13294341122E+03  0.13892607691E+03  0.00000000000E+00 0. -1.
<mgrwt>
<rscale>  4 0.55273316E+03</rscale>
<asrwt>0</asrwt>
<pdfrwt beam="1">  1       21 0.29451060E-01 0.55273316E+03</pdfrwt>
<pdfrwt beam="2">  1       -3 0.21219244E+00 0.55273316E+03</pdfrwt>
<totfact> 0.67463733E+01</totfact>
</mgrwt>
</event>
<event>
 5    0  0.3188794E-002  0.4170049E+03  0.7546771E-02  0.1038046E+00
          2   -1    0    0  503    0 -0.00000000000E+00  0.00000000000E+00  0.17007351185E+04  0.17007351185E+04  0.00000000000E+00 0. -1.
         21   -1    0    0  501  502  0.00000000000E+00 -0.00000000000E+00 -0.17588689620E+03  0.17588689620E+03  0.00000000000E+00 0. -1.
         25    1    1    2    0    0  0.88029090037E+02  0.19463590004E+03  0.11223863786E+04  0.11493513114E+04  0.12500000000E+03 0.  0.
         21    1    1    2  503  502  0.15394171085E+03 -0.21363983592E+02  0.40055801198E+03  0.42965240730E+03  0.00000000000E+00 0.  1.
          2    1    1    2  501    0 -0.24197080089E+03 -0.17327191645E+03  0.19038317363E+01  0.29761829596E+03  0.00000000000E+00 0. -1.
<mgrwt>
<rscale>  4 0.41700495E+03</rscale>
<asrwt>0</asrwt>
<pdfrwt beam="1">  1       21 0.27059524E-01 0.41700495E+03</pdfrwt>
<pdfrwt beam="2">  1        2 0.26165154E+00 0.41700495E+03</pdfrwt>
<totfact> 0.16358942E+03</totfact>
</mgrwt>
</event>
<event>
 5    0  0.3188794E-002  0.5040830E+03  0.7546771E-02  0.1012719E+00
         21   -1    0    0  501  502  0.00000000000E+00  0.00000000000E+00  0.21109622512E+03  0.21109622512E+03  0.00000000000E+00 0.  1.
          1   -1    0    0  503    0 -0.00000000000E+00 -0.00000000000E+00 -0.14512329626E+04  0.14512329626E+04  0.00000000000E+00 0.  1.
         25    1    1    2    0    0  0.23227822790E+03 -0.89486513845E+02 -0.84780514508E+03  0.89238981131E+03  0.12500000000E+03 0.  0.
         21    1    1    2  503  502 -0.22033885900E+03  0.36218427332E+02 -0.55506381713E+03  0.59829493426E+03  0.00000000000E+00 0. -1.
          1    1    1    2  501    0 -0.11939368893E+02  0.53268086513E+02  0.16273222471E+03  0.17164444217E+03  0.00000000000E+00 0.  1.
<mgrwt>
<rscale>  4 0.50408301E+03</rscale>
<asrwt>0</asrwt>
<pdfrwt beam="1">  1       21 0.32476343E-01 0.50408301E+03</pdfrwt>
<pdfrwt beam="2">  1        1 0.22326660E+00 0.50408301E+03</pdfrwt>
<totfact> 0.70723385E+02</totfact>
</mgrwt>
</event>
<event>
 5    0  0.3188794E-002  0.5058488E+03  0.7546771E-02  0.1012263E+00
         21   -1    0    0  503  502  0.00000000000E+00  0.00000000000E+00  0.22190829199E+03  0.22190829199E+03  0.00000000000E+00 0. -1.
          2   -1    0    0  502    0 -0.00000000000E+00 -0.00000000000E+00 -0.49464251067E+03  0.49464251067E+03  0.00000000000E+00 0.  1.
         25    1    1    2    0    0 -0.29037236238E+03 -0.55425565612E+02 -0.21835930955E+03  0.38819310945E+03  0.12500000000E+03 0.  0.
         21    1    1    2  503  501  0.14328905750E+03  0.10361577094E+02  0.38410927212E+02  0.14870950073E+03  0.00000000000E+00 0.  1.
          2    1    1    2  501    0  0.14708330488E+03  0.45063988518E+02 -0.92785836338E+02  0.17964819248E+03  0.00000000000E+00 0.  1.
<mgrwt>
<rscale>  4 0.50584878E+03</rscale>
<asrwt>0</asrwt>
<pdfrwt beam="1">  1       21 0.34139738E-01 0.50584878E+03</pdfrwt>
<pdfrwt beam="2">  1        2 0.76098847E-01 0.50584878E+03</pdfrwt>
<totfact> 0.61453609E+03</totfact>
</mgrwt>
</event>
<event>
 5    0  0.3188794E-002  0.8718027E+03  0.7546771E-02  0.9461532E-01
         21   -1    0    0  501  502  0.00000000000E+00  0.00000000000E+00  0.74031827467E+03  0.74031827467E+03  0.00000000000E+00 0. -1.
          1   -1    0    0  503    0 -0.00000000000E+00 -0.00000000000E+00 -0.56435150473E+03  0.56435150473E+03  0.00000000000E+00 0. -1.
         25    1    1    2    0    0  0.37496894440E+03 -0.74020089756E+02  0.18620686340E+03  0.44314634031E+03  0.12500000000E+03 0.  0.
         21    1    1    2  503  502 -0.24068739111E+03 -0.10928670398E+03 -0.35866593106E+03  0.44555050669E+03  0.00000000000E+00 0. -1.
          1    1    1    2  501    0 -0.13428155329E+03  0.18330679374E+03  0.34842583760E+03  0.41597293240E+03  0.00000000000E+00 0. -1.
<mgrwt>
<rscale>  4 0.87180270E+03</rscale>
<asrwt>0</asrwt>
<pdfrwt beam="1">  1       21 0.11389512E+00 0.87180270E+03</pdfrwt>
<pdfrwt beam="2">  1        1 0.86823308E-01 0.87180270E+03</pdfrwt>
<totfact> 0.20647824E+02</totfact>
</mgrwt>
</event>
<event>
 5    0  0.3188794E-002  0.4511332E+03  0.7546771E-02  0.1027385E+00
         21   -1    0    0  503  502  0.00000000000E+00  0.00000000000E+00  0.16953790918E+03  0.16953790918E+03  0.00000000000E+00 0. -1.
          1   -1    0    0  502    0 -0.00000000000E+00 -0.00000000000E+00 -0.42011022940E+03  0.42011022940E+03  0.00000000000E+00 0.  1.
         25    1    1    2    0    0 -0.23745810161E+03  0.16727918649E+02 -0.61069451637E+02  0.27571842739E+03  0.12500000000E+03 0.  0.
         21    1    1    2  503  501  0.16403033497E+03  0.20909753838E+02 -0.14632328376E+03  0.22080233686E+03  0.00000000000E+00 0. -1.
          1    1    1    2  501    0  0.73427766639E+02 -0.37637672488E+02 -0.43179584826E+02  0.93127374330E+02  0.00000000000E+00 0.  1.
<mgrwt>
<rscale>  4 0.45113315E+03</rscale>
<asrwt>0</asrwt>
<pdfrwt beam="1">  1       21 0.26082755E-01 0.45113315E+03</pdfrwt>
<pdfrwt beam="2">  1        1 0.64632343E-01 0.45113315E+03</pdfrwt>
<totfact> 0.83696380E+03</totfact>
</mgrwt>
</event>
<event>
 5    0  0.3188794E-002  0.4433318E+03  0.7546771E-02  0.1029729E+00
         21   -1    0    0  501  502  0.00000000000E+00  0.00000000000E+00  0.10538045713E+03  0.10538045713E+03  0.00000000000E+00 0.  1.
          1   -1    0    0  503    0 -0.00000000000E+00 -0.00000000000E+00 -0.92667297673E+03  0.92667297673E+03  0.00000000000E+00 0.  1.
         25    1    1    2    0    0 -0.22011570098E+03 -0.36905754159E+02 -0.23515585879E+03  0.34747119943E+03  0.12500000000E+03 0.  0.
         21    1    1    2  503  502  0.76964575671E+02  0.59596348370E+02 -0.51315626131E+03  0.52230701620E+03  0.00000000000E+00 0.  1.
          1    1    1    2  501    0  0.14315112531E+03 -0.22690594211E+02 -0.72980399501E+02  0.16227521824E+03  0.00000000000E+00 0.  1.
<mgrwt>
<rscale>  4 0.44333183E+03</rscale>
<asrwt>0</asrwt>
<pdfrwt beam="1">  1       21 0.16212377E-01 0.44333183E+03</pdfrwt>
<pdfrwt beam="2">  1        1 0.14256508E+00 0.44333183E+03</pdfrwt>
<totfact> 0.65661380E+03</totfact>
</mgrwt>
</event>
<event>
 5    0  0.3188794E-002  0.4813312E+03  0.7546771E-02  0.1018770E+00
          2   -1    0    0  503    0 -0.00000000000E+00  0.00000000000E+00  0.56185898439E+03  0.56185898439E+03  0.00000000000E+00 0.  1.
         21   -1    0    0  501  502  0.00000000000E+00 -0.00000000000E+00 -0.34533464569E+03  0.34533464569E+03  0.00000000000E+00 0.  1.
         25    1    1    2    0    0  0.75028784406E+02  0.19824523524E+03  0.44774315238E+03  0.51091038577E+03  0.12500000000E+03 0.  0.
         21    1    1    2  503  502  0.81998199263E+02 -0.80315290541E+02 -0.38309782350E+02  0.12100367763E+03  0.00000000000E+00 0. -1.
          2    1    1    2  501    0 -0.15702698367E+03 -0.11792994470E+03 -0.19290903133E+03  0.27527956667E+03  0.00000000000E+00 0.  1.
<mgrwt>
<rscale>  4 0.48133117E+03</rscale>
<asrwt>0</asrwt>
<pdfrwt beam="1">  1       21 0.53128407E-01 0.48133117E+03</pdfrwt>
<pdfrwt beam="2">  1        2 0.86439844E-01 0.48133117E+03</pdfrwt>
<totfact> 0.21176506E+03</totfact>
</mgrwt>
</event>
<event>
 5    0  0.3188794E-002  0.1174159E+04  0.7546771E-02  0.9135781E-01
         21   -1    0    0  501  502  0.00000000000E+00  0.00000000000E+00  0.80399078375E+03  0.80399078375E+03  0.00000000000E+00 0. -1.
          1   -1    0    0  503    0 -0.00000000000E+00 -0.00000000000E+00 -0.10075592516E+04  0.10075592516E+04  0.00000000000E+00 0. -1.
         25    1    1    2    0    0 -0.24873629751E+03  0.58193306394E+03 -0.67896842396E+03  0.93655696962E+03  0.12500000000E+03 0.  0.
         21    1    1    2  503  502  0.20400215882E+03 -0.32395413731E+03  0.65192233556E+02  0.38834674094E+03  0.00000000000E+00 0.  1.
          1    1    1    2  501    0  0.44734138696E+02 -0.25797892663E+03  0.41020772258E+03  0.48664632477E+03  0.00000000000E+00 0. -1.
<mgrwt>
<rscale>  4 0.11741587E+04</rscale>
<asrwt>0</asrwt>
<pdfrwt beam="1">  1       21 0.12369089E+00 0.11741587E+04</pdfrwt>
<pdfrwt beam="2">  1        1 0.15500912E+00 0.11741587E+04</pdfrwt>
<totfact> 0.63712739E+01</totfact>
</mgrwt>
</event>
<event>
 5    0  0.3188794E-002  0.5721761E+03  0.7546771E-02  0.9964875E-01
         21   -1    0    0  501  502  0.00000000000E+00  0.00000000000E+00  0.46232384187E+03  0.46232384187E+03  0.00000000000E+00 0. -1.
          1   -1    0    0  503    0 -0.00000000000E+00 -0.00000000000E+00 -0.58589399331E+03  0.58589399331E+03  0.00000000000E+00 0.  1.
         25    1    1    2    0    0  0.22479804592E+03  0.31454659023E+03 -0.66554311518E+02  0.41173801774E+03  0.12500000000E+03 0.  0.
         21    1    1    2  503  502 -0.99929528447E+02  0.12413616623E+03 -0.82908615321E+02  0.17963723700E+03  0.00000000000E+00 0.  1.
          1    1    1    2  501    0 -0.12486851747E+03 -0.43868275646E+03  0.25892775396E+02  0.45684258043E+03  0.00000000000E+00 0.  1.
<mgrwt>
<rscale>  4 0.57217613E+03</rscale>
<asrwt>0</asrwt>
<pdfrwt beam="1">  1       21 0.71126745E-01 0.57217613E+03</pdfrwt>
<pdfrwt beam="2">  1        1 0.90137537E-01 0.57217613E+03</pdfrwt>
<totfact> 0.63798339E+02</totfact>
</mgrwt>
</event>
<event>
 5    0  0.3188794E-002  0.3613242E+03  0.7546771E-02  0.1058061E+00
         21   -1    0    0  501  502  0.00000000000E+00  0.00000000000E+00  0.12594819458E+03  0.12594819458E+03  0.00000000000E+00 0.  1.
          1   -1    0    0  503    0 -0.00000000000E+00 -0.00000000000E+00 -0.44904489341E+03  0.44904489341E+03  0.00000000000E+00 0. -1.
         25    1    1    2    0    0 -0.20723689801E+03 -0.90584108035E+01 -0.21779091251E+03  0.32571009851E+03  0.12500000000E+03 0.  0.
         21    1    1    2  503  502  0.11254876430E+03 -0.34781056985E+02 -0.78469298108E+02  0.14154284516E+03  0.00000000000E+00 0. -1.
          1    1    1    2  501    0  0.94688133704E+02  0.43839467788E+02 -0.26836488216E+02  0.10774014433E+03  0.00000000000E+00 0. -1.
<mgrwt>
<rscale>  4 0.36132423E+03</rscale>
<asrwt>0</asrwt>
<pdfrwt beam="1">  1       21 0.19376645E-01 0.36132423E+03</pdfrwt>
<pdfrwt beam="2">  1        1 0.69083829E-01 0.36132423E+03</pdfrwt>
<totfact> 0.13712561E+04</totfact>
</mgrwt>
</event>
<event>
 5    0  0.3188794E-002  0.8247441E+03  0.7546771E-02  0.9524876E-01
         21   -1    0    0  501  502  0.00000000000E+00  0.00000000000E+00  0.11507628441E+03  0.11507628441E+03  0.00000000000E+00 0. -1.
          1   -1    0    0  503    0 -0.00000000000E+00 -0.00000000000E+00 -0.22980215095E+04  0.22980215095E+04  0.00000000000E+00 0.  1.
         25    1    1    2    0    0 -0.23042017860E+03 -0.18498430914E+03 -0.19933929388E+04  0.20190475631E+04  0.12500000000E+03 0.  0.
         21    1    1    2  503  502  0.20948808389E+03  0.16216048390E+03 -0.22457648609E+03  0.34729796708E+03  0.00000000000E+00 0. -1.
          1    1    1    2  501    0  0.20932094709E+02  0.22823825240E+02  0.35024199870E+02  0.46752263731E+02  0.00000000000E+00 0.  1.
<mgrwt>
<rscale>  4 0.82474408E+03</rscale>
<asrwt>0</asrwt>
<pdfrwt beam="1">  1       21 0.17704044E-01 0.82474408E+03</pdfrwt>
<pdfrwt beam="2">  1        1 0.35354177E+00 0.82474408E+03</pdfrwt>
<totfact> 0.58816987E+02</totfact>
</mgrwt>
</event>
<event>
 5    0  0.3188794E-002  0.3557385E+03  0.7546771E-02  0.1060284E+00
          2   -1    0    0  503    0 -0.00000000000E+00  0.00000000000E+00  0.14950953954E+04  0.14950953954E+04  0.00000000000E+00 0.  1.
         21   -1    0    0  501  502  0.00000000000E+00 -0.00000000000E+00 -0.75344984762E+02  0.75344984762E+02  0.00000000000E+00 0. -1.
         25    1    1    2    0    0 -0.72182424229E+02  0.21069194223E+03  0.88894861406E+03  0.92490866323E+03  0.12500000000E+03 0.  0.
         21    1    1    2  503  502  0.89608637211E+02 -0.40069638345E+02  0.44127665872E+03  0.45206235556E+03  0.00000000000E+00 0.  1.
          2    1    1    2  501    0 -0.17426212982E+02 -0.17062230388E+03  0.89525137864E+02  0.19346936138E+03  0.00000000000E+00 0.  1.
<mgrwt>
<rscale>  4 0.35573854E+03</rscale>
<asrwt>0</asrwt>
<pdfrwt beam="1">  1       21 0.11591537E-01 0.35573854E+03</pdfrwt>
<pdfrwt beam="2">  1        2 0.23001465E+00 0.35573854E+03</pdfrwt>
<totfact> 0.10538117E+04</totfact>
</mgrwt>
</event>
<event>
 5    0  0.3188794E-002  0.3705545E+03  0.7546771E-02  0.1054481E+00
         21   -1    0    0  501  502  0.00000000000E+00  0.00000000000E+00  0.69567729428E+02  0.69567729428E+02  0.00000000000E+00 0.  1.
          2   -1    0    0  503    0 -0.00000000000E+00 -0.00000000000E+00 -0.16914512226E+04  0.16914512226E+04  0.00000000000E+00 0.  1.
         25    1    1    2    0    0 -0.18783105998E+02  0.20809686944E+03 -0.10220080253E+04  0.10506105444E+04  0.12500000000E+03 0.  0.
         21    1    1    2  503  502 -0.66499754844E+02 -0.10818598297E+03 -0.55839815315E+03  0.57265602393E+03  0.00000000000E+00 0. -1.
          2    1    1    2  501    0  0.85282860842E+02 -0.99910886474E+02 -0.41477314725E+02  0.13775238374E+03  0.00000000000E+00 0.  1.
<mgrwt>
<rscale>  4 0.37055453E+03</rscale>
<asrwt>0</asrwt>
<pdfrwt beam="1">  1       21 0.10702728E-01 0.37055453E+03</pdfrwt>
<pdfrwt beam="2">  1        2 0.26022325E+00 0.37055453E+03</pdfrwt>
<totfact> 0.95139584E+03</totfact>
</mgrwt>
</event>
<event>
 5    0  0.3188794E-002  0.4373877E+03  0.7546771E-02  0.1031551E+00
          2   -1    0    0  502    0 -0.00000000000E+00  0.00000000000E+00  0.26476203206E+03  0.26476203206E+03  0.00000000000E+00 0. -1.
         21   -1    0    0  503  502  0.00000000000E+00 -0.00000000000E+00 -0.45854161407E+03  0.45854161407E+03  0.00000000000E+00 0. -1.
         25    1    1    2    0    0 -0.20285723583E+03 -0.11339434997E+03  0.11897620075E+03  0.28946445910E+03  0.12500000000E+03 0.  0.
         21    1    1    2  503  501 -0.13503706605E+02  0.37097764991E+02 -0.14325634291E+03  0.14859668248E+03  0.00000000000E+00 0.  1.
          2    1    1    2  501    0  0.21636094244E+03  0.76296584981E+02 -0.16949943984E+03  0.28524250455E+03  0.00000000000E+00 0. -1.
<mgrwt>
<rscale>  4 0.43738774E+03</rscale>
<asrwt>0</asrwt>
<pdfrwt beam="1">  1       21 0.70544864E-01 0.43738774E+03</pdfrwt>
<pdfrwt beam="2">  1        2 0.40732620E-01 0.43738774E+03</pdfrwt>
<totfact> 0.26514048E+03</totfact>
</mgrwt>
</event>
<event>
 5    0  0.3188794E-002  0.5574701E+03  0.7546771E-02  0.9997795E-01
         21   -1    0    0  501  502  0.00000000000E+00  0.00000000000E+00  0.51150530213E+02  0.51150530213E+02  0.00000000000E+00 0.  1.
          2   -1    0    0  503    0 -0.00000000000E+00 -0.00000000000E+00 -0.20556508505E+04  0.20556508505E+04  0.00000000000E+00 0. -1.
         25    1    1    2    0    0 -0.14054990418E+03 -0.24355149258E+03 -0.12761017753E+04  0.13126813574E+04  0.12500000000E+03 0.  0.
         21    1    1    2  503  502  0.13748465692E+03  0.19884623203E+03 -0.70119621197E+03  0.74169938827E+03  0.00000000000E+00 0. -1.
          2    1    1    2  501    0  0.30652472586E+01  0.44705260545E+02 -0.27202333080E+02  0.52420635117E+02  0.00000000000E+00 0. -1.
<mgrwt>
<rscale>  4 0.55747010E+03</rscale>
<asrwt>0</asrwt>
<pdfrwt beam="1">  1       21 0.78693142E-02 0.55747010E+03</pdfrwt>
<pdfrwt beam="2">  1        2 0.31625390E+00 0.55747010E+03</pdfrwt>
<totfact> 0.10166964E+04</totfact>
</mgrwt>
</event>
<event>
 5    0  0.3188794E-002  0.3765818E+03  0.7546771E-02  0.1052204E+00
          2   -1    0    0  502    0 -0.00000000000E+00  0.00000000000E+00  0.30729909598E+04  0.30729909598E+04  0.00000000000E+00 0. -1.
         21   -1    0    0  503  502  0.00000000000E+00 -0.00000000000E+00 -0.25022628531E+02  0.25022628531E+02  0.00000000000E+00 0. -1.
         25    1    1    2    0    0 -0.20948206524E+03 -0.60916895580E+02  0.15703094822E+04  0.15903114392E+04  0.12500000000E+03 0.  0.
         21    1    1    2  503  501  0.38825428978E+02  0.10543511705E+03  0.39096816979E+03  0.40679243802E+03  0.00000000000E+00 0.  1.
          2    1    1    2  501    0  0.17065663626E+03 -0.44518221474E+02  0.10866906794E+04  0.11009097112E+04  0.00000000000E+00 0. -1.
<mgrwt>
<rscale>  4 0.37658182E+03</rscale>
<asrwt>0</asrwt>
<pdfrwt beam="1">  1       21 0.38496376E-02 0.37658182E+03</pdfrwt>
<pdfrwt beam="2">  1        2 0.47276754E+00 0.37658182E+03</pdfrwt>
<totfact> 0.96844938E+03</totfact>
</mgrwt>
</event>
<event>
 5    0  0.3188794E-002  0.3527495E+03  0.7546771E-02  0.1061492E+00
          2   -1    0    0  503    0 -0.00000000000E+00  0.00000000000E+00  0.85684368106E+02  0.85684368106E+02  0.00000000000E+00 0.  1.
         21   -1    0    0  501  502  0.00000000000E+00 -0.00000000000E+00 -0.88402489440E+03  0.88402489440E+03  0.00000000000E+00 0. -1.
         25    1    1    2    0    0 -0.53462342506E+02  0.21603415586E+03 -0.24302699463E+03  0.35244304318E+03  0.12500000000E+03 0.  0.
         21    1    1    2  503  502 -0.18943993280E+02 -0.95624354358E+02 -0.95505836750E+02  0.13647071803E+03  0.00000000000E+00 0.  1.
          2    1    1    2  501    0  0.72406335786E+02 -0.12040980151E+03 -0.45980769491E+03  0.48079550129E+03  0.00000000000E+00 0.  1.
<mgrwt>
<rscale>  4 0.35274947E+03</rscale>
<asrwt>0</asrwt>
<pdfrwt beam="1">  1       21 0.13600382E+00 0.35274947E+03</pdfrwt>
<pdfrwt beam="2">  1        2 0.13182211E-01 0.35274947E+03</pdfrwt>
<totfact> 0.20215051E+03</totfact>
</mgrwt>
</event>
<event>
 5    0  0.3188794E-002  0.5771394E+03  0.7546771E-02  0.9954004E-01
         21   -1    0    0  503  502  0.00000000000E+00  0.00000000000E+00  0.42792269715E+03  0.42792269715E+03  0.00000000000E+00 0.  1.
         -4   -1    0    0    0  501 -0.00000000000E+00 -0.00000000000E+00 -0.23959535698E+03  0.23959535698E+03  0.00000000000E+00 0. -1.
         25    1    1    2    0    0 -0.19708101933E+03 -0.50573213802E+02 -0.62217441591E+02  0.24676828843E+03  0.12500000000E+03 0.  0.
         21    1    1    2  503  501  0.25904398803E+03  0.62666158757E+02  0.23594712668E+03  0.35595207792E+03  0.00000000000E+00 0.  1.
         -4    1    1    2    0  502 -0.61962968696E+02 -0.12092944955E+02  0.14597655075E+02  0.64797687775E+02  0.00000000000E+00 0. -1.
<mgrwt>
<rscale>  4 0.57713936E+03</rscale>
<asrwt>0</asrwt>
<pdfrwt beam="1">  1       21 0.65834261E-01 0.57713936E+03</pdfrwt>
<pdfrwt beam="2">  1       -4 0.36860824E-01 0.57713936E+03</pdfrwt>
<totfact> 0.62059419E+02</totfact>
</mgrwt>
</event>
<event>
 5    0  0.3188794E-002  0.4974592E+03  0.7546771E-02  0.1014444E+00
         21   -1    0    0  501  502  0.00000000000E+00  0.00000000000E+00  0.80088746285E+02  0.80088746285E+02  0.00000000000E+00 0. -1.
          2   -1    0    0  503    0 -0.00000000000E+00 -0.00000000000E+00 -0.99003949079E+03  0.99003949079E+03  0.00000000000E+00 0.  1.
         25    1    1    2    0    0  0.23324821628E+03  0.89406656472E+01 -0.63806524935E+03  0.69082336985E+03  0.12500000000E+03 0.  0.
         21    1    1    2  503  502 -0.21534650241E+03  0.84360372634E+01 -0.27975900421E+03  0.35314357315E+03  0.00000000000E+00 0.  1.
          2    1    1    2  501    0 -0.17901713864E+02 -0.17376702911E+02  0.78735090450E+01  0.26161294081E+02  0.00000000000E+00 0.  1.
<mgrwt>
<rscale>  4 0.49745916E+03</rscale>
<asrwt>0</asrwt>
<pdfrwt beam="1">  1       21 0.12321346E-01 0.49745916E+03</pdfrwt>
<pdfrwt beam="2">  1        2 0.15231376E+00 0.49745916E+03</pdfrwt>
<totfact> 0.18073101E+04</totfact>
</mgrwt>
</event>
<event>
 5    0  0.3188794E-002  0.8665592E+03  0.7546771E-02  0.9468377E-01
         21   -1    0    0  501  502  0.00000000000E+00  0.00000000000E+00  0.64823287511E+03  0.64823287511E+03  0.00000000000E+00 0. -1.
          2   -1    0    0  503    0 -0.00000000000E+00 -0.00000000000E+00 -0.10661672125E+04  0.10661672125E+04  0.00000000000E+00 0. -1.
         25    1    1    2    0    0  0.31637536833E+03  0.12027636538E+03 -0.19598816574E+03  0.41060460161E+03  0.12500000000E+03 0.  0.
         21    1    1    2  503  502 -0.21831050323E+03  0.44417526610E+03 -0.46719337669E+03  0.68060325746E+03  0.00000000000E+00 0. -1.
          2    1    1    2  501    0 -0.98064865103E+02 -0.56445163149E+03  0.24524720509E+03  0.62319222850E+03  0.00000000000E+00 0. -1.
<mgrwt>
<rscale>  4 0.86655919E+03</rscale>
<asrwt>0</asrwt>
<pdfrwt beam="1">  1       21 0.99728136E-01 0.86655919E+03</pdfrwt>
<pdfrwt beam="2">  1        2 0.16402572E+00 0.86655919E+03</pdfrwt>
<totfact> 0.20072128E+02</totfact>
</mgrwt>
</event>
<event>
 5    0  0.3188794E-002  0.4886678E+03  0.7546771E-02  0.1016780E+00
         21   -1    0    0  501  502  0.00000000000E+00  0.00000000000E+00  0.15445146158E+03  0.15445146158E+03  0.00000000000E+00 0.  1.
          2   -1    0    0  503    0 -0.00000000000E+00 -0.00000000000E+00 -0.20090597526E+04  0.20090597526E+04  0.00000000000E+00 0.  1.
         25    1    1    2    0    0  0.20924919436E+03 -0.49107290639E+02 -0.70863313400E+03  0.75098779613E+03  0.12500000000E+03 0.  0.
         21    1    1    2  503  502 -0.11179298826E+03  0.18279938291E+03 -0.12146416019E+04  0.12333967357E+04  0.00000000000E+00 0.  1.
          2    1    1    2  501    0 -0.97456206099E+02 -0.13369209227E+03  0.68666444946E+02  0.17912668228E+03  0.00000000000E+00 0.  1.
<mgrwt>
<rscale>  4 0.48866784E+03</rscale>
<asrwt>0</asrwt>
<pdfrwt beam="1">  1       21 0.23761765E-01 0.48866784E+03</pdfrwt>
<pdfrwt beam="2">  1        2 0.30908610E+00 0.48866784E+03</pdfrwt>
<totfact> 0.14130390E+03</totfact>
</mgrwt>
</event>
<event>
 5    0  0.3188794E-002  0.4465496E+03  0.7546771E-02  0.1028756E+00
         21   -1    0    0  501  502  0.00000000000E+00  0.00000000000E+00  0.58982894172E+03  0.58982894172E+03  0.00000000000E+00 0. -1.
          2   -1    0    0  503    0 -0.00000000000E+00 -0.00000000000E+00 -0.13388886821E+03  0.13388886821E+03  0.00000000000E+00 0.  1.
         25    1    1    2    0    0 -0.22829884404E+03 -0.72945184830E+02  0.21175351659E+03  0.34337430592E+03  0.12500000000E+03 0.  0.
         21    1    1    2  503  502  0.17161817436E+03 -0.19578313778E+02  0.19705760372E+03  0.26204542989E+03  0.00000000000E+00 0. -1.
          2    1    1    2  501    0  0.56680669675E+02  0.92523498609E+02  0.47128953203E+02  0.11829807412E+03  0.00000000000E+00 0.  1.
<mgrwt>
<rscale>  4 0.44654958E+03</rscale>
<asrwt>0</asrwt>
<pdfrwt beam="1">  1       21 0.90742913E-01 0.44654958E+03</pdfrwt>
<pdfrwt beam="2">  1        2 0.20598288E-01 0.44654958E+03</pdfrwt>
<totfact> 0.31862904E+03</totfact>
</mgrwt>
</event>
<event>
 5    0  0.3188794E-002  0.6521919E+03  0.7546771E-02  0.9802675E-01
          1   -1    0    0  503    0 -0.00000000000E+00  0.00000000000E+00  0.11248395473E+04  0.11248395473E+04  0.00000000000E+00 0.  1.
         21   -1    0    0  501  502  0.00000000000E+00 -0.00000000000E+00 -0.24040317634E+03  0.24040317634E+03  0.00000000000E+00 0.  1.
         25    1    1    2    0    0 -0.15477769962E+03  0.20068635344E+03  0.20600658024E+03  0.34970681986E+03  0.12500000000E+03 0.  0.
         21    1    1    2  503  502  0.26144964321E+03 -0.12027561695E+03  0.79044346389E+03  0.84120331049E+03  0.00000000000E+00 0.  1.
          1    1    1    2  501    0 -0.10667194359E+03 -0.80410736488E+02 -0.11201367319E+03  0.17433259327E+03  0.00000000000E+00 0.  1.
<mgrwt>
<rscale>  4 0.65219188E+03</rscale>
<asrwt>0</asrwt>
<pdfrwt beam="1">  1       21 0.36985105E-01 0.65219188E+03</pdfrwt>
<pdfrwt beam="2">  1        1 0.17305223E+00 0.65219188E+03</pdfrwt>
<totfact> 0.89525476E+02</totfact>
</mgrwt>
</event>
<event>
 5    0  0.3188794E-002  0.3872356E+03  0.7546771E-02  0.1048291E+00
          2   -1    0    0  503    0 -0.00000000000E+00  0.00000000000E+00  0.64519300982E+03  0.64519300982E+03  0.00000000000E+00 0.  1.
         21   -1    0    0  501  502  0.00000000000E+00 -0.00000000000E+00 -0.28072977876E+03  0.28072977876E+03  0.00000000000E+00 0.  1.
         25    1    1    2    0    0  0.81632329034E+02  0.19016705049E+03  0.47274195315E+03  0.53097768173E+03  0.12500000000E+03 0.  0.
         21    1    1    2  503  502 -0.86837632334E+02 -0.91275410242E+02  0.10227125816E+03  0.16226948312E+03  0.00000000000E+00 0. -1.
          2    1    1    2  501    0  0.52053033002E+01 -0.98891640245E+02 -0.21054998026E+03  0.23267562373E+03  0.00000000000E+00 0.  1.
<mgrwt>
<rscale>  4 0.38723564E+03</rscale>
<asrwt>0</asrwt>
<pdfrwt beam="1">  1       21 0.43189197E-01 0.38723564E+03</pdfrwt>
<pdfrwt beam="2">  1        2 0.99260463E-01 0.38723564E+03</pdfrwt>
<totfact> 0.28347331E+03</totfact>
</mgrwt>
</event>
<event>
 5    0  0.3188794E-002  0.3778005E+03  0.7546771E-02  0.1051750E+00
          2   -1    0    0  503    0 -0.00000000000E+00  0.00000000000E+00  0.36730777976E+03  0.36730777976E+03  0.00000000000E+00 0.  1.
         21   -1    0    0  501  502  0.00000000000E+00 -0.00000000000E+00 -0.20873157488E+03  0.20873157488E+03  0.00000000000E+00 0.  1.
         25    1    1    2    0    0 -0.18583040726E+03 -0.81135354321E+02  0.12584206929E+03  0.26940139641E+03  0.12500000000E+03 0.  0.
         21    1    1    2  503  502  0.12637226730E+03  0.45207715270E+02  0.13017143900E+03  0.18697136410E+03  0.00000000000E+00 0. -1.
          2    1    1    2  501    0  0.59458139961E+02  0.35927639051E+02 -0.97437303413E+02  0.11966659413E+03  0.00000000000E+00 0.  1.
<mgrwt>
<rscale>  4 0.37780045E+03</rscale>
<asrwt>0</asrwt>
<pdfrwt beam="1">  1       21 0.32112550E-01 0.37780045E+03</pdfrwt>
<pdfrwt beam="2">  1        2 0.56508889E-01 0.37780045E+03</pdfrwt>
<totfact> 0.98555504E+03</totfact>
</mgrwt>
</event>
<event>
 5    0  0.3188794E-002  0.5397226E+03  0.7546771E-02  0.1003901E+00
         21   -1    0    0  501  502  0.00000000000E+00  0.00000000000E+00  0.35874063266E+03  0.35874063266E+03  0.00000000000E+00 0.  1.
          3   -1    0    0  503    0 -0.00000000000E+00 -0.00000000000E+00 -0.56212135302E+03  0.56212135302E+03  0.00000000000E+00 0.  1.
         25    1    1    2    0    0 -0.52471784257E+02  0.19919732914E+03 -0.50412374271E+02  0.24616919295E+03  0.12500000000E+03 0.  0.
         21    1    1    2  503  502  0.83688644779E+02 -0.21391773361E+03 -0.38055325388E+03  0.44450575368E+03  0.00000000000E+00 0.  1.
          3    1    1    2  501    0 -0.31216860522E+02  0.14720404475E+02  0.22758490779E+03  0.23018703904E+03  0.00000000000E+00 0.  1.
<mgrwt>
<rscale>  4 0.53972262E+03</rscale>
<asrwt>0</asrwt>
<pdfrwt beam="1">  1       21 0.55190867E-01 0.53972262E+03</pdfrwt>
<pdfrwt beam="2">  1        3 0.86480208E-01 0.53972262E+03</pdfrwt>
<totfact> 0.18021381E+02</totfact>
</mgrwt>
</event>
<event>
 5    0  0.3188794E-002  0.3828059E+03  0.7546771E-02  0.1049902E+00
          2   -1    0    0  503    0 -0.00000000000E+00  0.00000000000E+00  0.13387779222E+04  0.13387779222E+04  0.00000000000E+00 0. -1.
         21   -1    0    0  501  502  0.00000000000E+00 -0.00000000000E+00 -0.61461734622E+02  0.61461734622E+02  0.00000000000E+00 0.  1.
         25    1    1    2    0    0  0.20931573693E+03 -0.39993198709E+02  0.81798830052E+03  0.85448369994E+03  0.12500000000E+03 0.  0.
         21    1    1    2  503  502 -0.13258368103E+03  0.29135129187E+02  0.44715907873E+03  0.46730988639E+03  0.00000000000E+00 0. -1.
          2    1    1    2  501    0 -0.76732055908E+02  0.10858069522E+02  0.12168808310E+02  0.78446070477E+02  0.00000000000E+00 0. -1.
<mgrwt>
<rscale>  4 0.38280595E+03</rscale>
<asrwt>0</asrwt>
<pdfrwt beam="1">  1       21 0.94556525E-02 0.38280595E+03</pdfrwt>
<pdfrwt beam="2">  1        2 0.20596581E+00 0.38280595E+03</pdfrwt>
<totfact> 0.18431852E+04</totfact>
</mgrwt>
</event>
<event>
 5    0  0.3188794E-002  0.4229784E+03  0.7546771E-02  0.1036101E+00
         21   -1    0    0  501  502  0.00000000000E+00  0.00000000000E+00  0.14137142489E+03  0.14137142489E+03  0.00000000000E+00 0.  1.
          2   -1    0    0  503    0 -0.00000000000E+00 -0.00000000000E+00 -0.57263609684E+03  0.57263609684E+03  0.00000000000E+00 0. -1.
         25    1    1    2    0    0  0.20015666778E+03 -0.61337539535E-01 -0.40034073563E+03  0.46471539680E+03  0.12500000000E+03 0.  0.
         21    1    1    2  503  502 -0.15727810143E+03 -0.11204094486E+02 -0.85190151329E+02  0.17921856714E+03  0.00000000000E+00 0.  1.
          2    1    1    2  501    0 -0.42878566346E+02  0.11265432025E+02  0.54266215012E+02  0.70073557797E+02  0.00000000000E+00 0. -1.
<mgrwt>
<rscale>  4 0.42297838E+03</rscale>
<asrwt>0</asrwt>
<pdfrwt beam="1">  1       21 0.21749450E-01 0.42297838E+03</pdfrwt>
<pdfrwt beam="2">  1        2 0.88097861E-01 0.42297838E+03</pdfrwt>
<totfact> 0.12717304E+04</totfact>
</mgrwt>
</event>
<event>
 5    0  0.3188794E-002  0.4308279E+03  0.7546771E-02  0.1033599E+00
         21   -1    0    0  503  502  0.00000000000E+00  0.00000000000E+00  0.41029187224E+02  0.41029187224E+02  0.00000000000E+00 0.  1.
          2   -1    0    0  502    0 -0.00000000000E+00 -0.00000000000E+00 -0.29897336048E+04  0.29897336048E+04  0.00000000000E+00 0.  1.
         25    1    1    2    0    0  0.44353242012E+01 -0.23133145413E+03 -0.14274600651E+04  0.14514823978E+04  0.12500000000E+03 0.  0.
         21    1    1    2  503  501 -0.16079790881E+03  0.22106052858E+02 -0.62728992520E+03  0.64794852829E+03  0.00000000000E+00 0. -1.
          2    1    1    2  501    0  0.15636258461E+03  0.20922540127E+03 -0.89395442734E+03  0.93133186597E+03  0.00000000000E+00 0.  1.
<mgrwt>
<rscale>  4 0.43082791E+03</rscale>
<asrwt>0</asrwt>
<pdfrwt beam="1">  1       21 0.63121828E-02 0.43082791E+03</pdfrwt>
<pdfrwt beam="2">  1        2 0.45995901E+00 0.43082791E+03</pdfrwt>
<totfact> 0.45737605E+03</totfact>
</mgrwt>
</event>
<event>
 5    0  0.3188794E-002  0.4304843E+03  0.7546771E-02  0.1033707E+00
         21   -1    0    0  501  502  0.00000000000E+00  0.00000000000E+00  0.18520480319E+02  0.18520480319E+02  0.00000000000E+00 0. -1.
          2   -1    0    0  503    0 -0.00000000000E+00 -0.00000000000E+00 -0.28750971191E+04  0.28750971191E+04  0.00000000000E+00 0.  1.
         25    1    1    2    0    0  0.58583975993E+02 -0.19738912409E+03 -0.14160150277E+04  0.14363558429E+04  0.12500000000E+03 0.  0.
         21    1    1    2  503  502 -0.44947065719E+02  0.18126279408E+03 -0.13896658186E+04  0.14021581675E+04  0.00000000000E+00 0.  1.
          2    1    1    2  501    0 -0.13636910273E+02  0.16126330002E+02 -0.50895792473E+02  0.55103589108E+02  0.00000000000E+00 0.  1.
<mgrwt>
<rscale>  4 0.43048435E+03</rscale>
<asrwt>0</asrwt>
<pdfrwt beam="1">  1       21 0.28493059E-02 0.43048435E+03</pdfrwt>
<pdfrwt beam="2">  1        2 0.44232244E+00 0.43048435E+03</pdfrwt>
<totfact> 0.20857681E+04</totfact>
</mgrwt>
</event>
<event>
 5    0  0.3188794E-002  0.7910959E+03  0.7546771E-02  0.9572996E-01
         21   -1    0    0  503  502  0.00000000000E+00  0.00000000000E+00  0.53833846507E+03  0.53833846507E+03  0.00000000000E+00 0.  1.
         -4   -1    0    0    0  501 -0.00000000000E+00 -0.00000000000E+00 -0.10773516996E+04  0.10773516996E+04  0.00000000000E+00 0.  1.
         25    1    1    2    0    0 -0.54555892589E+03  0.12636797806E+03 -0.17511866987E+03  0.59991245698E+03  0.12500000000E+03 0.  0.
         21    1    1    2  503  501 -0.18193143623E+03 -0.91170030493E+02 -0.16162264777E+03  0.25987093378E+03  0.00000000000E+00 0.  1.
         -4    1    1    2    0  502  0.72749036213E+03 -0.35197947563E+02 -0.20227191690E+03  0.75590677393E+03  0.00000000000E+00 0.  1.
<mgrwt>
<rscale>  4 0.79109593E+03</rscale>
<asrwt>0</asrwt>
<pdfrwt beam="1">  1       21 0.82821303E-01 0.79109593E+03</pdfrwt>
<pdfrwt beam="2">  1       -4 0.16574641E+00 0.79109593E+03</pdfrwt>
<totfact> 0.11213076E+01</totfact>
</mgrwt>
</event>
<event>
 5    0  0.3188794E-002  0.4228936E+03  0.7546771E-02  0.1036129E+00
         21   -1    0    0  501  502  0.00000000000E+00  0.00000000000E+00  0.13279639376E+04  0.13279639376E+04  0.00000000000E+00 0.  1.
          2   -1    0    0  503    0 -0.00000000000E+00 -0.00000000000E+00 -0.10509566564E+03  0.10509566564E+03  0.00000000000E+00 0.  1.
         25    1    1    2    0    0 -0.25579324810E+03  0.86087149122E+02  0.39522944421E+03  0.49464380779E+03  0.12500000000E+03 0.  0.
         21    1    1    2  503  502  0.71796219069E+02  0.71111075666E+02  0.30804733010E+02  0.10564285935E+03  0.00000000000E+00 0.  1.
          2    1    1    2  501    0  0.18399702903E+03 -0.15719822479E+03  0.79683409470E+03  0.83277293606E+03  0.00000000000E+00 0.  1.
<mgrwt>
<rscale>  4 0.42289356E+03</rscale>
<asrwt>0</asrwt>
<pdfrwt beam="1">  1       21 0.20430213E+00 0.42289356E+03</pdfrwt>
<pdfrwt beam="2">  1        2 0.16168565E-01 0.42289356E+03</pdfrwt>
<totfact> 0.49016168E+02</totfact>
</mgrwt>
</event>
<event>
 5    0  0.3188794E-002  0.5058912E+03  0.7546771E-02  0.1012253E+00
          3   -1    0    0  503    0 -0.00000000000E+00  0.00000000000E+00  0.45282372489E+02  0.45282372489E+02  0.00000000000E+00 0.  1.
         21   -1    0    0  501  502  0.00000000000E+00 -0.00000000000E+00 -0.19743524466E+04  0.19743524466E+04  0.00000000000E+00 0. -1.
         25    1    1    2    0    0 -0.12436272051E+03  0.16290272831E+03 -0.11043862164E+04  0.11301757828E+04  0.12500000000E+03 0.  0.
         21    1    1    2  503  502  0.20500816938E+03 -0.11839738527E+03 -0.52432797200E+03  0.57529654316E+03  0.00000000000E+00 0.  1.
          3    1    1    2  501    0 -0.80645448871E+02 -0.44505343046E+02 -0.30035588568E+03  0.31416249306E+03  0.00000000000E+00 0.  1.
<mgrwt>
<rscale>  4 0.50589124E+03</rscale>
<asrwt>0</asrwt>
<pdfrwt beam="1">  1       21 0.30374651E+00 0.50589124E+03</pdfrwt>
<pdfrwt beam="2">  1        3 0.69665194E-02 0.50589124E+03</pdfrwt>
<totfact> 0.18558249E+02</totfact>
</mgrwt>
</event>
<event>
 5    0  0.3188794E-002  0.3589493E+03  0.7546771E-02  0.1059001E+00
          2   -1    0    0  503    0 -0.00000000000E+00  0.00000000000E+00  0.13325845204E+04  0.13325845204E+04  0.00000000000E+00 0. -1.
         21   -1    0    0  501  502  0.00000000000E+00 -0.00000000000E+00 -0.14028865252E+03  0.14028865252E+03  0.00000000000E+00 0. -1.
         25    1    1    2    0    0 -0.23916476269E+03  0.97864471213E+02  0.70035419558E+02  0.29547791530E+03  0.12500000000E+03 0.  0.
         21    1    1    2  503  502 -0.12029339160E+02 -0.59932552900E+02  0.61777276061E+02  0.86908271961E+02  0.00000000000E+00 0.  1.
          2    1    1    2  501    0  0.25119410185E+03 -0.37931918313E+02  0.10604831723E+04  0.10904869856E+04  0.00000000000E+00 0. -1.
<mgrwt>
<rscale>  4 0.35894931E+03</rscale>
<asrwt>0</asrwt>
<pdfrwt beam="1">  1       21 0.21582870E-01 0.35894931E+03</pdfrwt>
<pdfrwt beam="2">  1        2 0.20501299E+00 0.35894931E+03</pdfrwt>
<totfact> 0.40805056E+03</totfact>
</mgrwt>
</event>
<event>
 5    0  0.3188794E-002  0.5237897E+03  0.7546771E-02  0.1007749E+00
          2   -1    0    0  503    0 -0.00000000000E+00  0.00000000000E+00  0.11371642844E+04  0.11371642844E+04  0.00000000000E+00 0. -1.
         21   -1    0    0  501  502  0.00000000000E+00 -0.00000000000E+00 -0.17385891815E+03  0.17385891815E+03  0.00000000000E+00 0. -1.
         25    1    1    2    0    0  0.73654596280E+02  0.32989450193E+03  0.27927798775E+03  0.45593483789E+03  0.12500000000E+03 0.  0.
         21    1    1    2  503  502  0.14726204312E+03 -0.47866439604E+02  0.20927441136E+03  0.26033264227E+03  0.00000000000E+00 0. -1.
          2    1    1    2  501    0 -0.22091663940E+03 -0.28202806233E+03  0.47475296712E+03  0.59475572237E+03  0.00000000000E+00 0. -1.
<mgrwt>
<rscale>  4 0.52378971E+03</rscale>
<asrwt>0</asrwt>
<pdfrwt beam="1">  1       21 0.26747527E-01 0.52378971E+03</pdfrwt>
<pdfrwt beam="2">  1        2 0.17494835E+00 0.52378971E+03</pdfrwt>
<totfact> 0.33725139E+03</totfact>
</mgrwt>
</event>
<event>
 5    0  0.3188794E-002  0.4721705E+03  0.7546771E-02  0.1021309E+00
         21   -1    0    0  501  502  0.00000000000E+00  0.00000000000E+00  0.23603716481E+03  0.23603716481E+03  0.00000000000E+00 0.  1.
          2   -1    0    0  503    0 -0.00000000000E+00 -0.00000000000E+00 -0.51527702861E+03  0.51527702861E+03  0.00000000000E+00 0. -1.
         25    1    1    2    0    0  0.66077077663E+02 -0.20900568392E+03 -0.18600696066E+03  0.31348547896E+03  0.12500000000E+03 0.  0.
         21    1    1    2  503  502 -0.11399387275E+02  0.21752456348E+03 -0.21377016208E+03  0.30519594352E+03  0.00000000000E+00 0. -1.
          2    1    1    2  501    0 -0.54677690388E+02 -0.85188795591E+01  0.12053725894E+03  0.13263277094E+03  0.00000000000E+00 0. -1.
<mgrwt>
<rscale>  4 0.47217047E+03</rscale>
<asrwt>0</asrwt>
<pdfrwt beam="1">  1       21 0.36313410E-01 0.47217047E+03</pdfrwt>
<pdfrwt beam="2">  1        2 0.79273389E-01 0.47217047E+03</pdfrwt>
<totfact> 0.51964377E+03</totfact>
</mgrwt>
</event>
<event>
 5    0  0.3188794E-002  0.6486072E+03  0.7546771E-02  0.9809396E-01
         -3   -1    0    0    0  501 -0.00000000000E+00  0.00000000000E+00  0.36347315364E+03  0.36347315364E+03  0.00000000000E+00 0. -1.
         21   -1    0    0  503  502  0.00000000000E+00 -0.00000000000E+00 -0.10817491441E+04  0.10817491441E+04  0.00000000000E+00 0. -1.
         25    1    1    2    0    0  0.39701539647E+03  0.54776326055E+02 -0.30665896151E+02  0.42093594301E+03  0.12500000000E+03 0.  0.
         21    1    1    2  503  501  0.43942569376E+02 -0.22270978413E+03 -0.52356708628E+02  0.23296313504E+03  0.00000000000E+00 0.  1.
         -3    1    1    2    0  502 -0.44095796585E+03  0.16793345808E+03 -0.63525338569E+03  0.79132321969E+03  0.00000000000E+00 0. -1.
<mgrwt>
<rscale>  4 0.64860716E+03</rscale>
<asrwt>0</asrwt>
<pdfrwt beam="1">  1       21 0.16642294E+00 0.64860716E+03</pdfrwt>
<pdfrwt beam="2">  1       -3 0.55918947E-01 0.64860716E+03</pdfrwt>
<totfact> 0.30623627E+01</totfact>
</mgrwt>
</event>
<event>
 5    0  0.3188794E-002  0.3978225E+03  0.7546771E-02  0.1044536E+00
         21   -1    0    0  501  502  0.00000000000E+00  0.00000000000E+00  0.80267360594E+02  0.80267360594E+02  0.00000000000E+00 0.  1.
          2   -1    0    0  503    0 -0.00000000000E+00 -0.00000000000E+00 -0.23479946535E+04  0.23479946535E+04  0.00000000000E+00 0.  1.
         25    1    1    2    0    0 -0.15098561198E+03  0.17019343645E+03 -0.92477732735E+03  0.96052098677E+03  0.12500000000E+03 0.  0.
         21    1    1    2  503  502  0.29428484185E+02 -0.12557267917E+02 -0.12458491862E+04  0.12462599711E+04  0.00000000000E+00 0. -1.
          2    1    1    2  501    0  0.12155712780E+03 -0.15763616853E+03 -0.97100779370E+02  0.22148105630E+03  0.00000000000E+00 0.  1.
<mgrwt>
<rscale>  4 0.39782249E+03</rscale>
<asrwt>0</asrwt>
<pdfrwt beam="1">  1       21 0.12348825E-01 0.39782249E+03</pdfrwt>
<pdfrwt beam="2">  1        2 0.36122994E+00 0.39782249E+03</pdfrwt>
<totfact> 0.32433051E+03</totfact>
</mgrwt>
</event>
<event>
 5    0  0.3188794E-002  0.4858874E+03  0.7546771E-02  0.1017530E+00
         21   -1    0    0  501  502  0.00000000000E+00  0.00000000000E+00  0.36338164643E+03  0.36338164643E+03  0.00000000000E+00 0.  1.
         -4   -1    0    0    0  501 -0.00000000000E+00 -0.00000000000E+00 -0.37768740631E+03  0.37768740631E+03  0.00000000000E+00 0. -1.
         25    1    1    2    0    0 -0.25234490815E+03  0.76708176490E+02 -0.24281587630E+03  0.37966649417E+03  0.12500000000E+03 0.  0.
         21    1    1    2  503  502  0.66152354753E+02 -0.64409044618E+02  0.90749477267E+02  0.12946090797E+03  0.00000000000E+00 0.  1.
         -4    1    1    2    0  503  0.18619255340E+03 -0.12299131873E+02  0.13776063916E+03  0.23194165061E+03  0.00000000000E+00 0. -1.
<mgrwt>
<rscale>  4 0.48588736E+03</rscale>
<asrwt>0</asrwt>
<pdfrwt beam="1">  1       21 0.55904869E-01 0.48588736E+03</pdfrwt>
<pdfrwt beam="2">  1       -4 0.58105755E-01 0.48588736E+03</pdfrwt>
<totfact> 0.34967869E+02</totfact>
</mgrwt>
</event>
<event>
 5    0  0.3188794E-002  0.4476790E+03  0.7546771E-02  0.1028416E+00
         21   -1    0    0  501  502  0.00000000000E+00  0.00000000000E+00  0.30227569248E+03  0.30227569248E+03  0.00000000000E+00 0. -1.
          2   -1    0    0  503    0 -0.00000000000E+00 -0.00000000000E+00 -0.44677642174E+03  0.44677642174E+03  0.00000000000E+00 0. -1.
         25    1    1    2    0    0 -0.20068270299E+03 -0.22814105536E+03 -0.17220795344E+03  0.37094806598E+03  0.12500000000E+03 0.  0.
         21    1    1    2  503  502 -0.38414647096E+02  0.79187353903E+02  0.38799770550E+02  0.96185988191E+02  0.00000000000E+00 0.  1.
          2    1    1    2  501    0  0.23909735009E+03  0.14895370146E+03 -0.11092546363E+02  0.28191806005E+03  0.00000000000E+00 0. -1.
<mgrwt>
<rscale>  4 0.44767899E+03</rscale>
<asrwt>0</asrwt>
<pdfrwt beam="1">  1       21 0.46503953E-01 0.44767899E+03</pdfrwt>
<pdfrwt beam="2">  1        2 0.68734834E-01 0.44767899E+03</pdfrwt>
<totfact> 0.36770287E+03</totfact>
</mgrwt>
</event>
<event>
 5    0  0.3188794E-002  0.4440741E+03  0.7546771E-02  0.1029504E+00
          2   -1    0    0  503    0 -0.00000000000E+00  0.00000000000E+00  0.25305425054E+04  0.25305425054E+04  0.00000000000E+00 0. -1.
         21   -1    0    0  501  502  0.00000000000E+00 -0.00000000000E+00 -0.97119651881E+02  0.97119651881E+02  0.00000000000E+00 0. -1.
         25    1    1    2    0    0  0.51431802012E+02 -0.22662380499E+03  0.11848539839E+04  0.12138811896E+04  0.12500000000E+03 0.  0.
         21    1    1    2  503  502 -0.28433377335E+02  0.16115847204E+03  0.13105584301E+04  0.13207361238E+04  0.00000000000E+00 0. -1.
          2    1    1    2  501    0 -0.22998424677E+02  0.65465332948E+02 -0.61989560510E+02  0.93044843854E+02  0.00000000000E+00 0. -1.
<mgrwt>
<rscale>  4 0.44407410E+03</rscale>
<asrwt>0</asrwt>
<pdfrwt beam="1">  1       21 0.14941487E-01 0.44407410E+03</pdfrwt>
<pdfrwt beam="2">  1        2 0.38931418E+00 0.44407410E+03</pdfrwt>
<totfact> 0.17870541E+03</totfact>
</mgrwt>
</event>
<event>
 5    0  0.3188794E-002  0.3719338E+03  0.7546771E-02  0.1053956E+00
         21   -1    0    0  501  502  0.00000000000E+00  0.00000000000E+00  0.19309452195E+03  0.19309452195E+03  0.00000000000E+00 0.  1.
          2   -1    0    0  503    0 -0.00000000000E+00 -0.00000000000E+00 -0.36373761534E+03  0.36373761534E+03  0.00000000000E+00 0. -1.
         25    1    1    2    0    0  0.93455544456E+02 -0.18316988045E+03 -0.12034199797E+03  0.26905824717E+03  0.12500000000E+03 0.  0.
         21    1    1    2  503  502 -0.45746774401E+02  0.11591512655E+03 -0.12500477999E+03  0.17650858039E+03  0.00000000000E+00 0. -1.
          2    1    1    2  501    0 -0.47708770055E+02  0.67254753904E+02  0.74703684568E+02  0.11126530974E+03  0.00000000000E+00 0. -1.
<mgrwt>
<rscale>  4 0.37193381E+03</rscale>
<asrwt>0</asrwt>
<pdfrwt beam="1">  1       21 0.29706850E-01 0.37193381E+03</pdfrwt>
<pdfrwt beam="2">  1        2 0.55959633E-01 0.37193381E+03</pdfrwt>
<totfact> 0.11636638E+04</totfact>
</mgrwt>
</event>
<event>
 5    0  0.3188794E-002  0.4318475E+03  0.7546771E-02  0.1033278E+00
         21   -1    0    0  503  502  0.00000000000E+00  0.00000000000E+00  0.16718112260E+03  0.16718112260E+03  0.00000000000E+00 0.  1.
         -4   -1    0    0    0  501 -0.00000000000E+00 -0.00000000000E+00 -0.11707125297E+04  0.11707125297E+04  0.00000000000E+00 0. -1.
         25    1    1    2    0    0  0.34999348012E+01 -0.24975805755E+03 -0.56240655804E+03  0.62794703071E+03  0.12500000000E+03 0.  0.
         21    1    1    2  503  501 -0.13997453603E+03  0.41688680394E+02 -0.43734179171E+03  0.46108422180E+03  0.00000000000E+00 0. -1.
         -4    1    1    2    0  502  0.13647460123E+03  0.20806937715E+03 -0.37830573110E+01  0.24886239975E+03  0.00000000000E+00 0. -1.
<mgrwt>
<rscale>  4 0.43184755E+03</rscale>
<asrwt>0</asrwt>
<pdfrwt beam="1">  1       21 0.25720173E-01 0.43184755E+03</pdfrwt>
<pdfrwt beam="2">  1       -4 0.18010962E+00 0.43184755E+03</pdfrwt>
<totfact> 0.11259170E+02</totfact>
</mgrwt>
</event>
<event>
 5    0  0.3188794E-002  0.3977827E+03  0.7546771E-02  0.1044550E+00
          2   -1    0    0  503    0 -0.00000000000E+00  0.00000000000E+00  0.36693994444E+03  0.36693994444E+03  0.00000000000E+00 0. -1.
         21   -1    0    0  501  502  0.00000000000E+00 -0.00000000000E+00 -0.22806831722E+03  0.22806831722E+03  0.00000000000E+00 0. -1.
         25    1    1    2    0    0 -0.21919992456E+03 -0.58633338376E+02  0.97457945635E+02  0.27678425979E+03  0.12500000000E+03 0.  0.
         21    1    1    2  503  502  0.12837730201E+03 -0.23699413947E+02  0.11607770784E+03  0.17468951929E+03  0.00000000000E+00 0. -1.
          2    1    1    2  501    0  0.90822622552E+02  0.82332752323E+02 -0.74664026250E+02  0.14353448258E+03  0.00000000000E+00 0. -1.
<mgrwt>
<rscale>  4 0.39778273E+03</rscale>
<asrwt>0</asrwt>
<pdfrwt beam="1">  1       21 0.35087433E-01 0.39778273E+03</pdfrwt>
<pdfrwt beam="2">  1        2 0.56452299E-01 0.39778273E+03</pdfrwt>
<totfact> 0.82372547E+03</totfact>
</mgrwt>
</event>
<event>
 5    0  0.3188794E-002  0.6794026E+03  0.7546771E-02  0.9753120E-01
          2   -1    0    0  503    0 -0.00000000000E+00  0.00000000000E+00  0.89959818633E+03  0.89959818633E+03  0.00000000000E+00 0.  1.
         21   -1    0    0  501  502  0.00000000000E+00 -0.00000000000E+00 -0.18241325082E+03  0.18241325082E+03  0.00000000000E+00 0. -1.
         25    1    1    2    0    0  0.27354367678E+03 -0.21981118429E+02  0.62247411517E+03  0.69167068518E+03  0.12500000000E+03 0.  0.
         21    1    1    2  503  502 -0.29928334176E+03  0.23865100777E+02  0.14530286889E+03  0.33354607687E+03  0.00000000000E+00 0. -1.
          2    1    1    2  501    0  0.25739664978E+02 -0.18839823478E+01 -0.50592048548E+02  0.56794675093E+02  0.00000000000E+00 0.  1.
<mgrwt>
<rscale>  4 0.67940261E+03</rscale>
<asrwt>0</asrwt>
<pdfrwt beam="1">  1       21 0.28063578E-01 0.67940261E+03</pdfrwt>
<pdfrwt beam="2">  1        2 0.13839972E+00 0.67940261E+03</pdfrwt>
<totfact> 0.42346057E+03</totfact>
</mgrwt>
</event>
<event>
 5    0  0.3188794E-002  0.5689779E+03  0.7546771E-02  0.9971943E-01
         21   -1    0    0  501  502  0.00000000000E+00  0.00000000000E+00  0.20266060762E+03  0.20266060762E+03  0.00000000000E+00 0.  1.
          2   -1    0    0  503    0 -0.00000000000E+00 -0.00000000000E+00 -0.18272803729E+04  0.18272803729E+04  0.00000000000E+00 0.  1.
         25    1    1    2    0    0  0.28366596048E+02 -0.35182605805E+03 -0.36232761537E+03  0.52104945999E+03  0.12500000000E+03 0.  0.
         21    1    1    2  503  502 -0.33505277622E+01 -0.16452999167E+03 -0.23083639883E+02  0.16617520460E+03  0.00000000000E+00 0.  1.
          2    1    1    2  501    0 -0.25016068285E+02  0.51635604971E+03 -0.12392085101E+04  0.13427163160E+04  0.00000000000E+00 0.  1.
<mgrwt>
<rscale>  4 0.56897795E+03</rscale>
<asrwt>0</asrwt>
<pdfrwt beam="1">  1       21 0.31178556E-01 0.56897795E+03</pdfrwt>
<pdfrwt beam="2">  1        2 0.28112005E+00 0.56897795E+03</pdfrwt>
<totfact> 0.10167682E+03</totfact>
</mgrwt>
</event>
<event>
 5    0  0.3188794E-002  0.4386823E+03  0.7546771E-02  0.1031152E+00
         21   -1    0    0  501  502  0.00000000000E+00  0.00000000000E+00  0.81594515879E+03  0.81594515879E+03  0.00000000000E+00 0. -1.
          2   -1    0    0  503    0 -0.00000000000E+00 -0.00000000000E+00 -0.25665204168E+03  0.25665204168E+03  0.00000000000E+00 0. -1.
         25    1    1    2    0    0  0.20554573856E+03  0.80103924441E+01 -0.44429108926E+02  0.24476961157E+03  0.12500000000E+03 0.  0.
         21    1    1    2  503  502 -0.15601040382E+03  0.12049196084E+03 -0.11423560962E+02  0.19745393506E+03  0.00000000000E+00 0.  1.
          2    1    1    2  501    0 -0.49535334742E+02 -0.12850235328E+03  0.61514578700E+03  0.63037365383E+03  0.00000000000E+00 0. -1.
<mgrwt>
<rscale>  4 0.43868228E+03</rscale>
<asrwt>0</asrwt>
<pdfrwt beam="1">  1       21 0.12553002E+00 0.43868228E+03</pdfrwt>
<pdfrwt beam="2">  1        2 0.39484930E-01 0.43868228E+03</pdfrwt>
<totfact> 0.68876225E+02</totfact>
</mgrwt>
</event>
<event>
 5    0  0.3188794E-002  0.5350289E+03  0.7546771E-02  0.1005020E+00
         21   -1    0    0  501  502  0.00000000000E+00  0.00000000000E+00  0.16414550959E+03  0.16414550959E+03  0.00000000000E+00 0. -1.
          2   -1    0    0  503    0 -0.00000000000E+00 -0.00000000000E+00 -0.13234355499E+04  0.13234355499E+04  0.00000000000E+00 0. -1.
         25    1    1    2    0    0 -0.97492367158E+02 -0.17799776526E+03 -0.31702552773E+03  0.39663352269E+03  0.12500000000E+03 0.  0.
         21    1    1    2  503  502  0.12228536370E+03  0.20121129944E+03 -0.94960566924E+03  0.97836119315E+03  0.00000000000E+00 0. -1.
          2    1    1    2  501    0 -0.24792996537E+02 -0.23213534182E+02  0.10734115670E+03  0.11258634361E+03  0.00000000000E+00 0. -1.
<mgrwt>
<rscale>  4 0.53502886E+03</rscale>
<asrwt>0</asrwt>
<pdfrwt beam="1">  1       21 0.25253155E-01 0.53502886E+03</pdfrwt>
<pdfrwt beam="2">  1        2 0.20360547E+00 0.53502886E+03</pdfrwt>
<totfact> 0.29372968E+03</totfact>
</mgrwt>
</event>
<event>
 5    0  0.3188794E-002  0.4193309E+03  0.7546771E-02  0.1037284E+00
         21   -1    0    0  503  502  0.00000000000E+00  0.00000000000E+00  0.57722291855E+03  0.57722291855E+03  0.00000000000E+00 0. -1.
         -4   -1    0    0    0  501 -0.00000000000E+00 -0.00000000000E+00 -0.26108313697E+03  0.26108313697E+03  0.00000000000E+00 0. -1.
         25    1    1    2    0    0  0.23219067347E+03  0.63111366042E+02  0.66679332961E+02  0.27922515434E+03  0.12500000000E+03 0.  0.
         21    1    1    2  503  501 -0.70810871760E+01 -0.99382401710E+02 -0.10042018696E+03  0.14146101058E+03  0.00000000000E+00 0.  1.
         -4    1    1    2    0  502 -0.22510958630E+03  0.36271035668E+02  0.34988063558E+03  0.41761989060E+03  0.00000000000E+00 0. -1.
<mgrwt>
<rscale>  4 0.41933090E+03</rscale>
<asrwt>0</asrwt>
<pdfrwt beam="1">  1       21 0.88803525E-01 0.41933090E+03</pdfrwt>
<pdfrwt beam="2">  1       -4 0.40166637E-01 0.41933090E+03</pdfrwt>
<totfact> 0.26616453E+02</totfact>
</mgrwt>
</event>
<event>
 5    0  0.3188794E-002  0.6630115E+03  0.7546771E-02  0.9782666E-01
         -1   -1    0    0    0  501 -0.00000000000E+00  0.00000000000E+00  0.39126009828E+03  0.39126009828E+03  0.00000000000E+00 0.  1.
         21   -1    0    0  503  502  0.00000000000E+00 -0.00000000000E+00 -0.30639944021E+03  0.30639944021E+03  0.00000000000E+00 0. -1.
         25    1    1    2    0    0 -0.21165894705E+03  0.21920963638E+03 -0.30168251915E+01  0.32937285223E+03  0.12500000000E+03 0.  0.
         21    1    1    2  503  501  0.23292310474E+03 -0.22698486014E+03  0.10289281093E+03  0.34111908477E+03  0.00000000000E+00 0.  1.
         -1    1    1    2    0  502 -0.21264157682E+02  0.77752237583E+01 -0.15015327665E+02  0.27167601501E+02  0.00000000000E+00 0.  1.
<mgrwt>
<rscale>  4 0.66301148E+03</rscale>
<asrwt>0</asrwt>
<pdfrwt beam="1">  1       21 0.47138375E-01 0.66301148E+03</pdfrwt>
<pdfrwt beam="2">  1       -1 0.60193862E-01 0.66301148E+03</pdfrwt>
<totfact> 0.10460141E+03</totfact>
</mgrwt>
</event>
<event>
 5    0  0.3188794E-002  0.4247974E+03  0.7546771E-02  0.1035516E+00
         21   -1    0    0  503  502  0.00000000000E+00  0.00000000000E+00  0.53116396761E+03  0.53116396761E+03  0.00000000000E+00 0. -1.
         -2   -1    0    0    0  501 -0.00000000000E+00 -0.00000000000E+00 -0.53196460881E+03  0.53196460881E+03  0.00000000000E+00 0. -1.
         25    1    1    2    0    0 -0.20526514626E+03  0.10278176131E+03 -0.25788078088E+03  0.36718574029E+03  0.12500000000E+03 0.  0.
         21    1    1    2  503  501  0.14440249509E+03 -0.75229288305E+02 -0.18637600717E+03  0.24748240838E+03  0.00000000000E+00 0. -1.
         -2    1    1    2    0  502  0.60862651168E+02 -0.27552473004E+02  0.44345614685E+03  0.44846042775E+03  0.00000000000E+00 0. -1.
<mgrwt>
<rscale>  4 0.42479741E+03</rscale>
<asrwt>0</asrwt>
<pdfrwt beam="1">  1       21 0.81717533E-01 0.42479741E+03</pdfrwt>
<pdfrwt beam="2">  1       -2 0.81840709E-01 0.42479741E+03</pdfrwt>
<totfact> 0.13276521E+02</totfact>
</mgrwt>
</event>
<event>
 5    0  0.3188794E-002  0.7977404E+03  0.7546771E-02  0.9563294E-01
         -1   -1    0    0    0  501 -0.00000000000E+00  0.00000000000E+00  0.51917648107E+03  0.51917648107E+03  0.00000000000E+00 0.  1.
         21   -1    0    0  503  502  0.00000000000E+00 -0.00000000000E+00 -0.11596112133E+04  0.11596112133E+04  0.00000000000E+00 0.  1.
         25    1    1    2    0    0  0.18791544261E+03 -0.35650955477E+03 -0.51641272257E+02  0.42509186915E+03  0.12500000000E+03 0.  0.
         21    1    1    2  503  501 -0.28467765394E+03 -0.23329812952E+03  0.58475222612E+02  0.37267779053E+03  0.00000000000E+00 0.  1.
         -1    1    1    2    0  502  0.96762211332E+02  0.58980768430E+03 -0.64726868256E+03  0.88101803468E+03  0.00000000000E+00 0.  1.
<mgrwt>
<rscale>  4 0.79774039E+03</rscale>
<asrwt>0</asrwt>
<pdfrwt beam="1">  1       21 0.17840172E+00 0.79774039E+03</pdfrwt>
<pdfrwt beam="2">  1       -1 0.79873305E-01 0.79774039E+03</pdfrwt>
<totfact> 0.22021377E+01</totfact>
</mgrwt>
</event>
<event>
 5    0  0.3188794E-002  0.4327911E+03  0.7546771E-02  0.1032982E+00
         -2   -1    0    0    0  501 -0.00000000000E+00  0.00000000000E+00  0.44848938564E+03  0.44848938564E+03  0.00000000000E+00 0. -1.
         21   -1    0    0  503  502  0.00000000000E+00 -0.00000000000E+00 -0.26219856673E+03  0.26219856673E+03  0.00000000000E+00 0. -1.
         25    1    1    2    0    0  0.39886281245E+02 -0.27245590073E+03  0.11508424221E+03  0.32356222907E+03  0.12500000000E+03 0.  0.
         21    1    1    2  503  501 -0.11911656185E+03  0.48769360863E+02  0.76559209677E+02  0.14976153863E+03  0.00000000000E+00 0.  1.
         -2    1    1    2    0  502  0.79230280607E+02  0.22368653987E+03 -0.53526329736E+01  0.23736418467E+03  0.00000000000E+00 0. -1.
<mgrwt>
<rscale>  4 0.43279115E+03</rscale>
<asrwt>0</asrwt>
<pdfrwt beam="1">  1       21 0.40338241E-01 0.43279115E+03</pdfrwt>
<pdfrwt beam="2">  1       -2 0.68998367E-01 0.43279115E+03</pdfrwt>
<totfact> 0.89781772E+02</totfact>
</mgrwt>
</event>
<event>
 5    0  0.3188794E-002  0.5267023E+03  0.7546771E-02  0.1007035E+00
          2   -1    0    0  503    0 -0.00000000000E+00  0.00000000000E+00  0.59568981249E+03  0.59568981249E+03  0.00000000000E+00 0.  1.
         21   -1    0    0  501  502  0.00000000000E+00 -0.00000000000E+00 -0.26683039932E+03  0.26683039932E+03  0.00000000000E+00 0.  1.
         25    1    1    2    0    0  0.14863986446E+03 -0.21359810591E+03  0.13263015097E+03  0.31770067218E+03  0.12500000000E+03 0.  0.
         21    1    1    2  503  502 -0.23107964344E+03 -0.14834796841E+02  0.19379929827E+03  0.30195370642E+03  0.00000000000E+00 0.  1.
          2    1    1    2  501    0  0.82439778979E+02  0.22843290275E+03  0.24299639275E+01  0.24286583321E+03  0.00000000000E+00 0.  1.
<mgrwt>
<rscale>  4 0.52670235E+03</rscale>
<asrwt>0</asrwt>
<pdfrwt beam="1">  1       21 0.41050831E-01 0.52670235E+03</pdfrwt>
<pdfrwt beam="2">  1        2 0.91644586E-01 0.52670235E+03</pdfrwt>
<totfact> 0.33817693E+03</totfact>
</mgrwt>
</event>
<event>
 5    0  0.3188794E-002  0.3963953E+03  0.7546771E-02  0.1045035E+00
          2   -1    0    0  503    0 -0.00000000000E+00  0.00000000000E+00  0.10455874969E+04  0.10455874969E+04  0.00000000000E+00 0. -1.
         21   -1    0    0  501  502  0.00000000000E+00 -0.00000000000E+00 -0.71966835613E+02  0.71966835613E+02  0.00000000000E+00 0.  1.
         25    1    1    2    0    0  0.20976624411E+03  0.53540199919E+02  0.41808224510E+03  0.48712030736E+03  0.12500000000E+03 0.  0.
         21    1    1    2  503  502 -0.11512096717E+03 -0.64358450498E+01  0.49574552279E+03  0.50897728883E+03  0.00000000000E+00 0. -1.
          2    1    1    2  501    0 -0.94645276935E+02 -0.47104354869E+02  0.59792893374E+02  0.12145673630E+03  0.00000000000E+00 0. -1.
<mgrwt>
<rscale>  4 0.39639530E+03</rscale>
<asrwt>0</asrwt>
<pdfrwt beam="1">  1       21 0.11071822E-01 0.39639530E+03</pdfrwt>
<pdfrwt beam="2">  1        2 0.16085960E+00 0.39639530E+03</pdfrwt>
<totfact> 0.20512182E+04</totfact>
</mgrwt>
</event>
<event>
 5    0  0.3188794E-002  0.4915296E+03  0.7546771E-02  0.1016014E+00
         -2   -1    0    0    0  501 -0.00000000000E+00  0.00000000000E+00  0.11974903624E+04  0.11974903624E+04  0.00000000000E+00 0.  1.
         21   -1    0    0  501  502  0.00000000000E+00 -0.00000000000E+00 -0.69791754962E+02  0.69791754962E+02  0.00000000000E+00 0. -1.
         25    1    1    2    0    0  0.21525145139E+03 -0.45655644015E+02  0.37465757356E+03  0.45211826172E+03  0.12500000000E+03 0.  0.
         21    1    1    2  503  502 -0.21892552721E+03 -0.40900946859E+02  0.58802658252E+03  0.62878973884E+03  0.00000000000E+00 0.  1.
         -2    1    1    2    0  503  0.36740758248E+01  0.86556590874E+02  0.16501445134E+03  0.18637411679E+03  0.00000000000E+00 0.  1.
<mgrwt>
<rscale>  4 0.49152957E+03</rscale>
<asrwt>0</asrwt>
<pdfrwt beam="1">  1       21 0.10737194E-01 0.49152957E+03</pdfrwt>
<pdfrwt beam="2">  1       -2 0.18422927E+00 0.49152957E+03</pdfrwt>
<totfact> 0.10250258E+03</totfact>
</mgrwt>
</event>
<event>
 5    0  0.3188794E-002  0.4918714E+03  0.7546771E-02  0.1015923E+00
         21   -1    0    0  501  502  0.00000000000E+00  0.00000000000E+00  0.29644150630E+03  0.29644150630E+03  0.00000000000E+00 0.  1.
          2   -1    0    0  503    0 -0.00000000000E+00 -0.00000000000E+00 -0.87146421986E+03  0.87146421986E+03  0.00000000000E+00 0.  1.
         25    1    1    2    0    0  0.34594771719E+02  0.21573056099E+03 -0.43661199575E+03  0.50397570181E+03  0.12500000000E+03 0.  0.
         21    1    1    2  503  502 -0.12136634207E+03 -0.20604807100E+03 -0.35635050676E+03  0.42915181489E+03  0.00000000000E+00 0. -1.
          2    1    1    2  501    0  0.86771570349E+02 -0.96824899968E+01  0.21793978896E+03  0.23477820947E+03  0.00000000000E+00 0.  1.
<mgrwt>
<rscale>  4 0.49187136E+03</rscale>
<asrwt>0</asrwt>
<pdfrwt beam="1">  1       21 0.45606386E-01 0.49187136E+03</pdfrwt>
<pdfrwt beam="2">  1        2 0.13407142E+00 0.49187136E+03</pdfrwt>
<totfact> 0.16883134E+03</totfact>
</mgrwt>
</event>
<event>
 5    0  0.3188794E-002  0.5102279E+03  0.7546771E-02  0.1011143E+00
         21   -1    0    0  501  502  0.00000000000E+00  0.00000000000E+00  0.26267017432E+03  0.26267017432E+03  0.00000000000E+00 0. -1.
          2   -1    0    0  503    0 -0.00000000000E+00 -0.00000000000E+00 -0.42723096195E+03  0.42723096195E+03  0.00000000000E+00 0.  1.
         25    1    1    2    0    0 -0.20695691874E+03  0.10306060720E+03 -0.27534626307E+03  0.38064841988E+03  0.12500000000E+03 0.  0.
         21    1    1    2  503  502  0.18372846266E+03 -0.15627869587E+02  0.27772636683E+02  0.18647170736E+03  0.00000000000E+00 0. -1.
          2    1    1    2  501    0  0.23228456083E+02 -0.87432737611E+02  0.83012838756E+02  0.12278100902E+03  0.00000000000E+00 0.  1.
<mgrwt>
<rscale>  4 0.51022793E+03</rscale>
<asrwt>0</asrwt>
<pdfrwt beam="1">  1       21 0.40410797E-01 0.51022793E+03</pdfrwt>
<pdfrwt beam="2">  1        2 0.65727839E-01 0.51022793E+03</pdfrwt>
<totfact> 0.51366674E+03</totfact>
</mgrwt>
</event>
<event>
 5    0  0.3188794E-002  0.3589902E+03  0.7546771E-02  0.1058984E+00
          2   -1    0    0  503    0 -0.00000000000E+00  0.00000000000E+00  0.10273747422E+04  0.10273747422E+04  0.00000000000E+00 0.  1.
         21   -1    0    0  501  502  0.00000000000E+00 -0.00000000000E+00 -0.10204548485E+03  0.10204548485E+03  0.00000000000E+00 0. -1.
         25    1    1    2    0    0 -0.20428162327E+03  0.24209521181E+02  0.59012159046E+03  0.63732689732E+03  0.12500000000E+03 0.  0.
         21    1    1    2  503  502  0.16706813486E+02 -0.11558003381E+03  0.23106902423E+03  0.25890298529E+03  0.00000000000E+00 0. -1.
          2    1    1    2  501    0  0.18757480979E+03  0.91370512633E+02  0.10413864267E+03  0.23319034445E+03  0.00000000000E+00 0.  1.
<mgrwt>
<rscale>  4 0.35899022E+03</rscale>
<asrwt>0</asrwt>
<pdfrwt beam="1">  1       21 0.15699306E-01 0.35899022E+03</pdfrwt>
<pdfrwt beam="2">  1        2 0.15805765E+00 0.35899022E+03</pdfrwt>
<totfact> 0.11171591E+04</totfact>
</mgrwt>
</event>
<event>
 5    0  0.3188794E-002  0.4400199E+03  0.7546771E-02  0.1030741E+00
          1   -1    0    0  503    0 -0.00000000000E+00  0.00000000000E+00  0.26046878177E+03  0.26046878177E+03  0.00000000000E+00 0. -1.
         21   -1    0    0  501  502  0.00000000000E+00 -0.00000000000E+00 -0.48134451274E+03  0.48134451274E+03  0.00000000000E+00 0.  1.
         25    1    1    2    0    0  0.94181914053E+02  0.30920387485E+03 -0.19346261901E+03  0.39690055948E+03  0.12500000000E+03 0.  0.
         21    1    1    2  503  502 -0.30854454209E+02 -0.49552627538E+02  0.38139522872E+02  0.69728641499E+02  0.00000000000E+00 0. -1.
          1    1    1    2  501    0 -0.63327459844E+02 -0.25965124731E+03 -0.65552634834E+02  0.27518409354E+03  0.00000000000E+00 0. -1.
<mgrwt>
<rscale>  4 0.44001994E+03</rscale>
<asrwt>0</asrwt>
<pdfrwt beam="1">  1       21 0.74053001E-01 0.44001994E+03</pdfrwt>
<pdfrwt beam="2">  1        1 0.40072121E-01 0.44001994E+03</pdfrwt>
<totfact> 0.17432034E+03</totfact>
</mgrwt>
</event>
<event>
 5    0  0.3188794E-002  0.1399090E+04  0.7546771E-02  0.8954478E-01
          1   -1    0    0  503    0 -0.00000000000E+00  0.00000000000E+00  0.19569542136E+04  0.19569542136E+04  0.00000000000E+00 0.  1.
         21   -1    0    0  501  502  0.00000000000E+00 -0.00000000000E+00 -0.28275936958E+03  0.28275936958E+03  0.00000000000E+00 0. -1.
         25    1    1    2    0    0 -0.38359085782E+03 -0.46085482027E+03  0.27175889789E+03  0.67007985356E+03  0.12500000000E+03 0.  0.
         21    1    1    2  503  502  0.31108391846E+03  0.48982033972E+03  0.13646524145E+04  0.14828935842E+04  0.00000000000E+00 0.  1.
          1    1    1    2  501    0  0.72506939359E+02 -0.28965519450E+02  0.37783531616E+02  0.86740145455E+02  0.00000000000E+00 0.  1.
<mgrwt>
<rscale>  4 0.13990899E+04</rscale>
<asrwt>0</asrwt>
<pdfrwt beam="1">  1       21 0.43501443E-01 0.13990899E+04</pdfrwt>
<pdfrwt beam="2">  1        1 0.30106987E+00 0.13990899E+04</pdfrwt>
<totfact> 0.15289292E+02</totfact>
</mgrwt>
</event>
<event>
 5    0  0.3188794E-002  0.5817567E+03  0.7546771E-02  0.9943995E-01
         21   -1    0    0  503  502  0.00000000000E+00  0.00000000000E+00  0.44367395968E+03  0.44367395968E+03  0.00000000000E+00 0. -1.
         -3   -1    0    0    0  501 -0.00000000000E+00 -0.00000000000E+00 -0.71758648346E+03  0.71758648346E+03  0.00000000000E+00 0. -1.
         25    1    1    2    0    0 -0.28895508170E+03  0.30007854007E+02 -0.40319696746E+03  0.51243370801E+03  0.12500000000E+03 0.  0.
         21    1    1    2  503  501 -0.15585931405E+03 -0.98464330457E+02  0.18086456070E+02  0.18524165309E+03  0.00000000000E+00 0.  1.
         -3    1    1    2    0  502  0.44481439575E+03  0.68456476450E+02  0.11119798761E+03  0.46358508203E+03  0.00000000000E+00 0. -1.
<mgrwt>
<rscale>  4 0.58175665E+03</rscale>
<asrwt>0</asrwt>
<pdfrwt beam="1">  1       21 0.68257533E-01 0.58175665E+03</pdfrwt>
<pdfrwt beam="2">  1       -3 0.11039792E+00 0.58175665E+03</pdfrwt>
<totfact> 0.63347687E+01</totfact>
</mgrwt>
</event>
<event>
 5    0  0.3188794E-002  0.4579456E+03  0.7546771E-02  0.1025379E+00
          1   -1    0    0  503    0 -0.00000000000E+00  0.00000000000E+00  0.64964785667E+03  0.64964785667E+03  0.00000000000E+00 0.  1.
         21   -1    0    0  501  502  0.00000000000E+00 -0.00000000000E+00 -0.30071239021E+03  0.30071239021E+03  0.00000000000E+00 0.  1.
         25    1    1    2    0    0 -0.90451488028E+02 -0.18109551307E+03  0.24494670640E+03  0.34146880606E+03  0.12500000000E+03 0.  0.
         21    1    1    2  503  502  0.72835262728E+02  0.20246141502E+03  0.32301787999E+03  0.38811873295E+03  0.00000000000E+00 0. -1.
          1    1    1    2  501    0  0.17616225301E+02 -0.21365901945E+02 -0.21902911993E+03  0.22077270787E+03  0.00000000000E+00 0.  1.
<mgrwt>
<rscale>  4 0.45794564E+03</rscale>
<asrwt>0</asrwt>
<pdfrwt beam="1">  1       21 0.46263445E-01 0.45794564E+03</pdfrwt>
<pdfrwt beam="2">  1        1 0.99945824E-01 0.45794564E+03</pdfrwt>
<totfact> 0.14392382E+03</totfact>
</mgrwt>
</event>
<event>
 5    0  0.3188794E-002  0.4821247E+03  0.7546771E-02  0.1018553E+00
         -3   -1    0    0    0  501 -0.00000000000E+00  0.00000000000E+00  0.18505171089E+04  0.18505171089E+04  0.00000000000E+00 0.  1.
         21   -1    0    0  503  502  0.00000000000E+00 -0.00000000000E+00 -0.36304582782E+02  0.36304582782E+02  0.00000000000E+00 0. -1.
         25    1    1    2    0    0  0.20227478055E+03 -0.25775163854E+02  0.64321878508E+03  0.68624693179E+03  0.12500000000E+03 0.  0.
         21    1    1    2  503  501 -0.21848294897E+03  0.12492083358E+02  0.11509717432E+04  0.11715915691E+04  0.00000000000E+00 0.  1.
         -3    1    1    2    0  502  0.16208168423E+02  0.13283080496E+02  0.20021997849E+02  0.28983190801E+02  0.00000000000E+00 0.  1.
<mgrwt>
<rscale>  4 0.48212472E+03</rscale>
<asrwt>0</asrwt>
<pdfrwt beam="1">  1       21 0.55853219E-02 0.48212472E+03</pdfrwt>
<pdfrwt beam="2">  1       -3 0.28469487E+00 0.48212472E+03</pdfrwt>
<totfact> 0.56437429E+02</totfact>
</mgrwt>
</event>
<event>
 5    0  0.3188794E-002  0.5145982E+03  0.7546771E-02  0.1010037E+00
          1   -1    0    0  502    0 -0.00000000000E+00  0.00000000000E+00  0.17240485266E+04  0.17240485266E+04  0.00000000000E+00 0.  1.
         21   -1    0    0  503  502  0.00000000000E+00 -0.00000000000E+00 -0.97463604082E+02  0.97463604082E+02  0.00000000000E+00 0. -1.
         25    1    1    2    0    0  0.13969469506E+03  0.30902222928E+03  0.12716401950E+04  0.13220072359E+04  0.12500000000E+03 0.  0.
         21    1    1    2  503  501 -0.40031970312E+02 -0.59019897495E+02  0.29458934272E+02  0.77160454611E+02  0.00000000000E+00 0.  1.
          1    1    1    2  501    0 -0.99662724750E+02 -0.25000233179E+03  0.32548579323E+03  0.42234444024E+03  0.00000000000E+00 0.  1.
<mgrwt>
<rscale>  4 0.51459818E+03</rscale>
<asrwt>0</asrwt>
<pdfrwt beam="1">  1       21 0.14994402E-01 0.51459818E+03</pdfrwt>
<pdfrwt beam="2">  1        1 0.26523821E+00 0.51459818E+03</pdfrwt>
<totfact> 0.20547989E+03</totfact>
</mgrwt>
</event>
<event>
 5    0  0.3188794E-002  0.3525691E+03  0.7546771E-02  0.1061565E+00
         21   -1    0    0  501  502  0.00000000000E+00  0.00000000000E+00  0.83061174677E+02  0.83061174677E+02  0.00000000000E+00 0. -1.
          2   -1    0    0  503    0 -0.00000000000E+00 -0.00000000000E+00 -0.15253254891E+04  0.15253254891E+04  0.00000000000E+00 0. -1.
         25    1    1    2    0    0  0.95265721349E+02  0.17973148303E+03 -0.10119818088E+04  0.10397649470E+04  0.12500000000E+03 0.  0.
         21    1    1    2  503  502 -0.39211497008E+02 -0.10674896956E+03 -0.45848034023E+03  0.47237390527E+03  0.00000000000E+00 0.  1.
          2    1    1    2  501    0 -0.56054224340E+02 -0.72982513465E+02  0.28197834636E+02  0.96247811488E+02  0.00000000000E+00 0. -1.
<mgrwt>
<rscale>  4 0.35256911E+03</rscale>
<asrwt>0</asrwt>
<pdfrwt beam="1">  1       21 0.12778643E-01 0.35256911E+03</pdfrwt>
<pdfrwt beam="2">  1        2 0.23466545E+00 0.35256911E+03</pdfrwt>
<totfact> 0.85080884E+03</totfact>
</mgrwt>
</event>
<event>
 5    0  0.3188794E-002  0.5476475E+03  0.7546771E-02  0.1002040E+00
         -4   -1    0    0    0  501 -0.00000000000E+00  0.00000000000E+00  0.11596551778E+04  0.11596551778E+04  0.00000000000E+00 0.  1.
         21   -1    0    0  503  502  0.00000000000E+00 -0.00000000000E+00 -0.78683688040E+02  0.78683688040E+02  0.00000000000E+00 0. -1.
         25    1    1    2    0    0 -0.34569968777E+02  0.25237027734E+03  0.35830870710E+03  0.45705138574E+03  0.12500000000E+03 0.  0.
         21    1    1    2  503  501  0.54095156313E+02 -0.21613125870E+03  0.69934615500E+03  0.73397823635E+03  0.00000000000E+00 0. -1.
         -4    1    1    2    0  502 -0.19525187537E+02 -0.36239018640E+02  0.23316627705E+02  0.47309243789E+02  0.00000000000E+00 0.  1.
<mgrwt>
<rscale>  4 0.54764747E+03</rscale>
<asrwt>0</asrwt>
<pdfrwt beam="1">  1       21 0.12105184E-01 0.54764747E+03</pdfrwt>
<pdfrwt beam="2">  1       -4 0.17840848E+00 0.54764747E+03</pdfrwt>
<totfact> 0.47382609E+02</totfact>
</mgrwt>
</event>
<event>
 5    0  0.3188794E-002  0.7404624E+03  0.7546771E-02  0.9650433E-01
          1   -1    0    0  503    0 -0.00000000000E+00  0.00000000000E+00  0.13600556265E+04  0.13600556265E+04  0.00000000000E+00 0.  1.
         21   -1    0    0  501  502  0.00000000000E+00 -0.00000000000E+00 -0.60354142019E+03  0.60354142019E+03  0.00000000000E+00 0.  1.
         25    1    1    2    0    0 -0.16196487419E+03 -0.38599692395E+03  0.10136046493E+04  0.11037416504E+04  0.12500000000E+03 0.  0.
         21    1    1    2  503  502  0.19916056285E+03  0.15372723957E+03  0.21594819775E+03  0.33155786537E+03  0.00000000000E+00 0. -1.
          1    1    1    2  501    0 -0.37195688657E+02  0.23226968438E+03 -0.47303864074E+03  0.52829753091E+03  0.00000000000E+00 0.  1.
<mgrwt>
<rscale>  4 0.74046235E+03</rscale>
<asrwt>0</asrwt>
<pdfrwt beam="1">  1       21 0.92852526E-01 0.74046235E+03</pdfrwt>
<pdfrwt beam="2">  1        1 0.20923933E+00 0.74046235E+03</pdfrwt>
<totfact> 0.77843441E+01</totfact>
</mgrwt>
</event>
<event>
 5    0  0.3188794E-002  0.4865012E+03  0.7546771E-02  0.1017364E+00
         21   -1    0    0  501  502  0.00000000000E+00  0.00000000000E+00  0.54971812191E+02  0.54971812191E+02  0.00000000000E+00 0. -1.
          2   -1    0    0  503    0 -0.00000000000E+00 -0.00000000000E+00 -0.20584376486E+04  0.20584376486E+04  0.00000000000E+00 0. -1.
         25    1    1    2    0    0  0.38707346260E+02 -0.20485010744E+03 -0.16453979197E+04  0.16632561858E+04  0.12500000000E+03 0.  0.
         21    1    1    2  503  502 -0.24440260768E+02  0.17566025026E+03 -0.37403507136E+03  0.41395179003E+03  0.00000000000E+00 0.  1.
          2    1    1    2  501    0 -0.14267085493E+02  0.29189857187E+02  0.15967154653E+02  0.36201485035E+02  0.00000000000E+00 0. -1.
<mgrwt>
<rscale>  4 0.48650115E+03</rscale>
<asrwt>0</asrwt>
<pdfrwt beam="1">  1       21 0.84572040E-02 0.48650115E+03</pdfrwt>
<pdfrwt beam="2">  1        2 0.31668264E+00 0.48650115E+03</pdfrwt>
<totfact> 0.90189363E+03</totfact>
</mgrwt>
</event>
<event>
 5    0  0.3188794E-002  0.3886093E+03  0.7546771E-02  0.1047797E+00
          1   -1    0    0  503    0 -0.00000000000E+00  0.00000000000E+00  0.31190875765E+03  0.31190875765E+03  0.00000000000E+00 0. -1.
         21   -1    0    0  501  502  0.00000000000E+00 -0.00000000000E+00 -0.25119755716E+03  0.25119755716E+03  0.00000000000E+00 0. -1.
         25    1    1    2    0    0 -0.17765188890E+03  0.12313197776E+03  0.72255587794E+02  0.25993758394E+03  0.12500000000E+03 0.  0.
         21    1    1    2  503  502  0.31631534579E+02 -0.13521189087E+03  0.45217153230E+02  0.14603903711E+03  0.00000000000E+00 0. -1.
          1    1    1    2  501    0  0.14602035432E+03  0.12079913117E+02 -0.56761540527E+02  0.15712969376E+03  0.00000000000E+00 0. -1.
<mgrwt>
<rscale>  4 0.38860928E+03</rscale>
<asrwt>0</asrwt>
<pdfrwt beam="1">  1       21 0.38645778E-01 0.38860928E+03</pdfrwt>
<pdfrwt beam="2">  1        1 0.47985963E-01 0.38860928E+03</pdfrwt>
<totfact> 0.56576391E+03</totfact>
</mgrwt>
</event>
<event>
 5    0  0.3188794E-002  0.5704564E+03  0.7546771E-02  0.9968669E-01
         21   -1    0    0  503  502  0.00000000000E+00  0.00000000000E+00  0.97882399391E+02  0.97882399391E+02  0.00000000000E+00 0.  1.
          2   -1    0    0  502    0 -0.00000000000E+00 -0.00000000000E+00 -0.11421301808E+04  0.11421301808E+04  0.00000000000E+00 0. -1.
         25    1    1    2    0    0 -0.27031832506E+03  0.10158112387E+03 -0.62191642315E+03  0.69699050135E+03  0.12500000000E+03 0.  0.
         21    1    1    2  503  501  0.19058399599E+03 -0.11579882076E+03 -0.17713473979E+03  0.28479526411E+03  0.00000000000E+00 0.  1.
          2    1    1    2  501    0  0.79734329065E+02  0.14217696891E+02 -0.24519661844E+03  0.25822681470E+03  0.00000000000E+00 0. -1.
<mgrwt>
<rscale>  4 0.57045642E+03</rscale>
<asrwt>0</asrwt>
<pdfrwt beam="1">  1       21 0.15058830E-01 0.57045642E+03</pdfrwt>
<pdfrwt beam="2">  1        2 0.17571234E+00 0.57045642E+03</pdfrwt>
<totfact> 0.99826463E+03</totfact>
</mgrwt>
</event>
<event>
 5    0  0.3188794E-002  0.6072623E+03  0.7546771E-02  0.9890453E-01
         21   -1    0    0  503  502  0.00000000000E+00  0.00000000000E+00  0.83184242500E+03  0.83184242500E+03  0.00000000000E+00 0.  1.
         -3   -1    0    0    0  501 -0.00000000000E+00 -0.00000000000E+00 -0.10486499760E+04  0.10486499760E+04  0.00000000000E+00 0.  1.
         25    1    1    2    0    0  0.12424352845E+03 -0.26746009959E+03 -0.71124412900E+03  0.78004139010E+03  0.12500000000E+03 0.  0.
         21    1    1    2  503  501 -0.96811139257E+02  0.23542189167E+03 -0.24884298714E+03  0.35597569581E+03  0.00000000000E+00 0. -1.
         -3    1    1    2    0  502 -0.27432389188E+02  0.32038207923E+02  0.74327956517E+03  0.74447531507E+03  0.00000000000E+00 0.  1.
<mgrwt>
<rscale>  4 0.60726234E+03</rscale>
<asrwt>0</asrwt>
<pdfrwt beam="1">  1       21 0.12797576E+00 0.60726234E+03</pdfrwt>
<pdfrwt beam="2">  1       -3 0.16133077E+00 0.60726234E+03</pdfrwt>
<totfact> 0.53378877E+00</totfact>
</mgrwt>
</event>
<event>
 5    0  0.3188794E-002  0.3812851E+03  0.7546771E-02  0.1050460E+00
         -4   -1    0    0    0  501 -0.00000000000E+00  0.00000000000E+00  0.12291692143E+04  0.12291692143E+04  0.00000000000E+00 0. -1.
         21   -1    0    0  503  502  0.00000000000E+00 -0.00000000000E+00 -0.51490112048E+02  0.51490112048E+02  0.00000000000E+00 0.  1.
         25    1    1    2    0    0  0.19862344602E+03  0.30146898384E+02  0.62523744030E+03  0.66851100629E+03  0.12500000000E+03 0.  0.
         21    1    1    2  503  501 -0.12080382242E+03  0.59380754913E+02  0.20710269263E+03  0.24700437822E+03  0.00000000000E+00 0. -1.
         -4    1    1    2    0  502 -0.77819623598E+02 -0.89527653297E+02  0.34533896929E+03  0.36514394180E+03  0.00000000000E+00 0. -1.
<mgrwt>
<rscale>  4 0.38128509E+03</rscale>
<asrwt>0</asrwt>
<pdfrwt beam="1">  1       21 0.79215566E-02 0.38128509E+03</pdfrwt>
<pdfrwt beam="2">  1       -4 0.18910293E+00 0.38128509E+03</pdfrwt>
<totfact> 0.86825062E+02</totfact>
</mgrwt>
</event>
<event>
 5    0  0.3188794E-002  0.7061658E+03  0.7546771E-02  0.9706746E-01
          2   -1    0    0  503    0 -0.00000000000E+00  0.00000000000E+00  0.17812709413E+04  0.17812709413E+04  0.00000000000E+00 0.  1.
         21   -1    0    0  501  502  0.00000000000E+00 -0.00000000000E+00 -0.15096825280E+03  0.15096825280E+03  0.00000000000E+00 0.  1.
         25    1    1    2    0    0  0.20780903051E+03  0.25518518223E+03  0.72659181785E+03  0.80738140935E+03  0.12500000000E+03 0.  0.
         21    1    1    2  503  502 -0.34273614248E+03  0.39583865997E+02  0.48945090540E+03  0.59882980437E+03  0.00000000000E+00 0. -1.
          2    1    1    2  501    0  0.13492711197E+03 -0.29476904823E+03  0.41425996528E+03  0.52602798041E+03  0.00000000000E+00 0.  1.
<mgrwt>
<rscale>  4 0.70616575E+03</rscale>
<asrwt>0</asrwt>
<pdfrwt beam="1">  1       21 0.23225886E-01 0.70616575E+03</pdfrwt>
<pdfrwt beam="2">  1        2 0.27404167E+00 0.70616575E+03</pdfrwt>
<totfact> 0.18779511E+03</totfact>
</mgrwt>
</event>
<event>
 5    0  0.3188794E-002  0.5106929E+03  0.7546771E-02  0.1011025E+00
         21   -1    0    0  501  502  0.00000000000E+00  0.00000000000E+00  0.18633795020E+03  0.18633795020E+03  0.00000000000E+00 0.  1.
          2   -1    0    0  503    0 -0.00000000000E+00 -0.00000000000E+00 -0.11119520052E+04  0.11119520052E+04  0.00000000000E+00 0.  1.
         25    1    1    2    0    0 -0.12132342712E+03 -0.28618800611E+03 -0.82474152785E+03  0.89019466218E+03  0.12500000000E+03 0.  0.
         21    1    1    2  503  502  0.75652335038E+01  0.14983305908E+03 -0.16152255223E+03  0.22044662218E+03  0.00000000000E+00 0. -1.
          2    1    1    2  501    0  0.11375819362E+03  0.13635494703E+03  0.60650025094E+02  0.18764867103E+03  0.00000000000E+00 0.  1.
<mgrwt>
<rscale>  4 0.51069289E+03</rscale>
<asrwt>0</asrwt>
<pdfrwt beam="1">  1       21 0.28667376E-01 0.51069289E+03</pdfrwt>
<pdfrwt beam="2">  1        2 0.17106954E+00 0.51069289E+03</pdfrwt>
<totfact> 0.30520919E+03</totfact>
</mgrwt>
</event>
<event>
 5    0  0.3188794E-002  0.4377832E+03  0.7546771E-02  0.1031429E+00
         21   -1    0    0  501  502  0.00000000000E+00  0.00000000000E+00  0.20016565766E+03  0.20016565766E+03  0.00000000000E+00 0.  1.
          1   -1    0    0  503    0 -0.00000000000E+00 -0.00000000000E+00 -0.29141924277E+03  0.29141924277E+03  0.00000000000E+00 0. -1.
         25    1    1    2    0    0  0.29512544701E+01 -0.21430710681E+03 -0.33769059392E+02  0.25040286600E+03  0.12500000000E+03 0.  0.
         21    1    1    2  503  502 -0.15298884170E+02  0.18474588891E+03 -0.80124698127E+02  0.20195312965E+03  0.00000000000E+00 0.  1.
          1    1    1    2  501    0  0.12347629700E+02  0.29561217898E+02  0.22640172407E+02  0.39228904770E+02  0.00000000000E+00 0. -1.
<mgrwt>
<rscale>  4 0.43778323E+03</rscale>
<asrwt>0</asrwt>
<pdfrwt beam="1">  1       21 0.30794717E-01 0.43778323E+03</pdfrwt>
<pdfrwt beam="2">  1        1 0.44833729E-01 0.43778323E+03</pdfrwt>
<totfact> 0.96950305E+03</totfact>
</mgrwt>
</event>
<event>
 5    0  0.3188794E-002  0.4354341E+03  0.7546771E-02  0.1032157E+00
          2   -1    0    0  502    0 -0.00000000000E+00  0.00000000000E+00  0.21055057713E+04  0.21055057713E+04  0.00000000000E+00 0.  1.
         21   -1    0    0  503  502  0.00000000000E+00 -0.00000000000E+00 -0.56617474859E+02  0.56617474859E+02  0.00000000000E+00 0. -1.
         25    1    1    2    0    0  0.25638690219E+03  0.18646140185E+03  0.12495617447E+04  0.12951956037E+04  0.12500000000E+03 0.  0.
         21    1    1    2  503  501 -0.90049451676E+02 -0.64038146094E+01  0.22906067005E+03  0.24620865775E+03  0.00000000000E+00 0.  1.
          2    1    1    2  501    0 -0.16633745051E+03 -0.18005758724E+03  0.57026588166E+03  0.62071898469E+03  0.00000000000E+00 0.  1.
<mgrwt>
<rscale>  4 0.43543410E+03</rscale>
<asrwt>0</asrwt>
<pdfrwt beam="1">  1       21 0.87103824E-02 0.43543410E+03</pdfrwt>
<pdfrwt beam="2">  1        2 0.32392390E+00 0.43543410E+03</pdfrwt>
<totfact> 0.81533922E+03</totfact>
</mgrwt>
</event>
<event>
 5    0  0.3188794E-002  0.4314313E+03  0.7546771E-02  0.1033409E+00
          1   -1    0    0  503    0 -0.00000000000E+00  0.00000000000E+00  0.21213241767E+04  0.21213241767E+04  0.00000000000E+00 0.  1.
         21   -1    0    0  501  502  0.00000000000E+00 -0.00000000000E+00 -0.11749289363E+03  0.11749289363E+03  0.00000000000E+00 0.  1.
         25    1    1    2    0    0  0.20819274539E+03  0.22264871142E+02  0.15008542237E+04  0.15205355453E+04  0.12500000000E+03 0.  0.
         21    1    1    2  503  502 -0.17155949076E+03 -0.95122514231E+00  0.59378341402E+03  0.61807144123E+03  0.00000000000E+00 0. -1.
          1    1    1    2  501    0 -0.36633254630E+02 -0.21313646000E+02 -0.90806354647E+02  0.10021008380E+03  0.00000000000E+00 0.  1.
<mgrwt>
<rscale>  4 0.43143135E+03</rscale>
<asrwt>0</asrwt>
<pdfrwt beam="1">  1       21 0.18075831E-01 0.43143135E+03</pdfrwt>
<pdfrwt beam="2">  1        1 0.32635754E+00 0.43143135E+03</pdfrwt>
<totfact> 0.80781005E+02</totfact>
</mgrwt>
</event>
<event>
 5    0  0.3188794E-002  0.4045614E+03  0.7546771E-02  0.1042212E+00
         21   -1    0    0  501  502  0.00000000000E+00  0.00000000000E+00  0.34587482473E+03  0.34587482473E+03  0.00000000000E+00 0.  1.
          1   -1    0    0  503    0 -0.00000000000E+00 -0.00000000000E+00 -0.70781869231E+03  0.70781869231E+03  0.00000000000E+00 0.  1.
         25    1    1    2    0    0  0.11908245565E+03  0.25079259817E+03 -0.36112576754E+03  0.47234984760E+03  0.12500000000E+03 0.  0.
         21    1    1    2  503  502  0.26358246896E+02 -0.73580979019E+02 -0.23858179429E+03  0.25105814111E+03  0.00000000000E+00 0.  1.
          1    1    1    2  501    0 -0.14544070255E+03 -0.17721161915E+03  0.23776369426E+03  0.33028552833E+03  0.00000000000E+00 0.  1.
<mgrwt>
<rscale>  4 0.40456144E+03</rscale>
<asrwt>0</asrwt>
<pdfrwt beam="1">  1       21 0.53211512E-01 0.40456144E+03</pdfrwt>
<pdfrwt beam="2">  1        1 0.10889518E+00 0.40456144E+03</pdfrwt>
<totfact> 0.95437327E+02</totfact>
</mgrwt>
</event>
<event>
 5    0  0.3188794E-002  0.5222468E+03  0.7546771E-02  0.1008130E+00
         21   -1    0    0  501  502  0.00000000000E+00  0.00000000000E+00  0.88272709083E+03  0.88272709083E+03  0.00000000000E+00 0.  1.
          2   -1    0    0  503    0 -0.00000000000E+00 -0.00000000000E+00 -0.11296830374E+03  0.11296830374E+03  0.00000000000E+00 0. -1.
         25    1    1    2    0    0 -0.10917707937E+03 -0.22611951687E+03  0.16340094937E+03  0.32461444950E+03  0.12500000000E+03 0.  0.
         21    1    1    2  503  502  0.79014354039E+02  0.19767955547E+03  0.33740534189E+03  0.39895217700E+03  0.00000000000E+00 0. -1.
          2    1    1    2  501    0  0.30162725335E+02  0.28439961396E+02  0.26895249582E+03  0.27212876807E+03  0.00000000000E+00 0. -1.
<mgrwt>
<rscale>  4 0.52224680E+03</rscale>
<asrwt>0</asrwt>
<pdfrwt beam="1">  1       21 0.13580416E+00 0.52224680E+03</pdfrwt>
<pdfrwt beam="2">  1        2 0.17379740E-01 0.52224680E+03</pdfrwt>
<totfact> 0.14026674E+03</totfact>
</mgrwt>
</event>
<event>
 5    0  0.3188794E-002  0.4529354E+03  0.7546771E-02  0.1026850E+00
          1   -1    0    0  503    0 -0.00000000000E+00  0.00000000000E+00  0.30702096621E+03  0.30702096621E+03  0.00000000000E+00 0. -1.
         21   -1    0    0  501  502  0.00000000000E+00 -0.00000000000E+00 -0.20328519487E+03  0.20328519487E+03  0.00000000000E+00 0.  1.
         25    1    1    2    0    0  0.18834705453E+03 -0.97318859868E+02  0.71881345289E+02  0.25639325505E+03  0.12500000000E+03 0.  0.
         21    1    1    2  503  502 -0.16250510626E+03  0.12753690139E+03  0.46135576145E+02  0.21166497624E+03  0.00000000000E+00 0. -1.
          1    1    1    2  501    0 -0.25841948262E+02 -0.30218041527E+02 -0.14281150100E+02  0.42247929794E+02  0.00000000000E+00 0. -1.
<mgrwt>
<rscale>  4 0.45293544E+03</rscale>
<asrwt>0</asrwt>
<pdfrwt beam="1">  1       21 0.31274645E-01 0.45293544E+03</pdfrwt>
<pdfrwt beam="2">  1        1 0.47233995E-01 0.45293544E+03</pdfrwt>
<totfact> 0.87786819E+03</totfact>
</mgrwt>
</event>
<event>
 5    0  0.3188794E-002  0.4824748E+03  0.7546771E-02  0.1018457E+00
         21   -1    0    0  501  502  0.00000000000E+00  0.00000000000E+00  0.38714751962E+03  0.38714751962E+03  0.00000000000E+00 0.  1.
          1   -1    0    0  503    0 -0.00000000000E+00 -0.00000000000E+00 -0.50500782998E+03  0.50500782998E+03  0.00000000000E+00 0. -1.
         25    1    1    2    0    0  0.16742848230E+03 -0.29244819173E+03 -0.13717593036E+03  0.38470830171E+03  0.12500000000E+03 0.  0.
         21    1    1    2  503  502 -0.66209896955E+02  0.48568332536E+02 -0.16576734675E+03  0.18499039605E+03  0.00000000000E+00 0. -1.
          1    1    1    2  501    0 -0.10121858535E+03  0.24387985919E+03  0.18508296676E+03  0.32245665185E+03  0.00000000000E+00 0. -1.
<mgrwt>
<rscale>  4 0.48247485E+03</rscale>
<asrwt>0</asrwt>
<pdfrwt beam="1">  1       21 0.59561157E-01 0.48247485E+03</pdfrwt>
<pdfrwt beam="2">  1        1 0.77693512E-01 0.48247485E+03</pdfrwt>
<totfact> 0.11856193E+03</totfact>
</mgrwt>
</event>
<event>
 5    0  0.3188794E-002  0.5934549E+03  0.7546771E-02  0.9919079E-01
          1   -1    0    0  503    0 -0.00000000000E+00  0.00000000000E+00  0.22509026565E+04  0.22509026565E+04  0.00000000000E+00 0.  1.
         21   -1    0    0  501  502  0.00000000000E+00 -0.00000000000E+00 -0.11056021983E+03  0.11056021983E+03  0.00000000000E+00 0.  1.
         25    1    1    2    0    0 -0.30782972663E+03  0.16703491645E+03  0.65204878333E+03  0.75063467796E+03  0.12500000000E+03 0.  0.
         21    1    1    2  503  502  0.10826338701E+03  0.18280610695E+03  0.55875996836E+03  0.59778903967E+03  0.00000000000E+00 0.  1.
          1    1    1    2  501    0  0.19956633962E+03 -0.34984102340E+03  0.92953368495E+03  0.10130391587E+04  0.00000000000E+00 0.  1.
<mgrwt>
<rscale>  4 0.59345488E+03</rscale>
<asrwt>0</asrwt>
<pdfrwt beam="1">  1       21 0.17009266E-01 0.59345488E+03</pdfrwt>
<pdfrwt beam="2">  1        1 0.34629268E+00 0.59345488E+03</pdfrwt>
<totfact> 0.71264602E+02</totfact>
</mgrwt>
</event>
<event>
 5    0  0.3188794E-002  0.8144462E+03  0.7546771E-02  0.9539339E-01
          2   -1    0    0  502    0 -0.00000000000E+00  0.00000000000E+00  0.79573166114E+03  0.79573166114E+03  0.00000000000E+00 0. -1.
         21   -1    0    0  503  502  0.00000000000E+00 -0.00000000000E+00 -0.62151325355E+03  0.62151325355E+03  0.00000000000E+00 0. -1.
         25    1    1    2    0    0  0.56943489452E+03  0.11858057962E+03  0.78482522030E+02  0.60008496000E+03  0.12500000000E+03 0.  0.
         21    1    1    2  503  501  0.67313577316E+01 -0.21122347287E+03  0.99495820188E+02  0.23358100287E+03  0.00000000000E+00 0. -1.
          2    1    1    2  501    0 -0.57616625225E+03  0.92642893248E+02 -0.37599346277E+01  0.58357895182E+03  0.00000000000E+00 0. -1.
<mgrwt>
<rscale>  4 0.81444622E+03</rscale>
<asrwt>0</asrwt>
<pdfrwt beam="1">  1       21 0.95617423E-01 0.81444622E+03</pdfrwt>
<pdfrwt beam="2">  1        2 0.12242026E+00 0.81444622E+03</pdfrwt>
<totfact> 0.33993213E+02</totfact>
</mgrwt>
</event>
<event>
 5    0  0.3188794E-002  0.5061062E+03  0.7546771E-02  0.1012197E+00
          2   -1    0    0  503    0 -0.00000000000E+00  0.00000000000E+00  0.13159355978E+04  0.13159355978E+04  0.00000000000E+00 0.  1.
         21   -1    0    0  501  502  0.00000000000E+00 -0.00000000000E+00 -0.15229459558E+03  0.15229459558E+03  0.00000000000E+00 0.  1.
         25    1    1    2    0    0  0.19475130852E+03  0.11529736242E+03  0.22519362826E+03  0.34286837731E+03  0.12500000000E+03 0.  0.
         21    1    1    2  503  502 -0.19742202168E+02  0.23075079726E+03  0.39197111669E+03  0.45527688422E+03  0.00000000000E+00 0.  1.
          2    1    1    2  501    0 -0.17500910636E+03 -0.34604815968E+03  0.54647625726E+03  0.67008493183E+03  0.00000000000E+00 0.  1.
<mgrwt>
<rscale>  4 0.50610625E+03</rscale>
<asrwt>0</asrwt>
<pdfrwt beam="1">  1       21 0.23429939E-01 0.50610625E+03</pdfrwt>
<pdfrwt beam="2">  1        2 0.20245162E+00 0.50610625E+03</pdfrwt>
<totfact> 0.34498791E+03</totfact>
</mgrwt>
</event>
<event>
 5    0  0.3188794E-002  0.4484703E+03  0.7546771E-02  0.1028179E+00
         21   -1    0    0  501  502  0.00000000000E+00  0.00000000000E+00  0.29943905125E+04  0.29943905125E+04  0.00000000000E+00 0. -1.
          4   -1    0    0  503    0 -0.00000000000E+00 -0.00000000000E+00 -0.16698731742E+03  0.16698731742E+03  0.00000000000E+00 0. -1.
         25    1    1    2    0    0  0.39680509870E+02  0.23691233487E+03  0.12558494641E+03  0.29849384590E+03  0.12500000000E+03 0.  0.
         21    1    1    2  503  502 -0.83951897601E+02 -0.14780913576E+03  0.11123388880E+02  0.17035020254E+03  0.00000000000E+00 0.  1.
          4    1    1    2  501    0  0.44271387731E+02 -0.89103199109E+02  0.26906948598E+04  0.26925337815E+04  0.00000000000E+00 0. -1.
<mgrwt>
<rscale>  4 0.44847026E+03</rscale>
<asrwt>0</asrwt>
<pdfrwt beam="1">  1       21 0.46067542E+00 0.44847026E+03</pdfrwt>
<pdfrwt beam="2">  1        4 0.25690359E-01 0.44847026E+03</pdfrwt>
<totfact> 0.16975422E+00</totfact>
</mgrwt>
</event>
<event>
 5    0  0.3188794E-002  0.7809307E+03  0.7546771E-02  0.9588037E-01
         21   -1    0    0  503  502  0.00000000000E+00  0.00000000000E+00  0.10347804532E+03  0.10347804532E+03  0.00000000000E+00 0. -1.
          1   -1    0    0  502    0 -0.00000000000E+00 -0.00000000000E+00 -0.22172531214E+04  0.22172531214E+04  0.00000000000E+00 0.  1.
         25    1    1    2    0    0  0.19804070526E+03 -0.18077709789E+03 -0.19183351579E+04  0.19410139768E+04  0.12500000000E+03 0.  0.
         21    1    1    2  503  501 -0.17254040688E+03  0.45829072436E+02 -0.64085702568E+02  0.18967728689E+03  0.00000000000E+00 0. -1.
          1    1    1    2  501    0 -0.25500298373E+02  0.13494802545E+03 -0.13135421566E+03  0.19003990308E+03  0.00000000000E+00 0.  1.
<mgrwt>
<rscale>  4 0.78093072E+03</rscale>
<asrwt>0</asrwt>
<pdfrwt beam="1">  1       21 0.15919699E-01 0.78093072E+03</pdfrwt>
<pdfrwt beam="2">  1        1 0.34111587E+00 0.78093072E+03</pdfrwt>
<totfact> 0.82105568E+02</totfact>
</mgrwt>
</event>
<event>
 5    0  0.3188794E-002  0.8690952E+03  0.7546771E-02  0.9465060E-01
          2   -1    0    0  503    0 -0.00000000000E+00  0.00000000000E+00  0.30151987088E+04  0.30151987088E+04  0.00000000000E+00 0.  1.
         21   -1    0    0  501  502  0.00000000000E+00 -0.00000000000E+00 -0.91036868073E+02  0.91036868073E+02  0.00000000000E+00 0. -1.
         25    1    1    2    0    0  0.87070010664E+02  0.41476874830E+03  0.12846167629E+04  0.13584842763E+04  0.12500000000E+03 0.  0.
         21    1    1    2  503  502 -0.65579815356E+02 -0.41220627036E+03  0.16637351521E+04  0.17152927965E+04  0.00000000000E+00 0.  1.
          2    1    1    2  501    0 -0.21490195307E+02 -0.25624779364E+01 -0.24190074327E+02  0.32458504024E+02  0.00000000000E+00 0.  1.
<mgrwt>
<rscale>  4 0.86909521E+03</rscale>
<asrwt>0</asrwt>
<pdfrwt beam="1">  1       21 0.14005674E-01 0.86909521E+03</pdfrwt>
<pdfrwt beam="2">  1        2 0.46387665E+00 0.86909521E+03</pdfrwt>
<totfact> 0.95626437E+02</totfact>
</mgrwt>
</event>
<event>
 5    0  0.3188794E-002  0.4203525E+03  0.7546771E-02  0.1036952E+00
         -1   -1    0    0    0  501 -0.00000000000E+00  0.00000000000E+00  0.51882592170E+03  0.51882592170E+03  0.00000000000E+00 0. -1.
         21   -1    0    0  503  502  0.00000000000E+00 -0.00000000000E+00 -0.20659441845E+03  0.20659441845E+03  0.00000000000E+00 0.  1.
         25    1    1    2    0    0  0.26345080484E+03  0.26459017176E+01  0.22062391918E+03  0.36566821175E+03  0.12500000000E+03 0.  0.
         21    1    1    2  503  501 -0.10962110347E+03  0.62272002267E+02  0.13754324250E+03  0.18658170368E+03  0.00000000000E+00 0. -1.
         -1    1    1    2    0  502 -0.15382970137E+03 -0.64917903985E+02 -0.45935658426E+02  0.17317042472E+03  0.00000000000E+00 0. -1.
<mgrwt>
<rscale>  4 0.42035253E+03</rscale>
<asrwt>0</asrwt>
<pdfrwt beam="1">  1       21 0.31783757E-01 0.42035253E+03</pdfrwt>
<pdfrwt beam="2">  1       -1 0.79819372E-01 0.42035253E+03</pdfrwt>
<totfact> 0.13759698E+03</totfact>
</mgrwt>
</event>
<event>
 5    0  0.3188794E-002  0.3705262E+03  0.7546771E-02  0.1054492E+00
         21   -1    0    0  501  502  0.00000000000E+00  0.00000000000E+00  0.11492872625E+04  0.11492872625E+04  0.00000000000E+00 0.  1.
          2   -1    0    0  503    0 -0.00000000000E+00 -0.00000000000E+00 -0.63080399660E+02  0.63080399660E+02  0.00000000000E+00 0. -1.
         25    1    1    2    0    0 -0.19732499538E+03 -0.41260618202E+02  0.36033300646E+03  0.43139827070E+03  0.12500000000E+03 0.  0.
         21    1    1    2  503  502  0.38687990526E+02  0.90287815866E+02  0.43582528748E+03  0.44675757577E+03  0.00000000000E+00 0. -1.
          2    1    1    2  501    0  0.15863700486E+03 -0.49027197664E+02  0.29004856888E+03  0.33421181567E+03  0.00000000000E+00 0. -1.
<mgrwt>
<rscale>  4 0.37052620E+03</rscale>
<asrwt>0</asrwt>
<pdfrwt beam="1">  1       21 0.17681341E+00 0.37052620E+03</pdfrwt>
<pdfrwt beam="2">  1        2 0.97046778E-02 0.37052620E+03</pdfrwt>
<totfact> 0.14357263E+03</totfact>
</mgrwt>
</event>
<event>
 5    0  0.3188794E-002  0.6472044E+03  0.7546771E-02  0.9812039E-01
          1   -1    0    0  503    0 -0.00000000000E+00  0.00000000000E+00  0.40916018806E+03  0.40916018806E+03  0.00000000000E+00 0.  1.
         21   -1    0    0  501  502  0.00000000000E+00 -0.00000000000E+00 -0.52537707073E+03  0.52537707073E+03  0.00000000000E+00 0. -1.
         25    1    1    2    0    0 -0.21610552341E+03  0.19534549830E+03 -0.19581499330E+03  0.37259894331E+03  0.12500000000E+03 0.  0.
         21    1    1    2  503  502  0.27915397007E+03  0.66300093743E+02  0.48936837524E+02  0.29106263158E+03  0.00000000000E+00 0.  1.
          1    1    1    2  501    0 -0.63048446661E+02 -0.26164559205E+03  0.30661273106E+02  0.27087568391E+03  0.00000000000E+00 0.  1.
<mgrwt>
<rscale>  4 0.64720437E+03</rscale>
<asrwt>0</asrwt>
<pdfrwt beam="1">  1       21 0.80827242E-01 0.64720437E+03</pdfrwt>
<pdfrwt beam="2">  1        1 0.62947721E-01 0.64720437E+03</pdfrwt>
<totfact> 0.76575274E+02</totfact>
</mgrwt>
</event>
<event>
 5    0  0.3188794E-002  0.4643366E+03  0.7546771E-02  0.1023531E+00
         21   -1    0    0  501  502  0.00000000000E+00  0.00000000000E+00  0.37036659004E+02  0.37036659004E+02  0.00000000000E+00 0. -1.
          2   -1    0    0  503    0 -0.00000000000E+00 -0.00000000000E+00 -0.24045315024E+04  0.24045315024E+04  0.00000000000E+00 0.  1.
         25    1    1    2    0    0 -0.14170374883E+03 -0.20620642671E+03 -0.10720659363E+04  0.11079491931E+04  0.12500000000E+03 0.  0.
         21    1    1    2  503  502  0.35056490685E+02  0.17102211181E+03 -0.10405936639E+04  0.10551363388E+04  0.00000000000E+00 0. -1.
          2    1    1    2  501    0  0.10664725815E+03  0.35184314900E+02 -0.25483524324E+03  0.27848262941E+03  0.00000000000E+00 0.  1.
<mgrwt>
<rscale>  4 0.46433655E+03</rscale>
<asrwt>0</asrwt>
<pdfrwt beam="1">  1       21 0.56979483E-02 0.46433655E+03</pdfrwt>
<pdfrwt beam="2">  1        2 0.36992787E+00 0.46433655E+03</pdfrwt>
<totfact> 0.11754346E+04</totfact>
</mgrwt>
</event>
<event>
 5    0  0.3188794E-002  0.5566310E+03  0.7546771E-02  0.9999707E-01
         21   -1    0    0  501  502  0.00000000000E+00  0.00000000000E+00  0.20161759878E+04  0.20161759878E+04  0.00000000000E+00 0.  1.
          3   -1    0    0  503    0 -0.00000000000E+00 -0.00000000000E+00 -0.41506032331E+02  0.41506032331E+02  0.00000000000E+00 0. -1.
         25    1    1    2    0    0 -0.43703514990E+02  0.23622932355E+03  0.13221788699E+04  0.13496281912E+04  0.12500000000E+03 0.  0.
         21    1    1    2  503  502  0.62666042209E+02 -0.24576456235E+03  0.59698511157E+03  0.64862814955E+03  0.00000000000E+00 0. -1.
          3    1    1    2  501    0 -0.18962527219E+02  0.95352388023E+01  0.55505973970E+02  0.59425679331E+02  0.00000000000E+00 0. -1.
<mgrwt>
<rscale>  4 0.55663095E+03</rscale>
<asrwt>0</asrwt>
<pdfrwt beam="1">  1       21 0.31018085E+00 0.55663095E+03</pdfrwt>
<pdfrwt beam="2">  1        3 0.63855450E-02 0.55663095E+03</pdfrwt>
<totfact> 0.19321236E+02</totfact>
</mgrwt>
</event>
<event>
 5    0  0.3188794E-002  0.3224041E+03  0.7546771E-02  0.1074548E+00
          2   -1    0    0  503    0 -0.00000000000E+00  0.00000000000E+00  0.12500526526E+04  0.12500526526E+04  0.00000000000E+00 0.  1.
         21   -1    0    0  501  502  0.00000000000E+00 -0.00000000000E+00 -0.71709194593E+02  0.71709194593E+02  0.00000000000E+00 0. -1.
         25    1    1    2    0    0  0.48812655570E+02 -0.20892631777E+03  0.26044568622E+03  0.35984696340E+03  0.12500000000E+03 0.  0.
         21    1    1    2  503  502  0.21644963142E+02  0.70860808661E+02  0.77031511467E+02  0.10688130048E+03  0.00000000000E+00 0. -1.
          2    1    1    2  501    0 -0.70457618713E+02  0.13806550911E+03  0.84086626030E+03  0.85503358328E+03  0.00000000000E+00 0.  1.
<mgrwt>
<rscale>  4 0.32240411E+03</rscale>
<asrwt>0</asrwt>
<pdfrwt beam="1">  1       21 0.11032185E-01 0.32240411E+03</pdfrwt>
<pdfrwt beam="2">  1        2 0.19231578E+00 0.32240411E+03</pdfrwt>
<totfact> 0.15841715E+04</totfact>
</mgrwt>
</event>
<event>
 5    0  0.3188794E-002  0.5622747E+03  0.7546771E-02  0.9986921E-01
          2   -1    0    0  503    0 -0.00000000000E+00  0.00000000000E+00  0.89431599572E+03  0.89431599572E+03  0.00000000000E+00 0. -1.
         21   -1    0    0  501  502  0.00000000000E+00 -0.00000000000E+00 -0.71350875804E+03  0.71350875804E+03  0.00000000000E+00 0. -1.
         25    1    1    2    0    0  0.21217827424E+03 -0.37736263630E+02  0.59974221649E+03  0.64943003618E+03  0.12500000000E+03 0.  0.
         21    1    1    2  503  502 -0.26060529958E+03 -0.17678852608E+02  0.20381405544E+03  0.33131228953E+03  0.00000000000E+00 0.  1.
          2    1    1    2  501    0  0.48427025341E+02  0.55415116238E+02 -0.62274903426E+03  0.62708242804E+03  0.00000000000E+00 0. -1.
<mgrwt>
<rscale>  4 0.56227469E+03</rscale>
<asrwt>0</asrwt>
<pdfrwt beam="1">  1       21 0.10977058E+00 0.56227469E+03</pdfrwt>
<pdfrwt beam="2">  1        2 0.13758708E+00 0.56227469E+03</pdfrwt>
<totfact> 0.21713144E+02</totfact>
</mgrwt>
</event>
<event>
 5    0  0.3188794E-002  0.8391370E+03  0.7546771E-02  0.9505034E-01
          1   -1    0    0  503    0 -0.00000000000E+00  0.00000000000E+00  0.71981702222E+03  0.71981702222E+03  0.00000000000E+00 0. -1.
         21   -1    0    0  501  502  0.00000000000E+00 -0.00000000000E+00 -0.70342606639E+03  0.70342606639E+03  0.00000000000E+00 0. -1.
         25    1    1    2    0    0 -0.46935346451E+03  0.17778319840E+03  0.23831785465E+03  0.56949094824E+03  0.12500000000E+03 0.  0.
         21    1    1    2  503  502  0.34641525883E+02  0.20580361024E+03 -0.17454166239E+03  0.27206608244E+03  0.00000000000E+00 0.  1.
          1    1    1    2  501    0  0.43471193862E+03 -0.38358680865E+03 -0.47385236424E+02  0.58168605792E+03  0.00000000000E+00 0. -1.
<mgrwt>
<rscale>  4 0.83913696E+03</rscale>
<asrwt>0</asrwt>
<pdfrwt beam="1">  1       21 0.10821939E+00 0.83913696E+03</pdfrwt>
<pdfrwt beam="2">  1        1 0.11074108E+00 0.83913696E+03</pdfrwt>
<totfact> 0.16507060E+02</totfact>
</mgrwt>
</event>
<event>
 5    0  0.3188794E-002  0.4183219E+03  0.7546771E-02  0.1037614E+00
         21   -1    0    0  501  502  0.00000000000E+00  0.00000000000E+00  0.12031196318E+03  0.12031196318E+03  0.00000000000E+00 0. -1.
          2   -1    0    0  503    0 -0.00000000000E+00 -0.00000000000E+00 -0.13661579023E+04  0.13661579023E+04  0.00000000000E+00 0. -1.
         25    1    1    2    0    0  0.21399015876E+02  0.28871696106E+03 -0.10482087674E+04  0.10946150107E+04  0.12500000000E+03 0.  0.
         21    1    1    2  503  502 -0.39805609501E+01 -0.91991892260E+02 -0.16878012744E+03  0.19226306074E+03  0.00000000000E+00 0.  1.
          2    1    1    2  501    0 -0.17418454926E+02 -0.19672506880E+03 -0.28857044292E+02  0.19959179410E+03  0.00000000000E+00 0. -1.
<mgrwt>
<rscale>  4 0.41832189E+03</rscale>
<asrwt>0</asrwt>
<pdfrwt beam="1">  1       21 0.18509533E-01 0.41832189E+03</pdfrwt>
<pdfrwt beam="2">  1        2 0.21017814E+00 0.41832189E+03</pdfrwt>
<totfact> 0.51607825E+03</totfact>
</mgrwt>
</event>
<event>
 5    0  0.3194947E-002  0.4711845E+03  0.7546771E-02  0.1021586E+00
          1   -1    0    0  502    0 -0.00000000000E+00  0.00000000000E+00  0.78124805548E+03  0.78124805548E+03  0.00000000000E+00 0.  1.
         21   -1    0    0  503  502  0.00000000000E+00 -0.00000000000E+00 -0.32005512813E+03  0.32005512813E+03  0.00000000000E+00 0. -1.
         25    1    1    2    0    0  0.21782797643E+02 -0.36938204248E+03 -0.10122065561E+03  0.40347020299E+03  0.12500000000E+03 0.  0.
         21    1    1    2  503  501 -0.32001560076E+02  0.64937952812E+02  0.18970314450E+02  0.74839230307E+02  0.00000000000E+00 0.  1.
          1    1    1    2  501    0  0.10218762433E+02  0.30444408967E+03  0.54344326851E+03  0.62299375031E+03  0.00000000000E+00 0.  1.
<mgrwt>
<rscale>  4 0.47118446E+03</rscale>
<asrwt>0</asrwt>
<pdfrwt beam="1">  1       21 0.49239251E-01 0.47118446E+03</pdfrwt>
<pdfrwt beam="2">  1        1 0.12019201E+00 0.47118446E+03</pdfrwt>
<totfact> 0.95352375E+02</totfact>
</mgrwt>
</event>
<event>
 5    0  0.3188794E-002  0.4526681E+03  0.7546771E-02  0.1026929E+00
         21   -1    0    0  503  502  0.00000000000E+00  0.00000000000E+00  0.16695311849E+03  0.16695311849E+03  0.00000000000E+00 0.  1.
         -3   -1    0    0    0  501 -0.00000000000E+00 -0.00000000000E+00 -0.40823744047E+03  0.40823744047E+03  0.00000000000E+00 0. -1.
         25    1    1    2    0    0 -0.15722275234E+03  0.16123316003E+03 -0.15895479431E+03  0.30266607405E+03  0.12500000000E+03 0.  0.
         21    1    1    2  503  501  0.16206166458E+03 -0.10746517002E+03 -0.95962348002E+02  0.21684445607E+03  0.00000000000E+00 0. -1.
         -3    1    1    2    0  502 -0.48389122414E+01 -0.53767990007E+02  0.13632820338E+02  0.55680028838E+02  0.00000000000E+00 0. -1.
<mgrwt>
<rscale>  4 0.45266814E+03</rscale>
<asrwt>0</asrwt>
<pdfrwt beam="1">  1       21 0.25685095E-01 0.45266814E+03</pdfrwt>
<pdfrwt beam="2">  1       -3 0.62805759E-01 0.45266814E+03</pdfrwt>
<totfact> 0.17569152E+03</totfact>
</mgrwt>
</event>
<event>
 5    0  0.3188794E-002  0.3618335E+03  0.7546771E-02  0.1057860E+00
          1   -1    0    0  503    0 -0.00000000000E+00  0.00000000000E+00  0.87233815764E+03  0.87233815764E+03  0.00000000000E+00 0.  1.
         21   -1    0    0  501  502  0.00000000000E+00 -0.00000000000E+00 -0.10107615330E+03  0.10107615330E+03  0.00000000000E+00 0. -1.
         25    1    1    2    0    0 -0.20115976086E+01  0.20473691960E+03  0.62950799736E+03  0.67366651358E+03  0.12500000000E+03 0.  0.
         21    1    1    2  503  502  0.68744794694E+02 -0.74913215903E+02  0.11108238227E+03  0.15058928370E+03  0.00000000000E+00 0.  1.
          1    1    1    2  501    0 -0.66733197086E+02 -0.12982370370E+03  0.30671624711E+02  0.14915851366E+03  0.00000000000E+00 0.  1.
<mgrwt>
<rscale>  4 0.36183354E+03</rscale>
<asrwt>0</asrwt>
<pdfrwt beam="1">  1       21 0.15550178E-01 0.36183354E+03</pdfrwt>
<pdfrwt beam="2">  1        1 0.13420587E+00 0.36183354E+03</pdfrwt>
<totfact> 0.79476739E+03</totfact>
</mgrwt>
</event>
<event>
 5    0  0.3188794E-002  0.4375342E+03  0.7546771E-02  0.1031506E+00
         21   -1    0    0  501  502  0.00000000000E+00  0.00000000000E+00  0.45058717563E+03  0.45058717563E+03  0.00000000000E+00 0. -1.
          2   -1    0    0  503    0 -0.00000000000E+00 -0.00000000000E+00 -0.25470272396E+03  0.25470272396E+03  0.00000000000E+00 0.  1.
         25    1    1    2    0    0 -0.15496891917E+03 -0.18361124771E+03  0.78854293749E+02  0.28208412901E+03  0.12500000000E+03 0.  0.
         21    1    1    2  503  502 -0.81807804727E+02  0.14517579184E+03  0.54306648699E+02  0.17526476983E+03  0.00000000000E+00 0.  1.
          2    1    1    2  501    0  0.23677672389E+03  0.38435455877E+02  0.62723509219E+02  0.24794100075E+03  0.00000000000E+00 0.  1.
<mgrwt>
<rscale>  4 0.43753420E+03</rscale>
<asrwt>0</asrwt>
<pdfrwt beam="1">  1       21 0.69321104E-01 0.43753420E+03</pdfrwt>
<pdfrwt beam="2">  1        2 0.39185035E-01 0.43753420E+03</pdfrwt>
<totfact> 0.28777648E+03</totfact>
</mgrwt>
</event>
<event>
 5    0  0.3188794E-002  0.5989458E+03  0.7546771E-02  0.9907596E-01
         21   -1    0    0  501  502  0.00000000000E+00  0.00000000000E+00  0.69876141832E+02  0.69876141832E+02  0.00000000000E+00 0. -1.
          2   -1    0    0  503    0 -0.00000000000E+00 -0.00000000000E+00 -0.51026109607E+04  0.51026109607E+04  0.00000000000E+00 0. -1.
         25    1    1    2    0    0 -0.13975695114E+03  0.46643059984E+03 -0.16102388679E+04  0.16868858057E+04  0.12500000000E+03 0.  0.
         21    1    1    2  503  502  0.36844784019E+02  0.86764741647E+02 -0.38051842890E+03  0.39202032248E+03  0.00000000000E+00 0.  1.
          2    1    1    2  501    0  0.10291216712E+03 -0.55319534149E+03 -0.30419775221E+04  0.30935809744E+04  0.00000000000E+00 0. -1.
<mgrwt>
<rscale>  4 0.59894580E+03</rscale>
<asrwt>0</asrwt>
<pdfrwt beam="1">  1       21 0.10750173E-01 0.59894580E+03</pdfrwt>
<pdfrwt beam="2">  1        2 0.78501728E+00 0.59894580E+03</pdfrwt>
<totfact> 0.27818423E+01</totfact>
</mgrwt>
</event>
<event>
 5    0  0.3188794E-002  0.3326376E+03  0.7546771E-02  0.1069976E+00
         21   -1    0    0  501  502  0.00000000000E+00  0.00000000000E+00  0.28493095394E+03  0.28493095394E+03  0.00000000000E+00 0.  1.
          1   -1    0    0  503    0 -0.00000000000E+00 -0.00000000000E+00 -0.33384525335E+03  0.33384525335E+03  0.00000000000E+00 0.  1.
         25    1    1    2    0    0  0.13694008393E+03  0.15020029761E+03  0.35694598918E+02  0.24127125892E+03  0.12500000000E+03 0.  0.
         21    1    1    2  503  502 -0.14313033597E+01  0.90952268376E+02 -0.14176562185E+02  0.92061602568E+02  0.00000000000E+00 0.  1.
          1    1    1    2  501    0 -0.13550878057E+03 -0.24115256598E+03 -0.70432336149E+02  0.28544334581E+03  0.00000000000E+00 0.  1.
<mgrwt>
<rscale>  4 0.33263760E+03</rscale>
<asrwt>0</asrwt>
<pdfrwt beam="1">  1       21 0.43835531E-01 0.33263760E+03</pdfrwt>
<pdfrwt beam="2">  1        1 0.51360808E-01 0.33263760E+03</pdfrwt>
<totfact> 0.40408961E+03</totfact>
</mgrwt>
</event>
<event>
 5    0  0.3188794E-002  0.4451390E+03  0.7546771E-02  0.1029182E+00
         21   -1    0    0  501  502  0.00000000000E+00  0.00000000000E+00  0.40765125081E+03  0.40765125081E+03  0.00000000000E+00 0.  1.
          1   -1    0    0  503    0 -0.00000000000E+00 -0.00000000000E+00 -0.20087842678E+03  0.20087842678E+03  0.00000000000E+00 0.  1.
         25    1    1    2    0    0 -0.38789811280E+01  0.20463790812E+03 -0.57168062652E+02  0.24654595378E+03  0.12500000000E+03 0.  0.
         21    1    1    2  503  502  0.60209970497E+01 -0.17047630687E+03  0.10702319233E+03  0.20137623322E+03  0.00000000000E+00 0. -1.
          1    1    1    2  501    0 -0.21420159217E+01 -0.34161601251E+02  0.15691769435E+03  0.16060749059E+03  0.00000000000E+00 0.  1.
<mgrwt>
<rscale>  4 0.44513903E+03</rscale>
<asrwt>0</asrwt>
<pdfrwt beam="1">  1       21 0.62715577E-01 0.44513903E+03</pdfrwt>
<pdfrwt beam="2">  1        1 0.30904373E-01 0.44513903E+03</pdfrwt>
<totfact> 0.35238590E+03</totfact>
</mgrwt>
</event>
<event>
 5    0  0.3188794E-002  0.6588745E+03  0.7546771E-02  0.9790268E-01
          1   -1    0    0  503    0 -0.00000000000E+00  0.00000000000E+00  0.11446378679E+04  0.11446378679E+04  0.00000000000E+00 0. -1.
         21   -1    0    0  501  502  0.00000000000E+00 -0.00000000000E+00 -0.55150317675E+03  0.55150317675E+03  0.00000000000E+00 0. -1.
         25    1    1    2    0    0 -0.39737710312E+03  0.14377856591E+03  0.84500571873E+03  0.95301652807E+03  0.12500000000E+03 0.  0.
         21    1    1    2  503  502  0.13935629960E+02  0.15441236125E+03  0.59596871847E+02  0.16609986822E+03  0.00000000000E+00 0.  1.
          1    1    1    2  501    0  0.38344147316E+03 -0.29819092716E+03 -0.31146789946E+03  0.57702464832E+03  0.00000000000E+00 0. -1.
<mgrwt>
<rscale>  4 0.65887454E+03</rscale>
<asrwt>0</asrwt>
<pdfrwt beam="1">  1       21 0.84846643E-01 0.65887454E+03</pdfrwt>
<pdfrwt beam="2">  1        1 0.17609813E+00 0.65887454E+03</pdfrwt>
<totfact> 0.14013445E+02</totfact>
</mgrwt>
</event>
<event>
 5    0  0.3188794E-002  0.4975053E+03  0.7546771E-02  0.1014432E+00
          1   -1    0    0  503    0 -0.00000000000E+00  0.00000000000E+00  0.11701738934E+04  0.11701738934E+04  0.00000000000E+00 0.  1.
         21   -1    0    0  501  502  0.00000000000E+00 -0.00000000000E+00 -0.14474166801E+03  0.14474166801E+03  0.00000000000E+00 0.  1.
         25    1    1    2    0    0  0.58939693057E+02  0.22583391181E+03  0.39972635875E+03  0.47945907544E+03  0.12500000000E+03 0.  0.
         21    1    1    2  503  502 -0.28145828607E+02 -0.19406449960E+03  0.71198431267E+03  0.73849500957E+03  0.00000000000E+00 0.  1.
          1    1    1    2  501    0 -0.30793864449E+02 -0.31769412209E+02 -0.86278446076E+02  0.96961476356E+02  0.00000000000E+00 0.  1.
<mgrwt>
<rscale>  4 0.49750531E+03</rscale>
<asrwt>0</asrwt>
<pdfrwt beam="1">  1       21 0.22267950E-01 0.49750531E+03</pdfrwt>
<pdfrwt beam="2">  1        1 0.18002675E+00 0.49750531E+03</pdfrwt>
<totfact> 0.23382080E+03</totfact>
</mgrwt>
</event>
<event>
 5    0  0.3188794E-002  0.4413851E+03  0.7546771E-02  0.1030323E+00
         -3   -1    0    0    0  501 -0.00000000000E+00  0.00000000000E+00  0.26915452559E+02  0.26915452559E+02  0.00000000000E+00 0.  1.
         21   -1    0    0  503  502  0.00000000000E+00 -0.00000000000E+00 -0.24090984366E+04  0.24090984366E+04  0.00000000000E+00 0. -1.
         25    1    1    2    0    0 -0.20171107959E+03  0.15644686429E+02 -0.16685242683E+04  0.16853872996E+04  0.12500000000E+03 0.  0.
         21    1    1    2  503  501  0.14231273692E+03  0.91942482359E+01 -0.30217447761E+03  0.33413599658E+03  0.00000000000E+00 0.  1.
         -3    1    1    2    0  502  0.59398342679E+02 -0.24838934665E+02 -0.41148423813E+03  0.41649059295E+03  0.00000000000E+00 0.  1.
<mgrwt>
<rscale>  4 0.44138509E+03</rscale>
<asrwt>0</asrwt>
<pdfrwt beam="1">  1       21 0.37063057E+00 0.44138509E+03</pdfrwt>
<pdfrwt beam="2">  1       -3 0.41408383E-02 0.44138509E+03</pdfrwt>
<totfact> 0.17254789E+02</totfact>
</mgrwt>
</event>
<event>
 5    0  0.3188794E-002  0.4458121E+03  0.7546771E-02  0.1028978E+00
         21   -1    0    0  501  502  0.00000000000E+00  0.00000000000E+00  0.22121391371E+03  0.22121391371E+03  0.00000000000E+00 0. -1.
          2   -1    0    0  503    0 -0.00000000000E+00 -0.00000000000E+00 -0.82694047292E+03  0.82694047292E+03  0.00000000000E+00 0. -1.
         25    1    1    2    0    0 -0.21015200292E+03  0.39545723242E+02 -0.46099238198E+03  0.52332275395E+03  0.12500000000E+03 0.  0.
         21    1    1    2  503  502  0.16979038388E+03 -0.98698400469E+02 -0.29729115956E+03  0.35630349741E+03  0.00000000000E+00 0.  1.
          2    1    1    2  501    0  0.40361619037E+02  0.59152677227E+02  0.15255698234E+03  0.16852813526E+03  0.00000000000E+00 0. -1.
<mgrwt>
<rscale>  4 0.44581208E+03</rscale>
<asrwt>0</asrwt>
<pdfrwt beam="1">  1       21 0.34032909E-01 0.44581208E+03</pdfrwt>
<pdfrwt beam="2">  1        2 0.12722161E+00 0.44581208E+03</pdfrwt>
<totfact> 0.33375658E+03</totfact>
</mgrwt>
</event>
<event>
 5    0  0.3188794E-002  0.6310066E+03  0.7546771E-02  0.9843087E-01
         21   -1    0    0  501  502  0.00000000000E+00  0.00000000000E+00  0.17265626698E+03  0.17265626698E+03  0.00000000000E+00 0. -1.
          2   -1    0    0  503    0 -0.00000000000E+00 -0.00000000000E+00 -0.13770706357E+04  0.13770706357E+04  0.00000000000E+00 0.  1.
         25    1    1    2    0    0  0.87783378427E+02 -0.36865078789E+03 -0.74239912006E+03  0.84284682975E+03  0.12500000000E+03 0.  0.
         21    1    1    2  503  502  0.13779766089E+03  0.11089187406E+03 -0.81023151881E+02  0.19455064693E+03  0.00000000000E+00 0. -1.
          2    1    1    2  501    0 -0.22558103932E+03  0.25775891383E+03 -0.38099209683E+03  0.51232942606E+03  0.00000000000E+00 0.  1.
<mgrwt>
<rscale>  4 0.63100657E+03</rscale>
<asrwt>0</asrwt>
<pdfrwt beam="1">  1       21 0.26562502E-01 0.63100657E+03</pdfrwt>
<pdfrwt beam="2">  1        2 0.21185702E+00 0.63100657E+03</pdfrwt>
<totfact> 0.24406215E+03</totfact>
</mgrwt>
</event>
<event>
 5    0  0.3188794E-002  0.4959299E+03  0.7546771E-02  0.1014847E+00
          2   -1    0    0  502    0 -0.00000000000E+00  0.00000000000E+00  0.12536319931E+04  0.12536319931E+04  0.00000000000E+00 0.  1.
         21   -1    0    0  503  502  0.00000000000E+00 -0.00000000000E+00 -0.17537785555E+03  0.17537785555E+03  0.00000000000E+00 0.  1.
         25    1    1    2    0    0 -0.23859608732E+03 -0.26069188681E+03  0.98689625931E+03  0.10556882018E+04  0.12500000000E+03 0.  0.
         21    1    1    2  503  501  0.20449186223E+02  0.26302325418E+02 -0.14138941991E+02  0.36192419375E+02  0.00000000000E+00 0. -1.
          2    1    1    2  501    0  0.21814690110E+03  0.23438956139E+03  0.10549682023E+03  0.33712922749E+03  0.00000000000E+00 0.  1.
<mgrwt>
<rscale>  4 0.49592993E+03</rscale>
<asrwt>0</asrwt>
<pdfrwt beam="1">  1       21 0.26981209E-01 0.49592993E+03</pdfrwt>
<pdfrwt beam="2">  1        2 0.19286645E+00 0.49592993E+03</pdfrwt>
<totfact> 0.28482515E+03</totfact>
</mgrwt>
</event>
<event>
 5    0  0.3188794E-002  0.3826690E+03  0.7546771E-02  0.1049952E+00
          1   -1    0    0  502    0 -0.00000000000E+00  0.00000000000E+00  0.12637133572E+04  0.12637133572E+04  0.00000000000E+00 0. -1.
         21   -1    0    0  503  502  0.00000000000E+00 -0.00000000000E+00 -0.58020722787E+02  0.58020722787E+02  0.00000000000E+00 0.  1.
         25    1    1    2    0    0  0.18806889228E+03  0.16789567002E+03  0.68984520384E+03  0.74503038161E+03  0.12500000000E+03 0.  0.
         21    1    1    2  503  501 -0.87168980663E+02 -0.45312625006E+02  0.17493913573E+03  0.20063740026E+03  0.00000000000E+00 0.  1.
          1    1    1    2  501    0 -0.10089991162E+03 -0.12258304501E+03  0.34090829488E+03  0.37606629815E+03  0.00000000000E+00 0. -1.
<mgrwt>
<rscale>  4 0.38266905E+03</rscale>
<asrwt>0</asrwt>
<pdfrwt beam="1">  1       21 0.89262660E-02 0.38266905E+03</pdfrwt>
<pdfrwt beam="2">  1        1 0.19441742E+00 0.38266905E+03</pdfrwt>
<totfact> 0.11092738E+04</totfact>
</mgrwt>
</event>
<event>
 5    0  0.3188794E-002  0.5169271E+03  0.7546771E-02  0.1009453E+00
         21   -1    0    0  503  502  0.00000000000E+00  0.00000000000E+00  0.55635284466E+02  0.55635284466E+02  0.00000000000E+00 0.  1.
          2   -1    0    0  502    0 -0.00000000000E+00 -0.00000000000E+00 -0.16377816741E+04  0.16377816741E+04  0.00000000000E+00 0. -1.
         25    1    1    2    0    0 -0.22906383692E+03  0.12160758264E+03 -0.78001826004E+03  0.83145182154E+03  0.12500000000E+03 0.  0.
         21    1    1    2  503  501  0.18211040917E+03 -0.13368820518E+03 -0.77315592070E+03  0.80548545304E+03  0.00000000000E+00 0. -1.
          2    1    1    2  501    0  0.46953427752E+02  0.12080622540E+02 -0.28972208938E+02  0.56479684041E+02  0.00000000000E+00 0. -1.
<mgrwt>
<rscale>  4 0.51692708E+03</rscale>
<asrwt>0</asrwt>
<pdfrwt beam="1">  1       21 0.85592756E-02 0.51692708E+03</pdfrwt>
<pdfrwt beam="2">  1        2 0.25196638E+00 0.51692708E+03</pdfrwt>
<totfact> 0.14802436E+04</totfact>
</mgrwt>
</event>
<event>
 5    0  0.3188794E-002  0.4944640E+03  0.7546771E-02  0.1015234E+00
         21   -1    0    0  501  502  0.00000000000E+00  0.00000000000E+00  0.15920416335E+03  0.15920416335E+03  0.00000000000E+00 0. -1.
          1   -1    0    0  503    0 -0.00000000000E+00 -0.00000000000E+00 -0.66574353079E+03  0.66574353079E+03  0.00000000000E+00 0.  1.
         25    1    1    2    0    0 -0.15379667977E+03 -0.15026010971E+03 -0.44814149216E+03  0.51253030766E+03  0.12500000000E+03 0.  0.
         21    1    1    2  503  502  0.67344858800E+02  0.18548085059E+03 -0.85730912450E+02  0.21514707828E+03  0.00000000000E+00 0. -1.
          1    1    1    2  501    0  0.86451820973E+02 -0.35220740878E+02  0.27333037165E+02  0.97270308204E+02  0.00000000000E+00 0.  1.
<mgrwt>
<rscale>  4 0.49446399E+03</rscale>
<asrwt>0</asrwt>
<pdfrwt beam="1">  1       21 0.24492948E-01 0.49446399E+03</pdfrwt>
<pdfrwt beam="2">  1        1 0.10242208E+00 0.49446399E+03</pdfrwt>
<totfact> 0.49845155E+03</totfact>
</mgrwt>
</event>
<event>
 5    0  0.3188794E-002  0.5923063E+03  0.7546771E-02  0.9921498E-01
         21   -1    0    0  503  502  0.00000000000E+00  0.00000000000E+00  0.34788461817E+03  0.34788461817E+03  0.00000000000E+00 0. -1.
          1   -1    0    0  502    0 -0.00000000000E+00 -0.00000000000E+00 -0.42956157629E+03  0.42956157629E+03  0.00000000000E+00 0.  1.
         25    1    1    2    0    0 -0.32610779972E+02 -0.27717453179E+03 -0.26978993693E+03  0.40779994374E+03  0.12500000000E+03 0.  0.
         21    1    1    2  503  501 -0.21082590441E+01  0.10724771585E+03  0.16194031153E+03  0.19424515904E+03  0.00000000000E+00 0. -1.
          1    1    1    2  501    0  0.34719039016E+02  0.16992681595E+03  0.26172667279E+02  0.17540109168E+03  0.00000000000E+00 0.  1.
<mgrwt>
<rscale>  4 0.59230631E+03</rscale>
<asrwt>0</asrwt>
<pdfrwt beam="1">  1       21 0.53520710E-01 0.59230631E+03</pdfrwt>
<pdfrwt beam="2">  1        1 0.66086396E-01 0.59230631E+03</pdfrwt>
<totfact> 0.18259375E+03</totfact>
</mgrwt>
</event>
<event>
 5    0  0.3188794E-002  0.9462616E+03  0.7546771E-02  0.9369531E-01
         21   -1    0    0  501  502  0.00000000000E+00  0.00000000000E+00  0.10091736374E+03  0.10091736374E+03  0.00000000000E+00 0.  1.
          2   -1    0    0  503    0 -0.00000000000E+00 -0.00000000000E+00 -0.26147744797E+04  0.26147744797E+04  0.00000000000E+00 0. -1.
         25    1    1    2    0    0  0.29014592219E+03 -0.67239028105E+02 -0.22901343899E+04  0.23128005246E+04  0.12500000000E+03 0.  0.
         21    1    1    2  503  502 -0.28830211920E+03  0.89030389960E+02 -0.23082152238E+03  0.37989879898E+03  0.00000000000E+00 0.  1.
          2    1    1    2  501    0 -0.18438029898E+01 -0.21791361855E+02  0.70987962696E+01  0.22992519858E+02  0.00000000000E+00 0. -1.
<mgrwt>
<rscale>  4 0.94626156E+03</rscale>
<asrwt>0</asrwt>
<pdfrwt beam="1">  1       21 0.15525751E-01 0.94626156E+03</pdfrwt>
<pdfrwt beam="2">  1        2 0.40227293E+00 0.94626156E+03</pdfrwt>
<totfact> 0.13501620E+03</totfact>
</mgrwt>
</event>
<event>
 5    0  0.3188794E-002  0.7390010E+03  0.7546771E-02  0.9652766E-01
         21   -1    0    0  501  502  0.00000000000E+00  0.00000000000E+00  0.24151251054E+03  0.24151251054E+03  0.00000000000E+00 0.  1.
          1   -1    0    0  503    0 -0.00000000000E+00 -0.00000000000E+00 -0.10956295401E+04  0.10956295401E+04  0.00000000000E+00 0. -1.
         25    1    1    2    0    0 -0.35189581833E+03 -0.23122668660E+03 -0.32478038340E+03  0.54626343919E+03  0.12500000000E+03 0.  0.
         21    1    1    2  503  502  0.14786636163E+03  0.19476342610E+03 -0.52991509476E+03  0.58361567894E+03  0.00000000000E+00 0. -1.
          1    1    1    2  501    0  0.20402945670E+03  0.36463260500E+02  0.57844864928E+00  0.20726293246E+03  0.00000000000E+00 0. -1.
<mgrwt>
<rscale>  4 0.73900099E+03</rscale>
<asrwt>0</asrwt>
<pdfrwt beam="1">  1       21 0.37155770E-01 0.73900099E+03</pdfrwt>
<pdfrwt beam="2">  1        1 0.16855839E+00 0.73900099E+03</pdfrwt>
<totfact> 0.91941010E+02</totfact>
</mgrwt>
</event>
<event>
 5    0  0.3188794E-002  0.4493441E+03  0.7546771E-02  0.1027918E+00
         -1   -1    0    0    0  501 -0.00000000000E+00  0.00000000000E+00  0.32641796400E+03  0.32641796400E+03  0.00000000000E+00 0.  1.
         21   -1    0    0  503  502  0.00000000000E+00 -0.00000000000E+00 -0.23316362416E+03  0.23316362416E+03  0.00000000000E+00 0.  1.
         25    1    1    2    0    0 -0.13106906485E+03 -0.16174281510E+03  0.15367775992E+03  0.28737030447E+03  0.12500000000E+03 0.  0.
         21    1    1    2  503  501  0.13123580913E+03  0.14051408068E+03  0.15963002240E+02  0.19292968125E+03  0.00000000000E+00 0. -1.
         -1    1    1    2    0  502 -0.16674428064E+00  0.21228734421E+02 -0.76386422323E+02  0.79281602431E+02  0.00000000000E+00 0.  1.
<mgrwt>
<rscale>  4 0.44934406E+03</rscale>
<asrwt>0</asrwt>
<pdfrwt beam="1">  1       21 0.35871327E-01 0.44934406E+03</pdfrwt>
<pdfrwt beam="2">  1       -1 0.50218148E-01 0.44934406E+03</pdfrwt>
<totfact> 0.26856980E+03</totfact>
</mgrwt>
</event>
<event>
 5    0  0.3188794E-002  0.3412227E+03  0.7546771E-02  0.1066276E+00
         21   -1    0    0  503  502  0.00000000000E+00  0.00000000000E+00  0.40503734101E+03  0.40503734101E+03  0.00000000000E+00 0. -1.
         -4   -1    0    0    0  501 -0.00000000000E+00 -0.00000000000E+00 -0.21683653488E+03  0.21683653488E+03  0.00000000000E+00 0. -1.
         25    1    1    2    0    0  0.20850019093E+03  0.85868332175E+02  0.80763505824E+02  0.27017298895E+03  0.12500000000E+03 0.  0.
         21    1    1    2  503  501 -0.20252852861E+02  0.80894020847E+02  0.27890195622E+02  0.87931130265E+02  0.00000000000E+00 0.  1.
         -4    1    1    2    0  502 -0.18824733806E+03 -0.16676235302E+03  0.79547104685E+02  0.26376975668E+03  0.00000000000E+00 0. -1.
<mgrwt>
<rscale>  4 0.34122270E+03</rscale>
<asrwt>0</asrwt>
<pdfrwt beam="1">  1       21 0.62313437E-01 0.34122270E+03</pdfrwt>
<pdfrwt beam="2">  1       -4 0.33359467E-01 0.34122270E+03</pdfrwt>
<totfact> 0.86524792E+02</totfact>
</mgrwt>
</event>
<event>
 5    0  0.3188794E-002  0.4328085E+03  0.7546771E-02  0.1032976E+00
          2   -1    0    0  502    0 -0.00000000000E+00  0.00000000000E+00  0.94147998799E+03  0.94147998799E+03  0.00000000000E+00 0. -1.
         21   -1    0    0  503  502  0.00000000000E+00 -0.00000000000E+00 -0.16023354919E+03  0.16023354919E+03  0.00000000000E+00 0. -1.
         25    1    1    2    0    0 -0.27356027351E+02  0.30428769623E+03  0.59151962151E+03  0.67739192270E+03  0.12500000000E+03 0.  0.
         21    1    1    2  503  501 -0.74418796155E+02 -0.64777527014E+02  0.11912584723E+03  0.15467789986E+03  0.00000000000E+00 0. -1.
          2    1    1    2  501    0  0.10177482351E+03 -0.23951016922E+03  0.70600970048E+02  0.26964371461E+03  0.00000000000E+00 0. -1.
<mgrwt>
<rscale>  4 0.43280851E+03</rscale>
<asrwt>0</asrwt>
<pdfrwt beam="1">  1       21 0.24651316E-01 0.43280851E+03</pdfrwt>
<pdfrwt beam="2">  1        2 0.14484307E+00 0.43280851E+03</pdfrwt>
<totfact> 0.53091386E+03</totfact>
</mgrwt>
</event>
<event>
 5    0  0.3188794E-002  0.4753581E+03  0.7546771E-02  0.1020419E+00
          2   -1    0    0  503    0 -0.00000000000E+00  0.00000000000E+00  0.44557899469E+04  0.44557899469E+04  0.00000000000E+00 0. -1.
         21   -1    0    0  501  502  0.00000000000E+00 -0.00000000000E+00 -0.14620173595E+02  0.14620173595E+02  0.00000000000E+00 0.  1.
         25    1    1    2    0    0  0.12849579997E+02 -0.20468712597E+03  0.33458563366E+04  0.33544659122E+04  0.12500000000E+03 0.  0.
         21    1    1    2  503  502 -0.26348514222E+02  0.18630793406E+03  0.10216153476E+04  0.10387987336E+04  0.00000000000E+00 0.  1.
          2    1    1    2  501    0  0.13498934225E+02  0.18379191907E+02  0.73698089149E+02  0.77145474686E+02  0.00000000000E+00 0. -1.
<mgrwt>
<rscale>  4 0.47535811E+03</rscale>
<asrwt>0</asrwt>
<pdfrwt beam="1">  1       21 0.22492610E-02 0.47535811E+03</pdfrwt>
<pdfrwt beam="2">  1        2 0.68550506E+00 0.47535811E+03</pdfrwt>
<totfact> 0.22259555E+03</totfact>
</mgrwt>
</event>
<event>
 5    0  0.3188794E-002  0.7124379E+03  0.7546771E-02  0.9696195E-01
          2   -1    0    0  502    0 -0.00000000000E+00  0.00000000000E+00  0.71687122196E+03  0.71687122196E+03  0.00000000000E+00 0. -1.
         21   -1    0    0  503  502  0.00000000000E+00 -0.00000000000E+00 -0.53442411243E+03  0.53442411243E+03  0.00000000000E+00 0. -1.
         25    1    1    2    0    0  0.46205714581E+03 -0.27822379677E+03  0.16095456640E+03  0.57657320396E+03  0.12500000000E+03 0.  0.
         21    1    1    2  503  501  0.39472807699E+02  0.15158689285E+03  0.15609738004E+02  0.15741776441E+03  0.00000000000E+00 0.  1.
          2    1    1    2  501    0 -0.50152995351E+03  0.12663690392E+03  0.58828051333E+01  0.51730436601E+03  0.00000000000E+00 0. -1.
<mgrwt>
<rscale>  4 0.71243792E+03</rscale>
<asrwt>0</asrwt>
<pdfrwt beam="1">  1       21 0.82219094E-01 0.71243792E+03</pdfrwt>
<pdfrwt beam="2">  1        2 0.11028788E+00 0.71243792E+03</pdfrwt>
<totfact> 0.56764416E+02</totfact>
</mgrwt>
</event>
<event>
 5    0  0.3188794E-002  0.6431238E+03  0.7546771E-02  0.9819768E-01
          1   -1    0    0  503    0 -0.00000000000E+00  0.00000000000E+00  0.10093119946E+04  0.10093119946E+04  0.00000000000E+00 0.  1.
         21   -1    0    0  501  502  0.00000000000E+00 -0.00000000000E+00 -0.36621195803E+03  0.36621195803E+03  0.00000000000E+00 0.  1.
         25    1    1    2    0    0 -0.20218082947E+03 -0.23873445906E+03  0.49024148897E+03  0.59483858925E+03  0.12500000000E+03 0.  0.
         21    1    1    2  503  502  0.21690709838E+03  0.21581698869E+03  0.41584742843E+03  0.51628940108E+03  0.00000000000E+00 0.  1.
          1    1    1    2  501    0 -0.14726268914E+02  0.22917470367E+02 -0.26298888083E+03  0.26439596231E+03  0.00000000000E+00 0.  1.
<mgrwt>
<rscale>  4 0.64312385E+03</rscale>
<asrwt>0</asrwt>
<pdfrwt beam="1">  1       21 0.56340302E-01 0.64312385E+03</pdfrwt>
<pdfrwt beam="2">  1        1 0.15527877E+00 0.64312385E+03</pdfrwt>
<totfact> 0.44947570E+02</totfact>
</mgrwt>
</event>
<event>
 5    0  0.3188794E-002  0.6793706E+03  0.7546771E-02  0.9753176E-01
         21   -1    0    0  501  502  0.00000000000E+00  0.00000000000E+00  0.16217836983E+03  0.16217836983E+03  0.00000000000E+00 0. -1.
          2   -1    0    0  503    0 -0.00000000000E+00 -0.00000000000E+00 -0.11863857631E+04  0.11863857631E+04  0.00000000000E+00 0.  1.
         25    1    1    2    0    0 -0.62124216109E+02 -0.30150245839E+03 -0.43365454841E+03  0.54630066630E+03  0.12500000000E+03 0.  0.
         21    1    1    2  503  502  0.54070513744E+02  0.33373830158E+03 -0.65084641316E+03  0.73342070323E+03  0.00000000000E+00 0. -1.
          2    1    1    2  501    0  0.80537023653E+01 -0.32235843189E+02  0.60293568253E+02  0.68842763458E+02  0.00000000000E+00 0.  1.
<mgrwt>
<rscale>  4 0.67937063E+03</rscale>
<asrwt>0</asrwt>
<pdfrwt beam="1">  1       21 0.24950519E-01 0.67937063E+03</pdfrwt>
<pdfrwt beam="2">  1        2 0.18252088E+00 0.67937063E+03</pdfrwt>
<totfact> 0.35317231E+03</totfact>
</mgrwt>
</event>
<event>
 5    0  0.3188794E-002  0.5591797E+03  0.7546771E-02  0.9993912E-01
         -1   -1    0    0    0  501 -0.00000000000E+00  0.00000000000E+00  0.12017378855E+04  0.12017378855E+04  0.00000000000E+00 0.  1.
         21   -1    0    0  503  502  0.00000000000E+00 -0.00000000000E+00 -0.15515675258E+03  0.15515675258E+03  0.00000000000E+00 0.  1.
         25    1    1    2    0    0  0.34473416696E+02  0.26166901140E+03  0.55401513725E+03  0.62627219345E+03  0.12500000000E+03 0.  0.
         21    1    1    2  503  501  0.10972114939E+03 -0.24354285149E+03  0.51825147762E+03  0.58304068914E+03  0.00000000000E+00 0.  1.
         -1    1    1    2    0  502 -0.14419456609E+03 -0.18126159905E+02 -0.25685481981E+02  0.14758175547E+03  0.00000000000E+00 0.  1.
<mgrwt>
<rscale>  4 0.55917972E+03</rscale>
<asrwt>0</asrwt>
<pdfrwt beam="1">  1       21 0.23870270E-01 0.55917972E+03</pdfrwt>
<pdfrwt beam="2">  1       -1 0.18488275E+00 0.55917972E+03</pdfrwt>
<totfact> 0.29757213E+02</totfact>
</mgrwt>
</event>
<event>
 5    0  0.3188794E-002  0.6813213E+03  0.7546771E-02  0.9749719E-01
          1   -1    0    0  503    0 -0.00000000000E+00  0.00000000000E+00  0.14582849638E+04  0.14582849638E+04  0.00000000000E+00 0. -1.
         21   -1    0    0  501  502  0.00000000000E+00 -0.00000000000E+00 -0.11045981165E+03  0.11045981165E+03  0.00000000000E+00 0.  1.
         25    1    1    2    0    0 -0.15454732472E+03  0.26760399407E+03  0.10688186573E+04  0.11195959519E+04  0.12500000000E+03 0.  0.
         21    1    1    2  503  502  0.18282596381E+03 -0.19126293231E+03  0.24607371917E+03  0.36132965224E+03  0.00000000000E+00 0.  1.
          1    1    1    2  501    0 -0.28278639089E+02 -0.76341061767E+02  0.32932775655E+02  0.87819171329E+02  0.00000000000E+00 0. -1.
<mgrwt>
<rscale>  4 0.68132128E+03</rscale>
<asrwt>0</asrwt>
<pdfrwt beam="1">  1       21 0.16993818E-01 0.68132128E+03</pdfrwt>
<pdfrwt beam="2">  1        1 0.22435152E+00 0.68132128E+03</pdfrwt>
<totfact> 0.23865484E+03</totfact>
</mgrwt>
</event>
<event>
 5    0  0.3188794E-002  0.3844691E+03  0.7546771E-02  0.1049294E+00
         21   -1    0    0  501  502  0.00000000000E+00  0.00000000000E+00  0.15412649977E+03  0.15412649977E+03  0.00000000000E+00 0.  1.
          1   -1    0    0  503    0 -0.00000000000E+00 -0.00000000000E+00 -0.79638978627E+03  0.79638978627E+03  0.00000000000E+00 0.  1.
         25    1    1    2    0    0 -0.19189967512E+03  0.96134412869E+02 -0.58109326255E+03  0.63195070253E+03  0.12500000000E+03 0.  0.
         21    1    1    2  503  502  0.11241818375E+03 -0.49253754036E+02 -0.14771733703E+03  0.19205257610E+03  0.00000000000E+00 0. -1.
          1    1    1    2  501    0  0.79481491370E+02 -0.46880658834E+02  0.86547313080E+02  0.12651300741E+03  0.00000000000E+00 0.  1.
<mgrwt>
<rscale>  4 0.38446913E+03</rscale>
<asrwt>0</asrwt>
<pdfrwt beam="1">  1       21 0.23711770E-01 0.38446913E+03</pdfrwt>
<pdfrwt beam="2">  1        1 0.12252150E+00 0.38446913E+03</pdfrwt>
<totfact> 0.41229580E+03</totfact>
</mgrwt>
</event>
<event>
 5    0  0.3188794E-002  0.6664578E+03  0.7546771E-02  0.9776378E-01
         21   -1    0    0  503  502  0.00000000000E+00  0.00000000000E+00  0.58143140036E+03  0.58143140036E+03  0.00000000000E+00 0.  1.
          2   -1    0    0  502    0 -0.00000000000E+00 -0.00000000000E+00 -0.11313749817E+04  0.11313749817E+04  0.00000000000E+00 0.  1.
         25    1    1    2    0    0  0.20569001215E+03  0.26292082238E+03 -0.88972108034E+03  0.95846979125E+03  0.12500000000E+03 0.  0.
         21    1    1    2  503  501  0.89283054115E+00  0.16320148021E+03 -0.13147856491E+02  0.16373266754E+03  0.00000000000E+00 0.  1.
          2    1    1    2  501    0 -0.20658284269E+03 -0.42612230259E+03  0.35292535548E+03  0.59060392328E+03  0.00000000000E+00 0.  1.
<mgrwt>
<rscale>  4 0.66645783E+03</rscale>
<asrwt>0</asrwt>
<pdfrwt beam="1">  1       21 0.89450985E-01 0.66645783E+03</pdfrwt>
<pdfrwt beam="2">  1        2 0.17405769E+00 0.66645783E+03</pdfrwt>
<totfact> 0.24749279E+02</totfact>
</mgrwt>
</event>
<event>
 5    0  0.3188794E-002  0.4392891E+03  0.7546771E-02  0.1030965E+00
         21   -1    0    0  503  502  0.00000000000E+00  0.00000000000E+00  0.18463592439E+03  0.18463592439E+03  0.00000000000E+00 0.  1.
          2   -1    0    0  502    0 -0.00000000000E+00 -0.00000000000E+00 -0.69048750001E+03  0.69048750001E+03  0.00000000000E+00 0.  1.
         25    1    1    2    0    0  0.16821424644E+03 -0.11339729978E+03 -0.27236379020E+03  0.36188674266E+03  0.12500000000E+03 0.  0.
         21    1    1    2  503  501 -0.27921334822E+02 -0.84094505238E+02  0.78404654879E+02  0.11831642598E+03  0.00000000000E+00 0. -1.
          2    1    1    2  501    0 -0.14029291162E+03  0.19749180501E+03 -0.31189244030E+03  0.39492025577E+03  0.00000000000E+00 0.  1.
<mgrwt>
<rscale>  4 0.43928913E+03</rscale>
<asrwt>0</asrwt>
<pdfrwt beam="1">  1       21 0.28405527E-01 0.43928913E+03</pdfrwt>
<pdfrwt beam="2">  1        2 0.10622884E+00 0.43928913E+03</pdfrwt>
<totfact> 0.60305694E+03</totfact>
</mgrwt>
</event>
<event>
 5    0  0.3188794E-002  0.4939159E+03  0.7546771E-02  0.1015379E+00
         21   -1    0    0  501  502  0.00000000000E+00  0.00000000000E+00  0.95956735984E+02  0.95956735984E+02  0.00000000000E+00 0. -1.
          1   -1    0    0  503    0 -0.00000000000E+00 -0.00000000000E+00 -0.16349499298E+04  0.16349499298E+04  0.00000000000E+00 0. -1.
         25    1    1    2    0    0 -0.60965883411E+02 -0.19957850747E+03 -0.94469871354E+03  0.97551477639E+03  0.12500000000E+03 0.  0.
         21    1    1    2  503  502  0.17489384454E+02  0.24160999494E+03 -0.63690393963E+03  0.68141609648E+03  0.00000000000E+00 0. -1.
          1    1    1    2  501    0  0.43476498957E+02 -0.42031487465E+02  0.42609459404E+02  0.73975792870E+02  0.00000000000E+00 0. -1.
<mgrwt>
<rscale>  4 0.49391595E+03</rscale>
<asrwt>0</asrwt>
<pdfrwt beam="1">  1       21 0.14762576E-01 0.49391595E+03</pdfrwt>
<pdfrwt beam="2">  1        1 0.25153074E+00 0.49391595E+03</pdfrwt>
<totfact> 0.24353106E+03</totfact>
</mgrwt>
</event>
<event>
 5    0  0.3188794E-002  0.8919782E+03  0.7546771E-02  0.9435665E-01
          2   -1    0    0  503    0 -0.00000000000E+00  0.00000000000E+00  0.69934445161E+03  0.69934445161E+03  0.00000000000E+00 0.  1.
         21   -1    0    0  501  502  0.00000000000E+00 -0.00000000000E+00 -0.74869828968E+03  0.74869828968E+03  0.00000000000E+00 0.  1.
         25    1    1    2    0    0 -0.31719022915E+03 -0.18152002996E+03 -0.32149111069E+02  0.38757931845E+03  0.12500000000E+03 0.  0.
         21    1    1    2  503  502  0.30514867431E+03  0.25298070902E+03  0.44308288340E+03  0.59450600849E+03  0.00000000000E+00 0.  1.
          2    1    1    2  501    0  0.12041554844E+02 -0.71460679061E+02 -0.46028761040E+03  0.46595741435E+03  0.00000000000E+00 0.  1.
<mgrwt>
<rscale>  4 0.89197815E+03</rscale>
<asrwt>0</asrwt>
<pdfrwt beam="1">  1       21 0.11518435E+00 0.89197815E+03</pdfrwt>
<pdfrwt beam="2">  1        2 0.10759145E+00 0.89197815E+03</pdfrwt>
<totfact> 0.24944901E+02</totfact>
</mgrwt>
</event>
<event>
 5    0  0.3188794E-002  0.4907652E+03  0.7546771E-02  0.1016218E+00
         21   -1    0    0  501  502  0.00000000000E+00  0.00000000000E+00  0.39363565499E+03  0.39363565499E+03  0.00000000000E+00 0.  1.
          4   -1    0    0  503    0 -0.00000000000E+00 -0.00000000000E+00 -0.34240027221E+03  0.34240027221E+03  0.00000000000E+00 0.  1.
         25    1    1    2    0    0  0.19724695865E+03  0.70843412234E+02 -0.16228270174E+03  0.29306283804E+03  0.12500000000E+03 0.  0.
         21    1    1    2  503  502  0.44909373729E+02 -0.48220498022E+02  0.18706073555E+03  0.19832747430E+03  0.00000000000E+00 0. -1.
          4    1    1    2  501    0 -0.24215633238E+03 -0.22622914212E+02  0.26457348971E+02  0.24464561486E+03  0.00000000000E+00 0.  1.
<mgrwt>
<rscale>  4 0.49076521E+03</rscale>
<asrwt>0</asrwt>
<pdfrwt beam="1">  1       21 0.60559332E-01 0.49076521E+03</pdfrwt>
<pdfrwt beam="2">  1        4 0.52676965E-01 0.49076521E+03</pdfrwt>
<totfact> 0.36145869E+02</totfact>
</mgrwt>
</event>
<event>
 5    0  0.3188794E-002  0.1487671E+04  0.7546771E-02  0.8892693E-01
         21   -1    0    0  501  502  0.00000000000E+00  0.00000000000E+00  0.74455041560E+03  0.74455041560E+03  0.00000000000E+00 0. -1.
          1   -1    0    0  503    0 -0.00000000000E+00 -0.00000000000E+00 -0.23442838593E+04  0.23442838593E+04  0.00000000000E+00 0. -1.
         25    1    1    2    0    0  0.64858359419E+03  0.28340195871E+03 -0.38551082478E+03  0.81561078026E+03  0.12500000000E+03 0.  0.
         21    1    1    2  503  502 -0.15418248284E+03 -0.45387361313E+03 -0.15694508658E+04  0.16410208758E+04  0.00000000000E+00 0. -1.
          1    1    1    2  501    0 -0.49440111134E+03  0.17047165441E+03  0.35522824688E+03  0.63220261882E+03  0.00000000000E+00 0. -1.
<mgrwt>
<rscale>  4 0.14876706E+04</rscale>
<asrwt>0</asrwt>
<pdfrwt beam="1">  1       21 0.11454622E+00 0.14876706E+04</pdfrwt>
<pdfrwt beam="2">  1        1 0.36065906E+00 0.14876706E+04</pdfrwt>
<totfact> 0.86478299E+00</totfact>
</mgrwt>
</event>
<event>
 5    0  0.3188794E-002  0.7715728E+03  0.7546771E-02  0.9602101E-01
         21   -1    0    0  503  502  0.00000000000E+00  0.00000000000E+00  0.60693165381E+03  0.60693165381E+03  0.00000000000E+00 0.  1.
         -4   -1    0    0    0  501 -0.00000000000E+00 -0.00000000000E+00 -0.48963302973E+03  0.48963302973E+03  0.00000000000E+00 0. -1.
         25    1    1    2    0    0  0.21143776822E+03  0.34524466053E+03 -0.22875677934E+03  0.48151268888E+03  0.12500000000E+03 0.  0.
         21    1    1    2  503  501  0.16083610303E+02 -0.26063689900E+03  0.13804269933E+03  0.29537444452E+03  0.00000000000E+00 0.  1.
         -4    1    1    2    0  502 -0.22752137852E+03 -0.84607761537E+02  0.20801270409E+03  0.31967755014E+03  0.00000000000E+00 0. -1.
<mgrwt>
<rscale>  4 0.77157279E+03</rscale>
<asrwt>0</asrwt>
<pdfrwt beam="1">  1       21 0.93374101E-01 0.77157279E+03</pdfrwt>
<pdfrwt beam="2">  1       -4 0.75328158E-01 0.77157279E+03</pdfrwt>
<totfact> 0.59542648E+01</totfact>
</mgrwt>
</event>
<event>
 5    0  0.3188794E-002  0.4510469E+03  0.7546771E-02  0.1027410E+00
         21   -1    0    0  503  502  0.00000000000E+00  0.00000000000E+00  0.87730559887E+02  0.87730559887E+02  0.00000000000E+00 0. -1.
          2   -1    0    0  502    0 -0.00000000000E+00 -0.00000000000E+00 -0.91810251678E+03  0.91810251678E+03  0.00000000000E+00 0.  1.
         25    1    1    2    0    0 -0.23436872859E+03 -0.52719581023E+02 -0.60909825870E+03  0.66658363610E+03  0.12500000000E+03 0.  0.
         21    1    1    2  503  501  0.13415263701E+03 -0.43789393852E+01 -0.77727214386E+02  0.15510520617E+03  0.00000000000E+00 0. -1.
          2    1    1    2  501    0  0.10021609159E+03  0.57098520409E+02 -0.14354648380E+03  0.18414423439E+03  0.00000000000E+00 0.  1.
<mgrwt>
<rscale>  4 0.45104692E+03</rscale>
<asrwt>0</asrwt>
<pdfrwt beam="1">  1       21 0.13497010E-01 0.45104692E+03</pdfrwt>
<pdfrwt beam="2">  1        2 0.14124654E+00 0.45104692E+03</pdfrwt>
<totfact> 0.17095006E+04</totfact>
</mgrwt>
</event>
<event>
 5    0  0.3188794E-002  0.5405375E+03  0.7546771E-02  0.1003708E+00
          2   -1    0    0  503    0 -0.00000000000E+00  0.00000000000E+00  0.82413197291E+03  0.82413197291E+03  0.00000000000E+00 0. -1.
         21   -1    0    0  501  502  0.00000000000E+00 -0.00000000000E+00 -0.34838246147E+03  0.34838246147E+03  0.00000000000E+00 0.  1.
         25    1    1    2    0    0  0.24545499495E+03  0.11386689346E+02 -0.24222013243E+02  0.27674811140E+03  0.12500000000E+03 0.  0.
         21    1    1    2  503  502  0.20026507728E+03  0.15353217149E+03  0.89358705994E+02  0.26769984534E+03  0.00000000000E+00 0. -1.
          2    1    1    2  501    0 -0.44572007223E+03 -0.16491886083E+03  0.41061281869E+03  0.62806647763E+03  0.00000000000E+00 0. -1.
<mgrwt>
<rscale>  4 0.54053750E+03</rscale>
<asrwt>0</asrwt>
<pdfrwt beam="1">  1       21 0.53597302E-01 0.54053750E+03</pdfrwt>
<pdfrwt beam="2">  1        2 0.12678953E+00 0.54053750E+03</pdfrwt>
<totfact> 0.12779224E+03</totfact>
</mgrwt>
</event>
<event>
 5    0  0.3188794E-002  0.4059404E+03  0.7546771E-02  0.1041742E+00
         21   -1    0    0  501  502  0.00000000000E+00  0.00000000000E+00  0.36482470249E+03  0.36482470249E+03  0.00000000000E+00 0. -1.
         -2   -1    0    0    0  501 -0.00000000000E+00 -0.00000000000E+00 -0.26639074218E+03  0.26639074218E+03  0.00000000000E+00 0.  1.
         25    1    1    2    0    0 -0.20785658831E+03 -0.11233667135E+03  0.88783100675E+02  0.28165817581E+03  0.12500000000E+03 0.  0.
         21    1    1    2  503  502  0.10257003081E+03  0.67084934163E+02  0.13322443172E+03  0.18102416640E+03  0.00000000000E+00 0. -1.
         -2    1    1    2    0  503  0.10528655750E+03  0.45251737189E+02 -0.12357357208E+03  0.16853310246E+03  0.00000000000E+00 0.  1.
<mgrwt>
<rscale>  4 0.40594040E+03</rscale>
<asrwt>0</asrwt>
<pdfrwt beam="1">  1       21 0.56126877E-01 0.40594040E+03</pdfrwt>
<pdfrwt beam="2">  1       -2 0.40983191E-01 0.40594040E+03</pdfrwt>
<totfact> 0.13034883E+03</totfact>
</mgrwt>
</event>
<event>
 5    0  0.3188794E-002  0.7358529E+03  0.7546771E-02  0.9657810E-01
         21   -1    0    0  501  502  0.00000000000E+00  0.00000000000E+00  0.25148143844E+03  0.25148143844E+03  0.00000000000E+00 0. -1.
          2   -1    0    0  503    0 -0.00000000000E+00 -0.00000000000E+00 -0.75413913070E+03  0.75413913070E+03  0.00000000000E+00 0.  1.
         25    1    1    2    0    0  0.25302726285E+03 -0.23814811091E+03 -0.40883440911E+03  0.55091550400E+03  0.12500000000E+03 0.  0.
         21    1    1    2  503  502 -0.23141094461E+03  0.25491339668E+03 -0.16255396856E+03  0.38073042666E+03  0.00000000000E+00 0.  1.
          2    1    1    2  501    0 -0.21616318232E+02 -0.16765285764E+02  0.68730685408E+02  0.73974638474E+02  0.00000000000E+00 0.  1.
<mgrwt>
<rscale>  4 0.73585288E+03</rscale>
<asrwt>0</asrwt>
<pdfrwt beam="1">  1       21 0.38689452E-01 0.73585288E+03</pdfrwt>
<pdfrwt beam="2">  1        2 0.11602140E+00 0.73585288E+03</pdfrwt>
<totfact> 0.27784318E+03</totfact>
</mgrwt>
</event>
<event>
 5    0  0.3188794E-002  0.3763701E+03  0.7546771E-02  0.1052284E+00
          2   -1    0    0  502    0 -0.00000000000E+00  0.00000000000E+00  0.13073269391E+04  0.13073269391E+04  0.00000000000E+00 0.  1.
         21   -1    0    0  503  502  0.00000000000E+00 -0.00000000000E+00 -0.49832447778E+02  0.49832447778E+02  0.00000000000E+00 0.  1.
         25    1    1    2    0    0  0.22014677575E+03 -0.46204106153E+02  0.53194510650E+03  0.59092302259E+03  0.12500000000E+03 0.  0.
         21    1    1    2  503  501 -0.10999775393E+03  0.45270601542E+02  0.23401911604E+03  0.26251453276E+03  0.00000000000E+00 0. -1.
          2    1    1    2  501    0 -0.11014902182E+03  0.93350461096E+00  0.49153026881E+03  0.50372183156E+03  0.00000000000E+00 0.  1.
<mgrwt>
<rscale>  4 0.37637012E+03</rscale>
<asrwt>0</asrwt>
<pdfrwt beam="1">  1       21 0.76665314E-02 0.37637012E+03</pdfrwt>
<pdfrwt beam="2">  1        2 0.20112720E+00 0.37637012E+03</pdfrwt>
<totfact> 0.27870236E+04</totfact>
</mgrwt>
</event>
<event>
 5    0  0.3188794E-002  0.5418921E+03  0.7546771E-02  0.1003388E+00
          1   -1    0    0  503    0 -0.00000000000E+00  0.00000000000E+00  0.46595126901E+03  0.46595126901E+03  0.00000000000E+00 0.  1.
         21   -1    0    0  501  502  0.00000000000E+00 -0.00000000000E+00 -0.65120649877E+03  0.65120649877E+03  0.00000000000E+00 0.  1.
         25    1    1    2    0    0 -0.33707378234E+03 -0.16274161467E+03 -0.23239688576E+03  0.45797039249E+03  0.12500000000E+03 0.  0.
         21    1    1    2  503  502 -0.27433224116E+02 -0.14453606144E+03 -0.77691483897E+02  0.16637073514E+03  0.00000000000E+00 0. -1.
          1    1    1    2  501    0  0.36450700646E+03  0.30727767611E+03  0.12483313990E+03  0.49281664015E+03  0.00000000000E+00 0.  1.
<mgrwt>
<rscale>  4 0.54189210E+03</rscale>
<asrwt>0</asrwt>
<pdfrwt beam="1">  1       21 0.10018561E+00 0.54189210E+03</pdfrwt>
<pdfrwt beam="2">  1        1 0.71684811E-01 0.54189210E+03</pdfrwt>
<totfact> 0.39351499E+02</totfact>
</mgrwt>
</event>
<event>
 5    0  0.3188794E-002  0.3124438E+03  0.7546771E-02  0.1079180E+00
          2   -1    0    0  503    0 -0.00000000000E+00  0.00000000000E+00  0.58697247128E+03  0.58697247128E+03  0.00000000000E+00 0. -1.
         21   -1    0    0  501  502  0.00000000000E+00 -0.00000000000E+00 -0.14960223458E+03  0.14960223458E+03  0.00000000000E+00 0. -1.
         25    1    1    2    0    0  0.20457756055E+02  0.20451324316E+03  0.35332350091E+03  0.42744202262E+03  0.12500000000E+03 0.  0.
         21    1    1    2  503  502  0.63997780598E+02 -0.32074600379E+02  0.92466476296E+02  0.11693821082E+03  0.00000000000E+00 0.  1.
          2    1    1    2  501    0 -0.84455536654E+02 -0.17243864278E+03 -0.84197405051E+01  0.19219447241E+03  0.00000000000E+00 0. -1.
<mgrwt>
<rscale>  4 0.31244381E+03</rscale>
<asrwt>0</asrwt>
<pdfrwt beam="1">  1       21 0.23015729E-01 0.31244381E+03</pdfrwt>
<pdfrwt beam="2">  1        2 0.90303456E-01 0.31244381E+03</pdfrwt>
<totfact> 0.11254937E+04</totfact>
</mgrwt>
</event>
<event>
 5    0  0.3188794E-002  0.4908261E+03  0.7546771E-02  0.1016202E+00
         21   -1    0    0  501  502  0.00000000000E+00  0.00000000000E+00  0.47731207466E+03  0.47731207466E+03  0.00000000000E+00 0.  1.
          1   -1    0    0  503    0 -0.00000000000E+00 -0.00000000000E+00 -0.18782553537E+03  0.18782553537E+03  0.00000000000E+00 0. -1.
         25    1    1    2    0    0  0.17921478507E+03 -0.16012014285E+03  0.15596663869E+03  0.31258117621E+03  0.12500000000E+03 0.  0.
         21    1    1    2  503  502 -0.13294663962E+03  0.14721425371E+03 -0.12583837320E+02  0.19875914682E+03  0.00000000000E+00 0. -1.
          1    1    1    2  501    0 -0.46268145452E+02  0.12905889137E+02  0.14610373792E+03  0.15379728701E+03  0.00000000000E+00 0. -1.
<mgrwt>
<rscale>  4 0.49082614E+03</rscale>
<asrwt>0</asrwt>
<pdfrwt beam="1">  1       21 0.73432626E-01 0.49082614E+03</pdfrwt>
<pdfrwt beam="2">  1        1 0.28896236E-01 0.49082614E+03</pdfrwt>
<totfact> 0.26789330E+03</totfact>
</mgrwt>
</event>
<event>
 5    0  0.3188794E-002  0.3994920E+03  0.7546771E-02  0.1043956E+00
         21   -1    0    0  503  502  0.00000000000E+00  0.00000000000E+00  0.15534804028E+04  0.15534804028E+04  0.00000000000E+00 0. -1.
         -2   -1    0    0    0  501 -0.00000000000E+00 -0.00000000000E+00 -0.48008776710E+02  0.48008776710E+02  0.00000000000E+00 0.  1.
         25    1    1    2    0    0 -0.19755347931E+03  0.35258377689E+02  0.33937429126E+03  0.41360662465E+03  0.12500000000E+03 0.  0.
         21    1    1    2  503  501  0.12776381935E+03  0.13799045801E+02  0.49598979703E+03  0.51236694464E+03  0.00000000000E+00 0. -1.
         -2    1    1    2    0  502  0.69789659967E+02 -0.49057423491E+02  0.67010753776E+03  0.67551561019E+03  0.00000000000E+00 0.  1.
<mgrwt>
<rscale>  4 0.39949204E+03</rscale>
<asrwt>0</asrwt>
<pdfrwt beam="1">  1       21 0.23899695E+00 0.39949204E+03</pdfrwt>
<pdfrwt beam="2">  1       -2 0.73859668E-02 0.39949204E+03</pdfrwt>
<totfact> 0.58475681E+02</totfact>
</mgrwt>
</event>
<event>
 5    0  0.3188794E-002  0.5057098E+03  0.7546771E-02  0.1012299E+00
         21   -1    0    0  503  502  0.00000000000E+00  0.00000000000E+00  0.77140445636E+03  0.77140445636E+03  0.00000000000E+00 0. -1.
          1   -1    0    0  502    0 -0.00000000000E+00 -0.00000000000E+00 -0.43324105429E+03  0.43324105429E+03  0.00000000000E+00 0.  1.
         25    1    1    2    0    0 -0.20532043562E+03  0.10679974257E+03  0.47132704019E+03  0.53975628306E+03  0.12500000000E+03 0.  0.
         21    1    1    2  503  501 -0.14128470040E+03 -0.14835705998E+03  0.11653189649E+03  0.23569231364E+03  0.00000000000E+00 0. -1.
          1    1    1    2  501    0  0.34660513601E+03  0.41557317407E+02 -0.24969553461E+03  0.42919691395E+03  0.00000000000E+00 0.  1.
<mgrwt>
<rscale>  4 0.50570979E+03</rscale>
<asrwt>0</asrwt>
<pdfrwt beam="1">  1       21 0.11867761E+00 0.50570979E+03</pdfrwt>
<pdfrwt beam="2">  1        1 0.66652470E-01 0.50570979E+03</pdfrwt>
<totfact> 0.28699660E+02</totfact>
</mgrwt>
</event>
