<event>
 5    0  0.1257040E+001  0.2077828E+03  0.7546771E-02  0.1143334E+00
         21   -1    0    0  502  501  0.00000000000E+00  0.00000000000E+00  0.23649568325E+03  0.23649568325E+03  0.00000000000E+00 0. -1.
         21   -1    0    0  504  502 -0.00000000000E+00 -0.00000000000E+00 -0.19129296569E+04  0.19129296569E+04  0.00000000000E+00 0.  1.
         25    1    1    2    0    0  0.19229824550E+03  0.75836184760E+02 -0.17659129077E+03  0.29923105808E+03  0.12500000000E+03 0.  0.
         21    1    1    2  503  501 -0.48397360830E+02  0.15969141906E+01  0.16775760087E+03  0.17460660732E+03  0.00000000000E+00 0. -1.
         21    1    1    2  504  503 -0.14390088467E+03 -0.77433098951E+02 -0.16676002837E+04  0.16755876747E+04  0.00000000000E+00 0.  1.
<mgrwt>
<rscale>  4 0.20778281E+03</rscale>
<asrwt>0</asrwt>
<pdfrwt beam="1">  1       21 0.36383953E-01 0.20778281E+03</pdfrwt>
<pdfrwt beam="2">  1       21 0.29429686E+00 0.20778281E+03</pdfrwt>
<totfact> 0.26236238E+02</totfact>
</mgrwt>
</event>
<event>
 5    0  0.1257040E+001  0.2789123E+03  0.7546771E-02  0.1096285E+00
         21   -1    0    0  503  501  0.00000000000E+00  0.00000000000E+00  0.36405162651E+03  0.36405162651E+03  0.00000000000E+00 0. -1.
         21   -1    0    0  504  502 -0.00000000000E+00 -0.00000000000E+00 -0.14490542486E+04  0.14490542486E+04  0.00000000000E+00 0. -1.
         25    1    1    2    0    0 -0.99268917487E+01  0.24835429072E+03  0.23571626544E+03  0.36464442227E+03  0.12500000000E+03 0.  0.
         21    1    1    2  503  502  0.37693936510E+02 -0.24655386864E+03 -0.13696484637E+04  0.13921733215E+04  0.00000000000E+00 0. -1.
         21    1    1    2  504  501 -0.27767044761E+02 -0.18004220803E+01  0.48929576218E+02  0.56288131283E+02  0.00000000000E+00 0. -1.
<mgrwt>
<rscale>  4 0.27891228E+03</rscale>
<asrwt>0</asrwt>
<pdfrwt beam="1">  1       21 0.56007942E-01 0.27891228E+03</pdfrwt>
<pdfrwt beam="2">  1       21 0.22293143E+00 0.27891228E+03</pdfrwt>
<totfact> 0.26311994E+02</totfact>
</mgrwt>
</event>
<event>
 5    0  0.1257040E+001  0.2594192E+03  0.7546771E-02  0.1107493E+00
         21   -1    0    0  502  501  0.00000000000E+00  0.00000000000E+00  0.37924291796E+03  0.37924291796E+03  0.00000000000E+00 0. -1.
         21   -1    0    0  504  502 -0.00000000000E+00 -0.00000000000E+00 -0.23970331182E+03  0.23970331182E+03  0.00000000000E+00 0. -1.
         25    1    1    2    0    0  0.91394260944E+02  0.22788598657E+03  0.52041236640E+02  0.28038941514E+03  0.12500000000E+03 0.  0.
         21    1    1    2  503  501  0.35696522655E+01 -0.32699513990E+02  0.11513579373E+03  0.11974243872E+03  0.00000000000E+00 0. -1.
         21    1    1    2  504  503 -0.94963913209E+02 -0.19518647258E+03 -0.27637424235E+02  0.21881437592E+03  0.00000000000E+00 0. -1.
<mgrwt>
<rscale>  4 0.25941916E+03</rscale>
<asrwt>0</asrwt>
<pdfrwt beam="1">  1       21 0.58345064E-01 0.25941916E+03</pdfrwt>
<pdfrwt beam="2">  1       21 0.36877433E-01 0.25941916E+03</pdfrwt>
<totfact> 0.18818061E+04</totfact>
</mgrwt>
</event>
<event>
 5    0  0.1257040E+001  0.2272464E+03  0.7546771E-02  0.1128593E+00
         21   -1    0    0  502  501  0.00000000000E+00  0.00000000000E+00  0.20809011533E+04  0.20809011533E+04  0.00000000000E+00 0.  1.
         21   -1    0    0  504  502 -0.00000000000E+00 -0.00000000000E+00 -0.38095554827E+02  0.38095554827E+02  0.00000000000E+00 0.  1.
         25    1    1    2    0    0 -0.18774916834E+03  0.13892930820E+03  0.72845122403E+03  0.77512404729E+03  0.12500000000E+03 0.  0.
         21    1    1    2  503  501  0.13100596550E+03 -0.12034747422E+03  0.12150248908E+04  0.12279786491E+04  0.00000000000E+00 0.  1.
         21    1    1    2  504  503  0.56743202839E+02 -0.18581833981E+02  0.99329483700E+02  0.11589401173E+03  0.00000000000E+00 0. -1.
<mgrwt>
<rscale>  4 0.22724635E+03</rscale>
<asrwt>0</asrwt>
<pdfrwt beam="1">  1       21 0.32013855E+00 0.22724635E+03</pdfrwt>
<pdfrwt beam="2">  1       21 0.58608562E-02 0.22724635E+03</pdfrwt>
<totfact> 0.51582578E+03</totfact>
</mgrwt>
</event>
<event>
 5    0  0.1257040E+001  0.2754041E+03  0.7546771E-02  0.1098226E+00
         21   -1    0    0  502  501  0.00000000000E+00  0.00000000000E+00  0.41943152794E+03  0.41943152794E+03  0.00000000000E+00 0. -1.
         21   -1    0    0  504  502 -0.00000000000E+00 -0.00000000000E+00 -0.18865121163E+03  0.18865121163E+03  0.00000000000E+00 0. -1.
         25    1    1    2    0    0  0.16438313591E+02  0.24825404132E+03  0.16693128463E+03  0.32464032555E+03  0.12500000000E+03 0.  0.
         21    1    1    2  503  501 -0.40102431228E+02 -0.23890767215E+03  0.77786187576E+02  0.25443225381E+03  0.00000000000E+00 0. -1.
         21    1    1    2  504  503  0.23664117637E+02 -0.93463691729E+01 -0.13937155898E+02  0.29010160199E+02  0.00000000000E+00 0. -1.
<mgrwt>
<rscale>  4 0.27540410E+03</rscale>
<asrwt>0</asrwt>
<pdfrwt beam="1">  1       21 0.64527927E-01 0.27540410E+03</pdfrwt>
<pdfrwt beam="2">  1       21 0.29023264E-01 0.27540410E+03</pdfrwt>
<totfact> 0.24145343E+04</totfact>
</mgrwt>
</event>
<event>
 5    0  0.1257040E+001  0.2312331E+03  0.7546771E-02  0.1125775E+00
         21   -1    0    0  504  501  0.00000000000E+00  0.00000000000E+00  0.28852006194E+03  0.28852006194E+03  0.00000000000E+00 0. -1.
         21   -1    0    0  503  502 -0.00000000000E+00 -0.00000000000E+00 -0.25084885804E+03  0.25084885804E+03  0.00000000000E+00 0. -1.
         25    1    1    2    0    0  0.13912350030E+03  0.17656059226E+03 -0.29493342390E+02  0.25888964506E+03  0.12500000000E+03 0.  0.
         21    1    1    2  503  501 -0.22482499899E+02 -0.34412044127E+02 -0.48246228049E+02  0.63382569399E+02  0.00000000000E+00 0. -1.
         21    1    1    2  504  502 -0.11664100040E+03 -0.14214854813E+03  0.11541077433E+03  0.21709670551E+03  0.00000000000E+00 0. -1.
<mgrwt>
<rscale>  4 0.23123314E+03</rscale>
<asrwt>0</asrwt>
<pdfrwt beam="1">  1       21 0.44387701E-01 0.23123314E+03</pdfrwt>
<pdfrwt beam="2">  1       21 0.38592132E-01 0.23123314E+03</pdfrwt>
<totfact> 0.30930986E+04</totfact>
</mgrwt>
</event>
<event>
 5    0  0.1257040E+001  0.3636946E+03  0.7546771E-02  0.1057130E+00
         21   -1    0    0  502  501  0.00000000000E+00  0.00000000000E+00  0.93185737972E+03  0.93185737972E+03  0.00000000000E+00 0. -1.
         21   -1    0    0  504  502 -0.00000000000E+00 -0.00000000000E+00 -0.42499994538E+03  0.42499994538E+03  0.00000000000E+00 0.  1.
         25    1    1    2    0    0  0.32941625065E+03 -0.11650047365E+03  0.71886187960E+03  0.80899618571E+03  0.12500000000E+03 0.  0.
         21    1    1    2  503  501 -0.54173480901E+00  0.27002633374E+02  0.89081251831E+02  0.93085472086E+02  0.00000000000E+00 0.  1.
         21    1    1    2  504  503 -0.32887451584E+03  0.89497840279E+02 -0.30108569709E+03  0.45477566731E+03  0.00000000000E+00 0.  1.
<mgrwt>
<rscale>  4 0.36369456E+03</rscale>
<asrwt>0</asrwt>
<pdfrwt beam="1">  1       21 0.14336267E+00 0.36369456E+03</pdfrwt>
<pdfrwt beam="2">  1       21 0.65384607E-01 0.36369456E+03</pdfrwt>
<totfact> 0.63313196E+02</totfact>
</mgrwt>
</event>
<event>
 5    0  0.1257040E+001  0.2231596E+03  0.7546771E-02  0.1131549E+00
         21   -1    0    0  502  501  0.00000000000E+00  0.00000000000E+00  0.99493025142E+03  0.99493025142E+03  0.00000000000E+00 0.  1.
         21   -1    0    0  504  502 -0.00000000000E+00 -0.00000000000E+00 -0.33448706608E+03  0.33448706608E+03  0.00000000000E+00 0. -1.
         25    1    1    2    0    0  0.12346516351E+03  0.21588015871E+03  0.32632120778E+03  0.42890374231E+03  0.12500000000E+03 0.  0.
         21    1    1    2  503  501 -0.74289091606E+02 -0.42246244006E+02  0.58514565149E+03  0.59135357251E+03  0.00000000000E+00 0.  1.
         21    1    1    2  504  503 -0.49176071903E+02 -0.17363391470E+03 -0.25102367393E+03  0.30916000268E+03  0.00000000000E+00 0. -1.
<mgrwt>
<rscale>  4 0.22315958E+03</rscale>
<asrwt>0</asrwt>
<pdfrwt beam="1">  1       21 0.15306619E+00 0.22315958E+03</pdfrwt>
<pdfrwt beam="2">  1       21 0.51459549E-01 0.22315958E+03</pdfrwt>
<totfact> 0.98617039E+02</totfact>
</mgrwt>
</event>
<event>
 5    0  0.1257040E+001  0.3119257E+03  0.7546771E-02  0.1079427E+00
         21   -1    0    0  504  501  0.00000000000E+00  0.00000000000E+00  0.26837624332E+04  0.26837624332E+04  0.00000000000E+00 0. -1.
         21   -1    0    0  503  502 -0.00000000000E+00 -0.00000000000E+00 -0.44811425336E+02  0.44811425336E+02  0.00000000000E+00 0. -1.
         25    1    1    2    0    0  0.13399675423E+03 -0.23373828325E+03  0.81624459142E+03  0.86860172014E+03  0.12500000000E+03 0.  0.
         21    1    1    2  503  501 -0.14088655017E+02 -0.34434203561E+02  0.46086258921E+02  0.59229619587E+02  0.00000000000E+00 0.  1.
         21    1    1    2  504  502 -0.11990809921E+03  0.26817248681E+03  0.17766201575E+04  0.18007425188E+04  0.00000000000E+00 0. -1.
<mgrwt>
<rscale>  4 0.31192569E+03</rscale>
<asrwt>0</asrwt>
<pdfrwt beam="1">  1       21 0.41288640E+00 0.31192569E+03</pdfrwt>
<pdfrwt beam="2">  1       21 0.68940675E-02 0.31192569E+03</pdfrwt>
<totfact> 0.97409929E+02</totfact>
</mgrwt>
</event>
<event>
 5    0  0.1257040E+001  0.2389369E+03  0.7546771E-02  0.1120503E+00
         21   -1    0    0  502  501  0.00000000000E+00  0.00000000000E+00  0.12916317514E+04  0.12916317514E+04  0.00000000000E+00 0.  1.
         21   -1    0    0  504  502 -0.00000000000E+00 -0.00000000000E+00 -0.51382203511E+02  0.51382203511E+02  0.00000000000E+00 0.  1.
         25    1    1    2    0    0  0.45359482815E+02  0.19851540646E+03  0.34178994576E+03  0.41702663741E+03  0.12500000000E+03 0.  0.
         21    1    1    2  503  501 -0.46200706572E+02 -0.28923873005E+02  0.21641891105E+03  0.22317759918E+03  0.00000000000E+00 0. -1.
         21    1    1    2  504  503  0.84122375695E+00 -0.16959153346E+03  0.68204069108E+03  0.70280971832E+03  0.00000000000E+00 0.  1.
<mgrwt>
<rscale>  4 0.23893691E+03</rscale>
<asrwt>0</asrwt>
<pdfrwt beam="1">  1       21 0.19871255E+00 0.23893691E+03</pdfrwt>
<pdfrwt beam="2">  1       21 0.79049554E-02 0.23893691E+03</pdfrwt>
<totfact> 0.16215284E+04</totfact>
</mgrwt>
</event>
<event>
 5    0  0.1257040E+001  0.2947960E+03  0.7546771E-02  0.1087871E+00
         21   -1    0    0  504  501  0.00000000000E+00  0.00000000000E+00  0.18458587832E+04  0.18458587832E+04  0.00000000000E+00 0. -1.
         21   -1    0    0  503  502 -0.00000000000E+00 -0.00000000000E+00 -0.87589257246E+02  0.87589257246E+02  0.00000000000E+00 0. -1.
         25    1    1    2    0    0  0.18659692682E+03  0.89261909453E+02  0.25894700980E+03  0.35420990311E+03  0.12500000000E+03 0.  0.
         21    1    1    2  503  501  0.10773497543E+03 -0.99539856530E+02  0.20649057393E+03  0.25328514581E+03  0.00000000000E+00 0.  1.
         21    1    1    2  504  502 -0.29433190225E+03  0.10277947077E+02  0.12928319422E+04  0.13259529915E+04  0.00000000000E+00 0. -1.
<mgrwt>
<rscale>  4 0.29479603E+03</rscale>
<asrwt>0</asrwt>
<pdfrwt beam="1">  1       21 0.28397825E+00 0.29479603E+03</pdfrwt>
<pdfrwt beam="2">  1       21 0.13475272E-01 0.29479603E+03</pdfrwt>
<totfact> 0.18169508E+03</totfact>
</mgrwt>
</event>
<event>
 5    0  0.1257040E+001  0.2793287E+03  0.7546771E-02  0.1096056E+00
         21   -1    0    0  502  501  0.00000000000E+00  0.00000000000E+00  0.82905805684E+03  0.82905805684E+03  0.00000000000E+00 0.  1.
         21   -1    0    0  504  502 -0.00000000000E+00 -0.00000000000E+00 -0.12840846037E+03  0.12840846037E+03  0.00000000000E+00 0.  1.
         25    1    1    2    0    0 -0.17912253750E+03  0.18761048854E+03  0.24033573233E+03  0.37505845289E+03  0.12500000000E+03 0.  0.
         21    1    1    2  503  501  0.42341247735E+02  0.17705838437E+02 -0.13820100864E+02  0.47929877555E+02  0.00000000000E+00 0.  1.
         21    1    1    2  504  503  0.13678128977E+03 -0.20531632698E+03  0.47413396500E+03  0.53447818676E+03  0.00000000000E+00 0.  1.
<mgrwt>
<rscale>  4 0.27932870E+03</rscale>
<asrwt>0</asrwt>
<pdfrwt beam="1">  1       21 0.12754739E+00 0.27932870E+03</pdfrwt>
<pdfrwt beam="2">  1       21 0.19755148E-01 0.27932870E+03</pdfrwt>
<totfact> 0.10151687E+04</totfact>
</mgrwt>
</event>
<event>
 5    0  0.1257040E+001  0.2736190E+03  0.7546771E-02  0.1099226E+00
         21   -1    0    0  504  501  0.00000000000E+00  0.00000000000E+00  0.48992781912E+03  0.48992781912E+03  0.00000000000E+00 0.  1.
         21   -1    0    0  503  502 -0.00000000000E+00 -0.00000000000E+00 -0.20415960645E+03  0.20415960645E+03  0.00000000000E+00 0.  1.
         25    1    1    2    0    0 -0.22642711158E+03 -0.75588350637E+02  0.26517425435E+01  0.26947145925E+03  0.12500000000E+03 0.  0.
         21    1    1    2  503  501  0.24494673855E+03  0.58561242660E+02  0.15869900210E+03  0.29768052864E+03  0.00000000000E+00 0.  1.
         21    1    1    2  504  502 -0.18519626969E+02  0.17027107976E+02  0.12441746802E+03  0.12693543768E+03  0.00000000000E+00 0.  1.
<mgrwt>
<rscale>  4 0.27361901E+03</rscale>
<asrwt>0</asrwt>
<pdfrwt beam="1">  1       21 0.75373511E-01 0.27361901E+03</pdfrwt>
<pdfrwt beam="2">  1       21 0.31409170E-01 0.27361901E+03</pdfrwt>
<totfact> 0.14643210E+04</totfact>
</mgrwt>
</event>
<event>
 5    0  0.1257040E+001  0.3183268E+03  0.7546771E-02  0.1076422E+00
         21   -1    0    0  502  501  0.00000000000E+00  0.00000000000E+00  0.92450860042E+03  0.92450860042E+03  0.00000000000E+00 0. -1.
         21   -1    0    0  504  502 -0.00000000000E+00 -0.00000000000E+00 -0.20547574116E+03  0.20547574116E+03  0.00000000000E+00 0. -1.
         25    1    1    2    0    0 -0.14653494021E+03 -0.16549752843E+03 -0.56542701166E+00  0.25394338016E+03  0.12500000000E+03 0.  0.
         21    1    1    2  503  501  0.24891413669E+03  0.18870554644E+03  0.70364371410E+03  0.76985875789E+03  0.00000000000E+00 0. -1.
         21    1    1    2  504  503 -0.10237919648E+03 -0.23208018009E+02  0.15954572163E+02  0.10618220352E+03  0.00000000000E+00 0.  1.
<mgrwt>
<rscale>  4 0.31832683E+03</rscale>
<asrwt>0</asrwt>
<pdfrwt beam="1">  1       21 0.14223209E+00 0.31832683E+03</pdfrwt>
<pdfrwt beam="2">  1       21 0.31611653E-01 0.31832683E+03</pdfrwt>
<totfact> 0.30265035E+03</totfact>
</mgrwt>
</event>
<event>
 5    0  0.1257040E+001  0.2087507E+03  0.7546771E-02  0.1142559E+00
         21   -1    0    0  502  501  0.00000000000E+00  0.00000000000E+00  0.48633974482E+03  0.48633974482E+03  0.00000000000E+00 0.  1.
         21   -1    0    0  504  502 -0.00000000000E+00 -0.00000000000E+00 -0.19999023181E+04  0.19999023181E+04  0.00000000000E+00 0.  1.
         25    1    1    2    0    0 -0.73242711332E+02  0.21604283870E+03 -0.18023479429E+04  0.18210222707E+04  0.12500000000E+03 0.  0.
         21    1    1    2  503  501  0.10545725435E+03 -0.12923554053E+03  0.44966057436E+03  0.47960159462E+03  0.00000000000E+00 0.  1.
         21    1    1    2  504  503 -0.32214543023E+02 -0.86807298173E+02 -0.16087520468E+03  0.18561819760E+03  0.00000000000E+00 0.  1.
<mgrwt>
<rscale>  4 0.20875065E+03</rscale>
<asrwt>0</asrwt>
<pdfrwt beam="1">  1       21 0.74821499E-01 0.20875065E+03</pdfrwt>
<pdfrwt beam="2">  1       21 0.30767728E+00 0.20875065E+03</pdfrwt>
<totfact> 0.47956792E+01</totfact>
</mgrwt>
</event>
<event>
 5    0  0.1257040E+001  0.2254399E+03  0.7546771E-02  0.1129891E+00
         21   -1    0    0  504  501  0.00000000000E+00  0.00000000000E+00  0.14845853102E+03  0.14845853102E+03  0.00000000000E+00 0.  1.
         21   -1    0    0  503  502 -0.00000000000E+00 -0.00000000000E+00 -0.12857325097E+04  0.12857325097E+04  0.00000000000E+00 0.  1.
         25    1    1    2    0    0 -0.18602915642E+03 -0.11734340267E+03 -0.84453283840E+03  0.88161047880E+03  0.12500000000E+03 0.  0.
         21    1    1    2  503  501  0.19525327632E+02  0.36233395396E+02 -0.35485454873E+03  0.35723360440E+03  0.00000000000E+00 0.  1.
         21    1    1    2  504  502  0.16650382879E+03  0.81110007277E+02  0.62113408491E+02  0.19534695748E+03  0.00000000000E+00 0.  1.
<mgrwt>
<rscale>  4 0.22543987E+03</rscale>
<asrwt>0</asrwt>
<pdfrwt beam="1">  1       21 0.22839775E-01 0.22543987E+03</pdfrwt>
<pdfrwt beam="2">  1       21 0.19780500E+00 0.22543987E+03</pdfrwt>
<totfact> 0.24176891E+03</totfact>
</mgrwt>
</event>
<event>
 5    0  0.1257040E+001  0.3001578E+03  0.7546771E-02  0.1085162E+00
         21   -1    0    0  502  501  0.00000000000E+00  0.00000000000E+00  0.10722665628E+04  0.10722665628E+04  0.00000000000E+00 0. -1.
         21   -1    0    0  504  502 -0.00000000000E+00 -0.00000000000E+00 -0.13902227599E+03  0.13902227599E+03  0.00000000000E+00 0. -1.
         25    1    1    2    0    0  0.24520580536E+03  0.12243790928E+03  0.64791556574E+03  0.71451837551E+03  0.12500000000E+03 0.  0.
         21    1    1    2  503  501  0.10353050431E+02 -0.26727387634E+02  0.21236590405E+03  0.21429142798E+03  0.00000000000E+00 0.  1.
         21    1    1    2  504  503 -0.25555885579E+03 -0.95710521642E+02  0.72962817043E+02  0.28247903532E+03  0.00000000000E+00 0. -1.
<mgrwt>
<rscale>  4 0.30015780E+03</rscale>
<asrwt>0</asrwt>
<pdfrwt beam="1">  1       21 0.16496408E+00 0.30015780E+03</pdfrwt>
<pdfrwt beam="2">  1       21 0.21388043E-01 0.30015780E+03</pdfrwt>
<totfact> 0.43685663E+03</totfact>
</mgrwt>
</event>
<event>
 5    0  0.1257040E+001  0.2633987E+03  0.7546771E-02  0.1105118E+00
         21   -1    0    0  502  501  0.00000000000E+00  0.00000000000E+00  0.21648719955E+04  0.21648719955E+04  0.00000000000E+00 0. -1.
         21   -1    0    0  504  502 -0.00000000000E+00 -0.00000000000E+00 -0.58199609592E+02  0.58199609592E+02  0.00000000000E+00 0. -1.
         25    1    1    2    0    0 -0.28213432875E+03  0.26507272821E+02  0.65623787985E+03  0.72565526934E+03  0.12500000000E+03 0.  0.
         21    1    1    2  503  501  0.21370005506E+03 -0.49873582197E+02  0.13769201142E+04  0.13942969872E+04  0.00000000000E+00 0. -1.
         21    1    1    2  504  503  0.68434273687E+02  0.23366309376E+02  0.73514391881E+02  0.10311934854E+03  0.00000000000E+00 0. -1.
<mgrwt>
<rscale>  4 0.26339875E+03</rscale>
<asrwt>0</asrwt>
<pdfrwt beam="1">  1       21 0.33305717E+00 0.26339875E+03</pdfrwt>
<pdfrwt beam="2">  1       21 0.89537878E-02 0.26339875E+03</pdfrwt>
<totfact> 0.19982298E+03</totfact>
</mgrwt>
</event>
<event>
 5    0  0.1257040E+001  0.2732563E+03  0.7546771E-02  0.1099430E+00
         21   -1    0    0  502  501  0.00000000000E+00  0.00000000000E+00  0.21923971669E+03  0.21923971669E+03  0.00000000000E+00 0. -1.
         21   -1    0    0  504  502 -0.00000000000E+00 -0.00000000000E+00 -0.36892349079E+03  0.36892349079E+03  0.00000000000E+00 0. -1.
         25    1    1    2    0    0  0.23229976066E+03 -0.20965170431E+02 -0.13745918794E+03  0.29819917090E+03  0.12500000000E+03 0.  0.
         21    1    1    2  503  501  0.23159551733E+02 -0.42788395630E+01  0.20447918651E+02  0.31189592521E+02  0.00000000000E+00 0.  1.
         21    1    1    2  504  503 -0.25545931239E+03  0.25244009994E+02 -0.32672504807E+02  0.25877444406E+03  0.00000000000E+00 0. -1.
<mgrwt>
<rscale>  4 0.27325625E+03</rscale>
<asrwt>0</asrwt>
<pdfrwt beam="1">  1       21 0.33729187E-01 0.27325625E+03</pdfrwt>
<pdfrwt beam="2">  1       21 0.56757460E-01 0.27325625E+03</pdfrwt>
<totfact> 0.23726685E+04</totfact>
</mgrwt>
</event>
<event>
 5    0  0.1257040E+001  0.2845278E+03  0.7546771E-02  0.1093241E+00
         21   -1    0    0  503  501  0.00000000000E+00  0.00000000000E+00  0.65391715483E+02  0.65391715483E+02  0.00000000000E+00 0.  1.
         21   -1    0    0  504  502 -0.00000000000E+00 -0.00000000000E+00 -0.21379827590E+04  0.21379827590E+04  0.00000000000E+00 0.  1.
         25    1    1    2    0    0 -0.88931347793E+01 -0.22999410363E+03 -0.31885727446E+03  0.41263947584E+03  0.12500000000E+03 0.  0.
         21    1    1    2  503  502  0.37092680603E+02  0.25853317716E+03 -0.17156523254E+04  0.17354187311E+04  0.00000000000E+00 0.  1.
         21    1    1    2  504  501 -0.28199545824E+02 -0.28539073535E+02 -0.38081443686E+02  0.55316267554E+02  0.00000000000E+00 0. -1.
<mgrwt>
<rscale>  4 0.28452780E+03</rscale>
<asrwt>0</asrwt>
<pdfrwt beam="1">  1       21 0.10060264E-01 0.28452780E+03</pdfrwt>
<pdfrwt beam="2">  1       21 0.32892042E+00 0.28452780E+03</pdfrwt>
<totfact> 0.16853025E+03</totfact>
</mgrwt>
</event>
<event>
 5    0  0.1257040E+001  0.2469219E+03  0.7546771E-02  0.1115266E+00
         21   -1    0    0  502  501  0.00000000000E+00  0.00000000000E+00  0.65733559469E+03  0.65733559469E+03  0.00000000000E+00 0.  1.
         21   -1    0    0  504  502 -0.00000000000E+00 -0.00000000000E+00 -0.11145139769E+03  0.11145139769E+03  0.00000000000E+00 0.  1.
         25    1    1    2    0    0 -0.18141806425E+03  0.11295240939E+03  0.45469056458E+03  0.51772509147E+03  0.12500000000E+03 0.  0.
         21    1    1    2  503  501  0.13831971876E+02  0.16791076593E+02  0.11725486822E+02  0.24713371692E+02  0.00000000000E+00 0.  1.
         21    1    1    2  504  503  0.16758609237E+03 -0.12974348598E+03  0.79468145607E+02  0.22634852922E+03  0.00000000000E+00 0.  1.
<mgrwt>
<rscale>  4 0.24692189E+03</rscale>
<asrwt>0</asrwt>
<pdfrwt beam="1">  1       21 0.10112855E+00 0.24692189E+03</pdfrwt>
<pdfrwt beam="2">  1       21 0.17146369E-01 0.24692189E+03</pdfrwt>
<totfact> 0.23824658E+04</totfact>
</mgrwt>
</event>
<event>
 5    0  0.1257040E+001  0.3321572E+03  0.7546771E-02  0.1070186E+00
         21   -1    0    0  502  501  0.00000000000E+00  0.00000000000E+00  0.28069406550E+03  0.28069406550E+03  0.00000000000E+00 0.  1.
         21   -1    0    0  504  502 -0.00000000000E+00 -0.00000000000E+00 -0.37652935435E+03  0.37652935435E+03  0.00000000000E+00 0.  1.
         25    1    1    2    0    0  0.13104709457E+03  0.27844225675E+03 -0.79890537894E+02  0.34162981337E+03  0.12500000000E+03 0.  0.
         21    1    1    2  503  501  0.13571597903E+00 -0.48536259213E+02  0.10231747851E+02  0.49603180758E+02  0.00000000000E+00 0. -1.
         21    1    1    2  504  503 -0.13118281055E+03 -0.22990599753E+03 -0.26176498808E+02  0.26599042572E+03  0.00000000000E+00 0.  1.
<mgrwt>
<rscale>  4 0.33215724E+03</rscale>
<asrwt>0</asrwt>
<pdfrwt beam="1">  1       21 0.43183703E-01 0.33215724E+03</pdfrwt>
<pdfrwt beam="2">  1       21 0.57927593E-01 0.33215724E+03</pdfrwt>
<totfact> 0.13428772E+04</totfact>
</mgrwt>
</event>
<event>
 5    0  0.1257040E+001  0.2935675E+03  0.7546771E-02  0.1088501E+00
         21   -1    0    0  503  501  0.00000000000E+00  0.00000000000E+00  0.23999799200E+04  0.23999799200E+04  0.00000000000E+00 0. -1.
         21   -1    0    0  504  502 -0.00000000000E+00 -0.00000000000E+00 -0.83741106815E+02  0.83741106815E+02  0.00000000000E+00 0.  1.
         25    1    1    2    0    0  0.11442899596E+02  0.28393407407E+03  0.20202931266E+04  0.20440055811E+04  0.12500000000E+03 0.  0.
         21    1    1    2  503  502  0.11055569090E+02 -0.26323320590E+03  0.17821403825E+03  0.31807890488E+03  0.00000000000E+00 0.  1.
         21    1    1    2  504  501 -0.22498468686E+02 -0.20700868171E+02  0.11773164832E+03  0.12163654078E+03  0.00000000000E+00 0. -1.
<mgrwt>
<rscale>  4 0.29356747E+03</rscale>
<asrwt>0</asrwt>
<pdfrwt beam="1">  1       21 0.36922763E+00 0.29356747E+03</pdfrwt>
<pdfrwt beam="2">  1       21 0.12883249E-01 0.29356747E+03</pdfrwt>
<totfact> 0.61258830E+02</totfact>
</mgrwt>
</event>
<event>
 5    0  0.1257040E+001  0.2384375E+03  0.7546771E-02  0.1120838E+00
         21   -1    0    0  502  501  0.00000000000E+00  0.00000000000E+00  0.12168882333E+03  0.12168882333E+03  0.00000000000E+00 0. -1.
         21   -1    0    0  504  502 -0.00000000000E+00 -0.00000000000E+00 -0.57947616786E+03  0.57947616786E+03  0.00000000000E+00 0.  1.
         25    1    1    2    0    0  0.21523285358E+03  0.37071571653E+02 -0.22380291006E+03  0.33676731616E+03  0.12500000000E+03 0.  0.
         21    1    1    2  503  501 -0.19463974363E+03 -0.14551535668E+02 -0.85982292933E+02  0.21328228170E+03  0.00000000000E+00 0. -1.
         21    1    1    2  504  503 -0.20593109959E+02 -0.22520035985E+02 -0.14800214154E+03  0.15111539332E+03  0.00000000000E+00 0. -1.
<mgrwt>
<rscale>  4 0.23843746E+03</rscale>
<asrwt>0</asrwt>
<pdfrwt beam="1">  1       21 0.18721357E-01 0.23843746E+03</pdfrwt>
<pdfrwt beam="2">  1       21 0.89150181E-01 0.23843746E+03</pdfrwt>
<totfact> 0.27352347E+04</totfact>
</mgrwt>
</event>
<event>
 5    0  0.1257040E+001  0.2772045E+03  0.7546771E-02  0.1097226E+00
         21   -1    0    0  504  501  0.00000000000E+00  0.00000000000E+00  0.84382468032E+03  0.84382468032E+03  0.00000000000E+00 0. -1.
         21   -1    0    0  501  502 -0.00000000000E+00 -0.00000000000E+00 -0.12633868562E+03  0.12633868562E+03  0.00000000000E+00 0. -1.
         25    1    1    2    0    0  0.24104366262E+03  0.33212245534E+02  0.59698524556E+03  0.65667456473E+03  0.12500000000E+03 0.  0.
         21    1    1    2  503  502  0.11952824151E+02  0.26242921791E+02  0.58006640888E+01  0.29414429337E+02  0.00000000000E+00 0. -1.
         21    1    1    2  504  503 -0.25299648678E+03 -0.59455167325E+02  0.11470008506E+03  0.28407437187E+03  0.00000000000E+00 0. -1.
<mgrwt>
<rscale>  4 0.27720451E+03</rscale>
<asrwt>0</asrwt>
<pdfrwt beam="1">  1       21 0.12981918E+00 0.27720451E+03</pdfrwt>
<pdfrwt beam="2">  1       21 0.19436721E-01 0.27720451E+03</pdfrwt>
<totfact> 0.10017175E+04</totfact>
</mgrwt>
</event>
<event>
 5    0  0.1257040E+001  0.2800248E+03  0.7546771E-02  0.1095675E+00
         21   -1    0    0  502  501  0.00000000000E+00  0.00000000000E+00  0.45626643288E+03  0.45626643288E+03  0.00000000000E+00 0.  1.
         21   -1    0    0  504  502 -0.00000000000E+00 -0.00000000000E+00 -0.32984513844E+03  0.32984513844E+03  0.00000000000E+00 0. -1.
         25    1    1    2    0    0  0.38803216980E+02 -0.32151654864E+03 -0.67194873990E+02  0.35357988035E+03  0.12500000000E+03 0.  0.
         21    1    1    2  503  501 -0.20008664942E+02  0.23300873157E+03  0.23632252454E+03  0.33247819668E+03  0.00000000000E+00 0.  1.
         21    1    1    2  504  503 -0.18794552038E+02  0.88507817064E+02 -0.42706356110E+02  0.10005349429E+03  0.00000000000E+00 0.  1.
<mgrwt>
<rscale>  4 0.28002483E+03</rscale>
<asrwt>0</asrwt>
<pdfrwt beam="1">  1       21 0.70194836E-01 0.28002483E+03</pdfrwt>
<pdfrwt beam="2">  1       21 0.50745406E-01 0.28002483E+03</pdfrwt>
<totfact> 0.64377678E+03</totfact>
</mgrwt>
</event>
<event>
 5    0  0.1257040E+001  0.1786283E+03  0.7546771E-02  0.1169137E+00
         21   -1    0    0  504  501  0.00000000000E+00  0.00000000000E+00  0.83548682921E+03  0.83548682921E+03  0.00000000000E+00 0. -1.
         21   -1    0    0  503  502 -0.00000000000E+00 -0.00000000000E+00 -0.98911026845E+02  0.98911026845E+02  0.00000000000E+00 0. -1.
         25    1    1    2    0    0 -0.12059994128E+03  0.17516496774E+03  0.17889327449E+03  0.30472104525E+03  0.12500000000E+03 0.  0.
         21    1    1    2  503  501  0.82335708009E+02 -0.62663422712E+02  0.63483550947E+02  0.12139206976E+03  0.00000000000E+00 0. -1.
         21    1    1    2  504  502  0.38264233275E+02 -0.11250154503E+03  0.49419897693E+03  0.50828474104E+03  0.00000000000E+00 0. -1.
<mgrwt>
<rscale>  4 0.17862831E+03</rscale>
<asrwt>0</asrwt>
<pdfrwt beam="1">  1       21 0.12853643E+00 0.17862831E+03</pdfrwt>
<pdfrwt beam="2">  1       21 0.15217082E-01 0.17862831E+03</pdfrwt>
<totfact> 0.17156996E+04</totfact>
</mgrwt>
</event>
<event>
 5    0  0.1257040E+001  0.2829124E+03  0.7546771E-02  0.1094109E+00
         21   -1    0    0  502  501  0.00000000000E+00  0.00000000000E+00  0.13295918506E+03  0.13295918506E+03  0.00000000000E+00 0.  1.
         21   -1    0    0  504  502 -0.00000000000E+00 -0.00000000000E+00 -0.80849222499E+03  0.80849222499E+03  0.00000000000E+00 0.  1.
         25    1    1    2    0    0 -0.26025214202E+03 -0.12034326020E+03 -0.25859213820E+03  0.40584303818E+03  0.12500000000E+03 0.  0.
         21    1    1    2  503  501  0.19939726241E+03  0.11563068319E+03 -0.18437875892E+03  0.29516986616E+03  0.00000000000E+00 0.  1.
         21    1    1    2  504  503  0.60854879611E+02  0.47125770083E+01 -0.23256214281E+03  0.24043850570E+03  0.00000000000E+00 0.  1.
<mgrwt>
<rscale>  4 0.28291240E+03</rscale>
<asrwt>0</asrwt>
<pdfrwt beam="1">  1       21 0.20455259E-01 0.28291240E+03</pdfrwt>
<pdfrwt beam="2">  1       21 0.12438342E+00 0.28291240E+03</pdfrwt>
<totfact> 0.10113988E+04</totfact>
</mgrwt>
</event>
<event>
 5    0  0.1257040E+001  0.2432208E+03  0.7546771E-02  0.1117666E+00
         21   -1    0    0  503  501  0.00000000000E+00  0.00000000000E+00  0.96755937954E+02  0.96755937954E+02  0.00000000000E+00 0. -1.
         21   -1    0    0  504  502 -0.00000000000E+00 -0.00000000000E+00 -0.76401740953E+03  0.76401740953E+03  0.00000000000E+00 0. -1.
         25    1    1    2    0    0 -0.21816958319E+03 -0.58456606092E+02 -0.49887512286E+03  0.56170858105E+03  0.12500000000E+03 0.  0.
         21    1    1    2  503  502  0.18277386152E+02  0.20748229999E+02 -0.65522542330E+02  0.71117898211E+02  0.00000000000E+00 0. -1.
         21    1    1    2  504  501  0.19989219704E+03  0.37708376093E+02 -0.10286380639E+03  0.22794686822E+03  0.00000000000E+00 0. -1.
<mgrwt>
<rscale>  4 0.24322076E+03</rscale>
<asrwt>0</asrwt>
<pdfrwt beam="1">  1       21 0.14885528E-01 0.24322076E+03</pdfrwt>
<pdfrwt beam="2">  1       21 0.11754114E+00 0.24322076E+03</pdfrwt>
<totfact> 0.21471340E+04</totfact>
</mgrwt>
</event>
<event>
 5    0  0.1257040E+001  0.3052295E+03  0.7546771E-02  0.1082655E+00
         21   -1    0    0  502  501  0.00000000000E+00  0.00000000000E+00  0.39249273132E+03  0.39249273132E+03  0.00000000000E+00 0. -1.
         21   -1    0    0  504  502 -0.00000000000E+00 -0.00000000000E+00 -0.56020847985E+03  0.56020847985E+03  0.00000000000E+00 0. -1.
         25    1    1    2    0    0  0.97887313194E+02 -0.33821312968E+03 -0.75912685513E+02  0.38125815794E+03  0.12500000000E+03 0.  0.
         21    1    1    2  503  501 -0.22783765780E+02  0.25560806303E+03  0.15553463751E+03  0.30007599927E+03  0.00000000000E+00 0. -1.
         21    1    1    2  504  503 -0.75103547414E+02  0.82605066651E+02 -0.24733770053E+03  0.27136705396E+03  0.00000000000E+00 0. -1.
<mgrwt>
<rscale>  4 0.30522947E+03</rscale>
<asrwt>0</asrwt>
<pdfrwt beam="1">  1       21 0.60383497E-01 0.30522947E+03</pdfrwt>
<pdfrwt beam="2">  1       21 0.86185920E-01 0.30522947E+03</pdfrwt>
<totfact> 0.27451613E+03</totfact>
</mgrwt>
</event>
<event>
 5    0  0.1257040E+001  0.2221315E+03  0.7546771E-02  0.1132304E+00
         21   -1    0    0  502  501  0.00000000000E+00  0.00000000000E+00  0.20095002806E+03  0.20095002806E+03  0.00000000000E+00 0.  1.
         21   -1    0    0  504  502 -0.00000000000E+00 -0.00000000000E+00 -0.40735228945E+03  0.40735228945E+03  0.00000000000E+00 0.  1.
         25    1    1    2    0    0 -0.18723505787E+03  0.10876730894E+03  0.51806699655E+02  0.25533552146E+03  0.12500000000E+03 0.  0.
         21    1    1    2  503  501  0.43567750377E+02 -0.40768510345E+01 -0.56521042367E+01  0.44121603207E+02  0.00000000000E+00 0.  1.
         21    1    1    2  504  503  0.14366730749E+03 -0.10469045790E+03 -0.25255685682E+03  0.30884519284E+03  0.00000000000E+00 0.  1.
<mgrwt>
<rscale>  4 0.22213150E+03</rscale>
<asrwt>0</asrwt>
<pdfrwt beam="1">  1       21 0.30915389E-01 0.22213150E+03</pdfrwt>
<pdfrwt beam="2">  1       21 0.62669583E-01 0.22213150E+03</pdfrwt>
<totfact> 0.23316170E+04</totfact>
</mgrwt>
</event>
<event>
 5    0  0.1257040E+001  0.2640151E+03  0.7546771E-02  0.1104755E+00
         21   -1    0    0  502  501  0.00000000000E+00  0.00000000000E+00  0.39016025581E+02  0.39016025581E+02  0.00000000000E+00 0.  1.
         21   -1    0    0  504  502 -0.00000000000E+00 -0.00000000000E+00 -0.26293385893E+04  0.26293385893E+04  0.00000000000E+00 0.  1.
         25    1    1    2    0    0 -0.13861410791E+03 -0.23490998355E+03 -0.17591178481E+04  0.17845215535E+04  0.12500000000E+03 0.  0.
         21    1    1    2  503  501  0.11038264263E+03  0.19168806791E+03 -0.47586684669E+03  0.52476461290E+03  0.00000000000E+00 0.  1.
         21    1    1    2  504  503  0.28231465281E+02  0.43221915634E+02 -0.35533786894E+03  0.35906844852E+03  0.00000000000E+00 0.  1.
<mgrwt>
<rscale>  4 0.26401506E+03</rscale>
<asrwt>0</asrwt>
<pdfrwt beam="1">  1       21 0.60024667E-02 0.26401506E+03</pdfrwt>
<pdfrwt beam="2">  1       21 0.40451355E+00 0.26401506E+03</pdfrwt>
<totfact> 0.14689877E+03</totfact>
</mgrwt>
</event>
<event>
 5    0  0.1257040E+001  0.2335333E+03  0.7546771E-02  0.1124177E+00
         21   -1    0    0  502  501  0.00000000000E+00  0.00000000000E+00  0.99630158217E+03  0.99630158217E+03  0.00000000000E+00 0.  1.
         21   -1    0    0  504  502 -0.00000000000E+00 -0.00000000000E+00 -0.69953930901E+02  0.69953930901E+02  0.00000000000E+00 0.  1.
         25    1    1    2    0    0  0.18395167447E+03 -0.11215015516E+03  0.28339542150E+03  0.37729807946E+03  0.12500000000E+03 0.  0.
         21    1    1    2  503  501 -0.15380908583E+03  0.11475737765E+03  0.62495362781E+03  0.65375341492E+03  0.00000000000E+00 0.  1.
         21    1    1    2  504  503 -0.30142588639E+02 -0.26072224896E+01  0.17998601960E+02  0.35204018683E+02  0.00000000000E+00 0. -1.
<mgrwt>
<rscale>  4 0.23353333E+03</rscale>
<asrwt>0</asrwt>
<pdfrwt beam="1">  1       21 0.15327716E+00 0.23353333E+03</pdfrwt>
<pdfrwt beam="2">  1       21 0.10762144E-01 0.23353333E+03</pdfrwt>
<totfact> 0.19593688E+04</totfact>
</mgrwt>
</event>
<event>
 5    0  0.1257040E+001  0.3154399E+03  0.7546771E-02  0.1077767E+00
         21   -1    0    0  502  501  0.00000000000E+00  0.00000000000E+00  0.25113926339E+03  0.25113926339E+03  0.00000000000E+00 0.  1.
         21   -1    0    0  504  502 -0.00000000000E+00 -0.00000000000E+00 -0.12657199990E+04  0.12657199990E+04  0.00000000000E+00 0.  1.
         25    1    1    2    0    0 -0.41854515261E+03  0.41460933915E+01 -0.28840375297E+03  0.52344909933E+03  0.12500000000E+03 0.  0.
         21    1    1    2  503  501  0.15379524115E+03 -0.28207742965E+02  0.56936668083E+02  0.16640443845E+03  0.00000000000E+00 0.  1.
         21    1    1    2  504  503  0.26474991146E+03  0.24061649573E+02 -0.78311365073E+03  0.82700572463E+03  0.00000000000E+00 0.  1.
<mgrwt>
<rscale>  4 0.31543991E+03</rscale>
<asrwt>0</asrwt>
<pdfrwt beam="1">  1       21 0.38636811E-01 0.31543991E+03</pdfrwt>
<pdfrwt beam="2">  1       21 0.19472615E+00 0.31543991E+03</pdfrwt>
<totfact> 0.84176494E+02</totfact>
</mgrwt>
</event>
<event>
 5    0  0.1257040E+001  0.3608121E+03  0.7546771E-02  0.1058263E+00
         21   -1    0    0  502  501  0.00000000000E+00  0.00000000000E+00  0.83481850651E+03  0.83481850651E+03  0.00000000000E+00 0.  1.
         21   -1    0    0  504  502 -0.00000000000E+00 -0.00000000000E+00 -0.20660302888E+03  0.20660302888E+03  0.00000000000E+00 0.  1.
         25    1    1    2    0    0 -0.20731220323E+03  0.24180546588E+03  0.51655789958E+03  0.61960091717E+03  0.12500000000E+03 0.  0.
         21    1    1    2  503  501 -0.27300061721E+02  0.11720411926E+02  0.67291653266E+02  0.73558330765E+02  0.00000000000E+00 0.  1.
         21    1    1    2  504  503  0.23461226495E+03 -0.25352587781E+03  0.44365924788E+02  0.34826228746E+03  0.00000000000E+00 0.  1.
<mgrwt>
<rscale>  4 0.36081210E+03</rscale>
<asrwt>0</asrwt>
<pdfrwt beam="1">  1       21 0.12843361E+00 0.36081210E+03</pdfrwt>
<pdfrwt beam="2">  1       21 0.31785082E-01 0.36081210E+03</pdfrwt>
<totfact> 0.38232951E+03</totfact>
</mgrwt>
</event>
<event>
 5    0  0.1257040E+001  0.2315218E+03  0.7546771E-02  0.1125573E+00
         21   -1    0    0  503  501  0.00000000000E+00  0.00000000000E+00  0.77263231616E+03  0.77263231616E+03  0.00000000000E+00 0.  1.
         21   -1    0    0  504  502 -0.00000000000E+00 -0.00000000000E+00 -0.10895174477E+03  0.10895174477E+03  0.00000000000E+00 0.  1.
         25    1    1    2    0    0  0.22497818812E+03  0.22880233451E+02  0.51496739634E+03  0.57615545602E+03  0.12500000000E+03 0.  0.
         21    1    1    2  503  502 -0.18756360088E+03 -0.14562028539E+02  0.42997263997E+02  0.19297907079E+03  0.00000000000E+00 0.  1.
         21    1    1    2  504  501 -0.37414587237E+02 -0.83182049117E+01  0.10571591106E+03  0.11244953411E+03  0.00000000000E+00 0. -1.
<mgrwt>
<rscale>  4 0.23152179E+03</rscale>
<asrwt>0</asrwt>
<pdfrwt beam="1">  1       21 0.11886651E+00 0.23152179E+03</pdfrwt>
<pdfrwt beam="2">  1       21 0.16761807E-01 0.23152179E+03</pdfrwt>
<totfact> 0.16897015E+04</totfact>
</mgrwt>
</event>
<event>
 5    0  0.1257040E+001  0.2485238E+03  0.7546771E-02  0.1114241E+00
         21   -1    0    0  502  501  0.00000000000E+00  0.00000000000E+00  0.47310251325E+03  0.47310251325E+03  0.00000000000E+00 0.  1.
         21   -1    0    0  504  502 -0.00000000000E+00 -0.00000000000E+00 -0.32420188286E+03  0.32420188286E+03  0.00000000000E+00 0.  1.
         25    1    1    2    0    0  0.12322013786E+03 -0.26048327402E+03  0.13033009419E+03  0.34006715788E+03  0.12500000000E+03 0.  0.
         21    1    1    2  503  501 -0.39678674203E+02  0.78876786387E+02  0.17987236683E+03  0.20037468145E+03  0.00000000000E+00 0.  1.
         21    1    1    2  504  503 -0.83541463656E+02  0.18160648764E+03 -0.16130183063E+03  0.25686255676E+03  0.00000000000E+00 0.  1.
<mgrwt>
<rscale>  4 0.24852380E+03</rscale>
<asrwt>0</asrwt>
<pdfrwt beam="1">  1       21 0.72785002E-01 0.24852380E+03</pdfrwt>
<pdfrwt beam="2">  1       21 0.49877213E-01 0.24852380E+03</pdfrwt>
<totfact> 0.62672254E+03</totfact>
</mgrwt>
</event>
<event>
 5    0  0.1257040E+001  0.2640983E+03  0.7546771E-02  0.1104706E+00
         21   -1    0    0  504  501  0.00000000000E+00  0.00000000000E+00  0.42871133384E+03  0.42871133384E+03  0.00000000000E+00 0. -1.
         21   -1    0    0  501  502 -0.00000000000E+00 -0.00000000000E+00 -0.17971138641E+03  0.17971138641E+03  0.00000000000E+00 0. -1.
         25    1    1    2    0    0  0.23002135845E+03  0.34829074157E+02  0.36863267980E+01  0.26412398368E+03  0.12500000000E+03 0.  0.
         21    1    1    2  503  502 -0.17267616710E+03 -0.36858973144E+02  0.21860855145E+03  0.28100772472E+03  0.00000000000E+00 0. -1.
         21    1    1    2  504  503 -0.57345191354E+02  0.20298989872E+01  0.26705069180E+02  0.63291011852E+02  0.00000000000E+00 0.  1.
<mgrwt>
<rscale>  4 0.26409826E+03</rscale>
<asrwt>0</asrwt>
<pdfrwt beam="1">  1       21 0.65955590E-01 0.26409826E+03</pdfrwt>
<pdfrwt beam="2">  1       21 0.27647906E-01 0.26409826E+03</pdfrwt>
<totfact> 0.25422662E+04</totfact>
</mgrwt>
</event>
<event>
 5    0  0.1257040E+001  0.2078071E+03  0.7546771E-02  0.1143314E+00
         21   -1    0    0  502  501  0.00000000000E+00  0.00000000000E+00  0.25826763698E+03  0.25826763698E+03  0.00000000000E+00 0. -1.
         21   -1    0    0  504  502 -0.00000000000E+00 -0.00000000000E+00 -0.25286558650E+03  0.25286558650E+03  0.00000000000E+00 0. -1.
         25    1    1    2    0    0 -0.20137196867E+03 -0.83176668184E+02  0.27725582486E+02  0.25271077504E+03  0.12500000000E+03 0.  0.
         21    1    1    2  503  501  0.13256622016E+03  0.53681902264E+02  0.52714025770E+02  0.15242807442E+03  0.00000000000E+00 0. -1.
         21    1    1    2  504  503  0.68805748511E+02  0.29494765920E+02 -0.75037557774E+02  0.10599437401E+03  0.00000000000E+00 0. -1.
<mgrwt>
<rscale>  4 0.20780711E+03</rscale>
<asrwt>0</asrwt>
<pdfrwt beam="1">  1       21 0.39733483E-01 0.20780711E+03</pdfrwt>
<pdfrwt beam="2">  1       21 0.38902398E-01 0.20780711E+03</pdfrwt>
<totfact> 0.38595193E+04</totfact>
</mgrwt>
</event>
<event>
 5    0  0.1257040E+001  0.2457535E+03  0.7546771E-02  0.1116018E+00
         21   -1    0    0  503  501  0.00000000000E+00  0.00000000000E+00  0.67301879792E+03  0.67301879792E+03  0.00000000000E+00 0. -1.
         21   -1    0    0  504  502 -0.00000000000E+00 -0.00000000000E+00 -0.11536974014E+03  0.11536974014E+03  0.00000000000E+00 0. -1.
         25    1    1    2    0    0 -0.10505310820E+03  0.19999066247E+03  0.39386390518E+03  0.47094181851E+03  0.12500000000E+03 0.  0.
         21    1    1    2  503  502  0.55491045220E+01 -0.30672091590E+02 -0.28761440928E+02  0.42412147408E+02  0.00000000000E+00 0. -1.
         21    1    1    2  504  501  0.99504003681E+02 -0.16931857089E+03  0.19254659353E+03  0.27503457214E+03  0.00000000000E+00 0. -1.
<mgrwt>
<rscale>  4 0.24575350E+03</rscale>
<asrwt>0</asrwt>
<pdfrwt beam="1">  1       21 0.10354135E+00 0.24575350E+03</pdfrwt>
<pdfrwt beam="2">  1       21 0.17749191E-01 0.24575350E+03</pdfrwt>
<totfact> 0.21125087E+04</totfact>
</mgrwt>
</event>
