<LesHouchesEvents version="3.0">
  <!--
  <scalesfunctionalform>
    muR  H_T/2 := sum_i mT(i)/2, i=final state
    muF1 H_T/2 := sum_i mT(i)/2, i=final state
    muF2 H_T/2 := sum_i mT(i)/2, i=final state
    QES  H_T/2 := sum_i mT(i)/2, i=final state
  </scalesfunctionalform>
HERWIG6   
  -->
  <header>
      165
  </header>
  <init>
   2212   2212 0.65000000D+04 0.65000000D+04 -1 -1   244800   244800 -4   1
 0.30664860D-03 0.11801631D-04 0.20058315D-05     66
  </init>
  <event>
  7     66 0.20058315E-05 0.20790075E+02 0.75467711E-02 0.92936910E-01
        2 -1    0    0  503    0 0.00000000E+00 0.00000000E+00 0.14513232E+04 0.14513233E+04 0.32000000E+00 0.0000E+00 0.9000E+01
       -1 -1    0    0    0  501 0.00000000E+00 0.00000000E+00 -.66906799E+03 0.66906807E+03 0.32000000E+00 0.0000E+00 0.9000E+01
       24  2    1    2    0    0 -.33371675E+03 0.45195960E+03 0.12778147E+03 0.58101053E+03 0.74905187E+02 0.0000E+00 0.0000E+00
       25  1    1    2    0    0 0.35316757E+03 -.44337089E+03 -.25189897E+03 0.63275838E+03 0.12500000E+03 0.0000E+00 0.9000E+01
        2  1    3    3  502    0 -.45537539E+02 0.71594763E+02 0.47058090E+02 0.97025996E+02 0.32000000E+00 0.0000E+00 0.9000E+01
       -1  1    3    3    0  502 -.28817921E+03 0.38036484E+03 0.80723380E+02 0.48398454E+03 0.32000000E+00 0.0000E+00 0.9000E+01
       21  1    1    2  503  501 -.19450820E+02 -.85887107E+01 0.90637273E+03 0.90662241E+03 0.75000000E+00 0.0000E+00 0.9000E+01
#aMCatNLO 2  0  0  0  0 0.00000000D+00 0.00000000D+00  -5  6  0 0.00000000D+00 0.00000000D+00 0.00000000D+00 0.00000000D+00 0.00000000D+00
  <mgrwgt>
 0.2077766106D-01    1    2    0
 0.603609504153957D+03 0.000000000000000D+00 0.000000000000000D+00 0.603609504153957D+03
 0.603609504153957D+03 0.000000000000000D+00 0.000000000000000D+00 -.603609504153957D+03
 0.607757141386092D+03 0.343356426889171D+03 -.447703102355338D+03 -.188180868212212D+03
 0.102607744954332D+03 -.471842725523709D+02 0.708600401127608D+02 0.572786911821040D+02
 0.496854121967490D+03 -.296172154336800D+03 0.376843062242577D+03 0.130902177030108D+03
 0.000000000000000D+00 -.000000000000000D+00 -.000000000000000D+00 0.000000000000000D+00
 0.160816234765708D+04 0.000000000000000D+00 0.000000000000000D+00 0.160816234765708D+04
 0.603815644567532D+03 0.000000000000000D+00 0.000000000000000D+00 -.603815644567532D+03
 0.610198425585477D+03 0.353167570497857D+03 -.443370890535828D+03 -.188180868212212D+03
 0.102367552620037D+03 -.455331104449257D+02 0.715891277994875D+02 0.572786911821040D+02
 0.494840264278642D+03 -.288183639563981D+03 0.380370473469999D+03 0.130902177030108D+03
 0.100457174974046D+04 -.194508204889507D+02 -.858871073365868D+01 0.100434670308955D+04
0.995571701920D-02 0.000000000000D+00 0.000000000000D+00 0.674833538880D-05 0.140846598504D-06  6 2 -1 25 2 -1 21 2 0.22328045D+00 0.10293352D+00 0.33859264D+06 0.33859264D+06 0.33859264D+06 0.10806848D+01  1  2  1  1  6  1        2 0.207776610557D-01 0.100000000000D+01
  </mgrwgt>
  </event>
  <event>
  6     66 0.20058315E-05 0.12492488E+02 0.75467711E-02 0.95530278E-01
        2 -1    0    0  501    0 0.00000000E+00 0.00000000E+00 0.12743403E+04 0.12743403E+04 0.32000000E+00 0.0000E+00 0.9000E+01
       -1 -1    0    0    0  501 0.00000000E+00 0.00000000E+00 -.23008968E+03 0.23008990E+03 0.32000000E+00 0.0000E+00 0.9000E+01
       24  2    1    2    0    0 -.44807839E+03 -.62442887E+02 0.90406223E+03 0.10145822E+04 0.85878396E+02 0.0000E+00 0.0000E+00
       25  1    1    2    0    0 0.44807839E+03 0.62442887E+02 0.14018840E+03 0.48984808E+03 0.12500000E+03 0.0000E+00 0.9000E+01
        2  1    3    3  502    0 -.43693306E+03 -.68096563E+02 0.89735110E+03 0.10003933E+04 0.32000000E+00 0.0000E+00 0.9000E+01
       -1  1    3    3    0  502 -.11145330E+02 0.56536758E+01 0.67111262E+01 0.14188870E+02 0.32000000E+00 0.0000E+00 0.9000E+01
#aMCatNLO 1  0  0  5  2 0.43399756D+00 0.00000000D+00  -5  6  0 0.00000000D+00 0.00000000D+00 0.00000000D+00 0.00000000D+00 0.00000000D+00
  <mgrwgt>
 0.1649994877D+00    7    2    0
 0.541491224825163D+03 0.000000000000000D+00 0.000000000000000D+00 0.541491224825163D+03
 0.541491224825163D+03 -.000000000000000D+00 -.000000000000000D+00 -.541491224825163D+03
 0.545300105707257D+03 0.448078387963599D+03 0.624428874618711D+02 -.277585751308874D+03
 0.524450015112592D+03 -.436938970565057D+03 -.680975867500058D+02 0.281948351709975D+03
 0.132323288304766D+02 -.111394173985421D+02 0.565469928813471D+01 -.436260040110113D+01
 0.000000000000000D+00 0.000000000000000D+00 0.000000000000000D+00 0.000000000000000D+00
 0.541491224825163D+03 0.000000000000000D+00 0.000000000000000D+00 0.541491224825163D+03
 0.541491224825163D+03 -.000000000000000D+00 -.000000000000000D+00 -.541491224825163D+03
 0.545253377207889D+03 0.447995555767444D+03 0.624849355460638D+02 -.277618191405087D+03
 0.524494373259661D+03 -.437018642372716D+03 -.680571429729268D+02 0.281917149336672D+03
 0.126396563603425D+02 -.107608509249829D+02 0.501883332371390D+01 -.433316424182370D+01
 0.595042822432634D+00 -.216062469744913D+00 0.553374103149161D+00 0.342063102392730D-01
0.104165683996D-03 0.000000000000D+00 0.000000000000D+00 0.169942482455D-05 0.000000000000D+00  6 2 -1 25 2 -1 21 0 0.19605238D+00 0.35398432D-01 0.21347435D+06 0.21347435D+06 0.21347435D+06 0.10956573D+01  1  2  2  4  6  5       -1 0.186145682009D-02 0.100000000000D+01
0.440624836119D-04 0.000000000000D+00 -.400023654001D-06 0.169942482455D-05 0.000000000000D+00  6 2 -1 25 2 -1 21 2 0.19605238D+00 0.35398432D-01 0.21347435D+06 0.21347435D+06 0.21347435D+06 0.10956573D+01  1  2  3  4  6  5       -1 0.945250059403D-03 0.100000000000D+01
-.303291980014D-04 0.000000000000D+00 0.000000000000D+00 0.169942482455D-05 0.000000000000D+00  6 2 -1 25 2 -1 21 2 0.19605238D+00 0.35398432D-01 0.21347435D+06 0.21347435D+06 0.21347435D+06 0.10956573D+01  1  2 15  4  6  5       -1 -.650636865253D-03 0.100000000000D+01
-.114132934045D-01 0.000000000000D+00 0.000000000000D+00 0.169942482455D-05 0.000000000000D+00  6 2 -1 25 2 -1 21 2 0.19605238D+00 0.35398432D-01 0.21347435D+06 0.21347435D+06 0.21347435D+06 0.10956573D+01  1  2  4  4  6  5       -1 -.244843580849D+00 0.100000000000D+01
-.672011009413D-02 0.000000000000D+00 0.000000000000D+00 0.169942482455D-05 0.000000000000D+00  6 2 -1 25 2 -1 21 2 0.19605238D+00 0.35398432D-01 0.21347435D+06 0.21347435D+06 0.21347435D+06 0.10956573D+01  1  2  5  4  6  5       -1 -.144163105322D+00 0.100000000000D+01
0.798321735580D-02 0.000000000000D+00 -.000000000000D+00 0.169942482455D-05 0.000000000000D+00  6 2 -1 25 2 -1 21 2 0.19605238D+00 0.35398432D-01 0.21347435D+06 0.21347435D+06 0.21347435D+06 0.10956573D+01  1  2  6  4  6  5       -1 0.171259903238D+00 0.100000000000D+01
0.177409823724D-01 0.000000000000D+00 0.000000000000D+00 0.169942482455D-05 0.119221951887D-03  6 2 -1 25 2 -1 21 2 0.19605238D+00 0.35398432D-01 0.21346247D+06 0.21346247D+06 0.21346247D+06 0.10956591D+01  1  2 11  4  6  5       -1 0.380590200633D+00 0.100000000000D+01
  </mgrwgt>
  </event>
  <event>
  7     66 0.20058315E-05 0.32646912E+02 0.75467711E-02 0.93466918E-01
        2 -1    0    0  501    0 0.00000000E+00 0.00000000E+00 0.23738662E+04 0.23738663E+04 0.32000000E+00 0.0000E+00 0.9000E+01
       21 -1    0    0  503  501 0.00000000E+00 0.00000000E+00 -.13768188E+03 0.13768393E+03 0.75000000E+00 0.0000E+00 0.9000E+01
       24  2    1    2    0    0 0.20557640E+02 -.54408555E+03 0.82527046E+03 0.99197590E+03 0.80580093E+02 0.0000E+00 0.0000E+00
       25  1    1    2    0    0 -.25649572E+02 0.49579632E+03 0.12307772E+04 0.13330077E+04 0.12500000E+03 0.0000E+00 0.9000E+01
        2  1    3    3  502    0 0.37966016E+02 -.17825474E+03 0.31404428E+03 0.36309790E+03 0.32000000E+00 0.0000E+00 0.9000E+01
        1  1    1    2  503    0 0.50919324E+01 0.48289232E+02 0.18013668E+03 0.18656662E+03 0.32000000E+00 0.0000E+00 0.9000E+01
       -1  1    3    3    0  502 -.17408376E+02 -.36583081E+03 0.51122618E+03 0.62887800E+03 0.32000000E+00 0.0000E+00 0.9000E+01
#aMCatNLO 2  0  0  0  0 0.00000000D+00 0.00000000D+00  -5  6  0 0.00000000D+00 0.00000000D+00 0.00000000D+00 0.00000000D+00 0.00000000D+00
  <mgrwgt>
 0.1317035688D-02    1    2    0
 0.542185110166347D+03 0.000000000000000D+00 0.000000000000000D+00 0.542185110166347D+03
 0.542185110166347D+03 0.000000000000000D+00 0.000000000000000D+00 -.542185110166347D+03
 0.546395779379384D+03 -.231378805910246D+02 0.519615894996483D+03 0.111298283330714D+03
 0.175298956532777D+03 0.388074166335526D+02 -.170280660738675D+03 -.151064606745070D+02
 0.000000000000000D+00 0.000000000000000D+00 0.000000000000000D+00 0.000000000000000D+00
 0.362675484420534D+03 -.156695360425279D+02 -.349335234257808D+03 -.961918226562069D+02
 0.588155691498950D+03 0.000000000000000D+00 0.000000000000000D+00 0.588155691498950D+03
 0.555703983182245D+03 0.000000000000000D+00 0.000000000000000D+00 -.555703983182245D+03
 0.523912396168382D+03 -.256495724300514D+02 0.495796319490864D+03 0.111298283330714D+03
 0.182875336587474D+03 0.379668891391990D+02 -.178251785143833D+03 -.151064606745070D+02
 0.584028342581901D+02 0.509193244068253D+01 0.482892317265106D+02 0.324517083167051D+02
 0.378669107667149D+03 -.174092491498302D+02 -.365833766073542D+03 -.961918226562069D+02
0.936333184163D-05 0.000000000000D+00 0.000000000000D+00 0.285702612559D-03 0.347887177114D-08  6 2 21 25 2 1 -1 2 0.36521006D+00 0.21181971D-01 0.30747527D+06 0.30747527D+06 0.30747527D+06 0.10837619D+01  1  2  1  6  5  2       -1 0.131703568834D-02 0.100000000000D+01
  </mgrwgt>
  </event>
  <event>
  7     66 0.20058315E-05 0.36602846E+02 0.75467711E-02 0.94488373E-01
        2 -1    0    0  503    0 0.00000000E+00 0.00000000E+00 0.25772684E+04 0.25772684E+04 0.32000000E+00 0.0000E+00 0.9000E+01
       -1 -1    0    0    0  501 0.00000000E+00 0.00000000E+00 -.11642020E+03 0.11642063E+03 0.32000000E+00 0.0000E+00 0.9000E+01
       24  2    1    2    0    0 0.15183286E+02 -.47293317E+03 0.69870545E+03 0.84678599E+03 0.70433584E+02 0.0000E+00 0.0000E+00
       25  1    1    2    0    0 -.29124352E+02 0.49447728E+03 0.15232231E+04 0.16066081E+04 0.12500000E+03 0.0000E+00 0.9000E+01
        2  1    3    3  502    0 -.17872131E+02 -.15600184E+03 0.27440214E+03 0.31615285E+03 0.32000000E+00 0.0000E+00 0.9000E+01
       -1  1    3    3    0  502 0.33055417E+02 -.31693132E+03 0.42430331E+03 0.53063314E+03 0.32000000E+00 0.0000E+00 0.9000E+01
       21  1    1    2  503  501 0.13941066E+02 -.21544115E+02 0.23891964E+03 0.24029494E+03 0.75000000E+00 0.0000E+00 0.9000E+01
#aMCatNLO 2  0  0  0  0 0.00000000D+00 0.00000000D+00  -5  6  0 0.00000000D+00 0.00000000D+00 0.00000000D+00 0.00000000D+00 0.00000000D+00
  <mgrwgt>
 0.7854348098D-02    1    2    0
 0.519980193957258D+03 0.000000000000000D+00 0.000000000000000D+00 0.519980193957258D+03
 0.519980193957258D+03 0.000000000000000D+00 0.000000000000000D+00 -.519980193957258D+03
 0.525107365380589D+03 -.220159842204490D+02 0.483492218154872D+03 0.160820759230361D+03
 0.162557423108556D+03 -.157147473192260D+02 -.159334104025170D+03 -.281177136140811D+02
 0.352295599425370D+03 0.377307315396750D+02 -.324158114129702D+03 -.132703045616280D+03
 0.000000000000000D+00 0.000000000000000D+00 -.000000000000000D+00 0.000000000000000D+00
 0.573449277976361D+03 0.000000000000000D+00 0.000000000000000D+00 0.573449277976361D+03
 0.523226503083821D+03 0.000000000000000D+00 0.000000000000000D+00 -.523226503083821D+03
 0.535578496874641D+03 -.291243516394933D+02 0.494477281436316D+03 0.160820759230361D+03
 0.159516755163964D+03 -.178731824193980D+02 -.155998521497351D+03 -.281177136140811D+02
 0.345181687364395D+03 0.330564684073294D+02 -.316934644481050D+03 -.132703045616280D+03
 0.563988416571811D+02 0.139410656515619D+02 -.215441154579144D+02 0.502227748925394D+02
0.635861135424D-03 0.000000000000D+00 0.000000000000D+00 0.337565357094D-05 0.326634931238D-07  6 2 -1 25 2 -1 21 2 0.39650098D+00 0.17910750D-01 0.25613582D+06 0.25613582D+06 0.25613582D+06 0.10896678D+01  1  2  1  1  6  1        2 0.785434809816D-02 0.100000000000D+01
  </mgrwgt>
  </event>
  <event>
  7     66 0.20058315E-05 0.24730196E+02 0.75467711E-02 0.94602176E-01
        2 -1    0    0  503    0 0.00000000E+00 0.00000000E+00 0.10829689E+04 0.10829689E+04 0.32000000E+00 0.0000E+00 0.9000E+01
       -1 -1    0    0    0  501 0.00000000E+00 0.00000000E+00 -.26817056E+03 0.26817075E+03 0.32000000E+00 0.0000E+00 0.9000E+01
       24  2    1    2    0    0 0.31238424E+03 0.37857337E+03 0.23822394E+03 0.55143798E+03 0.80196633E+02 0.0000E+00 0.0000E+00
       25  1    1    2    0    0 -.29399689E+03 -.35265055E+03 0.40395833E+03 0.62418259E+03 0.12500000E+03 0.0000E+00 0.9000E+01
        2  1    3    3  502    0 0.43802089E+02 0.90819923E+02 0.73310769E+02 0.12466536E+03 0.32000000E+00 0.0000E+00 0.9000E+01
       -1  1    3    3    0  502 0.26858215E+03 0.28775345E+03 0.16491317E+03 0.42677262E+03 0.32000000E+00 0.0000E+00 0.9000E+01
       21  1    1    2  503  501 -.18387342E+02 -.25922824E+02 0.17261603E+03 0.17551907E+03 0.75000000E+00 0.0000E+00 0.9000E+01
#aMCatNLO 2  0  0  0  0 0.00000000D+00 0.00000000D+00  -5  6  0 0.00000000D+00 0.00000000D+00 0.00000000D+00 0.00000000D+00 0.00000000D+00
  <mgrwgt>
 0.4898932001D-02    1    2    0
 0.492106594749713D+03 0.000000000000000D+00 0.000000000000000D+00 0.492106594749713D+03
 0.492106594749713D+03 0.000000000000000D+00 0.000000000000000D+00 -.492106594749713D+03
 0.496777076777502D+03 -.303135022839822D+03 -.365533654611700D+03 0.752114970314723D+02
 0.978609178739476D+02 0.419412338831109D+02 0.881983640100363D+02 0.622420544702940D+01
 0.389575194847977D+03 0.261193788956711D+03 0.277335290601664D+03 -.814357024785017D+02
 0.000000000000000D+00 -.000000000000000D+00 -.000000000000000D+00 0.000000000000000D+00
 0.586655926661587D+03 0.000000000000000D+00 0.000000000000000D+00 0.586655926661587D+03
 0.495041159507384D+03 0.000000000000000D+00 0.000000000000000D+00 -.495041159507384D+03
 0.481745110055406D+03 -.293996893921800D+03 -.352650546775295D+03 0.752114970314723D+02
 0.101018508340757D+03 0.437985099473097D+02 0.908167871064602D+02 0.622420544702940D+01
 0.401962581891289D+03 0.268585725843435D+03 0.287756583722596D+03 -.814357024785017D+02
 0.969708858815194D+02 -.183873418689447D+02 -.259228240537614D+02 0.916147671542036D+02
0.234041786115D-03 0.000000000000D+00 0.000000000000D+00 0.227048340163D-03 0.144480298682D-05  6 2 -1 25 2 -1 21 2 0.16661013D+00 0.41256907D-01 0.25103763D+06 0.25103763D+06 0.25103763D+06 0.10903238D+01  1  2  1  1  6  1        2 0.489893200052D-02 0.100000000000D+01
  </mgrwgt>
  </event>
  <event>
  7     66 0.20058315E-05 0.44770015E+02 0.75467711E-02 0.89525875E-01
        2 -1    0    0  501    0 0.00000000E+00 0.00000000E+00 0.42243555E+04 0.42243555E+04 0.32000000E+00 0.0000E+00 0.9000E+01
       21 -1    0    0  503  501 0.00000000E+00 0.00000000E+00 -.12361985E+04 0.12361987E+04 0.75000000E+00 0.0000E+00 0.9000E+01
       24  2    1    2    0    0 -.67735251E+03 -.42298876E+03 0.22377658E+04 0.23772637E+04 0.77854990E+02 0.0000E+00 0.0000E+00
       25  1    1    2    0    0 0.65797997E+03 0.42106441E+03 0.18351236E+04 0.19983834E+04 0.12500000E+03 0.0000E+00 0.9000E+01
        2  1    3    3  502    0 -.45053429E+03 -.28929368E+03 0.16032715E+04 0.16903111E+04 0.32000000E+00 0.0000E+00 0.9000E+01
        1  1    1    2  503    0 0.19372538E+02 0.19243477E+01 -.10847323E+04 0.10849071E+04 0.32000000E+00 0.0000E+00 0.9000E+01
       -1  1    3    3    0  502 -.22681822E+03 -.13369508E+03 0.63449427E+03 0.68695266E+03 0.32000000E+00 0.0000E+00 0.9000E+01
#aMCatNLO 2  0  0  0  0 0.00000000D+00 0.00000000D+00  -5  6  0 0.00000000D+00 0.00000000D+00 0.00000000D+00 0.00000000D+00 0.00000000D+00
  <mgrwgt>
 0.1794041519D-02    1    2    0
 0.799606445489976D+03 0.000000000000000D+00 0.000000000000000D+00 0.799606445489976D+03
 0.799606445489976D+03 0.000000000000000D+00 0.000000000000000D+00 -.799606445489976D+03
 0.802596541623126D+03 0.667650404181971D+03 0.422025015446821D+03 -.683668981171750D+02
 0.535876331282695D+03 -.444011893946353D+03 -.288648038521993D+03 0.818485816650482D+02
 0.000000000000000D+00 0.000000000000000D+00 0.000000000000000D+00 -.000000000000000D+00
 0.260740018074130D+03 -.223638510235619D+03 -.133376976924828D+03 -.134816835478732D+02
 0.799682224884437D+03 0.000000000000000D+00 0.000000000000000D+00 0.799682224884437D+03
 0.653027222034922D+04 0.000000000000000D+00 0.000000000000000D+00 -.653027222034922D+04
 0.794060401629138D+03 0.657979974704714D+03 0.421064414982847D+03 -.683668981171750D+02
 0.541642038182718D+03 -.450538070684819D+03 -.289296308427449D+03 0.818485816650482D+02
 0.573062306337207D+04 0.193725376957899D+02 0.192434769755380D+01 -.573058999546478D+04
 0.263628942049731D+03 -.226814441715684D+03 -.133692454252952D+03 -.134816835478732D+02
0.544627293715D-01 0.000000000000D+00 0.000000000000D+00 0.436514550376D-04 0.727882749093D-06  6 2 21 25 2 1 -1 2 0.64990086D+00 0.19018440D+00 0.64745024D+06 0.64745024D+06 0.64745024D+06 0.10606674D+01  1  2  1  6  5  2       -1 0.179404151859D-02 0.100000000000D+01
  </mgrwgt>
  </event>
  <event>
  7     66 0.20058315E-05 0.14213307E+03 0.75467711E-02 0.93901739E-01
        2 -1    0    0  503    0 0.00000000E+00 0.00000000E+00 0.21406306E+04 0.21406306E+04 0.32000000E+00 0.0000E+00 0.9000E+01
       -1 -1    0    0    0  501 0.00000000E+00 0.00000000E+00 -.36850016E+03 0.36850030E+03 0.32000000E+00 0.0000E+00 0.9000E+01
       24  2    1    2    0    0 0.22765661E+03 -.25827185E+03 -.85197413E+02 0.36376665E+03 0.80843670E+02 0.0000E+00 0.0000E+00
       25  1    1    2    0    0 -.38119909E+03 0.35249299E+03 0.37599290E+03 0.65311539E+03 0.12500000E+03 0.0000E+00 0.9000E+01
        2  1    3    3  502    0 0.13367954E+03 -.95390392E+02 -.55734385E+02 0.17342425E+03 0.32000000E+00 0.0000E+00 0.9000E+01
       -1  1    3    3    0  502 0.93977074E+02 -.16288146E+03 -.29463028E+02 0.19034241E+03 0.32000000E+00 0.0000E+00 0.9000E+01
       21  1    1    2  503  501 0.15354247E+03 -.94221138E+02 0.14813350E+04 0.14922489E+04 0.75000000E+00 0.0000E+00 0.9000E+01
#aMCatNLO 2  0  0  0  0 0.00000000D+00 0.00000000D+00  -5  6  0 0.00000000D+00 0.00000000D+00 0.00000000D+00 0.00000000D+00 0.00000000D+00
  <mgrwgt>
 0.1508235977D-01    1    2    0
 0.478809501370803D+03 0.000000000000000D+00 0.000000000000000D+00 0.478809501370803D+03
 0.478809501370803D+03 0.000000000000000D+00 0.000000000000000D+00 -.478809501370803D+03
 0.483555282820553D+03 -.297521063683727D+03 0.301144076703567D+03 0.197469423644584D+03
 0.231900614851623D+03 0.167814564480785D+03 -.116335867336197D+03 -.109918756760709D+03
 0.242163105069430D+03 0.129706499202942D+03 -.184808209367370D+03 -.875506668838756D+02
 0.000000000000000D+00 0.000000000000000D+00 -.000000000000000D+00 0.000000000000000D+00
 0.159509115036139D+04 0.000000000000000D+00 0.000000000000000D+00 0.159509115036139D+04
 0.494531316963302D+03 0.000000000000000D+00 0.000000000000000D+00 -.494531316963302D+03
 0.569370899691983D+03 -.381199086044396D+03 0.352492985661347D+03 0.197469423644584D+03
 0.197614887071736D+03 0.133680160406577D+03 -.953893349291587D+02 -.109918756760709D+03
 0.207430483914223D+03 0.939764518197393D+02 -.162882512531117D+03 -.875506668838756D+02
 0.111520619664675D+04 0.153542473818080D+03 -.942211382010715D+02 0.110055983339809D+04
0.501624702720D-02 0.000000000000D+00 0.000000000000D+00 0.175629994285D-03 0.705049832551D-07  6 2 -1 25 2 -1 21 2 0.32932771D+00 0.56692331D-01 0.28432915D+06 0.28432915D+06 0.28432915D+06 0.10862799D+01  1  2  1  1  6  1        2 0.150823597738D-01 0.100000000000D+01
  </mgrwgt>
  </event>
  <event>
  6     66 0.20058315E-05 0.13506529E+03 0.75467711E-02 0.92629716E-01
        2 -1    0    0  501    0 0.00000000E+00 0.00000000E+00 0.11801271E+04 0.11801271E+04 0.32000000E+00 0.0000E+00 0.9000E+01
       -1 -1    0    0    0  501 0.00000000E+00 0.00000000E+00 -.39668879E+03 0.39668891E+03 0.32000000E+00 0.0000E+00 0.9000E+01
       25  1    1    2    0    0 -.48878617E+03 0.30634244E+03 0.72861362E+03 0.93768887E+03 0.12500000E+03 0.0000E+00 0.9000E+01
        2  1    1    2  503    0 0.23942762E+03 -.22683478E+03 0.12145909E+03 0.35147122E+03 0.32000000E+00 0.0000E+00 0.9000E+01
       -1  1    1    2    0  502 0.80316207E+02 -.71900613E+02 -.62137600E+01 0.10797733E+03 0.32000000E+00 0.0000E+00 0.9000E+01
       21  1    1    2  502  503 0.16904234E+03 -.76070445E+01 -.60420675E+02 0.17967860E+03 0.75000000E+00 0.0000E+00 0.9000E+01
#aMCatNLO 2  0  0  0  0 0.00000000D+00 0.00000000D+00  -5  6  0 0.00000000D+00 0.00000000D+00 0.00000000D+00 0.00000000D+00 0.00000000D+00
  <mgrwgt>
 0.1146586313D+01    1    2    0
 0.684209989401220D+03 0.000000000000000D+00 0.000000000000000D+00 0.684209989401220D+03
 0.684209989401220D+03 -.000000000000000D+00 -.000000000000000D+00 -.684209989401220D+03
 0.688711653302810D+03 -.508852578032901D+03 0.317859578608666D+03 0.314218210024629D+03
 0.556393179338405D+03 0.432252393799013D+03 -.248082838231751D+03 -.247358330048133D+03
 0.123315146161226D+03 0.766001842338888D+02 -.697767403769151D+02 -.668598799764957D+02
 0.000000000000000D+00 0.000000000000000D+00 0.000000000000000D+00 -.000000000000000D+00
 0.684209989401220D+03 0.000000000000000D+00 0.000000000000000D+00 0.684209989401220D+03
 0.684209989401220D+03 -.000000000000000D+00 -.000000000000000D+00 -.684209989401220D+03
 0.663341097441583D+03 -.488780198754963D+03 0.306339427667291D+03 0.302731702860039D+03
 0.335174334446370D+03 0.239183160128738D+03 -.226716564402687D+03 -.610970523662148D+02
 0.128006406901806D+03 0.803312676039897D+02 -.719181229705400D+02 -.689950088154297D+02
 0.241898140012682D+03 0.169265771022236D+03 -.770474029406448D+01 -.172639641678394D+03
0.132105646452D+00 0.000000000000D+00 0.000000000000D+00 0.404383496480D-06 0.365869302833D-07  6 2 -1 25 2 -1 21 2 0.18155802D+00 0.61029057D-01 0.35823431D+06 0.35823431D+06 0.35823431D+06 0.10788973D+01  1  2  1  3  6  4        2 0.114658631317D+01 0.100000000000D+01
  </mgrwgt>
  </event>
  <event>
  7     66 0.20058315E-05 0.35404197E+02 0.75467711E-02 0.90866659E-01
        2 -1    0    0  501    0 0.00000000E+00 0.00000000E+00 0.12310664E+04 0.12310664E+04 0.32000000E+00 0.0000E+00 0.9000E+01
       -1 -1    0    0    0  503 0.00000000E+00 0.00000000E+00 -.48355776E+03 0.48355787E+03 0.32000000E+00 0.0000E+00 0.9000E+01
       24  2    1    2    0    0 -.69141011E+03 0.71576809E+02 0.68913718E+03 0.98218896E+03 0.81326045E+02 0.0000E+00 0.0000E+00
       25  1    1    2    0    0 0.64346229E+03 -.89527698E+02 0.96523437E+02 0.66858111E+03 0.12500000E+03 0.0000E+00 0.9000E+01
        2  1    3    3  502    0 -.60225373E+03 0.89553248E+02 0.60204305E+03 0.85626239E+03 0.32000000E+00 0.0000E+00 0.9000E+01
       -1  1    3    3    0  502 -.89156373E+02 -.17976439E+02 0.87094123E+02 0.12592657E+03 0.32000000E+00 0.0000E+00 0.9000E+01
       21  1    1    2  501  503 0.47947814E+02 0.17950889E+02 -.38151980E+02 0.63854235E+02 0.75000000E+00 0.0000E+00 0.9000E+01
#aMCatNLO 2  0  0  2  5 0.12464392D+03 0.00000000D+00  -5  6  0 0.00000000D+00 0.00000000D+00 0.00000000D+00 0.00000000D+00 0.00000000D+00
  <mgrwgt>
 0.1447293128D-02    1    2    0
 0.725458131726528D+03 0.000000000000000D+00 0.000000000000000D+00 0.725458131726528D+03
 0.725458131726528D+03 0.000000000000000D+00 0.000000000000000D+00 -.725458131726528D+03
 0.728563436488342D+03 0.667191102498997D+03 -.806440143690073D+02 -.252056058606664D+03
 0.629418597475557D+03 -.581164226874492D+03 0.974534594995854D+02 0.221175802205022D+03
 0.929342294891569D+02 -.860268756245059D+02 -.168094451305781D+02 0.308802564016425D+02
 0.000000000000000D+00 0.000000000000000D+00 0.000000000000000D+00 -.000000000000000D+00
 0.733565870890847D+03 0.000000000000000D+00 0.000000000000000D+00 0.733565870890847D+03
 0.811500966240736D+03 0.000000000000000D+00 0.000000000000000D+00 -.811500966240736D+03
 0.707966234194939D+03 0.643462293652355D+03 -.895276981022480D+02 -.252056058606664D+03
 0.647810117264888D+03 -.602261679049707D+03 0.895549133098846D+02 0.221175802205022D+03
 0.960429316457576D+02 -.891484282276056D+02 -.179781041333050D+02 0.308802564016425D+02
 0.932475540259992D+02 0.479478136249569D+02 0.179508889256684D+02 -.779350953498893D+02
0.271791600190D-03 0.000000000000D+00 0.000000000000D+00 0.650992121409D-04 0.151701383015D-06  6 2 -1 25 2 -1 21 2 0.18939446D+00 0.74393362D-01 0.49886074D+06 0.49886074D+06 0.49886074D+06 0.10685804D+01  1  2  1  2  6  2       -1 0.144729312789D-02 0.100000000000D+01
  </mgrwgt>
  </event>
  <event>
  7     66 0.20058315E-05 0.21240545E+02 0.75467711E-02 0.93241451E-01
        2 -1    0    0  503    0 0.00000000E+00 0.00000000E+00 0.13609573E+04 0.13609574E+04 0.32000000E+00 0.0000E+00 0.9000E+01
       -1 -1    0    0    0  501 0.00000000E+00 0.00000000E+00 -.27227598E+03 0.27227616E+03 0.32000000E+00 0.0000E+00 0.9000E+01
       24  2    1    2    0    0 0.50829740E+03 0.22229603E+03 0.26404314E+03 0.61966097E+03 0.80493260E+02 0.0000E+00 0.0000E+00
       25  1    1    2    0    0 -.48152924E+03 -.19229663E+03 0.68441096E+03 0.86769336E+03 0.12500000E+03 0.0000E+00 0.9000E+01
        2  1    3    3  502    0 0.41450814E+03 0.15346901E+03 0.23097717E+03 0.49871865E+03 0.32000000E+00 0.0000E+00 0.9000E+01
       -1  1    3    3    0  502 0.93789260E+02 0.68827022E+02 0.33065971E+02 0.12094232E+03 0.32000000E+00 0.0000E+00 0.9000E+01
       21  1    1    2  503  501 -.26768160E+02 -.29999399E+02 0.14022726E+03 0.14587921E+03 0.75000000E+00 0.0000E+00 0.9000E+01
#aMCatNLO 2  0  0  0  0 0.00000000D+00 0.00000000D+00  -5  6  0 0.00000000D+00 0.00000000D+00 0.00000000D+00 0.00000000D+00 0.00000000D+00
  <mgrwgt>
 0.4303584489D-02    1    2    0
 0.572503538848051D+03 0.000000000000000D+00 0.000000000000000D+00 0.572503538848051D+03
 0.572503538848051D+03 0.000000000000000D+00 0.000000000000000D+00 -.572503538848051D+03
 0.576497328604623D+03 -.494808079449120D+03 -.207178392887918D+03 0.170194735290254D+03
 0.442797463875859D+03 0.404007663598359D+03 0.141696661352658D+03 -.113002026221647D+03
 0.125712285215620D+03 0.908004158507606D+02 0.654817315352600D+02 -.571927090686078D+02
 0.000000000000000D+00 -.000000000000000D+00 -.000000000000000D+00 0.000000000000000D+00
 0.640141136715261D+03 0.000000000000000D+00 0.000000000000000D+00 0.640141136715261D+03
 0.578862558095389D+03 0.000000000000000D+00 0.000000000000000D+00 -.578862558095389D+03
 0.559856810746185D+03 -.481529236292678D+03 -.192296633391645D+03 0.170194735290254D+03
 0.456227797037050D+03 0.414513204978410D+03 0.153470348138032D+03 -.113002026221647D+03
 0.129628142567531D+03 0.937841912202667D+02 0.688256845375478D+02 -.571927090686078D+02
 0.732909444598843D+02 -.267681599059989D+02 -.299993992839352D+02 0.612785786198714D+02
0.312554052002D-03 0.000000000000D+00 0.000000000000D+00 0.214136041789D-03 0.830802197142D-06  6 2 -1 25 2 -1 21 2 0.20937738D+00 0.41888491D-01 0.32030333D+06 0.32030333D+06 0.32030333D+06 0.10824540D+01  1  2  1  1  6  1        2 0.430358448908D-02 0.100000000000D+01
  </mgrwgt>
  </event>
  <event>
  7     66 0.20058315E-05 0.57194035E+02 0.75467711E-02 0.92966012E-01
        2 -1    0    0  503    0 0.00000000E+00 0.00000000E+00 0.40739905E+03 0.40739918E+03 0.32000000E+00 0.0000E+00 0.9000E+01
       -1 -1    0    0    0  501 0.00000000E+00 0.00000000E+00 -.10116582E+04 0.10116582E+04 0.32000000E+00 0.0000E+00 0.9000E+01
       24  2    1    2    0    0 0.17399787E+03 -.54037893E+03 -.51636217E+03 0.77260706E+03 0.89482544E+02 0.0000E+00 0.0000E+00
       25  1    1    2    0    0 -.15293591E+03 0.52162787E+03 -.15055561E+03 0.57773438E+03 0.12500000E+03 0.0000E+00 0.9000E+01
        2  1    3    3  502    0 0.10815710E+03 -.19385676E+03 -.20002159E+03 0.29880954E+03 0.32000000E+00 0.0000E+00 0.9000E+01
       -1  1    3    3    0  502 0.65840767E+02 -.34652218E+03 -.31634058E+03 0.47379752E+03 0.32000000E+00 0.0000E+00 0.9000E+01
       21  1    1    2  503  501 -.21061965E+02 0.18751062E+02 0.62658672E+02 0.68715939E+02 0.75000000E+00 0.0000E+00 0.9000E+01
#aMCatNLO 2  0  0  0  0 0.00000000D+00 0.00000000D+00  -5  6  0 0.00000000D+00 0.00000000D+00 0.00000000D+00 0.00000000D+00 0.00000000D+00
  <mgrwgt>
 0.3580098685D-02    1    2    0
 0.586908740624675D+03 0.000000000000000D+00 0.000000000000000D+00 0.586908740624675D+03
 0.586908740624675D+03 0.000000000000000D+00 0.000000000000000D+00 -.586908740624675D+03
 0.590153656093722D+03 -.163422724343968D+03 0.530964084440381D+03 0.155004812838732D+03
 0.225062179888066D+03 0.104075307941675D+03 -.190220387816792D+03 -.603118491810916D+02
 0.358601645267562D+03 0.593474164022930D+02 -.340743696623588D+03 -.946929636576399D+02
 0.000000000000000D+00 -.000000000000000D+00 0.000000000000000D+00 0.000000000000000D+00
 0.699930714104098D+03 0.000000000000000D+00 0.000000000000000D+00 0.699930714104098D+03
 0.588839688585724D+03 0.000000000000000D+00 0.000000000000000D+00 -.588839688585724D+03
 0.578909768699591D+03 -.152935906088713D+03 0.521627872071142D+03 0.155004812838732D+03
 0.230033215503778D+03 0.108157637949665D+03 -.193854807617747D+03 -.603118491810916D+02
 0.365213175756771D+03 0.658402330601097D+02 -.346524126275025D+03 -.946929636576399D+02
 0.114614242729682D+03 -.210619649210623D+02 0.187510618216306D+02 0.111091025518373D+03
0.907666834726D-03 0.000000000000D+00 0.000000000000D+00 0.284767399985D-05 0.226089470302D-07  6 2 -1 25 2 -1 21 2 0.62676660D-01 0.15563941D+00 0.33679529D+06 0.33679529D+06 0.33679529D+06 0.10808540D+01  1  2  1  1  6  1        2 0.358009868548D-02 0.100000000000D+01
  </mgrwgt>
  </event>
  <event>
  7     66 0.20058315E-05 0.34970928E+02 0.75467711E-02 0.89541112E-01
        2 -1    0    0  501    0 0.00000000E+00 0.00000000E+00 0.13828702E+04 0.13828702E+04 0.32000000E+00 0.0000E+00 0.9000E+01
       -1 -1    0    0    0  503 0.00000000E+00 0.00000000E+00 -.59873447E+03 0.59873455E+03 0.32000000E+00 0.0000E+00 0.9000E+01
       24  2    1    2    0    0 -.64741859E+03 0.43664786E+03 0.77750331E+03 0.11049169E+04 0.80732913E+02 0.0000E+00 0.0000E+00
       25  1    1    2    0    0 0.66737897E+03 -.42893278E+03 0.73498506E+02 0.80647693E+03 0.12500000E+03 0.0000E+00 0.9000E+01
        2  1    3    3  502    0 -.16789743E+03 0.88697496E+02 0.22953618E+03 0.29789890E+03 0.32000000E+00 0.0000E+00 0.9000E+01
       -1  1    3    3    0  502 -.47952116E+03 0.34795036E+03 0.54796713E+03 0.80701802E+03 0.32000000E+00 0.0000E+00 0.9000E+01
       21  1    1    2  501  503 -.19960377E+02 -.77150836E+01 -.66866089E+02 0.70210936E+02 0.75000000E+00 0.0000E+00 0.9000E+01
#aMCatNLO 2  0  0  2  5 0.17363608D+00 0.00000000D+00  -5  6  0 0.00000000D+00 0.00000000D+00 0.00000000D+00 0.00000000D+00 0.00000000D+00
  <mgrwgt>
 0.2729597748D-02    1    2    0
 0.855681658921292D+03 0.000000000000000D+00 0.000000000000000D+00 0.855681658921292D+03
 0.855681658921292D+03 0.000000000000000D+00 0.000000000000000D+00 -.855681658921292D+03
 0.858342460588840D+03 0.657334414051871D+03 -.432815195926974D+03 -.318918882989833D+03
 0.220129936897166D+03 -.170450712893052D+03 0.877046332412964D+02 0.108220334968112D+03
 0.632890920356579D+03 -.486883701158819D+03 0.345110562685678D+03 0.210698548021721D+03
 0.000000000000000D+00 -.000000000000000D+00 -.000000000000000D+00 -.000000000000000D+00
 0.856783478368076D+03 0.000000000000000D+00 0.000000000000000D+00 0.856783478368076D+03
 0.966369869181299D+03 0.000000000000000D+00 0.000000000000000D+00 -.966369869181299D+03
 0.864125144748329D+03 0.667378966964863D+03 -.428932775982147D+03 -.318918882989833D+03
 0.218554490567713D+03 -.167892528965457D+03 0.886934223281840D+02 0.108220334968112D+03
 0.628817470968154D+03 -.479526061074235D+03 0.347954437257169D+03 0.210698548021721D+03
 0.111656241265179D+03 -.199603769251717D+02 -.771508360320566D+01 -.109586390813223D+03
0.100639822371D-02 0.000000000000D+00 0.000000000000D+00 0.201234024278D-03 0.265806340070D-05  6 2 -1 25 2 -1 21 2 0.21274896D+00 0.92112869D-01 0.64550592D+06 0.64550592D+06 0.64550592D+06 0.10607577D+01  1  2  1  2  6  2       -1 0.272959774815D-02 0.100000000000D+01
  </mgrwgt>
  </event>
  <event>
  7     66 0.20058315E-05 0.24040847E+02 0.75467711E-02 0.95526223E-01
        2 -1    0    0  501    0 0.00000000E+00 0.00000000E+00 0.14815914E+04 0.14815914E+04 0.32000000E+00 0.0000E+00 0.9000E+01
       21 -1    0    0  503  501 0.00000000E+00 0.00000000E+00 -.74649597E+03 0.74649635E+03 0.75000000E+00 0.0000E+00 0.9000E+01
       24  2    1    2    0    0 0.23801807E+03 -.35400656E+03 0.29135672E+03 0.52185440E+03 0.73959624E+02 0.0000E+00 0.0000E+00
       25  1    1    2    0    0 -.24548454E+03 0.37900662E+03 0.10236237E+04 0.11257616E+04 0.12500000E+03 0.0000E+00 0.9000E+01
        2  1    3    3  502    0 0.17405407E+03 -.29598888E+03 0.25707005E+03 0.42893980E+03 0.32000000E+00 0.0000E+00 0.9000E+01
        1  1    1    2  503    0 0.74664679E+01 -.25000060E+02 -.57988502E+03 0.58047178E+03 0.32000000E+00 0.0000E+00 0.9000E+01
       -1  1    3    3    0  502 0.63964000E+02 -.58017679E+02 0.34286668E+02 0.92914597E+02 0.32000000E+00 0.0000E+00 0.9000E+01
#aMCatNLO 2  0  0  2  1 0.12132802D+02 0.00000000D+00  -5  6  0 0.00000000D+00 0.00000000D+00 0.00000000D+00 0.00000000D+00 0.00000000D+00
  <mgrwgt>
 0.1008116424D-01    1    2    0
 0.496181467807808D+03 0.000000000000000D+00 0.000000000000000D+00 0.496181467807808D+03
 0.496181467807808D+03 0.000000000000000D+00 0.000000000000000D+00 -.496181467807808D+03
 0.501298030401283D+03 -.241671264716394D+03 0.366238595390919D+03 0.207699317140599D+03
 0.380294643184723D+03 0.176883491333657D+03 -.305460219063161D+03 -.141528444838830D+03
 0.000000000000000D+00 0.000000000000000D+00 -.000000000000000D+00 -.000000000000000D+00
 0.110770262029610D+03 0.647877733827361D+02 -.607783763277585D+02 -.661708723017690D+02
 0.496451226971770D+03 0.000000000000000D+00 0.000000000000000D+00 0.496451226971770D+03
 0.222781684454388D+04 0.000000000000000D+00 0.000000000000000D+00 -.222781684454388D+04
 0.512516033619420D+03 -.245484538143763D+03 0.379006622512924D+03 0.207699317140599D+03
 0.371399911500141D+03 0.174056131788545D+03 -.295993338692991D+03 -.141528444838830D+03
 0.173156220011012D+04 0.746646786817474D+01 -.250000599385793D+02 -.173136561757211D+04
 0.108789926285964D+03 0.639619384870437D+02 -.580132238813543D+02 -.661708723017690D+02
0.913222574819D-03 0.000000000000D+00 0.000000000000D+00 0.540981549622D-05 0.210409717708D-07  6 2 21 25 2 1 -1 2 0.22793716D+00 0.11484556D+00 0.21361227D+06 0.21361227D+06 0.21361227D+06 0.10956359D+01  1  2  1  6  5  2       -1 0.100811642437D-01 0.100000000000D+01
  </mgrwgt>
  </event>
  <event>
  7     66 0.20058315E-05 0.29345448E+02 0.75467711E-02 0.94983700E-01
        2 -1    0    0  503    0 0.00000000E+00 0.00000000E+00 0.89931695E+03 0.89931701E+03 0.32000000E+00 0.0000E+00 0.9000E+01
       -1 -1    0    0    0  501 0.00000000E+00 0.00000000E+00 -.34774918E+03 0.34774932E+03 0.32000000E+00 0.0000E+00 0.9000E+01
       24  2    1    2    0    0 0.33486406E+03 -.30979547E+03 0.40803853E+02 0.46526011E+03 0.81822026E+02 0.0000E+00 0.0000E+00
       25  1    1    2    0    0 -.32185786E+03 0.33266021E+03 0.29181381E+03 0.56128032E+03 0.12500000E+03 0.0000E+00 0.9000E+01
        2  1    3    3  502    0 0.89411446E+02 -.38287851E+02 0.14034761E+02 0.98272291E+02 0.32000000E+00 0.0000E+00 0.9000E+01
       -1  1    3    3    0  502 0.24545261E+03 -.27150762E+03 0.26769092E+02 0.36698782E+03 0.32000000E+00 0.0000E+00 0.9000E+01
       21  1    1    2  503  501 -.13006199E+02 -.22864731E+02 0.21895012E+03 0.22052590E+03 0.75000000E+00 0.0000E+00 0.9000E+01
#aMCatNLO 2  0  0  0  0 0.00000000D+00 0.00000000D+00  -5  6  0 0.00000000D+00 0.00000000D+00 0.00000000D+00 0.00000000D+00 0.00000000D+00
  <mgrwgt>
 0.8349370805D-02    1    2    0
 0.485401584131716D+03 0.000000000000000D+00 0.000000000000000D+00 0.485401584131716D+03
 0.485401584131716D+03 0.000000000000000D+00 0.000000000000000D+00 -.485401584131716D+03
 0.490000949112681D+03 -.328443758232965D+03 0.321082284658685D+03 0.116218734666544D+03
 0.988054087259134D+02 0.880838304990523D+02 -.406140192190645D+02 -.188215047480927D+02
 0.381996810424837D+03 0.240359927733913D+03 -.280468265439621D+03 -.973972299184512D+02
 0.000000000000000D+00 -.000000000000000D+00 -.000000000000000D+00 0.000000000000000D+00
 0.642588013094454D+03 0.000000000000000D+00 0.000000000000000D+00 0.642588013094454D+03
 0.486681527837293D+03 0.000000000000000D+00 0.000000000000000D+00 -.486681527837293D+03
 0.493342771297388D+03 -.321857862450772D+03 0.332660205138087D+03 0.116218734666544D+03
 0.990652073949375D+02 0.894090591338442D+02 -.382842842432799D+02 -.188215047480927D+02
 0.378751508010700D+03 0.245455001854695D+03 -.271511190357052D+03 -.973972299184512D+02
 0.158110054228722D+03 -.130061985377672D+02 -.228647305377549D+02 0.155906485257161D+03
0.486174633375D-03 0.000000000000D+00 0.000000000000D+00 0.655196830790D-04 0.625219534215D-06  6 2 -1 25 2 -1 21 2 0.13835622D+00 0.53499791D-01 0.23475893D+06 0.23475893D+06 0.23475893D+06 0.10925202D+01  1  2  1  1  6  1        2 0.834937080453D-02 0.100000000000D+01
  </mgrwgt>
  </event>
  <event>
  7     66 0.20058315E-05 0.51634707E+02 0.75467711E-02 0.92670686E-01
        2 -1    0    0  503    0 0.00000000E+00 0.00000000E+00 0.25292588E+04 0.25292588E+04 0.32000000E+00 0.0000E+00 0.9000E+01
       -1 -1    0    0    0  501 0.00000000E+00 0.00000000E+00 -.14547271E+03 0.14547306E+03 0.32000000E+00 0.0000E+00 0.9000E+01
       24  2    1    2    0    0 -.47559151E+03 0.34504396E+03 0.11923226E+04 0.13316577E+04 0.80226422E+02 0.0000E+00 0.0000E+00
       25  1    1    2    0    0 0.46822580E+03 -.33768236E+03 0.10787189E+04 0.12298472E+04 0.12500000E+03 0.0000E+00 0.9000E+01
        2  1    3    3  502    0 -.13885043E+03 0.14015896E+03 0.44428738E+03 0.48612278E+03 0.32000000E+00 0.0000E+00 0.9000E+01
       -1  1    3    3    0  502 -.33674108E+03 0.20488500E+03 0.74803525E+03 0.84553490E+03 0.32000000E+00 0.0000E+00 0.9000E+01
       21  1    1    2  503  501 0.73657150E+01 -.73616014E+01 0.11274455E+03 0.11322696E+03 0.75000000E+00 0.0000E+00 0.9000E+01
#aMCatNLO 2  0  0  0  0 0.00000000D+00 0.00000000D+00  -5  6  0 0.00000000D+00 0.00000000D+00 0.00000000D+00 0.00000000D+00 0.00000000D+00
  <mgrwgt>
 0.9544636623D-02    1    2    0
 0.592361659599218D+03 0.000000000000000D+00 0.000000000000000D+00 0.592361659599218D+03
 0.592361659599218D+03 0.000000000000000D+00 0.000000000000000D+00 -.592361659599218D+03
 0.596239662633490D+03 0.471917049406054D+03 -.341371553207303D+03 -.252288810297928D+02
 0.197643296646514D+03 -.137613141210774D+03 0.138924480358131D+03 0.287312518458337D+02
 0.390840359918432D+03 -.334303908195280D+03 0.202447072849171D+03 -.350237081604089D+01
 0.000000000000000D+00 0.000000000000000D+00 -.000000000000000D+00 0.000000000000000D+00
 0.620079528898414D+03 0.000000000000000D+00 0.000000000000000D+00 0.620079528898414D+03
 0.593363483743643D+03 0.000000000000000D+00 0.000000000000000D+00 -.593363483743643D+03
 0.591207467378697D+03 0.468225795929188D+03 -.337682361210643D+03 -.252288810297928D+02
 0.199369751695515D+03 -.138847281037310D+03 0.140157930945946D+03 0.287312518458337D+02
 0.394191868125534D+03 -.336744229846645D+03 0.204886031636995D+03 -.350237081604089D+01
 0.286739254423118D+02 0.736571495476618D+01 -.736160137229870D+01 0.267160451547709D+02
0.107741988639D-02 0.000000000000D+00 0.000000000000D+00 0.287300587014D-03 0.164704833868D-04  6 2 -1 25 2 -1 21 2 0.38911356D+00 0.22380260D-01 0.35554249D+06 0.35554249D+06 0.35554249D+06 0.10791359D+01  1  2  1  1  6  1        2 0.954463662315D-02 0.100000000000D+01
  </mgrwgt>
  </event>
  <event>
  7     66 0.20058315E-05 0.99346844E+02 0.75467711E-02 0.93259969E-01
        2 -1    0    0  501    0 0.00000000E+00 0.00000000E+00 0.65255760E+03 0.65255767E+03 0.32000000E+00 0.0000E+00 0.9000E+01
       -1 -1    0    0    0  503 0.00000000E+00 0.00000000E+00 -.51575916E+03 0.51575926E+03 0.32000000E+00 0.0000E+00 0.9000E+01
       24  2    1    2    0    0 -.48055428E+03 0.65014490E+02 -.68594279E+02 0.49660723E+03 0.82184326E+02 0.0000E+00 0.0000E+00
       25  1    1    2    0    0 0.48567269E+03 0.67319760E+02 0.14657673E+03 0.52680133E+03 0.12500000E+03 0.0000E+00 0.9000E+01
        2  1    3    3  502    0 -.19179199E+03 -.13677650E+02 -.34940660E+02 0.19542824E+03 0.32000000E+00 0.0000E+00 0.9000E+01
       -1  1    3    3    0  502 -.28876229E+03 0.78692140E+02 -.33653619E+02 0.30117899E+03 0.32000000E+00 0.0000E+00 0.9000E+01
       21  1    1    2  501  503 -.51184067E+01 -.13233425E+03 0.58815993E+02 0.14490837E+03 0.75000000E+00 0.0000E+00 0.9000E+01
#aMCatNLO 2  0  0  2  1 0.12132802D+02 0.00000000D+00  -5  6  0 0.00000000D+00 0.00000000D+00 0.00000000D+00 0.00000000D+00 0.00000000D+00
  <mgrwgt>
 0.1468326574D-02    1    2    0
 0.505901489986319D+03 0.000000000000000D+00 0.000000000000000D+00 0.505901489986319D+03
 0.505901489986319D+03 0.000000000000000D+00 0.000000000000000D+00 -.505901489986319D+03
 0.510285118445420D+03 0.483085015943128D+03 0.416616644693080D+00 0.106745472544067D+03
 0.203120497077452D+03 -.192802465124762D+03 -.398424484227871D+02 -.499772456072140D+02
 0.298397364449765D+03 -.290282550818366D+03 0.394258317780941D+02 -.567682269368528D+02
 0.000000000000000D+00 -.000000000000000D+00 -.000000000000000D+00 0.000000000000000D+00
 0.604590313914916D+03 0.000000000000000D+00 0.000000000000000D+00 0.604590313914916D+03
 0.556676938601088D+03 0.000000000000000D+00 0.000000000000000D+00 -.556676938601088D+03
 0.517135866886802D+03 0.485672686936913D+03 0.673197599192643D+02 0.106745472544067D+03
 0.198666668828622D+03 -.191790520644618D+03 -.136790502537241D+02 -.499772456072140D+02
 0.304630618400816D+03 -.288763759551747D+03 0.786935400604808D+02 -.567682269368528D+02
 0.140834098399764D+03 -.511840674054722D+01 -.132334249726021D+03 0.479133753138278D+02
0.125360139342D-03 0.000000000000D+00 0.000000000000D+00 0.616347141387D-04 0.225601581341D-07  6 2 -1 25 2 -1 21 2 0.10039331D+00 0.79347438D-01 0.31922743D+06 0.31922743D+06 0.31922743D+06 0.10825615D+01  1  2  1  2  6  2       -1 0.146832657412D-02 0.100000000000D+01
  </mgrwgt>
  </event>
  <event>
  7     66 0.20058315E-05 0.55510787E+02 0.75467711E-02 0.93129364E-01
        2 -1    0    0  503    0 0.00000000E+00 0.00000000E+00 0.12278129E+04 0.12278130E+04 0.32000000E+00 0.0000E+00 0.9000E+01
       -1 -1    0    0    0  501 0.00000000E+00 0.00000000E+00 -.26862383E+03 0.26862402E+03 0.32000000E+00 0.0000E+00 0.9000E+01
       24  2    1    2    0    0 -.43722947E+03 0.33388826E+03 0.45883505E+03 0.72093631E+03 0.81046816E+02 0.0000E+00 0.0000E+00
       25  1    1    2    0    0 0.41368490E+03 -.35586140E+03 0.46583725E+03 0.72828695E+03 0.12500000E+03 0.0000E+00 0.9000E+01
        2  1    3    3  502    0 -.23362878E+03 0.20246357E+03 0.21086852E+03 0.37421857E+03 0.32000000E+00 0.0000E+00 0.9000E+01
       -1  1    3    3    0  502 -.20360069E+03 0.13142469E+03 0.24796653E+03 0.34671774E+03 0.32000000E+00 0.0000E+00 0.9000E+01
       21  1    1    2  503  501 0.23544564E+02 0.21973139E+02 0.34516794E+02 0.47213737E+02 0.75000000E+00 0.0000E+00 0.9000E+01
#aMCatNLO 2  0  0  0  0 0.00000000D+00 0.00000000D+00  -5  6  0 0.00000000D+00 0.00000000D+00 0.00000000D+00 0.00000000D+00 0.00000000D+00
  <mgrwgt>
 0.4346569077D-02    1    2    0
 0.557716779572488D+03 0.000000000000000D+00 0.000000000000000D+00 0.557716779572488D+03
 0.557716779572488D+03 0.000000000000000D+00 0.000000000000000D+00 -.557716779572488D+03
 0.561776373070253D+03 0.425519772759333D+03 -.344816418003526D+03 0.150140135590243D+01
 0.310454369157012D+03 -.227068960218322D+03 0.208587117680157D+03 -.362355760535538D+02
 0.243202816917710D+03 -.198450812541011D+03 0.136229300323369D+03 0.347341746976514D+02
 0.000000000000000D+00 0.000000000000000D+00 0.000000000000000D+00 0.000000000000000D+00
 0.577154422410189D+03 0.000000000000000D+00 0.000000000000000D+00 0.577154422410189D+03
 0.571450265891202D+03 0.000000000000000D+00 0.000000000000000D+00 -.571450265891202D+03
 0.559821210180384D+03 0.413684901484780D+03 -.355861399206666D+03 0.150140135590243D+01
 0.311267713067167D+03 -.233629246119032D+03 0.202464682312704D+03 -.362355760535538D+02
 0.244809454828947D+03 -.203600219514397D+03 0.131423578156313D+03 0.347341746976514D+02
 0.327063102248931D+02 0.235445641486493D+02 0.219731387376493D+02 0.570415651898706D+01
0.259428907108D-03 0.000000000000D+00 0.000000000000D+00 0.155932051592D-03 0.939400433533D-06  6 2 -1 25 2 -1 21 2 0.18889290D+00 0.41326452D-01 0.32690290D+06 0.32690290D+06 0.32690290D+06 0.10818032D+01  1  2  1  1  6  1        2 0.434656907736D-02 0.100000000000D+01
  </mgrwgt>
  </event>
  <event>
  7     66 0.20058315E-05 0.57746170E+02 0.75467711E-02 0.91440090E-01
        2 -1    0    0  501    0 0.00000000E+00 0.00000000E+00 0.23889107E+04 0.23889107E+04 0.32000000E+00 0.0000E+00 0.9000E+01
       -1 -1    0    0    0  503 0.00000000E+00 0.00000000E+00 -.24189682E+03 0.24189703E+03 0.32000000E+00 0.0000E+00 0.9000E+01
       24  2    1    2    0    0 -.42900873E+03 0.49082460E+03 0.16647655E+04 0.17896637E+04 0.80588714E+02 0.0000E+00 0.0000E+00
       25  1    1    2    0    0 0.42722644E+03 -.50383792E+03 0.48322272E+03 0.82795186E+03 0.12500000E+03 0.0000E+00 0.9000E+01
        2  1    3    3  502    0 -.16064492E+03 0.19736462E+03 0.75657193E+03 0.79822351E+03 0.32000000E+00 0.0000E+00 0.9000E+01
       -1  1    3    3    0  502 -.26836381E+03 0.29345999E+03 0.90819360E+03 0.99144017E+03 0.32000000E+00 0.0000E+00 0.9000E+01
       21  1    1    2  501  503 0.17822968E+01 0.13013317E+02 -.97435039E+00 0.13192227E+02 0.75000000E+00 0.0000E+00 0.9000E+01
#aMCatNLO 2  0  0  2  4 0.77417636D+02 0.00000000D+00  -5  6  0 0.00000000D+00 0.00000000D+00 0.00000000D+00 0.00000000D+00 0.00000000D+00
  <mgrwgt>
 0.3904687660D-01    1    2    0
 0.747978118279062D+03 0.000000000000000D+00 0.000000000000000D+00 0.747978118279062D+03
 0.747978118279062D+03 0.000000000000000D+00 0.000000000000000D+00 -.747978118279062D+03
 0.751029831610583D+03 0.428123493738632D+03 -.497288119023181D+03 -.343271916643985D+03
 0.311916772145495D+03 -.160272524291131D+03 0.200069726448420D+03 0.177698889309606D+03
 0.433009632802044D+03 -.267850969447500D+03 0.297218392574761D+03 0.165573027334379D+03
 0.000000000000000D+00 0.000000000000000D+00 0.000000000000000D+00 -.000000000000000D+00
 0.749918928419396D+03 0.000000000000000D+00 0.000000000000000D+00 0.749918928419396D+03
 0.770565118425037D+03 0.000000000000000D+00 0.000000000000000D+00 -.770565118425037D+03
 0.754874616922037D+03 0.427226436423475D+03 -.503837920900815D+03 -.343271916643985D+03
 0.310379339622935D+03 -.160643221967069D+03 0.197363103033318D+03 0.177698889309606D+03
 0.430759942017582D+03 -.268365511267506D+03 0.293461501100996D+03 0.165573027334379D+03
 0.244701482818794D+02 0.178229681110053D+01 0.130133167665001D+02 -.206461900056411D+02
0.885345271047D-02 0.000000000000D+00 0.000000000000D+00 0.265318529004D-03 0.943013412200D-05  6 2 -1 25 2 -1 21 2 0.36752193D+00 0.37214628D-01 0.44728604D+06 0.44728604D+06 0.44728604D+06 0.10719469D+01  1  2  1  2  6  2       -1 0.390468765960D-01 0.100000000000D+01
  </mgrwgt>
  </event>
  <event>
  7     66 0.20058315E-05 0.37321957E+02 0.75467711E-02 0.94696915E-01
        2 -1    0    0  501    0 0.00000000E+00 0.00000000E+00 0.13072781E+04 0.13072781E+04 0.32000000E+00 0.0000E+00 0.9000E+01
       21 -1    0    0  503  501 0.00000000E+00 0.00000000E+00 -.23954651E+03 0.23954768E+03 0.75000000E+00 0.0000E+00 0.9000E+01
       24  2    1    2    0    0 -.55003039E+02 -.46349453E+03 0.56245615E+03 0.73549574E+03 0.82125167E+02 0.0000E+00 0.0000E+00
       25  1    1    2    0    0 0.66677709E+02 0.48200862E+03 0.56003464E+03 0.75235764E+03 0.12500000E+03 0.0000E+00 0.9000E+01
        2  1    3    3  502    0 -.62826072E+02 -.34293260E+03 0.45928844E+03 0.57662453E+03 0.32000000E+00 0.0000E+00 0.9000E+01
        1  1    1    2  503    0 -.11674670E+02 -.18514093E+02 -.54759228E+02 0.58972408E+02 0.32000000E+00 0.0000E+00 0.9000E+01
       -1  1    3    3    0  502 0.78230324E+01 -.12056193E+03 0.10316771E+03 0.15887120E+03 0.32000000E+00 0.0000E+00 0.9000E+01
#aMCatNLO 2  0  0  2  4 0.77417636D+02 0.00000000D+00  -5  6  0 0.00000000D+00 0.00000000D+00 0.00000000D+00 0.00000000D+00 0.00000000D+00
  <mgrwgt>
 0.4110705841D-02    1    2    0
 0.488170832219048D+03 0.000000000000000D+00 0.000000000000000D+00 0.488170832219048D+03
 0.488170832219048D+03 0.000000000000000D+00 0.000000000000000D+00 -.488170832219048D+03
 0.492718654656591D+03 0.607280813778108D+02 0.472573499724899D+03 -.115351695493288D+02
 0.357939987682841D+03 -.670628045381464D+02 -.349653028586769D+03 0.369645050010309D+02
 0.000000000000000D+00 -.000000000000000D+00 -.000000000000000D+00 -.000000000000000D+00
 0.125683022098664D+03 0.633472316033563D+01 -.122920471138130D+03 -.254293354517021D+02
 0.489081440740781D+03 0.000000000000000D+00 0.000000000000000D+00 0.489081440740781D+03
 0.640291358898941D+03 0.000000000000000D+00 0.000000000000000D+00 -.640291358898941D+03
 0.502529890231064D+03 0.666777089363707D+02 0.482008623958234D+03 -.115351695493288D+02
 0.350597640768229D+03 -.628271439866557D+02 -.342935972246653D+03 0.369645050010309D+02
 0.152785826924379D+03 -.116746697085807D+02 -.185140931931331D+02 -.151209918158161D+03
 0.123459441716050D+03 0.782410475886573D+01 -.120558558518448D+03 -.254293354517021D+02
0.217279433064D-04 0.000000000000D+00 0.000000000000D+00 0.764426427221D-04 0.377976281073D-07  6 2 21 25 2 1 -1 2 0.20111973D+00 0.36853390D-01 0.24688023D+06 0.24688023D+06 0.24688023D+06 0.10908696D+01  1  2  1  6  5  2       -1 0.411070584053D-02 0.100000000000D+01
  </mgrwgt>
  </event>
  <event>
  7     66 0.20058315E-05 0.39097991E+02 0.75467711E-02 0.91864933E-01
        2 -1    0    0  501    0 0.00000000E+00 0.00000000E+00 0.40678397E+04 0.40678397E+04 0.32000000E+00 0.0000E+00 0.9000E+01
       -1 -1    0    0    0  503 0.00000000E+00 0.00000000E+00 -.18848825E+03 0.18848852E+03 0.32000000E+00 0.0000E+00 0.9000E+01
       24  2    1    2    0    0 -.49862197E+03 -.30017331E+03 0.12233559E+04 0.13571251E+04 0.80380467E+02 0.0000E+00 0.0000E+00
       25  1    1    2    0    0 0.54844550E+03 0.31622332E+03 0.27318542E+04 0.28070343E+04 0.12500000E+03 0.0000E+00 0.9000E+01
        2  1    3    3  502    0 -.46639476E+03 -.25359555E+03 0.11071774E+04 0.12278749E+04 0.32000000E+00 0.0000E+00 0.9000E+01
       -1  1    3    3    0  502 -.32227213E+02 -.46577758E+02 0.11617848E+03 0.12925024E+03 0.32000000E+00 0.0000E+00 0.9000E+01
       21  1    1    2  501  503 -.49823527E+02 -.16050015E+02 -.75858625E+02 0.92168760E+02 0.75000000E+00 0.0000E+00 0.9000E+01
#aMCatNLO 2  0  0  2  4 0.77417636D+02 0.00000000D+00  -5  6  0 0.00000000D+00 0.00000000D+00 0.00000000D+00 0.00000000D+00 0.00000000D+00
  <mgrwgt>
 0.2649074352D-02    1    2    0
 0.650729847706221D+03 0.000000000000000D+00 0.000000000000000D+00 0.650729847706221D+03
 0.650729847706221D+03 0.000000000000000D+00 0.000000000000000D+00 -.650729847706221D+03
 0.654250502483608D+03 0.522943223036725D+03 0.308008089792623D+03 0.209952666337713D+03
 0.584932392347986D+03 -.488375250020550D+03 -.260677350522154D+03 -.188899014582009D+03
 0.622768005808474D+02 -.345679730161756D+02 -.473307392704689D+02 -.210536517557043D+02
 0.000000000000000D+00 -.000000000000000D+00 -.000000000000000D+00 -.000000000000000D+00
 0.652563935874526D+03 0.000000000000000D+00 0.000000000000000D+00 0.652563935874526D+03
 0.117496524780386D+04 0.000000000000000D+00 0.000000000000000D+00 -.117496524780386D+04
 0.678597652776238D+03 0.548445496326051D+03 0.316223322686319D+03 0.209952666337713D+03
 0.563494181538696D+03 -.466401637929477D+03 -.253598830940941D+03 -.188899014582009D+03
 0.604200948492995D+02 -.322203314287501D+02 -.465744764003780D+02 -.210536517557043D+02
 0.525017254514154D+03 -.498235269678236D+02 -.160500153450001D+02 -.522401311929336D+03
0.539822607528D-02 0.000000000000D+00 0.000000000000D+00 0.908382926430D-04 0.236598564838D-06  6 2 -1 25 2 -1 21 2 0.62582125D+00 0.28998202D-01 0.41291479D+06 0.41291479D+06 0.41291479D+06 0.10744342D+01  1  2  1  2  6  2       -1 0.264907435239D-02 0.100000000000D+01
  </mgrwgt>
  </event>
  <event>
  7     66 0.20058315E-05 0.30974840E+02 0.75467711E-02 0.91866777E-01
        2 -1    0    0  501    0 0.00000000E+00 0.00000000E+00 0.44569486E+03 0.44569497E+03 0.32000000E+00 0.0000E+00 0.9000E+01
       -1 -1    0    0    0  503 0.00000000E+00 0.00000000E+00 -.13939676E+04 0.13939676E+04 0.32000000E+00 0.0000E+00 0.9000E+01
       24  2    1    2    0    0 0.87303612E+02 0.62831823E+03 -.29389723E+03 0.70365841E+03 0.79711069E+02 0.0000E+00 0.0000E+00
       25  1    1    2    0    0 -.95761456E+02 -.61339557E+03 -.17595312E+03 0.65727383E+03 0.12500000E+03 0.0000E+00 0.9000E+01
        2  1    3    3  502    0 0.75503723E+02 0.50273804E+03 -.19952863E+03 0.54613014E+03 0.32000000E+00 0.0000E+00 0.9000E+01
       -1  1    3    3    0  502 0.11799889E+02 0.12558019E+03 -.94368596E+02 0.15752827E+03 0.32000000E+00 0.0000E+00 0.9000E+01
       21  1    1    2  501  503 0.84578443E+01 -.14922661E+02 -.47842236E+03 0.47873034E+03 0.75000000E+00 0.0000E+00 0.9000E+01
#aMCatNLO 2  0  0  2  4 0.77417636D+02 0.00000000D+00  -5  6  0 0.00000000D+00 0.00000000D+00 0.00000000D+00 0.00000000D+00 0.00000000D+00
  <mgrwgt>
 0.7178011718D-03    1    2    0
 0.638569294561412D+03 0.000000000000000D+00 0.000000000000000D+00 0.638569294561412D+03
 0.638569294561412D+03 0.000000000000000D+00 0.000000000000000D+00 -.638569294561412D+03
 0.642198949798786D+03 -.915305094165745D+02 -.620860472402120D+03 0.543040585704386D+02
 0.503188591761855D+03 0.788546063579878D+02 0.496833776542815D+03 -.117007872218015D+02
 0.131751047562184D+03 0.126759030585866D+02 0.124026695859305D+03 -.426032713486371D+02
 0.000000000000000D+00 0.000000000000000D+00 -.000000000000000D+00 -.000000000000000D+00
 0.638847189927819D+03 0.000000000000000D+00 0.000000000000000D+00 0.638847189927819D+03
 0.972507206014346D+03 0.000000000000000D+00 0.000000000000000D+00 -.972507206014346D+03
 0.635608616184100D+03 -.957614559144062D+02 -.613395570371517D+03 0.543040585704386D+02
 0.508516987901021D+03 0.755047497026792D+02 0.502744121133856D+03 -.117007872218015D+02
 0.133128167394228D+03 0.117988619322835D+02 0.125574109916188D+03 -.426032713486371D+02
 0.334100624462815D+03 0.845784427944345D+01 -.149226606785271D+02 -.333660016086527D+03
0.620998705942D-03 0.000000000000D+00 0.000000000000D+00 0.166581184164D-03 0.380288369863D-05  6 2 -1 25 2 -1 21 2 0.68568406D-01 0.21445642D+00 0.41277221D+06 0.41277221D+06 0.41277221D+06 0.10744450D+01  1  2  1  2  6  2       -1 0.717801171766D-03 0.100000000000D+01
  </mgrwgt>
  </event>
  <event>
  7     66 0.20058315E-05 0.44618385E+02 0.75467711E-02 0.90927527E-01
        2 -1    0    0  501    0 0.00000000E+00 0.00000000E+00 0.26796614E+04 0.26796614E+04 0.32000000E+00 0.0000E+00 0.9000E+01
       -1 -1    0    0    0  503 0.00000000E+00 0.00000000E+00 -.23861413E+03 0.23861435E+03 0.32000000E+00 0.0000E+00 0.9000E+01
       24  2    1    2    0    0 0.46966302E+03 -.50165403E+03 0.18811979E+04 0.20043176E+04 0.78379975E+02 0.0000E+00 0.0000E+00
       25  1    1    2    0    0 -.44499007E+03 0.51112423E+03 0.55927695E+03 0.88751330E+03 0.12500000E+03 0.0000E+00 0.9000E+01
        2  1    3    3  502    0 0.32091698E+03 -.30947506E+03 0.13014978E+04 0.13757395E+04 0.32000000E+00 0.0000E+00 0.9000E+01
       -1  1    3    3    0  502 0.14874604E+03 -.19217897E+03 0.57970006E+03 0.62857808E+03 0.32000000E+00 0.0000E+00 0.9000E+01
       21  1    1    2  501  503 -.24672958E+02 -.94702035E+01 0.57240301E+00 0.26444844E+02 0.75000000E+00 0.0000E+00 0.9000E+01
#aMCatNLO 2  0  0  2  1 0.19469912D+02 0.00000000D+00  -5  6  0 0.00000000D+00 0.00000000D+00 0.00000000D+00 0.00000000D+00 0.00000000D+00
  <mgrwgt>
 0.1115294049D-01    1    2    0
 0.775575596995460D+03 0.000000000000000D+00 0.000000000000000D+00 0.775575596995460D+03
 0.775575596995460D+03 0.000000000000000D+00 0.000000000000000D+00 -.775575596995460D+03
 0.778631901111637D+03 -.457341894567403D+03 0.506383240823178D+03 -.353634051408566D+03
 0.513910412290756D+03 0.312721100192600D+03 -.312623932331291D+03 0.261869628420145D+03
 0.258608880588527D+03 0.144620794374803D+03 -.193759308491887D+03 0.917644229884206D+02
 0.000000000000000D+00 -.000000000000000D+00 -.000000000000000D+00 -.000000000000000D+00
 0.779615449910967D+03 0.000000000000000D+00 0.000000000000000D+00 0.779615449910967D+03
 0.820148780473315D+03 0.000000000000000D+00 0.000000000000000D+00 -.820148780473315D+03
 0.774561930517886D+03 -.444990066566622D+03 0.511124233967624D+03 -.353634051408566D+03
 0.517050553375126D+03 0.320919853151891D+03 -.309477010954913D+03 0.261869628420145D+03
 0.259763829652162D+03 0.148743171393564D+03 -.192177019523522D+03 0.917644229884206D+02
 0.483879168391091D+02 -.246729579788333D+02 -.947020348918897D+01 -.405333305623485D+02
0.369794992939D-02 0.000000000000D+00 0.000000000000D+00 0.515485215517D-04 0.450392136458D-06  6 2 -1 25 2 -1 21 2 0.41225408D+00 0.36709748D-01 0.49308263D+06 0.49308263D+06 0.49308263D+06 0.10689383D+01  1  2  1  2  6  2       -1 0.111529404867D-01 0.100000000000D+01
  </mgrwgt>
  </event>
  <event>
  7     66 0.20058315E-05 0.27998931E+02 0.75467711E-02 0.88834305E-01
        2 -1    0    0  501    0 0.00000000E+00 0.00000000E+00 0.13356307E+04 0.13356308E+04 0.32000000E+00 0.0000E+00 0.9000E+01
       -1 -1    0    0    0  503 0.00000000E+00 0.00000000E+00 -.62433524E+03 0.62433532E+03 0.32000000E+00 0.0000E+00 0.9000E+01
       24  2    1    2    0    0 -.82924243E+03 -.21462690E+03 0.53586593E+03 0.10135816E+04 0.80546226E+02 0.0000E+00 0.0000E+00
       25  1    1    2    0    0 0.79529149E+03 0.21274424E+03 0.24581207E+03 0.86821497E+03 0.12500000E+03 0.0000E+00 0.9000E+01
        2  1    3    3  502    0 -.19379005E+03 -.64801952E+02 0.91887893E+02 0.22404768E+03 0.32000000E+00 0.0000E+00 0.9000E+01
       -1  1    3    3    0  502 -.63545238E+03 -.14982495E+03 0.44397804E+03 0.78953394E+03 0.32000000E+00 0.0000E+00 0.9000E+01
       21  1    1    2  501  503 0.33950946E+02 0.18826622E+01 -.70382505E+02 0.78169500E+02 0.75000000E+00 0.0000E+00 0.9000E+01
#aMCatNLO 2  0  0  2  1 0.20496833D+02 0.00000000D+00  -5  6  0 0.00000000D+00 0.00000000D+00 0.00000000D+00 0.00000000D+00 0.00000000D+00
  <mgrwgt>
 0.3554974228D-02    1    2    0
 0.855713403930772D+03 0.000000000000000D+00 0.000000000000000D+00 0.855713403930772D+03
 0.855713403930772D+03 0.000000000000000D+00 0.000000000000000D+00 -.855713403930772D+03
 0.858382903291673D+03 0.812157793684218D+03 0.213679518965664D+03 -.126241791796641D+03
 0.200459553097730D+03 -.189768361272661D+03 -.645779841153117D+02 -.129825098994633D+01
 0.652584351472141D+03 -.622389432411557D+03 -.149101534850352D+03 0.127540042786587D+03
 0.000000000000000D+00 0.000000000000000D+00 0.000000000000000D+00 -.000000000000000D+00
 0.858383372187456D+03 0.000000000000000D+00 0.000000000000000D+00 0.858383372187456D+03
 0.971453050099951D+03 0.000000000000000D+00 0.000000000000000D+00 -.971453050099951D+03
 0.842205824749181D+03 0.795291486815685D+03 0.212744241388382D+03 -.126241791796641D+03
 0.204334741196719D+03 -.193783079630854D+03 -.648006099745937D+02 -.129825098994633D+01
 0.665224000173757D+03 -.635459353249137D+03 -.149826293624844D+03 0.127540042786587D+03
 0.118071856167751D+03 0.339509460643064D+02 0.188266221105582D+01 -.113069677912496D+03
0.137209670976D-02 0.000000000000D+00 0.000000000000D+00 0.163598387767D-03 0.848394521065D-06  6 2 -1 25 2 -1 21 2 0.20548138D+00 0.96051452D-01 0.74296432D+06 0.74296432D+06 0.74296432D+06 0.10565627D+01  1  2  1  2  6  2       -1 0.355497422760D-02 0.100000000000D+01
  </mgrwgt>
  </event>
  <event>
  7     66 0.20058315E-05 0.64279052E+02 0.75467711E-02 0.93623677E-01
        2 -1    0    0  501    0 0.00000000E+00 0.00000000E+00 0.15514462E+04 0.15514462E+04 0.32000000E+00 0.0000E+00 0.9000E+01
       -1 -1    0    0    0  503 0.00000000E+00 0.00000000E+00 -.22095708E+03 0.22095731E+03 0.32000000E+00 0.0000E+00 0.9000E+01
       24  2    1    2    0    0 0.53287109E+03 -.49644895E+02 0.35129799E+03 0.64517543E+03 0.80155093E+02 0.0000E+00 0.0000E+00
       25  1    1    2    0    0 -.52253494E+03 0.40608578E+02 0.97283301E+03 0.11120795E+04 0.12500000E+03 0.0000E+00 0.9000E+01
        2  1    3    3  502    0 0.30326248E+03 0.10802770E+02 0.20700262E+03 0.36733502E+03 0.32000000E+00 0.0000E+00 0.9000E+01
       -1  1    3    3    0  502 0.22960862E+03 -.60447665E+02 0.14429537E+03 0.27784041E+03 0.32000000E+00 0.0000E+00 0.9000E+01
       21  1    1    2  501  503 -.10336154E+02 0.90363175E+01 0.63581000E+01 0.15148566E+02 0.75000000E+00 0.0000E+00 0.9000E+01
#aMCatNLO 2  0  0  2  1 0.20496833D+02 0.00000000D+00  -5  6  0 0.00000000D+00 0.00000000D+00 0.00000000D+00 0.00000000D+00 0.00000000D+00
  <mgrwgt>
 0.1755677930D-01    1    2    0
 0.577588436861524D+03 0.000000000000000D+00 0.000000000000000D+00 0.577588436861524D+03
 0.577588436861524D+03 0.000000000000000D+00 0.000000000000000D+00 -.577588436861524D+03
 0.581570580728193D+03 -.527715945224192D+03 0.451380379006128D+02 0.205128689020205D+03
 0.318883579146867D+03 0.300398825304666D+03 0.133084633082800D+02 -.106161045630990D+03
 0.254722713847989D+03 0.227317119919526D+03 -.584465012088928D+02 -.989676433892156D+02
 0.000000000000000D+00 -.000000000000000D+00 0.000000000000000D+00 -.000000000000000D+00
 0.581651915402317D+03 0.000000000000000D+00 0.000000000000000D+00 0.581651915402317D+03
 0.589343481836581D+03 0.000000000000000D+00 0.000000000000000D+00 -.589343481836581D+03
 0.576536729036342D+03 -.522534940746805D+03 0.406085775115300D+02 0.205128689020205D+03
 0.321489867834503D+03 0.303263652828020D+03 0.108039059690191D+02 -.106161045630990D+03
 0.257231859364167D+03 0.229607442166581D+03 -.604488009446968D+02 -.989676433892156D+02
 0.157369410038863D+02 -.103361542477966D+02 0.903631746414765D+01 -.769156643426386D+01
0.112272076085D-02 0.000000000000D+00 0.000000000000D+00 0.247430975291D-03 0.823842734024D-05  6 2 -1 25 2 -1 21 2 0.23868040D+00 0.33992897D-01 0.29889572D+06 0.29889572D+06 0.29889572D+06 0.10846704D+01  1  2  1  2  6  2       -1 0.175567793034D-01 0.100000000000D+01
  </mgrwgt>
  </event>
  <event>
  7     66 0.20058315E-05 0.33954029E+02 0.75467711E-02 0.95242758E-01
        2 -1    0    0  501    0 0.00000000E+00 0.00000000E+00 0.10433841E+04 0.10433842E+04 0.32000000E+00 0.0000E+00 0.9000E+01
       -1 -1    0    0    0  503 0.00000000E+00 0.00000000E+00 -.59680129E+03 0.59680137E+03 0.32000000E+00 0.0000E+00 0.9000E+01
       24  2    1    2    0    0 0.41419097E+03 0.32836340E+02 0.59993551E+03 0.73423915E+03 0.80945273E+02 0.0000E+00 0.0000E+00
       25  1    1    2    0    0 -.45504076E+03 -.63299575E+02 0.22328225E+03 0.52587916E+03 0.12500000E+03 0.0000E+00 0.9000E+01
        2  1    3    3  502    0 0.35396412E+03 0.50462021E+02 0.53872063E+03 0.64657330E+03 0.32000000E+00 0.0000E+00 0.9000E+01
       -1  1    3    3    0  502 0.60226849E+02 -.17625681E+02 0.61214873E+02 0.87665849E+02 0.32000000E+00 0.0000E+00 0.9000E+01
       21  1    1    2  501  503 0.40849788E+02 0.30463234E+02 -.37663489E+03 0.38006726E+03 0.75000000E+00 0.0000E+00 0.9000E+01
#aMCatNLO 2  0  0  2  1 0.20496833D+02 0.00000000D+00  -5  6  0 0.00000000D+00 0.00000000D+00 0.00000000D+00 0.00000000D+00 0.00000000D+00
  <mgrwgt>
 0.8367781168D-02    1    2    0
 0.476343885347693D+03 0.000000000000000D+00 0.000000000000000D+00 0.476343885347693D+03
 0.476343885347693D+03 0.000000000000000D+00 0.000000000000000D+00 -.476343885347693D+03
 0.481105604286533D+03 -.433980422580308D+03 -.475940820544127D+02 -.158850239679784D+03
 0.406509002963575D+03 0.371015094416457D+03 0.631752164128018D+02 0.153643292195861D+03
 0.650731634452784D+02 0.629653281638506D+02 -.155811343583891D+02 0.520694748392309D+01
 0.000000000000000D+00 0.000000000000000D+00 0.000000000000000D+00 -.000000000000000D+00
 0.477810560406912D+03 0.000000000000000D+00 0.000000000000000D+00 0.477810560406912D+03
 0.130322082191551D+04 0.000000000000000D+00 0.000000000000000D+00 -.130322082191551D+04
 0.501923629135597D+03 -.455040761584441D+03 -.632995745244406D+02 -.158850239679784D+03
 0.389161451426909D+03 0.353968714781641D+03 0.504630854759110D+02 0.153643292195861D+03
 0.629645524694397D+02 0.602222584658196D+02 -.176267453278389D+02 0.520694748392309D+01
 0.826981749290475D+03 0.408497883369806D+02 0.304632343763685D+02 -.825410261508596D+03
0.173198017683D-02 0.000000000000D+00 0.000000000000D+00 0.136981594768D-03 0.522570271780D-06  6 2 -1 25 2 -1 21 2 0.16052059D+00 0.91815561D-01 0.22438147D+06 0.22438147D+06 0.22438147D+06 0.10940090D+01  1  2  1  2  6  2       -1 0.836778116775D-02 0.100000000000D+01
  </mgrwgt>
  </event>
  <event>
  7     66 0.20058315E-05 0.53915371E+02 0.75467711E-02 0.87904197E-01
        2 -1    0    0  501    0 0.00000000E+00 0.00000000E+00 0.11838852E+04 0.11838852E+04 0.32000000E+00 0.0000E+00 0.9000E+01
       -1 -1    0    0    0  503 0.00000000E+00 0.00000000E+00 -.80565229E+03 0.80565235E+03 0.32000000E+00 0.0000E+00 0.9000E+01
       24  2    1    2    0    0 -.18394857E+03 0.91982844E+03 0.25700484E+03 0.97590922E+03 0.80161645E+02 0.0000E+00 0.0000E+00
       25  1    1    2    0    0 0.20007501E+03 -.88950335E+03 0.18733251E+03 0.93912975E+03 0.12500000E+03 0.0000E+00 0.9000E+01
        2  1    3    3  502    0 -.10832947E+03 0.39926856E+03 0.83819634E+02 0.42210957E+03 0.32000000E+00 0.0000E+00 0.9000E+01
       -1  1    3    3    0  502 -.75619103E+02 0.52055988E+03 0.17318520E+03 0.55379965E+03 0.32000000E+00 0.0000E+00 0.9000E+01
       21  1    1    2  501  503 -.16126441E+02 -.30325088E+02 -.66104479E+02 0.74498575E+02 0.75000000E+00 0.0000E+00 0.9000E+01
#aMCatNLO 2  0  0  2  1 0.20496833D+02 0.00000000D+00  -5  6  0 0.00000000D+00 0.00000000D+00 0.00000000D+00 0.00000000D+00 0.00000000D+00
  <mgrwgt>
 0.3754541207D-02    1    2    0
 0.931230225270867D+03 0.000000000000000D+00 0.000000000000000D+00 0.931230225270867D+03
 0.931230225270867D+03 0.000000000000000D+00 0.000000000000000D+00 -.931230225270867D+03
 0.933699837642399D+03 0.192046967987455D+03 -.904599744006236D+03 -.314269318279562D+02
 0.408463909805872D+03 -.111890219710069D+03 0.392571757607687D+03 -.145175575061266D+02
 0.520296703093462D+03 -.801567482773855D+02 0.512027986398549D+03 0.459444893340828D+02
 0.000000000000000D+00 -.000000000000000D+00 -.000000000000000D+00 -.000000000000000D+00
 0.934700700394690D+03 0.000000000000000D+00 0.000000000000000D+00 0.934700700394690D+03
 0.102043016943379D+04 0.000000000000000D+00 0.000000000000000D+00 -.102043016943379D+04
 0.920792526045556D+03 0.200075009345001D+03 -.889503352783357D+03 -.314269318279562D+02
 0.413956499197227D+03 -.108329986631709D+03 0.399266624886245D+03 -.145175575061266D+02
 0.528028095852355D+03 -.756185819269227D+02 0.520561815711310D+03 0.459444893340828D+02
 0.923537487333387D+02 -.161264407863694D+02 -.303250878141980D+02 -.857294690390974D+02
0.221248215847D-02 0.000000000000D+00 0.000000000000D+00 0.235688963656D-03 0.118150193260D-05  6 2 -1 25 2 -1 21 2 0.18213589D+00 0.12394631D+00 0.89712129D+06 0.89712129D+06 0.89712129D+06 0.10510170D+01  1  2  1  2  6  2       -1 0.375454120652D-02 0.100000000000D+01
  </mgrwgt>
  </event>
  <event>
  6     66 0.20058315E-05 0.79831974E+02 0.75467711E-02 0.93348109E-01
        2 -1    0    0  501    0 0.00000000E+00 0.00000000E+00 0.88787684E+03 0.88787690E+03 0.32000000E+00 0.0000E+00 0.9000E+01
       -1 -1    0    0    0  501 0.00000000E+00 0.00000000E+00 -.40529159E+03 0.40529172E+03 0.32000000E+00 0.0000E+00 0.9000E+01
       25  1    1    2    0    0 0.15632080E+03 0.52648962E+03 0.16054019E+02 0.56348048E+03 0.12500000E+03 0.0000E+00 0.9000E+01
        2  1    1    2  503    0 -.48465733E+02 -.29065018E+03 0.28209394E+03 0.40792591E+03 0.32000000E+00 0.0000E+00 0.9000E+01
       -1  1    1    2    0  502 -.94768820E+02 -.22995632E+03 0.16917402E+03 0.30080058E+03 0.32000000E+00 0.0000E+00 0.9000E+01
       21  1    1    2  502  503 -.13086247E+02 -.58831247E+01 0.15263269E+02 0.20961653E+02 0.75000000E+00 0.0000E+00 0.9000E+01
#aMCatNLO 2  0  0  4  5 0.51996688D+01 0.00000000D+00  -5  6  0 0.00000000D+00 0.00000000D+00 0.00000000D+00 0.00000000D+00 0.00000000D+00
  <mgrwgt>
 0.5275691092D-02    1    2    0
 0.599874270037891D+03 0.000000000000000D+00 0.000000000000000D+00 0.599874270037891D+03
 0.599874270037891D+03 -.000000000000000D+00 -.000000000000000D+00 -.599874270037891D+03
 0.603632458269934D+03 0.156834625096430D+03 0.528965032470848D+03 -.210584993461025D+03
 0.341051742093053D+03 -.622684501981151D+02 -.300024247634869D+03 0.149747726946895D+03
 0.255064339712795D+03 -.945661748983153D+02 -.228940784835979D+03 0.608372665141298D+02
 0.000000000000000D+00 0.000000000000000D+00 0.000000000000000D+00 0.000000000000000D+00
 0.599874270037891D+03 0.000000000000000D+00 0.000000000000000D+00 0.599874270037891D+03
 0.599874270037891D+03 -.000000000000000D+00 -.000000000000000D+00 -.599874270037891D+03
 0.600893586612159D+03 0.156319829100262D+03 0.526484622553072D+03 -.209346974367529D+03
 0.326194932260803D+03 -.484282948046248D+02 -.290633025964405D+03 0.139965275385432D+03
 0.256215920060354D+03 -.947846882561373D+02 -.229993634321877D+03 0.613627634317065D+02
 0.164441011424644D+02 -.131068460394996D+02 -.585796226679029D+01 0.801893555039048D+01
0.413007735644D-03 0.000000000000D+00 0.000000000000D+00 0.179550416880D-03 0.580708263442D-06  6 2 -1 25 2 -1 21 2 0.13659645D+00 0.62352567D-01 0.31416177D+06 0.31416177D+06 0.31416177D+06 0.10830729D+01  1  2  1  3  6  4        2 0.527569109242D-02 0.100000000000D+01
  </mgrwgt>
  </event>
  <event>
  7     66 0.20058315E-05 0.24395165E+02 0.75467711E-02 0.94305634E-01
        2 -1    0    0  501    0 0.00000000E+00 0.00000000E+00 0.10887554E+04 0.10887555E+04 0.32000000E+00 0.0000E+00 0.9000E+01
       -1 -1    0    0    0  503 0.00000000E+00 0.00000000E+00 -.68546762E+03 0.68546769E+03 0.32000000E+00 0.0000E+00 0.9000E+01
       24  2    1    2    0    0 0.44310391E+03 -.12783281E+03 0.26053987E+01 0.46853787E+03 0.82696059E+02 0.0000E+00 0.0000E+00
       25  1    1    2    0    0 -.47235176E+03 0.16251025E+03 0.77399058E+03 0.92963013E+03 0.12500000E+03 0.0000E+00 0.9000E+01
        2  1    3    3  502    0 0.36683852E+03 -.71818389E+02 -.18397742E+01 0.37380727E+03 0.32000000E+00 0.0000E+00 0.9000E+01
       -1  1    3    3    0  502 0.76265389E+02 -.56014420E+02 0.44451729E+01 0.94730601E+02 0.32000000E+00 0.0000E+00 0.9000E+01
       21  1    1    2  501  503 0.29247842E+02 -.34677445E+02 -.37330815E+03 0.37605518E+03 0.75000000E+00 0.0000E+00 0.9000E+01
#aMCatNLO 2  0  0  2  1 0.10411654D+03 0.00000000D+00  -5  6  0 0.00000000D+00 0.00000000D+00 0.00000000D+00 0.00000000D+00 0.00000000D+00
  <mgrwgt>
 0.4276700915D-02    1    2    0
 0.580886062879895D+03 0.000000000000000D+00 0.000000000000000D+00 0.580886062879895D+03
 0.580886062879895D+03 0.000000000000000D+00 0.000000000000000D+00 -.580886062879895D+03
 0.584667510968988D+03 -.457433340597055D+03 0.144822366569712D+03 0.309826272988652D+03
 0.462483019486844D+03 0.378334039533569D+03 -.854430228964255D+02 -.251899558717759D+03
 0.114621595303957D+03 0.790993010634863D+02 -.593793436732869D+02 -.579267142708927D+02
 0.000000000000000D+00 0.000000000000000D+00 -.000000000000000D+00 -.000000000000000D+00
 0.582062843009799D+03 0.000000000000000D+00 0.000000000000000D+00 0.582062843009799D+03
 0.128217459818583D+04 0.000000000000000D+00 0.000000000000000D+00 -.128217459818583D+04
 0.600951814715940D+03 -.472351756252445D+03 0.162510253650574D+03 0.309826272988652D+03
 0.450760466594933D+03 0.366842875696412D+03 -.718186265077991D+02 -.251899558717759D+03
 0.110945206361987D+03 0.762610381974812D+02 -.560141825034033D+02 -.579267142708927D+02
 0.701579953522766D+03 0.292478423585524D+02 -.346774446393721D+02 -.700111755176028D+03
0.130560468088D-02 0.000000000000D+00 0.000000000000D+00 0.206311047367D-04 0.822192881300D-07  6 2 -1 25 2 -1 21 2 0.16750079D+00 0.10545653D+00 0.26456706D+06 0.26456706D+06 0.26456706D+06 0.10886136D+01  1  2  1  2  6  2       -1 0.427670091516D-02 0.100000000000D+01
  </mgrwgt>
  </event>
  <event>
  7     66 0.20058315E-05 0.59398873E+02 0.75467711E-02 0.95025908E-01
        2 -1    0    0  501    0 0.00000000E+00 0.00000000E+00 0.65819389E+03 0.65819397E+03 0.32000000E+00 0.0000E+00 0.9000E+01
       -1 -1    0    0    0  503 0.00000000E+00 0.00000000E+00 -.36263768E+03 0.36263782E+03 0.32000000E+00 0.0000E+00 0.9000E+01
       24  2    1    2    0    0 -.34799283E+02 -.47033502E+03 0.20547500E+03 0.52020306E+03 0.77234870E+02 0.0000E+00 0.0000E+00
       25  1    1    2    0    0 0.26996150E+02 0.46379987E+03 0.93000671E+02 0.49001351E+03 0.12500000E+03 0.0000E+00 0.9000E+01
        2  1    3    3  502    0 -.44672511E+02 -.27560674E+03 0.88818071E+02 0.29299055E+03 0.32000000E+00 0.0000E+00 0.9000E+01
       -1  1    3    3    0  502 0.98732283E+01 -.19472828E+03 0.11665693E+03 0.22721251E+03 0.32000000E+00 0.0000E+00 0.9000E+01
       21  1    1    2  501  503 0.78031327E+01 0.65351477E+01 -.29194648E+01 0.10615216E+02 0.75000000E+00 0.0000E+00 0.9000E+01
#aMCatNLO 2  0  0  2  1 0.59999718D+01 0.00000000D+00  -5  6  0 0.00000000D+00 0.00000000D+00 0.00000000D+00 0.00000000D+00 0.00000000D+00
  <mgrwgt>
 0.1287260555D-01    1    2    0
 0.482531397830616D+03 0.000000000000000D+00 0.000000000000000D+00 0.482531397830616D+03
 0.482531397830616D+03 0.000000000000000D+00 0.000000000000000D+00 -.482531397830616D+03
 0.487536136881315D+03 0.309243848789134D+02 0.467089783835398D+03 -.541968728029386D+02
 0.277003141260349D+03 -.424248243534858D+02 -.273724902663995D+03 0.235631242902239D+01
 0.200523517519568D+03 0.115004394745724D+02 -.193364881171403D+03 0.518405603739163D+02
 0.000000000000000D+00 0.000000000000000D+00 0.000000000000000D+00 -.000000000000000D+00
 0.485384232206563D+03 0.000000000000000D+00 0.000000000000000D+00 0.485384232206563D+03
 0.491722874702861D+03 0.000000000000000D+00 0.000000000000000D+00 -.491722874702861D+03
 0.484150201082233D+03 0.269961500563787D+02 0.463799875019908D+03 -.541968728029386D+02
 0.279215169947511D+03 -.446734472409881D+02 -.275608131288177D+03 0.235631242902239D+01
 0.201751096866602D+03 0.987416452687142D+01 -.194726891470828D+03 0.518405603739163D+02
 0.119906390130778D+02 0.780313265773797D+01 0.653514773909655D+01 -.633864249629740D+01
0.545422030917D-03 0.000000000000D+00 0.000000000000D+00 0.203999504520D-04 0.125431569271D-05  6 2 -1 25 2 -1 21 2 0.10125818D+00 0.55789087D-01 0.23303199D+06 0.23303199D+06 0.23303199D+06 0.10927629D+01  1  2  1  2  6  2       -1 0.128726055475D-01 0.100000000000D+01
  </mgrwgt>
  </event>
  <event>
  7     66 0.20058315E-05 0.67542113E+02 0.75467711E-02 0.95322735E-01
        2 -1    0    0  501    0 0.00000000E+00 0.00000000E+00 0.22524319E+04 0.22524319E+04 0.32000000E+00 0.0000E+00 0.9000E+01
       21 -1    0    0  503  501 0.00000000E+00 0.00000000E+00 -.11157581E+03 0.11157833E+03 0.75000000E+00 0.0000E+00 0.9000E+01
       24  2    1    2    0    0 -.65110534E+01 0.44887672E+03 0.75149938E+03 0.87906817E+03 0.80478719E+02 0.0000E+00 0.0000E+00
       25  1    1    2    0    0 -.92646869E+01 -.45339182E+03 0.13910593E+04 0.14684417E+04 0.12500000E+03 0.0000E+00 0.9000E+01
        2  1    3    3  502    0 -.37260431E+02 0.23834875E+03 0.44090448E+03 0.50258863E+03 0.32000000E+00 0.0000E+00 0.9000E+01
        1  1    1    2  503    0 0.15775740E+02 0.45151005E+01 -.17026613E+01 0.16500351E+02 0.32000000E+00 0.0000E+00 0.9000E+01
       -1  1    3    3    0  502 0.30749378E+02 0.21052797E+03 0.31059490E+03 0.37647954E+03 0.32000000E+00 0.0000E+00 0.9000E+01
#aMCatNLO 2  0  0  2  1 0.59999718D+01 0.00000000D+00  -5  6  0 0.00000000D+00 0.00000000D+00 0.00000000D+00 0.00000000D+00 0.00000000D+00
  <mgrwgt>
 0.4730725807D-02    1    2    0
 0.479576767323043D+03 0.000000000000000D+00 0.000000000000000D+00 0.479576767323043D+03
 0.479576767323043D+03 0.000000000000000D+00 0.000000000000000D+00 -.479576767323043D+03
 0.484345647144503D+03 -.128074492945385D+01 -.451106770291257D+03 0.124365378613359D+03
 0.245692298976783D+03 -.332252436321646D+02 0.239504386313123D+03 -.435710672218893D+02
 0.000000000000000D+00 0.000000000000000D+00 0.000000000000000D+00 -.000000000000000D+00
 0.229115588524801D+03 0.345059885616184D+02 0.211602383978134D+03 -.807943113914698D+02
 0.481227114100918D+03 0.000000000000000D+00 0.000000000000000D+00 0.481227114100918D+03
 0.522246803126541D+03 0.000000000000000D+00 0.000000000000000D+00 -.522246803126541D+03
 0.486561117805122D+03 -.926468694110423D+01 -.453391816796475D+03 0.124365378613359D+03
 0.245147287312263D+03 -.372615063665761D+02 0.238349186533120D+03 -.435710672218893D+02
 0.441800294443527D+02 0.157757402935281D+02 0.451510045693707D+01 -.410196890256227D+02
 0.227585482665722D+03 0.307504530141522D+02 0.210527529806418D+03 -.807943113914698D+02
0.186611383415D-04 0.000000000000D+00 0.000000000000D+00 0.318826218324D-03 0.107466995075D-06  6 2 21 25 2 1 -1 2 0.34652776D+00 0.17165685D-01 0.22128251D+06 0.22128251D+06 0.22128251D+06 0.10944683D+01  1  2  1  6  5  2       -1 0.473072580710D-02 0.100000000000D+01
  </mgrwgt>
  </event>
  <event>
  7     66 0.20058315E-05 0.23443055E+02 0.75467711E-02 0.93690926E-01
        2 -1    0    0  503    0 0.00000000E+00 0.00000000E+00 0.11429429E+04 0.11429429E+04 0.32000000E+00 0.0000E+00 0.9000E+01
       -1 -1    0    0    0  501 0.00000000E+00 0.00000000E+00 -.37488468E+03 0.37488481E+03 0.32000000E+00 0.0000E+00 0.9000E+01
       24  2    1    2    0    0 -.51235149E+03 0.38581776E+01 0.38452746E+03 0.64490238E+03 0.74288536E+02 0.0000E+00 0.0000E+00
       25  1    1    2    0    0 0.51805772E+03 -.43168029E+02 0.49962532E+02 0.53699956E+03 0.12500000E+03 0.0000E+00 0.9000E+01
        2  1    3    3  502    0 -.42895658E+03 0.63056285E+01 0.35351861E+03 0.55589479E+03 0.32000000E+00 0.0000E+00 0.9000E+01
       -1  1    3    3    0  502 -.83394910E+02 -.24474509E+01 0.31008850E+02 0.89007596E+02 0.32000000E+00 0.0000E+00 0.9000E+01
       21  1    1    2  503  501 -.57062296E+01 0.39309851E+02 0.33356819E+03 0.33592577E+03 0.75000000E+00 0.0000E+00 0.9000E+01
#aMCatNLO 2  0  0  1  2 0.22619627D+01 0.00000000D+00  -5  6  0 0.00000000D+00 0.00000000D+00 0.00000000D+00 0.00000000D+00 0.00000000D+00
  <mgrwgt>
 0.7302746972D-02    1    2    0
 0.549211441286558D+03 0.000000000000000D+00 0.000000000000000D+00 0.549211441286558D+03
 0.549211441286558D+03 0.000000000000000D+00 0.000000000000000D+00 -.549211441286558D+03
 0.553811770394543D+03 0.515171588718673D+03 -.232856888637655D+02 -.158551215380886D+03
 0.460766176898269D+03 -.431348703820200D+03 0.227408364939499D+02 0.160395198935742D+03
 0.838449352803030D+02 -.838228848984734D+02 0.544852369815546D+00 -.184398355485666D+01
 0.000000000000000D+00 -.000000000000000D+00 0.000000000000000D+00 0.000000000000000D+00
 0.777196350932365D+03 0.000000000000000D+00 0.000000000000000D+00 0.777196350932365D+03
 0.551303350503511D+03 0.000000000000000D+00 0.000000000000000D+00 -.551303350503511D+03
 0.557683389289026D+03 0.518057715028837D+03 -.431680285540155D+02 -.158551215380886D+03
 0.458012693813486D+03 -.428962987743183D+03 0.630579091721888D+01 0.160395198935742D+03
 0.834447879403012D+02 -.833884976972332D+02 -.244761329661783D+01 -.184398355485666D+01
 0.229358830393063D+03 -.570622958842055D+01 0.393098509334145D+02 0.225893000428855D+03
0.705769186311D-03 0.000000000000D+00 0.000000000000D+00 0.611544020895D-05 0.258119324315D-07  6 2 -1 25 2 -1 21 2 0.17583718D+00 0.57674516D-01 0.29529760D+06 0.29529760D+06 0.29529760D+06 0.10850599D+01  1  2  1  1  6  1        2 0.730274697174D-02 0.100000000000D+01
  </mgrwgt>
  </event>
  <event>
  7     66 0.20058315E-05 0.29785218E+02 0.75467711E-02 0.91753798E-01
        2 -1    0    0  501    0 0.00000000E+00 0.00000000E+00 0.67544205E+03 0.67544212E+03 0.32000000E+00 0.0000E+00 0.9000E+01
       21 -1    0    0  503  501 0.00000000E+00 0.00000000E+00 -.65949582E+03 0.65949624E+03 0.75000000E+00 0.0000E+00 0.9000E+01
       24  2    1    2    0    0 -.59312093E+03 -.15331950E+03 0.13118744E+03 0.63132392E+03 0.77848836E+02 0.0000E+00 0.0000E+00
       25  1    1    2    0    0 0.58617345E+03 0.20431953E+03 -.73752154E+02 0.63750307E+03 0.12500000E+03 0.0000E+00 0.9000E+01
        2  1    3    3  502    0 -.13590520E+03 -.52815370E+02 0.60604487E+02 0.15790089E+03 0.32000000E+00 0.0000E+00 0.9000E+01
        1  1    1    2  503    0 0.69474795E+01 -.51000031E+02 -.41489051E+02 0.66111379E+02 0.32000000E+00 0.0000E+00 0.9000E+01
       -1  1    3    3    0  502 -.45721573E+03 -.10050413E+03 0.70582950E+02 0.47342303E+03 0.32000000E+00 0.0000E+00 0.9000E+01
#aMCatNLO 2  0  0  2  1 0.59999718D+01 0.00000000D+00  -5  6  0 0.00000000D+00 0.00000000D+00 0.00000000D+00 0.00000000D+00 0.00000000D+00
  <mgrwgt>
 0.4770964410D-03    1    2    0
 0.633240445819649D+03 0.000000000000000D+00 0.000000000000000D+00 0.633240445819649D+03
 0.633240445819649D+03 0.000000000000000D+00 0.000000000000000D+00 -.633240445819649D+03
 0.637016483345385D+03 0.589678753958871D+03 0.178587818032253D+03 -.102714937734073D+03
 0.156820928485408D+03 -.135043996815820D+03 -.590966139403028D+02 0.535118001549643D+02
 0.000000000000000D+00 0.000000000000000D+00 -.000000000000000D+00 -.000000000000000D+00
 0.472643479808505D+03 -.454634757143050D+03 -.119491204091950D+03 0.492031375791088D+02
 0.645528759287654D+03 0.000000000000000D+00 0.000000000000000D+00 0.645528759287654D+03
 0.690056054288438D+03 0.000000000000000D+00 0.000000000000000D+00 -.690056054288438D+03
 0.641499137133674D+03 0.586173451831109D+03 0.204319526423531D+03 -.102714937734073D+03
 0.155311423233371D+03 -.135899769071628D+03 -.528145642529458D+02 0.535118001549643D+02
 0.680584353459858D+02 0.694747950870428D+01 -.510000308836483D+02 -.445272950007833D+02
 0.470715817863061D+03 -.457221162268185D+03 -.100504931286937D+03 0.492031375791088D+02
0.107835323383D-04 0.000000000000D+00 0.000000000000D+00 0.365991711357D-04 0.123217523145D-08  6 2 21 25 2 1 -1 2 0.10391414D+00 0.10146088D+00 0.42161157D+06 0.42161157D+06 0.42161157D+06 0.10737841D+01  1  2  1  6  5  2       -1 0.477096441008D-03 0.100000000000D+01
  </mgrwgt>
  </event>
  <event>
  7     66 0.20058315E-05 0.40476088E+02 0.75467711E-02 0.93690493E-01
        2 -1    0    0  501    0 0.00000000E+00 0.00000000E+00 0.20102954E+04 0.20102954E+04 0.32000000E+00 0.0000E+00 0.9000E+01
       21 -1    0    0  503  501 0.00000000E+00 0.00000000E+00 -.32116991E+03 0.32117079E+03 0.75000000E+00 0.0000E+00 0.9000E+01
       24  2    1    2    0    0 0.65092647E+02 0.51722147E+03 0.11769799E+04 0.12897225E+04 0.79671257E+02 0.0000E+00 0.0000E+00
       25  1    1    2    0    0 -.47117620E+02 -.52775133E+03 0.68086228E+03 0.87174536E+03 0.12500000E+03 0.0000E+00 0.9000E+01
        2  1    3    3  502    0 0.37656637E+02 0.36765634E+03 0.91483425E+03 0.98666661E+03 0.32000000E+00 0.0000E+00 0.9000E+01
        1  1    1    2  503    0 -.17975028E+02 0.10529860E+02 -.16871671E+03 0.16999827E+03 0.32000000E+00 0.0000E+00 0.9000E+01
       -1  1    3    3    0  502 0.27436010E+02 0.14956513E+03 0.26214563E+03 0.30305593E+03 0.32000000E+00 0.0000E+00 0.9000E+01
#aMCatNLO 2  0  0  2  1 0.59999718D+01 0.00000000D+00  -5  6  0 0.00000000D+00 0.00000000D+00 0.00000000D+00 0.00000000D+00 0.00000000D+00
  <mgrwgt>
 0.4402964803D-02    1    2    0
 0.552252670037061D+03 0.000000000000000D+00 0.000000000000000D+00 0.552252670037061D+03
 0.552252670037061D+03 0.000000000000000D+00 0.000000000000000D+00 -.552252670037061D+03
 0.556452509746745D+03 -.562065643719687D+02 -.522426977793416D+03 -.133885288955090D+03
 0.394954529990758D+03 0.312538738101139D+02 0.371410721972661D+03 0.130638247599349D+03
 0.000000000000000D+00 -.000000000000000D+00 0.000000000000000D+00 -.000000000000000D+00
 0.153098300336618D+03 0.249526905618548D+02 0.151016255820755D+03 0.324704135574046D+01
 0.552526966024325D+03 0.000000000000000D+00 0.000000000000000D+00 0.552526966024325D+03
 0.116853543148351D+04 0.000000000000000D+00 0.000000000000000D+00 -.116853543148351D+04
 0.560617341312150D+03 -.471176196191553D+02 -.527751326576011D+03 -.133885288955090D+03
 0.391992544942755D+03 0.376568024010868D+02 0.367659854740485D+03 0.130638247599349D+03
 0.616360616109178D+03 -.179750276632696D+02 0.105298600947504D+02 -.616008465459182D+03
 0.152091895143750D+03 0.274358448813380D+02 0.149561611740776D+03 0.324704135574046D+01
0.107152053286D-03 0.000000000000D+00 0.000000000000D+00 0.197959223725D-03 0.301086303591D-06  6 2 21 25 2 1 -1 2 0.30927626D+00 0.49410821D-01 0.29532065D+06 0.29532065D+06 0.29532065D+06 0.10850574D+01  1  2  1  6  5  2       -1 0.440296480259D-02 0.100000000000D+01
  </mgrwgt>
  </event>
  <event>
  7     66 0.20058315E-05 0.54201333E+03 0.75467711E-02 0.88005135E-01
        2 -1    0    0  501    0 0.00000000E+00 0.00000000E+00 0.17883633E+04 0.17883634E+04 0.32000000E+00 0.0000E+00 0.9000E+01
       -1 -1    0    0    0  503 0.00000000E+00 0.00000000E+00 -.50048351E+03 0.50048361E+03 0.32000000E+00 0.0000E+00 0.9000E+01
       24  2    1    2    0    0 0.30268335E+03 -.49618450E+03 0.38607535E+03 0.70244185E+03 0.80957437E+02 0.0000E+00 0.0000E+00
       25  1    1    2    0    0 0.25634090E+03 0.65233756E+03 0.60604701E+03 0.93497215E+03 0.12500000E+03 0.0000E+00 0.9000E+01
        2  1    3    3  502    0 0.16000668E+03 -.22549436E+03 0.14080086E+03 0.31028185E+03 0.32000000E+00 0.0000E+00 0.9000E+01
       -1  1    3    3    0  502 0.14267667E+03 -.27069014E+03 0.24527449E+03 0.39215999E+03 0.32000000E+00 0.0000E+00 0.9000E+01
       21  1    1    2  501  503 -.55902425E+03 -.15615306E+03 0.29575748E+03 0.65143299E+03 0.75000000E+00 0.0000E+00 0.9000E+01
#aMCatNLO 2  0  0  2  1 0.24713834D+01 0.00000000D+00  -5  6  0 0.00000000D+00 0.00000000D+00 0.00000000D+00 0.00000000D+00 0.00000000D+00
  <mgrwgt>
 0.2854857147D-03    1    2    0
 0.583079316545517D+03 0.000000000000000D+00 0.000000000000000D+00 0.583079316545517D+03
 0.583079316545517D+03 0.000000000000000D+00 0.000000000000000D+00 -.583079316545517D+03
 0.586968535891206D+03 -.381766141871132D+02 0.570069555282338D+03 0.497022172108236D+02
 0.269372835612268D+03 0.349765336752389D+02 -.260418585245666D+03 -.593340300039098D+02
 0.309817261587561D+03 0.320008051187431D+01 -.309650970036672D+03 0.963181279308624D+01
 0.000000000000000D+00 -.000000000000000D+00 -.000000000000000D+00 -.000000000000000D+00
 0.885919167696685D+03 0.000000000000000D+00 0.000000000000000D+00 0.885919167696685D+03
 0.101030217549445D+04 0.000000000000000D+00 0.000000000000000D+00 -.101030217549445D+04
 0.713687789198651D+03 0.256340896764140D+03 0.652337561927674D+03 0.497022172108236D+02
 0.282789922239136D+03 0.160006949431792D+03 -.225493656533934D+03 -.593340300039098D+02
 0.306141897031511D+03 0.142676400846982D+03 -.270690845692503D+03 0.963181279308624D+01
 0.593601734721836D+03 -.559024247042913D+03 -.156153059701238D+03 -.124383007797763D+03
0.125534088285D-03 0.000000000000D+00 0.000000000000D+00 0.169581423196D-03 0.384923165807D-08  6 2 -1 25 2 -1 21 2 0.27513276D+00 0.76997454D-01 0.87877920D+06 0.87877920D+06 0.87877920D+06 0.10516202D+01  1  2  1  2  6  2       -1 0.285485714667D-03 0.100000000000D+01
  </mgrwgt>
  </event>
  <event>
  7     66 0.20058315E-05 0.29232155E+02 0.75467711E-02 0.94004617E-01
        2 -1    0    0  501    0 0.00000000E+00 0.00000000E+00 0.85923371E+03 0.85923377E+03 0.32000000E+00 0.0000E+00 0.9000E+01
       -1 -1    0    0    0  503 0.00000000E+00 0.00000000E+00 -.50418526E+03 0.50418536E+03 0.32000000E+00 0.0000E+00 0.9000E+01
       24  2    1    2    0    0 -.15974129E+02 0.51644981E+03 -.13750478E+03 0.54077725E+03 0.80974597E+02 0.0000E+00 0.0000E+00
       25  1    1    2    0    0 0.35318779E+01 -.50062896E+03 0.55452891E+03 0.75747551E+03 0.12500000E+03 0.0000E+00 0.9000E+01
        2  1    3    3  502    0 -.27617596E+02 0.95062645E+02 -.59240268E+01 0.99170734E+02 0.32000000E+00 0.0000E+00 0.9000E+01
       -1  1    3    3    0  502 0.11643467E+02 0.42138717E+03 -.13158076E+03 0.44160652E+03 0.32000000E+00 0.0000E+00 0.9000E+01
       21  1    1    2  501  503 0.12442251E+02 -.15820858E+02 -.61975678E+02 0.65166374E+02 0.75000000E+00 0.0000E+00 0.9000E+01
#aMCatNLO 2  0  0  2  1 0.24713834D+01 0.00000000D+00  -5  6  0 0.00000000D+00 0.00000000D+00 0.00000000D+00 0.00000000D+00 0.00000000D+00
  <mgrwgt>
 0.3576968180D-02    1    2    0
 0.614643388699129D+03 0.000000000000000D+00 0.000000000000000D+00 0.614643388699129D+03
 0.614643388699129D+03 0.000000000000000D+00 0.000000000000000D+00 -.614643388699129D+03
 0.618331752876162D+03 0.975671543610437D+01 -.508544105139506D+03 0.328628751399913D+03
 0.105234886630843D+03 -.265456107965419D+02 0.936936926145119D+02 -.398898969151629D+02
 0.505720137891252D+03 0.167888953604375D+02 0.414850412524994D+03 -.288738854484750D+03
 0.000000000000000D+00 0.000000000000000D+00 -.000000000000000D+00 -.000000000000000D+00
 0.615867698357393D+03 0.000000000000000D+00 0.000000000000000D+00 0.615867698357393D+03
 0.703415493576307D+03 0.000000000000000D+00 0.000000000000000D+00 -.703415493576307D+03
 0.611770939263382D+03 0.353187786947844D+01 -.500628956133433D+03 0.328628751399913D+03
 0.106723506394206D+03 -.276182095119948D+02 0.950575480670701D+02 -.398898969151629D+02
 0.510957094766607D+03 0.116440804832549D+02 0.421392266175906D+03 -.288738854484750D+03
 0.898316515095060D+02 0.124422511592614D+02 -.158208581095432D+02 -.875477952189139D+02
0.406857707770D-03 0.000000000000D+00 0.000000000000D+00 0.123709517705D-03 0.194562562868D-05  6 2 -1 25 2 -1 21 2 0.13218948D+00 0.77566778D-01 0.27914280D+06 0.27914280D+06 0.27914280D+06 0.10868748D+01  1  2  1  2  6  2       -1 0.357696818032D-02 0.100000000000D+01
  </mgrwgt>
  </event>
  <event>
  7     66 0.20058315E-05 0.24546912E+03 0.75467711E-02 0.92817985E-01
        2 -1    0    0  503    0 0.00000000E+00 0.00000000E+00 0.11716285E+04 0.11716286E+04 0.32000000E+00 0.0000E+00 0.9000E+01
       -1 -1    0    0    0  501 0.00000000E+00 0.00000000E+00 -.52499090E+03 0.52499100E+03 0.32000000E+00 0.0000E+00 0.9000E+01
       24  2    1    2    0    0 -.21382508E+03 0.17242741E+03 -.37063630E+02 0.28778398E+03 0.77417894E+02 0.0000E+00 0.0000E+00
       25  1    1    2    0    0 0.44736117E+03 -.36889764E+03 -.68475826E+02 0.59710252E+03 0.12500000E+03 0.0000E+00 0.9000E+01
        2  1    3    3  502    0 -.14973023E+03 0.93627721E+02 0.77456296E+01 0.17676366E+03 0.32000000E+00 0.0000E+00 0.9000E+01
       -1  1    3    3    0  502 -.64094847E+02 0.78799690E+02 -.44809259E+02 0.11102033E+03 0.32000000E+00 0.0000E+00 0.9000E+01
       21  1    1    2  503  501 -.23353609E+03 0.19647022E+03 0.75217709E+03 0.81173308E+03 0.75000000E+00 0.0000E+00 0.9000E+01
#aMCatNLO 2  0  0  1  1 0.28679626D+01 0.00000000D+00  -5  6  0 0.00000000D+00 0.00000000D+00 0.00000000D+00 0.00000000D+00 0.00000000D+00
  <mgrwgt>
 0.3192282187D-02    1    2    0
 0.411930179116742D+03 0.000000000000000D+00 0.000000000000000D+00 0.411930179116742D+03
 0.411930179116742D+03 0.000000000000000D+00 0.000000000000000D+00 -.411930179116742D+03
 0.417775508188391D+03 0.308681705535410D+03 -.252228793512273D+03 0.275964366567709D+01
 0.255622440049481D+03 -.209347709869936D+03 0.143781986321535D+03 0.290363330759511D+02
 0.150462409995612D+03 -.993339956654749D+02 0.108446807190737D+03 -.317959767416282D+02
 0.000000000000000D+00 -.000000000000000D+00 0.000000000000000D+00 0.000000000000000D+00
 0.132079491967186D+04 0.000000000000000D+00 0.000000000000000D+00 0.132079491967186D+04
 0.465699892380471D+03 0.000000000000000D+00 0.000000000000000D+00 -.465699892380471D+03
 0.593169532289849D+03 0.447361165999985D+03 -.368897635610383D+03 0.275964366567709D+01
 0.178966162468189D+03 -.149731696626829D+03 0.936279749612470D+02 0.290363330759511D+02
 0.106434474179033D+03 -.640933842910755D+02 0.787994368439877D+02 -.317959767416282D+02
 0.907924643115259D+03 -.233536085082081D+03 0.196470223805148D+03 0.855095027291389D+03
0.629906273390D-03 0.000000000000D+00 0.000000000000D+00 0.391196471713D-04 0.437819509510D-08  6 2 -1 25 2 -1 21 2 0.18025050D+00 0.80767816D-01 0.34604991D+06 0.34604991D+06 0.34604991D+06 0.10799931D+01  1  2  1  1  6  1        2 0.319228218688D-02 0.100000000000D+01
  </mgrwgt>
  </event>
  <event>
  7     66 0.20058315E-05 0.36051670E+02 0.75467711E-02 0.86602302E-01
        2 -1    0    0  503    0 0.00000000E+00 0.00000000E+00 0.10237929E+04 0.10237929E+04 0.32000000E+00 0.0000E+00 0.9000E+01
       -1 -1    0    0    0  501 0.00000000E+00 0.00000000E+00 -.12236574E+04 0.12236574E+04 0.32000000E+00 0.0000E+00 0.9000E+01
       24  2    1    2    0    0 -.78956326E+03 -.73665119E+03 -.17712806E+03 0.10971752E+04 0.79711908E+02 0.0000E+00 0.0000E+00
       25  1    1    2    0    0 0.72898385E+03 0.70014361E+03 -.12482914E+03 0.10260730E+04 0.12500000E+03 0.0000E+00 0.9000E+01
        2  1    3    3  502    0 -.34103423E+03 -.31721141E+03 -.11646125E+03 0.48009452E+03 0.32000000E+00 0.0000E+00 0.9000E+01
       -1  1    3    3    0  502 -.44852904E+03 -.41943978E+03 -.60666815E+02 0.61708070E+03 0.32000000E+00 0.0000E+00 0.9000E+01
       21  1    1    2  503  501 0.60579412E+02 0.36507583E+02 0.10209275E+03 0.12420210E+03 0.75000000E+00 0.0000E+00 0.9000E+01
#aMCatNLO 2  0  0  1  1 0.28679626D+01 0.00000000D+00  -5  6  0 0.00000000D+00 0.00000000D+00 0.00000000D+00 0.00000000D+00 0.00000000D+00
  <mgrwgt>
 0.1770747805D-02    1    2    0
 0.105023833727194D+04 0.000000000000000D+00 0.000000000000000D+00 0.105023833727194D+04
 0.105023833727194D+04 0.000000000000000D+00 0.000000000000000D+00 -.105023833727194D+04
 0.105244522009305D+04 0.758841756199579D+03 0.718137178435705D+03 0.213101687709255D+02
 0.453205919733112D+03 -.327747930395084D+03 -.309203954185555D+03 -.486807407389375D+02
 0.594825534717732D+03 -.431093825804495D+03 -.408933224250149D+03 0.273705719680120D+02
 0.000000000000000D+00 0.000000000000000D+00 0.000000000000000D+00 0.000000000000000D+00
 0.118139822878858D+04 0.000000000000000D+00 0.000000000000000D+00 0.118139822878858D+04
 0.106041250116741D+04 0.000000000000000D+00 0.000000000000000D+00 -.106041250116741D+04
 0.101867445723004D+04 0.728983851335187D+03 0.700143607420922D+03 0.213101687709255D+02
 0.468289452747506D+03 -.341032494037522D+03 -.317209765054947D+03 -.486807407389375D+02
 0.614703268487995D+03 -.448530768890051D+03 -.419441425515968D+03 0.273705719680120D+02
 0.140143551490454D+03 0.605794115923861D+02 0.365075831499927D+02 0.120985727621171D+03
0.300264507533D-02 0.000000000000D+00 0.000000000000D+00 0.164162687634D-03 0.191519932105D-06  6 2 -1 25 2 -1 21 2 0.15750646D+00 0.18825481D+00 0.11761695D+07 0.11761695D+07 0.11761695D+07 0.10432050D+01  1  2  1  1  6  1        2 0.177074780487D-02 0.100000000000D+01
  </mgrwgt>
  </event>
  <event>
  7     66 0.20058315E-05 0.33903817E+02 0.75467711E-02 0.93901810E-01
        2 -1    0    0  501    0 0.00000000E+00 0.00000000E+00 0.25086252E+03 0.25086273E+03 0.32000000E+00 0.0000E+00 0.9000E+01
       -1 -1    0    0    0  503 0.00000000E+00 0.00000000E+00 -.12195781E+04 0.12195782E+04 0.32000000E+00 0.0000E+00 0.9000E+01
       24  2    1    2    0    0 0.17821582E+03 -.48706279E+03 -.30143226E+03 0.60569329E+03 0.83737218E+02 0.0000E+00 0.0000E+00
       25  1    1    2    0    0 -.16208355E+03 0.48449097E+03 -.61128306E+03 0.80640844E+03 0.12500000E+03 0.0000E+00 0.9000E+01
        2  1    3    3  502    0 0.17199358E+03 -.38232257E+03 -.25711095E+03 0.49179110E+03 0.32000000E+00 0.0000E+00 0.9000E+01
       -1  1    3    3    0  502 0.62222366E+01 -.10474022E+03 -.44321307E+02 0.11390220E+03 0.32000000E+00 0.0000E+00 0.9000E+01
       21  1    1    2  501  503 -.16132272E+02 0.25718137E+01 -.56000271E+02 0.58339157E+02 0.75000000E+00 0.0000E+00 0.9000E+01
#aMCatNLO 2  0  0  2  1 0.69718007D+01 0.00000000D+00  -5  6  0 0.00000000D+00 0.00000000D+00 0.00000000D+00 0.00000000D+00 0.00000000D+00
  <mgrwgt>
 0.2427571321D-02    1    2    0
 0.538682459745179D+03 0.000000000000000D+00 0.000000000000000D+00 0.538682459745179D+03
 0.538682459745179D+03 0.000000000000000D+00 0.000000000000000D+00 -.538682459745179D+03
 0.542679749118186D+03 -.170181781013863D+03 0.485781997707772D+03 -.118026786014755D+03
 0.423289215288103D+03 0.165632364748546D+03 -.381312128602787D+03 0.796287643219102D+02
 0.111395955084070D+03 0.454941626531663D+01 -.104469869104986D+03 0.383980216928445D+02
 0.000000000000000D+00 -.000000000000000D+00 0.000000000000000D+00 -.000000000000000D+00
 0.541262773540147D+03 0.000000000000000D+00 0.000000000000000D+00 0.541262773540147D+03
 0.565235929470907D+03 0.000000000000000D+00 0.000000000000000D+00 -.565235929470907D+03
 0.539034232004384D+03 -.162083549507042D+03 0.484490974152028D+03 -.118026786014755D+03
 0.426728265148258D+03 0.171996004732449D+03 -.382326622830640D+03 0.796287643219102D+02
 0.111726265744042D+03 0.621981660229568D+01 -.104736165046358D+03 0.383980216928445D+02
 0.290099401143701D+02 -.161322718277029D+02 0.257181372497067D+01 -.239731559307592D+02
0.643930375316D-03 0.000000000000D+00 0.000000000000D+00 0.123681635372D-04 0.292080626677D-06  6 2 -1 25 2 -1 21 2 0.38593909D-01 0.18762575D+00 0.28432549D+06 0.28432549D+06 0.28432549D+06 0.10862803D+01  1  2  1  2  6  2       -1 0.242757132081D-02 0.100000000000D+01
  </mgrwgt>
  </event>
  <event>
  6     66 0.20058315E-05 0.32270116E+02 0.75467711E-02 0.93996584E-01
        2 -1    0    0  501    0 0.00000000E+00 0.00000000E+00 0.72073413E+03 0.72073420E+03 0.32000000E+00 0.0000E+00 0.9000E+01
       -1 -1    0    0    0  501 0.00000000E+00 0.00000000E+00 -.43493994E+03 0.43494006E+03 0.32000000E+00 0.0000E+00 0.9000E+01
       25  1    1    2    0    0 -.50674941E+03 -.31035114E+02 0.32614977E+03 0.61624412E+03 0.12500000E+03 0.0000E+00 0.9000E+01
        2  1    1    2  503    0 0.38496242E+02 -.26515266E+02 0.95431318E+01 0.47709472E+02 0.32000000E+00 0.0000E+00 0.9000E+01
       -1  1    1    2    0  502 0.47632896E+03 0.57732108E+02 -.44283058E+02 0.48185409E+03 0.32000000E+00 0.0000E+00 0.9000E+01
       21  1    1    2  502  503 -.80757869E+01 -.18172801E+00 -.56156566E+01 0.98665829E+01 0.75000000E+00 0.0000E+00 0.9000E+01
#aMCatNLO 2  0  0  4  5 0.11219758D+02 0.00000000D+00  -5  6  0 0.00000000D+00 0.00000000D+00 0.00000000D+00 0.00000000D+00 0.00000000D+00
  <mgrwgt>
 0.1735658423D-01    4    2    0
 0.559889427322503D+03 0.000000000000000D+00 0.000000000000000D+00 0.559889427322503D+03
 0.559889427322503D+03 -.000000000000000D+00 -.000000000000000D+00 -.559889427322503D+03
 0.558691523700596D+03 -.512768112152111D+03 -.257532603214281D+02 0.181430017906822D+03
 0.576466411868880D+02 0.418899851834886D+02 -.367918599425692D+02 -.146534440806006D+02
 0.503440689757522D+03 0.470878126968623D+03 0.625451202639974D+02 -.166776573826222D+03
 0.000000000000000D+00 -.000000000000000D+00 0.000000000000000D+00 0.000000000000000D+00
 0.559889427322503D+03 0.000000000000000D+00 0.000000000000000D+00 0.559889427322503D+03
 0.559889427322503D+03 -.000000000000000D+00 -.000000000000000D+00 -.559889427322503D+03
 0.552668207445863D+03 -.506658483351589D+03 -.311193306636660D+02 0.179292822021230D+03
 0.465996805418936D+02 0.384020944227465D+02 -.263152896295551D+02 -.207723428279870D+01
 0.508713317592900D+03 0.476442378669099D+03 0.576580531439592D+02 -.168722992541487D+03
 0.117976490643489D+02 -.818598974025600D+01 -.223432850738134D+00 -.849259519694458D+01
-.148991567440D-04 0.000000000000D+00 0.000000000000D+00 0.189216310309D-07 0.000000000000D+00  6 2 -1 25 2 -1 21 2 0.11088219D+00 0.66913852D-01 0.27954396D+06 0.27954396D+06 0.27954396D+06 0.10868284D+01  1  2 13  3  6  4        2 -.219622149037D-03 0.100000000000D+01
-.115775494279D-05 0.000000000000D+00 0.000000000000D+00 0.189216310309D-07 0.000000000000D+00  6 2 -1 25 2 -1 21 2 0.11088219D+00 0.66913852D-01 0.27954396D+06 0.27954396D+06 0.27954396D+06 0.10868284D+01  1  2 13  3  6  4        2 -.170659744684D-04 0.100000000000D+01
-.420299997945D-03 0.000000000000D+00 0.000000000000D+00 0.189216310309D-07 0.000000000000D+00  6 2 -1 25 2 -1 21 2 0.11088219D+00 0.66913852D-01 0.28046506D+06 0.28046506D+06 0.28046506D+06 0.10867220D+01  1  2  8  3  6  4        2 -.619364610529D-02 0.100000000000D+01
0.161370348208D-02 0.000000000000D+00 0.000000000000D+00 0.189216310309D-07 0.600184177338D-08  6 2 -1 25 2 -1 21 2 0.11088219D+00 0.66913852D-01 0.27954396D+06 0.27954396D+06 0.27954396D+06 0.10868284D+01  1  2  1  3  6  4        2 0.237869184634D-01 0.100000000000D+01
  </mgrwgt>
  </event>
  <event>
  7     66 0.20058315E-05 0.66246162E+02 0.75467711E-02 0.92793954E-01
        2 -1    0    0  503    0 0.00000000E+00 0.00000000E+00 0.91165941E+03 0.91165946E+03 0.32000000E+00 0.0000E+00 0.9000E+01
       -1 -1    0    0    0  501 0.00000000E+00 0.00000000E+00 -.41103627E+03 0.41103639E+03 0.32000000E+00 0.0000E+00 0.9000E+01
       24  2    1    2    0    0 0.39020862E+03 0.33177761E+03 0.48504042E+02 0.52073484E+03 0.80454779E+02 0.0000E+00 0.0000E+00
       25  1    1    2    0    0 -.37913246E+03 -.41588145E+03 0.37840198E+03 0.68957368E+03 0.12500000E+03 0.0000E+00 0.9000E+01
        2  1    3    3  502    0 0.46655721E+02 0.77244159E+02 0.18464006E+02 0.92111011E+02 0.32000000E+00 0.0000E+00 0.9000E+01
       -1  1    3    3    0  502 0.34355290E+03 0.25453346E+03 0.30040035E+02 0.42862382E+03 0.32000000E+00 0.0000E+00 0.9000E+01
       21  1    1    2  503  501 -.11076159E+02 0.84103836E+02 0.73717125E+02 0.11238734E+03 0.75000000E+00 0.0000E+00 0.9000E+01
#aMCatNLO 2  0  0  1  2 0.15182754D+03 0.00000000D+00  -5  6  0 0.00000000D+00 0.00000000D+00 0.00000000D+00 0.00000000D+00 0.00000000D+00
  <mgrwgt>
 0.9020286776D-04    1    2    0
 0.564668447957349D+03 0.000000000000000D+00 0.000000000000000D+00 0.564668447957349D+03
 0.564668447957349D+03 0.000000000000000D+00 0.000000000000000D+00 -.564668447957349D+03
 0.568720395856346D+03 -.384827696815988D+03 -.372636239187088D+03 0.144456795170060D+03
 0.970246888677378D+02 0.457279668975447D+02 0.842503411952654D+02 -.149874381326406D+02
 0.463591811190613D+03 0.339099729918443D+03 0.288385897991822D+03 -.129469357037420D+03
 0.000000000000000D+00 -.000000000000000D+00 0.000000000000000D+00 0.000000000000000D+00
 0.630625095117396D+03 0.000000000000000D+00 0.000000000000000D+00 0.630625095117396D+03
 0.594209325487807D+03 0.000000000000000D+00 0.000000000000000D+00 -.594209325487807D+03
 0.594299228281986D+03 -.379132464774668D+03 -.415881450920385D+03 0.144456795170060D+03
 0.914722264225166D+02 0.466510241266490D+02 0.772413545508313D+02 -.149874381326406D+02
 0.446746960611180D+03 0.343557600133197D+03 0.254536260274174D+03 -.129469357037420D+03
 0.923160052895213D+02 -.110761594851788D+02 0.841038360953798D+02 0.364157696295891D+02
0.758926962741D-05 0.000000000000D+00 0.000000000000D+00 0.178315893662D-03 0.155172055371D-06  6 2 -1 25 2 -1 21 2 0.14025495D+00 0.63236203D-01 0.34757899D+06 0.34757899D+06 0.34757899D+06 0.10798533D+01  1  2  1  1  6  1        2 0.902028677564D-04 0.100000000000D+01
  </mgrwgt>
  </event>
  <event>
  6     66 0.20058315E-05 0.19401403E+02 0.75467711E-02 0.94498097E-01
        2 -1    0    0  501    0 0.00000000E+00 0.00000000E+00 0.13730648E+04 0.13730648E+04 0.32000000E+00 0.0000E+00 0.9000E+01
       -1 -1    0    0    0  501 0.00000000E+00 0.00000000E+00 -.22058127E+03 0.22058150E+03 0.32000000E+00 0.0000E+00 0.9000E+01
       24  2    1    2    0    0 0.47891259E+03 -.13631566E+03 0.87492052E+03 0.10100322E+04 0.82097023E+02 0.0000E+00 0.0000E+00
       25  1    1    2    0    0 -.47891259E+03 0.13631566E+03 0.27756299E+03 0.58361412E+03 0.12500000E+03 0.0000E+00 0.9000E+01
        2  1    3    3  502    0 0.45239849E+03 -.12940198E+03 0.77720036E+03 0.90854266E+03 0.32000000E+00 0.0000E+00 0.9000E+01
       -1  1    3    3    0  502 0.26514099E+02 -.69136760E+01 0.97720151E+02 0.10148954E+03 0.32000000E+00 0.0000E+00 0.9000E+01
#aMCatNLO 1  0  0  4  5 0.14068270D+03 0.00000000D+00  -5  6  0 0.00000000D+00 0.00000000D+00 0.00000000D+00 0.00000000D+00 0.00000000D+00
  <mgrwgt>
 0.1183600785D-01    6    2    0
 0.550338615857209D+03 0.000000000000000D+00 0.000000000000000D+00 0.550338615857209D+03
 0.550338615857209D+03 -.000000000000000D+00 -.000000000000000D+00 -.550338615857209D+03
 0.554374803141989D+03 -.478912588151728D+03 0.136315656733878D+03 -.209206111282019D+03
 0.501684510854739D+03 0.452404959499248D+03 -.129403841716469D+03 0.173987777734706D+03
 0.446179177176891D+02 0.265076286524793D+02 -.691181501740973D+01 0.352183335473137D+02
 0.000000000000000D+00 0.000000000000000D+00 0.000000000000000D+00 0.000000000000000D+00
 0.550338615857209D+03 0.000000000000000D+00 0.000000000000000D+00 0.550338615857209D+03
 0.550338615857209D+03 -.000000000000000D+00 -.000000000000000D+00 -.550338615857209D+03
 0.496520334417696D+03 -.425136370456126D+03 0.120933753824382D+03 -.188524630198806D+03
 0.401887887626585D+03 0.283094932518802D+03 -.209558114868821D+03 0.193536895437950D+03
 0.492214969769781D+02 0.313095623684984D+02 -.828533813530060D+01 0.370650811537154D+02
 0.153047512693158D+03 0.110731875568826D+03 0.969096991797396D+02 -.420773463928599D+02
0.395032052053D-03 0.000000000000D+00 0.000000000000D+00 0.653934384617D-05 0.000000000000D+00  6 2 -1 25 2 -1 21 0 0.21124076D+00 0.33935601D-01 0.25569567D+06 0.25569567D+06 0.25569567D+06 0.10897239D+01  1  2  2  3  6  4        2 0.664186093720D-02 0.100000000000D+01
0.104891376171D-03 0.000000000000D+00 -.151702709421D-05 0.653934384617D-05 0.000000000000D+00  6 2 -1 25 2 -1 21 2 0.21124076D+00 0.33935601D-01 0.25569567D+06 0.25569567D+06 0.25569567D+06 0.10897239D+01  1  2  3  3  6  4        2 0.209425786901D-02 0.100000000000D+01
-.112863768555D-03 0.000000000000D+00 0.000000000000D+00 0.653934384617D-05 0.000000000000D+00  6 2 -1 25 2 -1 21 2 0.21124076D+00 0.33935601D-01 0.25569567D+06 0.25569567D+06 0.25569567D+06 0.10897239D+01  1  2 15  3  6  4        2 -.225343440091D-02 0.100000000000D+01
-.124387301152D-03 0.000000000000D+00 0.000000000000D+00 0.653934384617D-05 0.000000000000D+00  6 2 -1 25 2 -1 21 2 0.21124076D+00 0.33935601D-01 0.25569567D+06 0.25569567D+06 0.25569567D+06 0.10897239D+01  1  2  4  3  6  4        2 -.248351288497D-02 0.100000000000D+01
-.112570202722D-02 0.000000000000D+00 0.000000000000D+00 0.653934384617D-05 0.000000000000D+00  6 2 -1 25 2 -1 21 2 0.21124076D+00 0.33935601D-01 0.25569567D+06 0.25569567D+06 0.25569567D+06 0.10897239D+01  1  2  5  3  6  4        2 -.224757307487D-01 0.100000000000D+01
0.151821173637D-02 0.000000000000D+00 -.000000000000D+00 0.653934384617D-05 0.000000000000D+00  6 2 -1 25 2 -1 21 2 0.21124076D+00 0.33935601D-01 0.25569567D+06 0.25569567D+06 0.25569567D+06 0.10897239D+01  1  2  6  3  6  4        2 0.303125670745D-01 0.100000000000D+01
  </mgrwgt>
  </event>
  <event>
  7     66 0.20058315E-05 0.59745321E+02 0.75467711E-02 0.85400052E-01
        2 -1    0    0  503    0 0.00000000E+00 0.00000000E+00 0.24916304E+04 0.24916304E+04 0.32000000E+00 0.0000E+00 0.9000E+01
       -1 -1    0    0    0  501 0.00000000E+00 0.00000000E+00 -.11074255E+04 0.11074256E+04 0.32000000E+00 0.0000E+00 0.9000E+01
       24  2    1    2    0    0 0.94629564E+03 -.78245808E+03 -.24830334E+03 0.12553903E+04 0.81450501E+02 0.0000E+00 0.0000E+00
       25  1    1    2    0    0 -.92699611E+03 0.77980483E+03 0.68751295E+03 0.13984693E+04 0.12500000E+03 0.0000E+00 0.9000E+01
        2  1    3    3  502    0 0.52624974E+03 -.47959896E+03 -.12225902E+03 0.72242738E+03 0.32000000E+00 0.0000E+00 0.9000E+01
       -1  1    3    3    0  502 0.42004590E+03 -.30285912E+03 -.12604433E+03 0.53296293E+03 0.32000000E+00 0.0000E+00 0.9000E+01
       21  1    1    2  503  501 -.19299531E+02 0.26532543E+01 0.94499525E+03 0.94519633E+03 0.75000000E+00 0.0000E+00 0.9000E+01
#aMCatNLO 2  0  0  1  5 0.87149952D+03 0.00000000D+00  -5  6  0 0.00000000D+00 0.00000000D+00 0.00000000D+00 0.00000000D+00 0.00000000D+00
  <mgrwgt>
 0.4178950958D-02    1    2    0
 0.130859526417735D+04 0.000000000000000D+00 0.000000000000000D+00 0.130859526417735D+04
 0.130859526417735D+04 0.000000000000000D+00 0.000000000000000D+00 -.130859526417735D+04
 0.131031291060748D+04 -.936630152955273D+03 0.781129292989464D+03 0.462445572920102D+03
 0.748702466746257D+03 0.520714392890613D+03 -.478840474212010D+03 -.245201356042146D+03
 0.558175151000964D+03 0.415915760064660D+03 -.302288818777454D+03 -.217244216877957D+03
 0.000000000000000D+00 -.000000000000000D+00 0.000000000000000D+00 0.000000000000000D+00
 0.210834313216296D+04 0.000000000000000D+00 0.000000000000000D+00 0.210834313216296D+04
 0.130875015564772D+04 0.000000000000000D+00 0.000000000000000D+00 -.130875015564772D+04
 0.130265047423390D+04 -.926996106821642D+03 0.779804826893193D+03 0.462445572920102D+03
 0.753048467437826D+03 0.526251377398351D+03 -.479601685872651D+03 -.245201356042146D+03
 0.561564089311824D+03 0.420044260127613D+03 -.302856395295770D+03 -.217244216877957D+03
 0.799830256827128D+03 -.192995307043221D+02 0.265325427522831D+01 0.799592976515235D+03
0.363870511514D-01 0.000000000000D+00 0.000000000000D+00 0.130428892258D-03 0.219087452966D-05  6 2 -1 25 2 -1 21 2 0.38332770D+00 0.17037314D+00 0.15216878D+07 0.15216878D+07 0.15216878D+07 0.10359386D+01  1  2  1  1  6  1        2 0.417895095771D-02 0.100000000000D+01
  </mgrwgt>
  </event>
  <event>
  7     66 0.20058315E-05 0.39091801E+02 0.75467711E-02 0.90277924E-01
        2 -1    0    0  501    0 0.00000000E+00 0.00000000E+00 0.11963283E+04 0.11963284E+04 0.32000000E+00 0.0000E+00 0.9000E+01
       -1 -1    0    0    0  503 0.00000000E+00 0.00000000E+00 -.59496108E+03 0.59496117E+03 0.32000000E+00 0.0000E+00 0.9000E+01
       24  2    1    2    0    0 -.72314328E+03 -.60816112E+02 0.69476395E+03 0.10077903E+04 0.79432262E+02 0.0000E+00 0.0000E+00
       25  1    1    2    0    0 0.70919316E+03 0.17456910E+02 -.52443874E+02 0.72224307E+03 0.12500000E+03 0.0000E+00 0.9000E+01
        2  1    3    3  502    0 -.27463419E+03 0.11650023E+02 0.23890051E+03 0.36418844E+03 0.32000000E+00 0.0000E+00 0.9000E+01
       -1  1    3    3    0  502 -.44850909E+03 -.72466136E+02 0.45586344E+03 0.64360183E+03 0.32000000E+00 0.0000E+00 0.9000E+01
       21  1    1    2  501  503 0.13950116E+02 0.43359202E+02 -.40952826E+02 0.61256204E+02 0.75000000E+00 0.0000E+00 0.9000E+01
#aMCatNLO 2  0  0  2  1 0.69718007D+01 0.00000000D+00  -5  6  0 0.00000000D+00 0.00000000D+00 0.00000000D+00 0.00000000D+00 0.00000000D+00
  <mgrwgt>
 0.8019098692D-02    1    2    0
 0.802864503335651D+03 0.000000000000000D+00 0.000000000000000D+00 0.802864503335651D+03
 0.802864503335651D+03 0.000000000000000D+00 0.000000000000000D+00 -.802864503335651D+03
 0.805765215641167D+03 0.716161812630194D+03 0.391165941490034D+02 -.345274865765918D+03
 0.294742148173588D+03 -.272062771023050D+03 0.196350046222350D+02 0.111665792106294D+03
 0.505221642856547D+03 -.444099041607145D+03 -.587515987712384D+02 0.233609073659624D+03
 0.000000000000000D+00 0.000000000000000D+00 0.000000000000000D+00 -.000000000000000D+00
 0.810059687856043D+03 0.000000000000000D+00 0.000000000000000D+00 0.810059687856043D+03
 0.878658627411413D+03 0.000000000000000D+00 0.000000000000000D+00 -.878658627411413D+03
 0.798811253545680D+03 0.709193162789346D+03 0.174569102189647D+02 -.345274865765918D+03
 0.296694106652292D+03 -.274631369181013D+03 0.116513886398903D+02 0.111665792106294D+03
 0.510869524123091D+03 -.448511909229869D+03 -.724675007201409D+02 0.233609073659624D+03
 0.823434309463927D+02 0.139501156215363D+02 0.433592018612860D+02 -.685989395553704D+02
0.224217491656D-02 0.000000000000D+00 0.000000000000D+00 0.103997187937D-03 0.304199823007D-06  6 2 -1 25 2 -1 21 2 0.18405014D+00 0.91532292D-01 0.55882471D+06 0.55882471D+06 0.55882471D+06 0.10651131D+01  1  2  1  2  6  2       -1 0.801909869234D-02 0.100000000000D+01
  </mgrwgt>
  </event>
  <event>
  7     66 0.20058315E-05 0.41700673E+02 0.75467711E-02 0.88115023E-01
        2 -1    0    0  503    0 0.00000000E+00 0.00000000E+00 0.20536543E+04 0.20536544E+04 0.32000000E+00 0.0000E+00 0.9000E+01
       -1 -1    0    0    0  501 0.00000000E+00 0.00000000E+00 -.43305176E+03 0.43305188E+03 0.32000000E+00 0.0000E+00 0.9000E+01
       24  2    1    2    0    0 -.19913570E+03 0.85701758E+03 0.55734236E+03 0.10446900E+04 0.81317145E+02 0.0000E+00 0.0000E+00
       25  1    1    2    0    0 0.27759020E+03 -.83695908E+03 0.94352899E+03 0.12974701E+04 0.12500000E+03 0.0000E+00 0.9000E+01
        2  1    3    3  502    0 -.63646533E+02 0.42094354E+03 0.24136988E+03 0.48939132E+03 0.32000000E+00 0.0000E+00 0.9000E+01
       -1  1    3    3    0  502 -.13548917E+03 0.43607404E+03 0.31597248E+03 0.55529866E+03 0.32000000E+00 0.0000E+00 0.9000E+01
       21  1    1    2  503  501 -.78454497E+02 -.20058501E+02 0.11973124E+03 0.14454613E+03 0.75000000E+00 0.0000E+00 0.9000E+01
#aMCatNLO 2  0  0  1  2 0.18231678D+02 0.00000000D+00  -5  6  0 0.00000000D+00 0.00000000D+00 0.00000000D+00 0.00000000D+00 0.00000000D+00
  <mgrwgt>
 0.1905660601D-02    1    2    0
 0.898128856593475D+03 0.000000000000000D+00 0.000000000000000D+00 0.898128856593475D+03
 0.898128856593475D+03 0.000000000000000D+00 0.000000000000000D+00 -.898128856593475D+03
 0.900637550600727D+03 0.238232717215003D+03 -.847021627365615D+03 0.146022370804404D+03
 0.434523852116980D+03 -.826465876525051D+02 0.416085266068820D+03 -.940934161799623D+02
 0.461096310469243D+03 -.155586129562498D+03 0.430936361296796D+03 -.519289546244419D+02
 0.000000000000000D+00 -.000000000000000D+00 -.000000000000000D+00 0.000000000000000D+00
 0.960864617511790D+03 0.000000000000000D+00 0.000000000000000D+00 0.960864617511790D+03
 0.925557842483323D+03 0.000000000000000D+00 0.000000000000000D+00 -.925557842483323D+03
 0.902498949233211D+03 0.277590200005141D+03 -.836959079915390D+03 0.146022370804404D+03
 0.436001807072353D+03 -.636454201573807D+02 0.420943304133624D+03 -.940934161799623D+02
 0.459581339634994D+03 -.135490282812916D+03 0.436074276558002D+03 -.519289546244419D+02
 0.883403640545552D+02 -.784544970348441D+02 -.200585007762353D+02 0.353067750284667D+02
0.878599102221D-03 0.000000000000D+00 0.000000000000D+00 0.141564206136D-03 0.127832849780D-06  6 2 -1 25 2 -1 21 2 0.31594630D+00 0.66623245D-01 0.85928396D+06 0.85928396D+06 0.85928396D+06 0.10522766D+01  1  2  1  1  6  1        2 0.190566060147D-02 0.100000000000D+01
  </mgrwgt>
  </event>
  <event>
  7     66 0.20058315E-05 0.55722430E+02 0.75467711E-02 0.91070432E-01
        2 -1    0    0  501    0 0.00000000E+00 0.00000000E+00 0.11374113E+04 0.11374113E+04 0.32000000E+00 0.0000E+00 0.9000E+01
       -1 -1    0    0    0  503 0.00000000E+00 0.00000000E+00 -.43489086E+03 0.43489098E+03 0.32000000E+00 0.0000E+00 0.9000E+01
       24  2    1    2    0    0 0.55533036E+03 0.40356171E+03 0.46014527E+03 0.83043482E+03 0.81452200E+02 0.0000E+00 0.0000E+00
       25  1    1    2    0    0 -.54155113E+03 -.39802655E+03 0.24606081E+03 0.72654916E+03 0.12500000E+03 0.0000E+00 0.9000E+01
        2  1    3    3  502    0 0.20207181E+03 0.16125868E+03 0.12860100E+03 0.28874850E+03 0.32000000E+00 0.0000E+00 0.9000E+01
       -1  1    3    3    0  502 0.35325855E+03 0.24230302E+03 0.33154427E+03 0.54168632E+03 0.32000000E+00 0.0000E+00 0.9000E+01
       21  1    1    2  501  503 -.13779230E+02 -.55351587E+01 -.36856439E+01 0.15318343E+02 0.75000000E+00 0.0000E+00 0.9000E+01
#aMCatNLO 2  0  0  2  1 0.69718007D+01 0.00000000D+00  -5  6  0 0.00000000D+00 0.00000000D+00 0.00000000D+00 0.00000000D+00 0.00000000D+00
  <mgrwgt>
 0.1544016532D-01    1    2    0
 0.693767174051447D+03 0.000000000000000D+00 0.000000000000000D+00 0.693767174051447D+03
 0.693767174051447D+03 0.000000000000000D+00 0.000000000000000D+00 -.693767174051447D+03
 0.697006927771159D+03 -.548437935254552D+03 -.400792997933527D+03 -.936720947890546D+02
 0.255905140799090D+03 0.199515141529420D+03 0.160231345362325D+03 -.265807285023649D+01
 0.434622279532645D+03 0.348922793725132D+03 0.240561652571202D+03 0.963301676392911D+02
 0.000000000000000D+00 -.000000000000000D+00 -.000000000000000D+00 -.000000000000000D+00
 0.697365684196014D+03 0.000000000000000D+00 0.000000000000000D+00 0.697365684196014D+03
 0.709297117004918D+03 0.000000000000000D+00 0.000000000000000D+00 -.709297117004918D+03
 0.690001607023047D+03 -.541551128313459D+03 -.398026546570248D+03 -.936720947890546D+02
 0.258540321993217D+03 0.202069478071046D+03 0.161257430145635D+03 -.265807285023649D+01
 0.439071876163643D+03 0.353260880207589D+03 0.242304275148844D+03 0.963301676392911D+02
 0.190489960210252D+02 -.137792299651761D+02 -.553515872423174D+01 -.119314328089040D+02
0.206207567979D-02 0.000000000000D+00 0.000000000000D+00 0.102124555303D-03 0.282709641826D-05  6 2 -1 25 2 -1 21 2 0.17498452D+00 0.66905593D-01 0.47980849D+06 0.47980849D+06 0.47980849D+06 0.10697779D+01  1  2  1  2  6  2       -1 0.154401653187D-01 0.100000000000D+01
  </mgrwgt>
  </event>
  <event>
  7     66 0.20058315E-05 0.35665477E+02 0.75467711E-02 0.93599359E-01
        2 -1    0    0  503    0 0.00000000E+00 0.00000000E+00 0.44923601E+03 0.44923612E+03 0.32000000E+00 0.0000E+00 0.9000E+01
       -1 -1    0    0    0  501 0.00000000E+00 0.00000000E+00 -.11194673E+04 0.11194673E+04 0.32000000E+00 0.0000E+00 0.9000E+01
       24  2    1    2    0    0 0.32802128E+03 -.41084079E+03 -.52475103E+03 0.74717890E+03 0.80774712E+02 0.0000E+00 0.0000E+00
       25  1    1    2    0    0 -.33115852E+03 0.42299794E+03 -.32591296E+03 0.64065394E+03 0.12500000E+03 0.0000E+00 0.9000E+01
        2  1    3    3  502    0 0.92086336E+02 -.63658170E+02 -.10257217E+03 0.15183349E+03 0.32000000E+00 0.0000E+00 0.9000E+01
       -1  1    3    3    0  502 0.23593494E+03 -.34718262E+03 -.42217886E+03 0.59534541E+03 0.32000000E+00 0.0000E+00 0.9000E+01
       21  1    1    2  503  501 0.31372418E+01 -.12157149E+02 0.18043273E+03 0.18087059E+03 0.75000000E+00 0.0000E+00 0.9000E+01
#aMCatNLO 2  0  0  1  2 0.37437524D+01 0.00000000D+00  -5  6  0 0.00000000D+00 0.00000000D+00 0.00000000D+00 0.00000000D+00 0.00000000D+00
  <mgrwgt>
 0.7615733584D-02    1    2    0
 0.548245642453428D+03 0.000000000000000D+00 0.000000000000000D+00 0.548245642453428D+03
 0.548245642453428D+03 0.000000000000000D+00 0.000000000000000D+00 -.548245642453428D+03
 0.552395445603522D+03 -.329570063565681D+03 0.416842503834416D+03 0.845081565405483D+02
 0.113564418425921D+03 0.924075965565357D+02 -.649073896333727D+02 -.120309601463804D+02
 0.430531420877413D+03 0.237162467009145D+03 -.351935114201043D+03 -.724771963941679D+02
 0.000000000000000D+00 0.000000000000000D+00 -.000000000000000D+00 0.000000000000000D+00
 0.917058763824848D+03 0.000000000000000D+00 0.000000000000000D+00 0.917058763824848D+03
 0.548388448589941D+03 0.000000000000000D+00 0.000000000000000D+00 -.548388448589941D+03
 0.557996278191368D+03 -.331158518121274D+03 0.422997935963355D+03 0.845081565405483D+02
 0.112587820888270D+03 0.920840777954552D+02 -.636537196626090D+02 -.120309601463804D+02
 0.425979066651736D+03 0.235937198523553D+03 -.347187067128347D+03 -.724771963941679D+02
 0.368884046683415D+03 0.313724180226622D+01 -.121571491723998D+02 0.368670315234908D+03
0.291008110831D-02 0.000000000000D+00 0.000000000000D+00 0.177357495345D-03 0.801433495686D-05  6 2 -1 25 2 -1 21 2 0.69113196D-01 0.17222563D+00 0.30020890D+06 0.30020890D+06 0.30020890D+06 0.10845295D+01  1  2  1  1  6  1        2 0.761573358360D-02 0.100000000000D+01
  </mgrwgt>
  </event>
  <event>
  7     66 0.20058315E-05 0.22041767E+03 0.75467711E-02 0.92058429E-01
        2 -1    0    0  503    0 0.00000000E+00 0.00000000E+00 0.17845099E+04 0.17845099E+04 0.32000000E+00 0.0000E+00 0.9000E+01
       -1 -1    0    0    0  501 0.00000000E+00 0.00000000E+00 -.59934970E+03 0.59934979E+03 0.32000000E+00 0.0000E+00 0.9000E+01
       24  2    1    2    0    0 -.79144805E+02 -.50704481E+03 -.58496042E+02 0.52281997E+03 0.80997504E+02 0.0000E+00 0.0000E+00
       25  1    1    2    0    0 -.16562319E+03 0.45091563E+03 -.89556915E+02 0.50438219E+03 0.12500000E+03 0.0000E+00 0.9000E+01
        2  1    3    3  502    0 -.10458588E+02 -.18812014E+03 -.56057570E+02 0.19657345E+03 0.32000000E+00 0.0000E+00 0.9000E+01
       -1  1    3    3    0  502 -.68686217E+02 -.31892467E+03 -.24384717E+01 0.32624652E+03 0.32000000E+00 0.0000E+00 0.9000E+01
       21  1    1    2  503  501 0.24476799E+03 0.56129177E+02 0.13332131E+04 0.13566576E+04 0.75000000E+00 0.0000E+00 0.9000E+01
#aMCatNLO 2  0  0  1  2 0.37437524D+01 0.00000000D+00  -5  6  0 0.00000000D+00 0.00000000D+00 0.00000000D+00 0.00000000D+00 0.00000000D+00
  <mgrwgt>
 0.5585039357D-02    1    2    0
 0.492484196484302D+03 0.000000000000000D+00 0.000000000000000D+00 0.492484196484302D+03
 0.492484196484302D+03 0.000000000000000D+00 0.000000000000000D+00 -.492484196484302D+03
 0.497085564609381D+03 -.440924311749772D+02 0.478784559386273D+03 -.170370698595485D+02
 0.183254980524172D+03 0.352485437245525D+02 -.177636937096528D+03 -.280186836089294D+02
 0.304627847835051D+03 0.884388745042474D+01 -.301147622289745D+03 0.450557534684779D+02
 0.000000000000000D+00 0.000000000000000D+00 0.000000000000000D+00 0.000000000000000D+00
 0.206325868766379D+04 0.000000000000000D+00 0.000000000000000D+00 0.206325868766379D+04
 0.518376707414602D+03 0.000000000000000D+00 0.000000000000000D+00 -.518376707414602D+03
 0.496660054892249D+03 -.165623189497529D+03 0.450915632326978D+03 -.170370698595485D+02
 0.190480519605975D+03 -.104576791271805D+02 -.188118097655324D+03 -.280186836089294D+02
 0.329335982450033D+03 -.686871260520600D+02 -.318926711221284D+03 0.450557534684779D+02
 0.156515883813014D+04 0.244767994676770D+03 0.561291765496304D+02 0.154488198024919D+04
0.325597837194D-02 0.000000000000D+00 0.000000000000D+00 0.147506411294D-03 0.342128880544D-07  6 2 -1 25 2 -1 21 2 0.27453995D+00 0.92207639D-01 0.39824741D+06 0.39824741D+06 0.39824741D+06 0.10755651D+01  1  2  1  1  6  1        2 0.558503935677D-02 0.100000000000D+01
  </mgrwgt>
  </event>
  <event>
  7     66 0.20058315E-05 0.51683602E+02 0.75467711E-02 0.90924196E-01
        2 -1    0    0  501    0 0.00000000E+00 0.00000000E+00 0.30408076E+04 0.30408076E+04 0.32000000E+00 0.0000E+00 0.9000E+01
       -1 -1    0    0    0  503 0.00000000E+00 0.00000000E+00 -.17931579E+03 0.17931608E+03 0.32000000E+00 0.0000E+00 0.9000E+01
       24  2    1    2    0    0 0.68857387E+03 0.82904315E+02 0.13190264E+04 0.14922865E+04 0.77982921E+02 0.0000E+00 0.0000E+00
       25  1    1    2    0    0 -.67311449E+03 -.67776774E+02 0.15566919E+04 0.17019376E+04 0.12500000E+03 0.0000E+00 0.9000E+01
        2  1    3    3  502    0 0.27192898E+03 0.88672105E+01 0.58095124E+03 0.64150483E+03 0.32000000E+00 0.0000E+00 0.9000E+01
       -1  1    3    3    0  502 0.41664489E+03 0.74037105E+02 0.73807516E+03 0.85078170E+03 0.32000000E+00 0.0000E+00 0.9000E+01
       21  1    1    2  501  503 -.15459382E+02 -.15127541E+02 -.14226477E+02 0.25899616E+02 0.75000000E+00 0.0000E+00 0.9000E+01
#aMCatNLO 2  0  0  2  1 0.69718007D+01 0.00000000D+00  -5  6  0 0.00000000D+00 0.00000000D+00 0.00000000D+00 0.00000000D+00 0.00000000D+00
  <mgrwgt>
 0.3104158181D-02    1    2    0
 0.695133793551793D+03 0.000000000000000D+00 0.000000000000000D+00 0.695133793551793D+03
 0.695133793551793D+03 0.000000000000000D+00 0.000000000000000D+00 -.695133793551793D+03
 0.698566105494066D+03 -.680835696093008D+03 -.753322463573159D+02 0.561908473815524D+02
 0.269096737636856D+03 0.268917279427829D+03 0.592144559768920D+01 0.784139744993558D+01
 0.422604743972663D+03 0.411918416665179D+03 0.694108007596267D+02 -.640322448314880D+02
 0.000000000000000D+00 -.000000000000000D+00 -.000000000000000D+00 -.000000000000000D+00
 0.696553314149252D+03 0.000000000000000D+00 0.000000000000000D+00 0.696553314149252D+03
 0.782801295336774D+03 0.000000000000000D+00 0.000000000000000D+00 -.782801295336774D+03
 0.690260249971476D+03 -.673114485261068D+03 -.677767739934217D+02 0.561908473815524D+02
 0.272184017874924D+03 0.271926541756507D+03 0.886611306693963D+01 0.784139744993558D+01
 0.427991562656995D+03 0.416647325639660D+03 0.740382020630939D+02 -.640322448314880D+02
 0.889187789826312D+02 -.154593821350998D+02 -.151275411366118D+02 -.862479811875217D+02
0.105746407156D-02 0.000000000000D+00 0.000000000000D+00 0.501624138990D-04 0.657847967476D-06  6 2 -1 25 2 -1 21 2 0.46781552D+00 0.27587006D-01 0.49339692D+06 0.49339692D+06 0.49339692D+06 0.10689187D+01  1  2  1  2  6  2       -1 0.310415818114D-02 0.100000000000D+01
  </mgrwgt>
  </event>
  <event>
  7     66 0.20058315E-05 0.75206195E+02 0.75467711E-02 0.89203061E-01
        2 -1    0    0  501    0 0.00000000E+00 0.00000000E+00 0.29465960E+04 0.29465960E+04 0.32000000E+00 0.0000E+00 0.9000E+01
       21 -1    0    0  503  501 0.00000000E+00 0.00000000E+00 -.23708165E+03 0.23708284E+03 0.75000000E+00 0.0000E+00 0.9000E+01
       24  2    1    2    0    0 0.75366583E+03 0.30299064E+03 0.14798233E+04 0.16899507E+04 0.78998250E+02 0.0000E+00 0.0000E+00
       25  1    1    2    0    0 -.71330976E+03 -.22291757E+03 0.11162811E+04 0.13491521E+04 0.12500000E+03 0.0000E+00 0.9000E+01
        2  1    3    3  502    0 0.65923291E+03 0.28437564E+03 0.12647247E+04 0.14542992E+04 0.32000000E+00 0.0000E+00 0.9000E+01
        1  1    1    2  503    0 -.40356063E+02 -.80073071E+02 0.11340996E+03 0.14457603E+03 0.32000000E+00 0.0000E+00 0.9000E+01
       -1  1    3    3    0  502 0.94432920E+02 0.18615003E+02 0.21509858E+03 0.23565143E+03 0.32000000E+00 0.0000E+00 0.9000E+01
#aMCatNLO 2  0  0  2  1 0.69718007D+01 0.00000000D+00  -5  6  0 0.00000000D+00 0.00000000D+00 0.00000000D+00 0.00000000D+00 0.00000000D+00
  <mgrwgt>
 0.6472247150D-04    1    2    0
 0.788724855470263D+03 0.000000000000000D+00 0.000000000000000D+00 0.788724855470263D+03
 0.788724855470263D+03 0.000000000000000D+00 0.000000000000000D+00 -.788724855470263D+03
 0.791699364390560D+03 -.733153989923350D+03 -.262291781346708D+03 -.696500687283175D+02
 0.689117333568171D+03 0.641241406048926D+03 0.248663511917550D+03 0.431116739797089D+02
 0.000000000000000D+00 -.000000000000000D+00 -.000000000000000D+00 -.000000000000000D+00
 0.966330129817952D+02 0.919125838744245D+02 0.136282694291579D+02 0.265383947486086D+02
 0.826164791581787D+03 0.000000000000000D+00 0.000000000000000D+00 0.826164791581787D+03
 0.845576193941240D+03 0.000000000000000D+00 0.000000000000000D+00 -.845576193941240D+03
 0.760906822220495D+03 -.713309762688261D+03 -.222917568803919D+03 -.696500687283175D+02
 0.719257146548942D+03 0.659242173697900D+03 0.284379997268554D+03 0.431116739797089D+02
 0.917448149351743D+02 -.403560633056025D+02 -.800730708815580D+02 -.194114023594529D+02
 0.998322018184146D+02 0.944236522959640D+02 0.186106424169232D+02 0.265383947486086D+02
0.330238410621D-05 0.000000000000D+00 0.000000000000D+00 0.332463265963D-04 0.303270933308D-09  6 2 21 25 2 1 -1 2 0.45332240D+00 0.36474180D-01 0.69021562D+06 0.69021562D+06 0.69021562D+06 0.10587534D+01  1  2  1  6  5  2       -1 0.647224715043D-04 0.100000000000D+01
  </mgrwgt>
  </event>
  <event>
  7     66 0.20058315E-05 0.52995148E+02 0.75467711E-02 0.94324788E-01
        2 -1    0    0  501    0 0.00000000E+00 0.00000000E+00 0.13319908E+04 0.13319909E+04 0.32000000E+00 0.0000E+00 0.9000E+01
       -1 -1    0    0    0  503 0.00000000E+00 0.00000000E+00 -.22918832E+03 0.22918854E+03 0.32000000E+00 0.0000E+00 0.9000E+01
       24  2    1    2    0    0 0.30414013E+03 0.39960244E+03 0.71164943E+03 0.87432706E+03 0.76286104E+02 0.0000E+00 0.0000E+00
       25  1    1    2    0    0 -.30849641E+03 -.38302889E+03 0.41633411E+03 0.65638422E+03 0.12500000E+03 0.0000E+00 0.9000E+01
        2  1    3    3  502    0 0.12609416E+03 0.15399308E+03 0.34663150E+03 0.39970877E+03 0.32000000E+00 0.0000E+00 0.9000E+01
       -1  1    3    3    0  502 0.17804597E+03 0.24560937E+03 0.36501793E+03 0.47461829E+03 0.32000000E+00 0.0000E+00 0.9000E+01
       21  1    1    2  501  503 0.43562750E+01 -.16573559E+02 -.25181026E+02 0.30468124E+02 0.75000000E+00 0.0000E+00 0.9000E+01
#aMCatNLO 2  0  0  2  1 0.12859306D+02 0.00000000D+00  -5  6  0 0.00000000D+00 0.00000000D+00 0.00000000D+00 0.00000000D+00 0.00000000D+00
  <mgrwgt>
 0.7694903252D-02    1    2    0
 0.517309512937968D+03 0.000000000000000D+00 0.000000000000000D+00 0.517309512937968D+03
 0.517309512937968D+03 0.000000000000000D+00 0.000000000000000D+00 -.517309512937968D+03
 0.522048180126641D+03 -.306308801037245D+03 -.391351694398342D+03 -.996397113213878D+02
 0.211517050706426D+03 0.126987797489938D+03 0.150588134889227D+03 0.770504747472944D+02
 0.301053795042868D+03 0.179321003547308D+03 0.240763559509116D+03 0.225892365740933D+02
 0.000000000000000D+00 0.000000000000000D+00 -.000000000000000D+00 -.000000000000000D+00
 0.518407397268525D+03 0.000000000000000D+00 0.000000000000000D+00 0.518407397268525D+03
 0.588870195344958D+03 0.000000000000000D+00 0.000000000000000D+00 -.588870195344958D+03
 0.517140438718804D+03 -.308496408679958D+03 -.383028885487291D+03 -.996397113213878D+02
 0.213423649494129D+03 0.126093250045325D+03 0.153991463392022D+03 0.770504747472944D+02
 0.304196844900036D+03 0.178046883621738D+03 0.245610981168846D+03 0.225892365740933D+02
 0.725166595005139D+02 0.435627501289386D+01 -.165735590735774D+02 -.704627980764329D+02
0.391441897359D-03 0.000000000000D+00 0.000000000000D+00 0.214722327207D-04 0.465651278400D-06  6 2 -1 25 2 -1 21 2 0.20492092D+00 0.35259630D-01 0.26366888D+06 0.26366888D+06 0.26366888D+06 0.10887241D+01  1  2  1  2  6  2       -1 0.769490325157D-02 0.100000000000D+01
  </mgrwgt>
  </event>
  <event>
  7     66 0.20058315E-05 0.38434705E+02 0.75467711E-02 0.93165871E-01
        2 -1    0    0  501    0 0.00000000E+00 0.00000000E+00 0.25658747E+04 0.25658747E+04 0.32000000E+00 0.0000E+00 0.9000E+01
       -1 -1    0    0    0  503 0.00000000E+00 0.00000000E+00 -.15751095E+03 0.15751127E+03 0.32000000E+00 0.0000E+00 0.9000E+01
       24  2    1    2    0    0 0.14789957E+03 0.51687041E+03 0.88153023E+03 0.10356334E+04 0.80073575E+02 0.0000E+00 0.0000E+00
       25  1    1    2    0    0 -.20004093E+03 -.48265298E+03 0.15336444E+04 0.16250109E+04 0.12500000E+03 0.0000E+00 0.9000E+01
        2  1    3    3  502    0 0.38794773E+02 0.22941521E+03 0.43783937E+03 0.49582233E+03 0.32000000E+00 0.0000E+00 0.9000E+01
       -1  1    3    3    0  502 0.10910480E+03 0.28745520E+03 0.44369086E+03 0.53981111E+03 0.32000000E+00 0.0000E+00 0.9000E+01
       21  1    1    2  501  503 0.52141361E+02 -.34217430E+02 -.68109563E+01 0.62741578E+02 0.75000000E+00 0.0000E+00 0.9000E+01
#aMCatNLO 2  0  0  2  1 0.12859306D+02 0.00000000D+00  -5  6  0 0.00000000D+00 0.00000000D+00 0.00000000D+00 0.00000000D+00 0.00000000D+00
  <mgrwgt>
 0.4556027606D-02    1    2    0
 0.557241026976580D+03 0.000000000000000D+00 0.000000000000000D+00 0.557241026976580D+03
 0.557241026976580D+03 0.000000000000000D+00 0.000000000000000D+00 -.557241026976580D+03
 0.561374437034978D+03 -.173945311219965D+03 -.499778056228534D+03 0.139575004113760D+03
 0.229630879715601D+03 0.496422393977747D+02 0.222294964132379D+03 -.291708400276534D+02
 0.323476737202581D+03 0.124303071822190D+03 0.277483092096155D+03 -.110404164086107D+03
 0.000000000000000D+00 0.000000000000000D+00 -.000000000000000D+00 -.000000000000000D+00
 0.564261864526945D+03 0.000000000000000D+00 0.000000000000000D+00 0.564261864526945D+03
 0.716250077304503D+03 0.000000000000000D+00 0.000000000000000D+00 -.716250077304503D+03
 0.555046349512174D+03 -.200040929874797D+03 -.482652975447434D+03 0.139575004113760D+03
 0.234492638037014D+03 0.387936503407134D+02 0.229414280459786D+03 -.291708400276534D+02
 0.326686707638264D+03 0.109105918988489D+03 0.287456125246365D+03 -.110404164086107D+03
 0.164286246643997D+03 0.521413605455945D+02 -.342174302587171D+02 -.151988212777558D+03
0.609867086223D-03 0.000000000000D+00 0.000000000000D+00 0.294543775011D-03 0.489599188408D-06  6 2 -1 25 2 -1 21 2 0.39474938D+00 0.24232444D-01 0.32473684D+06 0.32473684D+06 0.32473684D+06 0.10820152D+01  1  2  1  2  6  2       -1 0.455602760598D-02 0.100000000000D+01
  </mgrwgt>
  </event>
  <event>
  7     66 0.20058315E-05 0.26286035E+02 0.75467711E-02 0.94700048E-01
        2 -1    0    0  501    0 0.00000000E+00 0.00000000E+00 0.14362377E+04 0.14362377E+04 0.32000000E+00 0.0000E+00 0.9000E+01
       21 -1    0    0  503  501 0.00000000E+00 0.00000000E+00 -.26393742E+03 0.26393848E+03 0.75000000E+00 0.0000E+00 0.9000E+01
       24  2    1    2    0    0 -.23173014E+03 -.42342669E+03 0.23123967E+03 0.54123670E+03 0.80475882E+02 0.0000E+00 0.0000E+00
       25  1    1    2    0    0 0.20565328E+03 0.40938419E+03 0.99211707E+03 0.10999136E+04 0.12500000E+03 0.0000E+00 0.9000E+01
        2  1    3    3  502    0 -.21351330E+03 -.32495520E+03 0.19244382E+03 0.43384160E+03 0.32000000E+00 0.0000E+00 0.9000E+01
        1  1    1    2  503    0 0.26076858E+02 0.14042503E+02 -.51056448E+02 0.59025907E+02 0.32000000E+00 0.0000E+00 0.9000E+01
       -1  1    3    3    0  502 -.18216841E+02 -.98471491E+02 0.38795848E+02 0.10739510E+03 0.32000000E+00 0.0000E+00 0.9000E+01
#aMCatNLO 2  0  0  2  1 0.12859306D+02 0.00000000D+00  -5  6  0 0.00000000D+00 0.00000000D+00 0.00000000D+00 0.00000000D+00 0.00000000D+00
  <mgrwgt>
 0.4139867744D-02    1    2    0
 0.546785026355442D+03 0.000000000000000D+00 0.000000000000000D+00 0.546785026355442D+03
 0.546785026355442D+03 0.000000000000000D+00 0.000000000000000D+00 -.546785026355442D+03
 0.550967946488866D+03 0.218665557438417D+03 0.416391354857974D+03 0.258349166145055D+03
 0.426535328868781D+03 -.203238716999107D+03 -.319424209917103D+03 -.196455045251044D+03
 0.000000000000000D+00 0.000000000000000D+00 0.000000000000000D+00 -.000000000000000D+00
 0.116066777353238D+03 -.154268404393093D+02 -.969671449408704D+02 -.618941208940112D+02
 0.548507139032655D+03 0.000000000000000D+00 0.000000000000000D+00 0.548507139032655D+03
 0.691107802998767D+03 0.000000000000000D+00 0.000000000000000D+00 -.691107802998767D+03
 0.540608891961059D+03 0.205653278938727D+03 0.409384185431324D+03 0.258349166145055D+03
 0.435639804032065D+03 -.213516383719064D+03 -.324958778825930D+03 -.196455045251044D+03
 0.145643893697072D+03 0.260768578387377D+02 0.140425030862239D+02 -.142600663966111D+03
 0.117722352341225D+03 -.182137530584010D+02 -.984679096916179D+02 -.618941208940112D+02
0.315320411855D-04 0.000000000000D+00 0.000000000000D+00 0.159849107018D-03 0.379894445461D-07  6 2 21 25 2 1 -1 2 0.22095966D+00 0.40605828D-01 0.24674409D+06 0.24674409D+06 0.24674409D+06 0.10908877D+01  1  2  1  6  5  2       -1 0.413986774394D-02 0.100000000000D+01
  </mgrwgt>
  </event>
  <event>
  7     66 0.20058315E-05 0.63069155E+02 0.75467711E-02 0.94555685E-01
        2 -1    0    0  501    0 0.00000000E+00 0.00000000E+00 0.21207016E+04 0.21207016E+04 0.32000000E+00 0.0000E+00 0.9000E+01
       -1 -1    0    0    0  503 0.00000000E+00 0.00000000E+00 -.16251744E+03 0.16251776E+03 0.32000000E+00 0.0000E+00 0.9000E+01
       24  2    1    2    0    0 0.44230239E+03 0.17121104E+03 0.13137334E+04 0.13990541E+04 0.80699664E+02 0.0000E+00 0.0000E+00
       25  1    1    2    0    0 -.45911947E+03 -.17918837E+03 0.67699432E+03 0.84666727E+03 0.12500000E+03 0.0000E+00 0.9000E+01
        2  1    3    3  502    0 0.25826522E+03 0.63762430E+02 0.79169957E+03 0.83519751E+03 0.32000000E+00 0.0000E+00 0.9000E+01
       -1  1    3    3    0  502 0.18403717E+03 0.10744861E+03 0.52203382E+03 0.56385662E+03 0.32000000E+00 0.0000E+00 0.9000E+01
       21  1    1    2  501  503 0.16817086E+02 0.79773339E+01 -.32543559E+02 0.37497973E+02 0.75000000E+00 0.0000E+00 0.9000E+01
#aMCatNLO 2  0  0  2  1 0.12859306D+02 0.00000000D+00  -5  6  0 0.00000000D+00 0.00000000D+00 0.00000000D+00 0.00000000D+00 0.00000000D+00
  <mgrwgt>
 0.5248149488D-02    1    2    0
 0.519596326977856D+03 0.000000000000000D+00 0.000000000000000D+00 0.519596326977856D+03
 0.519596326977856D+03 0.000000000000000D+00 0.000000000000000D+00 -.519596326977856D+03
 0.523980771114006D+03 -.450570104112139D+03 -.175132901093771D+03 -.158889574019455D+03
 0.292934839811136D+03 0.262968371346634D+03 0.659921721229221D+02 0.110921094769991D+03
 0.222277043030571D+03 0.187601732765505D+03 0.109140728970849D+03 0.479684792494643D+02
 0.000000000000000D+00 0.000000000000000D+00 0.000000000000000D+00 -.000000000000000D+00
 0.520286438382291D+03 0.000000000000000D+00 0.000000000000000D+00 0.520286438382291D+03
 0.662423751235080D+03 0.000000000000000D+00 0.000000000000000D+00 -.662423751235080D+03
 0.532700719766102D+03 -.459119470823607D+03 -.179188369092109D+03 -.158889574019455D+03
 0.288219663138932D+03 0.258266384035771D+03 0.637617426991596D+02 0.110921094769991D+03
 0.218438950656910D+03 0.184036001106379D+03 0.107449292502830D+03 0.479684792494643D+02
 0.143350856055426D+03 0.168170856814572D+02 0.797733389012015D+01 -.142137312852789D+03
0.402729762633D-03 0.000000000000D+00 0.000000000000D+00 0.284140462703D-03 0.536316190707D-05  6 2 -1 25 2 -1 21 2 0.32626120D+00 0.25002663D-01 0.25310649D+06 0.25310649D+06 0.25310649D+06 0.10900559D+01  1  2  1  2  6  2       -1 0.524814948798D-02 0.100000000000D+01
  </mgrwgt>
  </event>
  <event>
  7     66 0.20058315E-05 0.55037067E+02 0.75467711E-02 0.94357812E-01
        2 -1    0    0  501    0 0.00000000E+00 0.00000000E+00 0.26839104E+03 0.26839123E+03 0.32000000E+00 0.0000E+00 0.9000E+01
       -1 -1    0    0    0  503 0.00000000E+00 0.00000000E+00 -.14009297E+04 0.14009298E+04 0.32000000E+00 0.0000E+00 0.9000E+01
       24  2    1    2    0    0 -.20536284E+03 -.42217077E+03 -.57670797E+03 0.74851641E+03 0.85338663E+02 0.0000E+00 0.0000E+00
       25  1    1    2    0    0 0.21548418E+03 0.45156921E+03 -.18383525E+03 0.54751126E+03 0.12500000E+03 0.0000E+00 0.9000E+01
        2  1    3    3  502    0 -.16074480E+03 -.23487455E+03 -.34656890E+03 0.44845853E+03 0.32000000E+00 0.0000E+00 0.9000E+01
       -1  1    3    3    0  502 -.44618044E+02 -.18729622E+03 -.23013906E+03 0.30005789E+03 0.32000000E+00 0.0000E+00 0.9000E+01
       21  1    1    2  501  503 -.10121342E+02 -.29398438E+02 -.37199548E+03 0.37329333E+03 0.75000000E+00 0.0000E+00 0.9000E+01
#aMCatNLO 2  0  0  2  1 0.12859306D+02 0.00000000D+00  -5  6  0 0.00000000D+00 0.00000000D+00 0.00000000D+00 0.00000000D+00 0.00000000D+00
  <mgrwgt>
 0.4832868427D-02    1    2    0
 0.524474746179581D+03 0.000000000000000D+00 0.000000000000000D+00 0.524474746179581D+03
 0.524474746179581D+03 0.000000000000000D+00 0.000000000000000D+00 -.524474746179581D+03
 0.528451254967329D+03 0.210316338843685D+03 0.436558690854228D+03 0.169762410243186D+03
 0.310946740407197D+03 -.163706228485622D+03 -.243472251016239D+03 -.103001985951532D+03
 0.209551496984636D+03 -.466101103580634D+02 -.193086439837989D+03 -.667604242916537D+02
 0.000000000000000D+00 -.000000000000000D+00 -.000000000000000D+00 -.000000000000000D+00
 0.525976085203576D+03 0.000000000000000D+00 0.000000000000000D+00 0.525976085203576D+03
 0.714854041774054D+03 0.000000000000000D+00 0.000000000000000D+00 -.714854041774054D+03
 0.542947933498016D+03 0.215484183868763D+03 0.451569207387532D+03 0.169762410243186D+03
 0.302680014308437D+03 -.160746427875586D+03 -.234875217673205D+03 -.103001985951532D+03
 0.203782242370439D+03 -.446164139546877D+02 -.187295551628294D+03 -.667604242916537D+02
 0.191419936800736D+03 -.101213420384897D+02 -.293984380860335D+02 -.188877956570478D+03
0.230527596650D-02 0.000000000000D+00 0.000000000000D+00 0.955076590488D-05 0.650406578982D-07  6 2 -1 25 2 -1 21 2 0.41290889D-01 0.21552737D+00 0.26212830D+06 0.26212830D+06 0.26212830D+06 0.10889147D+01  1  2  1  2  6  2       -1 0.483286842701D-02 0.100000000000D+01
  </mgrwgt>
  </event>
  <event>
  7     66 0.20058315E-05 0.89868814E+02 0.75467711E-02 0.95157216E-01
        2 -1    0    0  503    0 0.00000000E+00 0.00000000E+00 0.24114660E+04 0.24114660E+04 0.32000000E+00 0.0000E+00 0.9000E+01
       -1 -1    0    0    0  501 0.00000000E+00 0.00000000E+00 -.78393808E+03 0.78393815E+03 0.32000000E+00 0.0000E+00 0.9000E+01
       24  2    1    2    0    0 -.28365152E+02 -.34959895E+03 -.64843073E+01 0.35980727E+03 0.79970094E+02 0.0000E+00 0.0000E+00
       25  1    1    2    0    0 0.93213342E+02 0.45426798E+03 -.50274887E+03 0.69529098E+03 0.12500000E+03 0.0000E+00 0.9000E+01
        2  1    3    3  502    0 -.23795578E+02 -.20471481E+03 0.34971154E+02 0.20903939E+03 0.32000000E+00 0.0000E+00 0.9000E+01
       -1  1    3    3    0  502 -.45695745E+01 -.14488414E+03 -.41455461E+02 0.15076788E+03 0.32000000E+00 0.0000E+00 0.9000E+01
       21  1    1    2  503  501 -.64848189E+02 -.10466903E+03 0.21367611E+04 0.21403059E+04 0.75000000E+00 0.0000E+00 0.9000E+01
#aMCatNLO 2  0  0  1  2 0.37437524D+01 0.00000000D+00  -5  6  0 0.00000000D+00 0.00000000D+00 0.00000000D+00 0.00000000D+00 0.00000000D+00
  <mgrwgt>
 0.9898865653D-02    1    2    0
 0.457917296018098D+03 0.000000000000000D+00 0.000000000000000D+00 0.457917296018098D+03
 0.457917296018098D+03 0.000000000000000D+00 0.000000000000000D+00 -.457917296018098D+03
 0.462956297694538D+03 0.586806727457162D+02 0.398530096250893D+03 -.190876595221620D+03
 0.285354691440438D+03 -.429449147626527D+02 -.235623499150921D+03 0.155127692147380D+03
 0.167523602901220D+03 -.157357579830635D+02 -.162906597099972D+03 0.357489030742397D+02
 0.000000000000000D+00 -.000000000000000D+00 -.000000000000000D+00 0.000000000000000D+00
 0.408228053426825D+04 0.000000000000000D+00 0.000000000000000D+00 0.408228053426825D+04
 0.463084260215690D+03 0.000000000000000D+00 0.000000000000000D+00 -.463084260215690D+03
 0.516823956797245D+03 0.932133416034847D+02 0.454267983313016D+03 -.190876595221620D+03
 0.257952303789355D+03 -.237958857141837D+02 -.204715768768165D+03 0.155127692147380D+03
 0.149298354390696D+03 -.456926663168719D+01 -.144883181754153D+03 0.357489030742397D+02
 0.362129017950665D+04 -.648481892576139D+02 -.104669032790698D+03 0.361919627405256D+04
0.221412532342D-01 0.000000000000D+00 0.000000000000D+00 0.273577735287D-03 0.476747602449D-06  6 2 -1 25 2 -1 21 2 0.37099475D+00 0.12060586D+00 0.22775007D+06 0.22775007D+06 0.22775007D+06 0.10935176D+01  1  2  1  1  6  1        2 0.989886565301D-02 0.100000000000D+01
  </mgrwgt>
  </event>
  <event>
  7     66 0.20058315E-05 0.64750946E+02 0.75467711E-02 0.88526833E-01
        2 -1    0    0  501    0 0.00000000E+00 0.00000000E+00 0.11200308E+04 0.11200308E+04 0.32000000E+00 0.0000E+00 0.9000E+01
       21 -1    0    0  503  501 0.00000000E+00 0.00000000E+00 -.73772594E+03 0.73772632E+03 0.75000000E+00 0.0000E+00 0.9000E+01
       24  2    1    2    0    0 -.60340361E+03 -.64244432E+03 0.13920018E+03 0.89594497E+03 0.80685009E+02 0.0000E+00 0.0000E+00
       25  1    1    2    0    0 0.59336514E+03 0.64302606E+03 0.27717196E+03 0.92629045E+03 0.12500000E+03 0.0000E+00 0.9000E+01
        2  1    3    3  502    0 -.28303325E+03 -.25057752E+03 0.79397648E+02 0.38626545E+03 0.32000000E+00 0.0000E+00 0.9000E+01
        1  1    1    2  503    0 0.10038474E+02 -.58174428E+00 -.34067302E+02 0.35521724E+02 0.32000000E+00 0.0000E+00 0.9000E+01
       -1  1    3    3    0  502 -.32037036E+03 -.39186680E+03 0.59802535E+02 0.50967951E+03 0.32000000E+00 0.0000E+00 0.9000E+01
#aMCatNLO 2  0  0  2  1 0.21732306D+03 0.00000000D+00  -5  6  0 0.00000000D+00 0.00000000D+00 0.00000000D+00 0.00000000D+00 0.00000000D+00
  <mgrwgt>
 0.3039252773D-03    1    2    0
 0.886999866615861D+03 0.000000000000000D+00 0.000000000000000D+00 0.886999866615861D+03
 0.886999866615861D+03 0.000000000000000D+00 0.000000000000000D+00 -.886999866615861D+03
 0.889568900053015D+03 0.598389929021831D+03 0.642734869606992D+03 0.672993921076814D+02
 0.376611393645750D+03 -.280897279752006D+03 -.250699041896821D+03 -.910222191191235D+01
 0.000000000000000D+00 0.000000000000000D+00 -.000000000000000D+00 -.000000000000000D+00
 0.507819439532956D+03 -.317492649269825D+03 -.392035827710170D+03 -.581971701957691D+02
 0.887589832525168D+03 0.000000000000000D+00 0.000000000000000D+00 0.887589832525168D+03
 0.930919949833262D+03 0.000000000000000D+00 0.000000000000000D+00 -.930919949833262D+03
 0.886407871425799D+03 0.593365138775498D+03 0.643026063572454D+03 0.672993921076814D+02
 0.378124736419602D+03 -.283032662830101D+03 -.250575293315128D+03 -.910222191191235D+01
 0.444815517800526D+02 0.100384738092168D+02 -.581744282326418D+00 -.433301173080936D+02
 0.509495622732977D+03 -.320370949754614D+03 -.391869025975000D+03 -.581971701957691D+02
0.200214848618D-04 0.000000000000D+00 0.000000000000D+00 0.287964363141D-03 0.142680417639D-06  6 2 21 25 2 1 -1 2 0.17231235D+00 0.11349626D+00 0.79039281D+06 0.79039281D+06 0.79039281D+06 0.10547327D+01  1  2  1  6  5  2       -1 0.303925277297D-03 0.100000000000D+01
  </mgrwgt>
  </event>
  <event>
  6     66 0.20058315E-05 0.18459556E+02 0.75467711E-02 0.93945652E-01
        2 -1    0    0  501    0 0.00000000E+00 0.00000000E+00 0.71791237E+03 0.71791244E+03 0.32000000E+00 0.0000E+00 0.9000E+01
       -1 -1    0    0    0  501 0.00000000E+00 0.00000000E+00 -.55351243E+03 0.55351252E+03 0.32000000E+00 0.0000E+00 0.9000E+01
       25  1    1    2    0    0 0.39878266E+03 -.33162636E+03 -.25407256E+03 0.59091583E+03 0.12500000E+03 0.0000E+00 0.9000E+01
        2  1    1    2  502    0 -.33996133E+03 0.27965642E+03 0.34247865E+03 0.55773932E+03 0.32000000E+00 0.0000E+00 0.9000E+01
       -1  1    1    2    0  503 -.28401205E+02 0.50647480E+02 0.71296608E+02 0.91951641E+02 0.32000000E+00 0.0000E+00 0.9000E+01
       21  1    1    2  503  502 -.30420128E+02 0.13224556E+01 0.46972422E+01 0.30818171E+02 0.75000000E+00 0.0000E+00 0.9000E+01
#aMCatNLO 2  0  0  5  2 0.52205752D+01 0.00000000D+00  -5  6  0 0.00000000D+00 0.00000000D+00 0.00000000D+00 0.00000000D+00 0.00000000D+00
  <mgrwgt>
 0.5137804972D-01    1    2    0
 0.630375699691778D+03 0.000000000000000D+00 0.000000000000000D+00 0.630375699691778D+03
 0.630375699691778D+03 -.000000000000000D+00 -.000000000000000D+00 -.630375699691778D+03
 0.636301834754543D+03 0.403188162517396D+03 -.335518700008187D+03 -.337818786426481D+03
 0.512635909029526D+03 -.336926905074026D+03 0.276943729230987D+03 0.269403056225056D+03
 0.111813655599486D+03 -.662612574433697D+02 0.585749707772000D+02 0.684157302014250D+02
 0.000000000000000D+00 -.000000000000000D+00 0.000000000000000D+00 0.000000000000000D+00
 0.630375699691778D+03 0.000000000000000D+00 0.000000000000000D+00 0.630375699691778D+03
 0.630375699691778D+03 -.000000000000000D+00 -.000000000000000D+00 -.630375699691778D+03
 0.629062505625679D+03 0.398793988354056D+03 -.331634248774711D+03 -.333281736487849D+03
 0.518643649986019D+03 -.340508183484357D+03 0.280109580383290D+03 0.273100779252827D+03
 0.825535993362890D+02 -.278360820226565D+02 0.501405465186411D+02 0.593816040185549D+02
 0.304916444355677D+02 -.304497228470425D+02 0.138412187277993D+01 0.799353216467370D+00
0.563669195325D-02 0.000000000000D+00 0.000000000000D+00 0.843375179751D-07 0.857878900689D-07  6 2 -1 25 2 -1 21 2 0.11044807D+00 0.85155771D-01 0.28210225D+06 0.28210225D+06 0.28210225D+06 0.10865339D+01  1  2  1  4  6  5       -1 0.513780497247D-01 0.100000000000D+01
  </mgrwgt>
  </event>
  <event>
  7     66 0.20058315E-05 0.66315976E+02 0.75467711E-02 0.93954500E-01
        2 -1    0    0  503    0 0.00000000E+00 0.00000000E+00 0.21450219E+04 0.21450219E+04 0.32000000E+00 0.0000E+00 0.9000E+01
       -1 -1    0    0    0  501 0.00000000E+00 0.00000000E+00 -.24937230E+03 0.24937251E+03 0.32000000E+00 0.0000E+00 0.9000E+01
       24  2    1    2    0    0 -.47958255E+03 -.19999254E+03 0.14859540E+03 0.54624638E+03 0.79423400E+02 0.0000E+00 0.0000E+00
       25  1    1    2    0    0 0.46341361E+03 0.20806988E+03 0.13081929E+04 0.14089141E+04 0.12500000E+03 0.0000E+00 0.9000E+01
        2  1    3    3  502    0 -.25650025E+03 -.93400925E+02 0.11700810E+03 0.29699682E+03 0.32000000E+00 0.0000E+00 0.9000E+01
       -1  1    3    3    0  502 -.22308229E+03 -.10659161E+03 0.31587300E+02 0.24924956E+03 0.32000000E+00 0.0000E+00 0.9000E+01
       21  1    1    2  503  501 0.16168934E+02 -.80773377E+01 0.43886127E+03 0.43923394E+03 0.75000000E+00 0.0000E+00 0.9000E+01
#aMCatNLO 2  0  0  1  2 0.37437524D+01 0.00000000D+00  -5  6  0 0.00000000D+00 0.00000000D+00 0.00000000D+00 0.00000000D+00 0.00000000D+00
  <mgrwgt>
 0.8985945176D-02    1    2    0
 0.651938189108299D+03 0.000000000000000D+00 0.000000000000000D+00 0.651938189108299D+03
 0.651938189108299D+03 0.000000000000000D+00 0.000000000000000D+00 -.651938189108299D+03
 0.655510967823965D+03 0.471513970194510D+03 0.204023268823458D+03 0.387451559072243D+03
 0.312013463647846D+03 -.252615861910732D+03 -.953414649740418D+02 -.156357388265561D+03
 0.336351946744787D+03 -.218898108283778D+03 -.108681803849417D+03 -.231094170806682D+03
 0.000000000000000D+00 0.000000000000000D+00 -.000000000000000D+00 0.000000000000000D+00
 0.819797955263128D+03 0.000000000000000D+00 0.000000000000000D+00 0.819797955263128D+03
 0.652487537410622D+03 0.000000000000000D+00 0.000000000000000D+00 -.652487537410622D+03
 0.650990753739472D+03 0.463413614282734D+03 0.208069875100139D+03 0.387451559072243D+03
 0.314585416525789D+03 -.256500796664016D+03 -.934007105765371D+02 -.156357388265561D+03
 0.338425473707230D+03 -.223081751654987D+03 -.106591826852145D+03 -.231094170806682D+03
 0.168283848701259D+03 0.161689340362683D+02 -.807733767145727D+01 0.167310417852506D+03
0.148645031366D-02 0.000000000000D+00 0.000000000000D+00 0.125533921013D-03 0.247623390271D-05  6 2 -1 25 2 -1 21 2 0.33000296D+00 0.38364938D-01 0.28165598D+06 0.28165598D+06 0.28165598D+06 0.10865850D+01  1  2  1  1  6  1        2 0.898594517623D-02 0.100000000000D+01
  </mgrwgt>
  </event>
  <event>
  6     66 -.20058315E-05 0.14614400E+02 0.75467711E-02 0.94216599E-01
        2 -1    0    0  501    0 0.00000000E+00 0.00000000E+00 0.56741444E+03 0.56741453E+03 0.32000000E+00 0.0000E+00 0.9000E+01
       -1 -1    0    0    0  501 0.00000000E+00 0.00000000E+00 -.49748387E+03 0.49748397E+03 0.32000000E+00 0.0000E+00 0.9000E+01
       24  2    1    2    0    0 -.50361470E+03 0.95678530E+02 -.56163003E+02 0.52239805E+03 0.83446347E+02 0.0000E+00 0.0000E+00
       25  1    1    2    0    0 0.50361470E+03 -.95678530E+02 0.12609358E+03 0.54250045E+03 0.12500000E+03 0.0000E+00 0.9000E+01
        2  1    3    3  502    0 -.16221134E+02 0.73205102E+00 0.13320329E+02 0.21004634E+02 0.32000000E+00 0.0000E+00 0.9000E+01
       -1  1    3    3    0  502 -.48739357E+03 0.94946478E+02 -.69483332E+02 0.50139342E+03 0.32000000E+00 0.0000E+00 0.9000E+01
#aMCatNLO 1  0  0  4  1 0.34649423D+01 0.00000000D+00  -5  6  0 0.00000000D+00 0.00000000D+00 0.00000000D+00 0.00000000D+00 0.00000000D+00
  <mgrwgt>
 -.2860618179D-01    5    2    0
 0.531299945162399D+03 0.000000000000000D+00 0.000000000000000D+00 0.531299945162399D+03
 0.531299945162399D+03 -.000000000000000D+00 -.000000000000000D+00 -.531299945162399D+03
 0.535375659639297D+03 0.503614699761513D+03 -.956785295496807D+02 0.906639404699799D+02
 0.201662890036326D+02 -.162142049700131D+02 0.730665551930820D+00 0.119684960299805D+02
 0.507057941681868D+03 -.487400494791500D+03 0.949478639977499D+02 -.102632436499961D+03
 0.000000000000000D+00 0.000000000000000D+00 0.000000000000000D+00 -.000000000000000D+00
 0.531299945162399D+03 0.000000000000000D+00 0.000000000000000D+00 0.531299945162399D+03
 0.531299945162399D+03 -.000000000000000D+00 -.000000000000000D+00 -.531299945162399D+03
 0.532181694429291D+03 0.499722231917233D+03 -.955031221108902D+02 0.935371609594983D+02
 0.150581566305880D+02 -.100046541749242D+02 0.242577005911389D+01 0.109895684888806D+02
 0.510111876559763D+03 -.491109242424204D+03 0.951149923978801D+02 -.998948288651545D+02
 0.524816270515515D+01 0.139166468189532D+01 -.203764034610378D+01 -.463190058322463D+01
0.666907445958D-04 0.000000000000D+00 0.000000000000D+00 0.788577451814D-05 0.000000000000D+00  6 2 -1 25 2 -1 21 0 0.87294544D-01 0.76535994D-01 0.27062687D+06 0.27062687D+06 0.27062687D+06 0.10878783D+01  1  2  2  3  6  4        2 0.849837904026D-03 0.100000000000D+01
0.256633072688D-04 0.000000000000D+00 -.256110019324D-06 0.788577451814D-05 0.000000000000D+00  6 2 -1 25 2 -1 21 2 0.87294544D-01 0.76535994D-01 0.27062687D+06 0.27062687D+06 0.27062687D+06 0.10878783D+01  1  2  3  3  6  4        2 0.387029244917D-03 0.100000000000D+01
-.210915384966D-04 0.000000000000D+00 0.000000000000D+00 0.788577451814D-05 0.000000000000D+00  6 2 -1 25 2 -1 21 2 0.87294544D-01 0.76535994D-01 0.27062687D+06 0.27062687D+06 0.27062687D+06 0.10878783D+01  1  2 15  3  6  4        2 -.318082238310D-03 0.100000000000D+01
-.242193128438D-02 0.000000000000D+00 0.000000000000D+00 0.788577451814D-05 0.000000000000D+00  6 2 -1 25 2 -1 21 2 0.87294544D-01 0.76535994D-01 0.27062687D+06 0.27062687D+06 0.27062687D+06 0.10878783D+01  1  2  4  3  6  4        2 -.365252313903D-01 0.100000000000D+01
0.463898425755D-03 0.000000000000D+00 0.000000000000D+00 0.788577451814D-05 0.267714191449D-05  6 2 -1 25 2 -1 21 2 0.87294544D-01 0.76535994D-01 0.26878742D+06 0.26878742D+06 0.26878742D+06 0.10880996D+01  1  2 11  3  6  4        2 0.700026468962D-02 0.100000000000D+01
  </mgrwgt>
  </event>
  <event>
  7     66 0.20058315E-05 0.63106550E+02 0.75467711E-02 0.94517514E-01
        2 -1    0    0  501    0 0.00000000E+00 0.00000000E+00 0.15330011E+04 0.15330012E+04 0.32000000E+00 0.0000E+00 0.9000E+01
       -1 -1    0    0    0  503 0.00000000E+00 0.00000000E+00 -.19279820E+03 0.19279847E+03 0.32000000E+00 0.0000E+00 0.9000E+01
       24  2    1    2    0    0 0.91192261E+02 0.47059757E+03 0.94295935E+03 0.10635143E+04 0.11005550E+03 0.0000E+00 0.0000E+00
       25  1    1    2    0    0 -.99033885E+02 -.48233909E+03 0.40149605E+03 0.64752049E+03 0.12500000E+03 0.0000E+00 0.9000E+01
        2  1    3    3  502    0 -.13608811E+02 0.13958669E+03 0.33900274E+03 0.36686864E+03 0.32000000E+00 0.0000E+00 0.9000E+01
       -1  1    3    3    0  502 0.10480107E+03 0.33101088E+03 0.60395662E+03 0.69664565E+03 0.32000000E+00 0.0000E+00 0.9000E+01
       21  1    1    2  501  503 0.78416242E+01 0.11741523E+02 -.42524825E+01 0.14764841E+02 0.75000000E+00 0.0000E+00 0.9000E+01
#aMCatNLO 2  0  0  2  1 0.20171595D+03 0.00000000D+00  -5  6  0 0.00000000D+00 0.00000000D+00 0.00000000D+00 0.00000000D+00 0.00000000D+00
  <mgrwgt>
 0.1722154565D-01    1    2    0
 0.529121998019943D+03 0.000000000000000D+00 0.000000000000000D+00 0.529121998019943D+03
 0.529121998019943D+03 0.000000000000000D+00 0.000000000000000D+00 -.529121998019943D+03
 0.530781746144946D+03 -.950785848109869D+02 -.476416705167111D+03 -.173468866914877D+03
 0.163933264639372D+03 -.124004442691459D+02 0.141395787703288D+03 0.820217986697248D+02
 0.363528985255568D+03 0.107479029080133D+03 0.335020917463823D+03 0.914470682451521D+02
 0.000000000000000D+00 0.000000000000000D+00 0.000000000000000D+00 -.000000000000000D+00
 0.530984897739438D+03 0.000000000000000D+00 0.000000000000000D+00 0.530984897739438D+03
 0.556616185962963D+03 0.000000000000000D+00 0.000000000000000D+00 -.556616185962963D+03
 0.536819503752230D+03 -.990338896765435D+02 -.482339113607422D+03 -.173468866914877D+03
 0.162470915843675D+03 -.136097235232935D+02 0.139585093988166D+03 0.820217986697248D+02
 0.359047763395014D+03 0.104801989005525D+03 0.331012497058365D+03 0.914470682451521D+02
 0.292629007114829D+02 0.784162419431153D+01 0.117415225608904D+02 -.256312882235247D+02
0.840746848459D-03 0.000000000000D+00 0.000000000000D+00 0.228607267551D-06 0.723478336561D-08  6 2 -1 25 2 -1 21 2 0.23584422D+00 0.29661018D-01 0.25481939D+06 0.25481939D+06 0.25481939D+06 0.10898358D+01  1  2  1  2  6  2       -1 0.172215456498D-01 0.100000000000D+01
  </mgrwgt>
  </event>
  <event>
  7     66 0.20058315E-05 0.21279758E+02 0.75467711E-02 0.93948362E-01
        2 -1    0    0  501    0 0.00000000E+00 0.00000000E+00 0.12452187E+04 0.12452188E+04 0.32000000E+00 0.0000E+00 0.9000E+01
       21 -1    0    0  503  501 0.00000000E+00 0.00000000E+00 -.57703254E+03 0.57703303E+03 0.75000000E+00 0.0000E+00 0.9000E+01
       24  2    1    2    0    0 0.51729579E+03 -.23151006E+01 0.79299894E+03 0.95040402E+03 0.82584447E+02 0.0000E+00 0.0000E+00
       25  1    1    2    0    0 -.51931833E+03 0.12310746E+02 0.18232203E+03 0.56454354E+03 0.12500000E+03 0.0000E+00 0.9000E+01
        2  1    3    3  502    0 0.48692279E+02 -.45995704E+01 0.12675440E+03 0.13586344E+03 0.32000000E+00 0.0000E+00 0.9000E+01
        1  1    1    2  503    0 0.20225406E+01 -.99956451E+01 -.30713479E+03 0.30730423E+03 0.32000000E+00 0.0000E+00 0.9000E+01
       -1  1    3    3    0  502 0.46860351E+03 0.22844697E+01 0.66624454E+03 0.81454058E+03 0.32000000E+00 0.0000E+00 0.9000E+01
#aMCatNLO 2  0  0  2  1 0.20171595D+03 0.00000000D+00  -5  6  0 0.00000000D+00 0.00000000D+00 0.00000000D+00 0.00000000D+00 0.00000000D+00
  <mgrwgt>
 0.2141456782D-01    1    2    0
 0.579592768665987D+03 0.000000000000000D+00 0.000000000000000D+00 0.579592768665987D+03
 0.579592768665987D+03 0.000000000000000D+00 0.000000000000000D+00 -.579592768665987D+03
 0.583390611601863D+03 -.518299591431241D+03 0.727600502363922D+01 -.236711214306168D+03
 0.710297595272145D+02 0.488097929726650D+02 -.521160163931205D+01 0.513387773209744D+02
 0.000000000000000D+00 0.000000000000000D+00 -.000000000000000D+00 -.000000000000000D+00
 0.504765166202896D+03 0.469489798458576D+03 -.206440338432717D+01 0.185372436985194D+03
 0.579654595551762D+03 0.000000000000000D+00 0.000000000000000D+00 0.579654595551762D+03
 0.123958666247159D+04 0.000000000000000D+00 0.000000000000000D+00 -.123958666247159D+04
 0.584380255686740D+03 -.519318331850935D+03 0.123107457841095D+02 -.236711214306168D+03
 0.709024056853186D+02 0.486859741331932D+02 -.459967366830818D+01 0.513387773209744D+02
 0.660010860927003D+03 0.202254062695453D+01 -.999564514902835D+01 -.659932066919824D+03
 0.503947735724286D+03 0.468609817090787D+03 0.228457303322708D+01 0.185372436985194D+03
0.763664811285D-03 0.000000000000D+00 0.000000000000D+00 0.241713731236D-04 0.157184534583D-06  6 2 21 25 2 1 -1 2 0.19157214D+00 0.88774272D-01 0.28196552D+06 0.28196552D+06 0.28196552D+06 0.10865496D+01  1  2  1  6  5  2       -1 0.214145678241D-01 0.100000000000D+01
  </mgrwgt>
  </event>
  <event>
  7     66 0.20058315E-05 0.17968154E+03 0.75467711E-02 0.90825854E-01
        2 -1    0    0  501    0 0.00000000E+00 0.00000000E+00 0.76035809E+03 0.76035815E+03 0.32000000E+00 0.0000E+00 0.9000E+01
       -1 -1    0    0    0  503 0.00000000E+00 0.00000000E+00 -.69702480E+03 0.69702487E+03 0.32000000E+00 0.0000E+00 0.9000E+01
       24  2    1    2    0    0 -.34803568E+02 -.58287907E+03 0.10055089E+03 0.59793759E+03 0.80371512E+02 0.0000E+00 0.0000E+00
       25  1    1    2    0    0 0.24507835E+03 0.55839561E+03 0.62155171E+02 0.62558558E+03 0.12500000E+03 0.0000E+00 0.9000E+01
        2  1    3    3  502    0 -.10587785E+02 -.22737565E+03 -.26648989E+00 0.22762241E+03 0.32000000E+00 0.0000E+00 0.9000E+01
       -1  1    3    3    0  502 -.24215783E+02 -.35550341E+03 0.10081738E+03 0.37031518E+03 0.32000000E+00 0.0000E+00 0.9000E+01
       21  1    1    2  501  503 -.21027478E+03 0.24483458E+02 -.99372780E+02 0.23385986E+03 0.75000000E+00 0.0000E+00 0.9000E+01
#aMCatNLO 2  0  0  2  1 0.20171595D+03 0.00000000D+00  -5  6  0 0.00000000D+00 0.00000000D+00 0.00000000D+00 0.00000000D+00 0.00000000D+00
  <mgrwgt>
 0.4353404906D-03    1    2    0
 0.597017745519724D+03 0.000000000000000D+00 0.000000000000000D+00 0.597017745519724D+03
 0.597017745519724D+03 0.000000000000000D+00 0.000000000000000D+00 -.597017745519724D+03
 0.600855747053960D+03 0.138161936556796D+03 0.570844479625092D+03 -.212247057978814D+02
 0.230480211874303D+03 -.507935533484333D+02 -.222692216606314D+03 -.308110315768559D+02
 0.362699532111184D+03 -.873683832083628D+02 -.348152263018777D+03 0.520357373747373D+02
 0.000000000000000D+00 -.000000000000000D+00 0.000000000000000D+00 -.000000000000000D+00
 0.665151518298642D+03 0.000000000000000D+00 0.000000000000000D+00 0.665151518298642D+03
 0.796792418567357D+03 0.000000000000000D+00 0.000000000000000D+00 -.796792418567357D+03
 0.622851941271859D+03 0.245078346866077D+03 0.558395609319510D+03 -.212247057978814D+02
 0.229695843158775D+03 -.105875692038578D+02 -.227373622207907D+03 -.308110315768559D+02
 0.360108669885407D+03 -.242159988302685D+02 -.355505445194805D+03 0.520357373747373D+02
 0.249287482549958D+03 -.210274778831951D+03 0.244834580832021D+02 -.131640900268715D+03
0.903168506780D-04 0.000000000000D+00 0.000000000000D+00 0.202979212412D-03 0.290556559366D-07  6 2 -1 25 2 -1 21 2 0.11697808D+00 0.10723451D+00 0.50277658D+06 0.50277658D+06 0.50277658D+06 0.10683405D+01  1  2  1  2  6  2       -1 0.435340490551D-03 0.100000000000D+01
  </mgrwgt>
  </event>
  <event>
  6     66 0.20058315E-05 0.53283906E+02 0.75467711E-02 0.93254294E-01
        2 -1    0    0  501    0 0.00000000E+00 0.00000000E+00 0.36333776E+03 0.36333791E+03 0.32000000E+00 0.0000E+00 0.9000E+01
       -1 -1    0    0    0  501 -.00000000E+00 -.00000000E+00 -.98590787E+03 0.98590792E+03 0.32000000E+00 0.0000E+00 0.9000E+01
       25  1    1    2    0    0 0.40021112E+03 0.35871072E+03 -.12995124E+03 0.56688151E+03 0.12500000E+03 0.0000E+00 0.9000E+01
        2  1    1    2  503    0 -.20984774E+03 -.13547617E+03 -.13156800E+03 0.28231207E+03 0.32000000E+00 0.0000E+00 0.9000E+01
       -1  1    1    2    0  502 -.21495214E+03 -.18549362E+03 -.24305506E+03 0.37374880E+03 0.32000000E+00 0.0000E+00 0.9000E+01
       21  1    1    2  502  503 0.24588757E+02 -.37740937E+02 -.11799581E+03 0.12630344E+03 0.75000000E+00 0.0000E+00 0.9000E+01
#aMCatNLO 2  0  0  4  1 0.34649423D+01 0.00000000D+00  -5  6  0 0.00000000D+00 0.00000000D+00 0.00000000D+00 0.00000000D+00 0.00000000D+00
  <mgrwgt>
 0.1988057457D+00    1    2    0
 0.598512900292034D+03 0.000000000000000D+00 0.000000000000000D+00 0.598512900292034D+03
 0.598512900292034D+03 -.000000000000000D+00 -.000000000000000D+00 -.598512900292034D+03
 0.604975808578432D+03 0.424453460169630D+03 0.381377285899002D+03 0.157357411377624D+03
 0.312050190052731D+03 -.219958303577869D+03 -.205729844565241D+03 -.816633140048408D+02
 0.279999801952905D+03 -.204495156591761D+03 -.175647441333761D+03 -.756940973727827D+02
 0.000000000000000D+00 0.000000000000000D+00 0.000000000000000D+00 -.000000000000000D+00
 0.598512900292034D+03 0.000000000000000D+00 0.000000000000000D+00 0.598512900292034D+03
 0.598512900292034D+03 -.000000000000000D+00 -.000000000000000D+00 -.598512900292034D+03
 0.571520642679781D+03 0.400314910809021D+03 0.358800188661886D+03 0.148395558590107D+03
 0.248018451570746D+03 -.208422921903400D+03 -.134430374482782D+03 -.122978096360649D+01
 0.296774428057593D+03 -.216329015679178D+03 -.186715802705258D+03 -.800876216672755D+02
 0.807122782759489D+02 0.244370267735578D+02 -.376540114738464D+02 -.670781559592247D+02
0.409393469828D-01 0.000000000000D+00 0.000000000000D+00 0.186387850291D-06 0.533005257742D-06  6 2 -1 25 2 -1 21 2 0.55898132D-01 0.15167815D+00 0.31955676D+06 0.31955676D+06 0.31955676D+06 0.10825285D+01  1  2  1  3  6  4        2 0.198805745658D+00 0.100000000000D+01
  </mgrwgt>
  </event>
  <event>
  7     66 0.20058315E-05 0.71911800E+02 0.75467711E-02 0.93893275E-01
        2 -1    0    0  503    0 0.00000000E+00 0.00000000E+00 0.28429359E+04 0.28429359E+04 0.32000000E+00 0.0000E+00 0.9000E+01
       -1 -1    0    0    0  501 0.00000000E+00 0.00000000E+00 -.20776655E+03 0.20776680E+03 0.32000000E+00 0.0000E+00 0.9000E+01
       24  2    1    2    0    0 -.45655026E+03 0.44166598E+02 0.11942205E+04 0.12817303E+04 0.79253147E+02 0.0000E+00 0.0000E+00
       25  1    1    2    0    0 0.49307054E+03 0.40404134E+02 0.23894819E+03 0.56344679E+03 0.12500000E+03 0.0000E+00 0.9000E+01
        2  1    3    3  502    0 -.86721321E+02 0.38788904E+02 0.27141304E+03 0.28755923E+03 0.32000000E+00 0.0000E+00 0.9000E+01
       -1  1    3    3    0  502 -.36982894E+03 0.53776935E+01 0.92280747E+03 0.99417106E+03 0.32000000E+00 0.0000E+00 0.9000E+01
       21  1    1    2  503  501 -.36520282E+02 -.84570732E+02 0.12020006E+04 0.12055256E+04 0.75000000E+00 0.0000E+00 0.9000E+01
#aMCatNLO 2  0  0  1  2 0.73253398D+01 0.00000000D+00  -5  6  0 0.00000000D+00 0.00000000D+00 0.00000000D+00 0.00000000D+00 0.00000000D+00
  <mgrwgt>
 0.8870652817D-02    1    2    0
 0.579271089362847D+03 0.000000000000000D+00 0.000000000000000D+00 0.579271089362847D+03
 0.579271089362847D+03 0.000000000000000D+00 0.000000000000000D+00 -.579271089362847D+03
 0.583303717105174D+03 0.474451043289991D+03 -.271339900887958D+01 -.315447414596428D+03
 0.122134047304661D+03 -.905561142681942D+02 0.298984540854216D+02 0.763046402453009D+02
 0.453104414315860D+03 -.383894929021796D+03 -.271850550765420D+02 0.239142774351127D+03
 0.000000000000000D+00 -.000000000000000D+00 -.000000000000000D+00 0.000000000000000D+00
 0.100784207848548D+04 0.000000000000000D+00 0.000000000000000D+00 0.100784207848548D+04
 0.586070716144959D+03 0.000000000000000D+00 0.000000000000000D+00 -.586070716144959D+03
 0.599902594707058D+03 0.493070540278737D+03 0.404041343172314D+02 -.315447414596428D+03
 0.121847471943178D+03 -.867167050987258D+02 0.387894489880868D+02 0.763046402453009D+02
 0.440448676958420D+03 -.369833552805180D+03 0.537714883247698D+01 0.239142774351127D+03
 0.431714051021787D+03 -.365202823748308D+02 -.845707321377951D+02 0.421771362340525D+03
0.272541876460D-02 0.000000000000D+00 0.000000000000D+00 0.650664023035D-04 0.541872113171D-07  6 2 -1 25 2 -1 21 2 0.43737453D+00 0.31964087D-01 0.28476058D+06 0.28476058D+06 0.28476058D+06 0.10862310D+01  1  2  1  1  6  1        2 0.887065281680D-02 0.100000000000D+01
  </mgrwgt>
  </event>
  <event>
  7     66 0.20058315E-05 0.39762167E+02 0.75467711E-02 0.93707872E-01
        2 -1    0    0  503    0 0.00000000E+00 0.00000000E+00 0.27901826E+04 0.27901826E+04 0.32000000E+00 0.0000E+00 0.9000E+01
       -1 -1    0    0    0  501 0.00000000E+00 0.00000000E+00 -.11430256E+03 0.11430301E+03 0.32000000E+00 0.0000E+00 0.9000E+01
       24  2    1    2    0    0 -.32257444E+03 -.39745335E+03 0.15406883E+04 0.16254907E+04 0.80473190E+02 0.0000E+00 0.0000E+00
       25  1    1    2    0    0 0.31142959E+03 0.42471338E+03 0.96652643E+03 0.11077762E+04 0.12500000E+03 0.0000E+00 0.9000E+01
        2  1    3    3  502    0 -.24007111E+03 -.25814558E+03 0.11423101E+04 0.11954688E+04 0.32000000E+00 0.0000E+00 0.9000E+01
       -1  1    3    3    0  502 -.82503328E+02 -.13930777E+03 0.39837828E+03 0.43002187E+03 0.32000000E+00 0.0000E+00 0.9000E+01
       21  1    1    2  503  501 0.11144845E+02 -.27260025E+02 0.16866527E+03 0.17121872E+03 0.75000000E+00 0.0000E+00 0.9000E+01
#aMCatNLO 2  0  0  1  2 0.73253398D+01 0.00000000D+00  -5  6  0 0.00000000D+00 0.00000000D+00 0.00000000D+00 0.00000000D+00 0.00000000D+00
  <mgrwgt>
 0.3272155738D-02    1    2    0
 0.544002474101903D+03 0.000000000000000D+00 0.000000000000000D+00 0.544002474101903D+03
 0.544002474101903D+03 0.000000000000000D+00 0.000000000000000D+00 -.544002474101903D+03
 0.548206988818860D+03 0.317081169693040D+03 0.410889755144762D+03 -.124639654737217D+03
 0.374891465829975D+03 -.236255373489091D+03 -.267486752420617D+03 0.114794803580778D+03
 0.164906493554972D+03 -.808257962039487D+02 -.143403002724145D+03 0.984485115643984D+01
 0.000000000000000D+00 0.000000000000000D+00 -.000000000000000D+00 0.000000000000000D+00
 0.579493689433041D+03 0.000000000000000D+00 0.000000000000000D+00 0.579493689433041D+03
 0.550345595558467D+03 0.000000000000000D+00 0.000000000000000D+00 -.550345595558467D+03
 0.555454666670640D+03 0.311429593444278D+03 0.424713375725690D+03 -.124639654737217D+03
 0.370746936274834D+03 -.240073601894998D+03 -.258147456894675D+03 0.114794803580778D+03
 0.162201853422241D+03 -.825008365166687D+02 -.139305894108496D+03 0.984485115643984D+01
 0.414358286237935D+02 0.111448449673891D+02 -.272600247225184D+02 0.291480938745733D+02
0.349658265523D-03 0.000000000000D+00 0.000000000000D+00 0.299597446799D-03 0.217230000336D-05  6 2 -1 25 2 -1 21 2 0.42925627D+00 0.17584938D-01 0.29439862D+06 0.29439862D+06 0.29439862D+06 0.10851580D+01  1  2  1  1  6  1        2 0.327215573843D-02 0.100000000000D+01
  </mgrwgt>
  </event>
  <event>
  5     66 0.20058315E-05 0.81859412E+02 0.75467711E-02 0.91080961E-01
        2 -1    0    0  501    0 0.00000000E+00 0.00000000E+00 0.89688919E+03 0.89688924E+03 0.32000000E+00 0.0000E+00 0.9000E+01
       -1 -1    0    0    0  501 0.00000000E+00 0.00000000E+00 -.74687960E+03 0.74687967E+03 0.32000000E+00 0.0000E+00 0.9000E+01
       25  1    1    2    0    0 -.37602777E+03 -.57401446E+03 -.34241306E+03 0.77702071E+03 0.12500000E+03 0.0000E+00 0.9000E+01
        2  1    1    2  502    0 0.31161928E+03 0.48808158E+03 0.49120385E+03 0.75934941E+03 0.32000000E+00 0.0000E+00 0.9000E+01
       -1  1    1    2    0  502 0.64408486E+02 0.85932880E+02 0.12187929E+01 0.10739879E+03 0.32000000E+00 0.0000E+00 0.9000E+01
#aMCatNLO 1  0  0  2  5 0.98893111D+03 0.00000000D+00  -5  6  0 0.00000000D+00 0.00000000D+00 0.00000000D+00 0.00000000D+00 0.00000000D+00
  <mgrwgt>
 0.2828490747D-02    5    4    0
 0.818454850030697D+03 0.000000000000000D+00 0.000000000000000D+00 0.818454850030697D+03
 0.818454850030697D+03 0.000000000000000D+00 0.000000000000000D+00 -.818454850030697D+03
 0.811656202684169D+03 -.376027818454111D+03 -.574014541609569D+03 -.415055631361729D+03
 0.717518105962428D+03 0.311620067561773D+03 0.488082791135918D+03 0.423674822090809D+03
 0.107735391414797D+03 0.644077508923384D+02 0.859317504736506D+02 -.861919072907958D+01
 0.000000000000000D+00 -.000000000000000D+00 -.000000000000000D+00 -.000000000000000D+00
 0.115519038075403D+04 0.000000000000000D+00 0.000000000000000D+00 0.115519038075403D+04
 0.218505636356142D+04 0.000000000000000D+00 0.000000000000000D+00 -.218505636356142D+04
 0.540559225505576D+03 -.230043964760947D+03 -.226688935396433D+03 -.415055631361729D+03
 0.118308173405492D+04 0.516806965440748D+03 0.976264613233858D+03 0.423674822090809D+03
 0.188807238804490D+03 0.964222029102930D+02 0.162100714872198D+03 -.861919072907958D+01
 0.142779854595046D+04 -.383185203590095D+03 -.911676392709623D+03 -.102986598280739D+04
 0.818454850030697D+03 0.000000000000000D+00 0.000000000000000D+00 0.818454850030697D+03
 0.818454850030697D+03 0.000000000000000D+00 0.000000000000000D+00 -.818454850030697D+03
 0.811656202684169D+03 -.376027818454111D+03 -.574014541609569D+03 -.415055631361729D+03
 0.717518105962428D+03 0.311620067561773D+03 0.488082791135918D+03 0.423674822090809D+03
 0.000000000000000D+00 -.000000000000000D+00 -.000000000000000D+00 -.000000000000000D+00
 0.107735391414797D+03 0.644077508923384D+02 0.859317504736506D+02 -.861919072907958D+01
 0.115519038075403D+04 0.000000000000000D+00 0.000000000000000D+00 0.115519038075403D+04
 0.218505636356142D+04 0.000000000000000D+00 0.000000000000000D+00 -.218505636356142D+04
 0.540559225505576D+03 -.230043964760947D+03 -.226688935396433D+03 -.415055631361729D+03
 0.118308173405492D+04 0.516806965440748D+03 0.976264613233858D+03 0.423674822090809D+03
 0.142779854595046D+04 -.383185203590095D+03 -.911676392709623D+03 -.102986598280739D+04
 0.188807238804490D+03 0.964222029102930D+02 0.162100714872198D+03 -.861919072907958D+01
0.122835280951D-02 0.000000000000D+00 0.000000000000D+00 0.590870174413D-08 0.000000000000D+00  6 2 -1 25 2 -1 21 0 0.13798296D+00 0.11490456D+00 0.47884637D+06 0.47884637D+06 0.47884637D+06 0.10698398D+01  1  2  2  2  6  2       -1 0.355130448183D-02 0.100000000000D+01
0.117733052848D-03 0.000000000000D+00 -.471719822126D-05 0.590870174413D-08 0.000000000000D+00  6 2 -1 25 2 -1 21 2 0.13798296D+00 0.11490456D+00 0.47884637D+06 0.47884637D+06 0.47884637D+06 0.10698398D+01  1  2  3  2  6  2       -1 0.389583595007D-03 0.100000000000D+01
-.335225853046D-03 0.000000000000D+00 0.000000000000D+00 0.590870174413D-08 0.000000000000D+00  6 2 -1 25 2 -1 21 2 0.13798296D+00 0.11490456D+00 0.47884637D+06 0.47884637D+06 0.47884637D+06 0.10698398D+01  1  2 15  2  6  2       -1 -.110927636555D-02 0.100000000000D+01
-.125501454024D-03 0.000000000000D+00 -.365596252217D-03 0.590870174413D-08 0.000000000000D+00  6 2 -1 25 2 -1 21 2 0.13798296D+00 0.35508160D+00 0.47884637D+06 0.47884637D+06 0.47884637D+06 0.10698398D+01  1  2  5  2  6  2       -1 -.347157837916D-05 0.100000000000D+01
0.100023392963D-05 0.000000000000D+00 -.471956513862D-04 0.590870174413D-08 0.000000000000D+00  6 2 21 25 2 1 -1 2 0.13798296D+00 0.35508160D+00 0.47884637D+06 0.47884637D+06 0.47884637D+06 0.10698398D+01  3  4  5  6  5  2       -1 0.350613622160D-06 0.100000000000D+01
  </mgrwgt>
  </event>
  <event>
  7     66 0.20058315E-05 0.61176316E+02 0.75467711E-02 0.91136548E-01
        2 -1    0    0  501    0 0.00000000E+00 0.00000000E+00 0.10436212E+04 0.10436213E+04 0.32000000E+00 0.0000E+00 0.9000E+01
       -1 -1    0    0    0  503 0.00000000E+00 0.00000000E+00 -.50947737E+03 0.50947747E+03 0.32000000E+00 0.0000E+00 0.9000E+01
       24  2    1    2    0    0 0.61783634E+03 0.25122416E+03 0.55111574E+02 0.67414871E+03 0.81264257E+02 0.0000E+00 0.0000E+00
       25  1    1    2    0    0 -.63135761E+03 -.25335882E+03 0.50029362E+03 0.85365205E+03 0.12500000E+03 0.0000E+00 0.9000E+01
        2  1    3    3  502    0 0.26735661E+03 0.68276449E+02 0.86529842E+01 0.27607283E+03 0.32000000E+00 0.0000E+00 0.9000E+01
       -1  1    3    3    0  502 0.35047973E+03 0.18294771E+03 0.46458590E+02 0.39807588E+03 0.32000000E+00 0.0000E+00 0.9000E+01
       21  1    1    2  501  503 0.13521267E+02 0.21346614E+01 -.21261333E+02 0.25297988E+02 0.75000000E+00 0.0000E+00 0.9000E+01
#aMCatNLO 2  0  0  2  5 0.98893111D+03 0.00000000D+00  -5  6  0 0.00000000D+00 0.00000000D+00 0.00000000D+00 0.00000000D+00 0.00000000D+00
  <mgrwgt>
 0.3853662286D-02    1    2    0
 0.711602567180328D+03 0.000000000000000D+00 0.000000000000000D+00 0.711602567180328D+03
 0.711602567180328D+03 0.000000000000000D+00 0.000000000000000D+00 -.711602567180328D+03
 0.714771864552596D+03 -.624536879329618D+03 -.252282001977933D+03 0.203914923905100D+03
 0.295626060833046D+03 0.270151257543433D+03 0.687160775524919D+02 -.984437228936690D+02
 0.412807208975014D+03 0.354385621786185D+03 0.183565924425441D+03 -.105471201011431D+03
 0.000000000000000D+00 0.000000000000000D+00 0.000000000000000D+00 -.000000000000000D+00
 0.713010467309511D+03 0.000000000000000D+00 0.000000000000000D+00 0.713010467309511D+03
 0.745705194693865D+03 0.000000000000000D+00 0.000000000000000D+00 -.745705194693865D+03
 0.721116782311673D+03 -.631357605482595D+03 -.253358819739124D+03 0.203914923905100D+03
 0.292970075454689D+03 0.267355321334113D+03 0.682746709189712D+02 -.984437228936690D+02
 0.409184105864429D+03 0.350481017016943D+03 0.182949487455000D+03 -.105471201011431D+03
 0.354446983725850D+02 0.135212671315383D+02 0.213466136515265D+01 -.326947273843541D+02
0.618729107634D-03 0.000000000000D+00 0.000000000000D+00 0.139250447078D-03 0.454247328315D-05  6 2 -1 25 2 -1 21 2 0.16055623D+00 0.78380710D-01 0.47380260D+06 0.47380260D+06 0.47380260D+06 0.10701662D+01  1  2  1  2  6  2       -1 0.385366228623D-02 0.100000000000D+01
  </mgrwgt>
  </event>
  <event>
  7     66 0.20058315E-05 0.58990995E+02 0.75467711E-02 0.92992243E-01
        2 -1    0    0  501    0 0.00000000E+00 0.00000000E+00 0.78469840E+03 0.78469847E+03 0.32000000E+00 0.0000E+00 0.9000E+01
       -1 -1    0    0    0  503 0.00000000E+00 0.00000000E+00 -.61475527E+03 0.61475535E+03 0.32000000E+00 0.0000E+00 0.9000E+01
       24  2    1    2    0    0 -.25053820E+03 -.47911759E+03 -.82113198E+02 0.55278293E+03 0.80643284E+02 0.0000E+00 0.0000E+00
       25  1    1    2    0    0 0.25104830E+03 0.50978451E+03 0.39319627E+03 0.70223486E+03 0.12500000E+03 0.0000E+00 0.9000E+01
        2  1    3    3  502    0 -.10427677E+03 -.27646015E+03 -.25834345E+02 0.29659969E+03 0.32000000E+00 0.0000E+00 0.9000E+01
       -1  1    3    3    0  502 -.14626142E+03 -.20265744E+03 -.56278853E+02 0.25618325E+03 0.32000000E+00 0.0000E+00 0.9000E+01
       21  1    1    2  501  503 -.51010101E+00 -.30666920E+02 -.14113994E+03 0.14443602E+03 0.75000000E+00 0.0000E+00 0.9000E+01
#aMCatNLO 2  0  0  2  5 0.98893111D+03 0.00000000D+00  -5  6  0 0.00000000D+00 0.00000000D+00 0.00000000D+00 0.00000000D+00 0.00000000D+00
  <mgrwgt>
 0.3253371847D-02    1    2    0
 0.607732726702211D+03 0.000000000000000D+00 0.000000000000000D+00 0.607732726702211D+03
 0.607732726702211D+03 0.000000000000000D+00 0.000000000000000D+00 -.607732726702211D+03
 0.611485059095893D+03 0.250789033199765D+03 0.494197776840395D+03 0.226191060146609D+03
 0.319882863292290D+03 -.104408842042638D+03 -.284441072130972D+03 -.102552993210206D+03
 0.284097531016240D+03 -.146380191157127D+03 -.209756704709423D+03 -.123638066936402D+03
 0.000000000000000D+00 -.000000000000000D+00 -.000000000000000D+00 -.000000000000000D+00
 0.609204896251034D+03 0.000000000000000D+00 0.000000000000000D+00 0.609204896251034D+03
 0.791845864580302D+03 0.000000000000000D+00 0.000000000000000D+00 -.791845864580302D+03
 0.624253867922247D+03 0.251048296580263D+03 0.509784512034043D+03 0.226191060146609D+03
 0.312764255090875D+03 -.104276109936374D+03 -.276461309666859D+03 -.102552993210206D+03
 0.278834248214266D+03 -.146262085631047D+03 -.202656282133817D+03 -.123638066936402D+03
 0.185198389603948D+03 -.510101012842510D+00 -.306669202333673D+02 -.182640968329268D+03
0.507985610962D-03 0.000000000000D+00 0.000000000000D+00 0.267422567570D-03 0.182388656590D-05  6 2 -1 25 2 -1 21 2 0.12072269D+00 0.94577627D-01 0.33518446D+06 0.33518446D+06 0.33518446D+06 0.10810065D+01  1  2  1  2  6  2       -1 0.325337184678D-02 0.100000000000D+01
  </mgrwgt>
  </event>
  <event>
  7     66 0.20058315E-05 0.37947594E+02 0.75467711E-02 0.93855489E-01
        2 -1    0    0  501    0 0.00000000E+00 0.00000000E+00 0.12326473E+04 0.12326474E+04 0.32000000E+00 0.0000E+00 0.9000E+01
       -1 -1    0    0    0  503 0.00000000E+00 0.00000000E+00 -.23295067E+03 0.23295089E+03 0.32000000E+00 0.0000E+00 0.9000E+01
       24  2    1    2    0    0 0.46772885E+03 0.21343969E+03 0.48623062E+03 0.71188098E+03 0.77637207E+02 0.0000E+00 0.0000E+00
       25  1    1    2    0    0 -.40583907E+03 -.23506230E+03 0.43836693E+03 0.65402615E+03 0.12500000E+03 0.0000E+00 0.9000E+01
        2  1    3    3  502    0 0.24096209E+03 0.15240290E+03 0.26821517E+03 0.39144457E+03 0.32000000E+00 0.0000E+00 0.9000E+01
       -1  1    3    3    0  502 0.22676676E+03 0.61036791E+02 0.21801545E+03 0.32043641E+03 0.32000000E+00 0.0000E+00 0.9000E+01
       21  1    1    2  501  503 -.61889781E+02 0.21622608E+02 0.75099107E+02 0.99691126E+02 0.75000000E+00 0.0000E+00 0.9000E+01
#aMCatNLO 2  0  0  2  5 0.98893111D+03 0.00000000D+00  -5  6  0 0.00000000D+00 0.00000000D+00 0.00000000D+00 0.00000000D+00 0.00000000D+00
  <mgrwgt>
 0.2667854995D-02    1    2    0
 0.501628289577815D+03 0.000000000000000D+00 0.000000000000000D+00 0.501628289577815D+03
 0.501628289577815D+03 0.000000000000000D+00 0.000000000000000D+00 -.501628289577815D+03
 0.506411444941322D+03 -.436398555001490D+03 -.224385645665169D+03 -.591056508245993D+01
 0.274176097854711D+03 0.223728666923906D+03 0.158425426311958D+03 0.440460317878050D+01
 0.222669036359596D+03 0.212669888077584D+03 0.659602193532104D+02 0.150596190367943D+01
 0.000000000000000D+00 -.000000000000000D+00 0.000000000000000D+00 0.000000000000000D+00
 0.541057283078270D+03 0.000000000000000D+00 0.000000000000000D+00 0.541057283078270D+03
 0.530708931586582D+03 0.000000000000000D+00 0.000000000000000D+00 -.530708931586582D+03
 0.485406601258746D+03 -.405839067593119D+03 -.235062300212351D+03 -.591056508245993D+01
 0.285147964540783D+03 0.240962328589431D+03 0.152404453193953D+03 0.440460317878050D+01
 0.234841697233170D+03 0.226766519567593D+03 0.610352393400793D+02 0.150596190367943D+01
 0.663699516321541D+02 -.618897805639061D+02 0.216226076783192D+02 0.103483514916878D+02
0.123502728171D-03 0.000000000000D+00 0.000000000000D+00 0.354161674529D-04 0.519366830030D-07  6 2 -1 25 2 -1 21 2 0.18963732D+00 0.35838442D-01 0.28669581D+06 0.28669581D+06 0.28669581D+06 0.10860124D+01  1  2  1  2  6  2       -1 0.266785499475D-02 0.100000000000D+01
  </mgrwgt>
  </event>
  <event>
  7     66 0.20058315E-05 0.72517311E+02 0.75467711E-02 0.95395926E-01
        2 -1    0    0  501    0 0.00000000E+00 0.00000000E+00 0.17891835E+04 0.17891835E+04 0.32000000E+00 0.0000E+00 0.9000E+01
       21 -1    0    0  503  501 0.00000000E+00 0.00000000E+00 -.20539979E+03 0.20540116E+03 0.75000000E+00 0.0000E+00 0.9000E+01
       24  2    1    2    0    0 -.44105824E+03 -.57452370E+02 0.49052646E+03 0.66768487E+03 0.85753948E+02 0.0000E+00 0.0000E+00
       25  1    1    2    0    0 0.45217237E+03 0.48748664E+02 0.11633880E+04 0.12553617E+04 0.12500000E+03 0.0000E+00 0.9000E+01
        2  1    3    3  502    0 -.23338413E+03 -.61557103E+02 0.30689003E+03 0.39043440E+03 0.32000000E+00 0.0000E+00 0.9000E+01
        1  1    1    2  503    0 -.11114126E+02 0.87037062E+01 -.70130758E+02 0.71538129E+02 0.32000000E+00 0.0000E+00 0.9000E+01
       -1  1    3    3    0  502 -.20767411E+03 0.41047333E+01 0.18363643E+03 0.27725047E+03 0.32000000E+00 0.0000E+00 0.9000E+01
#aMCatNLO 2  0  0  2  1 0.11797242D+02 0.00000000D+00  -5  6  0 0.00000000D+00 0.00000000D+00 0.00000000D+00 0.00000000D+00 0.00000000D+00
  <mgrwgt>
 0.9019930389D-02    1    2    0
 0.490529230074578D+03 0.000000000000000D+00 0.000000000000000D+00 0.490529230074578D+03
 0.490529230074578D+03 0.000000000000000D+00 0.000000000000000D+00 -.490529230074578D+03
 0.494744708716824D+03 0.446541567561518D+03 0.531582627671258D+02 0.164079719473732D+03
 0.250048246693827D+03 -.236205041170263D+03 -.593491825077976D+02 -.566478484681242D+02
 0.000000000000000D+00 -.000000000000000D+00 0.000000000000000D+00 -.000000000000000D+00
 0.236265504738504D+03 -.210336526391255D+03 0.619091974067179D+01 -.107431871005608D+03
 0.490772930761563D+03 0.000000000000000D+00 0.000000000000000D+00 0.490772930761563D+03
 0.748817084171045D+03 0.000000000000000D+00 0.000000000000000D+00 -.748817084171045D+03
 0.499383056822755D+03 0.452172368512055D+03 0.487486641176847D+02 0.164079719473732D+03
 0.247924764132551D+03 -.233384491337636D+03 -.615580144025655D+02 -.566478484681242D+02
 0.258429997128543D+03 -.111141264270225D+02 0.870370615349897D+01 -.258044153409482D+03
 0.233852196848759D+03 -.207673750747396D+03 0.410564413138187D+01 -.107431871005608D+03
0.632970660902D-04 0.000000000000D+00 0.000000000000D+00 0.107442387164D-04 0.186395663419D-07  6 2 21 25 2 1 -1 2 0.27525905D+00 0.31600069D-01 0.21848860D+06 0.21848860D+06 0.21848860D+06 0.10948884D+01  1  2  1  6  5  2       -1 0.901993038856D-02 0.100000000000D+01
  </mgrwgt>
  </event>
  <event>
  6     66 0.20058315E-05 0.23874282E+02 0.75467711E-02 0.94928646E-01
        2 -1    0    0  501    0 0.00000000E+00 0.00000000E+00 0.24718053E+04 0.24718053E+04 0.32000000E+00 0.0000E+00 0.9000E+01
       -1 -1    0    0    0  501 0.00000000E+00 0.00000000E+00 -.15387537E+03 0.15387570E+03 0.32000000E+00 0.0000E+00 0.9000E+01
       25  1    1    2    0    0 0.32840599E+03 -.34247973E+03 0.19604664E+04 0.20209395E+04 0.12500000E+03 0.0000E+00 0.9000E+01
        2  1    1    2  502    0 -.14814916E+02 0.54637924E+02 0.40456671E+02 0.69581816E+02 0.32000000E+00 0.0000E+00 0.9000E+01
       -1  1    1    2    0  503 -.29346371E+03 0.27709179E+03 0.31548048E+03 0.51227809E+03 0.32000000E+00 0.0000E+00 0.9000E+01
       21  1    1    2  503  502 -.20127370E+02 0.10750023E+02 0.15263109E+01 0.22881567E+02 0.75000000E+00 0.0000E+00 0.9000E+01
#aMCatNLO 2  0  0  5  1 0.38386005D+02 0.00000000D+00  -5  6  0 0.00000000D+00 0.00000000D+00 0.00000000D+00 0.00000000D+00 0.00000000D+00
  <mgrwgt>
 0.2540865535D-01    1    2    0
 0.616725553894177D+03 0.000000000000000D+00 0.000000000000000D+00 0.616725553894177D+03
 0.616725553894177D+03 -.000000000000000D+00 -.000000000000000D+00 -.616725553894177D+03
 0.620013823011321D+03 0.329677835813762D+03 -.343647144887860D+03 0.376843873651530D+03
 0.718673377540484D+02 -.146649544499407D+02 0.545065258507749D+02 -.444847388046108D+02
 0.541569947022984D+03 -.315012881363821D+03 0.289140619037085D+03 -.332359134846919D+03
 0.000000000000000D+00 0.000000000000000D+00 0.000000000000000D+00 -.000000000000000D+00
 0.616725553894177D+03 0.000000000000000D+00 0.000000000000000D+00 0.616725553894177D+03
 0.616725553894177D+03 -.000000000000000D+00 -.000000000000000D+00 -.616725553894177D+03
 0.617872966732294D+03 0.328404728087590D+03 -.342478598527303D+03 0.375500661968867D+03
 0.720973983010932D+02 -.148130153382922D+02 0.546424263788035D+02 -.446409526982907D+02
 0.497640209910827D+03 -.293470216940644D+03 0.277100433600313D+03 -.291095104712226D+03
 0.458405328441397D+02 -.201214958086539D+02 0.107357385481869D+02 -.397646045583501D+02
0.278811479290D-02 0.000000000000D+00 0.000000000000D+00 0.175528945296D-05 0.187476663302D-06  6 2 -1 25 2 -1 21 2 0.38027776D+00 0.23673161D-01 0.23703305D+06 0.23703305D+06 0.23703305D+06 0.10922035D+01  1  2  1  4  6  5       -1 0.254086553503D-01 0.100000000000D+01
  </mgrwgt>
  </event>
  <event>
  7     66 0.20058315E-05 0.12028854E+03 0.75467711E-02 0.95146453E-01
        2 -1    0    0  501    0 0.00000000E+00 0.00000000E+00 0.10396876E+04 0.10396876E+04 0.32000000E+00 0.0000E+00 0.9000E+01
       21 -1    0    0  503  501 0.00000000E+00 0.00000000E+00 -.33145683E+03 0.33145768E+03 0.75000000E+00 0.0000E+00 0.9000E+01
       24  2    1    2    0    0 -.31069091E+03 -.52551561E+02 0.54060469E+03 0.63097212E+03 0.81128745E+02 0.0000E+00 0.0000E+00
       25  1    1    2    0    0 0.45427178E+03 0.98346219E+02 0.27573719E+03 0.55469886E+03 0.12500000E+03 0.0000E+00 0.9000E+01
        2  1    3    3  502    0 -.19644352E+03 -.68375930E+02 0.31300102E+03 0.37581254E+03 0.32000000E+00 0.0000E+00 0.9000E+01
        1  1    1    2  503    0 -.14358087E+03 -.45794658E+02 -.10811112E+03 0.18547434E+03 0.32000000E+00 0.0000E+00 0.9000E+01
       -1  1    3    3    0  502 -.11424739E+03 0.15824369E+02 0.22760367E+03 0.25515958E+03 0.32000000E+00 0.0000E+00 0.9000E+01
#aMCatNLO 2  0  0  2  1 0.68588277D+00 0.00000000D+00  -5  6  0 0.00000000D+00 0.00000000D+00 0.00000000D+00 0.00000000D+00 0.00000000D+00
  <mgrwgt>
 0.4626100458D-01    1    2    0
 0.423287431949646D+03 0.000000000000000D+00 0.000000000000000D+00 0.423287431949646D+03
 0.423287431949646D+03 0.000000000000000D+00 0.000000000000000D+00 -.423287431949646D+03
 0.428628440274248D+03 0.375877813734919D+03 0.733427140436417D+02 -.146403740561863D+03
 0.261539009003346D+03 -.237049444830812D+03 -.813279615690988D+02 0.748062604523933D+02
 0.000000000000000D+00 -.000000000000000D+00 -.000000000000000D+00 -.000000000000000D+00
 0.156407414621697D+03 -.138828368904107D+03 0.798524752545708D+01 0.715974801094698D+02
 0.446556399655769D+03 0.000000000000000D+00 0.000000000000000D+00 0.446556399655769D+03
 0.771710061072770D+03 0.000000000000000D+00 0.000000000000000D+00 -.771710061072770D+03
 0.503084373614777D+03 0.454271783029572D+03 0.983462193884459D+02 -.146403740561863D+03
 0.221047466292214D+03 -.196444798460840D+03 -.683772397001818D+02 0.748062604523933D+02
 0.358381807605796D+03 -.143580868466975D+03 -.457946579874284D+02 -.325153661417001D+03
 0.135752813215752D+03 -.114246116101757D+03 0.158256782991643D+02 0.715974801094698D+02
0.335034639967D-03 0.000000000000D+00 0.000000000000D+00 0.126359775484D-03 0.290291265075D-08  6 2 21 25 2 1 -1 2 0.15995198D+00 0.50993420D-01 0.22817791D+06 0.22817791D+06 0.22817791D+06 0.10934558D+01  1  2  1  6  5  2       -1 0.462610045808D-01 0.100000000000D+01
  </mgrwgt>
  </event>
  <event>
  7     66 0.20058315E-05 0.39353483E+02 0.75467711E-02 0.92423799E-01
        2 -1    0    0  501    0 0.00000000E+00 0.00000000E+00 0.72931453E+03 0.72931460E+03 0.32000000E+00 0.0000E+00 0.9000E+01
       -1 -1    0    0    0  503 0.00000000E+00 0.00000000E+00 -.10268556E+04 0.10268556E+04 0.32000000E+00 0.0000E+00 0.9000E+01
       24  2    1    2    0    0 -.28591956E+03 -.50850577E+03 0.40569165E+03 0.71499492E+03 0.79397140E+02 0.0000E+00 0.0000E+00
       25  1    1    2    0    0 0.26266905E+03 0.52728187E+03 -.37038423E+03 0.70698704E+03 0.12500000E+03 0.0000E+00 0.9000E+01
        2  1    3    3  502    0 -.16631568E+03 -.36512244E+03 0.29419175E+03 0.49751803E+03 0.32000000E+00 0.0000E+00 0.9000E+01
       -1  1    3    3    0  502 -.11960388E+03 -.14338333E+03 0.11149990E+03 0.21747689E+03 0.32000000E+00 0.0000E+00 0.9000E+01
       21  1    1    2  501  503 0.23250513E+02 -.18776092E+02 -.33284847E+03 0.33418826E+03 0.75000000E+00 0.0000E+00 0.9000E+01
#aMCatNLO 2  0  0  2  1 0.68588277D+00 0.00000000D+00  -5  6  0 0.00000000D+00 0.00000000D+00 0.00000000D+00 0.00000000D+00 0.00000000D+00
  <mgrwgt>
 0.1866233314D-02    1    2    0
 0.710614692446884D+03 0.000000000000000D+00 0.000000000000000D+00 0.710614692446884D+03
 0.710614692446884D+03 0.000000000000000D+00 0.000000000000000D+00 -.710614692446884D+03
 0.713893928830610D+03 0.274367194334007D+03 0.517834958144836D+03 -.388058166281325D+03
 0.492580288012853D+03 -.158277083092418D+03 -.371618275495390D+03 0.281928293054127D+03
 0.214755168050304D+03 -.116090111241589D+03 -.146216682649446D+03 0.106129873227198D+03
 0.000000000000000D+00 0.000000000000000D+00 -.000000000000000D+00 -.000000000000000D+00
 0.711424833912353D+03 0.000000000000000D+00 0.000000000000000D+00 0.711424833912353D+03
 0.105267611771776D+04 0.000000000000000D+00 0.000000000000000D+00 -.105267611771776D+04
 0.716404449888453D+03 0.262669048976592D+03 0.527281865904836D+03 -.388058166281325D+03
 0.490368991821085D+03 -.166316443078801D+03 -.365126041904476D+03 0.281928293054127D+03
 0.214770118111796D+03 -.119603118951707D+03 -.143379732108682D+03 0.106129873227198D+03
 0.342557391808783D+03 0.232505130539155D+02 -.187760918916772D+02 -.341251283805411D+03
0.984237463694D-03 0.000000000000D+00 0.000000000000D+00 0.979827926559D-04 0.732028283886D-06  6 2 -1 25 2 -1 21 2 0.11220218D+00 0.15797770D+00 0.37211383D+06 0.37211383D+06 0.37211383D+06 0.10776974D+01  1  2  1  2  6  2       -1 0.186623331437D-02 0.100000000000D+01
  </mgrwgt>
  </event>
  <event>
  7     66 0.20058315E-05 0.47290508E+02 0.75467711E-02 0.93110506E-01
        2 -1    0    0  503    0 0.00000000E+00 0.00000000E+00 0.80437276E+03 0.80437282E+03 0.32000000E+00 0.0000E+00 0.9000E+01
       -1 -1    0    0    0  501 0.00000000E+00 0.00000000E+00 -.54127866E+03 0.54127875E+03 0.32000000E+00 0.0000E+00 0.9000E+01
       24  2    1    2    0    0 0.36792219E+03 -.42716352E+03 -.10978186E+03 0.57998328E+03 0.80580005E+02 0.0000E+00 0.0000E+00
       25  1    1    2    0    0 -.35618412E+03 0.42519227E+03 0.21582007E+03 0.60816026E+03 0.12500000E+03 0.0000E+00 0.9000E+01
        2  1    3    3  502    0 0.98885663E+02 -.14103424E+03 -.24756942E+00 0.17224748E+03 0.32000000E+00 0.0000E+00 0.9000E+01
       -1  1    3    3    0  502 0.26903653E+03 -.28612927E+03 -.10953429E+03 0.40773579E+03 0.32000000E+00 0.0000E+00 0.9000E+01
       21  1    1    2  503  501 -.11738066E+02 0.19712484E+01 0.15705588E+03 0.15750804E+03 0.75000000E+00 0.0000E+00 0.9000E+01
#aMCatNLO 2  0  0  1  2 0.73253398D+01 0.00000000D+00  -5  6  0 0.00000000D+00 0.00000000D+00 0.00000000D+00 0.00000000D+00 0.00000000D+00
  <mgrwgt>
 0.4892299611D-02    1    2    0
 0.591671211200938D+03 0.000000000000000D+00 0.000000000000000D+00 0.591671211200938D+03
 0.591671211200938D+03 0.000000000000000D+00 0.000000000000000D+00 -.591671211200938D+03
 0.595529715151480D+03 -.362070096809454D+03 0.426180738728298D+03 0.162190827613026D+03
 0.171748839701200D+03 0.971733879249838D+02 -.140744853120494D+03 -.156806548963861D+02
 0.416063867549196D+03 0.264896708884470D+03 -.285435885607804D+03 -.146510172716640D+03
 0.000000000000000D+00 -.000000000000000D+00 0.000000000000000D+00 0.000000000000000D+00
 0.735518853322142D+03 0.000000000000000D+00 0.000000000000000D+00 0.735518853322142D+03
 0.591947403250361D+03 0.000000000000000D+00 0.000000000000000D+00 -.591947403250361D+03
 0.591258370029147D+03 -.356184122952255D+03 0.425192269596307D+03 0.162190827613026D+03
 0.172955887824854D+03 0.988829795867188D+02 -.141031955752434D+03 -.156806548963861D+02
 0.419188022303030D+03 0.269039209849247D+03 -.286131562216682D+03 -.146510172716640D+03
 0.144063976415470D+03 -.117380664837108D+02 0.197124837280910D+01 0.143571450071781D+03
0.599834678190D-03 0.000000000000D+00 0.000000000000D+00 0.286058266547D-03 0.128939974009D-04  6 2 -1 25 2 -1 21 2 0.12374946D+00 0.83273514D-01 0.32802810D+06 0.32802810D+06 0.32802810D+06 0.10816936D+01  1  2  1  1  6  1        2 0.489229961050D-02 0.100000000000D+01
  </mgrwgt>
  </event>
  <event>
  7     66 0.20058315E-05 0.51009948E+02 0.75467711E-02 0.94272547E-01
        2 -1    0    0  501    0 0.00000000E+00 0.00000000E+00 0.26603323E+04 0.26603323E+04 0.32000000E+00 0.0000E+00 0.9000E+01
       21 -1    0    0  503  501 0.00000000E+00 0.00000000E+00 -.14753744E+03 0.14753935E+03 0.75000000E+00 0.0000E+00 0.9000E+01
       24  2    1    2    0    0 0.16484541E+03 0.42993254E+03 0.10313835E+04 0.11335242E+04 0.95442218E+02 0.0000E+00 0.0000E+00
       25  1    1    2    0    0 -.11143220E+03 -.47065776E+03 0.15178403E+04 0.15979362E+04 0.12500000E+03 0.0000E+00 0.9000E+01
        2  1    3    3  502    0 0.10250234E+03 0.17718673E+03 0.53898114E+03 0.57654370E+03 0.32000000E+00 0.0000E+00 0.9000E+01
        1  1    1    2  503    0 -.53413211E+02 0.40725216E+02 -.36428927E+02 0.76411279E+02 0.32000000E+00 0.0000E+00 0.9000E+01
       -1  1    3    3    0  502 0.62343075E+02 0.25274581E+03 0.49240231E+03 0.55698047E+03 0.32000000E+00 0.0000E+00 0.9000E+01
#aMCatNLO 2  0  0  2  1 0.12196925D+03 0.00000000D+00  -5  6  0 0.00000000D+00 0.00000000D+00 0.00000000D+00 0.00000000D+00 0.00000000D+00
  <mgrwgt>
 0.3162104310D-02    1    2    0
 0.489342005389023D+03 0.000000000000000D+00 0.000000000000000D+00 0.489342005389023D+03
 0.489342005389023D+03 0.000000000000000D+00 0.000000000000000D+00 -.489342005389023D+03
 0.492670861994738D+03 -.138624574249592D+03 -.449924782118917D+03 0.738274752920826D+02
 0.206974799585658D+03 0.912816686760039D+02 0.185741480172461D+03 0.251538676762772D+01
 0.000000000000000D+00 -.000000000000000D+00 0.000000000000000D+00 -.000000000000000D+00
 0.279038349197650D+03 0.473429055735883D+02 0.264183301946456D+03 -.763428620597103D+02
 0.494206749090868D+03 0.000000000000000D+00 0.000000000000000D+00 0.494206749090868D+03
 0.794204414900006D+03 0.000000000000000D+00 0.000000000000000D+00 -.794204414900006D+03
 0.504986499548477D+03 -.111432200972365D+03 -.470657766540270D+03 0.738274752920826D+02
 0.204714395296837D+03 0.102502761901968D+03 0.177185891858318D+03 0.251538676762772D+01
 0.307424972778433D+03 -.534132114760878D+02 0.407252162265518D+02 -.299997665809138D+03
 0.271285296367127D+03 0.623426505464854D+02 0.252746658455400D+03 -.763428620597103D+02
0.368685712742D-04 0.000000000000D+00 0.000000000000D+00 0.138647120450D-05 0.121789759125D-09  6 2 21 25 2 1 -1 2 0.40928197D+00 0.22698212D-01 0.26612666D+06 0.26612666D+06 0.26612666D+06 0.10884226D+01  1  2  1  6  5  2       -1 0.316210431015D-02 0.100000000000D+01
  </mgrwgt>
  </event>
  <event>
  7     66 0.20058315E-05 0.30148088E+02 0.75467711E-02 0.91357019E-01
        2 -1    0    0  501    0 0.00000000E+00 0.00000000E+00 0.29853904E+04 0.29853904E+04 0.32000000E+00 0.0000E+00 0.9000E+01
       21 -1    0    0  503  501 0.00000000E+00 0.00000000E+00 -.51604366E+03 0.51604420E+03 0.75000000E+00 0.0000E+00 0.9000E+01
       24  2    1    2    0    0 0.27373118E+03 0.60634059E+03 0.16942792E+04 0.18214823E+04 0.68102278E+02 0.0000E+00 0.0000E+00
       25  1    1    2    0    0 -.27007383E+03 -.57119756E+03 0.11421167E+04 0.13112064E+04 0.12500000E+03 0.0000E+00 0.9000E+01
        2  1    3    3  502    0 0.60520639E+02 0.21175135E+03 0.56060772E+03 0.60231429E+03 0.32000000E+00 0.0000E+00 0.9000E+01
        1  1    1    2  503    0 -.36573413E+01 -.35143029E+02 -.36704918E+03 0.36874600E+03 0.32000000E+00 0.0000E+00 0.9000E+01
       -1  1    3    3    0  502 0.21321054E+03 0.39458924E+03 0.11336715E+04 0.12191680E+04 0.32000000E+00 0.0000E+00 0.9000E+01
#aMCatNLO 2  0  0  2  1 0.12196925D+03 0.00000000D+00  -5  6  0 0.00000000D+00 0.00000000D+00 0.00000000D+00 0.00000000D+00 0.00000000D+00
  <mgrwgt>
 0.1880528970D-01    1    2    0
 0.664708155868740D+03 0.000000000000000D+00 0.000000000000000D+00 0.664708155868740D+03
 0.664708155868740D+03 0.000000000000000D+00 0.000000000000000D+00 -.664708155868740D+03
 0.668840450498066D+03 -.271891442896069D+03 -.588662780269288D+03 -.106177787827693D+03
 0.217454909816443D+03 0.599113172453159D+02 0.205924788964585D+03 0.359479228760114D+02
 0.000000000000000D+00 -.000000000000000D+00 -.000000000000000D+00 -.000000000000000D+00
 0.443120951422971D+03 0.211980125650753D+03 0.382737991304703D+03 0.702298649516813D+02
 0.665131887106507D+03 0.000000000000000D+00 0.000000000000000D+00 0.665131887106507D+03
 0.231622138459118D+04 0.000000000000000D+00 0.000000000000000D+00 -.231622138459118D+04
 0.652767377026551D+03 -.270073834101548D+03 -.571197557781746D+03 -.106177787827693D+03
 0.223140127509282D+03 0.605172681166615D+02 0.211747310739606D+03 0.359479228760114D+02
 0.165146751022995D+04 -.365734125879040D+01 -.351430291216592D+02 -.165108949748467D+04
 0.453978256931901D+03 0.213213907243677D+03 0.394593276163799D+03 0.702298649516813D+02
0.538592194687D-02 0.000000000000D+00 0.000000000000D+00 0.201817398344D-05 0.269562019594D-08  6 2 21 25 2 1 -1 2 0.45929087D+00 0.79391373D-01 0.45437414D+06 0.45437414D+06 0.45437414D+06 0.10714598D+01  1  2  1  6  5  2       -1 0.188052896952D-01 0.100000000000D+01
  </mgrwgt>
  </event>
  <event>
  7     66 0.20058315E-05 0.43441150E+02 0.75467711E-02 0.94358911E-01
        2 -1    0    0  501    0 0.00000000E+00 0.00000000E+00 0.25693922E+04 0.25693922E+04 0.32000000E+00 0.0000E+00 0.9000E+01
       -1 -1    0    0    0  503 0.00000000E+00 0.00000000E+00 -.10943972E+03 0.10944018E+03 0.32000000E+00 0.0000E+00 0.9000E+01
       24  2    1    2    0    0 0.49858302E+03 0.42424076E+02 0.14022455E+04 0.14911199E+04 0.82226333E+02 0.0000E+00 0.0000E+00
       25  1    1    2    0    0 -.48869641E+03 -.32548905E+02 0.10592067E+04 0.11736386E+04 0.12500000E+03 0.0000E+00 0.9000E+01
        2  1    3    3  502    0 0.13181854E+03 0.39612156E+02 0.31772471E+03 0.34625762E+03 0.32000000E+00 0.0000E+00 0.9000E+01
       -1  1    3    3    0  502 0.36676448E+03 0.28119209E+01 0.10845208E+04 0.11448622E+04 0.32000000E+00 0.0000E+00 0.9000E+01
       21  1    1    2  501  503 -.98866163E+01 -.98751716E+01 -.14997643E+01 0.14073947E+02 0.75000000E+00 0.0000E+00 0.9000E+01
#aMCatNLO 2  0  0  2  1 0.12196925D+03 0.00000000D+00  -5  6  0 0.00000000D+00 0.00000000D+00 0.00000000D+00 0.00000000D+00 0.00000000D+00
  <mgrwgt>
 0.1269224883D-01    1    2    0
 0.510390827877252D+03 0.000000000000000D+00 0.000000000000000D+00 0.510390827877252D+03
 0.510390827877252D+03 0.000000000000000D+00 0.000000000000000D+00 -.510390827877252D+03
 0.514732515571450D+03 -.493656854863012D+03 -.375036117074852D+02 -.649688490137106D+02
 0.136102273501896D+03 0.130488870092121D+03 0.382881372911323D+02 -.552287762328820D+01
 0.369946866681159D+03 0.363167984770891D+03 -.784525583647081D+00 0.704917266369987D+02
 0.000000000000000D+00 -.000000000000000D+00 -.000000000000000D+00 -.000000000000000D+00
 0.511687235630845D+03 0.000000000000000D+00 0.000000000000000D+00 0.511687235630845D+03
 0.549535658520691D+03 0.000000000000000D+00 0.000000000000000D+00 -.549535658520691D+03
 0.509636693656838D+03 -.488696405733391D+03 -.325489047829875D+02 -.649688490137106D+02
 0.137749258565283D+03 0.131814980425827D+03 0.396127125224005D+02 -.552287762328820D+01
 0.373491343500648D+03 0.366768041654094D+03 0.281136388153808D+01 0.704917266369987D+02
 0.403455984287673D+02 -.988661634652961D+01 -.987517162095114D+01 -.378484228898463D+02
0.922943534615D-03 0.000000000000D+00 0.000000000000D+00 0.419862523921D-04 0.136351571051D-05  6 2 -1 25 2 -1 21 2 0.39528846D+00 0.16836803D-01 0.26207724D+06 0.26207724D+06 0.26207724D+06 0.10889210D+01  1  2  1  2  6  2       -1 0.126922488306D-01 0.100000000000D+01
  </mgrwgt>
  </event>
  <event>
  7     66 0.20058315E-05 0.52357273E+02 0.75467711E-02 0.93623071E-01
        2 -1    0    0  501    0 0.00000000E+00 0.00000000E+00 0.19679117E+04 0.19679117E+04 0.32000000E+00 0.0000E+00 0.9000E+01
       -1 -1    0    0    0  503 0.00000000E+00 0.00000000E+00 -.19598896E+03 0.19598922E+03 0.32000000E+00 0.0000E+00 0.9000E+01
       24  2    1    2    0    0 0.16084417E+03 -.49826415E+03 0.94861306E+03 0.10860217E+04 0.73745117E+02 0.0000E+00 0.0000E+00
       25  1    1    2    0    0 -.18194527E+03 0.49996155E+03 0.86953836E+03 0.10270285E+04 0.12500000E+03 0.0000E+00 0.9000E+01
        2  1    3    3  502    0 0.11575067E+03 -.28117487E+03 0.49110292E+03 0.57761553E+03 0.32000000E+00 0.0000E+00 0.9000E+01
       -1  1    3    3    0  502 0.45093504E+02 -.21708928E+03 0.45751014E+03 0.50840615E+03 0.32000000E+00 0.0000E+00 0.9000E+01
       21  1    1    2  501  503 0.21101099E+02 -.16974092E+01 -.46228719E+02 0.50850708E+02 0.75000000E+00 0.0000E+00 0.9000E+01
#aMCatNLO 2  0  0  2  1 0.12196925D+03 0.00000000D+00  -5  6  0 0.00000000D+00 0.00000000D+00 0.00000000D+00 0.00000000D+00 0.00000000D+00
  <mgrwgt>
 0.6255938950D-02    1    2    0
 0.538251439227388D+03 0.000000000000000D+00 0.000000000000000D+00 0.538251439227388D+03
 0.538251439227388D+03 0.000000000000000D+00 0.000000000000000D+00 -.538251439227388D+03
 0.542982805006952D+03 -.171261366717615D+03 0.499102122923886D+03 -.277838387574932D+02
 0.307061431305102D+03 0.121743130017349D+03 -.281658009847518D+03 -.115800853819185D+02
 0.226458642142722D+03 0.495182367002662D+02 -.217444113076369D+03 0.393639241394118D+02
 0.000000000000000D+00 0.000000000000000D+00 -.000000000000000D+00 -.000000000000000D+00
 0.538987666866842D+03 0.000000000000000D+00 0.000000000000000D+00 0.538987666866842D+03
 0.715578797827357D+03 0.000000000000000D+00 0.000000000000000D+00 -.715578797827357D+03
 0.547231741006776D+03 -.181945268156766D+03 0.499961554586517D+03 -.277838387574932D+02
 0.304290332757919D+03 0.115751995505539D+03 -.281176072539891D+03 -.115800853819185D+02
 0.225188929658040D+03 0.450921738120073D+02 -.217088072859353D+03 0.393639241394118D+02
 0.177855461271465D+03 0.211010988392206D+02 -.169740918727204D+01 -.176591130960516D+03
0.550401019140D-03 0.000000000000D+00 0.000000000000D+00 0.560319330771D-05 0.815990492758D-07  6 2 -1 25 2 -1 21 2 0.30275522D+00 0.30152126D-01 0.29892839D+06 0.29892839D+06 0.29892839D+06 0.10846669D+01  1  2  1  2  6  2       -1 0.625593895039D-02 0.100000000000D+01
  </mgrwgt>
  </event>
  <event>
  7     66 0.20058315E-05 0.26422946E+03 0.75467711E-02 0.90133319E-01
        2 -1    0    0  501    0 0.00000000E+00 0.00000000E+00 0.18324274E+04 0.18324274E+04 0.32000000E+00 0.0000E+00 0.9000E+01
       -1 -1    0    0    0  503 0.00000000E+00 0.00000000E+00 -.66344628E+03 0.66344636E+03 0.32000000E+00 0.0000E+00 0.9000E+01
       24  2    1    2    0    0 -.27648663E+03 -.12307782E+03 0.11678625E+04 0.12090956E+04 0.80100813E+02 0.0000E+00 0.0000E+00
       25  1    1    2    0    0 0.44175334E+03 -.42916117E+03 0.22624896E+03 0.66793631E+03 0.12500000E+03 0.0000E+00 0.9000E+01
        2  1    3    3  502    0 -.13059044E+03 -.98130984E+02 0.54956485E+03 0.57332816E+03 0.32000000E+00 0.0000E+00 0.9000E+01
       -1  1    3    3    0  502 -.14589619E+03 -.24946839E+02 0.61829769E+03 0.63576740E+03 0.32000000E+00 0.0000E+00 0.9000E+01
       21  1    1    2  501  503 -.16526670E+03 0.55223900E+03 -.22513042E+03 0.61884187E+03 0.75000000E+00 0.0000E+00 0.9000E+01
#aMCatNLO 2  0  0  2  1 0.12196925D+03 0.00000000D+00  -5  6  0 0.00000000D+00 0.00000000D+00 0.00000000D+00 0.00000000D+00 0.00000000D+00
  <mgrwgt>
 0.2181242527D-02    1    2    0
 0.558439961533431D+03 0.000000000000000D+00 0.000000000000000D+00 0.558439961533431D+03
 0.558439961533431D+03 0.000000000000000D+00 0.000000000000000D+00 -.558439961533431D+03
 0.562562544279386D+03 0.350608547333721D+03 -.124600694921896D+03 -.402988746229488D+03
 0.248361540868737D+03 -.165054051494150D+03 0.170288906546282D+02 0.184798895968380D+03
 0.305955837918738D+03 -.185554495839571D+03 0.107571804267267D+03 0.218189850261108D+03
 0.000000000000000D+00 -.000000000000000D+00 0.000000000000000D+00 -.000000000000000D+00
 0.704068124752351D+03 0.000000000000000D+00 0.000000000000000D+00 0.704068124752351D+03
 0.172670345296273D+04 0.000000000000000D+00 0.000000000000000D+00 -.172670345296273D+04
 0.746558940125488D+03 0.441753335067870D+03 -.429161173045852D+03 -.402988746229488D+03
 0.246646204365010D+03 -.130590194316984D+03 -.981321523497089D+02 0.184798895968380D+03
 0.263656723381308D+03 -.145896437661724D+03 -.249456710637699D+02 0.218189850261108D+03
 0.117390970984327D+04 -.165266703089162D+03 0.552238996459330D+03 -.102263532821038D+04
0.177144093760D-02 0.000000000000D+00 0.000000000000D+00 0.130208284430D-03 0.710177299224D-08  6 2 -1 25 2 -1 21 2 0.28191187D+00 0.10206865D+00 0.57475666D+06 0.57475666D+06 0.57475666D+06 0.10642597D+01  1  2  1  2  6  2       -1 0.218124252744D-02 0.100000000000D+01
  </mgrwgt>
  </event>
  <event>
  6     66 -.20058315E-05 0.12515687E+02 0.75467711E-02 0.95089267E-01
        2 -1    0    0  501    0 0.00000000E+00 0.00000000E+00 0.49913127E+03 0.49913138E+03 0.32000000E+00 0.0000E+00 0.9000E+01
       -1 -1    0    0    0  501 0.00000000E+00 0.00000000E+00 -.47152509E+03 0.47152519E+03 0.32000000E+00 0.0000E+00 0.9000E+01
       24  2    1    2    0    0 -.44405716E+03 0.15949858E+03 -.26043623E+02 0.47960682E+03 0.81962636E+02 0.0000E+00 0.0000E+00
       25  1    1    2    0    0 0.44405716E+03 -.15949858E+03 0.53649810E+02 0.49104975E+03 0.12500000E+03 0.0000E+00 0.9000E+01
        2  1    3    3  502    0 -.43171656E+03 0.15737259E+03 -.10475723E+02 0.45962502E+03 0.32000000E+00 0.0000E+00 0.9000E+01
       -1  1    3    3    0  502 -.12340599E+02 0.21259908E+01 -.15567900E+02 0.19981795E+02 0.32000000E+00 0.0000E+00 0.9000E+01
#aMCatNLO 1  0  0  5  4 0.42607731D+01 0.00000000D+00  -5  6  0 0.00000000D+00 0.00000000D+00 0.00000000D+00 0.00000000D+00 0.00000000D+00
  <mgrwgt>
 -.1400349219D+00    7    2    0
 0.485131960193774D+03 0.000000000000000D+00 0.000000000000000D+00 0.485131960193774D+03
 0.485131960193774D+03 -.000000000000000D+00 -.000000000000000D+00 -.485131960193774D+03
 0.489722013650232D+03 0.444057158213082D+03 -.159498578854306D+03 0.397000533603795D+02
 0.460115785823962D+03 -.431722951803142D+03 0.157374954495597D+03 -.235574393407416D+02
 0.204261209133530D+02 -.123342064099401D+02 0.212362435870923D+01 -.161426140196378D+02
 0.000000000000000D+00 0.000000000000000D+00 -.000000000000000D+00 0.000000000000000D+00
 0.485131960193774D+03 0.000000000000000D+00 0.000000000000000D+00 0.485131960193774D+03
 0.485131960193774D+03 -.000000000000000D+00 -.000000000000000D+00 -.485131960193774D+03
 0.483963917558126D+03 0.438624717661322D+03 -.158563256167176D+03 0.325902492840487D+02
 0.465658581156760D+03 -.436888081596817D+03 0.158264253335034D+03 -.303173956645981D+02
 0.116277657408224D+02 -.649040707271888D+01 0.535306070240477D+01 -.802647452311496D+01
 0.901365593183956D+01 0.475377100821412D+01 -.505405787026284D+01 0.575362090366437D+01
0.408940003268D-03 0.000000000000D+00 0.000000000000D+00 0.237194678737D-04 0.000000000000D+00  6 2 -1 25 2 -1 21 0 0.76789443D-01 0.72542337D-01 0.23046634D+06 0.23046634D+06 0.23046634D+06 0.10931272D+01  1  2  2  4  6  5       -1 0.674415741889D-02 0.100000000000D+01
0.147459697381D-03 0.000000000000D+00 -.157043728892D-05 0.237194678737D-04 0.000000000000D+00  6 2 -1 25 2 -1 21 2 0.76789443D-01 0.72542337D-01 0.23046634D+06 0.23046634D+06 0.23046634D+06 0.10931272D+01  1  2  3  4  6  5       -1 0.290591433196D-02 0.100000000000D+01
-.137073921820D-03 0.000000000000D+00 0.000000000000D+00 0.237194678737D-04 0.000000000000D+00  6 2 -1 25 2 -1 21 2 0.76789443D-01 0.72542337D-01 0.23046634D+06 0.23046634D+06 0.23046634D+06 0.10931272D+01  1  2 15  4  6  5       -1 -.270124705957D-02 0.100000000000D+01
0.137610899921D-03 0.000000000000D+00 0.000000000000D+00 0.237194678737D-04 0.000000000000D+00  6 2 -1 25 2 -1 21 2 0.76789443D-01 0.72542337D-01 0.23178809D+06 0.23178809D+06 0.23178809D+06 0.10929390D+01  1  2 12  4  6  5       -1 0.271051467719D-02 0.100000000000D+01
-.757168246847D-02 0.000000000000D+00 0.000000000000D+00 0.237194678737D-04 0.000000000000D+00  6 2 -1 25 2 -1 21 2 0.76789443D-01 0.72542337D-01 0.23046634D+06 0.23046634D+06 0.23046634D+06 0.10931272D+01  1  2  4  4  6  5       -1 -.149211350579D+00 0.100000000000D+01
0.467480544841D-04 0.000000000000D+00 0.000000000000D+00 0.237194678737D-04 0.000000000000D+00  6 2 -1 25 2 -1 21 2 0.76789443D-01 0.72542337D-01 0.23046634D+06 0.23046634D+06 0.23046634D+06 0.10931272D+01  1  2  5  4  6  5       -1 0.921240474038D-03 0.100000000000D+01
-.712532035905D-04 0.000000000000D+00 0.000000000000D+00 0.237194678737D-04 0.000000000000D+00  6 2 -1 25 2 -1 21 2 0.76789443D-01 0.72542337D-01 0.23046634D+06 0.23046634D+06 0.23046634D+06 0.10931272D+01  1  2  6  4  6  5       -1 -.140415116258D-02 0.100000000000D+01
  </mgrwgt>
  </event>
  <event>
  7     66 0.20058315E-05 0.52383914E+02 0.75467711E-02 0.94349399E-01
        2 -1    0    0  503    0 0.00000000E+00 0.00000000E+00 0.35202924E+03 0.35202938E+03 0.32000000E+00 0.0000E+00 0.9000E+01
       -1 -1    0    0    0  501 0.00000000E+00 0.00000000E+00 -.79826405E+03 0.79826411E+03 0.32000000E+00 0.0000E+00 0.9000E+01
       24  2    1    2    0    0 0.49115420E+03 -.22973694E+02 -.33479862E+03 0.59997394E+03 0.78219974E+02 0.0000E+00 0.0000E+00
       25  1    1    2    0    0 -.49793200E+03 0.34397491E+02 -.12686910E+03 0.52994361E+03 0.12500000E+03 0.0000E+00 0.9000E+01
        2  1    3    3  502    0 0.31672030E+03 0.19722366E+02 -.19576397E+03 0.37285970E+03 0.32000000E+00 0.0000E+00 0.9000E+01
       -1  1    3    3    0  502 0.17443391E+03 -.42696060E+02 -.13903465E+03 0.22711424E+03 0.32000000E+00 0.0000E+00 0.9000E+01
       21  1    1    2  503  501 0.67777932E+01 -.11423797E+02 0.15432917E+02 0.20375943E+02 0.75000000E+00 0.0000E+00 0.9000E+01
#aMCatNLO 2  0  0  1  2 0.73253398D+01 0.00000000D+00  -5  6  0 0.00000000D+00 0.00000000D+00 0.00000000D+00 0.00000000D+00 0.00000000D+00
  <mgrwgt>
 0.1297953503D-01    1    2    0
 0.515606472102251D+03 0.000000000000000D+00 0.000000000000000D+00 0.515606472102251D+03
 0.515606472102251D+03 0.000000000000000D+00 0.000000000000000D+00 -.515606472102251D+03
 0.520215915649452D+03 -.494501082992219D+03 0.286147709543618D+02 0.982317295874881D+02
 0.322771832364081D+03 0.318837846522160D+03 0.161583536233332D+02 -.475709049836256D+02
 0.188225196190969D+03 0.175663236470059D+03 -.447731245776949D+02 -.506608246038625D+02
 0.000000000000000D+00 0.000000000000000D+00 -.000000000000000D+00 0.000000000000000D+00
 0.543275805323240D+03 0.000000000000000D+00 0.000000000000000D+00 0.543275805323240D+03
 0.517245912274325D+03 0.000000000000000D+00 0.000000000000000D+00 -.517245912274325D+03
 0.523826244962810D+03 -.497931998195556D+03 0.343974909996263D+02 0.982317295874881D+02
 0.320882004391924D+03 0.316722681237152D+03 0.197234107488401D+02 -.475709049836256D+02
 0.186590241832284D+03 0.174431523773701D+03 -.426971042515995D+02 -.506608246038625D+02
 0.292232264105458D+02 0.677779318470388D+01 -.114237974968669D+02 0.260298930489155D+02
0.143655927649D-02 0.000000000000D+00 0.000000000000D+00 0.529391737323D-04 0.189968905074D-05  6 2 -1 25 2 -1 21 2 0.54157858D-01 0.12280873D+00 0.26251982D+06 0.26251982D+06 0.26251982D+06 0.10888662D+01  1  2  1  1  6  1        2 0.129795350342D-01 0.100000000000D+01
  </mgrwgt>
  </event>
  <event>
  7     66 0.20058315E-05 0.50414901E+02 0.75467711E-02 0.90049594E-01
        2 -1    0    0  501    0 0.00000000E+00 0.00000000E+00 0.16838033E+04 0.16838034E+04 0.32000000E+00 0.0000E+00 0.9000E+01
       -1 -1    0    0    0  503 0.00000000E+00 0.00000000E+00 -.46078179E+03 0.46078190E+03 0.32000000E+00 0.0000E+00 0.9000E+01
       24  2    1    2    0    0 0.23293785E+03 0.72198993E+03 0.11245962E+04 0.13589407E+04 0.80458137E+02 0.0000E+00 0.0000E+00
       25  1    1    2    0    0 -.22631931E+03 -.69056843E+03 0.11981927E+03 0.74705210E+03 0.12500000E+03 0.0000E+00 0.9000E+01
        2  1    3    3  502    0 0.10809811E+03 0.28893510E+03 0.39227334E+03 0.49904625E+03 0.32000000E+00 0.0000E+00 0.9000E+01
       -1  1    3    3    0  502 0.12483974E+03 0.43305483E+03 0.73232291E+03 0.85989441E+03 0.32000000E+00 0.0000E+00 0.9000E+01
       21  1    1    2  501  503 -.66185374E+01 -.31421502E+02 -.21393979E+02 0.38592495E+02 0.75000000E+00 0.0000E+00 0.9000E+01
#aMCatNLO 2  0  0  2  1 0.12196925D+03 0.00000000D+00  -5  6  0 0.00000000D+00 0.00000000D+00 0.00000000D+00 0.00000000D+00 0.00000000D+00
  <mgrwgt>
 0.1311773577D-01    1    2    0
 0.849353347562806D+03 0.000000000000000D+00 0.000000000000000D+00 0.849353347562806D+03
 0.849353347562806D+03 0.000000000000000D+00 0.000000000000000D+00 -.849353347562806D+03
 0.852047010991760D+03 -.229611889550894D+03 -.706199926918297D+03 -.398646650979852D+03
 0.325563733588687D+03 0.106818375134087D+03 0.282858527985524D+03 0.120717159127364D+03
 0.521095950545166D+03 0.122793514416807D+03 0.423341398932773D+03 0.277929491852488D+03
 0.000000000000000D+00 -.000000000000000D+00 -.000000000000000D+00 -.000000000000000D+00
 0.853863609753679D+03 0.000000000000000D+00 0.000000000000000D+00 0.853863609753679D+03
 0.908648698997974D+03 0.000000000000000D+00 0.000000000000000D+00 -.908648698997974D+03
 0.838241811922514D+03 -.226319313901835D+03 -.690568426061235D+03 -.398646650979852D+03
 0.331270204968819D+03 0.108097846075533D+03 0.288932815488536D+03 0.120717159127364D+03
 0.529498151384899D+03 0.124840005235515D+03 0.433057112828597D+03 0.277929491852488D+03
 0.635021404754197D+02 -.661853740921306D+01 -.314215022558986D+02 -.547850892442948D+02
0.408320998193D-02 0.000000000000D+00 0.000000000000D+00 0.174760262655D-03 0.102357558375D-05  6 2 -1 25 2 -1 21 2 0.25904601D+00 0.70889334D-01 0.58421247D+06 0.58421247D+06 0.58421247D+06 0.10637653D+01  1  2  1  2  6  2       -1 0.131177357668D-01 0.100000000000D+01
  </mgrwgt>
  </event>
  <event>
  7     66 0.20058315E-05 0.64037904E+02 0.75467711E-02 0.94456200E-01
        2 -1    0    0  501    0 0.00000000E+00 0.00000000E+00 0.18409931E+03 0.18409959E+03 0.32000000E+00 0.0000E+00 0.9000E+01
       21 -1    0    0  503  501 0.00000000E+00 0.00000000E+00 -.14763557E+04 0.14763558E+04 0.75000000E+00 0.0000E+00 0.9000E+01
       24  2    1    2    0    0 -.43921805E+03 -.21359488E+03 -.72409211E+03 0.87713062E+03 0.80706160E+02 0.0000E+00 0.0000E+00
       25  1    1    2    0    0 0.44996402E+03 0.20873949E+03 -.50408504E+03 0.71816887E+03 0.12500000E+03 0.0000E+00 0.9000E+01
        2  1    3    3  502    0 -.17550090E+03 -.11691400E+03 -.36096899E+03 0.41805282E+03 0.32000000E+00 0.0000E+00 0.9000E+01
        1  1    1    2  503    0 -.10745976E+02 0.48553944E+01 -.64079195E+02 0.65155940E+02 0.32000000E+00 0.0000E+00 0.9000E+01
       -1  1    3    3    0  502 -.26371714E+03 -.96680884E+02 -.36312312E+03 0.45907780E+03 0.32000000E+00 0.0000E+00 0.9000E+01
#aMCatNLO 2  0  0  2  4 0.12997298D+02 0.00000000D+00  -5  6  0 0.00000000D+00 0.00000000D+00 0.00000000D+00 0.00000000D+00 0.00000000D+00
  <mgrwgt>
 0.5025291249D-03    1    2    0
 0.509024141490007D+03 0.000000000000000D+00 0.000000000000000D+00 0.509024141490007D+03
 0.509024141490007D+03 0.000000000000000D+00 0.000000000000000D+00 -.509024141490007D+03
 0.513499133443775D+03 0.444524350523333D+03 0.211197314744681D+03 0.764863130498078D+02
 0.220915704552581D+03 -.177824395461635D+03 -.115863857379681D+03 -.613008927322273D+02
 0.000000000000000D+00 -.000000000000000D+00 0.000000000000000D+00 -.000000000000000D+00
 0.283633444983658D+03 -.266699955061698D+03 -.953334573650002D+02 -.151854203175806D+02
 0.510550290097139D+03 0.000000000000000D+00 0.000000000000000D+00 0.510550290097139D+03
 0.532357641510054D+03 0.000000000000000D+00 0.000000000000000D+00 -.532357641510054D+03
 0.517218474691967D+03 0.449964021493922D+03 0.208739487974244D+03 0.764863130498078D+02
 0.219606095217916D+03 -.175499516535334D+03 -.116914316073596D+03 -.613008927322273D+02
 0.247913580571761D+02 -.107459761761832D+02 0.485539439115175D+01 -.218073514129155D+02
 0.281292003640133D+03 -.263718528782405D+03 -.966805662917997D+02 -.151854203175806D+02
0.285441127902D-04 0.000000000000D+00 0.000000000000D+00 0.200058298672D-03 0.724269437795D-07  6 2 21 25 2 1 -1 2 0.28322949D-01 0.22713122D+00 0.25759809D+06 0.25759809D+06 0.25759809D+06 0.10894823D+01  1  2  1  6  5  2       -1 0.502529124891D-03 0.100000000000D+01
  </mgrwgt>
  </event>
  <event>
  7     66 0.20058315E-05 0.71900736E+02 0.75467711E-02 0.92752156E-01
        2 -1    0    0  503    0 0.00000000E+00 0.00000000E+00 0.21896705E+04 0.21896706E+04 0.32000000E+00 0.0000E+00 0.9000E+01
       -1 -1    0    0    0  501 0.00000000E+00 0.00000000E+00 -.16119066E+03 0.16119098E+03 0.32000000E+00 0.0000E+00 0.9000E+01
       24  2    1    2    0    0 -.55266033E+03 0.18051544E+03 0.92272721E+03 0.10935904E+04 0.80593488E+02 0.0000E+00 0.0000E+00
       25  1    1    2    0    0 0.54340936E+03 -.18444905E+03 0.10759443E+04 0.12258043E+04 0.12500000E+03 0.0000E+00 0.9000E+01
        2  1    3    3  502    0 -.30179068E+03 0.58889785E+02 0.45774924E+03 0.55143457E+03 0.32000000E+00 0.0000E+00 0.9000E+01
       -1  1    3    3    0  502 -.25086965E+03 0.12162566E+03 0.46497797E+03 0.54215588E+03 0.32000000E+00 0.0000E+00 0.9000E+01
       21  1    1    2  503  501 0.92509605E+01 0.39336129E+01 0.29808420E+02 0.31466775E+02 0.75000000E+00 0.0000E+00 0.9000E+01
#aMCatNLO 2  0  0  1  4 0.53031243D+02 0.00000000D+00  -5  6  0 0.00000000D+00 0.00000000D+00 0.00000000D+00 0.00000000D+00 0.00000000D+00
  <mgrwgt>
 0.1503627943D-01    1    2    0
 0.588388355273865D+03 0.000000000000000D+00 0.000000000000000D+00 0.588388355273865D+03
 0.588388355273865D+03 0.000000000000000D+00 0.000000000000000D+00 -.588388355273865D+03
 0.592267464028258D+03 0.548050802998428D+03 -.182475462666731D+03 0.387139742703426D+02
 0.307232857327334D+03 -.299367774208064D+03 0.599193818297354D+02 -.343603269537698D+02
 0.277276389192138D+03 -.248683028790363D+03 0.122556080836995D+03 -.435364731657280D+01
 0.000000000000000D+00 0.000000000000000D+00 0.000000000000000D+00 0.000000000000000D+00
 0.596747170187644D+03 0.000000000000000D+00 0.000000000000000D+00 0.596747170187644D+03
 0.591439971168399D+03 0.000000000000000D+00 0.000000000000000D+00 -.591439971168399D+03
 0.588590658592146D+03 0.543409364876644D+03 -.184449054599079D+03 0.387139742703426D+02
 0.309397185590386D+03 -.301791477897280D+03 0.588887956359886D+02 -.343603269537698D+02
 0.278831802181556D+03 -.250868847484273D+03 0.121626646031083D+03 -.435364731657280D+01
 0.113674949919553D+02 0.925096050490940D+01 0.393361293200834D+01 0.530719901924481D+01
0.128533446746D-02 0.000000000000D+00 0.000000000000D+00 0.252158049353D-03 0.155124138754D-04  6 2 -1 25 2 -1 21 2 0.33686540D+00 0.24798072D-01 0.35025669D+06 0.35025669D+06 0.35025669D+06 0.10796101D+01  1  2  1  1  6  1        2 0.150362794347D-01 0.100000000000D+01
  </mgrwgt>
  </event>
  <event>
  7     66 0.20058315E-05 0.38254909E+02 0.75467711E-02 0.94392543E-01
        2 -1    0    0  501    0 0.00000000E+00 0.00000000E+00 0.77931321E+03 0.77931327E+03 0.32000000E+00 0.0000E+00 0.9000E+01
       -1 -1    0    0    0  503 0.00000000E+00 0.00000000E+00 -.40173719E+03 0.40173732E+03 0.32000000E+00 0.0000E+00 0.9000E+01
       24  2    1    2    0    0 -.33423450E+03 0.36100997E+03 0.30468455E+03 0.58411322E+03 0.79464961E+02 0.0000E+00 0.0000E+00
       25  1    1    2    0    0 0.34263364E+03 -.31845184E+03 0.15134501E+03 0.50728661E+03 0.12500000E+03 0.0000E+00 0.9000E+01
        2  1    3    3  502    0 -.20028255E+03 0.24148545E+03 0.23306372E+03 0.39082876E+03 0.32000000E+00 0.0000E+00 0.9000E+01
       -1  1    3    3    0  502 -.13395195E+03 0.11952452E+03 0.71620832E+02 0.19328446E+03 0.32000000E+00 0.0000E+00 0.9000E+01
       21  1    1    2  501  503 -.83991392E+01 -.42558122E+02 -.78453542E+02 0.89650767E+02 0.75000000E+00 0.0000E+00 0.9000E+01
#aMCatNLO 2  0  0  2  4 0.12997298D+02 0.00000000D+00  -5  6  0 0.00000000D+00 0.00000000D+00 0.00000000D+00 0.00000000D+00 0.00000000D+00
  <mgrwgt>
 0.3672764145D-02    1    2    0
 0.495305180669494D+03 0.000000000000000D+00 0.000000000000000D+00 0.495305180669494D+03
 0.495305180669494D+03 0.000000000000000D+00 0.000000000000000D+00 -.495305180669494D+03
 0.500004465218192D+03 0.338443907409552D+03 -.339681081341658D+03 -.667229327446496D+02
 0.314628003978615D+03 -.202985456029200D+03 0.227797361813068D+03 0.767857244492192D+02
 0.175977892142180D+03 -.135458451380352D+03 0.111883719528590D+03 -.100627917045697D+02
 0.000000000000000D+00 -.000000000000000D+00 -.000000000000000D+00 -.000000000000000D+00
 0.499366282028504D+03 0.000000000000000D+00 0.000000000000000D+00 0.499366282028504D+03
 0.626950450103976D+03 0.000000000000000D+00 0.000000000000000D+00 -.626950450103976D+03
 0.488760002972768D+03 0.342633643981491D+03 -.318451843712449D+03 -.667229327446496D+02
 0.322994978452988D+03 -.200283627217036D+03 0.241487426785418D+03 0.767857244492192D+02
 0.179804712844822D+03 -.133950877595362D+03 0.119522539195549D+03 -.100627917045697D+02
 0.134757037861902D+03 -.839913916909301D+01 -.425581222685181D+02 -.127584168075471D+03
0.234438252982D-03 0.000000000000D+00 0.000000000000D+00 0.187707528551D-03 0.648189221051D-06  6 2 -1 25 2 -1 21 2 0.11989411D+00 0.61805609D-01 0.26051902D+06 0.26051902D+06 0.26051902D+06 0.10891151D+01  1  2  1  2  6  2       -1 0.367276414481D-02 0.100000000000D+01
  </mgrwgt>
  </event>
  <event>
  7     66 0.20058315E-05 0.55990427E+02 0.75467711E-02 0.94103910E-01
        2 -1    0    0  503    0 0.00000000E+00 0.00000000E+00 0.64271078E+03 0.64271086E+03 0.32000000E+00 0.0000E+00 0.9000E+01
       -1 -1    0    0    0  501 0.00000000E+00 0.00000000E+00 -.58041258E+03 0.58041267E+03 0.32000000E+00 0.0000E+00 0.9000E+01
       24  2    1    2    0    0 0.38311986E+03 0.31099189E+03 0.11166094E+03 0.51228145E+03 0.80419762E+02 0.0000E+00 0.0000E+00
       25  1    1    2    0    0 -.39724223E+03 -.32867724E+03 -.19367052E+03 0.56476843E+03 0.12500000E+03 0.0000E+00 0.9000E+01
        2  1    3    3  502    0 0.16678095E+03 0.11818245E+03 0.81895339E+01 0.20457309E+03 0.32000000E+00 0.0000E+00 0.9000E+01
       -1  1    3    3    0  502 0.21633891E+03 0.19280944E+03 0.10347141E+03 0.30770836E+03 0.32000000E+00 0.0000E+00 0.9000E+01
       21  1    1    2  503  501 0.14122365E+02 0.17685351E+02 0.14430778E+03 0.14607365E+03 0.75000000E+00 0.0000E+00 0.9000E+01
#aMCatNLO 2  0  0  1  4 0.53031243D+02 0.00000000D+00  -5  6  0 0.00000000D+00 0.00000000D+00 0.00000000D+00 0.00000000D+00 0.00000000D+00
  <mgrwgt>
 0.6397440827D-02    1    2    0
 0.536842312433516D+03 0.000000000000000D+00 0.000000000000000D+00 0.536842312433516D+03
 0.536842312433516D+03 0.000000000000000D+00 0.000000000000000D+00 -.536842312433516D+03
 0.541106908220041D+03 -.390056589071707D+03 -.319678704832631D+03 -.151106151832842D+03
 0.209978387565618D+03 0.169514217065499D+03 0.121605101435573D+03 0.238338574756932D+02
 0.322599329081373D+03 0.220542372006208D+03 0.198073603397058D+03 0.127272294357148D+03
 0.000000000000000D+00 0.000000000000000D+00 0.000000000000000D+00 0.000000000000000D+00
 0.693661267571095D+03 0.000000000000000D+00 0.000000000000000D+00 0.693661267571095D+03
 0.537778752976724D+03 0.000000000000000D+00 0.000000000000000D+00 -.537778752976724D+03
 0.551623225140517D+03 -.397242227991451D+03 -.328677236347582D+03 -.151106151832842D+03
 0.205792344662470D+03 0.166780167491886D+03 0.118181267935674D+03 0.238338574756932D+02
 0.316507558970178D+03 0.216339695436343D+03 0.192810617323939D+03 0.127272294357148D+03
 0.157516891774654D+03 0.141223650632223D+02 0.176853510879694D+02 0.155882514594371D+03
0.676639127193D-03 0.000000000000D+00 0.000000000000D+00 0.185618481378D-03 0.235201806228D-05  6 2 -1 25 2 -1 21 2 0.98878431D-01 0.89294108D-01 0.27423762D+06 0.27423762D+06 0.27423762D+06 0.10874487D+01  1  2  1  1  6  1        2 0.639744082704D-02 0.100000000000D+01
  </mgrwgt>
  </event>
  <event>
  7     66 0.20058315E-05 0.71740257E+02 0.75467711E-02 0.94621715E-01
        2 -1    0    0  503    0 0.00000000E+00 0.00000000E+00 0.37288613E+04 0.37288613E+04 0.32000000E+00 0.0000E+00 0.9000E+01
       -1 -1    0    0    0  501 0.00000000E+00 0.00000000E+00 -.11800644E+03 0.11800688E+03 0.32000000E+00 0.0000E+00 0.9000E+01
       24  2    1    2    0    0 0.45581452E+03 0.17620852E+03 0.21817030E+04 0.22372262E+04 0.80849281E+02 0.0000E+00 0.0000E+00
       25  1    1    2    0    0 -.44163406E+03 -.16827662E+03 0.57243680E+03 0.75277258E+03 0.12500000E+03 0.0000E+00 0.9000E+01
        2  1    3    3  502    0 0.21732368E+03 0.12704832E+03 0.11303168E+04 0.11580100E+04 0.32000000E+00 0.0000E+00 0.9000E+01
       -1  1    3    3    0  502 0.23849084E+03 0.49160199E+02 0.10513862E+04 0.10792162E+04 0.32000000E+00 0.0000E+00 0.9000E+01
       21  1    1    2  503  501 -.14180462E+02 -.79318977E+01 0.85671500E+03 0.85686939E+03 0.75000000E+00 0.0000E+00 0.9000E+01
#aMCatNLO 2  0  0  1  4 0.53031243D+02 0.00000000D+00  -5  6  0 0.00000000D+00 0.00000000D+00 0.00000000D+00 0.00000000D+00 0.00000000D+00
  <mgrwgt>
 0.1987074371D-01    1    2    0
 0.581924060887084D+03 0.000000000000000D+00 0.000000000000000D+00 0.581924060887084D+03
 0.581924060887084D+03 0.000000000000000D+00 0.000000000000000D+00 -.581924060887084D+03
 0.585828519568612D+03 -.448731407029518D+03 -.172246549911143D+03 -.310710966541203D+03
 0.296695573853012D+03 0.213687326491041D+03 0.125015715139888D+03 0.163514711904287D+03
 0.281324028352545D+03 0.235044080538477D+03 0.472308347712544D+02 0.147196254636916D+03
 0.000000000000000D+00 -.000000000000000D+00 -.000000000000000D+00 0.000000000000000D+00
 0.755595506478049D+03 0.000000000000000D+00 0.000000000000000D+00 0.755595506478049D+03
 0.582360919434075D+03 0.000000000000000D+00 0.000000000000000D+00 -.582360919434075D+03
 0.579244309190385D+03 -.441634060927693D+03 -.168276621159902D+03 -.310710966541203D+03
 0.300180088256790D+03 0.217323350822894D+03 0.127049539801690D+03 0.163514711904287D+03
 0.284537135875988D+03 0.238491171938239D+03 0.491589790465564D+02 0.147196254636916D+03
 0.173994892588962D+03 -.141804618334408D+02 -.793189768834518D+01 0.173234587043974D+03
0.938021835208D-02 0.000000000000D+00 0.000000000000D+00 0.180945374126D-03 0.451385450203D-05  6 2 -1 25 2 -1 21 2 0.57367021D+00 0.18154846D-01 0.25017381D+06 0.25017381D+06 0.25017381D+06 0.10904364D+01  1  2  1  1  6  1        2 0.198707437092D-01 0.100000000000D+01
  </mgrwgt>
  </event>
  <event>
  7     66 0.20058315E-05 0.57798746E+02 0.75467711E-02 0.95240893E-01
        2 -1    0    0  503    0 0.00000000E+00 0.00000000E+00 0.47573417E+03 0.47573428E+03 0.32000000E+00 0.0000E+00 0.9000E+01
       -1 -1    0    0    0  501 0.00000000E+00 0.00000000E+00 -.52782909E+03 0.52782918E+03 0.32000000E+00 0.0000E+00 0.9000E+01
       24  2    1    2    0    0 0.24717660E+02 -.45557544E+03 -.14469707E+02 0.46343625E+03 0.80024024E+02 0.0000E+00 0.0000E+00
       25  1    1    2    0    0 -.32855109E+02 0.46225855E+03 -.88578534E+02 0.48809178E+03 0.12500000E+03 0.0000E+00 0.9000E+01
        2  1    3    3  502    0 0.28090098E+02 -.27961795E+03 0.27931953E+02 0.28241025E+03 0.32000000E+00 0.0000E+00 0.9000E+01
       -1  1    3    3    0  502 -.33724379E+01 -.17595749E+03 -.42401660E+02 0.18102601E+03 0.32000000E+00 0.0000E+00 0.9000E+01
       21  1    1    2  503  501 0.81374488E+01 -.66831117E+01 0.50953326E+02 0.52035430E+02 0.75000000E+00 0.0000E+00 0.9000E+01
#aMCatNLO 2  0  0  1  4 0.53031243D+02 0.00000000D+00  -5  6  0 0.00000000D+00 0.00000000D+00 0.00000000D+00 0.00000000D+00 0.00000000D+00
  <mgrwgt>
 0.9125040570D-02    1    2    0
 0.472936510757636D+03 0.000000000000000D+00 0.000000000000000D+00 0.472936510757636D+03
 0.472936510757636D+03 0.000000000000000D+00 0.000000000000000D+00 -.472936510757636D+03
 0.477810925939997D+03 -.287294400350857D+02 0.458870228984469D+03 -.359306717812059D+02
 0.289360805902101D+03 0.305703120497541D+02 -.281656141896806D+03 0.588638237400531D+02
 0.178701289673174D+03 -.184087201466836D+01 -.177214087087663D+03 -.229331519588471D+02
 0.000000000000000D+00 0.000000000000000D+00 -.000000000000000D+00 0.000000000000000D+00
 0.530371844056034D+03 0.000000000000000D+00 0.000000000000000D+00 0.530371844056034D+03
 0.473448701726813D+03 0.000000000000000D+00 0.000000000000000D+00 -.473448701726813D+03
 0.481329866240374D+03 -.328551086627017D+02 0.462258551889621D+03 -.359306717812059D+02
 0.287125681521980D+03 0.280906007969323D+02 -.279619608380795D+03 0.588638237400531D+02
 0.177476085541949D+03 -.337294096092927D+01 -.175955831815259D+03 -.229331519588471D+02
 0.578889124785441D+02 0.813744882669868D+01 -.668311169356706D+01 0.569231423292206D+02
0.549236478877D-03 0.000000000000D+00 0.000000000000D+00 0.321490281528D-03 0.186286067470D-04  6 2 -1 25 2 -1 21 2 0.73189513D-01 0.81204074D-01 0.22445430D+06 0.22445430D+06 0.22445430D+06 0.10939983D+01  1  2  1  1  6  1        2 0.912504057009D-02 0.100000000000D+01
  </mgrwgt>
  </event>
  <event>
  7     66 0.20058315E-05 0.31321146E+02 0.75467711E-02 0.92995238E-01
        2 -1    0    0  503    0 0.00000000E+00 0.00000000E+00 0.12522263E+04 0.12522263E+04 0.32000000E+00 0.0000E+00 0.9000E+01
       -1 -1    0    0    0  501 0.00000000E+00 0.00000000E+00 -.45592573E+03 0.45592584E+03 0.32000000E+00 0.0000E+00 0.9000E+01
       24  2    1    2    0    0 0.48039105E+03 0.30345271E+03 -.71910168E+02 0.57835936E+03 0.80432442E+02 0.0000E+00 0.0000E+00
       25  1    1    2    0    0 -.45997601E+03 -.28039941E+03 0.45694176E+03 0.71737196E+03 0.12500000E+03 0.0000E+00 0.9000E+01
        2  1    3    3  502    0 0.34393372E+03 0.25800199E+03 -.58445986E+02 0.43390261E+03 0.32000000E+00 0.0000E+00 0.9000E+01
       -1  1    3    3    0  502 0.13645732E+03 0.45450712E+02 -.13464182E+02 0.14445676E+03 0.32000000E+00 0.0000E+00 0.9000E+01
       21  1    1    2  503  501 -.20415035E+02 -.23053294E+02 0.41126898E+03 0.41242086E+03 0.75000000E+00 0.0000E+00 0.9000E+01
#aMCatNLO 2  0  0  1  2 0.47687793D+02 0.00000000D+00  -5  6  0 0.00000000D+00 0.00000000D+00 0.00000000D+00 0.00000000D+00 0.00000000D+00
  <mgrwgt>
 0.7860159870D-02    1    2    0
 0.618409676517556D+03 0.000000000000000D+00 0.000000000000000D+00 0.618409676517556D+03
 0.618409676517556D+03 0.000000000000000D+00 0.000000000000000D+00 -.618409676517556D+03
 0.622110953605133D+03 -.470135696633192D+03 -.291872045791809D+03 0.255304081894542D+03
 0.462283840372424D+03 0.336222378447240D+03 0.249293758190646D+03 -.196248524651630D+03
 0.152424559057555D+03 0.133913318185951D+03 0.425782876011635D+02 -.590555572429123D+02
 0.000000000000000D+00 -.000000000000000D+00 -.000000000000000D+00 0.000000000000000D+00
 0.921757966564236D+03 0.000000000000000D+00 0.000000000000000D+00 0.921757966564236D+03
 0.619383275535303D+03 0.000000000000000D+00 0.000000000000000D+00 -.619383275535303D+03
 0.609103387079135D+03 -.459976011460952D+03 -.280399412980365D+03 0.255304081894542D+03
 0.472623438701773D+03 0.343937008878973D+03 0.258005359063978D+03 -.196248524651630D+03
 0.155475801141317D+03 0.136454038043309D+03 0.454473475676919D+02 -.590555572429123D+02
 0.303938615177314D+03 -.204150354613296D+02 -.230532936513044D+02 0.302374691028933D+03
0.129613353864D-02 0.000000000000D+00 0.000000000000D+00 0.171813128425D-03 0.120888965656D-05  6 2 -1 25 2 -1 21 2 0.19265007D+00 0.70142380D-01 0.33500109D+06 0.33500109D+06 0.33500109D+06 0.10810239D+01  1  2  1  1  6  1        2 0.786015986995D-02 0.100000000000D+01
  </mgrwgt>
  </event>
  <event>
  7     66 0.20058315E-05 0.72025546E+02 0.75467711E-02 0.95044745E-01
        2 -1    0    0  501    0 0.00000000E+00 0.00000000E+00 0.13962043E+04 0.13962043E+04 0.32000000E+00 0.0000E+00 0.9000E+01
       -1 -1    0    0    0  503 0.00000000E+00 0.00000000E+00 -.18480444E+03 0.18480472E+03 0.32000000E+00 0.0000E+00 0.9000E+01
       24  2    1    2    0    0 -.27934329E+02 -.46876660E+03 0.66511858E+03 0.81874191E+03 0.86215682E+02 0.0000E+00 0.0000E+00
       25  1    1    2    0    0 0.31942010E+02 0.45905759E+03 0.56589155E+03 0.74000838E+03 0.12500000E+03 0.0000E+00 0.9000E+01
        2  1    3    3  502    0 0.24563731E+02 -.26410766E+03 0.34491699E+03 0.43511386E+03 0.32000000E+00 0.0000E+00 0.9000E+01
       -1  1    3    3    0  502 -.52498060E+02 -.20465894E+03 0.32020159E+03 0.38362805E+03 0.32000000E+00 0.0000E+00 0.9000E+01
       21  1    1    2  501  503 -.40076812E+01 0.97090102E+01 -.19610279E+02 0.22258749E+02 0.75000000E+00 0.0000E+00 0.9000E+01
#aMCatNLO 2  0  0  2  2 0.23692688D+03 0.00000000D+00  -5  6  0 0.00000000D+00 0.00000000D+00 0.00000000D+00 0.00000000D+00 0.00000000D+00
  <mgrwgt>
 0.1561617684D-01    1    2    0
 0.478070660223554D+03 0.000000000000000D+00 0.000000000000000D+00 0.478070660223554D+03
 0.478070660223554D+03 0.000000000000000D+00 0.000000000000000D+00 -.478070660223554D+03
 0.482354471612352D+03 0.299298236724848D+02 0.463932314486436D+03 -.301968461039206D+02
 0.262487923209904D+03 0.234587954916587D+02 -.261429106984202D+03 0.210161047098102D+01
 0.211298925624853D+03 -.533886191641435D+02 -.202503207502234D+03 0.280952356329396D+02
 0.000000000000000D+00 -.000000000000000D+00 0.000000000000000D+00 -.000000000000000D+00
 0.478551108494352D+03 0.000000000000000D+00 0.000000000000000D+00 0.478551108494352D+03
 0.539174468202171D+03 0.000000000000000D+00 0.000000000000000D+00 -.539174468202171D+03
 0.477798088152684D+03 0.319420101534145D+02 0.459057590630081D+03 -.301968461039206D+02
 0.265256736355905D+03 0.245647870953483D+02 -.264108482731197D+03 0.210161047098102D+01
 0.213144187755557D+03 -.524991160471839D+02 -.204658118145775D+03 0.280952356329396D+02
 0.615265644323764D+02 -.400768120157890D+01 0.970901024689106D+01 -.606233597078192D+02
0.591954470265D-03 0.000000000000D+00 0.000000000000D+00 0.700364745646D-05 0.407352827857D-06  6 2 -1 25 2 -1 21 2 0.21479966D+00 0.28431341D-01 0.23226586D+06 0.23226586D+06 0.23226586D+06 0.10928712D+01  1  2  1  2  6  2       -1 0.156161768433D-01 0.100000000000D+01
  </mgrwgt>
  </event>
  <event>
  7     66 0.20058315E-05 0.56047036E+02 0.75467711E-02 0.93740939E-01
        2 -1    0    0  501    0 0.00000000E+00 0.00000000E+00 0.34173734E+04 0.34173734E+04 0.32000000E+00 0.0000E+00 0.9000E+01
       -1 -1    0    0    0  503 0.00000000E+00 0.00000000E+00 -.42133634E+03 0.42133646E+03 0.32000000E+00 0.0000E+00 0.9000E+01
       24  2    1    2    0    0 0.18656944E+03 0.42703627E+03 0.30119395E+04 0.30488523E+04 0.80949878E+02 0.0000E+00 0.0000E+00
       25  1    1    2    0    0 -.13071662E+03 -.49461912E+03 0.19489326E+03 0.56155435E+03 0.12500000E+03 0.0000E+00 0.9000E+01
        2  1    3    3  502    0 0.98493357E+02 0.27245256E+03 0.20803961E+04 0.21004712E+04 0.32000000E+00 0.0000E+00 0.9000E+01
       -1  1    3    3    0  502 0.88076081E+02 0.15458371E+03 0.93154338E+03 0.94838109E+03 0.32000000E+00 0.0000E+00 0.9000E+01
       21  1    1    2  501  503 -.55852821E+02 0.67582855E+02 -.21079567E+03 0.22830322E+03 0.75000000E+00 0.0000E+00 0.9000E+01
#aMCatNLO 2  0  0  2  2 0.29523422D+02 0.00000000D+00  -5  6  0 0.00000000D+00 0.00000000D+00 0.00000000D+00 0.00000000D+00 0.00000000D+00
  <mgrwgt>
 0.3128412083D-02    1    2    0
 0.828186739200839D+03 0.000000000000000D+00 0.000000000000000D+00 0.828186739200839D+03
 0.828186739200839D+03 0.000000000000000D+00 0.000000000000000D+00 -.828186739200839D+03
 0.830925287396379D+03 -.158961586139094D+03 -.460442233244442D+03 -.661465038540790D+03
 0.558444416821691D+03 0.798202848066858D+02 0.295049326217714D+03 0.467370071689631D+03
 0.267003774183609D+03 0.791413013324080D+02 0.165392907026728D+03 0.194094966851159D+03
 0.000000000000000D+00 -.000000000000000D+00 0.000000000000000D+00 -.000000000000000D+00
 0.831475851876448D+03 0.000000000000000D+00 0.000000000000000D+00 0.831475851876448D+03
 0.173169590237926D+04 0.000000000000000D+00 0.000000000000000D+00 -.173169590237926D+04
 0.845515172534359D+03 -.130716617421061D+03 -.494619121854415D+03 -.661465038540790D+03
 0.549879219279850D+03 0.984935196631371D+02 0.272454397044741D+03 0.467370071689631D+03
 0.263297888233287D+03 0.880759185908727D+02 0.154581869426947D+03 0.194094966851159D+03
 0.904479474208214D+03 -.558528208329483D+02 0.675828553827274D+02 -.900220050502813D+03
0.813987455606D-02 0.000000000000D+00 0.000000000000D+00 0.998024683953D-04 0.108096023544D-06  6 2 -1 25 2 -1 21 2 0.52574966D+00 0.64820974D-01 0.29265322D+06 0.29265322D+06 0.29265322D+06 0.10853494D+01  1  2  1  2  6  2       -1 0.312841208272D-02 0.100000000000D+01
  </mgrwgt>
  </event>
  <event>
  7     66 0.20058315E-05 0.48190215E+02 0.75467711E-02 0.93421926E-01
        2 -1    0    0  503    0 0.00000000E+00 0.00000000E+00 0.12275193E+04 0.12275194E+04 0.32000000E+00 0.0000E+00 0.9000E+01
       -1 -1    0    0    0  501 0.00000000E+00 0.00000000E+00 -.38189463E+03 0.38189477E+03 0.32000000E+00 0.0000E+00 0.9000E+01
       24  2    1    2    0    0 0.44415139E+03 -.31839995E+03 0.24261472E+03 0.60201714E+03 0.70098148E+02 0.0000E+00 0.0000E+00
       25  1    1    2    0    0 -.44524875E+03 0.30672300E+03 0.17880322E+03 0.58302748E+03 0.12500000E+03 0.0000E+00 0.9000E+01
        2  1    3    3  502    0 0.16027866E+03 -.12708206E+03 0.12666073E+03 0.24058708E+03 0.32000000E+00 0.0000E+00 0.9000E+01
       -1  1    3    3    0  502 0.28387273E+03 -.19131789E+03 0.11595400E+03 0.36143007E+03 0.32000000E+00 0.0000E+00 0.9000E+01
       21  1    1    2  503  501 0.10973549E+01 0.11676953E+02 0.42420674E+03 0.42436951E+03 0.75000000E+00 0.0000E+00 0.9000E+01
#aMCatNLO 2  0  0  1  2 0.22732488D+00 0.00000000D+00  -5  6  0 0.00000000D+00 0.00000000D+00 0.00000000D+00 0.00000000D+00 0.00000000D+00
  <mgrwgt>
 0.8980493885D-02    1    2    0
 0.553759901350399D+03 0.000000000000000D+00 0.000000000000000D+00 0.553759901350399D+03
 0.553759901350399D+03 0.000000000000000D+00 0.000000000000000D+00 -.553759901350399D+03
 0.558595593513007D+03 -.444696695354975D+03 0.312597405372843D+03 -.305245538326081D+02
 0.208048834656591D+03 0.160482801729218D+03 -.124881087992104D+03 0.439806981869847D+02
 0.340875374531199D+03 0.284213893625757D+03 -.187716317380739D+03 -.134561443543766D+02
 0.000000000000000D+00 0.000000000000000D+00 0.000000000000000D+00 0.000000000000000D+00
 0.846317325934775D+03 0.000000000000000D+00 0.000000000000000D+00 0.846317325934775D+03
 0.553908508953551D+03 0.000000000000000D+00 0.000000000000000D+00 -.553908508953551D+03
 0.555771709876478D+03 -.445248749662371D+03 0.306722995610761D+03 -.305245538326081D+02
 0.209218153398786D+03 0.160276088882036D+03 -.127080719352941D+03 0.439806981869847D+02
 0.342592038347821D+03 0.283875305865602D+03 -.191319229661160D+03 -.134561443543766D+02
 0.292643933265242D+03 0.109735491473322D+01 0.116769534033404D+02 0.292408816981224D+03
0.101139584829D-02 0.000000000000D+00 0.000000000000D+00 0.382190397422D-05 0.189796044982D-06  6 2 -1 25 2 -1 21 2 0.18884898D+00 0.58752983D-01 0.30998846D+06 0.30998846D+06 0.30998846D+06 0.10835011D+01  1  2  1  1  6  1        2 0.898049388460D-02 0.100000000000D+01
  </mgrwgt>
  </event>
  <event>
  7     66 0.20058315E-05 0.71342411E+02 0.75467711E-02 0.94000315E-01
        2 -1    0    0  503    0 0.00000000E+00 0.00000000E+00 0.35568690E+03 0.35568704E+03 0.32000000E+00 0.0000E+00 0.9000E+01
       -1 -1    0    0    0  501 0.00000000E+00 0.00000000E+00 -.10701214E+04 0.10701215E+04 0.32000000E+00 0.0000E+00 0.9000E+01
       24  2    1    2    0    0 0.12714866E+03 -.50252369E+03 -.22220263E+03 0.57141773E+03 0.91909624E+02 0.0000E+00 0.0000E+00
       25  1    1    2    0    0 -.13267978E+03 0.49199839E+03 -.57057713E+03 0.77514489E+03 0.12500000E+03 0.0000E+00 0.9000E+01
        2  1    3    3  502    0 0.51822797E+02 -.29983186E+03 -.87307921E+02 0.31655572E+03 0.32000000E+00 0.0000E+00 0.9000E+01
       -1  1    3    3    0  502 0.75325863E+02 -.20269183E+03 -.13489471E+03 0.25486201E+03 0.32000000E+00 0.0000E+00 0.9000E+01
       21  1    1    2  503  501 0.55311232E+01 0.10525296E+02 0.78345223E+02 0.79245893E+02 0.75000000E+00 0.0000E+00 0.9000E+01
#aMCatNLO 2  0  0  1  2 0.22732488D+00 0.00000000D+00  -5  6  0 0.00000000D+00 0.00000000D+00 0.00000000D+00 0.00000000D+00 0.00000000D+00
  <mgrwgt>
 0.5632932397D-02    1    2    0
 0.544194309024543D+03 0.000000000000000D+00 0.000000000000000D+00 0.544194309024543D+03
 0.544194309024543D+03 0.000000000000000D+00 0.000000000000000D+00 -.544194309024543D+03
 0.547491672908843D+03 -.129908006638700D+03 0.497272870480177D+03 -.141300155697326D+03
 0.325415397046213D+03 0.534828609852746D+02 -.296673543204742D+03 0.122554367437144D+03
 0.215481548094031D+03 0.764251456534252D+02 -.200599327275435D+03 0.187457882601813D+02
 0.000000000000000D+00 0.000000000000000D+00 0.000000000000000D+00 0.000000000000000D+00
 0.699097338233089D+03 0.000000000000000D+00 0.000000000000000D+00 0.699097338233089D+03
 0.544454996640698D+03 0.000000000000000D+00 0.000000000000000D+00 -.544454996640698D+03
 0.543375633753229D+03 -.132679783831559D+03 0.491998394630557D+03 -.141300155697326D+03
 0.328032009073776D+03 0.518225209916246D+02 -.299833040736227D+03 0.122554367437144D+03
 0.217045920299643D+03 0.753261396012161D+02 -.202690650090233D+03 0.187457882601813D+02
 0.155098771747140D+03 0.553112323871817D+01 0.105252961959030D+02 0.154642341592392D+03
0.142879577829D-02 0.000000000000D+00 0.000000000000D+00 0.236360918230D-05 0.108763656629D-06  6 2 -1 25 2 -1 21 2 0.54720985D-01 0.16463381D+00 0.27935754D+06 0.27935754D+06 0.27935754D+06 0.10868499D+01  1  2  1  1  6  1        2 0.563293239671D-02 0.100000000000D+01
  </mgrwgt>
  </event>
  <event>
  7     66 0.20058315E-05 0.68375991E+02 0.75467711E-02 0.94815841E-01
        2 -1    0    0  501    0 0.00000000E+00 0.00000000E+00 0.13240052E+04 0.13240053E+04 0.32000000E+00 0.0000E+00 0.9000E+01
       -1 -1    0    0    0  503 0.00000000E+00 0.00000000E+00 -.20633476E+03 0.20633501E+03 0.32000000E+00 0.0000E+00 0.9000E+01
       24  2    1    2    0    0 -.46831213E+03 -.84022986E+02 0.67939514E+03 0.83349908E+03 0.82260872E+02 0.0000E+00 0.0000E+00
       25  1    1    2    0    0 0.46241825E+03 0.95666467E+02 0.46033147E+03 0.67120248E+03 0.12500000E+03 0.0000E+00 0.9000E+01
        2  1    3    3  502    0 -.26416379E+03 -.87963857E+01 0.39880518E+03 0.47844076E+03 0.32000000E+00 0.0000E+00 0.9000E+01
       -1  1    3    3    0  502 -.20414834E+03 -.75226600E+02 0.28058995E+03 0.35505832E+03 0.32000000E+00 0.0000E+00 0.9000E+01
       21  1    1    2  501  503 0.58938751E+01 -.11643481E+02 -.22056132E+02 0.25638718E+02 0.75000000E+00 0.0000E+00 0.9000E+01
#aMCatNLO 2  0  0  2  2 0.36554324D+02 0.00000000D+00  -5  6  0 0.00000000D+00 0.00000000D+00 0.00000000D+00 0.00000000D+00 0.00000000D+00
  <mgrwgt>
 0.2163406939D-01    1    2    0
 0.491166913842497D+03 0.000000000000000D+00 0.000000000000000D+00 0.491166913842497D+03
 0.491166913842497D+03 0.000000000000000D+00 0.000000000000000D+00 -.491166913842497D+03
 0.495675640363856D+03 0.465387058877851D+03 0.898015246220657D+02 -.736200519878575D+02
 0.268674354651896D+03 -.262548387856625D+03 -.119884380343389D+02 0.557721277610701D+02
 0.217983832669241D+03 -.202838671021227D+03 -.778130865877268D+02 0.178479242267874D+02
 0.000000000000000D+00 0.000000000000000D+00 -.000000000000000D+00 -.000000000000000D+00
 0.491873565185464D+03 0.000000000000000D+00 0.000000000000000D+00 0.491873565185464D+03
 0.555399061623416D+03 0.000000000000000D+00 0.000000000000000D+00 -.555399061623416D+03
 0.493991523690207D+03 0.462418252759078D+03 0.956664671570896D+02 -.736200519878575D+02
 0.270131221345154D+03 -.264164698217268D+03 -.879538095863647D+01 0.557721277610701D+02
 0.218297764440656D+03 -.204147429684798D+03 -.752276047317296D+02 0.178479242267874D+02
 0.648521173328620D+02 0.589387514298775D+01 -.116434814667235D+02 -.635254964379519D+02
0.903158503501D-03 0.000000000000D+00 0.000000000000D+00 0.731597306599D-04 0.275132334543D-05  6 2 -1 25 2 -1 21 2 0.20369224D+00 0.31743692D-01 0.24177042D+06 0.24177042D+06 0.24177042D+06 0.10915544D+01  1  2  1  2  6  2       -1 0.216340693894D-01 0.100000000000D+01
  </mgrwgt>
  </event>
  <event>
  7     66 0.20058315E-05 0.38094219E+02 0.75467711E-02 0.93138358E-01
        2 -1    0    0  501    0 0.00000000E+00 0.00000000E+00 0.21385224E+04 0.21385225E+04 0.32000000E+00 0.0000E+00 0.9000E+01
       21 -1    0    0  503  501 0.00000000E+00 0.00000000E+00 -.17682913E+03 0.17683072E+03 0.75000000E+00 0.0000E+00 0.9000E+01
       24  2    1    2    0    0 0.53462328E+03 -.90994040E+02 0.12203622E+04 0.13377097E+04 0.77983058E+02 0.0000E+00 0.0000E+00
       25  1    1    2    0    0 -.55519346E+03 0.97206678E+02 0.75628487E+03 0.95146241E+03 0.12500000E+03 0.0000E+00 0.9000E+01
        2  1    3    3  502    0 0.38716854E+03 -.47853207E+02 0.79753607E+03 0.88783630E+03 0.32000000E+00 0.0000E+00 0.9000E+01
        1  1    1    2  503    0 0.20570185E+02 -.62126378E+01 -.14953781E+02 0.26181049E+02 0.32000000E+00 0.0000E+00 0.9000E+01
       -1  1    3    3    0  502 0.14745474E+03 -.43140833E+02 0.42282616E+03 0.44987342E+03 0.32000000E+00 0.0000E+00 0.9000E+01
#aMCatNLO 2  0  0  2  1 0.93783441D+01 0.00000000D+00  -5  6  0 0.00000000D+00 0.00000000D+00 0.00000000D+00 0.00000000D+00 0.00000000D+00
  <mgrwgt>
 0.1851705501D-02    1    2    0
 0.577216071708682D+03 0.000000000000000D+00 0.000000000000000D+00 0.577216071708682D+03
 0.577216071708682D+03 0.000000000000000D+00 0.000000000000000D+00 -.577216071708682D+03
 0.581349550974525D+03 -.544743740812917D+03 0.940506371876230D+02 -.129425789192237D+03
 0.402127291951406D+03 0.394272877393586D+03 -.499977303344810D+02 0.612820042537253D+02
 0.000000000000000D+00 0.000000000000000D+00 -.000000000000000D+00 -.000000000000000D+00
 0.170955300491434D+03 0.150470863419330D+03 -.440529068531420D+02 0.681437849385115D+02
 0.578835170218416D+03 0.000000000000000D+00 0.000000000000000D+00 0.578835170218416D+03
 0.653302547296012D+03 0.000000000000000D+00 0.000000000000000D+00 -.653302547296012D+03
 0.591662873350638D+03 -.555193464045558D+03 0.972066781378353D+02 -.129425789192237D+03
 0.394902551313340D+03 0.387172576409934D+03 -.478532868727401D+02 0.612820042537253D+02
 0.775056102497054D+02 0.205701848042200D+02 -.621263780391465D+01 -.744673770775958D+02
 0.168066682600745D+03 0.147450702831404D+03 -.431407534611805D+02 0.681437849385115D+02
0.158076349286D-04 0.000000000000D+00 0.000000000000D+00 0.258041061792D-04 0.678875001830D-08  6 2 21 25 2 1 -1 2 0.32900339D+00 0.27204589D-01 0.32636776D+06 0.32636776D+06 0.32636776D+06 0.10818554D+01  1  2  1  6  5  2       -1 0.185170550115D-02 0.100000000000D+01
  </mgrwgt>
  </event>
  <event>
  7     66 0.20058315E-05 0.67887208E+02 0.75467711E-02 0.88882857E-01
        2 -1    0    0  503    0 0.00000000E+00 0.00000000E+00 0.54630308E+03 0.54630317E+03 0.32000000E+00 0.0000E+00 0.9000E+01
       -1 -1    0    0    0  501 0.00000000E+00 0.00000000E+00 -.17019100E+04 0.17019101E+04 0.32000000E+00 0.0000E+00 0.9000E+01
       24  2    1    2    0    0 -.14849076E+03 -.83297005E+03 -.19361649E+03 0.87151220E+03 0.78470136E+02 0.0000E+00 0.0000E+00
       25  1    1    2    0    0 0.16064031E+03 0.82845015E+03 -.10128298E+04 0.13242297E+04 0.12500000E+03 0.0000E+00 0.9000E+01
        2  1    3    3  502    0 -.11559061E+03 -.43287924E+03 -.11256508E+03 0.46197037E+03 0.32000000E+00 0.0000E+00 0.9000E+01
       -1  1    3    3    0  502 -.32900149E+02 -.40009081E+03 -.81051411E+02 0.40954183E+03 0.32000000E+00 0.0000E+00 0.9000E+01
       21  1    1    2  503  501 -.12149553E+02 0.45199035E+01 0.50839357E+02 0.52471363E+02 0.75000000E+00 0.0000E+00 0.9000E+01
#aMCatNLO 2  0  0  1  2 0.11479812D+02 0.00000000D+00  -5  6  0 0.00000000D+00 0.00000000D+00 0.00000000D+00 0.00000000D+00 0.00000000D+00
  <mgrwgt>
 0.4580232630D-02    1    2    0
 0.917278804533841D+03 0.000000000000000D+00 0.000000000000000D+00 0.917278804533841D+03
 0.917278804533841D+03 0.000000000000000D+00 0.000000000000000D+00 -.917278804533841D+03
 0.919859109918545D+03 0.154551835580013D+03 0.830715199184551D+03 -.341382146666692D+03
 0.478596617404539D+03 -.118762460312051D+03 -.431700298969714D+03 0.169071145028222D+03
 0.436101881744599D+03 -.357893752679619D+02 -.399014900214837D+03 0.172311001638470D+03
 0.000000000000000D+00 -.000000000000000D+00 0.000000000000000D+00 0.000000000000000D+00
 0.101309259521421D+04 0.000000000000000D+00 0.000000000000000D+00 0.101309259521421D+04
 0.917740266177323D+03 0.000000000000000D+00 0.000000000000000D+00 -.917740266177323D+03
 0.918858929369764D+03 0.160640312760801D+03 0.828450150543713D+03 -.341382146666692D+03
 0.478885652611859D+03 -.115591985651205D+03 -.432879785910064D+03 0.169071145028222D+03
 0.436858825342554D+03 -.328987736470182D+02 -.400090268172753D+03 0.172311001638470D+03
 0.962294540673599D+02 -.121495534625785D+02 0.451990353910414D+01 0.953523290368896D+02
0.132439992762D-01 0.000000000000D+00 0.000000000000D+00 0.520727276937D-04 0.185553778117D-05  6 2 -1 25 2 -1 21 2 0.84046503D-01 0.26183190D+00 0.73576893D+06 0.73576893D+06 0.73576893D+06 0.10568514D+01  1  2  1  1  6  1        2 0.458023262966D-02 0.100000000000D+01
  </mgrwgt>
  </event>
  <event>
  7     66 0.20058315E-05 0.46666240E+02 0.75467711E-02 0.91263226E-01
        2 -1    0    0  503    0 0.00000000E+00 0.00000000E+00 0.40817912E+04 0.40817912E+04 0.32000000E+00 0.0000E+00 0.9000E+01
       -1 -1    0    0    0  501 0.00000000E+00 0.00000000E+00 -.13687322E+03 0.13687359E+03 0.32000000E+00 0.0000E+00 0.9000E+01
       24  2    1    2    0    0 -.58655409E+03 -.24043000E+03 0.10501544E+04 0.12292663E+04 0.80119659E+02 0.0000E+00 0.0000E+00
       25  1    1    2    0    0 0.56088349E+03 0.30941660E+03 0.23238580E+04 0.24137667E+04 0.12500000E+03 0.0000E+00 0.9000E+01
        2  1    3    3  502    0 -.40243920E+03 -.16686410E+03 0.64715352E+03 0.78013378E+03 0.32000000E+00 0.0000E+00 0.9000E+01
       -1  1    3    3    0  502 -.18411489E+03 -.73565904E+02 0.40300085E+03 0.44913252E+03 0.32000000E+00 0.0000E+00 0.9000E+01
       21  1    1    2  503  501 0.25670600E+02 -.68986597E+02 0.57090565E+03 0.57563179E+03 0.75000000E+00 0.0000E+00 0.9000E+01
#aMCatNLO 2  0  0  1  2 0.11479812D+02 0.00000000D+00  -5  6  0 0.00000000D+00 0.00000000D+00 0.00000000D+00 0.00000000D+00 0.00000000D+00
  <mgrwgt>
 0.1312846829D-02    1    2    0
 0.685986916792965D+03 0.000000000000000D+00 0.000000000000000D+00 0.685986916792965D+03
 0.685986916792965D+03 0.000000000000000D+00 0.000000000000000D+00 -.685986916792965D+03
 0.689341878851943D+03 0.573810307316588D+03 0.274677348108468D+03 0.234224916677262D+03
 0.480866170021643D+03 -.393466289431519D+03 -.190988542868713D+03 -.199849766187409D+03
 0.201765784712344D+03 -.180344017885069D+03 -.836888052397558D+02 -.343751504898530D+02
 0.000000000000000D+00 0.000000000000000D+00 -.000000000000000D+00 0.000000000000000D+00
 0.799219011338860D+03 0.000000000000000D+00 0.000000000000000D+00 0.799219011338860D+03
 0.699041082172527D+03 0.000000000000000D+00 0.000000000000000D+00 -.699041082172527D+03
 0.693408414092086D+03 0.560883485429480D+03 0.309416600901939D+03 0.234224916677262D+03
 0.479316351798707D+03 -.402442681265982D+03 -.166865587680346D+03 -.199849766187409D+03
 0.201222223751122D+03 -.184111403966728D+03 -.735644159192928D+02 -.343751504898530D+02
 0.124313103869472D+03 0.256705998032299D+02 -.689865973022997D+02 0.100177929166333D+03
0.164127792373D-02 0.000000000000D+00 0.000000000000D+00 0.151571937509D-03 0.173373056285D-06  6 2 -1 25 2 -1 21 2 0.62796691D+00 0.21057414D-01 0.46252852D+06 0.46252852D+06 0.46252852D+06 0.10709097D+01  1  2  1  1  6  1        2 0.131284682901D-02 0.100000000000D+01
  </mgrwgt>
  </event>
  <event>
  7     66 0.20058315E-05 0.99239231E+02 0.75467711E-02 0.87569124E-01
        2 -1    0    0  501    0 0.00000000E+00 0.00000000E+00 0.50960505E+04 0.50960505E+04 0.32000000E+00 0.0000E+00 0.9000E+01
       -1 -1    0    0    0  503 0.00000000E+00 0.00000000E+00 -.32535480E+03 0.32535495E+03 0.32000000E+00 0.0000E+00 0.9000E+01
       24  2    1    2    0    0 -.86914065E+03 -.89543110E+02 0.38223340E+04 0.39217364E+04 0.79723673E+02 0.0000E+00 0.0000E+00
       25  1    1    2    0    0 0.96062912E+03 0.15295411E+02 0.97958802E+03 0.13777735E+04 0.12500000E+03 0.0000E+00 0.9000E+01
        2  1    3    3  502    0 -.15455248E+03 -.25207303E+02 0.56339046E+03 0.58474848E+03 0.32000000E+00 0.0000E+00 0.9000E+01
       -1  1    3    3    0  502 -.71458817E+03 -.64335807E+02 0.32589435E+04 0.33369879E+04 0.32000000E+00 0.0000E+00 0.9000E+01
       21  1    1    2  501  503 -.91488471E+02 0.74247700E+02 -.31226337E+02 0.12189548E+03 0.75000000E+00 0.0000E+00 0.9000E+01
#aMCatNLO 2  0  0  2  1 0.93783441D+01 0.00000000D+00  -5  6  0 0.00000000D+00 0.00000000D+00 0.00000000D+00 0.00000000D+00 0.00000000D+00
  <mgrwgt>
 0.3824686696D-04    1    2    0
 0.111942707105056D+04 0.000000000000000D+00 0.000000000000000D+00 0.111942707105056D+04
 0.111942707105056D+04 0.000000000000000D+00 0.000000000000000D+00 -.111942707105056D+04
 0.112149713353216D+04 0.914073572605363D+03 0.530776830440166D+02 -.635439284234135D+03
 0.181237498020314D+03 -.161827588292513D+03 -.192952209837987D+02 0.792878099286306D+02
 0.936119510548651D+03 -.752245984312850D+03 -.337824620602178D+02 0.556151474305505D+03
 0.000000000000000D+00 -.000000000000000D+00 0.000000000000000D+00 -.000000000000000D+00
 0.113103756284390D+04 0.000000000000000D+00 0.000000000000000D+00 0.113103756284390D+04
 0.146593164659256D+04 0.000000000000000D+00 0.000000000000000D+00 -.146593164659256D+04
 0.115864159289646D+04 0.960629120555335D+03 0.152954105126517D+02 -.635439284234135D+03
 0.175515282654132D+03 -.154543460798661D+03 -.252066730500842D+02 0.792878099286306D+02
 0.907795561683224D+03 -.714597188840030D+03 -.643364371215842D+02 0.556151474305505D+03
 0.355016772202633D+03 -.914884709166435D+02 0.742476996590167D+02 -.334894083748661D+03
0.293125664516D-02 0.000000000000D+00 0.000000000000D+00 0.629624392251D-04 0.279738478162D-07  6 2 -1 25 2 -1 21 2 0.78400750D+00 0.50054579D-01 0.96113230D+06 0.96113230D+06 0.96113230D+06 0.10490119D+01  1  2  1  2  6  2       -1 0.382468669611D-04 0.100000000000D+01
  </mgrwgt>
  </event>
  <event>
  7     66 0.20058315E-05 0.28738070E+02 0.75467711E-02 0.90145688E-01
        2 -1    0    0  501    0 0.00000000E+00 0.00000000E+00 0.20695309E+04 0.20695310E+04 0.32000000E+00 0.0000E+00 0.9000E+01
       21 -1    0    0  503  501 0.00000000E+00 0.00000000E+00 -.33374546E+03 0.33374630E+03 0.75000000E+00 0.0000E+00 0.9000E+01
       24  2    1    2    0    0 -.67439329E+03 -.27855543E+03 0.97895249E+03 0.12237566E+04 0.82660008E+02 0.0000E+00 0.0000E+00
       25  1    1    2    0    0 0.69444813E+03 0.25702902E+03 0.81873695E+03 0.11109803E+04 0.12500000E+03 0.0000E+00 0.9000E+01
        2  1    3    3  502    0 -.13050620E+03 -.89453985E+02 0.19733723E+03 0.25293471E+03 0.32000000E+00 0.0000E+00 0.9000E+01
        1  1    1    2  503    0 -.20054839E+02 0.21526414E+02 -.61903953E+02 0.68540388E+02 0.32000000E+00 0.0000E+00 0.9000E+01
       -1  1    3    3    0  502 -.54388709E+03 -.18910145E+03 0.78161526E+03 0.97082184E+03 0.32000000E+00 0.0000E+00 0.9000E+01
#aMCatNLO 2  0  0  2  1 0.27711688D+01 0.00000000D+00  -5  6  0 0.00000000D+00 0.00000000D+00 0.00000000D+00 0.00000000D+00 0.00000000D+00
  <mgrwgt>
 0.1312368254D-02    1    2    0
 0.744721999008259D+03 0.000000000000000D+00 0.000000000000000D+00 0.744721999008259D+03
 0.744721999008259D+03 0.000000000000000D+00 0.000000000000000D+00 -.744721999008259D+03
 0.747673544386143D+03 0.684344999156525D+03 0.267873488714146D+03 -.575016969184806D+02
 0.158762017206853D+03 -.132634137105867D+03 -.871617610258378D+02 0.404860428366483D+01
 0.000000000000000D+00 -.000000000000000D+00 0.000000000000000D+00 -.000000000000000D+00
 0.583008436423522D+03 -.551710862050658D+03 -.180711727688309D+03 0.534530926348158D+02
 0.746063344099046D+03 0.000000000000000D+00 0.000000000000000D+00 0.746063344099046D+03
 0.925789139216076D+03 0.000000000000000D+00 0.000000000000000D+00 -.925789139216076D+03
 0.753162374526358D+03 0.694448127123622D+03 0.257029017794045D+03 -.575016969184806D+02
 0.158266833308269D+03 -.130500004383126D+03 -.894524912162078D+02 0.404860428366483D+01
 0.182117941100424D+03 -.200548385399746D+02 0.215264138059398D+02 -.179725795117029D+03
 0.578305334380070D+03 -.543893284200521D+03 -.189102940383777D+03 0.534530926348158D+02
0.410840499599D-04 0.000000000000D+00 0.000000000000D+00 0.305273053890D-04 0.665458672757D-08  6 2 21 25 2 1 -1 2 0.31838938D+00 0.51345512D-01 0.57337429D+06 0.57337429D+06 0.57337429D+06 0.10643327D+01  1  2  1  6  5  2       -1 0.131236825370D-02 0.100000000000D+01
  </mgrwgt>
  </event>
  <event>
  7     66 0.20058315E-05 0.22028744E+02 0.75467711E-02 0.93712575E-01
        2 -1    0    0  501    0 0.00000000E+00 0.00000000E+00 0.24674993E+04 0.24674993E+04 0.32000000E+00 0.0000E+00 0.9000E+01
       21 -1    0    0  503  501 0.00000000E+00 0.00000000E+00 -.17501127E+03 0.17501287E+03 0.75000000E+00 0.0000E+00 0.9000E+01
       24  2    1    2    0    0 -.39421753E+03 0.35635551E+03 0.13677531E+04 0.14695576E+04 0.80339426E+02 0.0000E+00 0.0000E+00
       25  1    1    2    0    0 0.36612888E+03 -.34816201E+03 0.98044416E+03 0.11100283E+04 0.12500000E+03 0.0000E+00 0.9000E+01
        2  1    3    3  502    0 -.31262849E+03 0.31382327E+03 0.11816861E+04 0.12619841E+04 0.32000000E+00 0.0000E+00 0.9000E+01
        1  1    1    2  503    0 0.28088656E+02 -.81935007E+01 -.55709154E+02 0.62926292E+02 0.32000000E+00 0.0000E+00 0.9000E+01
       -1  1    3    3    0  502 -.81589042E+02 0.42532235E+02 0.18606692E+03 0.20757351E+03 0.32000000E+00 0.0000E+00 0.9000E+01
#aMCatNLO 2  0  0  2  1 0.81044241D+01 0.00000000D+00  -5  6  0 0.00000000D+00 0.00000000D+00 0.00000000D+00 0.00000000D+00 0.00000000D+00
  <mgrwgt>
 0.1928762766D-02    1    2    0
 0.533708091269381D+03 0.000000000000000D+00 0.000000000000000D+00 0.533708091269381D+03
 0.533708091269381D+03 0.000000000000000D+00 0.000000000000000D+00 -.533708091269381D+03
 0.538003780614398D+03 0.380119090487581D+03 -.352242970857853D+03 -.725081683916583D+02
 0.439582625507045D+03 -.300929187003468D+03 0.310413803449261D+03 0.794844619108801D+02
 0.000000000000000D+00 0.000000000000000D+00 -.000000000000000D+00 -.000000000000000D+00
 0.898297764173187D+02 -.791899034841129D+02 0.418291674085920D+02 -.697629351922177D+01
 0.534690421873195D+03 0.000000000000000D+00 0.000000000000000D+00 0.534690421873195D+03
 0.807648999869477D+03 0.000000000000000D+00 0.000000000000000D+00 -.807648999869477D+03
 0.525499352818198D+03 0.366128875431217D+03 -.348162005256611D+03 -.725081683916583D+02
 0.450049320298973D+03 -.312632154161324D+03 0.313827575590094D+03 0.794844619108801D+02
 0.274522296590148D+03 0.280886555300465D+02 -.819350071042068D+01 -.272958577996282D+03
 0.922684520353524D+02 -.815853767999395D+02 0.425279303769379D+02 -.697629351922177D+01
0.244200957971D-04 0.000000000000D+00 0.000000000000D+00 0.205450476973D-03 0.799348316677D-07  6 2 21 25 2 1 -1 2 0.37961534D+00 0.26924931D-01 0.29414968D+06 0.29414968D+06 0.29414968D+06 0.10851852D+01  1  2  1  6  5  2       -1 0.192876276566D-02 0.100000000000D+01
  </mgrwgt>
  </event>
  <event>
  7     66 0.20058315E-05 0.13359751E+03 0.75467711E-02 0.91688030E-01
        2 -1    0    0  501    0 0.00000000E+00 0.00000000E+00 0.86400152E+03 0.86400158E+03 0.32000000E+00 0.0000E+00 0.9000E+01
       -1 -1    0    0    0  503 0.00000000E+00 0.00000000E+00 -.13315642E+04 0.13315643E+04 0.32000000E+00 0.0000E+00 0.9000E+01
       24  2    1    2    0    0 -.55871370E+03 0.30983788E+03 0.25337233E+03 0.69186410E+03 0.79485149E+02 0.0000E+00 0.0000E+00
       25  1    1    2    0    0 0.43740854E+03 -.19152281E+03 0.22518166E+03 0.54253018E+03 0.12500000E+03 0.0000E+00 0.9000E+01
        2  1    3    3  502    0 -.26842935E+03 0.10441019E+03 0.10573679E+03 0.30681619E+03 0.32000000E+00 0.0000E+00 0.9000E+01
       -1  1    3    3    0  502 -.29028435E+03 0.20542769E+03 0.14763554E+03 0.38504791E+03 0.32000000E+00 0.0000E+00 0.9000E+01
       21  1    1    2  501  503 0.12130517E+03 -.11831507E+03 -.94611671E+03 0.96117157E+03 0.75000000E+00 0.0000E+00 0.9000E+01
#aMCatNLO 2  0  0  2  1 0.81044241D+01 0.00000000D+00  -5  6  0 0.00000000D+00 0.00000000D+00 0.00000000D+00 0.00000000D+00 0.00000000D+00
  <mgrwgt>
 0.5572083212D-03    1    2    0
 0.562583753973097D+03 0.000000000000000D+00 0.000000000000000D+00 0.562583753973097D+03
 0.562583753973097D+03 0.000000000000000D+00 0.000000000000000D+00 -.562583753973097D+03
 0.566719631958045D+03 0.494258626018915D+03 -.246971576915761D+03 0.161118604853395D+02
 0.251709384488255D+03 -.239478724659237D+03 0.761718836880243D+02 -.143317413617362D+02
 0.306738491499894D+03 -.254779901359678D+03 0.170799693227737D+03 -.178011912360326D+01
 0.000000000000000D+00 0.000000000000000D+00 -.000000000000000D+00 -.000000000000000D+00
 0.573927919400061D+03 0.000000000000000D+00 0.000000000000000D+00 0.573927919400061D+03
 0.200456050706325D+04 0.000000000000000D+00 0.000000000000000D+00 -.200456050706325D+04
 0.493854032869562D+03 0.437408536917850D+03 -.191522806904601D+03 0.161118604853395D+02
 0.288375920332781D+03 -.268428998194685D+03 0.104408551113004D+03 -.143317413617362D+02
 0.355625626298492D+03 -.290284704432746D+03 0.205429325142477D+03 -.178011912360326D+01
 0.144063284696247D+04 0.121305165709582D+03 -.118315069350880D+03 -.143063258766319D+04
0.897062001573D-03 0.000000000000D+00 0.000000000000D+00 0.148664289398D-03 0.599880452742D-07  6 2 -1 25 2 -1 21 2 0.13292330D+00 0.20485601D+00 0.42685457D+06 0.42685457D+06 0.42685457D+06 0.10733992D+01  1  2  1  2  6  2       -1 0.557208321247D-03 0.100000000000D+01
  </mgrwgt>
  </event>
  <event>
  7     66 0.20058315E-05 0.28749663E+02 0.75467711E-02 0.95033324E-01
        2 -1    0    0  503    0 0.00000000E+00 0.00000000E+00 0.21221551E+03 0.21221575E+03 0.32000000E+00 0.0000E+00 0.9000E+01
       -1 -1    0    0    0  501 0.00000000E+00 0.00000000E+00 -.13737241E+04 0.13737241E+04 0.32000000E+00 0.0000E+00 0.9000E+01
       24  2    1    2    0    0 -.38794420E+03 -.25249158E+03 -.44128780E+03 0.64469401E+03 0.81502984E+02 0.0000E+00 0.0000E+00
       25  1    1    2    0    0 0.36994636E+03 0.27010484E+03 -.75883588E+03 0.89513900E+03 0.12500000E+03 0.0000E+00 0.9000E+01
        2  1    3    3  502    0 -.31852081E+03 -.18669310E+03 -.30899143E+03 0.48144120E+03 0.32000000E+00 0.0000E+00 0.9000E+01
       -1  1    3    3    0  502 -.69423393E+02 -.65798482E+02 -.13229638E+03 0.16325281E+03 0.32000000E+00 0.0000E+00 0.9000E+01
       21  1    1    2  503  501 0.17997840E+02 -.17613252E+02 0.38615142E+02 0.46106838E+02 0.75000000E+00 0.0000E+00 0.9000E+01
#aMCatNLO 2  0  0  1  2 0.43422404D+01 0.00000000D+00  -5  6  0 0.00000000D+00 0.00000000D+00 0.00000000D+00 0.00000000D+00 0.00000000D+00
  <mgrwgt>
 0.7017606825D-02    1    2    0
 0.482222637845101D+03 0.000000000000000D+00 0.000000000000000D+00 0.482222637845101D+03
 0.482222637845101D+03 0.000000000000000D+00 0.000000000000000D+00 -.482222637845101D+03
 0.486879337356263D+03 0.379010707335926D+03 0.261234183617694D+03 -.976425838391808D+02
 0.381640055958968D+03 -.311381524711884D+03 -.193685452124624D+03 0.105719553611178D+03
 0.959258823749712D+02 -.676291826240423D+02 -.675487314930708D+02 -.807696977199717D+01
 0.000000000000000D+00 0.000000000000000D+00 -.000000000000000D+00 0.000000000000000D+00
 0.602690704022347D+03 0.000000000000000D+00 0.000000000000000D+00 0.602690704022347D+03
 0.483704799824846D+03 0.000000000000000D+00 0.000000000000000D+00 -.483704799824846D+03
 0.484743239313745D+03 0.369946363030231D+03 0.270104835873584D+03 -.976425838391808D+02
 0.384043730071681D+03 -.318524649658255D+03 -.186694965523202D+03 0.105719553611178D+03
 0.959870138276413D+02 -.694195532984718D+02 -.657966184745894D+02 -.807696977199717D+01
 0.121621520634125D+03 0.179978399264961D+02 -.176132518757932D+02 0.118985904197501D+03
0.234673452660D-02 0.000000000000D+00 0.000000000000D+00 0.119596779524D-03 0.122997690086D-05  6 2 -1 25 2 -1 21 2 0.32648484D-01 0.21134168D+00 0.23273003D+06 0.23273003D+06 0.23273003D+06 0.10928056D+01  1  2  1  1  6  1        2 0.701760682451D-02 0.100000000000D+01
  </mgrwgt>
  </event>
  <event>
  7     66 0.20058315E-05 0.47030265E+02 0.75467711E-02 0.94836348E-01
        2 -1    0    0  501    0 0.00000000E+00 0.00000000E+00 0.14140088E+04 0.14140089E+04 0.32000000E+00 0.0000E+00 0.9000E+01
       -1 -1    0    0    0  503 0.00000000E+00 0.00000000E+00 -.32400239E+03 0.32400254E+03 0.32000000E+00 0.0000E+00 0.9000E+01
       24  2    1    2    0    0 -.42632087E+03 -.10038187E+03 0.10295232E+03 0.45657809E+03 0.77706936E+02 0.0000E+00 0.0000E+00
       25  1    1    2    0    0 0.45770158E+03 0.40800755E+02 0.10720095E+04 0.11730238E+04 0.12500000E+03 0.0000E+00 0.9000E+01
        2  1    3    3  502    0 -.91616956E+02 -.25536337E+02 0.56100105E+02 0.11042235E+03 0.32000000E+00 0.0000E+00 0.9000E+01
       -1  1    3    3    0  502 -.33470391E+03 -.74845533E+02 0.46852211E+02 0.34615574E+03 0.32000000E+00 0.0000E+00 0.9000E+01
       21  1    1    2  501  503 -.31380714E+02 0.59581115E+02 -.84955345E+02 0.10840956E+03 0.75000000E+00 0.0000E+00 0.9000E+01
#aMCatNLO 2  0  0  2  1 0.81044241D+01 0.00000000D+00  -5  6  0 0.00000000D+00 0.00000000D+00 0.00000000D+00 0.00000000D+00 0.00000000D+00
  <mgrwgt>
 0.2101571706D-02    1    2    0
 0.563589465893776D+03 0.000000000000000D+00 0.000000000000000D+00 0.563589465893776D+03
 0.563589465893776D+03 0.000000000000000D+00 0.000000000000000D+00 -.563589465893776D+03
 0.567841954939919D+03 0.441774013224519D+03 0.710417000924870D+02 0.326509240110385D+03
 0.102357955005361D+03 -.944407425572301D+02 -.201662804430624D+02 -.339325541509954D+02
 0.456979021842273D+03 -.347333270667289D+03 -.508754196494246D+02 -.292576685959390D+03
 0.000000000000000D+00 -.000000000000000D+00 0.000000000000000D+00 -.000000000000000D+00
 0.569315384899989D+03 0.000000000000000D+00 0.000000000000000D+00 0.569315384899989D+03
 0.804723533775540D+03 0.000000000000000D+00 0.000000000000000D+00 -.804723533775540D+03
 0.577398238343306D+03 0.457701584170392D+03 0.408007550470071D+02 0.326509240110385D+03
 0.100977182223176D+03 -.916128337543511D+02 -.255355005829136D+02 -.339325541509954D+02
 0.450813227428615D+03 -.334708036642866D+03 -.748463697469858D+02 -.292576685959390D+03
 0.244850270680432D+03 -.313807137731757D+02 0.595811152828923D+02 -.235408148875551D+03
0.216986427641D-03 0.000000000000D+00 0.000000000000D+00 0.244180953635D-04 0.362531929761D-07  6 2 -1 25 2 -1 21 2 0.21753962D+00 0.49846486D-01 0.24090135D+06 0.24090135D+06 0.24090135D+06 0.10916724D+01  1  2  1  2  6  2       -1 0.210157170618D-02 0.100000000000D+01
  </mgrwgt>
  </event>
  <event>
  7     66 0.20058315E-05 0.39977720E+02 0.75467711E-02 0.95178919E-01
        2 -1    0    0  501    0 0.00000000E+00 0.00000000E+00 0.99769298E+03 0.99769303E+03 0.32000000E+00 0.0000E+00 0.9000E+01
       -1 -1    0    0    0  503 0.00000000E+00 0.00000000E+00 -.25892499E+03 0.25892519E+03 0.32000000E+00 0.0000E+00 0.9000E+01
       24  2    1    2    0    0 -.17690899E+03 0.41234585E+03 0.22149195E+03 0.50685309E+03 0.80718519E+02 0.0000E+00 0.0000E+00
       25  1    1    2    0    0 0.20154451E+03 -.40841520E+03 0.53902781E+03 0.71665832E+03 0.12500000E+03 0.0000E+00 0.9000E+01
        2  1    3    3  502    0 -.18415086E+02 0.13289048E+03 0.75757126E+02 0.15407219E+03 0.32000000E+00 0.0000E+00 0.9000E+01
       -1  1    3    3    0  502 -.15849391E+03 0.27945537E+03 0.14573482E+03 0.35278090E+03 0.32000000E+00 0.0000E+00 0.9000E+01
       21  1    1    2  501  503 -.24635513E+02 -.39306506E+01 -.21751773E+02 0.33106807E+02 0.75000000E+00 0.0000E+00 0.9000E+01
#aMCatNLO 2  0  0  2  1 0.81044241D+01 0.00000000D+00  -5  6  0 0.00000000D+00 0.00000000D+00 0.00000000D+00 0.00000000D+00 0.00000000D+00
  <mgrwgt>
 0.1084438157D-01    1    2    0
 0.479053107251261D+03 0.000000000000000D+00 0.000000000000000D+00 0.479053107251261D+03
 0.479053107251261D+03 0.000000000000000D+00 0.000000000000000D+00 -.479053107251261D+03
 0.483807027323152D+03 0.189063668716938D+03 -.410406549176317D+03 0.119438826399731D+03
 0.136542878390789D+03 -.219235046560782D+02 0.132328048973617D+03 -.255461354743278D+02
 0.337756308788581D+03 -.167140164060860D+03 0.278078500202700D+03 -.938926909254030D+02
 0.000000000000000D+00 -.000000000000000D+00 -.000000000000000D+00 -.000000000000000D+00
 0.481955774473935D+03 0.000000000000000D+00 0.000000000000000D+00 0.481955774473935D+03
 0.535993753321528D+03 0.000000000000000D+00 0.000000000000000D+00 -.535993753321528D+03
 0.487148642952645D+03 0.201544507326239D+03 -.408415203739383D+03 0.119438826399731D+03
 0.136568322559895D+03 -.184128842170526D+02 0.132888176238370D+03 -.255461354743278D+02
 0.334713979720678D+03 -.158496110169037D+03 0.279457678142014D+03 -.938926909254030D+02
 0.595185825622456D+02 -.246355129401496D+02 -.393065064100174D+01 -.540379788475935D+02
0.428470642545D-03 0.000000000000D+00 0.000000000000D+00 0.225768818812D-03 0.233030023761D-05  6 2 -1 25 2 -1 21 2 0.15349050D+00 0.39834439D-01 0.22689008D+06 0.22689008D+06 0.22689008D+06 0.10936423D+01  1  2  1  2  6  2       -1 0.108443815698D-01 0.100000000000D+01
  </mgrwgt>
  </event>
  <event>
  6     66 0.20058315E-05 0.24740910E+02 0.75467711E-02 0.91616001E-01
        2 -1    0    0  501    0 0.00000000E+00 0.00000000E+00 0.69975431E+03 0.69975438E+03 0.32000000E+00 0.0000E+00 0.9000E+01
       -1 -1    0    0    0  501 0.00000000E+00 0.00000000E+00 -.62305197E+03 0.62305205E+03 0.32000000E+00 0.0000E+00 0.9000E+01
       24  2    1    2    0    0 -.61950588E+03 0.19053113E+03 0.84830329E+02 0.66266954E+03 0.10883516E+03 0.0000E+00 0.0000E+00
       25  1    1    2    0    0 0.61950588E+03 -.19053113E+03 -.81279925E+01 0.66013689E+03 0.12500000E+03 0.0000E+00 0.9000E+01
        2  1    3    3  502    0 -.28924347E+02 -.11743414E+02 0.14620118E+02 0.34472828E+02 0.32000000E+00 0.0000E+00 0.9000E+01
       -1  1    3    3    0  502 -.59058153E+03 0.20227454E+03 0.70210212E+02 0.62819672E+03 0.32000000E+00 0.0000E+00 0.9000E+01
#aMCatNLO 1  0  0  4  5 0.60433222D+00 0.00000000D+00  -5  6  0 0.00000000D+00 0.00000000D+00 0.00000000D+00 0.00000000D+00 0.00000000D+00
  <mgrwgt>
 0.3678919063D-01    9    2    0
 0.660290391184892D+03 0.000000000000000D+00 0.000000000000000D+00 0.660290391184892D+03
 0.660290391184892D+03 -.000000000000000D+00 -.000000000000000D+00 -.660290391184892D+03
 0.661721552696521D+03 0.619505887178627D+03 -.190531131301833D+03 -.464839440985953D+02
 0.336766354744419D+02 -.289194942617369D+02 -.117452440818501D+02 0.126423047733224D+02
 0.625182594198819D+03 -.590586392916890D+03 0.202276375383683D+03 0.338416393252728D+02
 0.000000000000000D+00 0.000000000000000D+00 -.000000000000000D+00 0.000000000000000D+00
 0.660290391184892D+03 0.000000000000000D+00 0.000000000000000D+00 0.660290391184892D+03
 0.660290391184892D+03 -.000000000000000D+00 -.000000000000000D+00 -.660290391184892D+03
 0.661713395235566D+03 0.619496289802178D+03 -.190535029140707D+03 -.464797485564120D+02
 0.196153971578898D+02 -.170253357057676D+02 -.627162663496271D+01 0.745442480137088D+01
 0.625190183060301D+03 -.590595460456072D+03 0.202272692730731D+03 0.338456032463859D+02
 0.140618069160259D+02 -.118754936403381D+02 -.546603695506163D+01 0.517972050865522D+01
0.199330135339D-05 0.000000000000D+00 0.000000000000D+00 0.635876575523D-07 0.000000000000D+00  6 2 -1 25 2 -1 21 0 0.10765452D+00 0.95854161D-01 0.43267875D+06 0.43267875D+06 0.43267875D+06 0.10729776D+01  1  2  2  3  6  4        2 0.121236535744D-04 0.100000000000D+01
0.663617165966D-06 0.000000000000D+00 -.765480204531D-08 0.635876575523D-07 0.000000000000D+00  6 2 -1 25 2 -1 21 2 0.10765452D+00 0.95854161D-01 0.43267875D+06 0.43267875D+06 0.43267875D+06 0.10729776D+01  1  2  3  3  6  4        2 0.464685868954D-05 0.100000000000D+01
-.617937768461D-06 0.000000000000D+00 0.000000000000D+00 0.635876575523D-07 0.000000000000D+00  6 2 -1 25 2 -1 21 2 0.10765452D+00 0.95854161D-01 0.43267875D+06 0.43267875D+06 0.43267875D+06 0.10729776D+01  1  2 15  3  6  4        2 -.432699700404D-05 0.100000000000D+01
0.133072293493D-11 0.000000000000D+00 0.000000000000D+00 0.635876575523D-07 0.000000000000D+00  6 2 -1 25 2 -1 21 2 0.10765452D+00 0.95854161D-01 0.43268054D+06 0.43268054D+06 0.43268054D+06 0.10729775D+01  1  2 12  3  6  4        2 0.931814197653D-11 0.100000000000D+01
0.310906183270D-13 0.000000000000D+00 0.000000000000D+00 0.635876575523D-07 0.000000000000D+00  6 2 -1 25 2 -1 21 2 0.10765452D+00 0.95854161D-01 0.43268054D+06 0.43268054D+06 0.43268054D+06 0.10729775D+01  1  2 12  3  6  4        2 0.217706321959D-12 0.100000000000D+01
-.333162785261D-02 0.000000000000D+00 0.000000000000D+00 0.635876575523D-07 0.000000000000D+00  6 2 -1 25 2 -1 21 2 0.10765452D+00 0.95854161D-01 0.43267875D+06 0.43267875D+06 0.43267875D+06 0.10729776D+01  1  2  4  3  6  4        2 -.233291190029D-01 0.100000000000D+01
-.131192243225D-02 0.000000000000D+00 0.000000000000D+00 0.635876575523D-07 0.000000000000D+00  6 2 -1 25 2 -1 21 2 0.10765452D+00 0.95854161D-01 0.43267875D+06 0.43267875D+06 0.43267875D+06 0.10729776D+01  1  2  5  3  6  4        2 -.918649858224D-02 0.100000000000D+01
0.382663301659D-02 0.000000000000D+00 -.000000000000D+00 0.635876575523D-07 0.000000000000D+00  6 2 -1 25 2 -1 21 2 0.10765452D+00 0.95854161D-01 0.43267875D+06 0.43267875D+06 0.43267875D+06 0.10729776D+01  1  2  6  3  6  4        2 0.267953027691D-01 0.100000000000D+01
0.606900121319D-02 0.000000000000D+00 0.000000000000D+00 0.635876575523D-07 0.192871376298D-05  6 2 -1 25 2 -1 21 2 0.10765452D+00 0.95854161D-01 0.43268054D+06 0.43268054D+06 0.43268054D+06 0.10729775D+01  1  2 11  3  6  4        2 0.424970619172D-01 0.100000000000D+01
  </mgrwgt>
  </event>
  <event>
  7     66 0.20058315E-05 0.72364090E+02 0.75467711E-02 0.92610471E-01
        2 -1    0    0  501    0 0.00000000E+00 0.00000000E+00 0.20184203E+04 0.20184203E+04 0.32000000E+00 0.0000E+00 0.9000E+01
       -1 -1    0    0    0  503 0.00000000E+00 0.00000000E+00 -.22351576E+03 0.22351599E+03 0.32000000E+00 0.0000E+00 0.9000E+01
       24  2    1    2    0    0 -.10054621E+03 -.50652911E+03 0.70173307E+03 0.87420333E+03 0.71560343E+02 0.0000E+00 0.0000E+00
       25  1    1    2    0    0 0.19113598E+03 0.53624035E+03 0.11251668E+04 0.12671669E+04 0.12500000E+03 0.0000E+00 0.9000E+01
        2  1    3    3  502    0 -.59477281E+02 -.13920816E+03 0.18946301E+03 0.24251349E+03 0.32000000E+00 0.0000E+00 0.9000E+01
       -1  1    3    3    0  502 -.41068929E+02 -.36732095E+03 0.51227006E+03 0.63168984E+03 0.32000000E+00 0.0000E+00 0.9000E+01
       21  1    1    2  501  503 -.90589770E+02 -.29711240E+02 -.31995353E+02 0.10056604E+03 0.75000000E+00 0.0000E+00 0.9000E+01
#aMCatNLO 2  0  0  2  1 0.24513179D+02 0.00000000D+00  -5  6  0 0.00000000D+00 0.00000000D+00 0.00000000D+00 0.00000000D+00 0.00000000D+00
  <mgrwgt>
 0.6467673687D-02    1    2    0
 0.556510139052976D+03 0.000000000000000D+00 0.000000000000000D+00 0.556510139052976D+03
 0.556510139052976D+03 0.000000000000000D+00 0.000000000000000D+00 -.556510139052976D+03
 0.561228883888466D+03 0.144414713385008D+03 0.520916908377567D+03 0.845152367030778D+02
 0.164148248438175D+03 -.724427638639384D+02 -.143455838755207D+03 -.334232816478934D+02
 0.387643145779311D+03 -.719719495210698D+02 -.377461069622359D+03 -.510919550551844D+02
 0.000000000000000D+00 -.000000000000000D+00 -.000000000000000D+00 -.000000000000000D+00
 0.568198985691598D+03 0.000000000000000D+00 0.000000000000000D+00 0.568198985691598D+03
 0.793996722782477D+03 0.000000000000000D+00 0.000000000000000D+00 -.793996722782477D+03
 0.588943543822081D+03 0.191135980074333D+03 0.536240346948790D+03 0.845152367030778D+02
 0.155023700651290D+03 -.594776489003989D+02 -.139203596536825D+03 -.334232816478934D+02
 0.373128724428956D+03 -.410685609669825D+02 -.367325510171455D+03 -.510919550551844D+02
 0.245099739571748D+03 -.905897702069517D+02 -.297112402405095D+02 -.225797737090878D+03
0.773596035131D-03 0.000000000000D+00 0.000000000000D+00 0.321490839101D-05 0.230266414745D-08  6 2 -1 25 2 -1 21 2 0.31052591D+00 0.34387025D-01 0.35950668D+06 0.35950668D+06 0.35950668D+06 0.10787852D+01  1  2  1  2  6  2       -1 0.646767368652D-02 0.100000000000D+01
  </mgrwgt>
  </event>
  <event>
  7     66 0.20058315E-05 0.14532440E+03 0.75467711E-02 0.91472808E-01
        2 -1    0    0  503    0 0.00000000E+00 0.00000000E+00 0.20885333E+04 0.20885333E+04 0.32000000E+00 0.0000E+00 0.9000E+01
       -1 -1    0    0    0  501 0.00000000E+00 0.00000000E+00 -.35563763E+03 0.35563777E+03 0.32000000E+00 0.0000E+00 0.9000E+01
       24  2    1    2    0    0 -.57817113E+03 -.15425511E+03 0.56801023E+03 0.82887302E+03 0.79488189E+02 0.0000E+00 0.0000E+00
       25  1    1    2    0    0 0.54515381E+03 -.15508997E+02 0.14113470E+03 0.57704177E+03 0.12500000E+03 0.0000E+00 0.9000E+01
        2  1    3    3  502    0 -.39748647E+03 -.78964641E+02 0.34574190E+03 0.53269924E+03 0.32000000E+00 0.0000E+00 0.9000E+01
       -1  1    3    3    0  502 -.18068465E+03 -.75290472E+02 0.22226832E+03 0.29617378E+03 0.32000000E+00 0.0000E+00 0.9000E+01
       21  1    1    2  503  501 0.33017321E+02 0.16976411E+03 0.10237507E+04 0.10382563E+04 0.75000000E+00 0.0000E+00 0.9000E+01
#aMCatNLO 2  0  0  1  2 0.11170838D+01 0.00000000D+00  -5  6  0 0.00000000D+00 0.00000000D+00 0.00000000D+00 0.00000000D+00 0.00000000D+00
  <mgrwgt>
 0.7028845372D-02    1    2    0
 0.600791118328470D+03 0.000000000000000D+00 0.000000000000000D+00 0.600791118328470D+03
 0.600791118328470D+03 0.000000000000000D+00 0.000000000000000D+00 -.600791118328470D+03
 0.604663773683964D+03 0.561426386093745D+03 0.681592165178243D+02 -.173631832931426D+03
 0.397162297548181D+03 -.386389284963642D+03 -.218885797029195D+02 0.892306065070945D+02
 0.199756165424794D+03 -.175037101130102D+03 -.462706368149048D+02 0.844012264243316D+02
 0.000000000000000D+00 0.000000000000000D+00 0.000000000000000D+00 0.000000000000000D+00
 0.119873895687796D+04 0.000000000000000D+00 0.000000000000000D+00 0.119873895687796D+04
 0.619618366544136D+03 0.000000000000000D+00 0.000000000000000D+00 -.619618366544136D+03
 0.585838043912598D+03 0.545153805182603D+03 -.155089968451129D+02 -.173631832931426D+03
 0.414964834557158D+03 -.397489985753833D+03 -.789647010178778D+02 0.892306065070945D+02
 0.213161646565142D+03 -.180681139976530D+03 -.752904124122898D+02 0.844012264243316D+02
 0.604392798387202D+03 0.330173205477604D+02 0.169764110275281D+03 0.579120590333828D+03
0.215683725503D-02 0.000000000000D+00 0.000000000000D+00 0.100031743056D-03 0.267507988109D-07  6 2 -1 25 2 -1 21 2 0.32131271D+00 0.54713474D-01 0.44452832D+06 0.44452832D+06 0.44452832D+06 0.10721386D+01  1  2  1  1  6  1        2 0.702884537175D-02 0.100000000000D+01
  </mgrwgt>
  </event>
  <event>
  7     66 0.20058315E-05 0.33730436E+02 0.75467711E-02 0.91482315E-01
        2 -1    0    0  503    0 0.00000000E+00 0.00000000E+00 0.88834686E+03 0.88834692E+03 0.32000000E+00 0.0000E+00 0.9000E+01
       -1 -1    0    0    0  501 0.00000000E+00 0.00000000E+00 -.73542551E+03 0.73542558E+03 0.32000000E+00 0.0000E+00 0.9000E+01
       24  2    1    2    0    0 -.28331854E+03 -.56589428E+03 -.37135562E+03 0.73828170E+03 0.81542255E+02 0.0000E+00 0.0000E+00
       25  1    1    2    0    0 0.29609012E+03 0.58856371E+03 0.45209638E+03 0.80876000E+03 0.12500000E+03 0.0000E+00 0.9000E+01
        2  1    3    3  502    0 -.46499602E+02 -.15010749E+03 -.12039889E+03 0.19796582E+03 0.32000000E+00 0.0000E+00 0.9000E+01
       -1  1    3    3    0  502 -.23681894E+03 -.41578679E+03 -.25095673E+03 0.54031587E+03 0.32000000E+00 0.0000E+00 0.9000E+01
       21  1    1    2  503  501 -.12771585E+02 -.22669430E+02 0.72180582E+02 0.76730798E+02 0.75000000E+00 0.0000E+00 0.9000E+01
#aMCatNLO 2  0  0  1  2 0.11170838D+01 0.00000000D+00  -5  6  0 0.00000000D+00 0.00000000D+00 0.00000000D+00 0.00000000D+00 0.00000000D+00
  <mgrwgt>
 0.8483684588D-02    1    2    0
 0.772357096344669D+03 0.000000000000000D+00 0.000000000000000D+00 0.772357096344669D+03
 0.772357096344669D+03 0.000000000000000D+00 0.000000000000000D+00 -.772357096344669D+03
 0.775262443069438D+03 0.289635400696197D+03 0.577106647154006D+03 0.410446230471433D+03
 0.207139133628340D+03 -.481983461359779D+02 -.153123855079949D+03 -.130906933030724D+03
 0.562312615991560D+03 -.241437054560219D+03 -.423982792074057D+03 -.279539297440708D+03
 0.000000000000000D+00 -.000000000000000D+00 -.000000000000000D+00 0.000000000000000D+00
 0.843130693427692D+03 0.000000000000000D+00 0.000000000000000D+00 0.843130693427692D+03
 0.774861853017488D+03 0.000000000000000D+00 0.000000000000000D+00 -.774861853017488D+03
 0.786236421881010D+03 0.296090122724706D+03 0.588563711257255D+03 0.410446230471433D+03
 0.204522849876539D+03 -.464966710769232D+02 -.150103399644629D+03 -.130906933030724D+03
 0.554174045105066D+03 -.236821866417803D+03 -.415790881382522D+03 -.279539297440708D+03
 0.730592295825654D+02 -.127715852299795D+02 -.226694302301035D+02 0.682688404102036D+02
0.241874944588D-02 0.000000000000D+00 0.000000000000D+00 0.563849264171D-04 0.513580708124D-06  6 2 -1 25 2 -1 21 2 0.13666842D+00 0.11314212D+00 0.44373055D+06 0.44373055D+06 0.44373055D+06 0.10721943D+01  1  2  1  1  6  1        2 0.848368458829D-02 0.100000000000D+01
  </mgrwgt>
  </event>
  <event>
  7     66 0.20058315E-05 0.65704249E+02 0.75467711E-02 0.94601183E-01
       21 -1    0    0  501  503 0.00000000E+00 0.00000000E+00 0.10916602E+04 0.10916605E+04 0.75000000E+00 0.0000E+00 0.9000E+01
       -3 -1    0    0    0  501 0.00000000E+00 0.00000000E+00 -.38820624E+03 0.38820656E+03 0.50000000E+00 0.0000E+00 0.9000E+01
       24  2    1    2    0    0 -.32783880E+03 -.33992404E+03 0.32829046E+02 0.48032774E+03 0.81304173E+02 0.0000E+00 0.0000E+00
       25  1    1    2    0    0 0.34503832E+03 0.35154509E+03 0.22896915E+03 0.55739327E+03 0.12500000E+03 0.0000E+00 0.9000E+01
        4  1    3    3  502    0 -.18507221E+03 -.17032330E+03 0.55203633E+02 0.25751037E+03 0.15500000E+01 0.0000E+00 0.9000E+01
       -3  1    3    3    0  502 -.14276659E+03 -.16960074E+03 -.22374587E+02 0.22281737E+03 0.50000000E+00 0.0000E+00 0.9000E+01
       -4  1    1    2    0  503 -.17199519E+02 -.11621052E+02 0.44165580E+03 0.44214604E+03 0.15500000E+01 0.0000E+00 0.9000E+01
#aMCatNLO 2  0  0  1  2 0.11170838D+01 0.00000000D+00  -5  6  0 0.00000000D+00 0.00000000D+00 0.00000000D+00 0.00000000D+00 0.00000000D+00
  <mgrwgt>
 0.5338596888D-03    1    2    0
 0.501970054579828D+03 0.000000000000000D+00 0.000000000000000D+00 0.501970054579828D+03
 0.501970054579828D+03 0.000000000000000D+00 0.000000000000000D+00 -.501970054579828D+03
 0.506459680815971D+03 0.336278028377973D+03 0.345626100551527D+03 0.913022154166314D+02
 0.256844157918226D+03 -.189382597796047D+03 -.173210782650945D+03 -.100587216976483D+02
 0.240636270425459D+03 -.146895430581926D+03 -.172415317900582D+03 -.812434937189831D+02
 0.000000000000000D+00 -.000000000000000D+00 -.000000000000000D+00 0.000000000000000D+00
 0.843536731090242D+03 0.000000000000000D+00 0.000000000000000D+00 0.843536731090242D+03
 0.502392802219423D+03 0.000000000000000D+00 0.000000000000000D+00 -.502392802219423D+03
 0.516329820339946D+03 0.345038315763976D+03 0.351545088839333D+03 0.913022154166314D+02
 0.251649554666671D+03 -.185027301763789D+03 -.170268077112990D+03 -.100587216976483D+02
 0.236175301859127D+03 -.142811495033639D+03 -.169655960174820D+03 -.812434937189831D+02
 0.341774856443920D+03 -.171995189665482D+02 -.116210515515229D+02 0.341143928870819D+03
0.146517224970D-03 0.000000000000D+00 0.000000000000D+00 0.210446040892D-03 0.205445327719D-06  6 21 -3 25 4 -3 -4 2 0.16794719D+00 0.59723873D-01 0.25108162D+06 0.25108162D+06 0.25108162D+06 0.10903181D+01  1  2  1  5  6  1        4 0.533859688751D-03 0.100000000000D+01
  </mgrwgt>
  </event>
  <event>
  7     66 0.20058315E-05 0.57821605E+02 0.75467711E-02 0.94342748E-01
        2 -1    0    0  503    0 0.00000000E+00 0.00000000E+00 0.25727971E+04 0.25727972E+04 0.32000000E+00 0.0000E+00 0.9000E+01
       -1 -1    0    0    0  501 0.00000000E+00 0.00000000E+00 -.11325776E+03 0.11325821E+03 0.32000000E+00 0.0000E+00 0.9000E+01
       24  2    1    2    0    0 0.37165819E+03 0.33730267E+03 0.80273357E+03 0.94972030E+03 0.75395980E+02 0.0000E+00 0.0000E+00
       25  1    1    2    0    0 -.35000754E+03 -.31902094E+03 0.15339150E+04 0.16102173E+04 0.12500000E+03 0.0000E+00 0.9000E+01
        2  1    3    3  502    0 0.21976400E+03 0.15012423E+03 0.43828315E+03 0.51276283E+03 0.32000000E+00 0.0000E+00 0.9000E+01
       -1  1    3    3    0  502 0.15189419E+03 0.18717844E+03 0.36445042E+03 0.43695746E+03 0.32000000E+00 0.0000E+00 0.9000E+01
       21  1    1    2  503  501 -.21650651E+02 -.18281726E+02 0.12289083E+03 0.12611777E+03 0.75000000E+00 0.0000E+00 0.9000E+01
#aMCatNLO 2  0  0  1  2 0.11170838D+01 0.00000000D+00  -5  6  0 0.00000000D+00 0.00000000D+00 0.00000000D+00 0.00000000D+00 0.00000000D+00
  <mgrwgt>
 0.7986863245D-02    1    2    0
 0.522625857870202D+03 0.000000000000000D+00 0.000000000000000D+00 0.522625857870202D+03
 0.522625857870202D+03 0.000000000000000D+00 0.000000000000000D+00 -.522625857870202D+03
 0.527380906843530D+03 -.360794545825664D+03 -.328129451478348D+03 0.157047698735369D+03
 0.268858662645697D+03 0.214124010062870D+03 0.145360142769714D+03 -.728444760307671D+02
 0.249012146251177D+03 0.146670535762794D+03 0.182769308708634D+03 -.842032227046017D+02
 0.000000000000000D+00 -.000000000000000D+00 -.000000000000000D+00 0.000000000000000D+00
 0.549400766078088D+03 0.000000000000000D+00 0.000000000000000D+00 0.549400766078088D+03
 0.530369463089566D+03 0.000000000000000D+00 0.000000000000000D+00 -.530369463089566D+03
 0.514362342087566D+03 -.350007538183945D+03 -.319020943660671D+03 0.157047698735369D+03
 0.275935053188108D+03 0.219765221543616D+03 0.150123560075068D+03 -.728444760307671D+02
 0.255338354610784D+03 0.151892967213619D+03 0.187179109765337D+03 -.842032227046017D+02
 0.341344792811959D+02 -.216506505732900D+02 -.182817261797346D+02 0.190313029885213D+02
0.616585006232D-03 0.000000000000D+00 0.000000000000D+00 0.119315601942D-04 0.938979973662D-07  6 2 -1 25 2 -1 21 2 0.39581193D+00 0.17424173D-01 0.26282981D+06 0.26282981D+06 0.26282981D+06 0.10888278D+01  1  2  1  1  6  1        2 0.798686324547D-02 0.100000000000D+01
  </mgrwgt>
  </event>
  <event>
  7     66 0.20058315E-05 0.30494469E+02 0.75467711E-02 0.90652937E-01
        2 -1    0    0  501    0 0.00000000E+00 0.00000000E+00 0.17497562E+04 0.17497563E+04 0.32000000E+00 0.0000E+00 0.9000E+01
       -1 -1    0    0    0  503 0.00000000E+00 0.00000000E+00 -.43371884E+03 0.43371896E+03 0.32000000E+00 0.0000E+00 0.9000E+01
       24  2    1    2    0    0 -.50468900E+02 -.70867332E+03 0.12474933E+04 0.14379050E+04 0.81032931E+02 0.0000E+00 0.0000E+00
       25  1    1    2    0    0 0.71454267E+02 0.65225545E+03 0.10354438E+03 0.67593589E+03 0.12500000E+03 0.0000E+00 0.9000E+01
        2  1    3    3  502    0 -.53119829E+00 -.46457997E+03 0.76928963E+03 0.89868875E+03 0.32000000E+00 0.0000E+00 0.9000E+01
       -1  1    3    3    0  502 -.49937702E+02 -.24409335E+03 0.47820364E+03 0.53921624E+03 0.32000000E+00 0.0000E+00 0.9000E+01
       21  1    1    2  501  503 -.20985366E+02 0.56417869E+02 -.35000256E+02 0.69634344E+02 0.75000000E+00 0.0000E+00 0.9000E+01
#aMCatNLO 2  0  0  2  1 0.10898321D+02 0.00000000D+00  -5  6  0 0.00000000D+00 0.00000000D+00 0.00000000D+00 0.00000000D+00 0.00000000D+00
  <mgrwgt>
 0.1470883075D-01    1    2    0
 0.812311081854081D+03 0.000000000000000D+00 0.000000000000000D+00 0.812311081854081D+03
 0.812311081854081D+03 0.000000000000000D+00 0.000000000000000D+00 -.812311081854081D+03
 0.815099011333184D+03 0.610729761839453D+02 0.680164911753857D+03 -.427091538988115D+03
 0.513443571337517D+03 -.726211657260498D+01 -.446485677175961D+03 0.253420801607589D+03
 0.296079581037461D+03 -.538108596113403D+02 -.233679234577896D+03 0.173670737380527D+03
 0.000000000000000D+00 -.000000000000000D+00 0.000000000000000D+00 -.000000000000000D+00
 0.820992531647114D+03 0.000000000000000D+00 0.000000000000000D+00 0.820992531647114D+03
 0.924369253463189D+03 0.000000000000000D+00 0.000000000000000D+00 -.924369253463189D+03
 0.792827261573834D+03 0.714542666768658D+02 0.652255449799462D+03 -.427091538988115D+03
 0.529207074776552D+03 -.530427799106524D+00 -.464583409037034D+03 0.253420801607589D+03
 0.303702584652249D+03 -.499384725501843D+02 -.244089909380775D+03 0.173670737380527D+03
 0.119624864107668D+03 -.209853663275750D+02 0.564178686183476D+02 -.103376721816076D+03
0.436100421521D-02 0.000000000000D+00 0.000000000000D+00 0.121511745263D-03 0.204403154227D-06  6 2 -1 25 2 -1 21 2 0.26919290D+00 0.66725892D-01 0.51975599D+06 0.51975599D+06 0.51975599D+06 0.10673230D+01  1  2  1  2  6  2       -1 0.147088307481D-01 0.100000000000D+01
  </mgrwgt>
  </event>
  <event>
  7     66 0.20058315E-05 0.37736322E+02 0.75467711E-02 0.90094703E-01
        2 -1    0    0  501    0 0.00000000E+00 0.00000000E+00 0.75383647E+03 0.75383654E+03 0.32000000E+00 0.0000E+00 0.9000E+01
       21 -1    0    0  503  501 0.00000000E+00 0.00000000E+00 -.14158807E+04 0.14158809E+04 0.75000000E+00 0.0000E+00 0.9000E+01
       24  2    1    2    0    0 0.48384668E+03 0.53524879E+03 -.56495887E+02 0.72831417E+03 0.81552889E+02 0.0000E+00 0.0000E+00
       25  1    1    2    0    0 -.43392429E+03 -.57873006E+03 0.92819096E+02 0.73990483E+03 0.12500000E+03 0.0000E+00 0.9000E+01
        2  1    3    3  502    0 0.15337025E+03 0.18093480E+03 -.56381754E+02 0.24380082E+03 0.32000000E+00 0.0000E+00 0.9000E+01
        1  1    1    2  503    0 -.49922398E+02 0.43481277E+02 -.69836742E+03 0.70149841E+03 0.32000000E+00 0.0000E+00 0.9000E+01
       -1  1    3    3    0  502 0.33047643E+03 0.35431399E+03 -.11413371E+00 0.48451335E+03 0.32000000E+00 0.0000E+00 0.9000E+01
#aMCatNLO 2  0  0  2  1 0.10898321D+02 0.00000000D+00  -5  6  0 0.00000000D+00 0.00000000D+00 0.00000000D+00 0.00000000D+00 0.00000000D+00
  <mgrwgt>
 0.2284095371D-03    1    2    0
 0.733137912961428D+03 0.000000000000000D+00 0.000000000000000D+00 0.733137912961428D+03
 0.733137912961428D+03 0.000000000000000D+00 0.000000000000000D+00 -.733137912961428D+03
 0.736198089711476D+03 -.459004754523136D+03 -.556885543498856D+03 0.745369308595790D+02
 0.245660626341613D+03 0.145014453006015D+03 0.188207464218355D+03 -.624331816137558D+02
 0.000000000000000D+00 -.000000000000000D+00 0.000000000000000D+00 -.000000000000000D+00
 0.484417109869767D+03 0.313990301517122D+03 0.368678079280500D+03 -.121037492458232D+02
 0.735412009710342D+03 0.000000000000000D+00 0.000000000000000D+00 0.735412009710342D+03
 0.145135334196010D+04 0.000000000000000D+00 0.000000000000000D+00 -.145135334196010D+04
 0.737834348388193D+03 -.433924286135404D+03 -.578730062724707D+03 0.745369308595790D+02
 0.245267068362723D+03 0.153367523270580D+03 0.180932129437191D+03 -.624331816137558D+02
 0.718995729103276D+03 -.499223980538004D+02 0.434812766343802D+02 -.715941332249755D+03
 0.484668205816247D+03 0.330479160918624D+03 0.354316656653136D+03 -.121037492458232D+02
0.627569525817D-04 0.000000000000D+00 0.000000000000D+00 0.878576212208D-04 0.111715046125D-07  6 2 21 25 2 1 -1 2 0.11597486D+00 0.21782781D+00 0.57909651D+06 0.57909651D+06 0.57909651D+06 0.10640317D+01  1  2  1  6  5  2       -1 0.228409537126D-03 0.100000000000D+01
  </mgrwgt>
  </event>
  <event>
  7     66 0.20058315E-05 0.12822506E+03 0.75467711E-02 0.89488317E-01
        2 -1    0    0  501    0 0.00000000E+00 0.00000000E+00 0.11042032E+04 0.11042032E+04 0.32000000E+00 0.0000E+00 0.9000E+01
       -1 -1    0    0    0  503 0.00000000E+00 0.00000000E+00 -.92383975E+03 0.92383980E+03 0.32000000E+00 0.0000E+00 0.9000E+01
       24  2    1    2    0    0 0.72394460E+03 0.33856859E+03 0.12242919E+03 0.81255727E+03 0.80845173E+02 0.0000E+00 0.0000E+00
       25  1    1    2    0    0 -.61058966E+03 -.24911295E+03 0.44301737E+03 0.80421787E+03 0.12500000E+03 0.0000E+00 0.9000E+01
        2  1    3    3  502    0 0.96100877E+02 0.55368441E+02 -.93508162E+01 0.11130401E+03 0.32000000E+00 0.0000E+00 0.9000E+01
       -1  1    3    3    0  502 0.62784372E+03 0.28320015E+03 0.13178001E+03 0.70125326E+03 0.32000000E+00 0.0000E+00 0.9000E+01
       21  1    1    2  501  503 -.11335494E+03 -.89455646E+02 -.38508316E+03 0.41126786E+03 0.75000000E+00 0.0000E+00 0.9000E+01
#aMCatNLO 2  0  0  2  1 0.10898321D+02 0.00000000D+00  -5  6  0 0.00000000D+00 0.00000000D+00 0.00000000D+00 0.00000000D+00 0.00000000D+00
  <mgrwgt>
 0.8236247716D-03    1    2    0
 0.753886660813730D+03 0.000000000000000D+00 0.000000000000000D+00 0.753886660813730D+03
 0.753886660813730D+03 0.000000000000000D+00 0.000000000000000D+00 -.753886660813730D+03
 0.756900727303360D+03 -.664968988875643D+03 -.292027160638510D+03 0.172655994032847D+03
 0.112339159119690D+03 0.872929755651319D+02 0.484205659779702D+02 -.515312708855246D+02
 0.638533435204410D+03 0.577676013310511D+03 0.243606594660539D+03 -.121124723147322D+03
 0.000000000000000D+00 -.000000000000000D+00 -.000000000000000D+00 -.000000000000000D+00
 0.766423244457621D+03 0.000000000000000D+00 0.000000000000000D+00 0.766423244457621D+03
 0.133099594741232D+04 0.000000000000000D+00 0.000000000000000D+00 -.133099594741232D+04
 0.693045513976836D+03 -.610589659388614D+03 -.249112946302763D+03 0.172655994032847D+03
 0.122288667429808D+03 0.960925458688525D+02 0.553648709121901D+02 -.515312708855246D+02
 0.699338074750597D+03 0.627852049897161D+03 0.283203721158972D+03 -.121124723147322D+03
 0.582746935712699D+03 -.113354936377399D+03 -.894556457683994D+02 -.564572702954699D+03
0.603428453015D-03 0.000000000000D+00 0.000000000000D+00 0.806099103137D-04 0.278861295809D-07  6 2 -1 25 2 -1 21 2 0.16987736D+00 0.14212916D+00 0.65227058D+06 0.65227058D+06 0.65227058D+06 0.10604449D+01  1  2  1  2  6  2       -1 0.823624771576D-03 0.100000000000D+01
  </mgrwgt>
  </event>
  <event>
  7     66 0.20058315E-05 0.53891695E+02 0.75467711E-02 0.91702540E-01
        2 -1    0    0  501    0 0.00000000E+00 0.00000000E+00 0.28066768E+03 0.28066787E+03 0.32000000E+00 0.0000E+00 0.9000E+01
       21 -1    0    0  503  501 0.00000000E+00 0.00000000E+00 -.18456267E+04 0.18456268E+04 0.75000000E+00 0.0000E+00 0.9000E+01
       24  2    1    2    0    0 0.62887557E+03 0.13845802E+03 -.41328828E+03 0.76933584E+03 0.80095693E+02 0.0000E+00 0.0000E+00
       25  1    1    2    0    0 -.61978315E+03 -.13200682E+03 -.91487694E+03 0.11199026E+04 0.12500000E+03 0.0000E+00 0.9000E+01
        2  1    3    3  502    0 0.41430337E+03 0.56383319E+02 -.28740409E+03 0.50737322E+03 0.32000000E+00 0.0000E+00 0.9000E+01
        1  1    1    2  503    0 -.90924207E+01 -.64511926E+01 -.23679377E+03 0.23705628E+03 0.32000000E+00 0.0000E+00 0.9000E+01
       -1  1    3    3    0  502 0.21457220E+03 0.82074698E+02 -.12588419E+03 0.26196262E+03 0.32000000E+00 0.0000E+00 0.9000E+01
#aMCatNLO 2  0  0  2  1 0.10898321D+02 0.00000000D+00  -5  6  0 0.00000000D+00 0.00000000D+00 0.00000000D+00 0.00000000D+00 0.00000000D+00
  <mgrwgt>
 0.2429582431D-03    1    2    0
 0.671765327139849D+03 0.000000000000000D+00 0.000000000000000D+00 0.671765327139849D+03
 0.671765327139849D+03 0.000000000000000D+00 0.000000000000000D+00 -.671765327139849D+03
 0.675192744256734D+03 -.624336061541775D+03 -.135237175045214D+03 -.179375669033553D+03
 0.426266444583402D+03 0.411411476508214D+03 0.543288063712558D+02 0.974272014038188D+02
 0.000000000000000D+00 -.000000000000000D+00 -.000000000000000D+00 -.000000000000000D+00
 0.242071465439562D+03 0.212924585033561D+03 0.809083686739577D+02 0.819484676297338D+02
 0.672102512032602D+03 0.000000000000000D+00 0.000000000000000D+00 0.672102512032602D+03
 0.770727250468899D+03 0.000000000000000D+00 0.000000000000000D+00 -.770727250468899D+03
 0.670341394811182D+03 -.619783150220571D+03 -.132006824288863D+03 -.179375669033553D+03
 0.429326239620974D+03 0.414306562931626D+03 0.563829084518334D+02 0.974272014038188D+02
 0.992528540255410D+02 -.909242068896036D+01 -.645119264960138D+01 -.986247384362973D+02
 0.243909274043805D+03 0.214569007977905D+03 0.820751084866312D+02 0.819484676297338D+02
0.584742724162D-04 0.000000000000D+00 0.000000000000D+00 0.197220967304D-03 0.209906945577D-06  6 2 21 25 2 1 -1 2 0.43179653D-01 0.28394248D+00 0.42569165D+06 0.42569165D+06 0.42569165D+06 0.10734841D+01  1  2  1  6  5  2       -1 0.242958243089D-03 0.100000000000D+01
  </mgrwgt>
  </event>
  <event>
  7     66 0.20058315E-05 0.48025627E+02 0.75467711E-02 0.94093310E-01
        2 -1    0    0  501    0 0.00000000E+00 0.00000000E+00 0.27822587E+04 0.27822587E+04 0.32000000E+00 0.0000E+00 0.9000E+01
       -1 -1    0    0    0  503 0.00000000E+00 0.00000000E+00 -.18399286E+03 0.18399313E+03 0.32000000E+00 0.0000E+00 0.9000E+01
       24  2    1    2    0    0 0.49184573E+03 -.10602528E+03 0.13087848E+04 0.14042726E+04 0.76878437E+02 0.0000E+00 0.0000E+00
       25  1    1    2    0    0 -.49065559E+03 0.73713610E+02 0.13768324E+04 0.14688326E+04 0.12500000E+03 0.0000E+00 0.9000E+01
        2  1    3    3  502    0 0.20600772E+03 -.26889771E+02 0.63433100E+03 0.66748645E+03 0.32000000E+00 0.0000E+00 0.9000E+01
       -1  1    3    3    0  502 0.28583801E+03 -.79135514E+02 0.67445378E+03 0.73678613E+03 0.32000000E+00 0.0000E+00 0.9000E+01
       21  1    1    2  501  503 -.11901408E+01 0.32311674E+02 -.87351428E+02 0.93146633E+02 0.75000000E+00 0.0000E+00 0.9000E+01
#aMCatNLO 2  0  0  2  1 0.10898321D+02 0.00000000D+00  -5  6  0 0.00000000D+00 0.00000000D+00 0.00000000D+00 0.00000000D+00 0.00000000D+00
  <mgrwgt>
 0.1311257197D-01    1    2    0
 0.510183296714775D+03 0.000000000000000D+00 0.000000000000000D+00 0.510183296714775D+03
 0.510183296714775D+03 0.000000000000000D+00 0.000000000000000D+00 -.510183296714775D+03
 0.514943696555839D+03 -.491254215741792D+03 0.899660264151130D+02 0.108360615346798D+02
 0.208819975182800D+03 0.205762258217024D+03 -.202622636997914D+02 0.292765400711273D+02
 0.296602921690911D+03 0.285491957524769D+03 -.697037627153216D+02 -.401126016058071D+02
 0.000000000000000D+00 -.000000000000000D+00 0.000000000000000D+00 -.000000000000000D+00
 0.510971249990522D+03 0.000000000000000D+00 0.000000000000000D+00 0.510971249990522D+03
 0.100184811088817D+04 0.000000000000000D+00 0.000000000000000D+00 -.100184811088817D+04
 0.511780248304789D+03 -.490655588006906D+03 0.737136098893903D+02 0.108360615346798D+02
 0.209806429133794D+03 0.206006336849293D+03 -.268888654515821D+02 0.292765400711273D+02
 0.299292084080450D+03 0.285839391982999D+03 -.791364187743062D+02 -.401126016058071D+02
 0.491940599359664D+03 -.119014082538520D+01 0.323116743364981D+02 -.490876860897652D+03
0.300051118609D-02 0.000000000000D+00 0.000000000000D+00 0.291478305833D-04 0.216846123557D-06  6 2 -1 25 2 -1 21 2 0.42803958D+00 0.28306600D-01 0.27475666D+06 0.27475666D+06 0.27475666D+06 0.10873874D+01  1  2  1  2  6  2       -1 0.131125719750D-01 0.100000000000D+01
  </mgrwgt>
  </event>
  <event>
  7     66 0.20058315E-05 0.49310108E+02 0.75467711E-02 0.93734649E-01
        2 -1    0    0  501    0 0.00000000E+00 0.00000000E+00 0.21581666E+04 0.21581666E+04 0.32000000E+00 0.0000E+00 0.9000E+01
       -1 -1    0    0    0  503 0.00000000E+00 0.00000000E+00 -.17434298E+03 0.17434328E+03 0.32000000E+00 0.0000E+00 0.9000E+01
       24  2    1    2    0    0 0.42188701E+03 0.29472202E+03 0.93659324E+03 0.10716920E+04 0.80417969E+02 0.0000E+00 0.0000E+00
       25  1    1    2    0    0 -.44494136E+03 -.28355278E+03 0.10862936E+04 0.12140979E+04 0.12500000E+03 0.0000E+00 0.9000E+01
        2  1    3    3  502    0 0.26075238E+03 0.18783772E+03 0.50240375E+03 0.59639286E+03 0.32000000E+00 0.0000E+00 0.9000E+01
       -1  1    3    3    0  502 0.16113462E+03 0.10688430E+03 0.43418948E+03 0.47529909E+03 0.32000000E+00 0.0000E+00 0.9000E+01
       21  1    1    2  501  503 0.23054354E+02 -.11169238E+02 -.39063261E+02 0.46719974E+02 0.75000000E+00 0.0000E+00 0.9000E+01
#aMCatNLO 2  0  0  2  1 0.10898321D+02 0.00000000D+00  -5  6  0 0.00000000D+00 0.00000000D+00 0.00000000D+00 0.00000000D+00 0.00000000D+00
  <mgrwgt>
 0.2760083265D-02    1    2    0
 0.532002819882782D+03 0.000000000000000D+00 0.000000000000000D+00 0.532002819882782D+03
 0.532002819882782D+03 0.000000000000000D+00 0.000000000000000D+00 -.532002819882782D+03
 0.536306345151861D+03 -.433252137415115D+03 -.289215905968245D+03 0.254212708248184D+02
 0.329733714797679D+03 0.267856570528462D+03 0.184397970190397D+03 -.545396084389119D+02
 0.197965579816024D+03 0.165395566886653D+03 0.104817935777848D+03 0.291183376140935D+02
 0.000000000000000D+00 0.000000000000000D+00 -.000000000000000D+00 -.000000000000000D+00
 0.533101854919096D+03 0.000000000000000D+00 0.000000000000000D+00 0.533101854919096D+03
 0.705794646506931D+03 0.000000000000000D+00 0.000000000000000D+00 -.705794646506931D+03
 0.542813259559435D+03 -.444941361588575D+03 -.283552779021639D+03 0.254212708248184D+02
 0.325961174874733D+03 0.260753961585662D+03 0.187839000621355D+03 -.545396084389119D+02
 0.195539549581727D+03 0.161133046169899D+03 0.106883016879323D+03 0.291183376140935D+02
 0.174582517410131D+03 0.230543538330142D+02 -.111692384790392D+02 -.172692791587835D+03
0.253465011202D-03 0.000000000000D+00 0.000000000000D+00 0.192344627520D-03 0.191557393017D-05  6 2 -1 25 2 -1 21 2 0.33202515D+00 0.26821981D-01 0.29298431D+06 0.29298431D+06 0.29298431D+06 0.10853130D+01  1  2  1  2  6  2       -1 0.276008326521D-02 0.100000000000D+01
  </mgrwgt>
  </event>
  <event>
  6     66 -.20058315E-05 0.17523935E+02 0.75467711E-02 0.93934477E-01
        2 -1    0    0  501    0 0.00000000E+00 0.00000000E+00 0.67976069E+03 0.67976077E+03 0.32000000E+00 0.0000E+00 0.9000E+01
       -1 -1    0    0    0  501 0.00000000E+00 0.00000000E+00 -.45002649E+03 0.45002661E+03 0.32000000E+00 0.0000E+00 0.9000E+01
       24  2    1    2    0    0 -.44767881E+03 0.27525104E+03 0.25351668E+03 0.58907483E+03 0.80987606E+02 0.0000E+00 0.0000E+00
       25  1    1    2    0    0 0.44767881E+03 -.27525104E+03 -.23782485E+02 0.54071255E+03 0.12500000E+03 0.0000E+00 0.9000E+01
        2  1    3    3  502    0 -.42607851E+03 0.26374714E+03 0.25887124E+03 0.56402116E+03 0.32000000E+00 0.0000E+00 0.9000E+01
       -1  1    3    3    0  502 -.21600299E+02 0.11503896E+02 -.53545509E+01 0.25053665E+02 0.32000000E+00 0.0000E+00 0.9000E+01
#aMCatNLO 1  0  0  5  2 0.24331033D+01 0.00000000D+00  -5  6  0 0.00000000D+00 0.00000000D+00 0.00000000D+00 0.00000000D+00 0.00000000D+00
  <mgrwgt>
 -.1802665192D+00    5    2    0
 0.553091700470676D+03 0.000000000000000D+00 0.000000000000000D+00 0.553091700470676D+03
 0.553091700470676D+03 -.000000000000000D+00 -.000000000000000D+00 -.553091700470676D+03
 0.557189577769707D+03 0.447678811171246D+03 -.275251040292427D+03 -.136586135538794D+03
 0.522301252133795D+03 -.426084827710627D+03 0.263751082095388D+03 0.147260599852261D+03
 0.266925710378489D+02 -.215939834606186D+02 0.114999581970393D+02 -.106744643134674D+02
 0.000000000000000D+00 0.000000000000000D+00 0.000000000000000D+00 0.000000000000000D+00
 0.553091700470676D+03 0.000000000000000D+00 0.000000000000000D+00 0.553091700470676D+03
 0.553091700470676D+03 -.000000000000000D+00 -.000000000000000D+00 -.553091700470676D+03
 0.555872839612989D+03 0.446284800645701D+03 -.274508654673802D+03 -.137275230982192D+03
 0.523540517951219D+03 -.427394650423877D+03 0.264448633173695D+03 0.146613120621064D+03
 0.242237114750742D+02 -.190957605562198D+02 0.920025451470773D+01 -.117258450984040D+02
 0.254633190206980D+01 0.205610334396222D+00 0.859766985398540D+00 0.238795545953157D+01
0.118857106827D-03 0.000000000000D+00 0.000000000000D+00 0.728148463594D-04 0.000000000000D+00  6 2 -1 25 2 -1 21 0 0.10457858D+00 0.69234860D-01 0.28396441D+06 0.28396441D+06 0.28396441D+06 0.10863214D+01  1  2  2  4  6  5       -1 0.149028372380D-02 0.100000000000D+01
0.418339836115D-04 0.000000000000D+00 -.456442586012D-06 0.728148463594D-04 0.000000000000D+00  6 2 -1 25 2 -1 21 2 0.10457858D+00 0.69234860D-01 0.28396441D+06 0.28396441D+06 0.28396441D+06 0.10863214D+01  1  2  3  4  6  5       -1 0.618998597373D-03 0.100000000000D+01
-.444161016396D-04 0.000000000000D+00 0.000000000000D+00 0.728148463594D-04 0.000000000000D+00  6 2 -1 25 2 -1 21 2 0.10457858D+00 0.69234860D-01 0.28396441D+06 0.28396441D+06 0.28396441D+06 0.10863214D+01  1  2 15  4  6  5       -1 -.657205033855D-03 0.100000000000D+01
-.125201575626D-01 0.000000000000D+00 0.000000000000D+00 0.728148463594D-04 0.000000000000D+00  6 2 -1 25 2 -1 21 2 0.10457858D+00 0.69234860D-01 0.28396441D+06 0.28396441D+06 0.28396441D+06 0.10863214D+01  1  2  4  4  6  5       -1 -.185255127556D+00 0.100000000000D+01
0.238913398210D-03 0.000000000000D+00 0.000000000000D+00 0.728148463594D-04 0.144793679388D-04  6 2 -1 25 2 -1 21 2 0.10457858D+00 0.69234860D-01 0.28266711D+06 0.28266711D+06 0.28266711D+06 0.10864693D+01  1  2 11  4  6  5       -1 0.353653110397D-02 0.100000000000D+01
  </mgrwgt>
  </event>
  <event>
  7     66 0.20058315E-05 0.24343680E+02 0.75467711E-02 0.94050063E-01
        2 -1    0    0  503    0 0.00000000E+00 0.00000000E+00 0.10783606E+04 0.10783607E+04 0.32000000E+00 0.0000E+00 0.9000E+01
       -1 -1    0    0    0  501 0.00000000E+00 0.00000000E+00 -.28546292E+03 0.28546310E+03 0.32000000E+00 0.0000E+00 0.9000E+01
       24  2    1    2    0    0 0.21105204E+03 0.43777582E+03 0.50297379E+03 0.70409911E+03 0.81131287E+02 0.0000E+00 0.0000E+00
       25  1    1    2    0    0 -.18598545E+03 -.47144089E+03 0.19729969E+03 0.55803160E+03 0.12500000E+03 0.0000E+00 0.9000E+01
        2  1    3    3  502    0 0.16913961E+02 0.76036953E+02 0.49013819E+02 0.92033457E+02 0.32000000E+00 0.0000E+00 0.9000E+01
       -1  1    3    3    0  502 0.19413808E+03 0.36173887E+03 0.45395997E+03 0.61206565E+03 0.32000000E+00 0.0000E+00 0.9000E+01
       21  1    1    2  503  501 -.25066588E+02 0.33665066E+02 0.92624233E+02 0.10169308E+03 0.75000000E+00 0.0000E+00 0.9000E+01
#aMCatNLO 2  0  0  1  2 0.86774041D+01 0.00000000D+00  -5  6  0 0.00000000D+00 0.00000000D+00 0.00000000D+00 0.00000000D+00 0.00000000D+00
  <mgrwgt>
 0.9424366345D-03    1    2    0
 0.524602065288913D+03 0.000000000000000D+00 0.000000000000000D+00 0.524602065288913D+03
 0.524602065288913D+03 0.000000000000000D+00 0.000000000000000D+00 -.524602065288913D+03
 0.528911386028018D+03 -.198739069170866D+03 -.454312457312774D+03 -.135000843647759D+03
 0.800274284132773D+02 0.150250799584098D+02 0.785656215480844D+02 -.246564017018111D+01
 0.440265316136530D+03 0.183713989212456D+03 0.375746835764689D+03 0.137466483817940D+03
 0.000000000000000D+00 -.000000000000000D+00 0.000000000000000D+00 0.000000000000000D+00
 0.577006830934101D+03 0.000000000000000D+00 0.000000000000000D+00 0.577006830934101D+03
 0.533493646981184D+03 0.000000000000000D+00 0.000000000000000D+00 -.533493646981184D+03
 0.539163544088403D+03 -.185985454024970D+03 -.471440887471045D+03 -.135000843647759D+03
 0.779295229857535D+02 0.169112043406595D+02 0.760325084361074D+02 -.246564017018111D+01
 0.432950254956649D+03 0.194140837572160D+03 0.361743312696364D+03 0.137466483817940D+03
 0.604571558844790D+02 -.250665878878497D+02 0.336650663385733D+02 0.435131839529167D+02
0.504072279059D-04 0.000000000000D+00 0.000000000000D+00 0.671507952996D-04 0.241277178022D-06  6 2 -1 25 2 -1 21 2 0.16590094D+00 0.43917201D-01 0.27688561D+06 0.27688561D+06 0.27688561D+06 0.10871375D+01  1  2  1  1  6  1        2 0.942436634458D-03 0.100000000000D+01
  </mgrwgt>
  </event>
  <event>
  7     66 0.20058315E-05 0.53335136E+02 0.75467711E-02 0.94730534E-01
        2 -1    0    0  503    0 0.00000000E+00 0.00000000E+00 0.13673337E+04 0.13673338E+04 0.32000000E+00 0.0000E+00 0.9000E+01
       -1 -1    0    0    0  501 0.00000000E+00 0.00000000E+00 -.51388516E+03 0.51388526E+03 0.32000000E+00 0.0000E+00 0.9000E+01
       24  2    1    2    0    0 -.35321725E+03 -.30211058E+03 -.45012704E+02 0.47385841E+03 0.80513463E+02 0.0000E+00 0.0000E+00
       25  1    1    2    0    0 0.38176931E+03 0.28009709E+03 -.18133138E+02 0.49005714E+03 0.12500000E+03 0.0000E+00 0.9000E+01
        2  1    3    3  502    0 -.19223425E+03 -.17411518E+03 -.64519654E+02 0.26726951E+03 0.32000000E+00 0.0000E+00 0.9000E+01
       -1  1    3    3    0  502 -.16098300E+03 -.12799540E+03 0.19506950E+02 0.20658890E+03 0.32000000E+00 0.0000E+00 0.9000E+01
       21  1    1    2  503  501 -.28552065E+02 0.22013487E+02 0.91659441E+03 0.91730348E+03 0.75000000E+00 0.0000E+00 0.9000E+01
#aMCatNLO 2  0  0  1  1 0.36369725D+02 0.00000000D+00  -5  6  0 0.00000000D+00 0.00000000D+00 0.00000000D+00 0.00000000D+00 0.00000000D+00
  <mgrwgt>
 0.1434558864D-01    1    2    0
 0.480584531195275D+03 0.000000000000000D+00 0.000000000000000D+00 0.480584531195275D+03
 0.480584531195275D+03 0.000000000000000D+00 0.000000000000000D+00 -.480584531195275D+03
 0.485340501105733D+03 0.367289049692980D+03 0.291261297731383D+03 0.140004440294929D+02
 0.265518037831758D+03 -.200090998173242D+03 -.168058773327117D+03 -.471133693535868D+02
 0.210310523453059D+03 -.167198051519738D+03 -.123202524404266D+03 0.331129253240939D+02
 0.000000000000000D+00 -.000000000000000D+00 0.000000000000000D+00 0.000000000000000D+00
 0.146004329554973D+04 0.000000000000000D+00 0.000000000000000D+00 0.146004329554973D+04
 0.481254376835791D+03 0.000000000000000D+00 0.000000000000000D+00 -.481254376835791D+03
 0.489921628591442D+03 0.381769311831164D+03 0.280097094366627D+03 0.140004440294929D+02
 0.263609964353678D+03 -.192234738873316D+03 -.174115906524957D+03 -.471133693535868D+02
 0.208313394825346D+03 -.160982508139757D+03 -.127994674550055D+03 0.331129253240939D+02
 0.979452684615051D+03 -.285520648180906D+02 0.220134867083857D+02 0.978788918713935D+03
0.337669570696D-02 0.000000000000D+00 0.000000000000D+00 0.195150053054D-03 0.160240318359D-05  6 2 -1 25 2 -1 21 2 0.21035898D+00 0.79059243D-01 0.24542360D+06 0.24542360D+06 0.24542360D+06 0.10910632D+01  1  2  1  1  6  1        2 0.143455886361D-01 0.100000000000D+01
  </mgrwgt>
  </event>
  <event>
  7     66 0.20058315E-05 0.57912472E+02 0.75467711E-02 0.91012351E-01
        2 -1    0    0  501    0 0.00000000E+00 0.00000000E+00 0.18441330E+04 0.18441330E+04 0.32000000E+00 0.0000E+00 0.9000E+01
       -1 -1    0    0    0  503 0.00000000E+00 0.00000000E+00 -.30539479E+03 0.30539496E+03 0.32000000E+00 0.0000E+00 0.9000E+01
       24  2    1    2    0    0 -.23004463E+02 0.67640301E+03 0.65708362E+03 0.94673976E+03 0.80666238E+02 0.0000E+00 0.0000E+00
       25  1    1    2    0    0 0.33521252E+02 -.68665020E+03 0.92371872E+03 0.11582286E+04 0.12500000E+03 0.0000E+00 0.9000E+01
        2  1    3    3  502    0 -.39414863E+02 0.26577381E+03 0.29511904E+03 0.39910475E+03 0.32000000E+00 0.0000E+00 0.9000E+01
       -1  1    3    3    0  502 0.16410399E+02 0.41062920E+03 0.36196458E+03 0.54763501E+03 0.32000000E+00 0.0000E+00 0.9000E+01
       21  1    1    2  501  503 -.10516788E+02 0.10247191E+02 -.42064138E+02 0.44559645E+02 0.75000000E+00 0.0000E+00 0.9000E+01
#aMCatNLO 2  0  0  2  1 0.11961395D+02 0.00000000D+00  -5  6  0 0.00000000D+00 0.00000000D+00 0.00000000D+00 0.00000000D+00 0.00000000D+00
  <mgrwgt>
 0.5328278452D-02    1    2    0
 0.694935255765984D+03 0.000000000000000D+00 0.000000000000000D+00 0.694935255765984D+03
 0.694935255765984D+03 0.000000000000000D+00 0.000000000000000D+00 -.694935255765984D+03
 0.698215402363516D+03 0.282182208095301D+02 -.681483111448627D+03 0.816348511500387D+02
 0.271041554909397D+03 -.414579865189702D+02 0.267761420470674D+03 -.697004655819521D+01
 0.420613554259056D+03 0.132397657094401D+02 0.413721690977953D+03 -.746648045918434D+02
 0.000000000000000D+00 -.000000000000000D+00 0.000000000000000D+00 -.000000000000000D+00
 0.695443360801806D+03 0.000000000000000D+00 0.000000000000000D+00 0.695443360801806D+03
 0.809824175445742D+03 0.000000000000000D+00 0.000000000000000D+00 -.809824175445742D+03
 0.703492302337322D+03 0.335212515124158D+02 -.686650199317395D+03 0.816348511500387D+02
 0.268768836085511D+03 -.394157411438593D+02 0.265771527917904D+03 -.697004655819521D+01
 0.417686934920899D+03 0.164112780136505D+02 0.410631480177587D+03 -.746648045918434D+02
 0.115319462903817D+03 -.105167883822071D+02 0.102471912219041D+02 -.114380814643936D+03
0.914855273534D-03 0.000000000000D+00 0.000000000000D+00 0.298296126905D-03 0.853388567682D-05  6 2 -1 25 2 -1 21 2 0.28371229D+00 0.46983747D-01 0.48515476D+06 0.48515476D+06 0.48515476D+06 0.10694367D+01  1  2  1  2  6  2       -1 0.532827845213D-02 0.100000000000D+01
  </mgrwgt>
  </event>
  <event>
  7     66 0.20058315E-05 0.38087201E+02 0.75467711E-02 0.91929845E-01
        2 -1    0    0  501    0 0.00000000E+00 0.00000000E+00 0.81503367E+03 0.81503374E+03 0.32000000E+00 0.0000E+00 0.9000E+01
       -1 -1    0    0    0  503 0.00000000E+00 0.00000000E+00 -.56820574E+03 0.56820583E+03 0.32000000E+00 0.0000E+00 0.9000E+01
       24  2    1    2    0    0 -.47855130E+03 -.39127550E+03 0.35260476E+03 0.71616946E+03 0.80378547E+02 0.0000E+00 0.0000E+00
       25  1    1    2    0    0 0.48522489E+03 0.34119963E+03 -.83789616E+02 0.61196902E+03 0.12500000E+03 0.0000E+00 0.9000E+01
        2  1    3    3  502    0 -.20008154E+03 -.12857078E+03 0.10313819E+03 0.25923090E+03 0.32000000E+00 0.0000E+00 0.9000E+01
       -1  1    3    3    0  502 -.27846976E+03 -.26270472E+03 0.24946657E+03 0.45693857E+03 0.32000000E+00 0.0000E+00 0.9000E+01
       21  1    1    2  501  503 -.66735854E+01 0.50075873E+02 -.21987204E+02 0.55101083E+02 0.75000000E+00 0.0000E+00 0.9000E+01
#aMCatNLO 2  0  0  2  1 0.11961395D+02 0.00000000D+00  -5  6  0 0.00000000D+00 0.00000000D+00 0.00000000D+00 0.00000000D+00 0.00000000D+00
  <mgrwgt>
 0.7149403775D-02    1    2    0
 0.649834230853782D+03 0.000000000000000D+00 0.000000000000000D+00 0.649834230853782D+03
 0.649834230853782D+03 0.000000000000000D+00 0.000000000000000D+00 -.649834230853782D+03
 0.653359856603779D+03 0.481899849243628D+03 0.366149380589867D+03 -.212040723951640D+03
 0.239648000277821D+03 -.201319993989249D+03 -.119266495282726D+03 0.517390293714763D+02
 0.406660604825964D+03 -.280579855254379D+03 -.246882885307141D+03 0.160301694580163D+03
 0.000000000000000D+00 -.000000000000000D+00 0.000000000000000D+00 -.000000000000000D+00
 0.663807592508335D+03 0.000000000000000D+00 0.000000000000000D+00 0.663807592508335D+03
 0.697647524415939D+03 0.000000000000000D+00 0.000000000000000D+00 -.697647524415939D+03
 0.642220094016465D+03 0.485224889531717D+03 0.341199629430506D+03 -.212040723951640D+03
 0.243390535170642D+03 -.200080300066619D+03 -.128568654716462D+03 0.517390293714763D+02
 0.415039300707742D+03 -.278471004087525D+03 -.262706847511034D+03 0.160301694580163D+03
 0.608051870294247D+02 -.667358537757284D+01 0.500758727969895D+02 -.338399319076042D+02
0.100854840957D-02 0.000000000000D+00 0.000000000000D+00 0.198104830384D-03 0.479066018496D-06  6 2 -1 25 2 -1 21 2 0.12538938D+00 0.87415978D-01 0.40792805D+06 0.40792805D+06 0.40792805D+06 0.10748137D+01  1  2  1  2  6  2       -1 0.714940377500D-02 0.100000000000D+01
  </mgrwgt>
  </event>
  <event>
  7     66 0.20058315E-05 0.23851572E+02 0.75467711E-02 0.92836808E-01
        2 -1    0    0  501    0 0.00000000E+00 0.00000000E+00 0.11414743E+04 0.11414744E+04 0.32000000E+00 0.0000E+00 0.9000E+01
       -1 -1    0    0    0  503 0.00000000E+00 0.00000000E+00 -.39138875E+03 0.39138889E+03 0.32000000E+00 0.0000E+00 0.9000E+01
       24  2    1    2    0    0 -.44707517E+03 -.35287291E+03 0.97501852E+02 0.58339931E+03 0.80328364E+02 0.0000E+00 0.0000E+00
       25  1    1    2    0    0 0.44461978E+03 0.30938559E+03 0.69410929E+03 0.88927999E+03 0.12500000E+03 0.0000E+00 0.9000E+01
        2  1    3    3  502    0 -.38289997E+03 -.26271014E+03 0.84229532E+02 0.47193614E+03 0.32000000E+00 0.0000E+00 0.9000E+01
       -1  1    3    3    0  502 -.64175203E+02 -.90162771E+02 0.13272320E+02 0.11146317E+03 0.32000000E+00 0.0000E+00 0.9000E+01
       21  1    1    2  501  503 0.24553907E+01 0.43487327E+02 -.41525553E+02 0.60183973E+02 0.75000000E+00 0.0000E+00 0.9000E+01
#aMCatNLO 2  0  0  2  1 0.29707367D+02 0.00000000D+00  -5  6  0 0.00000000D+00 0.00000000D+00 0.00000000D+00 0.00000000D+00 0.00000000D+00
  <mgrwgt>
 0.1122523609D-01    1    2    0
 0.620531817870217D+03 0.000000000000000D+00 0.000000000000000D+00 0.620531817870217D+03
 0.620531817870217D+03 0.000000000000000D+00 0.000000000000000D+00 -.620531817870217D+03
 0.624227177946945D+03 0.445842442672174D+03 0.331040121045694D+03 0.256264559113756D+03
 0.496329279788836D+03 -.381913817019597D+03 -.245157627325757D+03 -.200953547142696D+03
 0.120507178004653D+03 -.639286256525769D+02 -.858824937199374D+02 -.553110119710601D+02
 0.000000000000000D+00 0.000000000000000D+00 0.000000000000000D+00 -.000000000000000D+00
 0.626028954012090D+03 0.000000000000000D+00 0.000000000000000D+00 0.626028954012090D+03
 0.713638429887426D+03 0.000000000000000D+00 0.000000000000000D+00 -.713638429887426D+03
 0.612129655209578D+03 0.444619779822840D+03 0.309385587769563D+03 0.256264559113756D+03
 0.505980873973199D+03 -.382905025508643D+03 -.262712881598287D+03 -.200953547142696D+03
 0.123717206256012D+03 -.641701449886852D+02 -.901600331114681D+02 -.553110119710601D+02
 0.978396484607264D+02 0.245539067448819D+01 0.434873269401923D+02 -.876094758753354D+02
0.119200124731D-02 0.000000000000D+00 0.000000000000D+00 0.156322023873D-03 0.518486524887D-06  6 2 -1 25 2 -1 21 2 0.17561105D+00 0.60213531D-01 0.34485744D+06 0.34485744D+06 0.34485744D+06 0.10801026D+01  1  2  1  2  6  2       -1 0.112252360901D-01 0.100000000000D+01
  </mgrwgt>
  </event>
  <event>
  7     66 0.20058315E-05 0.35243965E+02 0.75467711E-02 0.94050348E-01
        2 -1    0    0  501    0 0.00000000E+00 0.00000000E+00 0.16511659E+04 0.16511660E+04 0.32000000E+00 0.0000E+00 0.9000E+01
       -1 -1    0    0    0  503 0.00000000E+00 0.00000000E+00 -.23025872E+03 0.23025894E+03 0.32000000E+00 0.0000E+00 0.9000E+01
       24  2    1    2    0    0 -.50365599E+03 0.77322542E+02 0.80555369E+03 0.95648613E+03 0.79377823E+02 0.0000E+00 0.0000E+00
       25  1    1    2    0    0 0.50649212E+03 -.90328549E+02 0.67837094E+03 0.86052638E+03 0.12500000E+03 0.0000E+00 0.9000E+01
        2  1    3    3  502    0 -.11025550E+03 0.19981057E+02 0.24346363E+03 0.26801149E+03 0.32000000E+00 0.0000E+00 0.9000E+01
       -1  1    3    3    0  502 -.39340049E+03 0.57341485E+02 0.56209006E+03 0.68847464E+03 0.32000000E+00 0.0000E+00 0.9000E+01
       21  1    1    2  501  503 -.28361289E+01 0.13006007E+02 -.63017418E+02 0.64412401E+02 0.75000000E+00 0.0000E+00 0.9000E+01
#aMCatNLO 2  0  0  2  1 0.29707367D+02 0.00000000D+00  -5  6  0 0.00000000D+00 0.00000000D+00 0.00000000D+00 0.00000000D+00 0.00000000D+00
  <mgrwgt>
 0.4736409124D-02    1    2    0
 0.524243491282468D+03 0.000000000000000D+00 0.000000000000000D+00 0.524243491282468D+03
 0.524243491282468D+03 0.000000000000000D+00 0.000000000000000D+00 -.524243491282468D+03
 0.528689975288514D+03 0.505058776031858D+03 -.837554723222946D+02 -.422935406396791D+02
 0.120427224316639D+03 -.110575888952205D+03 0.214707880360611D+02 0.425992300417517D+02
 0.399369782959783D+03 -.394482887079653D+03 0.622846842862335D+02 -.305689402072588D+00
 0.000000000000000D+00 -.000000000000000D+00 0.000000000000000D+00 -.000000000000000D+00
 0.524506605002478D+03 0.000000000000000D+00 0.000000000000000D+00 0.524506605002478D+03
 0.724861381974147D+03 0.000000000000000D+00 0.000000000000000D+00 -.724861381974147D+03
 0.531137702299496D+03 0.506492120849653D+03 -.903285488722658D+02 -.422935406396791D+02
 0.119871489543460D+03 -.110250901292874D+03 0.199804496777944D+02 0.425992300417517D+02
 0.397562289956905D+03 -.393405090678403D+03 0.573420925506316D+02 -.305689402072588D+00
 0.200796505176763D+03 -.283612887837593D+01 0.130060066438398D+02 -.200354776971669D+03
0.365857355339D-03 0.000000000000D+00 0.000000000000D+00 0.137710071961D-03 0.515995575566D-05  6 2 -1 25 2 -1 21 2 0.25402521D+00 0.35424391D-01 0.27687157D+06 0.27687157D+06 0.27687157D+06 0.10871391D+01  1  2  1  2  6  2       -1 0.473640912353D-02 0.100000000000D+01
  </mgrwgt>
  </event>
  <event>
  7     66 0.20058315E-05 0.58219157E+03 0.75467711E-02 0.86706746E-01
        2 -1    0    0  503    0 0.00000000E+00 0.00000000E+00 0.31849251E+04 0.31849251E+04 0.32000000E+00 0.0000E+00 0.9000E+01
       -1 -1    0    0    0  501 0.00000000E+00 0.00000000E+00 -.36793717E+03 0.36793731E+03 0.32000000E+00 0.0000E+00 0.9000E+01
       24  2    1    2    0    0 -.59390377E+03 -.10304509E+03 0.81489630E+03 0.10192367E+04 0.10699265E+03 0.0000E+00 0.0000E+00
       25  1    1    2    0    0 0.73493467E+03 -.51335501E+03 0.13494528E+04 0.16249031E+04 0.12500000E+03 0.0000E+00 0.9000E+01
        2  1    3    3  502    0 -.68396360E+02 -.38080757E+02 0.15055259E+03 0.16968910E+03 0.32000000E+00 0.0000E+00 0.9000E+01
       -1  1    3    3    0  502 -.52550741E+03 -.64964334E+02 0.66434371E+03 0.84954757E+03 0.32000000E+00 0.0000E+00 0.9000E+01
       21  1    1    2  503  501 -.14103090E+03 0.61640010E+03 0.65263885E+03 0.90872263E+03 0.75000000E+00 0.0000E+00 0.9000E+01
#aMCatNLO 2  0  0  1  1 0.77444789D+02 0.00000000D+00  -5  6  0 0.00000000D+00 0.00000000D+00 0.00000000D+00 0.00000000D+00 0.00000000D+00
  <mgrwgt>
 0.8216726280D-05    1    2    0
 0.690512394151262D+03 0.000000000000000D+00 0.000000000000000D+00 0.690512394151262D+03
 0.690512394151262D+03 0.000000000000000D+00 0.000000000000000D+00 -.690512394151262D+03
 0.692024889934179D+03 0.657229627888832D+03 -.173731571739359D+03 0.337639673985756D+02
 0.789267452456308D+02 -.761633846920379D+02 -.411549413922452D+01 0.202887322253357D+02
 0.610073153122714D+03 -.581066243196794D+03 0.177847065878584D+03 -.540526996239113D+02
 0.000000000000000D+00 -.000000000000000D+00 0.000000000000000D+00 -.000000000000000D+00
 0.100605275305156D+04 0.000000000000000D+00 0.000000000000000D+00 0.100605275305156D+04
 0.116480186102112D+04 0.000000000000000D+00 0.000000000000000D+00 -.116480186102112D+04
 0.905774449577757D+03 0.734934676973789D+03 -.513355012242824D+03 0.337639673985756D+02
 0.808656887645443D+02 -.683922718738550D+02 -.380804951646572D+02 0.202887322253357D+02
 0.532263499726192D+03 -.525511503946318D+03 -.649645905414677D+02 -.540526996239113D+02
 0.651950976004184D+03 -.141030901153616D+03 0.616400097948949D+03 -.158749107969568D+03
0.138763419312D-04 0.000000000000D+00 0.000000000000D+00 0.168886858462D-06 0.306927766682D-11  6 2 -1 25 2 -1 21 2 0.48998839D+00 0.56605719D-01 0.11505394D+07 0.11505394D+07 0.11505394D+07 0.10438339D+01  1  2  1  1  6  1        2 0.821672627962D-05 0.100000000000D+01
  </mgrwgt>
  </event>
  <event>
  7     66 0.20058315E-05 0.48810662E+02 0.75467711E-02 0.94532313E-01
        2 -1    0    0  501    0 0.00000000E+00 0.00000000E+00 0.20303086E+04 0.20303086E+04 0.32000000E+00 0.0000E+00 0.9000E+01
       -1 -1    0    0    0  503 0.00000000E+00 0.00000000E+00 -.17636709E+03 0.17636738E+03 0.32000000E+00 0.0000E+00 0.9000E+01
       24  2    1    2    0    0 -.40587853E+03 0.24254748E+03 0.14668493E+04 0.15432771E+04 0.80565532E+02 0.0000E+00 0.0000E+00
       25  1    1    2    0    0 0.41908693E+03 -.26307917E+03 0.38418476E+03 0.63880155E+03 0.12500000E+03 0.0000E+00 0.9000E+01
        2  1    3    3  502    0 -.26352333E+03 0.14335261E+03 0.80559121E+03 0.85963470E+03 0.32000000E+00 0.0000E+00 0.9000E+01
       -1  1    3    3    0  502 -.14235520E+03 0.99194878E+02 0.66125808E+03 0.68364243E+03 0.32000000E+00 0.0000E+00 0.9000E+01
       21  1    1    2  501  503 -.13208396E+02 0.20531682E+02 0.29074569E+01 0.24597307E+02 0.75000000E+00 0.0000E+00 0.9000E+01
#aMCatNLO 2  0  0  2  1 0.20423191D+02 0.00000000D+00  -5  6  0 0.00000000D+00 0.00000000D+00 0.00000000D+00 0.00000000D+00 0.00000000D+00
  <mgrwgt>
 0.1300534626D-01    1    2    0
 0.577612401387606D+03 0.000000000000000D+00 0.000000000000000D+00 0.577612401387606D+03
 0.577612401387606D+03 0.000000000000000D+00 0.000000000000000D+00 -.577612401387606D+03
 0.581565828925587D+03 0.412384905646556D+03 -.252661265549962D+03 -.297816701780605D+03
 0.338496602668825D+03 -.267362836780843D+03 0.149318622696159D+03 0.144225560990272D+03
 0.235162371180800D+03 -.145022068865713D+03 0.103342642853803D+03 0.153591140790333D+03
 0.000000000000000D+00 -.000000000000000D+00 0.000000000000000D+00 -.000000000000000D+00
 0.581678065700867D+03 0.000000000000000D+00 0.000000000000000D+00 0.581678065700867D+03
 0.615591101785131D+03 0.000000000000000D+00 0.000000000000000D+00 -.615591101785131D+03
 0.590901250123853D+03 0.419086926317531D+03 -.263079166275435D+03 -.297816701780605D+03
 0.332861433845298D+03 -.263525240383688D+03 0.143353302645277D+03 0.144225560990272D+03
 0.231720053531290D+03 -.142353289744108D+03 0.991941811715683D+02 0.153591140790333D+03
 0.417864299855583D+02 -.132083961897348D+02 0.205316824585904D+02 -.339130360842638D+02
0.101988112768D-02 0.000000000000D+00 0.000000000000D+00 0.135243188484D-03 0.144292239759D-05  6 2 -1 25 2 -1 21 2 0.31235339D+00 0.27133266D-01 0.25415373D+06 0.25415373D+06 0.25415373D+06 0.10899211D+01  1  2  1  2  6  2       -1 0.130053462630D-01 0.100000000000D+01
  </mgrwgt>
  </event>
  <event>
  6     66 0.20058315E-05 0.19189683E+02 0.75467711E-02 0.94887459E-01
        2 -1    0    0  501    0 0.00000000E+00 0.00000000E+00 0.33183454E+03 0.33183469E+03 0.32000000E+00 0.0000E+00 0.9000E+01
       -1 -1    0    0    0  501 0.00000000E+00 0.00000000E+00 -.73630569E+03 0.73630576E+03 0.32000000E+00 0.0000E+00 0.9000E+01
       24  2    1    2    0    0 -.32457867E+03 -.34960338E+03 -.11755341E+03 0.49759630E+03 0.78799986E+02 0.0000E+00 0.0000E+00
       25  1    1    2    0    0 0.32457867E+03 0.34960338E+03 -.28691774E+03 0.57054415E+03 0.12500000E+03 0.0000E+00 0.9000E+01
        2  1    3    3  502    0 -.21947630E+01 -.26026719E+02 -.73849416E+00 0.26131492E+02 0.32000000E+00 0.0000E+00 0.9000E+01
       -1  1    3    3    0  502 -.32238390E+03 -.32357666E+03 -.11681491E+03 0.47146481E+03 0.32000000E+00 0.0000E+00 0.9000E+01
#aMCatNLO 1  0  0  2  1 0.12034310D+01 0.00000000D+00  -5  6  0 0.00000000D+00 0.00000000D+00 0.00000000D+00 0.00000000D+00 0.00000000D+00
  <mgrwgt>
 0.6306718910D-03   11    4    0
 0.494299278541259D+03 0.000000000000000D+00 0.000000000000000D+00 0.494299278541259D+03
 0.494299278541259D+03 0.000000000000000D+00 0.000000000000000D+00 -.494299278541259D+03
 0.499061354227720D+03 0.324578665274343D+03 0.349603383350083D+03 -.765728390652070D+02
 0.279247156803193D+02 -.218948254997579D+01 -.260218122578150D+02 0.989248193372372D+01
 0.461612487174479D+03 -.322389182724368D+03 -.323581571092268D+03 0.666803571314833D+02
 0.000000000000000D+00 -.000000000000000D+00 0.000000000000000D+00 -.000000000000000D+00
 0.494658906774796D+03 0.000000000000000D+00 0.000000000000000D+00 0.494658906774796D+03
 0.495307437255087D+03 0.000000000000000D+00 0.000000000000000D+00 -.495307437255087D+03
 0.498929841181312D+03 0.324918329124879D+03 0.349099793952101D+03 -.765728390652070D+02
 0.279495073810152D+02 -.217046589548222D+01 -.260500065610149D+02 0.989248193372372D+01
 0.461719940994259D+03 -.322074928801769D+03 -.324047487448823D+03 0.666803571314833D+02
 0.136705447329732D+01 -.672934427628366D+00 0.997700057737077D+00 -.648530480290738D+00
 0.494299278541259D+03 0.000000000000000D+00 0.000000000000000D+00 0.494299278541259D+03
 0.494299278541259D+03 0.000000000000000D+00 0.000000000000000D+00 -.494299278541259D+03
 0.499061354227720D+03 0.324578665274343D+03 0.349603383350083D+03 -.765728390652070D+02
 0.279247156803193D+02 -.218948254997579D+01 -.260218122578150D+02 0.989248193372372D+01
 0.000000000000000D+00 -.000000000000000D+00 0.000000000000000D+00 -.000000000000000D+00
 0.461612487174479D+03 -.322389182724368D+03 -.323581571092268D+03 0.666803571314833D+02
 0.494658906774796D+03 0.000000000000000D+00 0.000000000000000D+00 0.494658906774796D+03
 0.495307437255087D+03 0.000000000000000D+00 0.000000000000000D+00 -.495307437255087D+03
 0.498929841181312D+03 0.324918329124879D+03 0.349099793952101D+03 -.765728390652070D+02
 0.279495073810152D+02 -.217046589548222D+01 -.260500065610149D+02 0.989248193372372D+01
 0.136705447329732D+01 -.672934427628366D+00 0.997700057737077D+00 -.648530480290738D+00
 0.461719940994259D+03 -.322074928801769D+03 -.324047487448823D+03 0.666803571314833D+02
0.206434479075D-04 0.000000000000D+00 0.000000000000D+00 0.209190376717D-04 0.000000000000D+00  6 2 -1 25 2 -1 21 0 0.51051484D-01 0.11327782D+00 0.23816195D+06 0.23816195D+06 0.23816195D+06 0.10920476D+01  1  2  2  2  6  2       -1 0.205062151113D-03 0.100000000000D+01
0.668495769977D-05 0.000000000000D+00 -.792762755094D-07 0.209190376717D-04 0.000000000000D+00  6 2 -1 25 2 -1 21 2 0.51051484D-01 0.11327782D+00 0.23816195D+06 0.23816195D+06 0.23816195D+06 0.10920476D+01  1  2  3  2  6  2       -1 0.791926811723D-04 0.100000000000D+01
-.685462272569D-05 0.000000000000D+00 0.000000000000D+00 0.209190376717D-04 0.000000000000D+00  6 2 -1 25 2 -1 21 2 0.51051484D-01 0.11327782D+00 0.23816195D+06 0.23816195D+06 0.23816195D+06 0.10920476D+01  1  2 15  2  6  2       -1 -.812026008916D-04 0.100000000000D+01
-.196152961875D-03 0.000000000000D+00 0.000000000000D+00 0.209190376717D-04 0.000000000000D+00  6 2 -1 25 2 -1 21 2 0.51051484D-01 0.11327782D+00 0.23816195D+06 0.23816195D+06 0.23816195D+06 0.10920476D+01  1  2  4  2  6  2       -1 -.232370639702D-02 0.100000000000D+01
-.126528848243D-01 0.000000000000D+00 -.963177531388D-03 0.209190376717D-04 0.000000000000D+00  6 2 -1 25 2 -1 21 2 0.51051484D-01 0.11356542D+00 0.23816195D+06 0.23816195D+06 0.23816195D+06 0.10920476D+01  1  2  5  2  6  2       -1 -.148990213288D+00 0.100000000000D+01
0.126552895499D-01 0.000000000000D+00 0.963174434928D-03 0.209190376717D-04 0.000000000000D+00  6 2 -1 25 2 -1 21 2 0.51051484D-01 0.11327782D+00 0.23816195D+06 0.23816195D+06 0.23816195D+06 0.10920476D+01  1  2  6  2  6  2       -1 0.149919618864D+00 0.100000000000D+01
0.188568915217D-03 0.000000000000D+00 0.000000000000D+00 0.209190376717D-04 0.920118686652D-04  6 2 -1 25 2 -1 21 2 0.51088627D-01 0.11350885D+00 0.23875059D+06 0.23875059D+06 0.23875059D+06 0.10919666D+01  1  2 11  2  6  2       -1 0.222078817629D-02 0.100000000000D+01
0.386276572012D-10 0.000000000000D+00 0.000000000000D+00 0.209190376717D-04 0.000000000000D+00  6 2 21 25 2 1 -1 2 0.51051484D-01 0.11355000D+00 0.23875059D+06 0.23875059D+06 0.23875059D+06 0.10919666D+01  3  4 12  6  5  2       -1 0.305328893966D-08 0.100000000000D+01
0.474037609319D-14 0.000000000000D+00 0.000000000000D+00 0.209190376717D-04 0.000000000000D+00  6 2 21 25 2 1 -1 2 0.51051484D-01 0.11358591D+00 0.23875059D+06 0.23875059D+06 0.23875059D+06 0.10919666D+01  3  4 12  6  5  2       -1 0.374381195343D-12 0.100000000000D+01
-.599056599171D-05 0.000000000000D+00 -.456197017282D-06 0.209190376717D-04 0.000000000000D+00  6 2 21 25 2 1 -1 2 0.51051484D-01 0.11356542D+00 0.23816195D+06 0.23816195D+06 0.23816195D+06 0.10920476D+01  3  4  5  6  5  2       -1 -.473486242691D-03 0.100000000000D+01
0.943812965108D-06 0.000000000000D+00 0.000000000000D+00 0.209190376717D-04 0.349931094657D-07  6 2 21 25 2 1 -1 2 0.51088627D-01 0.11350885D+00 0.23875059D+06 0.23875059D+06 0.23875059D+06 0.10919666D+01  3  4 11  6  5  2       -1 0.746154930816D-04 0.100000000000D+01
  </mgrwgt>
  </event>
  <event>
  7     66 0.20058315E-05 0.74247570E+02 0.75467711E-02 0.92819641E-01
        2 -1    0    0  501    0 0.00000000E+00 0.00000000E+00 0.44821203E+04 0.44821204E+04 0.32000000E+00 0.0000E+00 0.9000E+01
       -1 -1    0    0    0  503 0.00000000E+00 0.00000000E+00 -.10062640E+03 0.10062691E+03 0.32000000E+00 0.0000E+00 0.9000E+01
       24  2    1    2    0    0 -.39955813E+03 0.42005038E+03 0.12707217E+04 0.13991814E+04 0.82982364E+02 0.0000E+00 0.0000E+00
       25  1    1    2    0    0 0.39049726E+03 -.40637577E+03 0.31138063E+04 0.31668666E+04 0.12500000E+03 0.0000E+00 0.9000E+01
        2  1    3    3  502    0 -.22218985E+03 0.19129628E+03 0.56884490E+03 0.63995877E+03 0.32000000E+00 0.0000E+00 0.9000E+01
       -1  1    3    3    0  502 -.17736828E+03 0.22875410E+03 0.70187679E+03 0.75922268E+03 0.32000000E+00 0.0000E+00 0.9000E+01
       21  1    1    2  501  503 0.90608711E+01 -.13674605E+02 -.30340962E+01 0.16699175E+02 0.75000000E+00 0.0000E+00 0.9000E+01
#aMCatNLO 2  0  0  2  1 0.12034310D+01 0.00000000D+00  -5  6  0 0.00000000D+00 0.00000000D+00 0.00000000D+00 0.00000000D+00 0.00000000D+00
  <mgrwgt>
 0.2857673119D-02    1    2    0
 0.637267591399345D+03 0.000000000000000D+00 0.000000000000000D+00 0.637267591399345D+03
 0.637267591399345D+03 0.000000000000000D+00 0.000000000000000D+00 -.637267591399345D+03
 0.640695871564782D+03 0.395026329652888D+03 -.413211012068463D+03 0.260915806777741D+03
 0.332150510999613D+03 -.219816492862497D+03 0.187712860544779D+03 -.163610981932853D+03
 0.301688800234295D+03 -.175209836790391D+03 0.225498151523684D+03 -.973048248448887D+02
 0.000000000000000D+00 0.000000000000000D+00 -.000000000000000D+00 -.000000000000000D+00
 0.638291387052336D+03 0.000000000000000D+00 0.000000000000000D+00 0.638291387052336D+03
 0.706602053843464D+03 0.000000000000000D+00 0.000000000000000D+00 -.706602053843464D+03
 0.633507252827542D+03 0.390497261991255D+03 -.406375773805419D+03 0.260915806777741D+03
 0.335754719401334D+03 -.222190516220419D+03 0.191295720529604D+03 -.163610981932853D+03
 0.305378771827076D+03 -.177367616862042D+03 0.228754658604363D+03 -.973048248448887D+02
 0.702526968398471D+02 0.906087109120611D+01 -.136746053285483D+02 -.683106667911274D+02
0.485203687337D-02 0.000000000000D+00 0.000000000000D+00 0.258456278878D-04 0.601372147951D-06  6 2 -1 25 2 -1 21 2 0.68955486D+00 0.15480976D-01 0.34594478D+06 0.34594478D+06 0.34594478D+06 0.10800028D+01  1  2  1  2  6  2       -1 0.285767311924D-02 0.100000000000D+01
  </mgrwgt>
  </event>
  <event>
  7     66 0.20058315E-05 0.61243252E+02 0.75467711E-02 0.93922929E-01
        2 -1    0    0  501    0 0.00000000E+00 0.00000000E+00 0.24922602E+04 0.24922603E+04 0.32000000E+00 0.0000E+00 0.9000E+01
       -1 -1    0    0    0  503 0.00000000E+00 0.00000000E+00 -.85532410E+03 0.85532416E+03 0.32000000E+00 0.0000E+00 0.9000E+01
       24  2    1    2    0    0 -.51841044E+03 0.59353075E+02 0.10222033E+04 0.11507195E+04 0.83568904E+02 0.0000E+00 0.0000E+00
       25  1    1    2    0    0 0.50505948E+03 -.44908465E+02 0.13571636E+04 0.14541733E+04 0.12500000E+03 0.0000E+00 0.9000E+01
        2  1    3    3  502    0 -.29851289E+03 0.47893803E+02 0.50481465E+03 0.58842306E+03 0.32000000E+00 0.0000E+00 0.9000E+01
       -1  1    3    3    0  502 -.21989756E+03 0.11459272E+02 0.51738862E+03 0.56229648E+03 0.32000000E+00 0.0000E+00 0.9000E+01
       21  1    1    2  501  503 0.13350967E+02 -.14444610E+02 -.74243073E+03 0.74269162E+03 0.75000000E+00 0.0000E+00 0.9000E+01
#aMCatNLO 2  0  0  2  1 0.12034310D+01 0.00000000D+00  -5  6  0 0.00000000D+00 0.00000000D+00 0.00000000D+00 0.00000000D+00 0.00000000D+00
  <mgrwgt>
 0.7779465734D-02    1    2    0
 0.530021918247759D+03 0.000000000000000D+00 0.000000000000000D+00 0.530021918247759D+03
 0.530021918247759D+03 0.000000000000000D+00 0.000000000000000D+00 -.530021918247759D+03
 0.534097805687034D+03 0.511741238234533D+03 -.521375610236019D+02 0.709791931512454D+02
 0.308443757369487D+03 -.294602164159207D+03 0.436620192458140D+02 -.802542485373613D+02
 0.217502273438998D+03 -.217139074075326D+03 0.847554177778795D+01 0.927505538611588D+01
 0.000000000000000D+00 0.000000000000000D+00 -.000000000000000D+00 -.000000000000000D+00
 0.530140863059372D+03 0.000000000000000D+00 0.000000000000000D+00 0.530140863059372D+03
 0.402098801222159D+04 0.000000000000000D+00 0.000000000000000D+00 -.402098801222159D+04
 0.527034052619637D+03 0.505059478171893D+03 -.449084654493006D+02 0.709791931512454D+02
 0.312802244752360D+03 -.298514040608451D+03 0.478943365486402D+02 -.802542485373613D+02
 0.220390013545044D+03 -.219896404535253D+03 0.114587386058509D+02 0.927505538611588D+01
 0.349090256436392D+04 0.133509669718116D+02 -.144446097051905D+02 -.349084714916222D+04
0.249402622852D-01 0.000000000000D+00 0.000000000000D+00 0.182484729676D-04 0.115151880393D-05  6 2 -1 25 2 -1 21 2 0.38342463D+00 0.13158832D+00 0.28325213D+06 0.28325213D+06 0.28325213D+06 0.10864025D+01  1  2  1  2  6  2       -1 0.777946573412D-02 0.100000000000D+01
  </mgrwgt>
  </event>
  <event>
  7     66 0.20058315E-05 0.47559868E+02 0.75467711E-02 0.89867106E-01
        2 -1    0    0  503    0 0.00000000E+00 0.00000000E+00 0.23684246E+04 0.23684246E+04 0.32000000E+00 0.0000E+00 0.9000E+01
       -1 -1    0    0    0  501 0.00000000E+00 0.00000000E+00 -.36212082E+03 0.36212096E+03 0.32000000E+00 0.0000E+00 0.9000E+01
       24  2    1    2    0    0 -.57342231E+02 -.77003765E+03 0.58613363E+03 0.97282619E+03 0.81191406E+02 0.0000E+00 0.0000E+00
       25  1    1    2    0    0 0.63366259E+02 0.73567579E+03 0.66439539E+03 0.10011395E+04 0.12500000E+03 0.0000E+00 0.9000E+01
        2  1    3    3  502    0 -.25795448E+02 -.46934843E+03 0.40436984E+03 0.62005518E+03 0.32000000E+00 0.0000E+00 0.9000E+01
       -1  1    3    3    0  502 -.31546783E+02 -.30068922E+03 0.18176378E+03 0.35277101E+03 0.32000000E+00 0.0000E+00 0.9000E+01
       21  1    1    2  503  501 -.60240275E+01 0.34361854E+02 0.75577472E+03 0.75657981E+03 0.75000000E+00 0.0000E+00 0.9000E+01
#aMCatNLO 2  0  0  1  2 0.60733463D+02 0.00000000D+00  -5  6  0 0.00000000D+00 0.00000000D+00 0.00000000D+00 0.00000000D+00 0.00000000D+00
  <mgrwgt>
 0.1855100461D-02    1    2    0
 0.763462647854807D+03 0.000000000000000D+00 0.000000000000000D+00 0.763462647854807D+03
 0.763462647854807D+03 0.000000000000000D+00 0.000000000000000D+00 -.763462647854807D+03
 0.766420538349086D+03 0.603755162300651D+02 0.752735387471391D+03 0.389830102935896D+02
 0.459958941447173D+03 -.276301420677316D+02 -.458885199282302D+03 0.149391079440188D+02
 0.300545815913356D+03 -.327453741623335D+02 -.293850188189089D+03 -.539221182376084D+02
 0.000000000000000D+00 -.000000000000000D+00 0.000000000000000D+00 0.000000000000000D+00
 0.112183447908301D+04 0.000000000000000D+00 0.000000000000000D+00 0.112183447908301D+04
 0.764511351632045D+03 0.000000000000000D+00 0.000000000000000D+00 -.764511351632045D+03
 0.749919217461992D+03 0.633662587156361D+02 0.735675794683799D+03 0.389830102935896D+02
 0.470296697489874D+03 -.257953586353584D+02 -.469351047933839D+03 0.149391079440188D+02
 0.307107850526065D+03 -.315468725535953D+02 -.300686600718416D+03 -.539221182376084D+02
 0.359022065237127D+03 -.602402752668246D+01 0.343618539684561D+02 0.357323127450967D+03
0.878472922119D-03 0.000000000000D+00 0.000000000000D+00 0.213533520292D-03 0.113421242938D-05  6 2 -1 25 2 -1 21 2 0.36437284D+00 0.55710880D-01 0.60542991D+06 0.60542991D+06 0.60542991D+06 0.10626869D+01  1  2  1  1  6  1        2 0.185510046100D-02 0.100000000000D+01
  </mgrwgt>
  </event>
  <event>
  6     66 0.20058315E-05 0.53760702E+02 0.75467711E-02 0.90183159E-01
        2 -1    0    0  501    0 0.00000000E+00 0.00000000E+00 0.16763843E+04 0.16763844E+04 0.32000000E+00 0.0000E+00 0.9000E+01
       -1 -1    0    0    0  501 0.00000000E+00 0.00000000E+00 -.67454837E+03 0.67454844E+03 0.32000000E+00 0.0000E+00 0.9000E+01
       25  1    1    2    0    0 0.38446654E+03 0.60756569E+03 -.33472224E+03 0.80287892E+03 0.12500000E+03 0.0000E+00 0.9000E+01
        2  1    1    2  503    0 -.11302786E+03 -.25603724E+03 0.44664572E+03 0.52708905E+03 0.32000000E+00 0.0000E+00 0.9000E+01
       -1  1    1    2    0  502 -.27816363E+03 -.37945167E+03 0.85343889E+03 0.97453405E+03 0.32000000E+00 0.0000E+00 0.9000E+01
       21  1    1    2  502  503 0.67249442E+01 0.27923231E+02 0.36473582E+02 0.46430770E+02 0.75000000E+00 0.0000E+00 0.9000E+01
#aMCatNLO 2  0  0  4  2 0.64732717D+00 0.00000000D+00  -5  6  0 0.00000000D+00 0.00000000D+00 0.00000000D+00 0.00000000D+00 0.00000000D+00
  <mgrwgt>
 0.1036504210D+00    1    2    0
 0.106339194487889D+04 0.000000000000000D+00 0.000000000000000D+00 0.106339194487889D+04
 0.106339194487889D+04 -.000000000000000D+00 -.000000000000000D+00 -.106339194487889D+04
 0.106586398997642D+04 0.390565483142394D+03 0.620653330959846D+03 -.763340743884837D+03
 0.398681815925165D+03 -.116206346108561D+03 -.249414394033619D+03 0.288506040703357D+03
 0.662238083856183D+03 -.274359137033834D+03 -.371238936926227D+03 0.474834703181480D+03
 0.000000000000000D+00 0.000000000000000D+00 0.000000000000000D+00 0.000000000000000D+00
 0.106339194487889D+04 0.000000000000000D+00 0.000000000000000D+00 0.106339194487889D+04
 0.106339194487889D+04 -.000000000000000D+00 -.000000000000000D+00 -.106339194487889D+04
 0.104513445499887D+04 0.384456951925370D+03 0.607542552908995D+03 -.748175064772181D+03
 0.372059373525657D+03 -.112961975535933D+03 -.255970699893238D+03 0.245248384923305D+03
 0.675391578992570D+03 -.278229794812753D+03 -.379546553478758D+03 0.484444403409645D+03
 0.341984822406756D+02 0.673481842331594D+01 0.279747004630003D+02 0.184822764392316D+02
0.716656380443D-01 0.000000000000D+00 0.000000000000D+00 0.192560168444D-05 0.134214074232D-07  6 2 -1 25 2 -1 21 2 0.25790529D+00 0.10377668D+00 0.56920899D+06 0.56920899D+06 0.56920899D+06 0.10645539D+01  1  2  1  3  6  4        2 0.103650420958D+00 0.100000000000D+01
  </mgrwgt>
  </event>
  <event>
  7     66 0.20058315E-05 0.26671083E+02 0.75467711E-02 0.94876702E-01
        2 -1    0    0  503    0 0.00000000E+00 0.00000000E+00 0.90099820E+03 0.90099826E+03 0.32000000E+00 0.0000E+00 0.9000E+01
       -1 -1    0    0    0  501 0.00000000E+00 0.00000000E+00 -.72917200E+03 0.72917207E+03 0.32000000E+00 0.0000E+00 0.9000E+01
       24  2    1    2    0    0 0.38076828E+03 0.29157287E+03 0.24260297E+03 0.54327250E+03 0.79306924E+02 0.0000E+00 0.0000E+00
       25  1    1    2    0    0 -.36254865E+03 -.28171869E+03 -.48073519E+03 0.67641575E+03 0.12500000E+03 0.0000E+00 0.9000E+01
        2  1    3    3  502    0 0.32357976E+03 0.22653216E+03 0.22602818E+03 0.45509288E+03 0.32000000E+00 0.0000E+00 0.9000E+01
       -1  1    3    3    0  502 0.57188514E+02 0.65040710E+02 0.16574783E+02 0.88179623E+02 0.32000000E+00 0.0000E+00 0.9000E+01
       21  1    1    2  503  501 -.18219631E+02 -.98541797E+01 0.40995843E+03 0.41048208E+03 0.75000000E+00 0.0000E+00 0.9000E+01
#aMCatNLO 2  0  0  1  2 0.60733463D+02 0.00000000D+00  -5  6  0 0.00000000D+00 0.00000000D+00 0.00000000D+00 0.00000000D+00 0.00000000D+00
  <mgrwgt>
 0.6988247573D-02    1    2    0
 0.598018271764147D+03 0.000000000000000D+00 0.000000000000000D+00 0.598018271764147D+03
 0.598018271764147D+03 0.000000000000000D+00 0.000000000000000D+00 -.598018271764147D+03
 0.601920916681269D+03 -.371656805266359D+03 -.286644888304481D+03 -.355513314865330D+03
 0.502305915592369D+03 0.315881701418922D+03 0.222368912169667D+03 0.321063935141046D+03
 0.918097112546564D+02 0.557751038474363D+02 0.642759761348142D+02 0.344493797242836D+02
 0.000000000000000D+00 -.000000000000000D+00 -.000000000000000D+00 0.000000000000000D+00
 0.109804016668202D+04 0.000000000000000D+00 0.000000000000000D+00 0.109804016668202D+04
 0.598322507707259D+03 0.000000000000000D+00 0.000000000000000D+00 -.598322507707259D+03
 0.593987928952917D+03 -.362548645330708D+03 -.281718693849218D+03 -.355513314865330D+03
 0.509025276992127D+03 0.323584099710899D+03 0.226534793316489D+03 0.321063935141046D+03
 0.932026914856609D+02 0.571841765877121D+02 0.650380802666312D+02 0.344493797242836D+02
 0.500146776958578D+03 -.182196309679033D+02 -.985417973390251D+01 0.499717658974764D+03
0.186207376432D-02 0.000000000000D+00 0.000000000000D+00 0.715075741044D-04 0.127205423733D-05  6 2 -1 25 2 -1 21 2 0.13861505D+00 0.11218026D+00 0.23920142D+06 0.23920142D+06 0.23920142D+06 0.10919047D+01  1  2  1  1  6  1        2 0.698824757338D-02 0.100000000000D+01
  </mgrwgt>
  </event>
  <event>
  7     66 0.20058315E-05 0.63359141E+02 0.75467711E-02 0.93857168E-01
        2 -1    0    0  501    0 0.00000000E+00 0.00000000E+00 0.23025091E+04 0.23025091E+04 0.32000000E+00 0.0000E+00 0.9000E+01
       21 -1    0    0  503  501 0.00000000E+00 0.00000000E+00 -.16347018E+03 0.16347190E+03 0.75000000E+00 0.0000E+00 0.9000E+01
       24  2    1    2    0    0 -.37413812E+03 -.34938450E+03 0.16359276E+04 0.17160343E+04 0.80409686E+02 0.0000E+00 0.0000E+00
       25  1    1    2    0    0 0.38949982E+03 0.31942521E+03 0.49013643E+03 0.71386364E+03 0.12500000E+03 0.0000E+00 0.9000E+01
        2  1    3    3  502    0 -.16119719E+03 -.20491858E+03 0.80339712E+03 0.84464383E+03 0.32000000E+00 0.0000E+00 0.9000E+01
        1  1    1    2  503    0 -.15361702E+02 0.29959290E+02 0.12974924E+02 0.36083126E+02 0.32000000E+00 0.0000E+00 0.9000E+01
       -1  1    3    3    0  502 -.21294093E+03 -.14446592E+03 0.83253046E+03 0.87139045E+03 0.32000000E+00 0.0000E+00 0.9000E+01
#aMCatNLO 2  0  0  2  2 0.27570138D+02 0.00000000D+00  -5  6  0 0.00000000D+00 0.00000000D+00 0.00000000D+00 0.00000000D+00 0.00000000D+00
  <mgrwgt>
 0.3496716899D-02    1    2    0
 0.588031070337869D+03 0.000000000000000D+00 0.000000000000000D+00 0.588031070337869D+03
 0.588031070337869D+03 0.000000000000000D+00 0.000000000000000D+00 -.588031070337869D+03
 0.591925117268096D+03 0.381791178479063D+03 0.334459061398524D+03 -.277710238804471D+03
 0.289662861010175D+03 -.164998718344306D+03 -.197503967477835D+03 0.132936747454760D+03
 0.000000000000000D+00 -.000000000000000D+00 0.000000000000000D+00 -.000000000000000D+00
 0.294474162397466D+03 -.216792460134757D+03 -.136955093920689D+03 0.144773491349710D+03
 0.594605926779599D+03 0.000000000000000D+00 0.000000000000000D+00 0.594605926779599D+03
 0.633012699768603D+03 0.000000000000000D+00 0.000000000000000D+00 -.633012699768603D+03
 0.588634483022539D+03 0.389499823073162D+03 0.319425211422567D+03 -.277710238804471D+03
 0.292657587036165D+03 -.161196367854962D+03 -.204919534003833D+03 0.132936747454760D+03
 0.510746623653481D+02 -.153617016267514D+02 0.299592898353096D+02 -.384067729890039D+02
 0.295251894124149D+03 -.212941753591448D+03 -.144464967254044D+03 0.144773491349710D+03
0.311338932817D-04 0.000000000000D+00 0.000000000000D+00 0.213889482136D-03 0.148964258976D-07  6 2 21 25 2 1 -1 2 0.35423201D+00 0.25149372D-01 0.28660952D+06 0.28660952D+06 0.28660952D+06 0.10860221D+01  1  2  1  6  5  2       -1 0.349671689906D-02 0.100000000000D+01
  </mgrwgt>
  </event>
  <event>
  7     66 0.20058315E-05 0.53138381E+02 0.75467711E-02 0.93796725E-01
        2 -1    0    0  501    0 0.00000000E+00 0.00000000E+00 0.17195683E+04 0.17195684E+04 0.32000000E+00 0.0000E+00 0.9000E+01
       -1 -1    0    0    0  503 0.00000000E+00 0.00000000E+00 -.19822526E+03 0.19822551E+03 0.32000000E+00 0.0000E+00 0.9000E+01
       24  2    1    2    0    0 0.44353603E+03 0.26299446E+03 0.10936817E+04 0.12118256E+04 0.80569014E+02 0.0000E+00 0.0000E+00
       25  1    1    2    0    0 -.44435647E+03 -.28249146E+03 0.41979913E+03 0.68491635E+03 0.12500000E+03 0.0000E+00 0.9000E+01
        2  1    3    3  502    0 0.27125894E+03 0.16889895E+03 0.76392767E+03 0.82806634E+03 0.32000000E+00 0.0000E+00 0.9000E+01
       -1  1    3    3    0  502 0.17227710E+03 0.94095516E+02 0.32975399E+03 0.38375924E+03 0.32000000E+00 0.0000E+00 0.9000E+01
       21  1    1    2  501  503 0.82043683E+00 0.19496997E+02 0.78622795E+01 0.21051935E+02 0.75000000E+00 0.0000E+00 0.9000E+01
#aMCatNLO 2  0  0  2  2 0.27570138D+02 0.00000000D+00  -5  6  0 0.00000000D+00 0.00000000D+00 0.00000000D+00 0.00000000D+00 0.00000000D+00
  <mgrwgt>
 0.1260445310D-01    1    2    0
 0.571538505680918D+03 0.000000000000000D+00 0.000000000000000D+00 0.571538505680918D+03
 0.571538505680918D+03 0.000000000000000D+00 0.000000000000000D+00 -.571538505680918D+03
 0.575533701956952D+03 -.443941602093431D+03 -.272632446569784D+03 -.210241397199422D+03
 0.365641866977594D+03 0.271521795640899D+03 0.175109600731673D+03 0.171191463310517D+03
 0.201901442427290D+03 0.172419806452532D+03 0.975228458381110D+02 0.390499338889051D+02
 0.000000000000000D+00 0.000000000000000D+00 0.000000000000000D+00 -.000000000000000D+00
 0.576462679839239D+03 0.000000000000000D+00 0.000000000000000D+00 0.576462679839239D+03
 0.591287880933077D+03 0.000000000000000D+00 0.000000000000000D+00 -.591287880933077D+03
 0.580586379990539D+03 -.444356471078612D+03 -.282491462074018D+03 -.210241397199422D+03
 0.362513488830800D+03 0.271260500055574D+03 0.168900129021509D+03 0.171191463310517D+03
 0.200143700993177D+03 0.172275534189423D+03 0.940943358033168D+02 0.390499338889051D+02
 0.245069909577998D+02 0.820436833614534D+00 0.194969972491916D+02 -.148252010938383D+02
0.825062618569D-03 0.000000000000D+00 0.000000000000D+00 0.306435549661D-03 0.506171552447D-05  6 2 -1 25 2 -1 21 2 0.26454638D+00 0.30495913D-01 0.28973477D+06 0.28973477D+06 0.28973477D+06 0.10856723D+01  1  2  1  2  6  2       -1 0.126044531007D-01 0.100000000000D+01
  </mgrwgt>
  </event>
  <event>
  7     66 0.20058315E-05 0.41641028E+02 0.75467711E-02 0.95503791E-01
        2 -1    0    0  501    0 0.00000000E+00 0.00000000E+00 0.31259074E+04 0.31259074E+04 0.32000000E+00 0.0000E+00 0.9000E+01
       21 -1    0    0  503  501 0.00000000E+00 0.00000000E+00 -.10403131E+03 0.10403402E+03 0.75000000E+00 0.0000E+00 0.9000E+01
       24  2    1    2    0    0 -.30223503E+03 -.32107708E+03 0.22157519E+04 0.22606530E+04 0.80986695E+02 0.0000E+00 0.0000E+00
       25  1    1    2    0    0 0.30979708E+03 0.33019093E+03 0.82362935E+03 0.94815114E+03 0.12500000E+03 0.0000E+00 0.9000E+01
        2  1    3    3  502    0 -.94344269E+02 -.64049877E+02 0.70434640E+03 0.71351747E+03 0.32000000E+00 0.0000E+00 0.9000E+01
        1  1    1    2  503    0 -.75620429E+01 -.91138467E+01 -.17505251E+02 0.21137240E+02 0.32000000E+00 0.0000E+00 0.9000E+01
       -1  1    3    3    0  502 -.20789077E+03 -.25702721E+03 0.15114055E+04 0.15471355E+04 0.32000000E+00 0.0000E+00 0.9000E+01
#aMCatNLO 2  0  0  2  2 0.27570138D+02 0.00000000D+00  -5  6  0 0.00000000D+00 0.00000000D+00 0.00000000D+00 0.00000000D+00 0.00000000D+00
  <mgrwgt>
 0.1847886416D-01    1    2    0
 0.514403823935231D+03 0.000000000000000D+00 0.000000000000000D+00 0.514403823935231D+03
 0.514403823935231D+03 0.000000000000000D+00 0.000000000000000D+00 -.514403823935231D+03
 0.518809970875189D+03 0.305964805601694D+03 0.325572237344726D+03 -.232221966839878D+03
 0.145852550212097D+03 -.954098517151236D+02 -.653332507414920D+02 0.888903422572983D+02
 0.000000000000000D+00 -.000000000000000D+00 -.000000000000000D+00 -.000000000000000D+00
 0.364145126783176D+03 -.210554953886570D+03 -.260238986603234D+03 0.143331624582580D+03
 0.514736721263594D+03 0.000000000000000D+00 0.000000000000000D+00 0.514736721263594D+03
 0.631772231290991D+03 0.000000000000000D+00 0.000000000000000D+00 -.631772231290991D+03
 0.523977404523406D+03 0.309797077676729D+03 0.330190928450589D+03 -.232221966839878D+03
 0.144582157571022D+03 -.943424962344984D+02 -.640468636665055D+02 0.888903422572983D+02
 0.117633147119097D+03 -.756204287029605D+01 -.911384668502796D+01 -.117035510027396D+03
 0.360316243341059D+03 -.207892538571935D+03 -.257030218099056D+03 0.143331624582580D+03
0.212193678469D-03 0.000000000000D+00 0.000000000000D+00 0.175225054837D-03 0.237352017501D-06  6 2 21 25 2 1 -1 2 0.48090883D+00 0.16005020D-01 0.21444301D+06 0.21444301D+06 0.21444301D+06 0.10955072D+01  1  2  1  6  5  2       -1 0.184788641630D-01 0.100000000000D+01
  </mgrwgt>
  </event>
  <event>
  7     66 0.20058315E-05 0.24324393E+02 0.75467711E-02 0.93157989E-01
        2 -1    0    0  501    0 0.00000000E+00 0.00000000E+00 0.76044364E+03 0.76044371E+03 0.32000000E+00 0.0000E+00 0.9000E+01
       -1 -1    0    0    0  503 0.00000000E+00 0.00000000E+00 -.63554883E+03 0.63554891E+03 0.32000000E+00 0.0000E+00 0.9000E+01
       24  2    1    2    0    0 -.48762727E+03 -.27773227E+03 0.35547304E+03 0.66939753E+03 0.82561523E+02 0.0000E+00 0.0000E+00
       25  1    1    2    0    0 0.46471073E+03 0.27926396E+03 -.65851290E+02 0.56027298E+03 0.12500000E+03 0.0000E+00 0.9000E+01
        2  1    3    3  502    0 -.78261869E+02 -.44131950E+02 0.95521352E+02 0.13113726E+03 0.32000000E+00 0.0000E+00 0.9000E+01
       -1  1    3    3    0  502 -.40936540E+03 -.23360032E+03 0.25995169E+03 0.53826027E+03 0.32000000E+00 0.0000E+00 0.9000E+01
       21  1    1    2  501  503 0.22916536E+02 -.15316934E+01 -.16472695E+03 0.16632211E+03 0.75000000E+00 0.0000E+00 0.9000E+01
#aMCatNLO 2  0  0  2  2 0.27570138D+02 0.00000000D+00  -5  6  0 0.00000000D+00 0.00000000D+00 0.00000000D+00 0.00000000D+00 0.00000000D+00
  <mgrwgt>
 0.4399628418D-02    1    2    0
 0.597428090959696D+03 0.000000000000000D+00 0.000000000000000D+00 0.597428090959696D+03
 0.597428090959696D+03 0.000000000000000D+00 0.000000000000000D+00 -.597428090959696D+03
 0.601114139168128D+03 0.476155548533740D+03 0.278499014570370D+03 -.203537222128302D+03
 0.110354675539831D+03 -.761269100826358D+02 -.442714678032001D+02 0.665047751166926D+02
 0.483387367211433D+03 -.400028638451104D+03 -.234227546767170D+03 0.137032447011610D+03
 0.000000000000000D+00 0.000000000000000D+00 -.000000000000000D+00 -.000000000000000D+00
 0.598165164237482D+03 0.000000000000000D+00 0.000000000000000D+00 0.598165164237482D+03
 0.807967638914560D+03 0.000000000000000D+00 0.000000000000000D+00 -.807967638914560D+03
 0.592449848859008D+03 0.464710729308966D+03 0.279263962384130D+03 -.203537222128302D+03
 0.111778372070847D+03 -.782568943978919D+02 -.441291041001745D+02 0.665047751166926D+02
 0.490848684201977D+03 -.409370370945156D+03 -.233603164878064D+03 0.137032447011610D+03
 0.211055898020209D+03 0.229165360340820D+02 -.153169340589175D+01 -.209802474677078D+03
0.708184099071D-03 0.000000000000D+00 0.000000000000D+00 0.363625046833D-04 0.448409887995D-06  6 2 -1 25 2 -1 21 2 0.11699121D+00 0.97776646D-01 0.32520312D+06 0.32520312D+06 0.32520312D+06 0.10819694D+01  1  2  1  2  6  2       -1 0.439962841844D-02 0.100000000000D+01
  </mgrwgt>
  </event>
  <event>
  7     66 0.20058315E-05 0.55111944E+02 0.75467711E-02 0.94504283E-01
        2 -1    0    0  501    0 0.00000000E+00 0.00000000E+00 0.22823684E+04 0.22823685E+04 0.32000000E+00 0.0000E+00 0.9000E+01
       -1 -1    0    0    0  503 0.00000000E+00 0.00000000E+00 -.11949246E+03 0.11949288E+03 0.32000000E+00 0.0000E+00 0.9000E+01
       24  2    1    2    0    0 0.49056576E+03 0.78129506E+02 0.12844142E+04 0.13794361E+04 0.79782030E+02 0.0000E+00 0.0000E+00
       25  1    1    2    0    0 -.47229074E+03 -.72565414E+02 0.87214536E+03 0.10022908E+04 0.12500000E+03 0.0000E+00 0.9000E+01
        2  1    3    3  502    0 0.19256320E+03 0.46377581E+02 0.61217128E+03 0.64341685E+03 0.32000000E+00 0.0000E+00 0.9000E+01
       -1  1    3    3    0  502 0.29800256E+03 0.31751925E+02 0.67224296E+03 0.73601930E+03 0.32000000E+00 0.0000E+00 0.9000E+01
       21  1    1    2  501  503 -.18275018E+02 -.55640920E+01 0.63163832E+01 0.20134414E+02 0.75000000E+00 0.0000E+00 0.9000E+01
#aMCatNLO 2  0  0  2  2 0.34934805D+02 0.00000000D+00  -5  6  0 0.00000000D+00 0.00000000D+00 0.00000000D+00 0.00000000D+00 0.00000000D+00
  <mgrwgt>
 0.3197004154D-02    1    2    0
 0.505348624807816D+03 0.000000000000000D+00 0.000000000000000D+00 0.505348624807816D+03
 0.505348624807816D+03 0.000000000000000D+00 0.000000000000000D+00 -.505348624807816D+03
 0.509929535489422D+03 -.481428634067053D+03 -.753475776304749D+02 -.833807172553020D+02
 0.206274242034955D+03 0.188798619919099D+03 0.452321535142166D+02 0.697007627806562D+02
 0.294493472091254D+03 0.292630014147954D+03 0.301154241162583D+02 0.136799544746458D+02
 0.000000000000000D+00 -.000000000000000D+00 -.000000000000000D+00 -.000000000000000D+00
 0.508380646765345D+03 0.000000000000000D+00 0.000000000000000D+00 0.508380646765345D+03
 0.536452223470004D+03 0.000000000000000D+00 0.000000000000000D+00 -.536452223470004D+03
 0.500900812660971D+03 -.472290737623062D+03 -.725654137304875D+02 -.833807172553020D+02
 0.209973876924413D+03 0.192561498836433D+03 0.463778160797751D+02 0.697007627806562D+02
 0.300003080373335D+03 0.298004257157844D+03 0.317516896379260D+02 0.136799544746458D+02
 0.339551002766297D+02 -.182750183712155D+02 -.556409198721363D+01 -.280715767046588D+02
0.182931185938D-03 0.000000000000D+00 0.000000000000D+00 0.257392356350D-03 0.447202012632D-05  6 2 -1 25 2 -1 21 2 0.35113079D+00 0.18383340D-01 0.25541616D+06 0.25541616D+06 0.25541616D+06 0.10897595D+01  1  2  1  2  6  2       -1 0.319700415402D-02 0.100000000000D+01
  </mgrwgt>
  </event>
  <event>
  6     66 0.20058315E-05 0.58572331E+02 0.75467711E-02 0.92450445E-01
        2 -1    0    0  501    0 0.00000000E+00 0.00000000E+00 0.15463867E+04 0.15463867E+04 0.32000000E+00 0.0000E+00 0.9000E+01
       -1 -1    0    0    0  501 0.00000000E+00 0.00000000E+00 -.24089421E+03 0.24089442E+03 0.32000000E+00 0.0000E+00 0.9000E+01
       25  1    1    2    0    0 -.15221208E+03 0.57828434E+03 0.69645343E+03 0.92641982E+03 0.12500000E+03 0.0000E+00 0.9000E+01
        2  1    1    2  502    0 0.76288749E+02 -.14980455E+03 0.17461595E+03 0.24238855E+03 0.32000000E+00 0.0000E+00 0.9000E+01
       -1  1    1    2    0  503 0.67207654E+02 -.42150078E+03 0.41111507E+03 0.59261748E+03 0.32000000E+00 0.0000E+00 0.9000E+01
       21  1    1    2  503  502 0.87156725E+01 -.69790159E+01 0.23308033E+02 0.25855300E+02 0.75000000E+00 0.0000E+00 0.9000E+01
#aMCatNLO 2  0  0  5  2 0.24331033D+01 0.00000000D+00  -5  6  0 0.00000000D+00 0.00000000D+00 0.00000000D+00 0.00000000D+00 0.00000000D+00
  <mgrwgt>
 0.1978901583D-02    1    2    0
 0.610340741043857D+03 0.000000000000000D+00 0.000000000000000D+00 0.610340741043857D+03
 0.610340741043857D+03 -.000000000000000D+00 -.000000000000000D+00 -.610340741043857D+03
 0.614067997970340D+03 -.152654256004977D+03 0.580779825868786D+03 0.290857029946106D+02
 0.167507267115574D+03 0.761798286167360D+02 -.149140579010569D+03 -.352220681464859D+01
 0.439106217001800D+03 0.764744273882406D+02 -.431639246858218D+03 -.255634961799620D+02
 0.000000000000000D+00 0.000000000000000D+00 0.000000000000000D+00 0.000000000000000D+00
 0.610340741043857D+03 0.000000000000000D+00 0.000000000000000D+00 0.610340741043857D+03
 0.610340741043857D+03 -.000000000000000D+00 -.000000000000000D+00 -.610340741043857D+03
 0.611587495101607D+03 -.152211476446374D+03 0.578280676261176D+03 0.289376928173333D+02
 0.168172808042987D+03 0.763010961966968D+02 -.149825041106857D+03 -.356274354598420D+01
 0.428025262604684D+03 0.671898854269842D+02 -.421516147753695D+03 -.318634886194536D+02
 0.128959163384353D+02 0.872049482269278D+01 -.693948740062343D+01 0.648853934810444D+01
0.149003000047D-03 0.000000000000D+00 0.000000000000D+00 0.212399093019D-03 0.627098955024D-06  6 2 -1 25 2 -1 21 2 0.23790566D+00 0.37060666D-01 0.37028433D+06 0.37028433D+06 0.37028433D+06 0.10778528D+01  1  2  1  4  6  5       -1 0.197890158304D-02 0.100000000000D+01
  </mgrwgt>
  </event>
  <event>
  7     66 0.20058315E-05 0.40695860E+02 0.75467711E-02 0.91387458E-01
        2 -1    0    0  501    0 0.00000000E+00 0.00000000E+00 0.14174937E+04 0.14174937E+04 0.32000000E+00 0.0000E+00 0.9000E+01
       -1 -1    0    0    0  503 0.00000000E+00 0.00000000E+00 -.46501662E+03 0.46501673E+03 0.32000000E+00 0.0000E+00 0.9000E+01
       24  2    1    2    0    0 -.65590194E+03 0.75875490E+01 0.11966927E+02 0.66114038E+03 0.81844186E+02 0.0000E+00 0.0000E+00
       25  1    1    2    0    0 0.65936793E+03 0.47734156E+01 0.97551425E+03 0.11840785E+04 0.12500000E+03 0.0000E+00 0.9000E+01
        2  1    3    3  502    0 -.49506595E+03 0.38342700E+02 0.22439562E+02 0.49705542E+03 0.32000000E+00 0.0000E+00 0.9000E+01
       -1  1    3    3    0  502 -.16083599E+03 -.30755151E+02 -.10472635E+02 0.16408496E+03 0.32000000E+00 0.0000E+00 0.9000E+01
       21  1    1    2  501  503 -.34659935E+01 -.12360965E+02 -.35004140E+02 0.37291539E+02 0.75000000E+00 0.0000E+00 0.9000E+01
#aMCatNLO 2  0  0  2  2 0.34934805D+02 0.00000000D+00  -5  6  0 0.00000000D+00 0.00000000D+00 0.00000000D+00 0.00000000D+00 0.00000000D+00
  <mgrwgt>
 0.6520720331D-02    1    2    0
 0.779350505852769D+03 0.000000000000000D+00 0.000000000000000D+00 0.779350505852769D+03
 0.779350505852769D+03 0.000000000000000D+00 0.000000000000000D+00 -.779350505852769D+03
 0.782213957260099D+03 0.657626952603159D+03 -.143552783982230D+01 0.404670737022345D+03
 0.575009731603251D+03 -.496348745758911D+03 0.337870711137776D+02 -.288327154197365D+03
 0.201477322842189D+03 -.161278206844248D+03 -.323515432739553D+02 -.116343582824979D+03
 0.000000000000000D+00 -.000000000000000D+00 -.000000000000000D+00 -.000000000000000D+00
 0.780004165053837D+03 0.000000000000000D+00 0.000000000000000D+00 0.780004165053837D+03
 0.845065570717398D+03 0.000000000000000D+00 0.000000000000000D+00 -.845065570717398D+03
 0.783691430195360D+03 0.659367929810570D+03 0.477341562879559D+01 0.404670737022345D+03
 0.574193473440961D+03 -.495071058995270D+03 0.383437562055051D+02 -.288327154197365D+03
 0.200868973808885D+03 -.160830877307248D+03 -.307562071631487D+02 -.116343582824979D+03
 0.663158583260276D+02 -.346599350805173D+01 -.123609646711520D+02 -.650614056635610D+02
0.143101528333D-02 0.000000000000D+00 0.000000000000D+00 0.587109214488D-04 0.218877995520D-05  6 2 -1 25 2 -1 21 2 0.21807537D+00 0.71540835D-01 0.45176242D+06 0.45176242D+06 0.45176242D+06 0.10716383D+01  1  2  1  2  6  2       -1 0.652072033114D-02 0.100000000000D+01
  </mgrwgt>
  </event>
  <event>
  7     66 0.20058315E-05 0.63397394E+02 0.75467711E-02 0.94655786E-01
        2 -1    0    0  503    0 0.00000000E+00 0.00000000E+00 0.25857905E+04 0.25857905E+04 0.32000000E+00 0.0000E+00 0.9000E+01
       -1 -1    0    0    0  501 0.00000000E+00 0.00000000E+00 -.11631502E+03 0.11631546E+03 0.32000000E+00 0.0000E+00 0.9000E+01
       24  2    1    2    0    0 -.34801558E+03 0.33938732E+03 0.92666897E+03 0.10491405E+04 0.75377908E+02 0.0000E+00 0.0000E+00
       25  1    1    2    0    0 0.33568808E+03 -.34430049E+03 0.10673517E+04 0.11773250E+04 0.12500000E+03 0.0000E+00 0.9000E+01
        2  1    3    3  502    0 -.15006443E+03 0.16941732E+03 0.35904122E+03 0.42441991E+03 0.32000000E+00 0.0000E+00 0.9000E+01
       -1  1    3    3    0  502 -.19795115E+03 0.16997000E+03 0.56762775E+03 0.62472060E+03 0.32000000E+00 0.0000E+00 0.9000E+01
       21  1    1    2  503  501 0.12327495E+02 0.49131639E+01 0.47545478E+03 0.47564054E+03 0.75000000E+00 0.0000E+00 0.9000E+01
#aMCatNLO 2  0  0  1  2 0.26368381D+03 0.00000000D+00  -5  6  0 0.00000000D+00 0.00000000D+00 0.00000000D+00 0.00000000D+00 0.00000000D+00
  <mgrwgt>
 0.5223282198D-02    1    2    0
 0.495190308980281D+03 0.000000000000000D+00 0.000000000000000D+00 0.495190308980281D+03
 0.495190308980281D+03 0.000000000000000D+00 0.000000000000000D+00 -.495190308980281D+03
 0.500210182563460D+03 0.341898383839026D+03 -.341825351569682D+03 0.290886729276996D+02
 0.230217119462432D+03 -.147191865272019D+03 0.170561835254154D+03 -.473617698788648D+02
 0.259953315934670D+03 -.194706518567007D+03 0.171263516315529D+03 0.182730969511653D+02
 0.000000000000000D+00 0.000000000000000D+00 0.000000000000000D+00 0.000000000000000D+00
 0.606835406644487D+03 0.000000000000000D+00 0.000000000000000D+00 0.606835406644487D+03
 0.495629262265652D+03 0.000000000000000D+00 0.000000000000000D+00 -.495629262265652D+03
 0.497695153911540D+03 0.335688084335286D+03 -.344300487030795D+03 0.290886729276996D+02
 0.231223778900620D+03 -.150063566702370D+03 0.169417309126274D+03 -.473617698788648D+02
 0.261550589552865D+03 -.197952012229651D+03 0.169970014053941D+03 0.182730969511653D+02
 0.111995146545114D+03 0.123274945967346D+02 0.491316385058024D+01 0.111206144378835D+03
0.425782028712D-03 0.000000000000D+00 0.000000000000D+00 0.893469938641D-05 0.328589402722D-06  6 2 -1 25 2 -1 21 2 0.39781295D+00 0.17894609D-01 0.24867555D+06 0.24867555D+06 0.24867555D+06 0.10906327D+01  1  2  1  1  6  1        2 0.522328219767D-02 0.100000000000D+01
  </mgrwgt>
  </event>
  <event>
  7     66 0.20058315E-05 0.55473920E+02 0.75467711E-02 0.86255078E-01
        2 -1    0    0  501    0 0.00000000E+00 0.00000000E+00 0.20152383E+04 0.20152383E+04 0.32000000E+00 0.0000E+00 0.9000E+01
       -1 -1    0    0    0  503 0.00000000E+00 0.00000000E+00 -.11034289E+04 0.11034289E+04 0.32000000E+00 0.0000E+00 0.9000E+01
       24  2    1    2    0    0 0.47079679E+03 0.99480485E+03 0.11400985E+04 0.15865939E+04 0.78544454E+02 0.0000E+00 0.0000E+00
       25  1    1    2    0    0 -.50343088E+03 -.98881254E+03 0.17254927E+03 0.11298633E+04 0.12500000E+03 0.0000E+00 0.9000E+01
        2  1    3    3  502    0 0.25581787E+03 0.53951860E+03 0.67454895E+03 0.90085487E+03 0.32000000E+00 0.0000E+00 0.9000E+01
       -1  1    3    3    0  502 0.21497892E+03 0.45528624E+03 0.46554959E+03 0.68573903E+03 0.32000000E+00 0.0000E+00 0.9000E+01
       21  1    1    2  501  503 0.32634095E+02 -.59923092E+01 -.40083842E+03 0.40221001E+03 0.75000000E+00 0.0000E+00 0.9000E+01
#aMCatNLO 2  0  0  2  2 0.34934805D+02 0.00000000D+00  -5  6  0 0.00000000D+00 0.00000000D+00 0.00000000D+00 0.00000000D+00 0.00000000D+00
  <mgrwgt>
 0.2276762840D-02    1    2    0
 0.118901163819083D+04 0.000000000000000D+00 0.000000000000000D+00 0.118901163819083D+04
 0.118901163819083D+04 0.000000000000000D+00 0.000000000000000D+00 -.118901163819083D+04
 0.119099979552209D+04 -.487057837244139D+03 -.991818973360155D+03 -.426527021647539D+03
 0.658870378636127D+03 0.264844718375157D+03 0.537862603803858D+03 0.273260444305852D+03
 0.528153102223446D+03 0.222213118868983D+03 0.453956369556297D+03 0.153266577341687D+03
 0.000000000000000D+00 0.000000000000000D+00 -.000000000000000D+00 -.000000000000000D+00
 0.118953196586265D+04 0.000000000000000D+00 0.000000000000000D+00 0.118953196586265D+04
 0.186936672052702D+04 0.000000000000000D+00 0.000000000000000D+00 -.186936672052702D+04
 0.119530045808206D+04 -.503430881330580D+03 -.988812536640986D+03 -.426527021647539D+03
 0.656655334685870D+03 0.255818544712167D+03 0.539519999935619D+03 0.273260444305852D+03
 0.526298944418609D+03 0.214978241438688D+03 0.455284845864691D+03 0.153266577341687D+03
 0.680643949203124D+03 0.326340951797252D+02 -.599230915932354D+01 -.679834754664370D+03
0.101554565930D-01 0.000000000000D+00 0.000000000000D+00 0.671497548273D-04 0.389767804031D-06  6 2 -1 25 2 -1 21 2 0.31003661D+00 0.16975827D+00 0.12660464D+07 0.12660464D+07 0.12660464D+07 0.10411116D+01  1  2  1  2  6  2       -1 0.227676284037D-02 0.100000000000D+01
  </mgrwgt>
  </event>
  <event>
  7     66 0.20058315E-05 0.55586239E+02 0.75467711E-02 0.94304418E-01
        2 -1    0    0  503    0 0.00000000E+00 0.00000000E+00 0.29930460E+04 0.29930460E+04 0.32000000E+00 0.0000E+00 0.9000E+01
       -1 -1    0    0    0  501 0.00000000E+00 0.00000000E+00 -.21676291E+03 0.21676315E+03 0.32000000E+00 0.0000E+00 0.9000E+01
       24  2    1    2    0    0 0.48380230E+03 -.35770655E+02 0.77885089E+03 0.92078834E+03 0.76800100E+02 0.0000E+00 0.0000E+00
       25  1    1    2    0    0 -.48608549E+03 0.67334297E+02 0.29452256E+03 0.58581700E+03 0.12500000E+03 0.0000E+00 0.9000E+01
        2  1    3    3  502    0 0.22575579E+03 0.20479829E+02 0.37770884E+03 0.44051013E+03 0.32000000E+00 0.0000E+00 0.9000E+01
       -1  1    3    3    0  502 0.25804651E+03 -.56250484E+02 0.40114205E+03 0.48027822E+03 0.32000000E+00 0.0000E+00 0.9000E+01
       21  1    1    2  503  501 0.22831954E+01 -.31563642E+02 0.17029096E+04 0.17032038E+04 0.75000000E+00 0.0000E+00 0.9000E+01
#aMCatNLO 2  0  0  1  2 0.26368381D+03 0.00000000D+00  -5  6  0 0.00000000D+00 0.00000000D+00 0.00000000D+00 0.00000000D+00 0.00000000D+00
  <mgrwgt>
 0.1570620552D-01    1    2    0
 0.528376665779743D+03 0.000000000000000D+00 0.000000000000000D+00 0.528376665779743D+03
 0.528376665779743D+03 0.000000000000000D+00 0.000000000000000D+00 -.528376665779743D+03
 0.532978848933206D+03 -.484931164108019D+03 0.513764598260201D+02 -.175053360044165D+03
 0.244258181895724D+03 0.226282868036832D+03 0.131869534005561D+02 0.910177307783581D+02
 0.279516300730555D+03 0.258648296071187D+03 -.645634132265762D+02 0.840356292658065D+02
 0.000000000000000D+00 0.000000000000000D+00 -.000000000000000D+00 0.000000000000000D+00
 0.122649385904611D+04 0.000000000000000D+00 0.000000000000000D+00 0.122649385904611D+04
 0.528972292174384D+03 0.000000000000000D+00 0.000000000000000D+00 -.528972292174384D+03
 0.535800050413009D+03 -.486085494145047D+03 0.673342969191557D+02 -.175053360044165D+03
 0.244272655546755D+03 0.225755232414517D+03 0.204811613266754D+02 0.910177307783581D+02
 0.277154365325860D+03 0.258047066321092D+03 -.562518159365384D+02 0.840356292658065D+02
 0.698239079934867D+03 0.228319540943846D+01 -.315636423092927D+02 0.697521566871722D+03
0.637216918322D-02 0.000000000000D+00 0.000000000000D+00 0.213273365227D-04 0.183677929295D-06  6 2 -1 25 2 -1 21 2 0.46046845D+00 0.33348147D-01 0.26462417D+06 0.26462417D+06 0.26462417D+06 0.10886066D+01  1  2  1  1  6  1        2 0.157062055157D-01 0.100000000000D+01
  </mgrwgt>
  </event>
  <event>
  7     66 0.20058315E-05 0.36818077E+02 0.75467711E-02 0.93419461E-01
        2 -1    0    0  503    0 0.00000000E+00 0.00000000E+00 0.32657108E+03 0.32657124E+03 0.32000000E+00 0.0000E+00 0.9000E+01
       -1 -1    0    0    0  501 0.00000000E+00 0.00000000E+00 -.12773107E+04 0.12773108E+04 0.32000000E+00 0.0000E+00 0.9000E+01
       24  2    1    2    0    0 0.34635519E+03 -.34339731E+03 -.27264398E+03 0.56458913E+03 0.80885808E+02 0.0000E+00 0.0000E+00
       25  1    1    2    0    0 -.40078776E+03 0.37502572E+03 -.75381563E+03 0.94081779E+03 0.12500000E+03 0.0000E+00 0.9000E+01
        2  1    3    3  502    0 0.98796581E+02 -.10584333E+03 -.40544573E+02 0.15035804E+03 0.32000000E+00 0.0000E+00 0.9000E+01
       -1  1    3    3    0  502 0.24755861E+03 -.23755398E+03 -.23209941E+03 0.41423109E+03 0.32000000E+00 0.0000E+00 0.9000E+01
       21  1    1    2  503  501 0.54432571E+02 -.31628415E+02 0.75719984E+02 0.98475072E+02 0.75000000E+00 0.0000E+00 0.9000E+01
#aMCatNLO 2  0  0  1  2 0.19749558D+03 0.00000000D+00  -5  6  0 0.00000000D+00 0.00000000D+00 0.00000000D+00 0.00000000D+00 0.00000000D+00
  <mgrwgt>
 0.2085782150D-02    1    2    0
 0.549697053665119D+03 0.000000000000000D+00 0.000000000000000D+00 0.549697053665119D+03
 0.549697053665119D+03 0.000000000000000D+00 0.000000000000000D+00 -.549697053665119D+03
 0.553827731658728D+03 -.372655331915269D+03 0.358679182679973D+03 -.153549353178055D+03
 0.175964871313329D+03 0.107296286177735D+03 -.110781434020500D+03 0.847267182483993D+02
 0.369601504358181D+03 0.265359045737534D+03 -.247897748659473D+03 0.688226349296556D+02
 0.000000000000000D+00 0.000000000000000D+00 -.000000000000000D+00 0.000000000000000D+00
 0.750851172224512D+03 0.000000000000000D+00 0.000000000000000D+00 0.750851172224512D+03
 0.555545356200062D+03 0.000000000000000D+00 0.000000000000000D+00 -.555545356200062D+03
 0.583504519429173D+03 -.400787760221421D+03 0.375025721237315D+03 -.153549353178055D+03
 0.167753674748930D+03 0.987942522774898D+02 -.105841269472536D+03 0.847267182483993D+02
 0.349936913255684D+03 0.247560937113004D+03 -.237556036749200D+03 0.688226349296556D+02
 0.205201420990786D+03 0.544325708309279D+02 -.316284150155793D+02 0.195305816024450D+03
0.883769248927D-03 0.000000000000D+00 0.000000000000D+00 0.251120434317D-03 0.410868545762D-06  6 2 -1 25 2 -1 21 2 0.50241659D-01 0.19650912D+00 0.31012683D+06 0.31012683D+06 0.31012683D+06 0.10834868D+01  1  2  1  1  6  1        2 0.208578214979D-02 0.100000000000D+01
  </mgrwgt>
  </event>
  <event>
  7     66 0.20058315E-05 0.42982037E+02 0.75467711E-02 0.92902224E-01
        2 -1    0    0  501    0 0.00000000E+00 0.00000000E+00 0.19632014E+04 0.19632014E+04 0.32000000E+00 0.0000E+00 0.9000E+01
       -1 -1    0    0    0  503 0.00000000E+00 0.00000000E+00 -.28396608E+03 0.28396626E+03 0.32000000E+00 0.0000E+00 0.9000E+01
       24  2    1    2    0    0 -.46377604E+03 0.31580129E+03 0.14267695E+04 0.15351264E+04 0.78250137E+02 0.0000E+00 0.0000E+00
       25  1    1    2    0    0 0.47876515E+03 -.31448444E+03 0.30253887E+03 0.65975094E+03 0.12500000E+03 0.0000E+00 0.9000E+01
        2  1    3    3  502    0 -.31048639E+03 0.25285510E+03 0.98300211E+03 0.10614286E+04 0.32000000E+00 0.0000E+00 0.9000E+01
       -1  1    3    3    0  502 -.15328965E+03 0.62946186E+02 0.44376741E+03 0.47369775E+03 0.32000000E+00 0.0000E+00 0.9000E+01
       21  1    1    2  501  503 -.14989113E+02 -.13168474E+01 -.50073072E+02 0.52290368E+02 0.75000000E+00 0.0000E+00 0.9000E+01
#aMCatNLO 2  0  0  2  1 0.97869360D+01 0.00000000D+00  -5  6  0 0.00000000D+00 0.00000000D+00 0.00000000D+00 0.00000000D+00 0.00000000D+00
  <mgrwgt>
 0.9301594346D-02    1    2    0
 0.675787050739955D+03 0.000000000000000D+00 0.000000000000000D+00 0.675787050739955D+03
 0.675787050739955D+03 0.000000000000000D+00 0.000000000000000D+00 -.675787050739955D+03
 0.679302180244930D+03 0.471204340458813D+03 -.315148683631554D+03 -.352809054339015D+03
 0.469170580342874D+03 -.315674124063186D+03 0.252402746332722D+03 0.238251410278953D+03
 0.203101340892106D+03 -.155530216395627D+03 0.627459372988328D+02 0.114557644060062D+03
 0.000000000000000D+00 -.000000000000000D+00 -.000000000000000D+00 -.000000000000000D+00
 0.676209850493662D+03 0.000000000000000D+00 0.000000000000000D+00 0.676209850493662D+03
 0.824420539818482D+03 0.000000000000000D+00 0.000000000000000D+00 -.824420539818482D+03
 0.684262934329359D+03 0.478765153353321D+03 -.314484439055425D+03 -.352809054339015D+03
 0.465944709127449D+03 -.310489016536666D+03 0.252858276657197D+03 0.238251410278953D+03
 0.201450212427892D+03 -.153287024216433D+03 0.629430097907770D+02 0.114557644060062D+03
 0.148972534427443D+03 -.149891126002226D+02 -.131684739254910D+01 -.148210689324820D+03
0.156828847170D-02 0.000000000000D+00 0.000000000000D+00 0.298509933143D-04 0.839566750700D-06  6 2 -1 25 2 -1 21 2 0.30203058D+00 0.43687045D-01 0.34074892D+06 0.34074892D+06 0.34074892D+06 0.10804831D+01  1  2  1  2  6  2       -1 0.930159434551D-02 0.100000000000D+01
  </mgrwgt>
  </event>
  <event>
  7     66 0.20058315E-05 0.46778159E+02 0.75467711E-02 0.95204795E-01
        4 -1    0    0  501    0 0.00000000E+00 0.00000000E+00 0.68505948E+03 0.68506124E+03 0.15500000E+01 0.0000E+00 0.9000E+01
       21 -1    0    0  503  501 0.00000000E+00 0.00000000E+00 -.58957029E+03 0.58957077E+03 0.75000000E+00 0.0000E+00 0.9000E+01
       24  2    1    2    0    0 -.11915579E+03 0.43367057E+03 0.46215930E+03 0.64986013E+03 0.80366048E+02 0.0000E+00 0.0000E+00
       25  1    1    2    0    0 0.12603971E+03 -.44850615E+03 -.32949142E+03 0.58415184E+03 0.12500000E+03 0.0000E+00 0.9000E+01
        4  1    3    3  502    0 -.57285257E+02 0.13272174E+03 0.19476597E+03 0.24255483E+03 0.15500000E+01 0.0000E+00 0.9000E+01
        3  1    1    2  503    0 -.68839247E+01 0.14835574E+02 -.37178685E+02 0.40620035E+02 0.50000000E+00 0.0000E+00 0.9000E+01
       -3  1    3    3    0  502 -.61870533E+02 0.30094883E+03 0.26739333E+03 0.40730530E+03 0.50000000E+00 0.0000E+00 0.9000E+01
#aMCatNLO 2  0  0  2  1 0.62250215D+02 0.00000000D+00  -5  6  0 0.00000000D+00 0.00000000D+00 0.00000000D+00 0.00000000D+00 0.00000000D+00
  <mgrwgt>
 0.6181374144D-04    1    2    0
 0.613375351733516D+03 0.000000000000000D+00 0.000000000000000D+00 0.613375351733516D+03
 0.613375351733516D+03 0.000000000000000D+00 0.000000000000000D+00 -.613375351733516D+03
 0.617111358724377D+03 0.122559894944183D+03 -.441006774699566D+03 -.394580189425425D+03
 0.224719450452721D+03 -.585199544394139D+02 0.135320623385863D+03 0.169595327856175D+03
 0.000000000000000D+00 -.000000000000000D+00 0.000000000000000D+00 -.000000000000000D+00
 0.384919894289933D+03 -.640399405047693D+02 0.305686151313703D+03 0.224984861569250D+03
 0.614973109339338D+03 0.000000000000000D+00 0.000000000000000D+00 0.614973109339338D+03
 0.656760934951757D+03 0.000000000000000D+00 0.000000000000000D+00 -.656760934951757D+03
 0.623187211394167D+03 0.126039714682319D+03 -.448506148097251D+03 -.394580189425425D+03
 0.222774549977689D+03 -.572644515363941D+02 0.132614884071715D+03 0.169595327856175D+03
 0.448743248770879D+02 -.688392471372570D+01 0.148355736086019D+02 -.417878256124190D+02
 0.380897958042152D+03 -.618913384321995D+02 0.301055690416935D+03 0.224984861569250D+03
0.180676489753D-04 0.000000000000D+00 0.000000000000D+00 0.195321149358D-03 0.533159923437D-07  6 4 21 25 4 3 -3 2 0.10539370D+00 0.90703088D-01 0.22586947D+06 0.22586947D+06 0.22586947D+06 0.10937910D+01  1  2  1  6  5  2       -3 0.618137414419D-04 0.100000000000D+01
  </mgrwgt>
  </event>
  <event>
  7     66 0.20058315E-05 0.46408917E+02 0.75467711E-02 0.91192494E-01
        2 -1    0    0  501    0 0.00000000E+00 0.00000000E+00 0.16658564E+04 0.16658564E+04 0.32000000E+00 0.0000E+00 0.9000E+01
       -1 -1    0    0    0  503 0.00000000E+00 0.00000000E+00 -.32196923E+03 0.32196938E+03 0.32000000E+00 0.0000E+00 0.9000E+01
       24  2    1    2    0    0 0.51136353E+03 -.44234602E+03 0.10209815E+04 0.12271967E+04 0.80285826E+02 0.0000E+00 0.0000E+00
       25  1    1    2    0    0 -.49104476E+03 0.43204371E+03 0.31201463E+03 0.73536716E+03 0.12500000E+03 0.0000E+00 0.9000E+01
        2  1    3    3  502    0 0.14858477E+03 -.17770457E+03 0.36169847E+03 0.42951395E+03 0.32000000E+00 0.0000E+00 0.9000E+01
       -1  1    3    3    0  502 0.36277876E+03 -.26464145E+03 0.65928299E+03 0.79768270E+03 0.32000000E+00 0.0000E+00 0.9000E+01
       21  1    1    2  501  503 -.20318771E+02 0.10302314E+02 0.10891063E+02 0.25261985E+02 0.75000000E+00 0.0000E+00 0.9000E+01
#aMCatNLO 2  0  0  2  1 0.26699629D+01 0.00000000D+00  -5  6  0 0.00000000D+00 0.00000000D+00 0.00000000D+00 0.00000000D+00 0.00000000D+00
  <mgrwgt>
 0.2217973801D-01    1    2    0
 0.720114425530472D+03 0.000000000000000D+00 0.000000000000000D+00 0.720114425530472D+03
 0.720114425530472D+03 0.000000000000000D+00 0.000000000000000D+00 -.720114425530472D+03
 0.723301136518885D+03 -.501177175429204D+03 0.437181190428725D+03 -.255408652268553D+03
 0.247148895242913D+03 0.145071278428245D+03 -.175923451802095D+03 0.953301615493407D+02
 0.469778819299146D+03 0.356105897000959D+03 -.261257738626631D+03 0.160078490719212D+03
 0.000000000000000D+00 -.000000000000000D+00 0.000000000000000D+00 -.000000000000000D+00
 0.728099559813012D+03 0.000000000000000D+00 0.000000000000000D+00 0.728099559813012D+03
 0.736638539457856D+03 0.000000000000000D+00 0.000000000000000D+00 -.736638539457856D+03
 0.713193736935575D+03 -.491044763383166D+03 0.432043709715187D+03 -.255408652268553D+03
 0.250484904152803D+03 0.148581371500410D+03 -.177703189477491D+03 0.953301615493407D+02
 0.476730374970905D+03 0.362782162498966D+03 -.264642834404283D+03 0.160078490719212D+03
 0.243290832115849D+02 -.203187706162093D+02 0.103023141665860D+02 -.853897964484365D+01
0.333468275337D-02 0.000000000000D+00 0.000000000000D+00 0.234443983215D-03 0.276082406731D-05  6 2 -1 25 2 -1 21 2 0.25628359D+00 0.49533350D-01 0.46878609D+06 0.46878609D+06 0.46878609D+06 0.10704946D+01  1  2  1  2  6  2       -1 0.221797380100D-01 0.100000000000D+01
  </mgrwgt>
  </event>
  <event>
  7     66 0.20058315E-05 0.51102761E+02 0.75467711E-02 0.94743410E-01
        2 -1    0    0  503    0 0.00000000E+00 0.00000000E+00 0.25376677E+04 0.25376677E+04 0.32000000E+00 0.0000E+00 0.9000E+01
       -1 -1    0    0    0  501 0.00000000E+00 0.00000000E+00 -.10671948E+03 0.10671996E+03 0.32000000E+00 0.0000E+00 0.9000E+01
       24  2    1    2    0    0 -.64609501E+02 0.45807765E+03 0.10889306E+04 0.11849954E+04 0.66593774E+02 0.0000E+00 0.0000E+00
       25  1    1    2    0    0 0.47072094E+02 -.47767913E+03 0.99889263E+03 0.11152599E+04 0.12500000E+03 0.0000E+00 0.9000E+01
        2  1    3    3  502    0 -.65561446E+00 0.24284100E+03 0.56471874E+03 0.61471907E+03 0.32000000E+00 0.0000E+00 0.9000E+01
       -1  1    3    3    0  502 -.63953887E+02 0.21523665E+03 0.52421182E+03 0.57027629E+03 0.32000000E+00 0.0000E+00 0.9000E+01
       21  1    1    2  503  501 0.17537407E+02 0.19601479E+02 0.34312498E+03 0.34413237E+03 0.75000000E+00 0.0000E+00 0.9000E+01
#aMCatNLO 2  0  0  1  2 0.19749558D+03 0.00000000D+00  -5  6  0 0.00000000D+00 0.00000000D+00 0.00000000D+00 0.00000000D+00 0.00000000D+00
  <mgrwgt>
 0.1915228021D-01    1    2    0
 0.482565224964888D+03 0.000000000000000D+00 0.000000000000000D+00 0.482565224964888D+03
 0.482565224964888D+03 0.000000000000000D+00 0.000000000000000D+00 -.482565224964888D+03
 0.488362508303714D+03 0.560231736113036D+02 -.467674549513154D+03 -.318568559792269D+02
 0.248388068008727D+03 0.381295969527277D+01 0.247834509098395D+03 0.161291589187981D+02
 0.228379873617335D+03 -.598361333065763D+02 0.219840040414759D+03 0.157276970604288D+02
 0.000000000000000D+00 0.000000000000000D+00 0.000000000000000D+00 0.000000000000000D+00
 0.558349356841279D+03 0.000000000000000D+00 0.000000000000000D+00 0.558349356841279D+03
 0.485031862048375D+03 0.000000000000000D+00 0.000000000000000D+00 -.485031862048375D+03
 0.497024136842453D+03 0.470720936821060D+02 -.477679130094133D+03 -.318568559792269D+02
 0.243377563957574D+03 -.654153290117615D+00 0.242841637603538D+03 0.161291589187981D+02
 0.225087068690504D+03 -.639553476939848D+02 0.215236013571615D+03 0.157276970604288D+02
 0.778924493991231D+02 0.175374073019965D+02 0.196014789189801D+02 0.733174947929048D+02
0.127301959485D-02 0.000000000000D+00 0.000000000000D+00 0.187078323575D-05 0.173788363378D-07  6 2 -1 25 2 -1 21 2 0.39040900D+00 0.16418359D-01 0.24486825D+06 0.24486825D+06 0.24486825D+06 0.10911374D+01  1  2  1  1  6  1        2 0.191522802051D-01 0.100000000000D+01
  </mgrwgt>
  </event>
  <event>
  7     66 0.20058315E-05 0.71233980E+02 0.75467711E-02 0.92948178E-01
        2 -1    0    0  501    0 0.00000000E+00 0.00000000E+00 0.13960055E+04 0.13960055E+04 0.32000000E+00 0.0000E+00 0.9000E+01
       -1 -1    0    0    0  503 0.00000000E+00 0.00000000E+00 -.29178170E+03 0.29178188E+03 0.32000000E+00 0.0000E+00 0.9000E+01
       24  2    1    2    0    0 -.52119289E+03 0.22728282E+03 0.79829267E+03 0.98339760E+03 0.80623493E+02 0.0000E+00 0.0000E+00
       25  1    1    2    0    0 0.52566754E+03 -.21632286E+03 0.33601530E+03 0.67205151E+03 0.12500000E+03 0.0000E+00 0.9000E+01
        2  1    3    3  502    0 -.27359500E+03 0.11285556E+03 0.48333556E+03 0.56674859E+03 0.32000000E+00 0.0000E+00 0.9000E+01
       -1  1    3    3    0  502 -.24759789E+03 0.11442726E+03 0.31495711E+03 0.41664901E+03 0.32000000E+00 0.0000E+00 0.9000E+01
       21  1    1    2  501  503 -.44746524E+01 -.10959962E+02 -.30084196E+02 0.32338284E+02 0.75000000E+00 0.0000E+00 0.9000E+01
#aMCatNLO 2  0  0  2  1 0.26699629D+01 0.00000000D+00  -5  6  0 0.00000000D+00 0.00000000D+00 0.00000000D+00 0.00000000D+00 0.00000000D+00
  <mgrwgt>
 0.9173530834D-02    1    2    0
 0.602850943325689D+03 0.000000000000000D+00 0.000000000000000D+00 0.602850943325689D+03
 0.602850943325689D+03 0.000000000000000D+00 0.000000000000000D+00 -.602850943325689D+03
 0.606634984981506D+03 0.523416311658232D+03 -.221836900494737D+03 -.170894000106771D+03
 0.323430141578750D+03 -.274795696522897D+03 0.109915616013526D+03 0.130433657506463D+03
 0.275636760091122D+03 -.248620615135335D+03 0.111921284481211D+03 0.404603426003077D+02
 0.000000000000000D+00 -.000000000000000D+00 -.000000000000000D+00 -.000000000000000D+00
 0.603365187637334D+03 0.000000000000000D+00 0.000000000000000D+00 0.603365187637334D+03
 0.675091030387880D+03 0.000000000000000D+00 0.000000000000000D+00 -.675091030387880D+03
 0.606590228396657D+03 0.525667544052072D+03 -.216322858348532D+03 -.170894000106771D+03
 0.323425042535206D+03 -.273595407138417D+03 0.112855537396931D+03 0.130433657506463D+03
 0.275744731208057D+03 -.247597484507247D+03 0.114427283159886D+03 0.404603426003077D+02
 0.726962158852936D+02 -.447465240640762D+01 -.109599622082847D+02 -.717258427505457D+02
0.792395206146D-03 0.000000000000D+00 0.000000000000D+00 0.329964322233D-03 0.147600592161D-04  6 2 -1 25 2 -1 21 2 0.21476940D+00 0.44889365D-01 0.33789549D+06 0.33789549D+06 0.33789549D+06 0.10807503D+01  1  2  1  2  6  2       -1 0.917353083414D-02 0.100000000000D+01
  </mgrwgt>
  </event>
  <event>
  7     66 0.20058315E-05 0.10506930E+02 0.75467711E-02 0.91157964E-01
        2 -1    0    0  501    0 0.00000000E+00 0.00000000E+00 0.25031268E+04 0.25031268E+04 0.32000000E+00 0.0000E+00 0.9000E+01
       -1 -1    0    0    0  503 0.00000000E+00 0.00000000E+00 -.23865860E+03 0.23865881E+03 0.32000000E+00 0.0000E+00 0.9000E+01
       24  2    1    2    0    0 -.64995226E+03 0.13725602E+03 0.10495460E+04 0.12446933E+04 0.80233012E+02 0.0000E+00 0.0000E+00
       25  1    1    2    0    0 0.66122258E+03 -.15168658E+03 0.12665988E+04 0.14422627E+04 0.12500000E+03 0.0000E+00 0.9000E+01
        2  1    3    3  502    0 -.62894806E+03 0.12447458E+03 0.10301492E+04 0.12133743E+04 0.32000000E+00 0.0000E+00 0.9000E+01
       -1  1    3    3    0  502 -.21004201E+02 0.12781441E+02 0.19396772E+02 0.31318986E+02 0.32000000E+00 0.0000E+00 0.9000E+01
       21  1    1    2  501  503 -.11270320E+02 0.14430553E+02 -.51676607E+02 0.54829692E+02 0.75000000E+00 0.0000E+00 0.9000E+01
#aMCatNLO 2  0  0  2  1 0.26699629D+01 0.00000000D+00  -5  6  0 0.00000000D+00 0.00000000D+00 0.00000000D+00 0.00000000D+00 0.00000000D+00
  <mgrwgt>
 0.8569915056D-03    1    2    0
 0.680968093478377D+03 0.000000000000000D+00 0.000000000000000D+00 0.680968093478377D+03
 0.680968093478377D+03 0.000000000000000D+00 0.000000000000000D+00 -.680968093478377D+03
 0.684341109008235D+03 0.655530729303053D+03 -.144398716991397D+03 0.461110284993321D+02
 0.648493310828419D+03 -.634296676796113D+03 0.131312366870860D+03 -.311185202312742D+02
 0.291017671201003D+02 -.212340525069398D+02 0.130863501205374D+02 -.149925082680579D+02
 0.000000000000000D+00 -.000000000000000D+00 0.000000000000000D+00 -.000000000000000D+00
 0.681458117801334D+03 0.000000000000000D+00 0.000000000000000D+00 0.681458117801334D+03
 0.876637578340420D+03 0.000000000000000D+00 0.000000000000000D+00 -.876637578340420D+03
 0.691357605778563D+03 0.661222575989994D+03 -.151686575278625D+03 0.461110284993321D+02
 0.641911635442533D+03 -.628957726458152D+03 0.124476358171805D+03 -.311185202312742D+02
 0.287900226520250D+02 -.209945297187932D+02 0.127796643939911D+02 -.149925082680579D+02
 0.196036432268633D+03 -.112703198130491D+02 0.144305527128289D+02 -.195179460539085D+03
0.222349263769D-03 0.000000000000D+00 0.000000000000D+00 0.663404750034D-04 0.124779041996D-05  6 2 -1 25 2 -1 21 2 0.38509604D+00 0.36716687D-01 0.47187520D+06 0.47187520D+06 0.47187520D+06 0.10702919D+01  1  2  1  2  6  2       -1 0.856991505633D-03 0.100000000000D+01
  </mgrwgt>
  </event>
  <event>
  7     66 0.20058315E-05 0.35480275E+02 0.75467711E-02 0.95032648E-01
        2 -1    0    0  501    0 0.00000000E+00 0.00000000E+00 0.49881247E+03 0.49881257E+03 0.32000000E+00 0.0000E+00 0.9000E+01
       -1 -1    0    0    0  503 0.00000000E+00 0.00000000E+00 -.65007387E+03 0.65007395E+03 0.32000000E+00 0.0000E+00 0.9000E+01
       24  2    1    2    0    0 0.42523041E+03 0.17813466E+03 -.85334231E+02 0.47570923E+03 0.80402024E+02 0.0000E+00 0.0000E+00
       25  1    1    2    0    0 -.42284035E+03 -.19820733E+03 0.11024978E+03 0.49584284E+03 0.12500000E+03 0.0000E+00 0.9000E+01
        2  1    3    3  502    0 0.31852515E+03 0.14007281E+03 -.28958725E+02 0.34916668E+03 0.32000000E+00 0.0000E+00 0.9000E+01
       -1  1    3    3    0  502 0.10670527E+03 0.38061851E+02 -.56375506E+02 0.12654255E+03 0.32000000E+00 0.0000E+00 0.9000E+01
       21  1    1    2  501  503 -.23900626E+01 0.20072678E+02 -.17617695E+03 0.17733444E+03 0.75000000E+00 0.0000E+00 0.9000E+01
#aMCatNLO 2  0  0  2  1 0.26699629D+01 0.00000000D+00  -5  6  0 0.00000000D+00 0.00000000D+00 0.00000000D+00 0.00000000D+00 0.00000000D+00
  <mgrwgt>
 0.2609482375D-02    1    2    0
 0.485511078324176D+03 0.000000000000000D+00 0.000000000000000D+00 0.485511078324176D+03
 0.485511078324176D+03 0.000000000000000D+00 0.000000000000000D+00 -.485511078324176D+03
 0.490228022447106D+03 -.424050490778572D+03 -.188044101664103D+03 0.975659320264659D+02
 0.352215358711459D+03 0.317664349952431D+03 0.147331916216721D+03 -.379252705389242D+02
 0.128578775489787D+03 0.106386140826141D+03 0.407121854473820D+02 -.596406614875416D+02
 0.000000000000000D+00 -.000000000000000D+00 0.000000000000000D+00 -.000000000000000D+00
 0.486179590061402D+03 0.000000000000000D+00 0.000000000000000D+00 0.486179590061402D+03
 0.666963470371897D+03 0.000000000000000D+00 0.000000000000000D+00 -.666963470371897D+03
 0.493177676045959D+03 -.422840350225910D+03 -.198207334068974D+03 0.975659320264659D+02
 0.350027965824985D+03 0.318528503095087D+03 0.140074421041566D+03 -.379252705389242D+02
 0.128026901602762D+03 0.106701909726371D+03 0.380602350502091D+02 -.596406614875416D+02
 0.181910516959592D+03 -.239006259554796D+01 0.200726779771982D+02 -.180783880310494D+03
0.259433249327D-03 0.000000000000D+00 0.000000000000D+00 0.294626822198D-03 0.481838939425D-05  6 2 -1 25 2 -1 21 2 0.76740272D-01 0.10001122D+00 0.23275755D+06 0.23275755D+06 0.23275755D+06 0.10928017D+01  1  2  1  2  6  2       -1 0.260948237468D-02 0.100000000000D+01
  </mgrwgt>
  </event>
  <event>
  7     66 0.20058315E-05 0.59543745E+02 0.75467711E-02 0.94684307E-01
        2 -1    0    0  501    0 0.00000000E+00 0.00000000E+00 0.18078677E+03 0.18078706E+03 0.32000000E+00 0.0000E+00 0.9000E+01
       -1 -1    0    0    0  503 0.00000000E+00 0.00000000E+00 -.20624601E+04 0.20624601E+04 0.32000000E+00 0.0000E+00 0.9000E+01
       24  2    1    2    0    0 0.45974044E+03 0.10459427E+03 -.35849483E+03 0.59790836E+03 0.81698445E+02 0.0000E+00 0.0000E+00
       25  1    1    2    0    0 -.46342801E+03 -.67508235E+02 -.91011968E+03 0.10311478E+04 0.12500000E+03 0.0000E+00 0.9000E+01
        2  1    3    3  502    0 0.22438034E+03 0.32597714E+02 -.12629392E+03 0.25953690E+03 0.32000000E+00 0.0000E+00 0.9000E+01
       -1  1    3    3    0  502 0.23536010E+03 0.71996556E+02 -.23220091E+03 0.33837146E+03 0.32000000E+00 0.0000E+00 0.9000E+01
       21  1    1    2  501  503 0.36875777E+01 -.37086034E+02 -.61305880E+03 0.61419103E+03 0.75000000E+00 0.0000E+00 0.9000E+01
#aMCatNLO 2  0  0  2  1 0.32541159D+03 0.00000000D+00  -5  6  0 0.00000000D+00 0.00000000D+00 0.00000000D+00 0.00000000D+00 0.00000000D+00
  <mgrwgt>
 0.4994241440D-03    1    2    0
 0.510649615984376D+03 0.000000000000000D+00 0.000000000000000D+00 0.510649615984376D+03
 0.510649615984376D+03 0.000000000000000D+00 0.000000000000000D+00 -.510649615984376D+03
 0.515031468024197D+03 -.461571043427135D+03 -.861838156700055D+02 -.170754018521684D+03
 0.256732292761933D+03 0.225307203568526D+03 0.232739177501860D+02 0.120857183979633D+03
 0.249535471182622D+03 0.236263839858609D+03 0.629098979198196D+02 0.498968345420509D+02
 0.000000000000000D+00 0.000000000000000D+00 -.000000000000000D+00 -.000000000000000D+00
 0.512594003127523D+03 0.000000000000000D+00 0.000000000000000D+00 0.512594003127523D+03
 0.727407869264529D+03 0.000000000000000D+00 0.000000000000000D+00 -.727407869264529D+03
 0.513911296132537D+03 -.463428013403890D+03 -.675082353779556D+02 -.170754018521684D+03
 0.256934799564959D+03 0.224380170110762D+03 0.325971098268576D+02 0.120857183979633D+03
 0.251132912601005D+03 0.235360265637201D+03 0.719971600365856D+02 0.498968345420509D+02
 0.218022864093551D+03 0.368757765592656D+01 -.370860344854876D+02 -.214813866137006D+03
0.111661106849D-02 0.000000000000D+00 0.000000000000D+00 0.130861267353D-03 0.634276241690D-06  6 2 -1 25 2 -1 21 2 0.27813338D-01 0.31730118D+00 0.24742906D+06 0.24742906D+06 0.24742906D+06 0.10907970D+01  1  2  1  2  6  2       -1 0.499424143950D-03 0.100000000000D+01
  </mgrwgt>
  </event>
  <event>
  7     66 0.20058315E-05 0.50522339E+02 0.75467711E-02 0.92725603E-01
        2 -1    0    0  501    0 0.00000000E+00 0.00000000E+00 0.36806682E+03 0.36806696E+03 0.32000000E+00 0.0000E+00 0.9000E+01
       -1 -1    0    0    0  503 0.00000000E+00 0.00000000E+00 -.12616396E+04 0.12616397E+04 0.32000000E+00 0.0000E+00 0.9000E+01
       24  2    1    2    0    0 0.50315519E+03 -.26679809E+03 -.28758779E+03 0.64310718E+03 0.80831582E+02 0.0000E+00 0.0000E+00
       25  1    1    2    0    0 -.51808118E+03 0.27518860E+03 -.28309186E+03 0.66325174E+03 0.12500000E+03 0.0000E+00 0.9000E+01
        2  1    3    3  502    0 0.17840942E+03 -.88770485E+02 -.14419947E+03 0.24597502E+03 0.32000000E+00 0.0000E+00 0.9000E+01
       -1  1    3    3    0  502 0.32474577E+03 -.17802761E+03 -.14338832E+03 0.39713216E+03 0.32000000E+00 0.0000E+00 0.9000E+01
       21  1    1    2  501  503 0.14925988E+02 -.83905052E+01 -.32289316E+03 0.32334771E+03 0.75000000E+00 0.0000E+00 0.9000E+01
#aMCatNLO 2  0  0  2  1 0.28264545D+01 0.00000000D+00  -5  6  0 0.00000000D+00 0.00000000D+00 0.00000000D+00 0.00000000D+00 0.00000000D+00
  <mgrwgt>
 0.3158616884D-02    1    2    0
 0.587495782602951D+03 0.000000000000000D+00 0.000000000000000D+00 0.587495782602951D+03
 0.587495782602951D+03 0.000000000000000D+00 0.000000000000000D+00 -.587495782602951D+03
 0.591364429677025D+03 -.510515561513874D+03 0.270935657936463D+03 0.739049375503456D+01
 0.206337289328469D+03 0.181009546549213D+03 -.902320113494373D+02 -.408510116558156D+02
 0.377289846200409D+03 0.329506014964660D+03 -.180703646587025D+03 0.334605179007810D+02
 0.000000000000000D+00 0.000000000000000D+00 -.000000000000000D+00 -.000000000000000D+00
 0.587920496684806D+03 0.000000000000000D+00 0.000000000000000D+00 0.587920496684806D+03
 0.789846140368802D+03 0.000000000000000D+00 0.000000000000000D+00 -.789846140368802D+03
 0.599847053340145D+03 -.518081175066135D+03 0.275188597229254D+03 0.739049375503456D+01
 0.203415483661344D+03 0.178407127770848D+03 -.887690858375335D+02 -.408510116558156D+02
 0.371853782345064D+03 0.324748059497040D+03 -.178029006173288D+03 0.334605179007810D+02
 0.202650317707055D+03 0.149259877982465D+02 -.839050521843251D+01 -.201925643683997D+03
0.148125239407D-02 0.000000000000D+00 0.000000000000D+00 0.165659386251D-03 0.366345383136D-05  6 2 -1 25 2 -1 21 2 0.56625611D-01 0.19409819D+00 0.35196976D+06 0.35196976D+06 0.35196976D+06 0.10794556D+01  1  2  1  2  6  2       -1 0.315861688363D-02 0.100000000000D+01
  </mgrwgt>
  </event>
  <event>
  6     66 0.20058315E-05 0.88609848E+02 0.75467711E-02 0.94750793E-01
        2 -1    0    0  501    0 0.00000000E+00 0.00000000E+00 0.11057106E+04 0.11057107E+04 0.32000000E+00 0.0000E+00 0.9000E+01
       -1 -1    0    0    0  501 0.00000000E+00 0.00000000E+00 -.37599495E+03 0.37599509E+03 0.32000000E+00 0.0000E+00 0.9000E+01
       25  1    1    2    0    0 -.29541812E+03 -.37333657E+03 0.82695926E+03 0.96236099E+03 0.12500000E+03 0.0000E+00 0.9000E+01
        2  1    1    2  503    0 0.14717647E+03 0.20788767E+03 -.45038175E+01 0.25475201E+03 0.32000000E+00 0.0000E+00 0.9000E+01
       -1  1    1    2    0  502 0.14745489E+03 0.17707403E+03 -.99617680E+02 0.25104171E+03 0.32000000E+00 0.0000E+00 0.9000E+01
       21  1    1    2  502  503 0.78675268E+00 -.11625128E+02 0.68778901E+01 0.13551031E+02 0.75000000E+00 0.0000E+00 0.9000E+01
#aMCatNLO 2  0  0  4  5 0.22128525D+01 0.00000000D+00  -5  6  0 0.00000000D+00 0.00000000D+00 0.00000000D+00 0.00000000D+00 0.00000000D+00
  <mgrwgt>
 0.6397811322D-01    1    2    0
 0.644780383913439D+03 0.000000000000000D+00 0.000000000000000D+00 0.644780383913439D+03
 0.644780383913439D+03 -.000000000000000D+00 -.000000000000000D+00 -.644780383913439D+03
 0.647267610317605D+03 -.300446865908844D+03 -.380006845637180D+03 0.410678508569289D+03
 0.302412882609655D+03 0.155654897801834D+03 0.206467288846216D+03 -.156832276636778D+03
 0.339880274899618D+03 0.144791968107009D+03 0.173539556790964D+03 -.253846231932512D+03
 0.000000000000000D+00 0.000000000000000D+00 -.000000000000000D+00 0.000000000000000D+00
 0.644780383913439D+03 0.000000000000000D+00 0.000000000000000D+00 0.644780383913439D+03
 0.644780383913439D+03 -.000000000000000D+00 -.000000000000000D+00 -.644780383913439D+03
 0.637784319253566D+03 -.295406011296980D+03 -.373320441290916D+03 0.405599524765130D+03
 0.295216709517608D+03 0.147145243430244D+03 0.207880501885253D+03 -.149287909256553D+03
 0.344868503048974D+03 0.147478022231252D+03 0.177102453433206D+03 -.256552603459676D+03
 0.116912360067307D+02 0.782745635483532D+00 -.116625140275428D+02 0.240987951099820D+00
0.580301348828D-02 0.000000000000D+00 0.000000000000D+00 0.854126503291D-06 0.245483074671D-07  6 2 -1 25 2 -1 21 2 0.17010934D+00 0.57845391D-01 0.24455045D+06 0.24455045D+06 0.24455045D+06 0.10911799D+01  1  2  1  3  6  4        2 0.639781132249D-01 0.100000000000D+01
  </mgrwgt>
  </event>
  <event>
  7     66 0.20058315E-05 0.42834136E+02 0.75467711E-02 0.92317012E-01
        2 -1    0    0  503    0 0.00000000E+00 0.00000000E+00 0.54468338E+03 0.54468347E+03 0.32000000E+00 0.0000E+00 0.9000E+01
       -1 -1    0    0    0  501 0.00000000E+00 0.00000000E+00 -.11352577E+04 0.11352578E+04 0.32000000E+00 0.0000E+00 0.9000E+01
       24  2    1    2    0    0 0.56868297E+03 0.16711225E+03 -.39942138E+03 0.71928972E+03 0.80705932E+02 0.0000E+00 0.0000E+00
       25  1    1    2    0    0 -.57581804E+03 -.13368171E+03 -.41577774E+03 0.73343939E+03 0.12500000E+03 0.0000E+00 0.9000E+01
        2  1    3    3  502    0 0.20709372E+03 0.43379212E+02 -.10128306E+03 0.23458032E+03 0.32000000E+00 0.0000E+00 0.9000E+01
       -1  1    3    3    0  502 0.36158924E+03 0.12373304E+03 -.29813832E+03 0.48470940E+03 0.32000000E+00 0.0000E+00 0.9000E+01
       21  1    1    2  503  501 0.71350749E+01 -.33430539E+02 0.22462476E+03 0.22721213E+03 0.75000000E+00 0.0000E+00 0.9000E+01
#aMCatNLO 2  0  0  1  1 0.26753451D+02 0.00000000D+00  -5  6  0 0.00000000D+00 0.00000000D+00 0.00000000D+00 0.00000000D+00 0.00000000D+00
  <mgrwgt>
 0.1938839378D-02    1    2    0
 0.600979156879055D+03 0.000000000000000D+00 0.000000000000000D+00 0.600979156879055D+03
 0.600979156879055D+03 0.000000000000000D+00 0.000000000000000D+00 -.600979156879055D+03
 0.604769451634683D+03 -.572230347274441D+03 -.150491434247025D+03 -.508404435090074D+01
 0.214849445086245D+03 0.208366103009694D+03 0.374049895682023D+02 0.366703957685708D+02
 0.382339417037182D+03 0.363864244264746D+03 0.113086444678823D+03 -.315863514176701D+02
 0.000000000000000D+00 0.000000000000000D+00 -.000000000000000D+00 0.000000000000000D+00
 0.102732599933257D+04 0.000000000000000D+00 0.000000000000000D+00 0.102732599933257D+04
 0.601907729070847D+03 0.000000000000000D+00 0.000000000000000D+00 -.601907729070847D+03
 0.604225179178887D+03 -.575818043958291D+03 -.133681711160663D+03 -.508404435090074D+01
 0.214739770236704D+03 0.207091295195043D+03 0.433779488902854D+02 0.366703957685708D+02
 0.383479352098676D+03 0.361591673826108D+03 0.123734301265952D+03 -.315863514176701D+02
 0.426789426889149D+03 0.713507493714020D+01 -.334305389955746D+02 0.425418270261721D+03
0.990516800923D-03 0.000000000000D+00 0.000000000000D+00 0.312191693928D-03 0.189941439187D-05  6 2 -1 25 2 -1 21 2 0.83797408D-01 0.17465495D+00 0.37954786D+06 0.37954786D+06 0.37954786D+06 0.10770746D+01  1  2  1  1  6  1        2 0.193883937767D-02 0.100000000000D+01
  </mgrwgt>
  </event>
  <event>
  7     66 0.20058315E-05 0.14400628E+03 0.75467711E-02 0.95206066E-01
        2 -1    0    0  501    0 0.00000000E+00 0.00000000E+00 0.11376570E+04 0.11376571E+04 0.32000000E+00 0.0000E+00 0.9000E+01
       21 -1    0    0  503  501 0.00000000E+00 0.00000000E+00 -.36268619E+03 0.36268696E+03 0.75000000E+00 0.0000E+00 0.9000E+01
       24  2    1    2    0    0 -.19680579E+03 0.17228710E+03 0.59791238E+02 0.27891182E+03 0.76167249E+02 0.0000E+00 0.0000E+00
       25  1    1    2    0    0 0.33733855E+03 -.31474114E+03 0.85345571E+03 0.97819780E+03 0.12500000E+03 0.0000E+00 0.9000E+01
        2  1    3    3  502    0 -.10316934E+03 0.13861545E+03 0.42004150E+02 0.17782746E+03 0.32000000E+00 0.0000E+00 0.9000E+01
        1  1    1    2  503    0 -.14053276E+03 0.14245404E+03 -.13827609E+03 0.24323443E+03 0.32000000E+00 0.0000E+00 0.9000E+01
       -1  1    3    3    0  502 -.93636455E+02 0.33671648E+02 0.17787088E+02 0.10108436E+03 0.32000000E+00 0.0000E+00 0.9000E+01
#aMCatNLO 2  0  0  2  1 0.78937929D+01 0.00000000D+00  -5  6  0 0.00000000D+00 0.00000000D+00 0.00000000D+00 0.00000000D+00 0.00000000D+00
  <mgrwgt>
 0.6676328034D-02    1    2    0
 0.420196978386775D+03 0.000000000000000D+00 0.000000000000000D+00 0.420196978386775D+03
 0.420196978386775D+03 0.000000000000000D+00 0.000000000000000D+00 -.420196978386775D+03
 0.426041588627381D+03 0.259227786801169D+03 -.235562489777225D+03 0.207840571593386D+03
 0.261109747035770D+03 -.142376679122384D+03 0.178360492848661D+03 -.126864951148647D+03
 0.000000000000000D+00 -.000000000000000D+00 0.000000000000000D+00 -.000000000000000D+00
 0.153242621110398D+03 -.116851107678785D+03 0.572019969285644D+02 -.809756204447384D+02
 0.452833389756408D+03 0.000000000000000D+00 0.000000000000000D+00 0.452833389756408D+03
 0.911180655781881D+03 0.000000000000000D+00 0.000000000000000D+00 -.911180655781881D+03
 0.521231218532418D+03 0.337338549144474D+03 -.314741136862702D+03 0.207840571593386D+03
 0.214367486197520D+03 -.103169505767441D+03 0.138617301908517D+03 -.126864951148647D+03
 0.500124809777464D+03 -.140532757207379D+03 0.142454039021754D+03 -.458347266025472D+03
 0.128290531030887D+03 -.936362861696530D+02 0.336697959324303D+02 -.809756204447384D+02
0.673182194977D-04 0.000000000000D+00 0.000000000000D+00 0.121931052629D-04 0.158314743266D-09  6 2 21 25 2 1 -1 2 0.17502421D+00 0.55797932D-01 0.22581947D+06 0.22581947D+06 0.22581947D+06 0.10937983D+01  1  2  1  6  5  2       -1 0.667632803350D-02 0.100000000000D+01
  </mgrwgt>
  </event>
  <event>
  7     66 0.20058315E-05 0.37307460E+02 0.75467711E-02 0.94127341E-01
        2 -1    0    0  503    0 0.00000000E+00 0.00000000E+00 0.62118630E+03 0.62118638E+03 0.32000000E+00 0.0000E+00 0.9000E+01
       -1 -1    0    0    0  501 0.00000000E+00 0.00000000E+00 -.53823576E+03 0.53823585E+03 0.32000000E+00 0.0000E+00 0.9000E+01
       24  2    1    2    0    0 0.46920591E+03 0.20768416E+02 0.25527810E+03 0.54021402E+03 0.77966484E+02 0.0000E+00 0.0000E+00
       25  1    1    2    0    0 -.48975225E+03 0.39157520E+02 -.89303528E+02 0.51477248E+03 0.12500000E+03 0.0000E+00 0.9000E+01
        2  1    3    3  502    0 0.26601560E+03 -.22972072E+02 0.16280245E+03 0.31272473E+03 0.32000000E+00 0.0000E+00 0.9000E+01
       -1  1    3    3    0  502 0.20319030E+03 0.43740488E+02 0.92475645E+02 0.22748929E+03 0.32000000E+00 0.0000E+00 0.9000E+01
       21  1    1    2  503  501 0.20546346E+02 -.59925936E+02 -.83024028E+02 0.10443573E+03 0.75000000E+00 0.0000E+00 0.9000E+01
#aMCatNLO 2  0  0  1  1 0.26753451D+02 0.00000000D+00  -5  6  0 0.00000000D+00 0.00000000D+00 0.00000000D+00 0.00000000D+00 0.00000000D+00
  <mgrwgt>
 0.9757101486D-03    1    2    0
 0.519960499601358D+03 0.000000000000000D+00 0.000000000000000D+00 0.519960499601358D+03
 0.519960499601358D+03 0.000000000000000D+00 0.000000000000000D+00 -.519960499601358D+03
 0.524550380665085D+03 -.479290018507335D+03 0.864312730899007D+01 -.172436876466274D+03
 0.297852416657241D+03 0.271825804210341D+03 -.399162684069743D+02 0.115036888824508D+03
 0.217518201880390D+03 0.207464214296994D+03 0.312731410979842D+02 0.573999876417663D+02
 0.000000000000000D+00 0.000000000000000D+00 -.000000000000000D+00 -.000000000000000D+00
 0.530058569915350D+03 0.000000000000000D+00 0.000000000000000D+00 0.530058569915350D+03
 0.630766726195927D+03 0.000000000000000D+00 0.000000000000000D+00 -.630766726195927D+03
 0.535490483940058D+03 -.489752254386515D+03 0.391575196895585D+02 -.172436876466274D+03
 0.290733758509970D+03 0.266016662690012D+03 -.229731956457932D+02 0.115036888824508D+03
 0.215624573231410D+03 0.203189245252031D+03 0.437416119257509D+02 0.573999876417663D+02
 0.118976480429839D+03 0.205463464444721D+02 -.599259359695162D+02 -.100708156280577D+03
0.845438721011D-04 0.000000000000D+00 0.000000000000D+00 0.437677361059D-04 0.700353459110D-07  6 2 -1 25 2 -1 21 2 0.95566926D-01 0.82805333D-01 0.27309424D+06 0.27309424D+06 0.27309424D+06 0.10875840D+01  1  2  1  1  6  1        2 0.975710148569D-03 0.100000000000D+01
  </mgrwgt>
  </event>
  <event>
  7     66 0.20058315E-05 0.26694650E+02 0.75467711E-02 0.89514273E-01
        2 -1    0    0  503    0 0.00000000E+00 0.00000000E+00 0.30800174E+04 0.30800174E+04 0.32000000E+00 0.0000E+00 0.9000E+01
       -1 -1    0    0    0  501 0.00000000E+00 0.00000000E+00 -.32258113E+03 0.32258129E+03 0.32000000E+00 0.0000E+00 0.9000E+01
       24  2    1    2    0    0 -.58858950E+03 -.51728709E+03 0.43115924E+03 0.89804181E+03 0.80977045E+02 0.0000E+00 0.0000E+00
       25  1    1    2    0    0 0.54813401E+03 0.54129564E+03 0.16353342E+04 0.18120140E+04 0.12500000E+03 0.0000E+00 0.9000E+01
        2  1    3    3  502    0 -.12167413E+03 -.10189225E+03 0.51704735E+02 0.16691347E+03 0.32000000E+00 0.0000E+00 0.9000E+01
       -1  1    3    3    0  502 -.46691537E+03 -.41539484E+03 0.37945450E+03 0.73112834E+03 0.32000000E+00 0.0000E+00 0.9000E+01
       21  1    1    2  503  501 0.40455484E+02 -.24008554E+02 0.69094288E+03 0.69254291E+03 0.75000000E+00 0.0000E+00 0.9000E+01
#aMCatNLO 2  0  0  1  1 0.42381292D+01 0.00000000D+00  -5  6  0 0.00000000D+00 0.00000000D+00 0.00000000D+00 0.00000000D+00 0.00000000D+00
  <mgrwgt>
 0.3329608548D-02    1    2    0
 0.876326769618150D+03 0.000000000000000D+00 0.000000000000000D+00 0.876326769618150D+03
 0.876326769618150D+03 0.000000000000000D+00 0.000000000000000D+00 -.876326769618150D+03
 0.878913623767951D+03 0.568353749566100D+03 0.529296115399163D+03 0.392025248705262D+03
 0.195707832593029D+03 -.117136657327427D+03 -.104576946295854D+03 -.116808482362593D+03
 0.678032082875319D+03 -.451217092238673D+03 -.424719169103309D+03 -.275216766342669D+03
 0.000000000000000D+00 0.000000000000000D+00 -.000000000000000D+00 0.000000000000000D+00
 0.113055349639764D+04 0.000000000000000D+00 0.000000000000000D+00 0.113055349639764D+04
 0.878821353227455D+03 0.000000000000000D+00 0.000000000000000D+00 -.878821353227455D+03
 0.873361702722808D+03 0.548134013704862D+03 0.541295641198281D+03 0.392025248705262D+03
 0.197049578513098D+03 -.121668736841446D+03 -.101887356015084D+03 -.116808482362593D+03
 0.682873488978317D+03 -.466920760936717D+03 -.415399730957521D+03 -.275216766342669D+03
 0.256090079410875D+03 0.404554840733010D+02 -.240085542256762D+02 0.251732143170188D+03
0.347988604674D-02 0.000000000000D+00 0.000000000000D+00 0.876621641220D-04 0.244787705225D-06  6 2 -1 25 2 -1 21 2 0.47384855D+00 0.49627848D-01 0.64893507D+06 0.64893507D+06 0.64893507D+06 0.10605987D+01  1  2  1  1  6  1        2 0.332960854849D-02 0.100000000000D+01
  </mgrwgt>
  </event>
  <event>
  7     66 0.20058315E-05 0.54825620E+02 0.75467711E-02 0.92230360E-01
        2 -1    0    0  501    0 0.00000000E+00 0.00000000E+00 0.15371716E+04 0.15371716E+04 0.32000000E+00 0.0000E+00 0.9000E+01
       21 -1    0    0  503  501 0.00000000E+00 0.00000000E+00 -.37892491E+03 0.37892565E+03 0.75000000E+00 0.0000E+00 0.9000E+01
       24  2    1    2    0    0 0.24641195E+03 -.51557605E+03 0.17018852E+03 0.60168759E+03 0.80785641E+02 0.0000E+00 0.0000E+00
       25  1    1    2    0    0 -.27857718E+03 0.54617608E+03 0.10593933E+04 0.12303872E+04 0.12500000E+03 0.0000E+00 0.9000E+01
        2  1    3    3  502    0 0.13993893E+03 -.26405969E+03 0.12888945E+03 0.32545817E+03 0.32000000E+00 0.0000E+00 0.9000E+01
        1  1    1    2  503    0 0.32165235E+02 -.30600031E+02 -.71335158E+02 0.84022446E+02 0.32000000E+00 0.0000E+00 0.9000E+01
       -1  1    3    3    0  502 0.10647302E+03 -.25151635E+03 0.41299061E+02 0.27622942E+03 0.32000000E+00 0.0000E+00 0.9000E+01
#aMCatNLO 2  0  0  2  1 0.29388452D+03 0.00000000D+00  -5  6  0 0.00000000D+00 0.00000000D+00 0.00000000D+00 0.00000000D+00 0.00000000D+00
  <mgrwgt>
 0.1581497395D-02    1    2    0
 0.678722280542303D+03 0.000000000000000D+00 0.000000000000000D+00 0.678722280542303D+03
 0.678722280542303D+03 0.000000000000000D+00 0.000000000000000D+00 -.678722280542303D+03
 0.682073680833720D+03 -.262199891621246D+03 0.530595727854039D+03 0.315149006825198D+03
 0.331773949018813D+03 0.147687060264952D+03 -.271430486351392D+03 -.120780696126829D+03
 0.000000000000000D+00 0.000000000000000D+00 -.000000000000000D+00 -.000000000000000D+00
 0.343596931232074D+03 0.114512831356294D+03 -.259165241502647D+03 -.194368310698370D+03
 0.681899112649921D+03 0.000000000000000D+00 0.000000000000000D+00 0.681899112649921D+03
 0.854192500324068D+03 0.000000000000000D+00 0.000000000000000D+00 -.854192500324068D+03
 0.700612197593264D+03 -.278577182711245D+03 0.546176078006186D+03 0.315149006825198D+03
 0.322333141830496D+03 0.139939456562613D+03 -.264059891430708D+03 -.120780696126829D+03
 0.177921262589545D+03 0.321652347705081D+02 -.306000313297585D+02 -.172293387674147D+03
 0.335225010960685D+03 0.106472491378123D+03 -.251516155245719D+03 -.194368310698370D+03
0.316847064092D-04 0.000000000000D+00 0.000000000000D+00 0.254532864330D-03 0.264370195532D-07  6 2 21 25 2 1 -1 2 0.23648795D+00 0.58296188D-01 0.38570246D+06 0.38570246D+06 0.38570246D+06 0.10765690D+01  1  2  1  6  5  2       -1 0.158149739538D-02 0.100000000000D+01
  </mgrwgt>
  </event>
  <event>
  7     66 0.20058315E-05 0.21311323E+02 0.75467711E-02 0.93927852E-01
        2 -1    0    0  501    0 0.00000000E+00 0.00000000E+00 0.52635513E+03 0.52635522E+03 0.32000000E+00 0.0000E+00 0.9000E+01
       -1 -1    0    0    0  503 0.00000000E+00 0.00000000E+00 -.60995795E+03 0.60995804E+03 0.32000000E+00 0.0000E+00 0.9000E+01
       24  2    1    2    0    0 -.10981561E+03 0.50457611E+03 -.86943227E+02 0.52985410E+03 0.80806703E+02 0.0000E+00 0.0000E+00
       25  1    1    2    0    0 0.77707509E+02 -.47895138E+03 0.91364227E+02 0.50931847E+03 0.12500000E+03 0.0000E+00 0.9000E+01
        2  1    3    3  502    0 -.11716045E+03 0.39522116E+03 -.56292972E+02 0.41604727E+03 0.32000000E+00 0.0000E+00 0.9000E+01
       -1  1    3    3    0  502 0.73448449E+01 0.10935496E+03 -.30650255E+02 0.11380683E+03 0.32000000E+00 0.0000E+00 0.9000E+01
       21  1    1    2  501  503 0.32108099E+02 -.25624730E+02 -.88023827E+02 0.97140689E+02 0.75000000E+00 0.0000E+00 0.9000E+01
#aMCatNLO 2  0  0  2  1 0.29388452D+03 0.00000000D+00  -5  6  0 0.00000000D+00 0.00000000D+00 0.00000000D+00 0.00000000D+00 0.00000000D+00
  <mgrwgt>
 0.3455650035D-02    1    2    0
 0.519175436235720D+03 0.000000000000000D+00 0.000000000000000D+00 0.519175436235720D+03
 0.519175436235720D+03 0.000000000000000D+00 0.000000000000000D+00 -.519175436235720D+03
 0.523555110330166D+03 0.936646940017471D+02 -.491686441478757D+03 0.891982170020668D+02
 0.403244523536517D+03 -.104496371257217D+03 0.385117169578413D+03 -.580639290108631D+02
 0.111551238604757D+03 0.108316772554701D+02 0.106569271900345D+03 -.311342879912037D+02
 0.000000000000000D+00 0.000000000000000D+00 -.000000000000000D+00 -.000000000000000D+00
 0.524119232295608D+03 0.000000000000000D+00 0.000000000000000D+00 0.524119232295608D+03
 0.612556888376887D+03 0.000000000000000D+00 0.000000000000000D+00 -.612556888376887D+03
 0.508934382433939D+03 0.777075094949397D+02 -.478951382371072D+03 0.891982170020668D+02
 0.416295273091578D+03 -.117162405959862D+03 0.395225638307928D+03 -.580639290108631D+02
 0.113933513160767D+03 0.734679744544749D+01 0.109350473706020D+03 -.311342879912037D+02
 0.975129519862126D+02 0.321080990194744D+02 -.256247296428761D+02 -.884376560812787D+02
0.323183441525D-03 0.000000000000D+00 0.000000000000D+00 0.187132086531D-03 0.709705999845D-06  6 2 -1 25 2 -1 21 2 0.80977505D-01 0.93839443D-01 0.28300257D+06 0.28300257D+06 0.28300257D+06 0.10864309D+01  1  2  1  2  6  2       -1 0.345565003521D-02 0.100000000000D+01
  </mgrwgt>
  </event>
  <event>
  7     66 0.20058315E-05 0.63891291E+02 0.75467711E-02 0.89524357E-01
        2 -1    0    0  501    0 0.00000000E+00 0.00000000E+00 0.93659438E+03 0.93659444E+03 0.32000000E+00 0.0000E+00 0.9000E+01
       -1 -1    0    0    0  503 0.00000000E+00 0.00000000E+00 -.76181813E+03 0.76181820E+03 0.32000000E+00 0.0000E+00 0.9000E+01
       24  2    1    2    0    0 0.46623504E+03 -.64027912E+03 0.21328172E+03 0.82383178E+03 0.76663203E+02 0.0000E+00 0.0000E+00
       25  1    1    2    0    0 -.47594557E+03 0.63442101E+03 0.31643056E+02 0.80351757E+03 0.12500000E+03 0.0000E+00 0.9000E+01
        2  1    3    3  502    0 0.23895079E+03 -.26745199E+03 0.11002004E+03 0.37514338E+03 0.32000000E+00 0.0000E+00 0.9000E+01
       -1  1    3    3    0  502 0.22728424E+03 -.37282714E+03 0.10326168E+03 0.44868840E+03 0.32000000E+00 0.0000E+00 0.9000E+01
       21  1    1    2  501  503 0.97105325E+01 0.58581169E+01 -.70148527E+02 0.71063283E+02 0.75000000E+00 0.0000E+00 0.9000E+01
#aMCatNLO 2  0  0  2  1 0.29388452D+03 0.00000000D+00  -5  6  0 0.00000000D+00 0.00000000D+00 0.00000000D+00 0.00000000D+00 0.00000000D+00
  <mgrwgt>
 0.1771059870D-02    1    2    0
 0.804386278457542D+03 0.000000000000000D+00 0.000000000000000D+00 0.804386278457542D+03
 0.804386278457542D+03 0.000000000000000D+00 0.000000000000000D+00 -.804386278457542D+03
 0.807415840744962D+03 -.471070438912002D+03 0.637362047145277D+03 -.903194460120766D+02
 0.363192531500697D+03 0.241141753751614D+03 -.266128520717148D+03 0.541763785831413D+02
 0.438164184669425D+03 0.229928685160388D+03 -.371233526428129D+03 0.361430674289353D+02
 0.000000000000000D+00 0.000000000000000D+00 0.000000000000000D+00 -.000000000000000D+00
 0.804797579078887D+03 0.000000000000000D+00 0.000000000000000D+00 0.804797579078887D+03
 0.886572824655064D+03 0.000000000000000D+00 0.000000000000000D+00 -.886572824655064D+03
 0.807958414094216D+03 -.475945568467516D+03 0.634421005668827D+03 -.903194460120766D+02
 0.362715095790440D+03 0.238950995964198D+03 -.267450149085026D+03 0.541763785831413D+02
 0.438139018614940D+03 0.227284040036743D+03 -.372828973464063D+03 0.361430674289353D+02
 0.825578752343543D+02 0.971053246657560D+01 0.585811688026147D+01 -.817752455761765D+02
0.615748862905D-03 0.000000000000D+00 0.000000000000D+00 0.218445153203D-04 0.102378569909D-05  6 2 -1 25 2 -1 21 2 0.14409115D+00 0.11720255D+00 0.64764428D+06 0.64764428D+06 0.64764428D+06 0.10606584D+01  1  2  1  2  6  2       -1 0.177105987036D-02 0.100000000000D+01
  </mgrwgt>
  </event>
  <event>
  7     66 0.20058315E-05 0.40453559E+02 0.75467711E-02 0.90623877E-01
        2 -1    0    0  501    0 0.00000000E+00 0.00000000E+00 0.13493809E+04 0.13493810E+04 0.32000000E+00 0.0000E+00 0.9000E+01
       -1 -1    0    0    0  503 0.00000000E+00 0.00000000E+00 -.44857681E+03 0.44857692E+03 0.32000000E+00 0.0000E+00 0.9000E+01
       24  2    1    2    0    0 -.60760327E+03 -.35510449E+03 0.69728844E+03 0.99392521E+03 0.79970142E+02 0.0000E+00 0.0000E+00
       25  1    1    2    0    0 0.61062782E+03 0.31475114E+03 0.25067410E+03 0.74188754E+03 0.12500000E+03 0.0000E+00 0.9000E+01
        2  1    3    3  502    0 -.40361208E+03 -.19706798E+03 0.46912081E+03 0.64947128E+03 0.32000000E+00 0.0000E+00 0.9000E+01
       -1  1    3    3    0  502 -.20399119E+03 -.15803651E+03 0.22816763E+03 0.34445394E+03 0.32000000E+00 0.0000E+00 0.9000E+01
       21  1    1    2  501  503 -.30245518E+01 0.40353352E+02 -.47158410E+02 0.62145145E+02 0.75000000E+00 0.0000E+00 0.9000E+01
#aMCatNLO 2  0  0  2  2 0.11783915D+03 0.00000000D+00  -5  6  0 0.00000000D+00 0.00000000D+00 0.00000000D+00 0.00000000D+00 0.00000000D+00
  <mgrwgt>
 0.4650248896D-02    1    2    0
 0.726769460627000D+03 0.000000000000000D+00 0.000000000000000D+00 0.726769460627000D+03
 0.726769460627000D+03 0.000000000000000D+00 0.000000000000000D+00 -.726769460627000D+03
 0.729944393292604D+03 0.609117294355493D+03 0.334904511638387D+03 -.184415040331869D+03
 0.465020066109228D+03 -.404587343161396D+03 -.184099401625991D+03 0.136602174063170D+03
 0.258574461852169D+03 -.204529951194096D+03 -.150805110012396D+03 0.478128662686988D+02
 0.000000000000000D+00 -.000000000000000D+00 0.000000000000000D+00 -.000000000000000D+00
 0.731109717534532D+03 0.000000000000000D+00 0.000000000000000D+00 0.731109717534532D+03
 0.827918038322829D+03 0.000000000000000D+00 0.000000000000000D+00 -.827918038322829D+03
 0.722197013066014D+03 0.610627823614252D+03 0.314751139170282D+03 -.184415040331869D+03
 0.469469362177673D+03 -.403615279685176D+03 -.197068602444387D+03 0.136602174063170D+03
 0.262435731381942D+03 -.203987992168931D+03 -.158035888253378D+03 0.478128662686988D+02
 0.104925649231732D+03 -.302455176014480D+01 0.403533515274837D+02 -.968083207882976D+02
0.883399648706D-03 0.000000000000D+00 0.000000000000D+00 0.234918553898D-03 0.877463914534D-06  6 2 -1 25 2 -1 21 2 0.20759670D+00 0.69011702D-01 0.52267186D+06 0.52267186D+06 0.52267186D+06 0.10671519D+01  1  2  1  2  6  2       -1 0.465024889638D-02 0.100000000000D+01
  </mgrwgt>
  </event>
  <event>
  7     66 0.20058315E-05 0.64507409E+02 0.75467711E-02 0.85332034E-01
        2 -1    0    0  503    0 0.00000000E+00 0.00000000E+00 0.11972090E+04 0.11972091E+04 0.32000000E+00 0.0000E+00 0.9000E+01
       -1 -1    0    0    0  501 0.00000000E+00 0.00000000E+00 -.19187275E+04 0.19187275E+04 0.32000000E+00 0.0000E+00 0.9000E+01
       24  2    1    2    0    0 0.11911436E+04 0.32635313E+03 0.43020500E+03 0.13102843E+04 0.80245272E+02 0.0000E+00 0.0000E+00
       25  1    1    2    0    0 -.11805177E+04 -.30604957E+03 -.12224690E+04 0.17312839E+04 0.12500000E+03 0.0000E+00 0.9000E+01
        2  1    3    3  502    0 0.63652856E+03 0.14228882E+03 0.19998431E+03 0.68220858E+03 0.32000000E+00 0.0000E+00 0.9000E+01
       -1  1    3    3    0  502 0.55461503E+03 0.18406431E+03 0.23022068E+03 0.62807576E+03 0.32000000E+00 0.0000E+00 0.9000E+01
       21  1    1    2  503  501 -.10625876E+02 -.20303563E+02 0.70745620E+02 0.74368335E+02 0.75000000E+00 0.0000E+00 0.9000E+01
#aMCatNLO 2  0  0  1  1 0.24809739D+01 0.00000000D+00  -5  6  0 0.00000000D+00 0.00000000D+00 0.00000000D+00 0.00000000D+00 0.00000000D+00
  <mgrwgt>
 0.1340713806D-02    1    2    0
 0.146824128556317D+04 0.000000000000000D+00 0.000000000000000D+00 0.146824128556317D+04
 0.146824128556317D+04 0.000000000000000D+00 0.000000000000000D+00 -.146824128556317D+04
 0.146980535007042D+04 -.118582458404947D+04 -.316189772466054D+03 -.799091265593224D+03
 0.757291710651208D+03 0.633783679699288D+03 0.137040853920917D+03 0.391188939931192D+03
 0.709385510404716D+03 0.552040904350187D+03 0.179148918545137D+03 0.407902325662032D+03
 0.000000000000000D+00 -.000000000000000D+00 -.000000000000000D+00 0.000000000000000D+00
 0.156301097167685D+04 0.000000000000000D+00 0.000000000000000D+00 0.156301097167685D+04
 0.146967196345038D+04 0.000000000000000D+00 0.000000000000000D+00 -.146967196345038D+04
 0.146337289899110D+04 -.118051770511588D+04 -.306049568962567D+03 -.799091265593224D+03
 0.760555696805474D+03 0.636529858672087D+03 0.142288159161837D+03 0.391188939931192D+03
 0.712643391135641D+03 0.554613722835720D+03 0.184064972471990D+03 0.407902325662032D+03
 0.961109481950091D+02 -.106258763919271D+02 -.203035626712604D+02 0.933390082264720D+02
0.240977048867D-01 0.000000000000D+00 0.000000000000D+00 0.181112647460D-03 0.197720780235D-05  6 2 -1 25 2 -1 21 2 0.18418583D+00 0.29518855D+00 0.15443639D+07 0.15443639D+07 0.15443639D+07 0.10355259D+01  1  2  1  1  6  1        2 0.134071380569D-02 0.100000000000D+01
  </mgrwgt>
  </event>
  <event>
  7     66 0.20058315E-05 0.53886209E+02 0.75467711E-02 0.90336844E-01
        2 -1    0    0  503    0 0.00000000E+00 0.00000000E+00 0.19175435E+04 0.19175436E+04 0.32000000E+00 0.0000E+00 0.9000E+01
       -1 -1    0    0    0  501 0.00000000E+00 0.00000000E+00 -.32707223E+03 0.32707239E+03 0.32000000E+00 0.0000E+00 0.9000E+01
       24  2    1    2    0    0 -.36666385E+03 0.57087015E+03 0.62921879E+03 0.92882550E+03 0.80407833E+02 0.0000E+00 0.0000E+00
       25  1    1    2    0    0 0.43491126E+03 -.58316295E+03 0.60947327E+03 0.95724057E+03 0.12500000E+03 0.0000E+00 0.9000E+01
        2  1    3    3  502    0 -.31125185E+03 0.50242088E+03 0.57935567E+03 0.82762162E+03 0.32000000E+00 0.0000E+00 0.9000E+01
       -1  1    3    3    0  502 -.55411996E+02 0.68449274E+02 0.49863125E+02 0.10120388E+03 0.32000000E+00 0.0000E+00 0.9000E+01
       21  1    1    2  503  501 -.68247417E+02 0.12292800E+02 0.35177923E+03 0.35854987E+03 0.75000000E+00 0.0000E+00 0.9000E+01
#aMCatNLO 2  0  0  1  1 0.24809739D+01 0.00000000D+00  -5  6  0 0.00000000D+00 0.00000000D+00 0.00000000D+00 0.00000000D+00 0.00000000D+00
  <mgrwgt>
 0.1942415759D-02    1    2    0
 0.710295427438818D+03 0.000000000000000D+00 0.000000000000000D+00 0.710295427438818D+03
 0.710295427438818D+03 0.000000000000000D+00 0.000000000000000D+00 -.710295427438818D+03
 0.713519290398723D+03 0.400051452117335D+03 -.576883966598573D+03 -.254657124660937D+02
 0.612939155156237D+03 -.340204645480534D+03 0.507642033266985D+03 0.474844519571065D+02
 0.941324093226760D+02 -.598468066368004D+02 0.692419333315885D+02 -.220187394910128D+02
 0.000000000000000D+00 -.000000000000000D+00 0.000000000000000D+00 0.000000000000000D+00
 0.872798878356874D+03 0.000000000000000D+00 0.000000000000000D+00 0.872798878356874D+03
 0.718577932837280D+03 0.000000000000000D+00 0.000000000000000D+00 -.718577932837280D+03
 0.738579948244291D+03 0.434911262596403D+03 -.583162954159416D+03 -.254657124660937D+02
 0.592932253379637D+03 -.311255901727339D+03 0.502427753572679D+03 0.474844519571065D+02
 0.907701894128747D+02 -.554079436600304D+02 0.684424004301643D+02 -.220187394910128D+02
 0.169094420157351D+03 -.682474172090335D+02 0.122928001565732D+02 0.154220945519593D+03
0.420630886102D-03 0.000000000000D+00 0.000000000000D+00 0.177219313962D-03 0.227657961124D-06  6 2 -1 25 2 -1 21 2 0.29500637D+00 0.50318762D-01 0.55247510D+06 0.55247510D+06 0.55247510D+06 0.10654606D+01  1  2  1  1  6  1        2 0.194241575923D-02 0.100000000000D+01
  </mgrwgt>
  </event>
  <event>
  7     66 0.20058315E-05 0.61030877E+02 0.75467711E-02 0.91560290E-01
        2 -1    0    0  501    0 0.00000000E+00 0.00000000E+00 0.17028808E+04 0.17028808E+04 0.32000000E+00 0.0000E+00 0.9000E+01
       -1 -1    0    0    0  503 0.00000000E+00 0.00000000E+00 -.27405318E+03 0.27405337E+03 0.32000000E+00 0.0000E+00 0.9000E+01
       24  2    1    2    0    0 -.27514400E+03 0.58380994E+03 0.48725973E+03 0.81380788E+03 0.91230185E+02 0.0000E+00 0.0000E+00
       25  1    1    2    0    0 0.29193260E+03 -.57330916E+03 0.93581886E+03 0.11424929E+04 0.12500000E+03 0.0000E+00 0.9000E+01
        2  1    3    3  502    0 -.81884814E+02 0.23018102E+03 0.13838725E+03 0.28078382E+03 0.32000000E+00 0.0000E+00 0.9000E+01
       -1  1    3    3    0  502 -.19325919E+03 0.35362893E+03 0.34887248E+03 0.53302406E+03 0.32000000E+00 0.0000E+00 0.9000E+01
       21  1    1    2  501  503 -.16788602E+02 -.10500786E+02 0.57489867E+01 0.20633395E+02 0.75000000E+00 0.0000E+00 0.9000E+01
#aMCatNLO 2  0  0  2  2 0.11783915D+03 0.00000000D+00  -5  6  0 0.00000000D+00 0.00000000D+00 0.00000000D+00 0.00000000D+00 0.00000000D+00
  <mgrwgt>
 0.1191455270D-01    1    2    0
 0.671112480216175D+03 0.000000000000000D+00 0.000000000000000D+00 0.671112480216175D+03
 0.671112480216175D+03 0.000000000000000D+00 0.000000000000000D+00 -.671112480216175D+03
 0.673832611312030D+03 0.283510408490360D+03 -.578576997849933D+03 0.152629924668060D+03
 0.261742212530258D+03 -.851618287911897D+02 0.228128963544977D+03 -.959876280000137D+02
 0.406650136590062D+03 -.198348579699170D+03 0.350448034304955D+03 -.566422966680462D+02
 0.000000000000000D+00 -.000000000000000D+00 -.000000000000000D+00 -.000000000000000D+00
 0.676419530387198D+03 0.000000000000000D+00 0.000000000000000D+00 0.676419530387198D+03
 0.689915083668057D+03 0.000000000000000D+00 0.000000000000000D+00 -.689915083668057D+03
 0.672925649434524D+03 0.291932602497398D+03 -.573309158623682D+03 0.152629924668060D+03
 0.262490236574499D+03 -.818834472732644D+02 0.230179496546747D+03 -.959876280000137D+02
 0.406955138731204D+03 -.193260553381733D+03 0.353630447889444D+03 -.566422966680462D+02
 0.239635893150281D+02 -.167886018424004D+02 -.105007858125089D+02 -.134955532808586D+02
0.139419801495D-02 0.000000000000D+00 0.000000000000D+00 0.154666544938D-05 0.242137235389D-07  6 2 -1 25 2 -1 21 2 0.26197941D+00 0.42161680D-01 0.43724761D+06 0.43724761D+06 0.43724761D+06 0.10726512D+01  1  2  1  2  6  2       -1 0.119145527036D-01 0.100000000000D+01
  </mgrwgt>
  </event>
  <event>
  7     66 0.20058315E-05 0.35706159E+02 0.75467711E-02 0.93938147E-01
        2 -1    0    0  503    0 0.00000000E+00 0.00000000E+00 0.11106770E+04 0.11106770E+04 0.32000000E+00 0.0000E+00 0.9000E+01
       -1 -1    0    0    0  501 0.00000000E+00 0.00000000E+00 -.29713300E+03 0.29713317E+03 0.32000000E+00 0.0000E+00 0.9000E+01
       24  2    1    2    0    0 0.50066135E+03 0.35134774E+02 0.30037005E+03 0.58922256E+03 0.71167561E+02 0.0000E+00 0.0000E+00
       25  1    1    2    0    0 -.48531405E+03 -.81224881E+02 0.27875312E+03 0.57918521E+03 0.12500000E+03 0.0000E+00 0.9000E+01
        2  1    3    3  502    0 0.44874843E+03 0.95918091E+01 0.27130703E+03 0.52447570E+03 0.32000000E+00 0.0000E+00 0.9000E+01
       -1  1    3    3    0  502 0.51912922E+02 0.25542964E+02 0.29063018E+02 0.64746861E+02 0.32000000E+00 0.0000E+00 0.9000E+01
       21  1    1    2  503  501 -.15347301E+02 0.46090108E+02 0.23442081E+03 0.23940241E+03 0.75000000E+00 0.0000E+00 0.9000E+01
#aMCatNLO 2  0  0  1  1 0.24809739D+01 0.00000000D+00  -5  6  0 0.00000000D+00 0.00000000D+00 0.00000000D+00 0.00000000D+00 0.00000000D+00
  <mgrwgt>
 0.1336052222D-02    1    2    0
 0.506811909385980D+03 0.000000000000000D+00 0.000000000000000D+00 0.506811909385980D+03
 0.506811909385980D+03 0.000000000000000D+00 0.000000000000000D+00 -.506811909385980D+03
 0.512021030461807D+03 -.493030062702297D+03 -.580526069452681D+02 -.958059151607928D+01
 0.443206038369562D+03 0.442005498362853D+03 0.298655519110120D+02 0.130683079738240D+02
 0.583967499405910D+02 0.510245643394444D+02 0.281870550342561D+02 -.348771645774475D+01
 0.000000000000000D+00 -.000000000000000D+00 0.000000000000000D+00 0.000000000000000D+00
 0.644966395787653D+03 0.000000000000000D+00 0.000000000000000D+00 0.644966395787653D+03
 0.511681949284138D+03 0.000000000000000D+00 0.000000000000000D+00 -.511681949284138D+03
 0.507783414354354D+03 -.485314049700978D+03 -.812248811781472D+02 -.958059151607928D+01
 0.449049140445280D+03 0.448756452033652D+03 0.959148682500302D+01 0.130683079738240D+02
 0.579546562233117D+02 0.519048987675262D+02 0.255432867071852D+02 -.348771645774475D+01
 0.141861134048846D+03 -.153473011002008D+02 0.460901076459589D+02 0.133284446503515D+03
0.803987330443D-04 0.000000000000D+00 0.000000000000D+00 0.178389255159D-05 0.486663530942D-08  6 2 -1 25 2 -1 21 2 0.17087307D+00 0.45712698D-01 0.28248148D+06 0.28248148D+06 0.28248148D+06 0.10864905D+01  1  2  1  1  6  1        2 0.133605222152D-02 0.100000000000D+01
  </mgrwgt>
  </event>
  <event>
  7     66 0.20058315E-05 0.31690304E+02 0.75467711E-02 0.93903258E-01
        2 -1    0    0  503    0 0.00000000E+00 0.00000000E+00 0.12555012E+04 0.12555012E+04 0.32000000E+00 0.0000E+00 0.9000E+01
       -1 -1    0    0    0  501 0.00000000E+00 0.00000000E+00 -.28845238E+03 0.28845256E+03 0.32000000E+00 0.0000E+00 0.9000E+01
       24  2    1    2    0    0 -.26522176E+03 -.45289408E+03 0.62537036E+03 0.82040235E+03 0.80723592E+02 0.0000E+00 0.0000E+00
       25  1    1    2    0    0 0.23958091E+03 0.40228261E+03 0.12627499E+03 0.50080004E+03 0.12500000E+03 0.0000E+00 0.9000E+01
        2  1    3    3  502    0 -.70009736E+02 -.12917708E+03 0.23379206E+03 0.27612844E+03 0.32000000E+00 0.0000E+00 0.9000E+01
       -1  1    3    3    0  502 -.19521202E+03 -.32371699E+03 0.39157830E+03 0.54427391E+03 0.32000000E+00 0.0000E+00 0.9000E+01
       21  1    1    2  503  501 0.25640851E+02 0.50611468E+02 0.21540343E+03 0.22275137E+03 0.75000000E+00 0.0000E+00 0.9000E+01
#aMCatNLO 2  0  0  1  2 0.61606463D+01 0.00000000D+00  -5  6  0 0.00000000D+00 0.00000000D+00 0.00000000D+00 0.00000000D+00 0.00000000D+00
  <mgrwgt>
 0.1867472153D-01    1    2    0
 0.542537106117727D+03 0.000000000000000D+00 0.000000000000000D+00 0.542537106117727D+03
 0.542537106117727D+03 0.000000000000000D+00 0.000000000000000D+00 -.542537106117727D+03
 0.546734377417673D+03 0.252194890999733D+03 0.427180857307824D+03 -.192893057297760D+03
 0.166584350545961D+03 -.659861172858124D+02 -.121235848252753D+03 0.932633222161743D+02
 0.371755484271821D+03 -.186208773713920D+03 -.305945009055070D+03 0.996297350815853D+02
 0.000000000000000D+00 0.000000000000000D+00 0.000000000000000D+00 0.000000000000000D+00
 0.658114054396288D+03 0.000000000000000D+00 0.000000000000000D+00 0.658114054396288D+03
 0.550286023196828D+03 0.000000000000000D+00 0.000000000000000D+00 -.550286023196828D+03
 0.521596625600221D+03 0.239580906356567D+03 0.402282609111090D+03 -.192893057297760D+03
 0.174026044157203D+03 -.700077681374223D+02 -.129174026702831D+03 0.932633222161743D+02
 0.390933826706695D+03 -.195213989540300D+03 -.323720050412193D+03 0.996297350815853D+02
 0.121843581128998D+03 0.256408513211554D+02 0.506114680039344D+02 0.107828031199460D+03
0.129500470612D-02 0.000000000000D+00 0.000000000000D+00 0.258266776576D-03 0.517277333967D-06  6 2 -1 25 2 -1 21 2 0.19315364D+00 0.44377214D-01 0.28425175D+06 0.28425175D+06 0.28425175D+06 0.10862887D+01  1  2  1  1  6  1        2 0.186747215319D-01 0.100000000000D+01
  </mgrwgt>
  </event>
</LesHouchesEvents>
