<event>
 5    0  0.1856407E+000  0.3344712E+03  0.7546771E-02  0.1069175E+00
         21   -1    0    0  502  501  0.00000000000E+00  0.00000000000E+00  0.11015693527E+04  0.11015693527E+04  0.00000000000E+00 0.  1.
         21   -1    0    0  503  502 -0.00000000000E+00 -0.00000000000E+00 -0.22424649005E+03  0.22424649005E+03  0.00000000000E+00 0.  1.
         25    1    1    2    0    0 -0.30367712994E+03  0.63452483225E+02  0.94108552236E+03  0.99875571452E+03  0.12500000000E+03 0.  0.
         21    1    1    2  503  504  0.23451880846E+03 -0.67095813775E+02 -0.19146448459E+02  0.24467837304E+03  0.00000000000E+00 0.  1.
         21    1    1    2  504  501  0.69158321484E+02  0.36433305502E+01 -0.44616211225E+02  0.82381755214E+02  0.00000000000E+00 0.  1.
<mgrwt>
<rscale>  4 0.33447125E+03</rscale>
<asrwt>0</asrwt>
<pdfrwt beam="1">  1       21 0.16947220E+00 0.33447125E+03</pdfrwt>
<pdfrwt beam="2">  1       21 0.34499461E-01 0.33447125E+03</pdfrwt>
<totfact> 0.15631800E+03</totfact>
</mgrwt>
</event>
<event>
 5    0  0.1897555E+000  0.2548591E+03  0.7546771E-02  0.1110272E+00
         21   -1    0    0  502  501  0.00000000000E+00  0.00000000000E+00  0.15753559279E+02  0.15753559279E+02  0.00000000000E+00 0.  1.
         21   -1    0    0  503  502 -0.00000000000E+00 -0.00000000000E+00 -0.37859785063E+04  0.37859785063E+04  0.00000000000E+00 0.  1.
         25    1    1    2    0    0  0.17111817775E+03  0.14158643118E+03 -0.21829330465E+04  0.21977601857E+04  0.12500000000E+03 0.  0.
         21    1    1    2  503  504 -0.14127322081E+03 -0.12621405983E+03 -0.14634432022E+04  0.14756537933E+04  0.00000000000E+00 0.  1.
         21    1    1    2  504  501 -0.29844956943E+02 -0.15372371344E+02 -0.12384869839E+03  0.12831808660E+03  0.00000000000E+00 0. -1.
<mgrwt>
<rscale>  4 0.25485908E+03</rscale>
<asrwt>0</asrwt>
<pdfrwt beam="1">  1       21 0.24236217E-02 0.25485908E+03</pdfrwt>
<pdfrwt beam="2">  1       21 0.58245891E+00 0.25485908E+03</pdfrwt>
<totfact> 0.38470183E+02</totfact>
</mgrwt>
</event>
<event>
 5    0  0.1856407E+000  0.2445437E+03  0.7546771E-02  0.1116802E+00
         21   -1    0    0  502  501  0.00000000000E+00  0.00000000000E+00  0.15969931667E+04  0.15969931667E+04  0.00000000000E+00 0.  1.
         21   -1    0    0  503  502 -0.00000000000E+00 -0.00000000000E+00 -0.13163857190E+03  0.13163857190E+03  0.00000000000E+00 0. -1.
         25    1    1    2    0    0 -0.14984031429E+01 -0.21017701598E+03  0.14881755541E+04  0.15081339805E+04  0.12500000000E+03 0.  0.
         21    1    1    2  503  504  0.18527641887E+02  0.17192265457E+03 -0.35947273440E+02  0.17661505920E+03  0.00000000000E+00 0. -1.
         21    1    1    2  504  501 -0.17029238744E+02  0.38254361406E+02  0.13126314110E+02  0.43882698879E+02  0.00000000000E+00 0.  1.
<mgrwt>
<rscale>  4 0.24454370E+03</rscale>
<asrwt>0</asrwt>
<pdfrwt beam="1">  1       21 0.24569124E+00 0.24454370E+03</pdfrwt>
<pdfrwt beam="2">  1       21 0.20252089E-01 0.24454370E+03</pdfrwt>
<totfact> 0.15051670E+03</totfact>
</mgrwt>
</event>
<event>
 5    0  0.1856407E+000  0.5053408E+03  0.7546771E-02  0.1012394E+00
         21   -1    0    0  502  501  0.00000000000E+00  0.00000000000E+00  0.67093853883E+03  0.67093853883E+03  0.00000000000E+00 0.  1.
         21   -1    0    0  503  502 -0.00000000000E+00 -0.00000000000E+00 -0.37688065412E+03  0.37688065412E+03  0.00000000000E+00 0.  1.
         25    1    1    2    0    0  0.48009549337E+03 -0.96190752029E+02  0.16889402695E+03  0.53281754463E+03  0.12500000000E+03 0.  0.
         21    1    1    2  503  504 -0.31717760195E+03  0.62581694790E+02  0.33378200361E+02  0.32501108283E+03  0.00000000000E+00 0.  1.
         21    1    1    2  504  501 -0.16291789142E+03  0.33609057239E+02  0.91785657400E+02  0.18999056549E+03  0.00000000000E+00 0.  1.
<mgrwt>
<rscale>  4 0.50534082E+03</rscale>
<asrwt>0</asrwt>
<pdfrwt beam="1">  1       21 0.10322131E+00 0.50534082E+03</pdfrwt>
<pdfrwt beam="2">  1       21 0.57981639E-01 0.50534082E+03</pdfrwt>
<totfact> 0.17903706E+03</totfact>
</mgrwt>
</event>
<event>
 5    0  0.1856407E+000  0.2454406E+03  0.7546771E-02  0.1116221E+00
         21   -1    0    0  502  501  0.00000000000E+00  0.00000000000E+00  0.99043725802E+03  0.99043725802E+03  0.00000000000E+00 0.  1.
         21   -1    0    0  503  502 -0.00000000000E+00 -0.00000000000E+00 -0.31986230407E+03  0.31986230407E+03  0.00000000000E+00 0.  1.
         25    1    1    2    0    0 -0.17077779859E+03  0.13888306280E+03  0.92058161003E+03  0.95475078547E+03  0.12500000000E+03 0.  0.
         21    1    1    2  503  504  0.52401110687E+02 -0.49270130342E+02 -0.17500527755E+03  0.18920959097E+03  0.00000000000E+00 0.  1.
         21    1    1    2  504  501  0.11837668790E+03 -0.89612932457E+02 -0.75001378530E+02  0.16633918565E+03  0.00000000000E+00 0.  1.
<mgrwt>
<rscale>  4 0.24544063E+03</rscale>
<asrwt>0</asrwt>
<pdfrwt beam="1">  1       21 0.15237496E+00 0.24544063E+03</pdfrwt>
<pdfrwt beam="2">  1       21 0.49209586E-01 0.24544063E+03</pdfrwt>
<totfact> 0.10750336E+03</totfact>
</mgrwt>
</event>
