<event>
 5    0  0.3372079E-003  0.6415904E+03  0.7546771E-02  0.9822689E-01
         21   -1    0    0  503  502  0.00000000000E+00  0.00000000000E+00  0.87187461021E+02  0.87187461021E+02  0.00000000000E+00 0. -1.
         21   -1    0    0  501  503 -0.00000000000E+00 -0.00000000000E+00 -0.11803250649E+04  0.11803250649E+04  0.00000000000E+00 0. -1.
         25    1    1    2    0    0  0.21237880648E+03  0.14570328594E+03 -0.30543006235E+03  0.41862480572E+03  0.12500000000E+03 0.  0.
          2    1    1    2  501    0 -0.20500074836E+03 -0.47660237986E+02 -0.44338116709E+03  0.49079900616E+03  0.00000000000E+00 0. -1.
         -2    1    1    2    0  502 -0.73780581127E+01 -0.98043047955E+02 -0.34432637441E+03  0.35808871402E+03  0.00000000000E+00 0.  1.
<mgrwt>
<rscale>  4 0.64159035E+03</rscale>
<asrwt>0</asrwt>
<pdfrwt beam="1">  1       21 0.13413457E-01 0.64159035E+03</pdfrwt>
<pdfrwt beam="2">  1       21 0.18158845E+00 0.64159035E+03</pdfrwt>
<totfact> 0.70206816E+03</totfact>
</mgrwt>
</event>
<event>
 5    0  0.3372079E-003  0.5152559E+03  0.7546771E-02  0.1009872E+00
         21   -1    0    0  501  502  0.00000000000E+00  0.00000000000E+00  0.90351778671E+02  0.90351778671E+02  0.00000000000E+00 0.  1.
         21   -1    0    0  502  503 -0.00000000000E+00 -0.00000000000E+00 -0.73459718264E+03  0.73459718264E+03  0.00000000000E+00 0.  1.
         25    1    1    2    0    0  0.22538647924E+03  0.27097311395E+01 -0.22681900759E+03  0.34333404997E+03  0.12500000000E+03 0.  0.
          4    1    1    2  501    0 -0.53137312631E+02  0.20047890042E+02 -0.52073282615E+02  0.77052700479E+02  0.00000000000E+00 0. -1.
         -4    1    1    2    0  503 -0.17224916661E+03 -0.22757621181E+02 -0.36535311376E+03  0.40456221085E+03  0.00000000000E+00 0.  1.
<mgrwt>
<rscale>  4 0.51525591E+03</rscale>
<asrwt>0</asrwt>
<pdfrwt beam="1">  1       21 0.13900273E-01 0.51525591E+03</pdfrwt>
<pdfrwt beam="2">  1       21 0.11301495E+00 0.51525591E+03</pdfrwt>
<totfact> 0.24497278E+04</totfact>
</mgrwt>
</event>
<event>
 5    0  0.3372079E-003  0.5274629E+03  0.7546771E-02  0.1006849E+00
         21   -1    0    0  503  502  0.00000000000E+00  0.00000000000E+00  0.72887621751E+02  0.72887621751E+02  0.00000000000E+00 0. -1.
         21   -1    0    0  501  503 -0.00000000000E+00 -0.00000000000E+00 -0.95426748758E+03  0.95426748758E+03  0.00000000000E+00 0. -1.
         25    1    1    2    0    0  0.21375305525E+03 -0.13982501240E+02 -0.33919896637E+03  0.42019854564E+03  0.12500000000E+03 0.  0.
          3    1    1    2  501    0 -0.59361132804E+02  0.75811662589E+02 -0.12455119274E+03  0.15742983163E+03  0.00000000000E+00 0.  1.
         -3    1    1    2    0  502 -0.15439192245E+03 -0.61829161348E+02 -0.41762970671E+03  0.44952673206E+03  0.00000000000E+00 0. -1.
<mgrwt>
<rscale>  4 0.52746294E+03</rscale>
<asrwt>0</asrwt>
<pdfrwt beam="1">  1       21 0.11213481E-01 0.52746294E+03</pdfrwt>
<pdfrwt beam="2">  1       21 0.14681037E+00 0.52746294E+03</pdfrwt>
<totfact> 0.18323677E+04</totfact>
</mgrwt>
</event>
<event>
 5    0  0.3372079E-003  0.4571953E+03  0.7546771E-02  0.1025598E+00
         21   -1    0    0  501  502  0.00000000000E+00  0.00000000000E+00  0.12677229838E+03  0.12677229838E+03  0.00000000000E+00 0.  1.
         21   -1    0    0  502  503 -0.00000000000E+00 -0.00000000000E+00 -0.41221069281E+03  0.41221069281E+03  0.00000000000E+00 0.  1.
         25    1    1    2    0    0 -0.11129908156E+03  0.17515828782E+03 -0.12352927666E+03  0.27194189369E+03  0.12500000000E+03 0.  0.
          3    1    1    2  501    0  0.49360631369E+02 -0.11842729624E+03 -0.94635014536E+02  0.15942798499E+03  0.00000000000E+00 0.  1.
         -3    1    1    2    0  503  0.61938450189E+02 -0.56730991588E+02 -0.67274103235E+02  0.10761311251E+03  0.00000000000E+00 0. -1.
<mgrwt>
<rscale>  4 0.45719535E+03</rscale>
<asrwt>0</asrwt>
<pdfrwt beam="1">  1       21 0.19503430E-01 0.45719535E+03</pdfrwt>
<pdfrwt beam="2">  1       21 0.63417030E-01 0.45719535E+03</pdfrwt>
<totfact> 0.51132377E+04</totfact>
</mgrwt>
</event>
<event>
 5    0  0.3372079E-003  0.6521703E+03  0.7546771E-02  0.9802715E-01
         21   -1    0    0  501  502  0.00000000000E+00  0.00000000000E+00  0.12100707885E+04  0.12100707885E+04  0.00000000000E+00 0.  1.
         21   -1    0    0  502  503 -0.00000000000E+00 -0.00000000000E+00 -0.87872163883E+02  0.87872163883E+02  0.00000000000E+00 0.  1.
         25    1    1    2    0    0 -0.24931482836E+03  0.31309278354E+02  0.56424356561E+03  0.63018565192E+03  0.12500000000E+03 0.  0.
          2    1    1    2  501    0  0.73173649167E+02 -0.99489727717E+02  0.40891951539E+03  0.42716245027E+03  0.00000000000E+00 0. -1.
         -2    1    1    2    0  503  0.17614117920E+03  0.68180449363E+02  0.14903554365E+03  0.24059485023E+03  0.00000000000E+00 0.  1.
<mgrwt>
<rscale>  4 0.65217034E+03</rscale>
<asrwt>0</asrwt>
<pdfrwt beam="1">  1       21 0.18616473E+00 0.65217034E+03</pdfrwt>
<pdfrwt beam="2">  1       21 0.13518795E-01 0.65217034E+03</pdfrwt>
<totfact> 0.64069888E+03</totfact>
</mgrwt>
</event>
<event>
 5    0  0.3372079E-003  0.5853116E+03  0.7546771E-02  0.9936357E-01
         21   -1    0    0  503  502  0.00000000000E+00  0.00000000000E+00  0.46249822857E+02  0.46249822857E+02  0.00000000000E+00 0.  1.
         21   -1    0    0  501  503 -0.00000000000E+00 -0.00000000000E+00 -0.18518430024E+04  0.18518430024E+04  0.00000000000E+00 0.  1.
         25    1    1    2    0    0 -0.99701387184E-02  0.23133304714E+03 -0.60496033386E+03  0.65963397755E+03  0.12500000000E+03 0.  0.
          2    1    1    2  501    0 -0.46113431446E+02 -0.24468225744E+03 -0.89144218434E+03  0.92556200424E+03  0.00000000000E+00 0. -1.
         -2    1    1    2    0  502  0.46123401585E+02  0.13349210305E+02 -0.30919066131E+03  0.31289684343E+03  0.00000000000E+00 0.  1.
<mgrwt>
<rscale>  4 0.58531158E+03</rscale>
<asrwt>0</asrwt>
<pdfrwt beam="1">  1       21 0.71153590E-02 0.58531158E+03</pdfrwt>
<pdfrwt beam="2">  1       21 0.28489886E+00 0.58531158E+03</pdfrwt>
<totfact> 0.48611205E+03</totfact>
</mgrwt>
</event>
<event>
 5    0  0.3372079E-003  0.5241011E+03  0.7546771E-02  0.1007673E+00
         21   -1    0    0  501  502  0.00000000000E+00  0.00000000000E+00  0.11518868682E+03  0.11518868682E+03  0.00000000000E+00 0. -1.
         21   -1    0    0  502  503 -0.00000000000E+00 -0.00000000000E+00 -0.59615651731E+03  0.59615651731E+03  0.00000000000E+00 0. -1.
         25    1    1    2    0    0 -0.52075219957E+02 -0.20104225012E+03 -0.22195309455E+03  0.32866090587E+03  0.12500000000E+03 0.  0.
          1    1    1    2  501    0 -0.34293364896E+02  0.17524134141E+03 -0.11372828151E+03  0.21170660035E+03  0.00000000000E+00 0. -1.
         -1    1    1    2    0  503  0.86368584853E+02  0.25800908704E+02 -0.14528645443E+03  0.17097769791E+03  0.00000000000E+00 0.  1.
<mgrwt>
<rscale>  4 0.52410108E+03</rscale>
<asrwt>0</asrwt>
<pdfrwt beam="1">  1       21 0.17721336E-01 0.52410108E+03</pdfrwt>
<pdfrwt beam="2">  1       21 0.91716389E-01 0.52410108E+03</pdfrwt>
<totfact> 0.25902937E+04</totfact>
</mgrwt>
</event>
<event>
 5    0  0.3372079E-003  0.4961885E+03  0.7546771E-02  0.1014779E+00
         21   -1    0    0  503  502  0.00000000000E+00  0.00000000000E+00  0.17995811915E+04  0.17995811915E+04  0.00000000000E+00 0.  1.
         21   -1    0    0  501  503 -0.00000000000E+00 -0.00000000000E+00 -0.34202827478E+02  0.34202827478E+02  0.00000000000E+00 0.  1.
         25    1    1    2    0    0  0.15850653460E+02  0.21218110184E+03  0.11203634409E+04  0.11472189429E+04  0.12500000000E+03 0.  0.
          1    1    1    2  501    0  0.41606944850E+02 -0.11398917317E+03  0.32264299960E+03  0.34470737539E+03  0.00000000000E+00 0. -1.
         -1    1    1    2    0  502 -0.57457598310E+02 -0.98191928670E+02  0.32237192356E+03  0.34185770074E+03  0.00000000000E+00 0.  1.
<mgrwt>
<rscale>  4 0.49618853E+03</rscale>
<asrwt>0</asrwt>
<pdfrwt beam="1">  1       21 0.27685857E+00 0.49618853E+03</pdfrwt>
<pdfrwt beam="2">  1       21 0.52619749E-02 0.49618853E+03</pdfrwt>
<totfact> 0.95252402E+03</totfact>
</mgrwt>
</event>
<event>
 5    0  0.3372079E-003  0.7160599E+03  0.7546771E-02  0.9690155E-01
         21   -1    0    0  501  502  0.00000000000E+00  0.00000000000E+00  0.40831112615E+03  0.40831112615E+03  0.00000000000E+00 0.  1.
         21   -1    0    0  502  503 -0.00000000000E+00 -0.00000000000E+00 -0.31394063842E+03  0.31394063842E+03  0.00000000000E+00 0.  1.
         25    1    1    2    0    0 -0.10418593306E+02 -0.28667832532E+03  0.19641403570E+03  0.36945430396E+03  0.12500000000E+03 0.  0.
          3    1    1    2  501    0 -0.64726749905E+02  0.32042275815E+02 -0.21427447003E+02  0.75335218044E+02  0.00000000000E+00 0. -1.
         -3    1    1    2    0  503  0.75145343211E+02  0.25463604951E+03 -0.80616100962E+02  0.27746224256E+03  0.00000000000E+00 0.  1.
<mgrwt>
<rscale>  4 0.71605993E+03</rscale>
<asrwt>0</asrwt>
<pdfrwt beam="1">  1       21 0.62817097E-01 0.71605993E+03</pdfrwt>
<pdfrwt beam="2">  1       21 0.48298559E-01 0.71605993E+03</pdfrwt>
<totfact> 0.80340816E+03</totfact>
</mgrwt>
</event>
<event>
 5    0  0.3372079E-003  0.4516921E+03  0.7546771E-02  0.1027219E+00
         21   -1    0    0  501  502  0.00000000000E+00  0.00000000000E+00  0.43033512323E+03  0.43033512323E+03  0.00000000000E+00 0.  1.
         21   -1    0    0  502  503 -0.00000000000E+00 -0.00000000000E+00 -0.11852726635E+03  0.11852726635E+03  0.00000000000E+00 0.  1.
         25    1    1    2    0    0 -0.17224361947E+03 -0.11034063934E+03  0.17347652852E+03  0.29590881549E+03  0.12500000000E+03 0.  0.
          2    1    1    2  501    0  0.55714632124E+02  0.55685879729E+02  0.28554917629E+02  0.83787951131E+02  0.00000000000E+00 0.  1.
         -2    1    1    2    0  503  0.11652898734E+03  0.54654759612E+02  0.10977641073E+03  0.16916562296E+03  0.00000000000E+00 0. -1.
<mgrwt>
<rscale>  4 0.45169213E+03</rscale>
<asrwt>0</asrwt>
<pdfrwt beam="1">  1       21 0.66205403E-01 0.45169213E+03</pdfrwt>
<pdfrwt beam="2">  1       21 0.18234964E-01 0.45169213E+03</pdfrwt>
<totfact> 0.52842419E+04</totfact>
</mgrwt>
</event>
<event>
 5    0  0.3372079E-003  0.5611927E+03  0.7546771E-02  0.9989360E-01
         21   -1    0    0  503  502  0.00000000000E+00  0.00000000000E+00  0.22296571891E+03  0.22296571891E+03  0.00000000000E+00 0. -1.
         21   -1    0    0  501  503 -0.00000000000E+00 -0.00000000000E+00 -0.35312295086E+03  0.35312295086E+03  0.00000000000E+00 0. -1.
         25    1    1    2    0    0  0.20354370292E+03 -0.24498969925E+02 -0.14643318125E+03  0.28124351565E+03  0.12500000000E+03 0.  0.
          2    1    1    2  501    0 -0.21085013271E+03 -0.50002240009E+02 -0.58763963092E+01  0.21677761532E+03  0.00000000000E+00 0. -1.
         -2    1    1    2    0  502  0.73064297879E+01  0.74501209934E+02  0.22152345606E+02  0.78067538797E+02  0.00000000000E+00 0.  1.
<mgrwt>
<rscale>  4 0.56119270E+03</rscale>
<asrwt>0</asrwt>
<pdfrwt beam="1">  1       21 0.34302418E-01 0.56119270E+03</pdfrwt>
<pdfrwt beam="2">  1       21 0.54326608E-01 0.56119270E+03</pdfrwt>
<totfact> 0.23214905E+04</totfact>
</mgrwt>
</event>
<event>
 5    0  0.3372079E-003  0.5077043E+03  0.7546771E-02  0.1011787E+00
         21   -1    0    0  501  502  0.00000000000E+00  0.00000000000E+00  0.23268929034E+03  0.23268929034E+03  0.00000000000E+00 0. -1.
         21   -1    0    0  502  503 -0.00000000000E+00 -0.00000000000E+00 -0.27693971428E+03  0.27693971428E+03  0.00000000000E+00 0. -1.
         25    1    1    2    0    0  0.17233378454E+03  0.12625840011E+03  0.77117077474E+02  0.25925308201E+03  0.12500000000E+03 0.  0.
          2    1    1    2  501    0 -0.80789805732E+02 -0.30994630740E+02 -0.41223011290E+02  0.95848821092E+02  0.00000000000E+00 0.  1.
         -2    1    1    2    0  503 -0.91543978807E+02 -0.95263769367E+02 -0.80144490119E+02  0.15452710153E+03  0.00000000000E+00 0. -1.
<mgrwt>
<rscale>  4 0.50770427E+03</rscale>
<asrwt>0</asrwt>
<pdfrwt beam="1">  1       21 0.35798352E-01 0.50770427E+03</pdfrwt>
<pdfrwt beam="2">  1       21 0.42606110E-01 0.50770427E+03</pdfrwt>
<totfact> 0.36051041E+04</totfact>
</mgrwt>
</event>
<event>
 5    0  0.3372079E-003  0.5245706E+03  0.7546771E-02  0.1007557E+00
         21   -1    0    0  501  502  0.00000000000E+00  0.00000000000E+00  0.47375503744E+03  0.47375503744E+03  0.00000000000E+00 0.  1.
         21   -1    0    0  502  503 -0.00000000000E+00 -0.00000000000E+00 -0.14520919192E+03  0.14520919192E+03  0.00000000000E+00 0.  1.
         25    1    1    2    0    0  0.20191137330E+03  0.55473166556E+02  0.12946479162E+03  0.27610071920E+03  0.12500000000E+03 0.  0.
          3    1    1    2  501    0 -0.84644482260E+02  0.51836681209E+02  0.14347672383E+03  0.17446289054E+03  0.00000000000E+00 0. -1.
         -3    1    1    2    0  503 -0.11726689104E+03 -0.10730984777E+03  0.55604330074E+02  0.16840061961E+03  0.00000000000E+00 0.  1.
<mgrwt>
<rscale>  4 0.52457063E+03</rscale>
<asrwt>0</asrwt>
<pdfrwt beam="1">  1       21 0.72885390E-01 0.52457063E+03</pdfrwt>
<pdfrwt beam="2">  1       21 0.22339876E-01 0.52457063E+03</pdfrwt>
<totfact> 0.28439671E+04</totfact>
</mgrwt>
</event>
<event>
 5    0  0.3372079E-003  0.6417861E+03  0.7546771E-02  0.9822315E-01
         21   -1    0    0  501  502  0.00000000000E+00  0.00000000000E+00  0.45608887023E+02  0.45608887023E+02  0.00000000000E+00 0.  1.
         21   -1    0    0  502  503 -0.00000000000E+00 -0.00000000000E+00 -0.22577256453E+04  0.22577256453E+04  0.00000000000E+00 0.  1.
         25    1    1    2    0    0  0.13356162019E+03  0.23950983818E+03 -0.14039336087E+04  0.14359172144E+04  0.12500000000E+03 0.  0.
          2    1    1    2  501    0 -0.13552962644E+03 -0.13543662688E+03 -0.65321012989E+03  0.68073110207E+03  0.00000000000E+00 0. -1.
         -2    1    1    2    0  503  0.19680062474E+01 -0.10407321130E+03 -0.15497301972E+03  0.18668621588E+03  0.00000000000E+00 0.  1.
<mgrwt>
<rscale>  4 0.64178611E+03</rscale>
<asrwt>0</asrwt>
<pdfrwt beam="1">  1       21 0.70167541E-02 0.64178611E+03</pdfrwt>
<pdfrwt beam="2">  1       21 0.34734229E+00 0.64178611E+03</pdfrwt>
<totfact> 0.20251196E+03</totfact>
</mgrwt>
</event>
<event>
 5    0  0.3372079E-003  0.7366870E+03  0.7546771E-02  0.9656471E-01
         21   -1    0    0  501  502  0.00000000000E+00  0.00000000000E+00  0.20272953574E+03  0.20272953574E+03  0.00000000000E+00 0. -1.
         21   -1    0    0  502  503 -0.00000000000E+00 -0.00000000000E+00 -0.66925095196E+03  0.66925095196E+03  0.00000000000E+00 0. -1.
         25    1    1    2    0    0  0.29227491991E+03 -0.35304211238E+02 -0.43790447531E+02  0.32282134290E+03  0.12500000000E+03 0.  0.
          4    1    1    2  501    0 -0.20587946399E+03 -0.50342943485E+02 -0.18170898836E+03  0.27917543248E+03  0.00000000000E+00 0. -1.
         -4    1    1    2    0  503 -0.86395455918E+02  0.85647154723E+02 -0.24102198033E+03  0.26998371232E+03  0.00000000000E+00 0.  1.
<mgrwt>
<rscale>  4 0.73668700E+03</rscale>
<asrwt>0</asrwt>
<pdfrwt beam="1">  1       21 0.31189160E-01 0.73668700E+03</pdfrwt>
<pdfrwt beam="2">  1       21 0.10296168E+00 0.73668700E+03</pdfrwt>
<totfact> 0.62230719E+03</totfact>
</mgrwt>
</event>
<event>
 5    0  0.3372079E-003  0.7904517E+03  0.7546771E-02  0.9573942E-01
         21   -1    0    0  501  502  0.00000000000E+00  0.00000000000E+00  0.22173391694E+03  0.22173391694E+03  0.00000000000E+00 0.  1.
         21   -1    0    0  502  503 -0.00000000000E+00 -0.00000000000E+00 -0.70446351616E+03  0.70446351616E+03  0.00000000000E+00 0.  1.
         25    1    1    2    0    0  0.14660633405E+03  0.17988686937E+03 -0.65062870393E+02  0.27149747708E+03  0.12500000000E+03 0.  0.
          4    1    1    2  501    0 -0.26714591309E+03 -0.54991134967E+01 -0.33170797890E+03  0.42594290979E+03  0.00000000000E+00 0. -1.
         -4    1    1    2    0  503  0.12053957904E+03 -0.17438775588E+03 -0.85958749915E+02  0.22875704623E+03  0.00000000000E+00 0.  1.
<mgrwt>
<rscale>  4 0.79045166E+03</rscale>
<asrwt>0</asrwt>
<pdfrwt beam="1">  1       21 0.34112910E-01 0.79045166E+03</pdfrwt>
<pdfrwt beam="2">  1       21 0.10837900E+00 0.79045166E+03</pdfrwt>
<totfact> 0.45192577E+03</totfact>
</mgrwt>
</event>
<event>
 5    0  0.3372079E-003  0.5059724E+03  0.7546771E-02  0.1012232E+00
         21   -1    0    0  503  502  0.00000000000E+00  0.00000000000E+00  0.86900513367E+02  0.86900513367E+02  0.00000000000E+00 0.  1.
         21   -1    0    0  501  503 -0.00000000000E+00 -0.00000000000E+00 -0.73649744623E+03  0.73649744623E+03  0.00000000000E+00 0.  1.
         25    1    1    2    0    0  0.46039048760E+02  0.20248951031E+03 -0.49611714248E+03  0.55215832409E+03  0.12500000000E+03 0.  0.
          1    1    1    2  501    0 -0.67805324613E+02 -0.12376318714E+03 -0.10838122628E+03  0.17793644581E+03  0.00000000000E+00 0.  1.
         -1    1    1    2    0  502  0.21766275853E+02 -0.78726323167E+02 -0.45098564098E+02  0.93303189697E+02  0.00000000000E+00 0. -1.
<mgrwt>
<rscale>  4 0.50597236E+03</rscale>
<asrwt>0</asrwt>
<pdfrwt beam="1">  1       21 0.13369310E-01 0.50597236E+03</pdfrwt>
<pdfrwt beam="2">  1       21 0.11330730E+00 0.50597236E+03</pdfrwt>
<totfact> 0.26209215E+04</totfact>
</mgrwt>
</event>
<event>
 5    0  0.3372079E-003  0.8988965E+03  0.7546771E-02  0.9426962E-01
         21   -1    0    0  503  502  0.00000000000E+00  0.00000000000E+00  0.16774576698E+03  0.16774576698E+03  0.00000000000E+00 0.  1.
         21   -1    0    0  501  503 -0.00000000000E+00 -0.00000000000E+00 -0.12042254390E+04  0.12042254390E+04  0.00000000000E+00 0.  1.
         25    1    1    2    0    0 -0.34739113827E+02  0.23351821985E+03 -0.77748733415E+03  0.82210043170E+03  0.12500000000E+03 0.  0.
          3    1    1    2  501    0 -0.84248183672E+02 -0.29849392088E+03 -0.27350619193E+03  0.41352389808E+03  0.00000000000E+00 0. -1.
         -3    1    1    2    0  502  0.11898729750E+03  0.64975701034E+02  0.14513854059E+02  0.13634687620E+03  0.00000000000E+00 0.  1.
<mgrwt>
<rscale>  4 0.89889648E+03</rscale>
<asrwt>0</asrwt>
<pdfrwt beam="1">  1       21 0.25807041E-01 0.89889648E+03</pdfrwt>
<pdfrwt beam="2">  1       21 0.18526545E+00 0.89889648E+03</pdfrwt>
<totfact> 0.17879530E+03</totfact>
</mgrwt>
</event>
<event>
 5    0  0.3372079E-003  0.5249212E+03  0.7546771E-02  0.1007471E+00
         21   -1    0    0  501  502  0.00000000000E+00  0.00000000000E+00  0.35568669088E+03  0.35568669088E+03  0.00000000000E+00 0.  1.
         21   -1    0    0  502  503 -0.00000000000E+00 -0.00000000000E+00 -0.19366919609E+03  0.19366919609E+03  0.00000000000E+00 0.  1.
         25    1    1    2    0    0 -0.82015343007E+02  0.22547228341E+03  0.63270906440E+02  0.27783533734E+03  0.12500000000E+03 0.  0.
          1    1    1    2  501    0  0.61265121501E+02 -0.21291813199E+03  0.10681485740E+03  0.24596129737E+03  0.00000000000E+00 0. -1.
         -1    1    1    2    0  503  0.20750221506E+02 -0.12554151415E+02 -0.80682690547E+01  0.25559252255E+02  0.00000000000E+00 0.  1.
<mgrwt>
<rscale>  4 0.52492116E+03</rscale>
<asrwt>0</asrwt>
<pdfrwt beam="1">  1       21 0.54721030E-01 0.52492116E+03</pdfrwt>
<pdfrwt beam="2">  1       21 0.29795261E-01 0.52492116E+03</pdfrwt>
<totfact> 0.30556566E+04</totfact>
</mgrwt>
</event>
<event>
 5    0  0.3372079E-003  0.4987399E+03  0.7546771E-02  0.1014108E+00
         21   -1    0    0  501  502  0.00000000000E+00  0.00000000000E+00  0.37391385049E+03  0.37391385049E+03  0.00000000000E+00 0.  1.
         21   -1    0    0  502  503 -0.00000000000E+00 -0.00000000000E+00 -0.16630938637E+03  0.16630938637E+03  0.00000000000E+00 0.  1.
         25    1    1    2    0    0 -0.83649267065E+02  0.21195275961E+03  0.71307431357E+02  0.26950124667E+03  0.12500000000E+03 0.  0.
          1    1    1    2  501    0  0.89828674682E+02 -0.18759960900E+03  0.12816665949E+03  0.24431433993E+03  0.00000000000E+00 0.  1.
         -1    1    1    2    0  503 -0.61794076164E+01 -0.24353150616E+02  0.81303732757E+01  0.26407650274E+02  0.00000000000E+00 0. -1.
<mgrwt>
<rscale>  4 0.49873994E+03</rscale>
<asrwt>0</asrwt>
<pdfrwt beam="1">  1       21 0.57525208E-01 0.49873994E+03</pdfrwt>
<pdfrwt beam="2">  1       21 0.25586060E-01 0.49873994E+03</pdfrwt>
<totfact> 0.37222627E+04</totfact>
</mgrwt>
</event>
<event>
 5    0  0.3372079E-003  0.6308977E+03  0.7546771E-02  0.9843298E-01
         21   -1    0    0  503  502  0.00000000000E+00  0.00000000000E+00  0.10661938367E+03  0.10661938367E+03  0.00000000000E+00 0.  1.
         21   -1    0    0  501  503 -0.00000000000E+00 -0.00000000000E+00 -0.93330109937E+03  0.93330109937E+03  0.00000000000E+00 0.  1.
         25    1    1    2    0    0 -0.17004562142E+03  0.16813558732E+03 -0.72149985473E+03  0.77030651656E+03  0.12500000000E+03 0.  0.
          3    1    1    2  501    0  0.19782969845E+02 -0.34939207513E+01 -0.26452063863E+02  0.33215735137E+02  0.00000000000E+00 0. -1.
         -3    1    1    2    0  502  0.15026265158E+03 -0.16464166657E+03 -0.78729797113E+02  0.23639823135E+03  0.00000000000E+00 0.  1.
<mgrwt>
<rscale>  4 0.63089773E+03</rscale>
<asrwt>0</asrwt>
<pdfrwt beam="1">  1       21 0.16402982E-01 0.63089773E+03</pdfrwt>
<pdfrwt beam="2">  1       21 0.14358478E+00 0.63089773E+03</pdfrwt>
<totfact> 0.93988978E+03</totfact>
</mgrwt>
</event>
<event>
 5    0  0.3372079E-003  0.4944400E+03  0.7546771E-02  0.1015240E+00
         21   -1    0    0  501  502  0.00000000000E+00  0.00000000000E+00  0.14078320791E+03  0.14078320791E+03  0.00000000000E+00 0. -1.
         21   -1    0    0  502  503 -0.00000000000E+00 -0.00000000000E+00 -0.43412650710E+03  0.43412650710E+03  0.00000000000E+00 0. -1.
         25    1    1    2    0    0  0.12700988704E+03  0.16816964299E+03 -0.25846249439E+03  0.35614660076E+03  0.12500000000E+03 0.  0.
          4    1    1    2  501    0 -0.28601503448E+02 -0.74443238382E+02 -0.18620919232E+02  0.81893713882E+02  0.00000000000E+00 0.  1.
         -4    1    1    2    0  503 -0.98408383590E+02 -0.93726404604E+02 -0.16259885575E+02  0.13686940038E+03  0.00000000000E+00 0. -1.
<mgrwt>
<rscale>  4 0.49443998E+03</rscale>
<asrwt>0</asrwt>
<pdfrwt beam="1">  1       21 0.21658955E-01 0.49443998E+03</pdfrwt>
<pdfrwt beam="2">  1       21 0.66788695E-01 0.49443998E+03</pdfrwt>
<totfact> 0.36998606E+04</totfact>
</mgrwt>
</event>
<event>
 5    0  0.3372079E-003  0.5354628E+03  0.7546771E-02  0.1004916E+00
         21   -1    0    0  501  502  0.00000000000E+00  0.00000000000E+00  0.30653528857E+02  0.30653528857E+02  0.00000000000E+00 0.  1.
         21   -1    0    0  502  503 -0.00000000000E+00 -0.00000000000E+00 -0.23383967182E+04  0.23383967182E+04  0.00000000000E+00 0.  1.
         25    1    1    2    0    0 -0.21017000384E+03 -0.13275617018E+03 -0.12067712496E+04  0.12384334783E+04  0.12500000000E+03 0.  0.
          2    1    1    2  501    0  0.56796009814E+02  0.62053071277E+02 -0.46807736987E+03  0.47557627629E+03  0.00000000000E+00 0. -1.
         -2    1    1    2    0  503  0.15337399402E+03  0.70703098905E+02 -0.63289456981E+03  0.65504049243E+03  0.00000000000E+00 0.  1.
<mgrwt>
<rscale>  4 0.53546283E+03</rscale>
<asrwt>0</asrwt>
<pdfrwt beam="1">  1       21 0.47159272E-02 0.53546283E+03</pdfrwt>
<pdfrwt beam="2">  1       21 0.35975337E+00 0.53546283E+03</pdfrwt>
<totfact> 0.35414645E+03</totfact>
</mgrwt>
</event>
<event>
 5    0  0.3372079E-003  0.6991548E+03  0.7546771E-02  0.9718679E-01
         21   -1    0    0  503  502  0.00000000000E+00  0.00000000000E+00  0.74721969926E+03  0.74721969926E+03  0.00000000000E+00 0.  1.
         21   -1    0    0  501  503 -0.00000000000E+00 -0.00000000000E+00 -0.16354540634E+03  0.16354540634E+03  0.00000000000E+00 0.  1.
         25    1    1    2    0    0  0.52579278117E+02 -0.20429814892E+03  0.23627443546E+03  0.34051860888E+03  0.12500000000E+03 0.  0.
          2    1    1    2  501    0 -0.97064018301E+02  0.30519721560E+03  0.17324317001E+03  0.36411531143E+03  0.00000000000E+00 0. -1.
         -2    1    1    2    0  502  0.44484740183E+02 -0.10089906669E+03  0.17415668745E+03  0.20613118530E+03  0.00000000000E+00 0.  1.
<mgrwt>
<rscale>  4 0.69915477E+03</rscale>
<asrwt>0</asrwt>
<pdfrwt beam="1">  1       21 0.11495687E+00 0.69915477E+03</pdfrwt>
<pdfrwt beam="2">  1       21 0.25160832E-01 0.69915477E+03</pdfrwt>
<totfact> 0.72911664E+03</totfact>
</mgrwt>
</event>
<event>
 5    0  0.3372079E-003  0.5438619E+03  0.7546771E-02  0.1002925E+00
         21   -1    0    0  501  502  0.00000000000E+00  0.00000000000E+00  0.68754319826E+03  0.68754319826E+03  0.00000000000E+00 0. -1.
         21   -1    0    0  502  503 -0.00000000000E+00 -0.00000000000E+00 -0.10755170019E+03  0.10755170019E+03  0.00000000000E+00 0. -1.
         25    1    1    2    0    0 -0.12672837533E+03  0.15775044171E+03  0.17821232530E+03  0.29720349234E+03  0.12500000000E+03 0.  0.
          3    1    1    2  501    0  0.14229736845E+03 -0.35096336083E+02  0.31320476785E+03  0.34579982718E+03  0.00000000000E+00 0. -1.
         -3    1    1    2    0  503 -0.15568993122E+02 -0.12265410563E+03  0.88574404910E+02  0.15209157892E+03  0.00000000000E+00 0.  1.
<mgrwt>
<rscale>  4 0.54386189E+03</rscale>
<asrwt>0</asrwt>
<pdfrwt beam="1">  1       21 0.10577587E+00 0.54386189E+03</pdfrwt>
<pdfrwt beam="2">  1       21 0.16546416E-01 0.54386189E+03</pdfrwt>
<totfact> 0.20745314E+04</totfact>
</mgrwt>
</event>
<event>
 5    0  0.3372079E-003  0.8626993E+03  0.7546771E-02  0.9473449E-01
         21   -1    0    0  501  502  0.00000000000E+00  0.00000000000E+00  0.60444136252E+03  0.60444136252E+03  0.00000000000E+00 0. -1.
         21   -1    0    0  502  503 -0.00000000000E+00 -0.00000000000E+00 -0.30782556966E+03  0.30782556966E+03  0.00000000000E+00 0. -1.
         25    1    1    2    0    0  0.21605495490E+03 -0.12978498510E+02 -0.21832244576E+03  0.33187026876E+03  0.12500000000E+03 0.  0.
          2    1    1    2  501    0 -0.62834680224E+02 -0.41867997975E+02  0.30806714820E+03  0.31718526778E+03  0.00000000000E+00 0.  1.
         -2    1    1    2    0  503 -0.15322027468E+03  0.54846496485E+02  0.20687109042E+03  0.26321139565E+03  0.00000000000E+00 0. -1.
<mgrwt>
<rscale>  4 0.86269927E+03</rscale>
<asrwt>0</asrwt>
<pdfrwt beam="1">  1       21 0.92990979E-01 0.86269927E+03</pdfrwt>
<pdfrwt beam="2">  1       21 0.47357780E-01 0.86269927E+03</pdfrwt>
<totfact> 0.32824184E+03</totfact>
</mgrwt>
</event>
<event>
 5    0  0.3372079E-003  0.6906678E+03  0.7546771E-02  0.9733326E-01
         21   -1    0    0  503  502  0.00000000000E+00  0.00000000000E+00  0.98074608019E+02  0.98074608019E+02  0.00000000000E+00 0.  1.
         21   -1    0    0  501  503 -0.00000000000E+00 -0.00000000000E+00 -0.12159672126E+04  0.12159672126E+04  0.00000000000E+00 0.  1.
         25    1    1    2    0    0  0.20112295759E+03  0.16319829868E+02 -0.99404731669E+02  0.25733845728E+03  0.12500000000E+03 0.  0.
          1    1    1    2  501    0 -0.43290209373E+02  0.24154609941E+02 -0.67188497502E+03  0.67371129355E+03  0.00000000000E+00 0. -1.
         -1    1    1    2    0  502 -0.15783274822E+03 -0.40474439809E+02 -0.34660289786E+03  0.38299206975E+03  0.00000000000E+00 0.  1.
<mgrwt>
<rscale>  4 0.69066782E+03</rscale>
<asrwt>0</asrwt>
<pdfrwt beam="1">  1       21 0.15088401E-01 0.69066782E+03</pdfrwt>
<pdfrwt beam="2">  1       21 0.18707188E+00 0.69066782E+03</pdfrwt>
<totfact> 0.50980305E+03</totfact>
</mgrwt>
</event>
<event>
 5    0  0.3372079E-003  0.5254322E+03  0.7546771E-02  0.1007346E+00
         21   -1    0    0  503  502  0.00000000000E+00  0.00000000000E+00  0.77915971411E+03  0.77915971411E+03  0.00000000000E+00 0.  1.
         21   -1    0    0  501  503 -0.00000000000E+00 -0.00000000000E+00 -0.88582277087E+02  0.88582277087E+02  0.00000000000E+00 0.  1.
         25    1    1    2    0    0  0.19214563693E+03 -0.66173413791E+02  0.58164723196E+03  0.62867906672E+03  0.12500000000E+03 0.  0.
          3    1    1    2  501    0 -0.79492394091E+02 -0.24496915306E+01  0.28045839419E+02  0.84330367103E+02  0.00000000000E+00 0. -1.
         -3    1    1    2    0  502 -0.11265324284E+03  0.68623105322E+02  0.80884365646E+02  0.15473255738E+03  0.00000000000E+00 0.  1.
<mgrwt>
<rscale>  4 0.52543217E+03</rscale>
<asrwt>0</asrwt>
<pdfrwt beam="1">  1       21 0.11987072E+00 0.52543217E+03</pdfrwt>
<pdfrwt beam="2">  1       21 0.13628043E-01 0.52543217E+03</pdfrwt>
<totfact> 0.21850471E+04</totfact>
</mgrwt>
</event>
<event>
 5    0  0.3372079E-003  0.6328361E+03  0.7546771E-02  0.9839530E-01
         21   -1    0    0  501  502  0.00000000000E+00  0.00000000000E+00  0.83478135266E+02  0.83478135266E+02  0.00000000000E+00 0. -1.
         21   -1    0    0  502  503 -0.00000000000E+00 -0.00000000000E+00 -0.11993607210E+04  0.11993607210E+04  0.00000000000E+00 0. -1.
         25    1    1    2    0    0  0.12460580650E+03 -0.22923675280E+03 -0.66723683990E+03  0.72725930477E+03  0.12500000000E+03 0.  0.
          4    1    1    2  501    0 -0.41653593566E+01  0.15444524781E+03 -0.35080998856E+03  0.38332536162E+03  0.00000000000E+00 0.  1.
         -4    1    1    2    0  503 -0.12044044714E+03  0.74791504989E+02 -0.97835757261E+02  0.17225418986E+03  0.00000000000E+00 0. -1.
<mgrwt>
<rscale>  4 0.63283614E+03</rscale>
<asrwt>0</asrwt>
<pdfrwt beam="1">  1       21 0.12842791E-01 0.63283614E+03</pdfrwt>
<pdfrwt beam="2">  1       21 0.18451702E+00 0.63283614E+03</pdfrwt>
<totfact> 0.72691974E+03</totfact>
</mgrwt>
</event>
<event>
 5    0  0.3372079E-003  0.5244417E+03  0.7546771E-02  0.1007589E+00
         21   -1    0    0  501  502  0.00000000000E+00  0.00000000000E+00  0.24919267512E+03  0.24919267512E+03  0.00000000000E+00 0.  1.
         21   -1    0    0  502  503 -0.00000000000E+00 -0.00000000000E+00 -0.27593017482E+03  0.27593017482E+03  0.00000000000E+00 0.  1.
         25    1    1    2    0    0 -0.13812854851E+03  0.16552719274E+03 -0.72765251793E+02  0.25961226727E+03  0.12500000000E+03 0.  0.
          3    1    1    2  501    0 -0.25103390334E+02 -0.62907521156E+02  0.21973384123E+02  0.71206502751E+02  0.00000000000E+00 0. -1.
         -3    1    1    2    0  503  0.16323193885E+03 -0.10261967158E+03  0.24054367966E+02  0.19430407992E+03  0.00000000000E+00 0.  1.
<mgrwt>
<rscale>  4 0.52444172E+03</rscale>
<asrwt>0</asrwt>
<pdfrwt beam="1">  1       21 0.38337335E-01 0.52444172E+03</pdfrwt>
<pdfrwt beam="2">  1       21 0.42450796E-01 0.52444172E+03</pdfrwt>
<totfact> 0.31471575E+04</totfact>
</mgrwt>
</event>
<event>
 5    0  0.3372079E-003  0.5425383E+03  0.7546771E-02  0.1003236E+00
         21   -1    0    0  501  502  0.00000000000E+00  0.00000000000E+00  0.10036499670E+03  0.10036499670E+03  0.00000000000E+00 0.  1.
         21   -1    0    0  502  503 -0.00000000000E+00 -0.00000000000E+00 -0.73319346918E+03  0.73319346918E+03  0.00000000000E+00 0.  1.
         25    1    1    2    0    0 -0.24988687965E+03 -0.89720461788E+01 -0.32633009142E+03  0.42969789247E+03  0.12500000000E+03 0.  0.
          2    1    1    2  501    0  0.67026335176E+02 -0.32487544545E+02 -0.71752232483E+02  0.10342317450E+03  0.00000000000E+00 0. -1.
         -2    1    1    2    0  503  0.18286054447E+03  0.41459590724E+02 -0.23474614858E+03  0.30043739891E+03  0.00000000000E+00 0.  1.
<mgrwt>
<rscale>  4 0.54253833E+03</rscale>
<asrwt>0</asrwt>
<pdfrwt beam="1">  1       21 0.15440769E-01 0.54253833E+03</pdfrwt>
<pdfrwt beam="2">  1       21 0.11279899E+00 0.54253833E+03</pdfrwt>
<totfact> 0.20124259E+04</totfact>
</mgrwt>
</event>
<event>
 5    0  0.3372079E-003  0.4592414E+03  0.7546771E-02  0.1025001E+00
         21   -1    0    0  503  502  0.00000000000E+00  0.00000000000E+00  0.97742477546E+02  0.97742477546E+02  0.00000000000E+00 0. -1.
         21   -1    0    0  501  503 -0.00000000000E+00 -0.00000000000E+00 -0.53943457802E+03  0.53943457802E+03  0.00000000000E+00 0. -1.
         25    1    1    2    0    0 -0.55388612046E+02  0.19402741575E+03 -0.15547189686E+03  0.28374468650E+03  0.12500000000E+03 0.  0.
          3    1    1    2  501    0  0.35125363571E+02 -0.17811713155E+03 -0.25277380079E+03  0.31121391049E+03  0.00000000000E+00 0. -1.
         -3    1    1    2    0  502  0.20263248474E+02 -0.15910284204E+02 -0.33446402827E+02  0.42218458573E+02  0.00000000000E+00 0.  1.
<mgrwt>
<rscale>  4 0.45924143E+03</rscale>
<asrwt>0</asrwt>
<pdfrwt beam="1">  1       21 0.15037304E-01 0.45924143E+03</pdfrwt>
<pdfrwt beam="2">  1       21 0.82989934E-01 0.45924143E+03</pdfrwt>
<totfact> 0.45230170E+04</totfact>
</mgrwt>
</event>
<event>
 5    0  0.3372079E-003  0.5666064E+03  0.7546771E-02  0.9977216E-01
         21   -1    0    0  503  502  0.00000000000E+00  0.00000000000E+00  0.14267736387E+04  0.14267736387E+04  0.00000000000E+00 0.  1.
         21   -1    0    0  501  503 -0.00000000000E+00 -0.00000000000E+00 -0.56253294182E+02  0.56253294182E+02  0.00000000000E+00 0.  1.
         25    1    1    2    0    0 -0.17137441878E+03 -0.14390257562E+03  0.93021103562E+03  0.96488067317E+03  0.12500000000E+03 0.  0.
          4    1    1    2  501    0  0.83775695214E+01  0.51225377102E+02  0.16098998111E+02  0.54345199149E+02  0.00000000000E+00 0. -1.
         -4    1    1    2    0  502  0.16299684926E+03  0.92677198519E+02  0.42421031079E+03  0.46380106056E+03  0.00000000000E+00 0.  1.
<mgrwt>
<rscale>  4 0.56660645E+03</rscale>
<asrwt>0</asrwt>
<pdfrwt beam="1">  1       21 0.21950361E+00 0.56660645E+03</pdfrwt>
<pdfrwt beam="2">  1       21 0.86543541E-02 0.56660645E+03</pdfrwt>
<totfact> 0.88137142E+03</totfact>
</mgrwt>
</event>
<event>
 5    0  0.3372079E-003  0.5318523E+03  0.7546771E-02  0.1005784E+00
         21   -1    0    0  503  502  0.00000000000E+00  0.00000000000E+00  0.67257476125E+03  0.67257476125E+03  0.00000000000E+00 0.  1.
         21   -1    0    0  501  503 -0.00000000000E+00 -0.00000000000E+00 -0.10514327742E+03  0.10514327742E+03  0.00000000000E+00 0.  1.
         25    1    1    2    0    0 -0.21454938933E+03  0.12070681592E+03  0.34437675269E+03  0.44138636552E+03  0.12500000000E+03 0.  0.
          1    1    1    2  501    0  0.29382409161E+02  0.18996320232E+01  0.21909360329E+02  0.36700880643E+02  0.00000000000E+00 0. -1.
         -1    1    1    2    0  502  0.18516698017E+03 -0.12260644794E+03  0.20114537081E+03  0.29963079251E+03  0.00000000000E+00 0.  1.
<mgrwt>
<rscale>  4 0.53185229E+03</rscale>
<asrwt>0</asrwt>
<pdfrwt beam="1">  1       21 0.10347304E+00 0.53185229E+03</pdfrwt>
<pdfrwt beam="2">  1       21 0.16175889E-01 0.53185229E+03</pdfrwt>
<totfact> 0.22916073E+04</totfact>
</mgrwt>
</event>
<event>
 5    0  0.3372079E-003  0.8043576E+03  0.7546771E-02  0.9553731E-01
         21   -1    0    0  501  502  0.00000000000E+00  0.00000000000E+00  0.51353578744E+03  0.51353578744E+03  0.00000000000E+00 0. -1.
         21   -1    0    0  502  503 -0.00000000000E+00 -0.00000000000E+00 -0.31496884852E+03  0.31496884852E+03  0.00000000000E+00 0. -1.
         25    1    1    2    0    0 -0.27449100020E+03 -0.21330286412E+03  0.20556854734E+02  0.36998784482E+03  0.12500000000E+03 0.  0.
          2    1    1    2  501    0  0.25061757664E+03  0.26438818194E+03  0.13882259091E+03  0.38984867861E+03  0.00000000000E+00 0. -1.
         -2    1    1    2    0  503  0.23873423567E+02 -0.51085317817E+02  0.39187493279E+02  0.68668112532E+02  0.00000000000E+00 0.  1.
<mgrwt>
<rscale>  4 0.80435757E+03</rscale>
<asrwt>0</asrwt>
<pdfrwt beam="1">  1       21 0.79005506E-01 0.80435757E+03</pdfrwt>
<pdfrwt beam="2">  1       21 0.48456746E-01 0.80435757E+03</pdfrwt>
<totfact> 0.46530617E+03</totfact>
</mgrwt>
</event>
<event>
 5    0  0.3372079E-003  0.4637165E+03  0.7546771E-02  0.1023709E+00
         21   -1    0    0  503  502  0.00000000000E+00  0.00000000000E+00  0.17941613989E+03  0.17941613989E+03  0.00000000000E+00 0.  1.
         21   -1    0    0  501  503 -0.00000000000E+00 -0.00000000000E+00 -0.29962879066E+03  0.29962879066E+03  0.00000000000E+00 0.  1.
         25    1    1    2    0    0  0.12893105069E+03 -0.16053834145E+03 -0.42748674234E+02  0.24463896676E+03  0.12500000000E+03 0.  0.
          4    1    1    2  501    0  0.77174142532E+01  0.33912659184E+02 -0.15459758700E+02  0.38060886416E+02  0.00000000000E+00 0. -1.
         -4    1    1    2    0  502 -0.13664846494E+03  0.12662568227E+03 -0.62004217832E+02  0.19634507738E+03  0.00000000000E+00 0.  1.
<mgrwt>
<rscale>  4 0.46371647E+03</rscale>
<asrwt>0</asrwt>
<pdfrwt beam="1">  1       21 0.27602483E-01 0.46371647E+03</pdfrwt>
<pdfrwt beam="2">  1       21 0.46096736E-01 0.46371647E+03</pdfrwt>
<totfact> 0.51908491E+04</totfact>
</mgrwt>
</event>
<event>
 5    0  0.3372079E-003  0.6980416E+03  0.7546771E-02  0.9720587E-01
         21   -1    0    0  503  502  0.00000000000E+00  0.00000000000E+00  0.17508408928E+04  0.17508408928E+04  0.00000000000E+00 0.  1.
         21   -1    0    0  501  503 -0.00000000000E+00 -0.00000000000E+00 -0.69575435127E+02  0.69575435127E+02  0.00000000000E+00 0.  1.
         25    1    1    2    0    0  0.27389882162E+03 -0.15176403379E+03  0.54840991095E+03  0.64376340131E+03  0.12500000000E+03 0.  0.
          1    1    1    2  501    0 -0.23548824934E+03  0.15071799977E+03  0.10008656771E+04  0.10391836867E+04  0.00000000000E+00 0.  1.
         -1    1    1    2    0  502 -0.38410572283E+02  0.10460340179E+01  0.13198986961E+03  0.13746923994E+03  0.00000000000E+00 0. -1.
<mgrwt>
<rscale>  4 0.69804159E+03</rscale>
<asrwt>0</asrwt>
<pdfrwt beam="1">  1       21 0.26936010E+00 0.69804159E+03</pdfrwt>
<pdfrwt beam="2">  1       21 0.10703914E-01 0.69804159E+03</pdfrwt>
<totfact> 0.28076782E+03</totfact>
</mgrwt>
</event>
<event>
 5    0  0.3372079E-003  0.8283875E+03  0.7546771E-02  0.9519813E-01
         21   -1    0    0  501  502  0.00000000000E+00  0.00000000000E+00  0.45482393282E+03  0.45482393282E+03  0.00000000000E+00 0.  1.
         21   -1    0    0  502  503 -0.00000000000E+00 -0.00000000000E+00 -0.37719310525E+03  0.37719310525E+03  0.00000000000E+00 0.  1.
         25    1    1    2    0    0 -0.26689408837E+03 -0.14758918449E+03  0.24175612769E+03  0.40876160175E+03  0.12500000000E+03 0.  0.
          4    1    1    2  501    0  0.19517357345E+03  0.21350863281E+03 -0.97598586812E+02  0.30529353777E+03  0.00000000000E+00 0. -1.
         -4    1    1    2    0  503  0.71720514919E+02 -0.65919448320E+02 -0.66526713312E+02  0.11796189856E+03  0.00000000000E+00 0.  1.
<mgrwt>
<rscale>  4 0.82838747E+03</rscale>
<asrwt>0</asrwt>
<pdfrwt beam="1">  1       21 0.69972912E-01 0.82838747E+03</pdfrwt>
<pdfrwt beam="2">  1       21 0.58029709E-01 0.82838747E+03</pdfrwt>
<totfact> 0.41438100E+03</totfact>
</mgrwt>
</event>
<event>
 5    0  0.3372079E-003  0.5912998E+03  0.7546771E-02  0.9923622E-01
         21   -1    0    0  503  502  0.00000000000E+00  0.00000000000E+00  0.10439702379E+03  0.10439702379E+03  0.00000000000E+00 0. -1.
         21   -1    0    0  501  503 -0.00000000000E+00 -0.00000000000E+00 -0.83727353780E+03  0.83727353780E+03  0.00000000000E+00 0. -1.
         25    1    1    2    0    0 -0.17089032773E+03  0.13389832794E+03 -0.63932935755E+03  0.68665806175E+03  0.12500000000E+03 0.  0.
          4    1    1    2  501    0  0.11416160143E+03 -0.37087133179E+02 -0.74290515835E+02  0.14116446944E+03  0.00000000000E+00 0. -1.
         -4    1    1    2    0  502  0.56728726295E+02 -0.96811194765E+02 -0.19256640617E+02  0.11384803040E+03  0.00000000000E+00 0.  1.
<mgrwt>
<rscale>  4 0.59129981E+03</rscale>
<asrwt>0</asrwt>
<pdfrwt beam="1">  1       21 0.16061080E-01 0.59129981E+03</pdfrwt>
<pdfrwt beam="2">  1       21 0.12881132E+00 0.59129981E+03</pdfrwt>
<totfact> 0.13164304E+04</totfact>
</mgrwt>
</event>
<event>
 5    0  0.3372079E-003  0.8906396E+03  0.7546771E-02  0.9437359E-01
         21   -1    0    0  501  502  0.00000000000E+00  0.00000000000E+00  0.18332414847E+03  0.18332414847E+03  0.00000000000E+00 0. -1.
         21   -1    0    0  502  503 -0.00000000000E+00 -0.00000000000E+00 -0.10817437098E+04  0.10817437098E+04  0.00000000000E+00 0. -1.
         25    1    1    2    0    0 -0.86597790947E+02  0.40167757958E+03 -0.50692871150E+03  0.66441385738E+03  0.12500000000E+03 0.  0.
          2    1    1    2  501    0  0.40820368676E+02 -0.34422037977E+03 -0.21104047282E+03  0.40582268728E+03  0.00000000000E+00 0. -1.
         -2    1    1    2    0  503  0.45777422271E+02 -0.57457199815E+02 -0.18045037700E+03  0.19483131360E+03  0.00000000000E+00 0.  1.
<mgrwt>
<rscale>  4 0.89063965E+03</rscale>
<asrwt>0</asrwt>
<pdfrwt beam="1">  1       21 0.28203715E-01 0.89063965E+03</pdfrwt>
<pdfrwt beam="2">  1       21 0.16642211E+00 0.89063965E+03</pdfrwt>
<totfact> 0.20621561E+03</totfact>
</mgrwt>
</event>
<event>
 5    0  0.3372079E-003  0.5126938E+03  0.7546771E-02  0.1010518E+00
         21   -1    0    0  501  502  0.00000000000E+00  0.00000000000E+00  0.12646722796E+03  0.12646722796E+03  0.00000000000E+00 0. -1.
         21   -1    0    0  502  503 -0.00000000000E+00 -0.00000000000E+00 -0.51961066835E+03  0.51961066835E+03  0.00000000000E+00 0. -1.
         25    1    1    2    0    0 -0.19414496435E+03  0.11500230276E+03 -0.11421583479E+03  0.28211354760E+03  0.12500000000E+03 0.  0.
          3    1    1    2  501    0  0.99746625935E+02 -0.88551083492E+02 -0.18603430819E+03  0.22890925625E+03  0.00000000000E+00 0. -1.
         -3    1    1    2    0  503  0.94398338412E+02 -0.26451219265E+02 -0.92893297413E+02  0.13505509246E+03  0.00000000000E+00 0.  1.
<mgrwt>
<rscale>  4 0.51269375E+03</rscale>
<asrwt>0</asrwt>
<pdfrwt beam="1">  1       21 0.19456497E-01 0.51269375E+03</pdfrwt>
<pdfrwt beam="2">  1       21 0.79940102E-01 0.51269375E+03</pdfrwt>
<totfact> 0.30053270E+04</totfact>
</mgrwt>
</event>
<event>
 5    0  0.3372079E-003  0.5278936E+03  0.7546771E-02  0.1006744E+00
         21   -1    0    0  501  502  0.00000000000E+00  0.00000000000E+00  0.93669504126E+02  0.93669504126E+02  0.00000000000E+00 0. -1.
         21   -1    0    0  502  503 -0.00000000000E+00 -0.00000000000E+00 -0.74376290047E+03  0.74376290047E+03  0.00000000000E+00 0. -1.
         25    1    1    2    0    0  0.14704226021E+03  0.17567961467E+03 -0.19798150372E+03  0.32757660037E+03  0.12500000000E+03 0.  0.
          4    1    1    2  501    0 -0.99778328368E+02 -0.88312536321E+02 -0.21733286458E+03  0.25492821129E+03  0.00000000000E+00 0. -1.
         -4    1    1    2    0  503 -0.47263931837E+02 -0.87367078346E+02 -0.23477902804E+03  0.25492759293E+03  0.00000000000E+00 0.  1.
<mgrwt>
<rscale>  4 0.52789356E+03</rscale>
<asrwt>0</asrwt>
<pdfrwt beam="1">  1       21 0.14410693E-01 0.52789356E+03</pdfrwt>
<pdfrwt beam="2">  1       21 0.11442506E+00 0.52789356E+03</pdfrwt>
<totfact> 0.22149610E+04</totfact>
</mgrwt>
</event>
<event>
 5    0  0.3372079E-003  0.8698759E+03  0.7546771E-02  0.9464042E-01
         21   -1    0    0  503  502  0.00000000000E+00  0.00000000000E+00  0.16232216049E+03  0.16232216049E+03  0.00000000000E+00 0. -1.
         21   -1    0    0  501  503 -0.00000000000E+00 -0.00000000000E+00 -0.11654047230E+04  0.11654047230E+04  0.00000000000E+00 0. -1.
         25    1    1    2    0    0 -0.14061998423E+03  0.38424449896E+03 -0.36093357754E+03  0.55974624817E+03  0.12500000000E+03 0.  0.
          4    1    1    2  501    0  0.19823189859E+02 -0.38256589701E+01 -0.49487367421E+02  0.53447114581E+02  0.00000000000E+00 0.  1.
         -4    1    1    2    0  502  0.12079679437E+03 -0.38041883999E+03 -0.59266161760E+03  0.71453352078E+03  0.00000000000E+00 0. -1.
<mgrwt>
<rscale>  4 0.86987588E+03</rscale>
<asrwt>0</asrwt>
<pdfrwt beam="1">  1       21 0.24972641E-01 0.86987588E+03</pdfrwt>
<pdfrwt beam="2">  1       21 0.17929303E+00 0.86987588E+03</pdfrwt>
<totfact> 0.21177992E+03</totfact>
</mgrwt>
</event>
<event>
 5    0  0.3372079E-003  0.4756369E+03  0.7546771E-02  0.1020341E+00
         21   -1    0    0  501  502  0.00000000000E+00  0.00000000000E+00  0.78225138463E+03  0.78225138463E+03  0.00000000000E+00 0.  1.
         21   -1    0    0  502  503 -0.00000000000E+00 -0.00000000000E+00 -0.72301084303E+02  0.72301084303E+02  0.00000000000E+00 0.  1.
         25    1    1    2    0    0 -0.37662185731E+02  0.20324599652E+03  0.40929701063E+03  0.47526457710E+03  0.12500000000E+03 0.  0.
          2    1    1    2  501    0 -0.22779864640E+02 -0.13405168956E+03  0.14686123755E+03  0.20014245127E+03  0.00000000000E+00 0.  1.
         -2    1    1    2    0  503  0.60442050371E+02 -0.69194306960E+02  0.15379205215E+03  0.17914544056E+03  0.00000000000E+00 0. -1.
<mgrwt>
<rscale>  4 0.47563693E+03</rscale>
<asrwt>0</asrwt>
<pdfrwt beam="1">  1       21 0.12034636E+00 0.47563693E+03</pdfrwt>
<pdfrwt beam="2">  1       21 0.11123244E-01 0.47563693E+03</pdfrwt>
<totfact> 0.31738336E+04</totfact>
</mgrwt>
</event>
<event>
 5    0  0.3372079E-003  0.8138522E+03  0.7546771E-02  0.9540180E-01
         21   -1    0    0  503  502  0.00000000000E+00  0.00000000000E+00  0.25446038439E+03  0.25446038439E+03  0.00000000000E+00 0. -1.
         21   -1    0    0  501  503 -0.00000000000E+00 -0.00000000000E+00 -0.65074517441E+03  0.65074517441E+03  0.00000000000E+00 0. -1.
         25    1    1    2    0    0  0.22453049939E+03 -0.10965384690E+02  0.44999513687E+02  0.26112093185E+03  0.12500000000E+03 0.  0.
          3    1    1    2  501    0  0.56630518427E+02  0.13328373365E+03 -0.65107712640E+02  0.15877841011E+03  0.00000000000E+00 0. -1.
         -3    1    1    2    0  502 -0.28116101782E+03 -0.12231834896E+03 -0.37617659106E+03  0.48530621683E+03  0.00000000000E+00 0.  1.
<mgrwt>
<rscale>  4 0.81385224E+03</rscale>
<asrwt>0</asrwt>
<pdfrwt beam="1">  1       21 0.39147751E-01 0.81385224E+03</pdfrwt>
<pdfrwt beam="2">  1       21 0.10011464E+00 0.81385224E+03</pdfrwt>
<totfact> 0.41307827E+03</totfact>
</mgrwt>
</event>
<event>
 5    0  0.3372079E-003  0.5064827E+03  0.7546771E-02  0.1012101E+00
         21   -1    0    0  503  502  0.00000000000E+00  0.00000000000E+00  0.54431948439E+02  0.54431948439E+02  0.00000000000E+00 0.  1.
         21   -1    0    0  501  503 -0.00000000000E+00 -0.00000000000E+00 -0.11781899491E+04  0.11781899491E+04  0.00000000000E+00 0.  1.
         25    1    1    2    0    0  0.81895911894E+02  0.19453767234E+03 -0.37119759617E+03  0.44493201924E+03  0.12500000000E+03 0.  0.
          1    1    1    2  501    0 -0.38005731233E+02 -0.15742929401E+03 -0.65249202886E+03  0.67229031373E+03  0.00000000000E+00 0.  1.
         -1    1    1    2    0  502 -0.43890180661E+02 -0.37108378331E+02 -0.10006837568E+03  0.11539956461E+03  0.00000000000E+00 0. -1.
<mgrwt>
<rscale>  4 0.50648267E+03</rscale>
<asrwt>0</asrwt>
<pdfrwt beam="1">  1       21 0.83741454E-02 0.50648267E+03</pdfrwt>
<pdfrwt beam="2">  1       21 0.18126000E+00 0.50648267E+03</pdfrwt>
<totfact> 0.17195414E+04</totfact>
</mgrwt>
</event>
<event>
 5    0  0.3372079E-003  0.5691727E+03  0.7546771E-02  0.9971511E-01
         21   -1    0    0  503  502  0.00000000000E+00  0.00000000000E+00  0.84944479785E+03  0.84944479785E+03  0.00000000000E+00 0.  1.
         21   -1    0    0  501  503 -0.00000000000E+00 -0.00000000000E+00 -0.95343897189E+02  0.95343897189E+02  0.00000000000E+00 0.  1.
         25    1    1    2    0    0  0.13450796203E+03  0.20303796301E+03  0.30427997513E+03  0.40930197842E+03  0.12500000000E+03 0.  0.
          2    1    1    2  501    0 -0.26617044559E+02  0.25904434126E+02  0.49817880749E+02  0.62139584894E+02  0.00000000000E+00 0. -1.
         -2    1    1    2    0  502 -0.10789091747E+03 -0.22894239713E+03  0.40000304478E+03  0.47334713172E+03  0.00000000000E+00 0.  1.
<mgrwt>
<rscale>  4 0.56917265E+03</rscale>
<asrwt>0</asrwt>
<pdfrwt beam="1">  1       21 0.13068381E+00 0.56917265E+03</pdfrwt>
<pdfrwt beam="2">  1       21 0.14668292E-01 0.56917265E+03</pdfrwt>
<totfact> 0.15094252E+04</totfact>
</mgrwt>
</event>
<event>
 5    0  0.3372079E-003  0.6191339E+03  0.7546771E-02  0.9866486E-01
         21   -1    0    0  501  502  0.00000000000E+00  0.00000000000E+00  0.23337153663E+03  0.23337153663E+03  0.00000000000E+00 0. -1.
         21   -1    0    0  502  503 -0.00000000000E+00 -0.00000000000E+00 -0.41063997805E+03  0.41063997805E+03  0.00000000000E+00 0. -1.
         25    1    1    2    0    0 -0.23850691800E+03  0.43593656564E+02 -0.24944066674E+03  0.36963712347E+03  0.12500000000E+03 0.  0.
          3    1    1    2  501    0  0.17680413409E+03  0.73914907151E+01  0.18323557302E+02  0.17790471809E+03  0.00000000000E+00 0. -1.
         -3    1    1    2    0  503  0.61702783910E+02 -0.50985147279E+02  0.53848668013E+02  0.96469673121E+02  0.00000000000E+00 0.  1.
<mgrwt>
<rscale>  4 0.61913386E+03</rscale>
<asrwt>0</asrwt>
<pdfrwt beam="1">  1       21 0.35903313E-01 0.61913386E+03</pdfrwt>
<pdfrwt beam="2">  1       21 0.63175381E-01 0.61913386E+03</pdfrwt>
<totfact> 0.15015990E+04</totfact>
</mgrwt>
</event>
<event>
 5    0  0.3372079E-003  0.6065727E+03  0.7546771E-02  0.9891863E-01
         21   -1    0    0  501  502  0.00000000000E+00  0.00000000000E+00  0.92041701135E+02  0.92041701135E+02  0.00000000000E+00 0.  1.
         21   -1    0    0  502  503 -0.00000000000E+00 -0.00000000000E+00 -0.99935813124E+03  0.99935813124E+03  0.00000000000E+00 0.  1.
         25    1    1    2    0    0  0.22603395553E+03  0.10924922658E+03 -0.43678610566E+03  0.51907017316E+03  0.12500000000E+03 0.  0.
          1    1    1    2  501    0 -0.16720345306E+03 -0.15382399645E+03 -0.24093751149E+03  0.33116416026E+03  0.00000000000E+00 0.  1.
         -1    1    1    2    0  503 -0.58830502464E+02  0.44574769863E+02 -0.22959281295E+03  0.24116549896E+03  0.00000000000E+00 0. -1.
<mgrwt>
<rscale>  4 0.60657274E+03</rscale>
<asrwt>0</asrwt>
<pdfrwt beam="1">  1       21 0.14160260E-01 0.60657274E+03</pdfrwt>
<pdfrwt beam="2">  1       21 0.15374742E+00 0.60657274E+03</pdfrwt>
<totfact> 0.10317509E+04</totfact>
</mgrwt>
</event>
<event>
 5    0  0.3372079E-003  0.5584595E+03  0.7546771E-02  0.9995546E-01
         21   -1    0    0  503  502  0.00000000000E+00  0.00000000000E+00  0.93970546337E+03  0.93970546337E+03  0.00000000000E+00 0. -1.
         21   -1    0    0  501  503 -0.00000000000E+00 -0.00000000000E+00 -0.82972007282E+02  0.82972007282E+02  0.00000000000E+00 0. -1.
         25    1    1    2    0    0  0.22955191807E+03 -0.60068487727E+02  0.33029561890E+03  0.42546739260E+03  0.12500000000E+03 0.  0.
          3    1    1    2  501    0 -0.19701934481E+03  0.93925050290E+02  0.49420790878E+03  0.54025919187E+03  0.00000000000E+00 0. -1.
         -3    1    1    2    0  502 -0.32532573252E+02 -0.33856562564E+02  0.32229928415E+02  0.56950886180E+02  0.00000000000E+00 0.  1.
<mgrwt>
<rscale>  4 0.55845948E+03</rscale>
<asrwt>0</asrwt>
<pdfrwt beam="1">  1       21 0.14457006E+00 0.55845948E+03</pdfrwt>
<pdfrwt beam="2">  1       21 0.12764925E-01 0.55845948E+03</pdfrwt>
<totfact> 0.14959213E+04</totfact>
</mgrwt>
</event>
<event>
 5    0  0.3372079E-003  0.6125577E+03  0.7546771E-02  0.9879690E-01
         21   -1    0    0  501  502  0.00000000000E+00  0.00000000000E+00  0.13991145192E+04  0.13991145192E+04  0.00000000000E+00 0. -1.
         21   -1    0    0  502  503 -0.00000000000E+00 -0.00000000000E+00 -0.67047222014E+02  0.67047222014E+02  0.00000000000E+00 0. -1.
         25    1    1    2    0    0 -0.23200058595E+03  0.12481851337E+03  0.40400589293E+03  0.49824662034E+03  0.12500000000E+03 0.  0.
          1    1    1    2  501    0  0.38382119262E+02 -0.58912404992E+02  0.24507903920E+03  0.25496586830E+03  0.00000000000E+00 0.  1.
         -1    1    1    2    0  503  0.19361846669E+03 -0.65906108382E+02  0.68298236506E+03  0.71294925258E+03  0.00000000000E+00 0. -1.
<mgrwt>
<rscale>  4 0.61255773E+03</rscale>
<asrwt>0</asrwt>
<pdfrwt beam="1">  1       21 0.21524837E+00 0.61255773E+03</pdfrwt>
<pdfrwt beam="2">  1       21 0.10314958E-01 0.61255773E+03</pdfrwt>
<totfact> 0.67576895E+03</totfact>
</mgrwt>
</event>
<event>
 5    0  0.3372079E-003  0.8325230E+03  0.7546771E-02  0.9514099E-01
         21   -1    0    0  503  502  0.00000000000E+00  0.00000000000E+00  0.16543625063E+03  0.16543625063E+03  0.00000000000E+00 0.  1.
         21   -1    0    0  501  503 -0.00000000000E+00 -0.00000000000E+00 -0.10473739422E+04  0.10473739422E+04  0.00000000000E+00 0.  1.
         25    1    1    2    0    0  0.35342623247E+03  0.18734203284E+03 -0.53922456003E+03  0.68293137664E+03  0.12500000000E+03 0.  0.
          1    1    1    2  501    0 -0.33283218664E+03 -0.18991726578E+03 -0.32836223843E+03  0.50464600655E+03  0.00000000000E+00 0.  1.
         -1    1    1    2    0  502 -0.20594045832E+02  0.25752329409E+01 -0.14350893074E+02  0.25232809603E+02  0.00000000000E+00 0. -1.
<mgrwt>
<rscale>  4 0.83252296E+03</rscale>
<asrwt>0</asrwt>
<pdfrwt beam="1">  1       21 0.25451731E-01 0.83252296E+03</pdfrwt>
<pdfrwt beam="2">  1       21 0.16113445E+00 0.83252296E+03</pdfrwt>
<totfact> 0.28061456E+03</totfact>
</mgrwt>
</event>
<event>
 5    0  0.3372079E-003  0.4865687E+03  0.7546771E-02  0.1017345E+00
         21   -1    0    0  503  502  0.00000000000E+00  0.00000000000E+00  0.19978849979E+03  0.19978849979E+03  0.00000000000E+00 0. -1.
         21   -1    0    0  501  503 -0.00000000000E+00 -0.00000000000E+00 -0.29624968137E+03  0.29624968137E+03  0.00000000000E+00 0. -1.
         25    1    1    2    0    0 -0.17277345025E+03  0.11984028990E+03 -0.11821773768E+03  0.27168510025E+03  0.12500000000E+03 0.  0.
          4    1    1    2  501    0  0.13467821236E+03 -0.58022850318E+02 -0.56141774742E+01  0.14675282291E+03  0.00000000000E+00 0. -1.
         -4    1    1    2    0  502  0.38095237896E+02 -0.61817439583E+02  0.27370733572E+02  0.77600258010E+02  0.00000000000E+00 0.  1.
<mgrwt>
<rscale>  4 0.48656872E+03</rscale>
<asrwt>0</asrwt>
<pdfrwt beam="1">  1       21 0.30736692E-01 0.48656872E+03</pdfrwt>
<pdfrwt beam="2">  1       21 0.45576874E-01 0.48656872E+03</pdfrwt>
<totfact> 0.42749203E+04</totfact>
</mgrwt>
</event>
<event>
 5    0  0.3372079E-003  0.6836313E+03  0.7546771E-02  0.9745642E-01
         21   -1    0    0  501  502  0.00000000000E+00  0.00000000000E+00  0.22742668767E+03  0.22742668767E+03  0.00000000000E+00 0.  1.
         21   -1    0    0  502  503 -0.00000000000E+00 -0.00000000000E+00 -0.51373894148E+03  0.51373894148E+03  0.00000000000E+00 0.  1.
         25    1    1    2    0    0  0.25059276520E+03 -0.17646937815E+03 -0.18941926940E+03  0.38136968287E+03  0.12500000000E+03 0.  0.
          2    1    1    2  501    0 -0.24924628727E+03  0.10273891669E+03 -0.55548070390E+02  0.27525367362E+03  0.00000000000E+00 0.  1.
         -2    1    1    2    0  503 -0.13464779339E+01  0.73730461455E+02 -0.41344914020E+02  0.84542272648E+02  0.00000000000E+00 0. -1.
<mgrwt>
<rscale>  4 0.68363132E+03</rscale>
<asrwt>0</asrwt>
<pdfrwt beam="1">  1       21 0.34988721E-01 0.68363132E+03</pdfrwt>
<pdfrwt beam="2">  1       21 0.79036760E-01 0.68363132E+03</pdfrwt>
<totfact> 0.93899252E+03</totfact>
</mgrwt>
</event>
<event>
 5    0  0.3372079E-003  0.6116533E+03  0.7546771E-02  0.9881520E-01
         21   -1    0    0  503  502  0.00000000000E+00  0.00000000000E+00  0.21021209989E+03  0.21021209989E+03  0.00000000000E+00 0.  1.
         21   -1    0    0  501  503 -0.00000000000E+00 -0.00000000000E+00 -0.44493132627E+03  0.44493132627E+03  0.00000000000E+00 0.  1.
         25    1    1    2    0    0 -0.24606702200E+03 -0.70342516481E+02 -0.19573748186E+03  0.34559399698E+03  0.12500000000E+03 0.  0.
          3    1    1    2  501    0  0.93773384777E-01  0.60864296989E+02 -0.10271331227E+02  0.61724968098E+02  0.00000000000E+00 0. -1.
         -3    1    1    2    0  502  0.24597324862E+03  0.94782194916E+01 -0.28710413295E+02  0.24782446109E+03  0.00000000000E+00 0.  1.
<mgrwt>
<rscale>  4 0.61165333E+03</rscale>
<asrwt>0</asrwt>
<pdfrwt beam="1">  1       21 0.32340323E-01 0.61165333E+03</pdfrwt>
<pdfrwt beam="2">  1       21 0.68450973E-01 0.61165333E+03</pdfrwt>
<totfact> 0.15532111E+04</totfact>
</mgrwt>
</event>
<event>
 5    0  0.3372079E-003  0.5174582E+03  0.7546771E-02  0.1009320E+00
         21   -1    0    0  501  502  0.00000000000E+00  0.00000000000E+00  0.79440940518E+03  0.79440940518E+03  0.00000000000E+00 0. -1.
         21   -1    0    0  502  503 -0.00000000000E+00 -0.00000000000E+00 -0.84264806642E+02  0.84264806642E+02  0.00000000000E+00 0. -1.
         25    1    1    2    0    0 -0.21752233383E+03  0.94941234482E+02  0.29351249739E+03  0.39762342719E+03  0.12500000000E+03 0.  0.
          4    1    1    2  501    0  0.18567412131E+03 -0.87775691254E+02  0.38026342247E+03  0.43218019594E+03  0.00000000000E+00 0. -1.
         -4    1    1    2    0  503  0.31848212524E+02 -0.71655432283E+01  0.36368678678E+02  0.48870588697E+02  0.00000000000E+00 0.  1.
<mgrwt>
<rscale>  4 0.51745823E+03</rscale>
<asrwt>0</asrwt>
<pdfrwt beam="1">  1       21 0.12221683E+00 0.51745823E+03</pdfrwt>
<pdfrwt beam="2">  1       21 0.12963817E-01 0.51745823E+03</pdfrwt>
<totfact> 0.22838884E+04</totfact>
</mgrwt>
</event>
<event>
 5    0  0.3372079E-003  0.7045793E+03  0.7546771E-02  0.9709433E-01
         21   -1    0    0  503  502  0.00000000000E+00  0.00000000000E+00  0.31835032135E+03  0.31835032135E+03  0.00000000000E+00 0. -1.
         21   -1    0    0  501  503 -0.00000000000E+00 -0.00000000000E+00 -0.38984724274E+03  0.38984724274E+03  0.00000000000E+00 0. -1.
         25    1    1    2    0    0 -0.19039910974E+03  0.26324143615E+03 -0.12524922974E+03  0.36994627211E+03  0.12500000000E+03 0.  0.
          2    1    1    2  501    0  0.17010141538E+03 -0.25986058654E+03  0.39198181276E+02  0.31304714240E+03  0.00000000000E+00 0. -1.
         -2    1    1    2    0  502  0.20297694363E+02 -0.33808496159E+01  0.14554127075E+02  0.25204149569E+02  0.00000000000E+00 0.  1.
<mgrwt>
<rscale>  4 0.70457929E+03</rscale>
<asrwt>0</asrwt>
<pdfrwt beam="1">  1       21 0.48976973E-01 0.70457929E+03</pdfrwt>
<pdfrwt beam="2">  1       21 0.59976499E-01 0.70457929E+03</pdfrwt>
<totfact> 0.86611760E+03</totfact>
</mgrwt>
</event>
<event>
 5    0  0.3372079E-003  0.5765768E+03  0.7546771E-02  0.9955230E-01
         21   -1    0    0  501  502  0.00000000000E+00  0.00000000000E+00  0.24966172008E+03  0.24966172008E+03  0.00000000000E+00 0.  1.
         21   -1    0    0  502  503 -0.00000000000E+00 -0.00000000000E+00 -0.33289126013E+03  0.33289126013E+03  0.00000000000E+00 0.  1.
         25    1    1    2    0    0 -0.14181378918E+03  0.21110855570E+03  0.52566395509E+02  0.28821207301E+03  0.12500000000E+03 0.  0.
          4    1    1    2  501    0  0.11196668606E+03 -0.11776243169E+03 -0.94659030524E+02  0.18805547364E+03  0.00000000000E+00 0.  1.
         -4    1    1    2    0  503  0.29847103115E+02 -0.93346124010E+02 -0.41136905042E+02  0.10628543357E+03  0.00000000000E+00 0. -1.
<mgrwt>
<rscale>  4 0.57657681E+03</rscale>
<asrwt>0</asrwt>
<pdfrwt beam="1">  1       21 0.38409495E-01 0.57657681E+03</pdfrwt>
<pdfrwt beam="2">  1       21 0.51214040E-01 0.57657681E+03</pdfrwt>
<totfact> 0.20860329E+04</totfact>
</mgrwt>
</event>
<event>
 5    0  0.3372079E-003  0.6933698E+03  0.7546771E-02  0.9728638E-01
         21   -1    0    0  503  502  0.00000000000E+00  0.00000000000E+00  0.71088684999E+03  0.71088684999E+03  0.00000000000E+00 0.  1.
         21   -1    0    0  501  503 -0.00000000000E+00 -0.00000000000E+00 -0.16907110152E+03  0.16907110152E+03  0.00000000000E+00 0.  1.
         25    1    1    2    0    0  0.31584090654E+03  0.96062148031E+02  0.24285238595E+03  0.42846901392E+03  0.12500000000E+03 0.  0.
          2    1    1    2  501    0 -0.20754811859E+03 -0.33131181707E+02  0.15814367482E+03  0.26302722030E+03  0.00000000000E+00 0.  1.
         -2    1    1    2    0  502 -0.10829278795E+03 -0.62930966324E+02  0.14081968770E+03  0.18846171730E+03  0.00000000000E+00 0. -1.
<mgrwt>
<rscale>  4 0.69336981E+03</rscale>
<asrwt>0</asrwt>
<pdfrwt beam="1">  1       21 0.10936721E+00 0.69336981E+03</pdfrwt>
<pdfrwt beam="2">  1       21 0.26010939E-01 0.69336981E+03</pdfrwt>
<totfact> 0.77525046E+03</totfact>
</mgrwt>
</event>
