<event>
 5    0  0.1283376E+001  0.2405075E+03  0.7546771E-02  0.1119455E+00
         21   -1    0    0  503  501  0.00000000000E+00  0.00000000000E+00  0.17850009234E+04  0.17850009234E+04  0.00000000000E+00 0.  1.
         21   -1    0    0  504  502 -0.00000000000E+00 -0.00000000000E+00 -0.63040355016E+03  0.63040355016E+03  0.00000000000E+00 0. -1.
         25    1    1    2    0    0  0.96347837929E+02  0.18335128895E+03  0.11441985209E+04  0.11694938462E+04  0.12500000000E+03 0.  0.
         21    1    1    2  503  502 -0.11496483552E+03 -0.16860647688E+03  0.61133964506E+03  0.64450075181E+03  0.00000000000E+00 0.  1.
         21    1    1    2  504  501  0.18616997589E+02 -0.14744812062E+02 -0.60094079272E+03  0.60140987557E+03  0.00000000000E+00 0. -1.
<mgrwt>
<rscale>  4 0.24050749E+03</rscale>
<asrwt>0</asrwt>
<pdfrwt beam="1">  1       21 0.27461553E+00 0.24050749E+03</pdfrwt>
<pdfrwt beam="2">  1       21 0.96985162E-01 0.24050749E+03</pdfrwt>
<totfact> 0.39178638E+01</totfact>
</mgrwt>
</event>
<event>
 5    0  0.1283376E+001  0.3271971E+03  0.7546771E-02  0.1072384E+00
         21   -1    0    0  504  501  0.00000000000E+00  0.00000000000E+00  0.38446005620E+03  0.38446005620E+03  0.00000000000E+00 0.  1.
         21   -1    0    0  503  502 -0.00000000000E+00 -0.00000000000E+00 -0.34360564119E+03  0.34360564119E+03  0.00000000000E+00 0.  1.
         25    1    1    2    0    0 -0.26308207707E+03 -0.14078728838E+03  0.43685778515E+01  0.32353875242E+03  0.12500000000E+03 0.  0.
         21    1    1    2  503  501  0.23932918124E+03  0.19291252276E+03  0.95886579348E+02  0.32200610946E+03  0.00000000000E+00 0.  1.
         21    1    1    2  504  502  0.23752895838E+02 -0.52125234379E+02 -0.59400742193E+02  0.82520835507E+02  0.00000000000E+00 0.  1.
<mgrwt>
<rscale>  4 0.32719710E+03</rscale>
<asrwt>0</asrwt>
<pdfrwt beam="1">  1       21 0.59147701E-01 0.32719710E+03</pdfrwt>
<pdfrwt beam="2">  1       21 0.52862406E-01 0.32719710E+03</pdfrwt>
<totfact> 0.84134794E+03</totfact>
</mgrwt>
</event>
<event>
 5    0  0.1283376E+001  0.2955844E+03  0.7546771E-02  0.1087469E+00
         21   -1    0    0  503  501  0.00000000000E+00  0.00000000000E+00  0.11441271990E+03  0.11441271990E+03  0.00000000000E+00 0.  1.
         21   -1    0    0  504  502 -0.00000000000E+00 -0.00000000000E+00 -0.10751589129E+04  0.10751589129E+04  0.00000000000E+00 0. -1.
         25    1    1    2    0    0 -0.12138228397E+03  0.23448192531E+03 -0.30353946493E+03  0.42127976326E+03  0.12500000000E+03 0.  0.
         21    1    1    2  503  502  0.22237975053E+02 -0.28547032073E+03 -0.48112923842E+03  0.55988675249E+03  0.00000000000E+00 0. -1.
         21    1    1    2  504  501  0.99144308915E+02  0.50988395413E+02 -0.17607748966E+03  0.20840511708E+03  0.00000000000E+00 0. -1.
<mgrwt>
<rscale>  4 0.29558441E+03</rscale>
<asrwt>0</asrwt>
<pdfrwt beam="1">  1       21 0.17601957E-01 0.29558441E+03</pdfrwt>
<pdfrwt beam="2">  1       21 0.16540906E+00 0.29558441E+03</pdfrwt>
<totfact> 0.62715419E+03</totfact>
</mgrwt>
</event>
<event>
 5    0  0.1283376E+001  0.2794211E+03  0.7546771E-02  0.1096006E+00
         21   -1    0    0  504  501  0.00000000000E+00  0.00000000000E+00  0.40095428007E+02  0.40095428007E+02  0.00000000000E+00 0.  1.
         21   -1    0    0  501  502 -0.00000000000E+00 -0.00000000000E+00 -0.19747333362E+04  0.19747333362E+04  0.00000000000E+00 0.  1.
         25    1    1    2    0    0 -0.24734383145E+03 -0.35667299078E+02 -0.73021456520E+03  0.78185001018E+03  0.12500000000E+03 0.  0.
         21    1    1    2  503  502  0.62447443129E+02  0.38460939175E+02 -0.46698939231E+03  0.47271346451E+03  0.00000000000E+00 0. -1.
         21    1    1    2  504  503  0.18489638832E+03 -0.27936400973E+01 -0.73743395064E+03  0.76026528948E+03  0.00000000000E+00 0.  1.
<mgrwt>
<rscale>  4 0.27942106E+03</rscale>
<asrwt>0</asrwt>
<pdfrwt beam="1">  1       21 0.61685274E-02 0.27942106E+03</pdfrwt>
<pdfrwt beam="2">  1       21 0.30380513E+00 0.27942106E+03</pdfrwt>
<totfact> 0.56162953E+03</totfact>
</mgrwt>
</event>
<event>
 5    0  0.1283376E+001  0.2359441E+03  0.7546771E-02  0.1122525E+00
         21   -1    0    0  503  501  0.00000000000E+00  0.00000000000E+00  0.75820953184E+02  0.75820953184E+02  0.00000000000E+00 0.  1.
         21   -1    0    0  504  502 -0.00000000000E+00 -0.00000000000E+00 -0.91081983253E+03  0.91081983253E+03  0.00000000000E+00 0.  1.
         25    1    1    2    0    0  0.13869797955E+03 -0.17819171304E+03 -0.38772364574E+03  0.46577252130E+03  0.12500000000E+03 0.  0.
         21    1    1    2  503  502 -0.11605428028E+03  0.14454924664E+03 -0.20983121775E+03  0.27998610791E+03  0.00000000000E+00 0.  1.
         21    1    1    2  504  501 -0.22643699261E+02  0.33642466404E+02 -0.23744401585E+03  0.24088215651E+03  0.00000000000E+00 0. -1.
<mgrwt>
<rscale>  4 0.23594406E+03</rscale>
<asrwt>0</asrwt>
<pdfrwt beam="1">  1       21 0.11664762E-01 0.23594406E+03</pdfrwt>
<pdfrwt beam="2">  1       21 0.14012613E+00 0.23594406E+03</pdfrwt>
<totfact> 0.21461529E+04</totfact>
</mgrwt>
</event>
<event>
 5    0  0.1283376E+001  0.2454089E+03  0.7546771E-02  0.1116241E+00
         21   -1    0    0  504  501  0.00000000000E+00  0.00000000000E+00  0.16809138906E+04  0.16809138906E+04  0.00000000000E+00 0.  1.
         21   -1    0    0  501  502 -0.00000000000E+00 -0.00000000000E+00 -0.37336066024E+02  0.37336066024E+02  0.00000000000E+00 0. -1.
         25    1    1    2    0    0  0.11925382274E+03 -0.17429591025E+03  0.11373067242E+04  0.11634827560E+04  0.12500000000E+03 0.  0.
         21    1    1    2  503  502 -0.11873173300E+03  0.10798609501E+03  0.35384504526E+03  0.38854155144E+03  0.00000000000E+00 0. -1.
         21    1    1    2  504  503 -0.52208974619E+00  0.66309815238E+02  0.15242605513E+03  0.16622564922E+03  0.00000000000E+00 0.  1.
<mgrwt>
<rscale>  4 0.24540892E+03</rscale>
<asrwt>0</asrwt>
<pdfrwt beam="1">  1       21 0.25860208E+00 0.24540892E+03</pdfrwt>
<pdfrwt beam="2">  1       21 0.57440114E-02 0.24540892E+03</pdfrwt>
<totfact> 0.12020778E+04</totfact>
</mgrwt>
</event>
<event>
 5    0  0.1283376E+001  0.2499798E+03  0.7546771E-02  0.1113318E+00
         21   -1    0    0  504  501  0.00000000000E+00  0.00000000000E+00  0.55710646245E+03  0.55710646245E+03  0.00000000000E+00 0. -1.
         21   -1    0    0  501  502 -0.00000000000E+00 -0.00000000000E+00 -0.85024725122E+03  0.85024725122E+03  0.00000000000E+00 0.  1.
         25    1    1    2    0    0 -0.14482683897E+03 -0.16090397505E+03  0.51259612642E+03  0.57030228063E+03  0.12500000000E+03 0.  0.
         21    1    1    2  503  502  0.66872137607E+01  0.42694173119E+02 -0.11716525150E+03  0.12488077276E+03  0.00000000000E+00 0.  1.
         21    1    1    2  504  503  0.13813962521E+03  0.11820980193E+03 -0.68857166369E+03  0.71217066028E+03  0.00000000000E+00 0.  1.
<mgrwt>
<rscale>  4 0.24997980E+03</rscale>
<asrwt>0</asrwt>
<pdfrwt beam="1">  1       21 0.85708686E-01 0.24997980E+03</pdfrwt>
<pdfrwt beam="2">  1       21 0.13080727E+00 0.24997980E+03</pdfrwt>
<totfact> 0.47231161E+02</totfact>
</mgrwt>
</event>
<event>
 5    0  0.1283376E+001  0.2752621E+03  0.7546771E-02  0.1098305E+00
         21   -1    0    0  503  501  0.00000000000E+00  0.00000000000E+00  0.80183432870E+03  0.80183432870E+03  0.00000000000E+00 0.  1.
         21   -1    0    0  504  502 -0.00000000000E+00 -0.00000000000E+00 -0.11096011808E+03  0.11096011808E+03  0.00000000000E+00 0.  1.
         25    1    1    2    0    0 -0.14199990020E+03  0.19136577453E+03  0.38315440069E+03  0.46820628583E+03  0.12500000000E+03 0.  0.
         21    1    1    2  503  502  0.39427124377E+02  0.44241685641E+02  0.30715925543E+02  0.66747980995E+02  0.00000000000E+00 0.  1.
         21    1    1    2  504  501  0.10257277582E+03 -0.23560746017E+03  0.27700388439E+03  0.37784017996E+03  0.00000000000E+00 0.  1.
<mgrwt>
<rscale>  4 0.27526207E+03</rscale>
<asrwt>0</asrwt>
<pdfrwt beam="1">  1       21 0.12335912E+00 0.27526207E+03</pdfrwt>
<pdfrwt beam="2">  1       21 0.17070788E-01 0.27526207E+03</pdfrwt>
<totfact> 0.14544706E+04</totfact>
</mgrwt>
</event>
<event>
 5    0  0.1283376E+001  0.3051697E+03  0.7546771E-02  0.1082685E+00
         21   -1    0    0  504  501  0.00000000000E+00  0.00000000000E+00  0.13173702457E+04  0.13173702457E+04  0.00000000000E+00 0.  1.
         21   -1    0    0  501  502 -0.00000000000E+00 -0.00000000000E+00 -0.92290165187E+02  0.92290165187E+02  0.00000000000E+00 0.  1.
         25    1    1    2    0    0 -0.15428543117E+03 -0.24235640412E+03  0.90835876318E+03  0.96087525909E+03  0.12500000000E+03 0.  0.
         21    1    1    2  503  502 -0.18140655143E+02  0.43168616109E+02  0.17193010492E+02  0.49881984679E+02  0.00000000000E+00 0. -1.
         21    1    1    2  504  503  0.17242608632E+03  0.19918778802E+03  0.29952830685E+03  0.39890316713E+03  0.00000000000E+00 0.  1.
<mgrwt>
<rscale>  4 0.30516966E+03</rscale>
<asrwt>0</asrwt>
<pdfrwt beam="1">  1       21 0.20267233E+00 0.30516966E+03</pdfrwt>
<pdfrwt beam="2">  1       21 0.14198488E-01 0.30516966E+03</pdfrwt>
<totfact> 0.51477416E+03</totfact>
</mgrwt>
</event>
<event>
 5    0  0.1283376E+001  0.3023123E+03  0.7546771E-02  0.1084090E+00
         21   -1    0    0  504  501  0.00000000000E+00  0.00000000000E+00  0.51617339254E+03  0.51617339254E+03  0.00000000000E+00 0.  1.
         21   -1    0    0  503  502 -0.00000000000E+00 -0.00000000000E+00 -0.32082802192E+03  0.32082802192E+03  0.00000000000E+00 0. -1.
         25    1    1    2    0    0  0.18149765586E+03  0.20992358076E+03  0.38431798102E+03  0.49023934907E+03  0.12500000000E+03 0.  0.
         21    1    1    2  503  501 -0.15687528747E+03 -0.21440213349E+03 -0.17079421132E+03  0.31583032357E+03  0.00000000000E+00 0. -1.
         21    1    1    2  504  502 -0.24622368383E+02  0.44785527261E+01 -0.18178399083E+02  0.30931741828E+02  0.00000000000E+00 0. -1.
<mgrwt>
<rscale>  4 0.30231234E+03</rscale>
<asrwt>0</asrwt>
<pdfrwt beam="1">  1       21 0.79411291E-01 0.30231234E+03</pdfrwt>
<pdfrwt beam="2">  1       21 0.49358157E-01 0.30231234E+03</pdfrwt>
<totfact> 0.51088350E+03</totfact>
</mgrwt>
</event>
<event>
 5    0  0.1283376E+001  0.2626002E+03  0.7546771E-02  0.1105591E+00
         21   -1    0    0  504  501  0.00000000000E+00  0.00000000000E+00  0.77484306983E+03  0.77484306983E+03  0.00000000000E+00 0.  1.
         21   -1    0    0  501  502 -0.00000000000E+00 -0.00000000000E+00 -0.12569375652E+03  0.12569375652E+03  0.00000000000E+00 0.  1.
         25    1    1    2    0    0  0.19900264942E+03 -0.10008251825E+03  0.39008481881E+03  0.46627216387E+03  0.12500000000E+03 0.  0.
         21    1    1    2  503  502  0.29265486286E+02  0.21853843149E+02 -0.37222432066E+02  0.52149483189E+02  0.00000000000E+00 0.  1.
         21    1    1    2  504  503 -0.22826813571E+03  0.78228675097E+02  0.29628692656E+03  0.38211517928E+03  0.00000000000E+00 0.  1.
<mgrwt>
<rscale>  4 0.26260023E+03</rscale>
<asrwt>0</asrwt>
<pdfrwt beam="1">  1       21 0.11920662E+00 0.26260023E+03</pdfrwt>
<pdfrwt beam="2">  1       21 0.19337502E-01 0.26260023E+03</pdfrwt>
<totfact> 0.12644472E+04</totfact>
</mgrwt>
</event>
<event>
 5    0  0.1283376E+001  0.2172491E+03  0.7546771E-02  0.1135951E+00
         21   -1    0    0  503  501  0.00000000000E+00  0.00000000000E+00  0.59564321304E+03  0.59564321304E+03  0.00000000000E+00 0.  1.
         21   -1    0    0  504  502 -0.00000000000E+00 -0.00000000000E+00 -0.63813900529E+03  0.63813900529E+03  0.00000000000E+00 0. -1.
         25    1    1    2    0    0 -0.10694319873E+03  0.18580512120E+03  0.34178757093E+03  0.42237913592E+03  0.12500000000E+03 0.  0.
         21    1    1    2  503  502  0.16579240603E+03 -0.18824346335E+02 -0.54642215853E+03  0.57133059891E+03  0.00000000000E+00 0. -1.
         21    1    1    2  504  501 -0.58849207309E+02 -0.16698077487E+03  0.16213879535E+03  0.24007248350E+03  0.00000000000E+00 0.  1.
<mgrwt>
<rscale>  4 0.21724910E+03</rscale>
<asrwt>0</asrwt>
<pdfrwt beam="1">  1       21 0.91637417E-01 0.21724910E+03</pdfrwt>
<pdfrwt beam="2">  1       21 0.98175232E-01 0.21724910E+03</pdfrwt>
<totfact> 0.84313162E+02</totfact>
</mgrwt>
</event>
<event>
 5    0  0.1283376E+001  0.3496300E+03  0.7546771E-02  0.1062767E+00
         21   -1    0    0  503  501  0.00000000000E+00  0.00000000000E+00  0.18750576774E+04  0.18750576774E+04  0.00000000000E+00 0. -1.
         21   -1    0    0  504  502 -0.00000000000E+00 -0.00000000000E+00 -0.11463142996E+03  0.11463142996E+03  0.00000000000E+00 0. -1.
         25    1    1    2    0    0 -0.32717572789E+03 -0.87223070693E+02  0.12443965211E+04  0.12956849627E+04  0.12500000000E+03 0.  0.
         21    1    1    2  503  502  0.25661407507E+03  0.18747759747E+03  0.46025882896E+03  0.55931817663E+03  0.00000000000E+00 0. -1.
         21    1    1    2  504  501  0.70561652822E+02 -0.10025452678E+03  0.55770897467E+02  0.13468596806E+03  0.00000000000E+00 0. -1.
<mgrwt>
<rscale>  4 0.34963001E+03</rscale>
<asrwt>0</asrwt>
<pdfrwt beam="1">  1       21 0.28847039E+00 0.34963001E+03</pdfrwt>
<pdfrwt beam="2">  1       21 0.17635606E-01 0.34963001E+03</pdfrwt>
<totfact> 0.99805664E+02</totfact>
</mgrwt>
</event>
<event>
 5    0  0.1283376E+001  0.2622799E+03  0.7546771E-02  0.1105781E+00
         21   -1    0    0  503  501  0.00000000000E+00  0.00000000000E+00  0.11032901076E+03  0.11032901076E+03  0.00000000000E+00 0.  1.
         21   -1    0    0  504  502 -0.00000000000E+00 -0.00000000000E+00 -0.21870954970E+04  0.21870954970E+04  0.00000000000E+00 0. -1.
         25    1    1    2    0    0 -0.19649761598E+03  0.12063709205E+03 -0.68612952412E+02  0.27110396217E+03  0.12500000000E+03 0.  0.
         21    1    1    2  503  502 -0.17950171074E+02 -0.29601797454E+02 -0.17225219983E+03  0.17569660043E+03  0.00000000000E+00 0. -1.
         21    1    1    2  504  501  0.21444778705E+03 -0.91035294600E+02 -0.18359013340E+04  0.18506239452E+04  0.00000000000E+00 0. -1.
<mgrwt>
<rscale>  4 0.26227990E+03</rscale>
<asrwt>0</asrwt>
<pdfrwt beam="1">  1       21 0.16973693E-01 0.26227990E+03</pdfrwt>
<pdfrwt beam="2">  1       21 0.33647625E+00 0.26227990E+03</pdfrwt>
<totfact> 0.60110494E+02</totfact>
</mgrwt>
</event>
