<event>
 5    0  0.1911311E+001  0.2539481E+03  0.7546771E-02  0.1110835E+00
         21   -1    0    0  502  501  0.00000000000E+00  0.00000000000E+00  0.47703874823E+03  0.47703874823E+03  0.00000000000E+00 0. -1.
         21   -1    0    0  504  502 -0.00000000000E+00 -0.00000000000E+00 -0.17418889035E+04  0.17418889035E+04  0.00000000000E+00 0. -1.
         25    1    1    2    0    0 -0.75080237152E+02  0.28284430467E+03  0.38288530764E+03  0.49785951985E+03  0.12500000000E+03 0.  0.
         21    1    1    2  503  501  0.11902408710E+02 -0.72260081034E+02 -0.16482255636E+02  0.75065647236E+02  0.00000000000E+00 0. -1.
         21    1    1    2  504  503  0.63177828442E+02 -0.21058422363E+03 -0.16312532073E+04  0.16460024846E+04  0.00000000000E+00 0. -1.
<mgrwt>
<rscale>  4 0.25394810E+03</rscale>
<asrwt>0</asrwt>
<pdfrwt beam="1">  1       21 0.73390577E-01 0.25394810E+03</pdfrwt>
<pdfrwt beam="2">  1       21 0.26798291E+00 0.25394810E+03</pdfrwt>
<totfact> 0.80008254E+01</totfact>
</mgrwt>
</event>
<event>
 5    0  0.1911311E+001  0.2900317E+03  0.7546771E-02  0.1090333E+00
         21   -1    0    0  504  501  0.00000000000E+00  0.00000000000E+00  0.73953982773E+03  0.73953982773E+03  0.00000000000E+00 0. -1.
         21   -1    0    0  503  502 -0.00000000000E+00 -0.00000000000E+00 -0.12651581377E+04  0.12651581377E+04  0.00000000000E+00 0.  1.
         25    1    1    2    0    0  0.17889584309E+03  0.14780467613E+03 -0.38531499168E+03  0.46684321541E+03  0.12500000000E+03 0.  0.
         21    1    1    2  503  501  0.28114077772E+02  0.15137581286E+02 -0.81392455245E+03  0.81455062754E+03  0.00000000000E+00 0.  1.
         21    1    1    2  504  502 -0.20700992087E+03 -0.16294225741E+03  0.67362123412E+03  0.72330412252E+03  0.00000000000E+00 0. -1.
<mgrwt>
<rscale>  4 0.29003167E+03</rscale>
<asrwt>0</asrwt>
<pdfrwt beam="1">  1       21 0.11377536E+00 0.29003167E+03</pdfrwt>
<pdfrwt beam="2">  1       21 0.19463971E+00 0.29003167E+03</pdfrwt>
<totfact> 0.77925352E+01</totfact>
</mgrwt>
</event>
<event>
 5    0  0.1911311E+001  0.2086165E+03  0.7546771E-02  0.1142666E+00
         21   -1    0    0  503  501  0.00000000000E+00  0.00000000000E+00  0.10780236439E+03  0.10780236439E+03  0.00000000000E+00 0.  1.
         21   -1    0    0  504  502 -0.00000000000E+00 -0.00000000000E+00 -0.95843694037E+03  0.95843694037E+03  0.00000000000E+00 0.  1.
         25    1    1    2    0    0 -0.25223129552E+03 -0.10431862697E+03 -0.43816116529E+03  0.53114330377E+03  0.12500000000E+03 0.  0.
         21    1    1    2  503  502  0.12878114263E+03  0.29279768961E+02 -0.35647912743E+03  0.38015688322E+03  0.00000000000E+00 0.  1.
         21    1    1    2  504  501  0.12345015289E+03  0.75038858006E+02 -0.55994283255E+02  0.15493911777E+03  0.00000000000E+00 0.  1.
<mgrwt>
<rscale>  4 0.20861655E+03</rscale>
<asrwt>0</asrwt>
<pdfrwt beam="1">  1       21 0.16584978E-01 0.20861655E+03</pdfrwt>
<pdfrwt beam="2">  1       21 0.14745184E+00 0.20861655E+03</pdfrwt>
<totfact> 0.10086822E+04</totfact>
</mgrwt>
</event>
