<LesHouchesEvents version="3.0">
  <!--
  <scalesfunctionalform>
    muR  H_T/2 := sum_i mT(i)/2, i=final state
    muF1 H_T/2 := sum_i mT(i)/2, i=final state
    muF2 H_T/2 := sum_i mT(i)/2, i=final state
    QES  H_T/2 := sum_i mT(i)/2, i=final state
  </scalesfunctionalform>
HERWIG6   
  -->
  <header>
       11
  </header>
  <init>
   2212   2212 0.65000000D+04 0.65000000D+04 -1 -1   244800   244800 -4   1
 0.12910825D-04 0.55316517D-06 0.24339899D-05     66
  </init>
  <event>
  5     66 0.24339899E-05 0.87435116E+02 0.75467711E-02 0.95175371E-01
       -2 -1    0    0    0  501 0.00000000E+00 0.00000000E+00 0.14896390E+04 0.14896391E+04 0.32000000E+00 0.0000E+00 0.9000E+01
        3 -1    0    0  502    0 0.00000000E+00 0.00000000E+00 -.40574297E+03 0.40574327E+03 0.50000000E+00 0.0000E+00 0.9000E+01
       25  1    1    2    0    0 0.46546425E+03 -.43369721E+02 0.11158925E+03 0.49660352E+03 0.12500000E+03 0.0000E+00 0.9000E+01
       -2  1    1    2    0  501 -.37830095E+03 0.50211104E+02 0.11440724E+04 0.12060409E+04 0.32000000E+00 0.0000E+00 0.9000E+01
        3  1    1    2  502    0 -.87163299E+02 -.68413831E+01 -.17176560E+03 0.19273795E+03 0.50000000E+00 0.0000E+00 0.9000E+01
#aMCatNLO 1  0  0  1  4 0.21105075D+03 0.00000000D+00  -5  6  0 0.00000000D+00 0.00000000D+00 0.00000000D+00 0.00000000D+00 0.00000000D+00
  <mgrwgt>
 0.1226270419D-03    7    2    0
 0.777438672314006D+03 0.000000000000000D+00 0.000000000000000D+00 0.777438672314006D+03
 0.777438672314006D+03 0.000000000000000D+00 0.000000000000000D+00 -.777438672314006D+03
 0.527560098266520D+03 0.465464492226453D+03 -.433691317176727D+02 -.210134676275492D+03
 0.672621017352542D+03 -.378297449604954D+03 0.502106399824114D+02 0.553885334919885D+03
 0.354696229008949D+03 -.871670426214991D+02 -.684150826473866D+01 -.343750658644393D+03
 0.000000000000000D+00 0.000000000000000D+00 -.000000000000000D+00 0.000000000000000D+00
 0.945141017798915D+03 0.000000000000000D+00 0.000000000000000D+00 0.945141017798915D+03
 0.893116096184963D+03 0.000000000000000D+00 0.000000000000000D+00 -.893116096184963D+03
 0.463886758891775D+03 0.394199349890167D+03 -.402684093049034D+01 -.210134676275492D+03
 0.740516373057444D+03 -.479873682905995D+03 0.106286325466049D+03 0.553885334919885D+03
 0.371580482476676D+03 -.139371770334191D+03 0.219783819481605D+02 -.343750658644393D+03
 0.262273499557983D+03 0.225046103350018D+03 -.124237866483719D+03 0.520249216139512D+02
0.537693725498D-03 0.000000000000D+00 0.000000000000D+00 0.320091195065D-05 0.000000000000D+00  6 -2 3 25 -2 3 21 0 0.22917526D+00 0.62422021D-01 0.22703042D+06 0.22703042D+06 0.22703042D+06 0.10936220D+01  1  2  2  1  6  1       -2 0.713684014330D-04 0.100000000000D+01
0.907087877520D-04 0.000000000000D+00 -.206488548392D-05 0.320091195065D-05 0.000000000000D+00  6 -2 3 25 -2 3 21 2 0.22917526D+00 0.62422021D-01 0.22703042D+06 0.22703042D+06 0.22703042D+06 0.10936220D+01  1  2  3  1  6  1       -2 0.143997451114D-04 0.100000000000D+01
-.325039732353D-03 0.000000000000D+00 0.000000000000D+00 0.320091195065D-05 0.000000000000D+00  6 -2 3 25 -2 3 21 2 0.22917526D+00 0.62422021D-01 0.22703042D+06 0.22703042D+06 0.22703042D+06 0.10936220D+01  1  2 15  1  6  1       -2 -.515990722946D-04 0.100000000000D+01
-.179673428037D-04 0.000000000000D+00 0.000000000000D+00 0.320091195065D-05 0.000000000000D+00  6 -2 3 25 -2 3 21 2 0.22917526D+00 0.62422021D-01 0.22703042D+06 0.22703042D+06 0.22703042D+06 0.10936220D+01  1  2  4  1  6  1       -2 -.285226120990D-05 0.100000000000D+01
-.843021479864D-03 0.000000000000D+00 -.397329210968D-03 0.320091195065D-05 0.000000000000D+00  6 -2 3 25 -2 3 21 2 0.29980307D+00 0.62422021D-01 0.22703042D+06 0.22703042D+06 0.22703042D+06 0.10936220D+01  1  2  5  1  6  1       -2 -.471087238504D-04 0.100000000000D+01
0.929920705901D-03 0.000000000000D+00 0.383411038497D-03 0.320091195065D-05 0.000000000000D+00  6 -2 3 25 -2 3 21 2 0.22917526D+00 0.62422021D-01 0.22703042D+06 0.22703042D+06 0.22703042D+06 0.10936220D+01  1  2  6  1  6  1       -2 0.147622093412D-03 0.100000000000D+01
-.225937667570D-04 0.000000000000D+00 -.141756167068D-04 0.320091195065D-05 0.000000000000D+00  6 21 3 25 -2 3 2 2 0.29980307D+00 0.62422021D-01 0.22703042D+06 0.22703042D+06 0.22703042D+06 0.10936220D+01  1  2  5  5  6  1       -2 -.920314065928D-05 0.100000000000D+01
  </mgrwgt>
  </event>
  <event>
  5     66 0.24339899E-05 0.37205467E+02 0.75467711E-02 0.92783461E-01
       -2 -1    0    0    0  501 0.00000000E+00 0.00000000E+00 0.61696781E+03 0.61696789E+03 0.32000000E+00 0.0000E+00 0.9000E+01
        3 -1    0    0  502    0 0.00000000E+00 0.00000000E+00 -.10284791E+04 0.10284793E+04 0.50000000E+00 0.0000E+00 0.9000E+01
       25  1    1    2    0    0 0.32655299E+03 -.39184734E+03 0.26463405E+03 0.58807939E+03 0.12500000E+03 0.0000E+00 0.9000E+01
       -2  1    1    2    0  501 -.22525168E+02 -.29692082E+02 0.10932975E+03 0.11550800E+03 0.32000000E+00 0.0000E+00 0.9000E+01
        3  1    1    2  502    0 -.30402782E+03 0.42153942E+03 -.78547512E+03 0.94185976E+03 0.50000000E+00 0.0000E+00 0.9000E+01
#aMCatNLO 1  0  0  2  5 0.18523027D+02 0.00000000D+00  -5  6  0 0.00000000D+00 0.00000000D+00 0.00000000D+00 0.00000000D+00 0.00000000D+00
  <mgrwgt>
 0.7930128484D-05    4    2    0
 0.796579368766699D+03 0.000000000000000D+00 0.000000000000000D+00 0.796579368766699D+03
 0.796579368766699D+03 0.000000000000000D+00 0.000000000000000D+00 -.796579368766699D+03
 0.675950590202477D+03 0.326581274021824D+03 -.391972926474201D+03 0.425424607615274D+03
 0.147285650839117D+03 -.224865701315146D+02 -.296412036805729D+02 0.142509003754814D+03
 0.769922496491804D+03 -.304094703890309D+03 0.421614130154774D+03 -.567933611370088D+03
 0.000000000000000D+00 -.000000000000000D+00 0.000000000000000D+00 0.000000000000000D+00
 0.875607680685484D+03 0.000000000000000D+00 0.000000000000000D+00 0.875607680685484D+03
 0.827226385706356D+03 0.000000000000000D+00 0.000000000000000D+00 -.827226385706356D+03
 0.700731676881987D+03 0.326877324620966D+03 -.433087751927794D+03 0.425424607615274D+03
 0.149311014028941D+03 -.224227880792304D+02 -.384991082223330D+02 0.142509003754814D+03
 0.745960694920140D+03 -.303768718630109D+03 0.376342047908134D+03 -.567933611370088D+03
 0.106830680560772D+03 -.685817911626518D+00 0.952448122419929D+02 0.483812949791282D+02
0.101636609512D-03 0.000000000000D+00 0.000000000000D+00 0.133879566725D-05 0.000000000000D+00  6 -2 3 25 -2 3 21 0 0.94918140D-01 0.15822758D+00 0.29285836D+06 0.29285836D+06 0.29285836D+06 0.10853269D+01  1  2  2  2  6  2        3 0.157393131879D-04 0.100000000000D+01
0.260662955765D-04 0.000000000000D+00 -.390311342060D-06 0.133879566725D-05 0.000000000000D+00  6 -2 3 25 -2 3 21 2 0.94918140D-01 0.15822758D+00 0.29285836D+06 0.29285836D+06 0.29285836D+06 0.10853269D+01  1  2  3  2  6  2        3 0.475484130082D-05 0.100000000000D+01
-.672205670328D-04 0.000000000000D+00 0.000000000000D+00 0.133879566725D-05 0.000000000000D+00  6 -2 3 25 -2 3 21 2 0.94918140D-01 0.15822758D+00 0.29285836D+06 0.29285836D+06 0.29285836D+06 0.10853269D+01  1  2 15  2  6  2        3 -.122619314069D-04 0.100000000000D+01
-.165609882102D-05 0.000000000000D+00 0.000000000000D+00 0.133879566725D-05 0.000000000000D+00  6 -2 3 25 -2 3 21 2 0.94918140D-01 0.15822758D+00 0.29285836D+06 0.29285836D+06 0.29285836D+06 0.10853269D+01  1  2  4  2  6  2        3 -.302094597574D-06 0.100000000000D+01
  </mgrwgt>
  </event>
  <event>
  5     66 0.24339899E-05 0.47288835E+02 0.75467711E-02 0.94160924E-01
       -2 -1    0    0    0  501 0.00000000E+00 0.00000000E+00 0.15515981E+03 0.15516014E+03 0.32000000E+00 0.0000E+00 0.9000E+01
        3 -1    0    0  502    0 0.00000000E+00 0.00000000E+00 -.38183745E+04 0.38183745E+04 0.50000000E+00 0.0000E+00 0.9000E+01
       25  1    1    2    0    0 -.47099631E+03 0.57665480E+00 -.18496491E+04 0.19127637E+04 0.12500000E+03 0.0000E+00 0.9000E+01
       -2  1    1    2    0  501 0.48886721E+03 -.44366004E+02 -.36567795E+03 0.61211107E+03 0.32000000E+00 0.0000E+00 0.9000E+01
        3  1    1    2  502    0 -.17870901E+02 0.43789349E+02 -.14478876E+04 0.14486600E+04 0.50000000E+00 0.0000E+00 0.9000E+01
#aMCatNLO 1  0  0  2  1 0.15438197D+02 0.00000000D+00  -5  6  0 0.00000000D+00 0.00000000D+00 0.00000000D+00 0.00000000D+00 0.00000000D+00
  <mgrwgt>
 0.3368112976D-04    7    2    0
 0.769713564336116D+03 0.000000000000000D+00 0.000000000000000D+00 0.769713564336116D+03
 0.769713564336116D+03 0.000000000000000D+00 0.000000000000000D+00 -.769713564336116D+03
 0.535801406360140D+03 -.471009006982566D+03 0.583915315930430D+00 -.222729255917817D+03
 0.709816310014684D+03 0.488877450205544D+03 -.443669329583350D+02 0.512708111797794D+03
 0.293809412297408D+03 -.178684432229772D+02 0.437830176424046D+02 -.289978855879976D+03
 0.000000000000000D+00 0.000000000000000D+00 -.000000000000000D+00 -.000000000000000D+00
 0.775306946833976D+03 0.000000000000000D+00 0.000000000000000D+00 0.775306946833976D+03
 0.780479169766346D+03 0.000000000000000D+00 0.000000000000000D+00 -.780479169766346D+03
 0.538973615561934D+03 -.474592450691804D+03 0.460896697170935D+01 -.222729255917817D+03
 0.706259636882016D+03 0.484156063552331D+03 -.390637032418758D+02 0.512708111797794D+03
 0.294271285517837D+03 -.198291829444320D+02 0.459853903605942D+02 -.289978855879976D+03
 0.162815786385351D+02 0.102655700839050D+02 -.115306540904278D+02 -.517222293237029D+01
0.820533350915D-03 0.000000000000D+00 0.000000000000D+00 0.323913530169D-05 0.000000000000D+00  6 -2 3 25 -2 3 21 0 0.23870767D-01 0.58744226D+00 0.26290705D+06 0.26290705D+06 0.26290705D+06 0.10888182D+01  1  2  2  2  6  2        3 0.854296299880D-05 0.100000000000D+01
0.244410766391D-03 0.000000000000D+00 -.315106411891D-05 0.323913530169D-05 0.000000000000D+00  6 -2 3 25 -2 3 21 2 0.23870767D-01 0.58744226D+00 0.26290705D+06 0.26290705D+06 0.26290705D+06 0.10888182D+01  1  2  3  2  6  2        3 0.301677820428D-05 0.100000000000D+01
-.523501936435D-03 0.000000000000D+00 0.000000000000D+00 0.323913530169D-05 0.000000000000D+00  6 -2 3 25 -2 3 21 2 0.23870767D-01 0.58744226D+00 0.26290705D+06 0.26290705D+06 0.26290705D+06 0.10888182D+01  1  2 15  2  6  2        3 -.646161891741D-05 0.100000000000D+01
-.216708698165D-04 0.000000000000D+00 0.000000000000D+00 0.323913530169D-05 0.000000000000D+00  6 -2 3 25 -2 3 21 2 0.23870767D-01 0.58744226D+00 0.26290705D+06 0.26290705D+06 0.26290705D+06 0.10888182D+01  1  2  4  2  6  2        3 -.267484974968D-06 0.100000000000D+01
-.497779900165D-01 0.000000000000D+00 -.601149666414D-02 0.323913530169D-05 0.000000000000D+00  6 -2 3 25 -2 3 21 2 0.23870767D-01 0.59664991D+00 0.26290705D+06 0.26290705D+06 0.26290705D+06 0.10888182D+01  1  2  5  2  6  2        3 -.584473579554D-03 0.100000000000D+01
0.499323986618D-01 0.000000000000D+00 0.605399121328D-02 0.323913530169D-05 0.000000000000D+00  6 -2 3 25 -2 3 21 2 0.23870767D-01 0.58744226D+00 0.26290705D+06 0.26290705D+06 0.26290705D+06 0.10888182D+01  1  2  6  2  6  2        3 0.616318888870D-03 0.100000000000D+01
-.141295062283D-03 0.000000000000D+00 -.171282401585D-04 0.323913530169D-05 0.000000000000D+00  6 -2 21 25 -2 3 -3 2 0.23870767D-01 0.59664991D+00 0.26290705D+06 0.26290705D+06 0.26290705D+06 0.10888182D+01  1  2  5  6  6  2        3 -.299481686995D-05 0.100000000000D+01
  </mgrwgt>
  </event>
  <event>
  5     66 0.24339899E-05 0.41183893E+02 0.75467711E-02 0.91390134E-01
       -4 -1    0    0    0  501 0.00000000E+00 0.00000000E+00 0.16297994E+04 0.16298001E+04 0.15500000E+01 0.0000E+00 0.9000E+01
        1 -1    0    0  502    0 0.00000000E+00 0.00000000E+00 -.14453656E+04 0.14453657E+04 0.32000000E+00 0.0000E+00 0.9000E+01
       25  1    1    2    0    0 0.17761388E+02 0.60308402E+03 0.60479133E+03 0.86337904E+03 0.12500000E+03 0.0000E+00 0.9000E+01
       -4  1    1    2    0  501 0.18402876E+02 0.36889199E+02 0.81711408E+03 0.81815482E+03 0.15500000E+01 0.0000E+00 0.9000E+01
        1  1    1    2  502    0 -.36164265E+02 -.63997322E+03 -.12374717E+04 0.13936319E+04 0.32000000E+00 0.0000E+00 0.9000E+01
#aMCatNLO 1  0  0  1  4 0.47746483D+02 0.00000000D+00  -5  6  0 0.00000000D+00 0.00000000D+00 0.00000000D+00 0.00000000D+00 0.00000000D+00
  <mgrwgt>
 0.3131151066D-03    7    2    0
 0.153481502695939D+04 0.000000000000000D+00 0.000000000000000D+00 0.153481502695939D+04
 0.153481502695939D+04 0.000000000000000D+00 0.000000000000000D+00 -.153481502695939D+04
 0.829305725528427D+03 0.177951889690730D+02 0.603437464971707D+03 0.554679676491130D+03
 0.769770330104533D+03 0.183846438117497D+02 0.368526508497179D+02 0.768667839906488D+03
 0.147055399828582D+04 -.361798327808227D+02 -.640290115821425D+03 -.132334751639762D+04
 0.000000000000000D+00 0.000000000000000D+00 0.000000000000000D+00 0.000000000000000D+00
 0.199602356593001D+04 0.000000000000000D+00 0.000000000000000D+00 0.199602356593001D+04
 0.153623691648849D+04 0.000000000000000D+00 0.000000000000000D+00 -.153623691648849D+04
 0.825933898373585D+03 0.569997989831593D+01 0.599032362397425D+03 0.554679676491130D+03
 0.769398582134300D+03 0.713758959681232D+01 0.327564481974550D+02 0.768667839906488D+03
 0.147466888667930D+04 -.577012403397202D+02 -.648128261262754D+03 -.132334751639762D+04
 0.462259115231319D+03 0.448636708445919D+02 0.163394506678736D+02 0.459786649441523D+03
0.640001403079D-03 0.000000000000D+00 0.000000000000D+00 0.523460940416D-04 0.000000000000D+00  6 -4 1 25 -4 1 21 0 0.25073842D+00 0.22236400D+00 0.42185051D+06 0.42185051D+06 0.42185051D+06 0.10737664D+01  1  2  2  1  6  1       -4 0.730356966699D-05 0.100000000000D+01
0.309981143100D-03 0.000000000000D+00 -.245777390406D-05 0.523460940416D-04 0.000000000000D+00  6 -4 1 25 -4 1 21 2 0.25073842D+00 0.22236400D+00 0.42185051D+06 0.42185051D+06 0.42185051D+06 0.10737664D+01  1  2  3  1  6  1       -4 0.407858164168D-05 0.100000000000D+01
-.462634395101D-03 0.000000000000D+00 0.000000000000D+00 0.523460940416D-04 0.000000000000D+00  6 -4 1 25 -4 1 21 2 0.25073842D+00 0.22236400D+00 0.42185051D+06 0.42185051D+06 0.42185051D+06 0.10737664D+01  1  2 15  1  6  1       -4 -.608711914473D-05 0.100000000000D+01
-.308426168788D-02 0.000000000000D+00 0.000000000000D+00 0.523460940416D-04 0.000000000000D+00  6 -4 1 25 -4 1 21 2 0.25073842D+00 0.22236400D+00 0.42185051D+06 0.42185051D+06 0.42185051D+06 0.10737664D+01  1  2  4  1  6  1       -4 -.405812204333D-04 0.100000000000D+01
-.674386437633D-01 0.000000000000D+00 -.467578883846D-03 0.523460940416D-04 0.000000000000D+00  6 -4 1 25 -4 1 21 2 0.32617361D+00 0.22236400D+00 0.42185051D+06 0.42185051D+06 0.42185051D+06 0.10737664D+01  1  2  5  1  6  1       -4 -.226200702514D-03 0.100000000000D+01
0.653054035419D-01 0.000000000000D+00 0.451858935945D-03 0.523460940416D-04 0.000000000000D+00  6 -4 1 25 -4 1 21 2 0.25073842D+00 0.22236400D+00 0.42185051D+06 0.42185051D+06 0.42185051D+06 0.10737664D+01  1  2  6  1  6  1       -4 0.859256848093D-03 0.100000000000D+01
-.236060184578D-02 0.000000000000D+00 -.164259998059D-04 0.523460940416D-04 0.000000000000D+00  6 21 1 25 -4 1 4 2 0.32617361D+00 0.22236400D+00 0.42185051D+06 0.42185051D+06 0.42185051D+06 0.10737664D+01  1  2  5  5  6  1       -4 -.284654850753D-03 0.100000000000D+01
  </mgrwgt>
  </event>
  <event>
  5     66 0.24339899E-05 0.66955618E+02 0.75467711E-02 0.89108163E-01
       -2 -1    0    0    0  501 0.00000000E+00 0.00000000E+00 0.84960742E+03 0.84960748E+03 0.32000000E+00 0.0000E+00 0.9000E+01
        3 -1    0    0  502    0 0.00000000E+00 0.00000000E+00 -.52447620E+03 0.52447644E+03 0.50000000E+00 0.0000E+00 0.9000E+01
       25  1    1    2    0    0 0.12642660E+02 -.54701712E+03 0.23076174E+03 0.60684722E+03 0.12500000E+03 0.0000E+00 0.9000E+01
       -2  1    1    2    0  501 0.35691892E+02 0.56731679E+02 0.24345319E+03 0.25251129E+03 0.32000000E+00 0.0000E+00 0.9000E+01
        3  1    1    2  502    0 -.48334552E+02 0.49028544E+03 -.14908371E+03 0.51472541E+03 0.50000000E+00 0.0000E+00 0.9000E+01
#aMCatNLO 1  0  0  1  4 0.14559246D+04 0.00000000D+00  -5  6  0 0.00000000D+00 0.00000000D+00 0.00000000D+00 0.00000000D+00 0.00000000D+00
  <mgrwgt>
 0.3229036664D-04    6    2    0
 0.667532080022875D+03 0.000000000000000D+00 0.000000000000000D+00 0.667532080022875D+03
 0.667532080022875D+03 0.000000000000000D+00 0.000000000000000D+00 -.667532080022875D+03
 0.568487109442896D+03 0.126771609546677D+02 -.547092438946620D+03 0.898985341388130D+02
 0.200393804893304D+03 0.356547707724342D+02 0.566726754225969D+02 0.188877267613722D+03
 0.566183245709550D+03 -.483319317271019D+02 0.490419763524023D+03 -.278775801752535D+03
 0.000000000000000D+00 -.000000000000000D+00 0.000000000000000D+00 0.000000000000000D+00
 0.982595774924982D+03 0.000000000000000D+00 0.000000000000000D+00 0.982595774924982D+03
 0.932102398497359D+03 0.000000000000000D+00 0.000000000000000D+00 -.932102398497359D+03
 0.780345969125421D+03 0.135543674706481D+03 -.752901718245515D+03 0.898985341388130D+02
 0.202311989901600D+03 0.723376323216343D+02 -.477346696012037D+01 0.188877267613722D+03
 0.439476323356608D+03 0.432745741004844D+02 0.336972999489121D+03 -.278775801752535D+03
 0.492563891038713D+03 -.251155881128600D+03 0.420702185716514D+03 0.504933764276228D+02
0.722236172854D-04 0.000000000000D+00 0.000000000000D+00 0.247764231124D-06 0.000000000000D+00  6 -2 3 25 -2 3 21 0 0.13070886D+00 0.80688669D-01 0.31420802D+06 0.31420802D+06 0.31420802D+06 0.10830682D+01  1  2  2  1  6  1       -2 0.283525258958D-04 0.100000000000D+01
0.140958120015D-04 0.000000000000D+00 -.277357707291D-06 0.247764231124D-06 0.000000000000D+00  6 -2 3 25 -2 3 21 2 0.13070886D+00 0.80688669D-01 0.31420802D+06 0.31420802D+06 0.31420802D+06 0.10830682D+01  1  2  3  1  6  1       -2 0.649103913428D-05 0.100000000000D+01
-.490851177499D-04 0.000000000000D+00 0.000000000000D+00 0.247764231124D-06 0.000000000000D+00  6 -2 3 25 -2 3 21 2 0.13070886D+00 0.80688669D-01 0.31420802D+06 0.31420802D+06 0.31420802D+06 0.10830682D+01  1  2 15  1  6  1       -2 -.226034101611D-04 0.100000000000D+01
-.302532069137D-04 0.000000000000D+00 -.357663841327D-04 0.247764231124D-06 0.000000000000D+00  6 -2 3 25 -2 3 21 2 0.23999608D+00 0.80688669D-01 0.31420802D+06 0.31420802D+06 0.31420802D+06 0.10830682D+01  1  2  5  1  6  1       -2 -.224499357042D-05 0.100000000000D+01
0.484778575251D-04 0.000000000000D+00 0.300464307871D-04 0.247764231124D-06 0.000000000000D+00  6 -2 3 25 -2 3 21 2 0.13070886D+00 0.80688669D-01 0.31420802D+06 0.31420802D+06 0.31420802D+06 0.10830682D+01  1  2  6  1  6  1       -2 0.223237703728D-04 0.100000000000D+01
-.512526305191D-07 0.000000000000D+00 -.237396797555D-05 0.247764231124D-06 0.000000000000D+00  6 21 3 25 -2 3 2 2 0.23999608D+00 0.80688669D-01 0.31420802D+06 0.31420802D+06 0.31420802D+06 0.10830682D+01  1  2  5  5  6  1       -2 -.285650324594D-07 0.100000000000D+01
  </mgrwgt>
  </event>
  <event>
  5     66 0.24339899E-05 0.19251015E+03 0.75467711E-02 0.95372089E-01
       -4 -1    0    0    0  501 0.00000000E+00 0.00000000E+00 0.97460627E+03 0.97460751E+03 0.15500000E+01 0.0000E+00 0.9000E+01
        1 -1    0    0  502    0 0.00000000E+00 0.00000000E+00 -.61243379E+03 0.61243387E+03 0.32000000E+00 0.0000E+00 0.9000E+01
       25  1    1    2    0    0 0.19738473E+03 0.40751281E+03 0.75669434E+02 0.47579227E+03 0.12500000E+03 0.0000E+00 0.9000E+01
       -4  1    1    2    0  501 -.13032430E+03 -.14190988E+03 0.63751427E+03 0.66599526E+03 0.15500000E+01 0.0000E+00 0.9000E+01
        1  1    1    2  502    0 -.67060435E+02 -.26560293E+03 -.35101122E+03 0.44525385E+03 0.32000000E+00 0.0000E+00 0.9000E+01
#aMCatNLO 1  0  0  4  1 0.60806389D+01 0.00000000D+00  -5  6  0 0.00000000D+00 0.00000000D+00 0.00000000D+00 0.00000000D+00 0.00000000D+00
  <mgrwgt>
 0.2036757782D-03    8    2    0
 0.772581943826087D+03 0.000000000000000D+00 0.000000000000000D+00 0.772581943826087D+03
 0.772581943826087D+03 -.000000000000000D+00 -.000000000000000D+00 -.772581943826087D+03
 0.471058620782437D+03 0.197375418733600D+03 0.407693864088813D+03 -.331644610618086D+02
 0.534163891195722D+03 -.130214226189997D+03 -.141790029180277D+03 0.498267905428547D+03
 0.539941375674015D+03 -.671611925436030D+02 -.265903834908536D+03 -.465103444366738D+03
 0.000000000000000D+00 -.000000000000000D+00 0.000000000000000D+00 0.000000000000000D+00
 0.772581943826087D+03 0.000000000000000D+00 0.000000000000000D+00 0.772581943826087D+03
 0.772581943826087D+03 -.000000000000000D+00 -.000000000000000D+00 -.772581943826087D+03
 0.471041021821098D+03 0.197364626254060D+03 0.407682112177875D+03 -.331231633761991D+02
 0.324789402688822D+03 -.733293389447320D+02 -.857276299803406D+02 0.304568116530348D+03
 0.539908774327397D+03 -.671735630616711D+02 -.265917305142697D+03 -.465056108278300D+03
 0.209424688814857D+03 -.568617242476566D+02 -.560371770548376D+02 0.193611155124150D+03
0.418318314474D-05 0.000000000000D+00 0.000000000000D+00 0.146060017020D-05 0.000000000000D+00  6 -4 1 25 -4 1 21 0 0.14993953D+00 0.94220684D-01 0.21933030D+06 0.21933030D+06 0.21933030D+06 0.10947612D+01  1  2  2  3  6  4       -4 0.157428694780D-05 0.100000000000D+01
0.385729424435D-06 0.000000000000D+00 -.160645247332D-07 0.146060017020D-05 0.000000000000D+00  6 -4 1 25 -4 1 21 2 0.14993953D+00 0.94220684D-01 0.21933030D+06 0.21933030D+06 0.21933030D+06 0.10947612D+01  1  2  3  3  6  4       -4 0.173979701800D-06 0.100000000000D+01
-.251275824208D-05 0.000000000000D+00 0.000000000000D+00 0.146060017020D-05 0.000000000000D+00  6 -4 1 25 -4 1 21 2 0.14993953D+00 0.94220684D-01 0.21933030D+06 0.21933030D+06 0.21933030D+06 0.10947612D+01  1  2 15  3  6  4       -4 -.113335644615D-05 0.100000000000D+01
0.158115225729D-02 0.000000000000D+00 0.000000000000D+00 0.146060017020D-05 0.000000000000D+00  6 -4 1 25 -4 1 21 2 0.14993953D+00 0.94220684D-01 0.21939416D+06 0.21939416D+06 0.21939416D+06 0.10947516D+01  1  2 12  3  6  4       -4 0.713145536847D-03 0.100000000000D+01
-.237901824079D-02 0.000000000000D+00 0.000000000000D+00 0.146060017020D-05 0.000000000000D+00  6 -4 1 25 -4 1 21 2 0.14993953D+00 0.94220684D-01 0.21933030D+06 0.21933030D+06 0.21933030D+06 0.10947612D+01  1  2  4  3  6  4       -4 -.107303425119D-02 0.100000000000D+01
-.197229962519D-02 0.000000000000D+00 0.000000000000D+00 0.146060017020D-05 0.000000000000D+00  6 -4 1 25 -4 1 21 2 0.14993953D+00 0.94220684D-01 0.21933030D+06 0.21933030D+06 0.21933030D+06 0.10947612D+01  1  2  5  3  6  4       -4 -.889587568162D-03 0.100000000000D+01
0.288013115258D-02 0.000000000000D+00 -.000000000000D+00 0.146060017020D-05 0.000000000000D+00  6 -4 1 25 -4 1 21 2 0.14993953D+00 0.94220684D-01 0.21933030D+06 0.21933030D+06 0.21933030D+06 0.10947612D+01  1  2  6  3  6  4       -4 0.129905661153D-02 0.100000000000D+01
0.340289727887D-03 0.000000000000D+00 0.000000000000D+00 0.146060017020D-05 0.927125927097D-07  6 -4 1 25 -4 1 21 2 0.14993953D+00 0.94220684D-01 0.21939416D+06 0.21939416D+06 0.21939416D+06 0.10947516D+01  1  2 11  3  6  4       -4 0.153480538992D-03 0.100000000000D+01
  </mgrwgt>
  </event>
  <event>
  6     66 0.24339899E-05 0.42583567E+02 0.75467711E-02 0.92341731E-01
       21 -1    0    0  503  501 0.00000000E+00 0.00000000E+00 0.93232310E+03 0.93232340E+03 0.75000000E+00 0.0000E+00 0.9000E+01
        1 -1    0    0  502    0 0.00000000E+00 0.00000000E+00 -.16840473E+04 0.16840474E+04 0.32000000E+00 0.0000E+00 0.9000E+01
       25  1    1    2    0    0 -.52877455E+03 0.16851765E+03 -.54239971E+03 0.78601728E+03 0.12500000E+03 0.0000E+00 0.9000E+01
       -4  1    1    2    0  501 0.56295806E+03 -.10309419E+03 0.47869927E+03 0.74612705E+03 0.15500000E+01 0.0000E+00 0.9000E+01
        1  1    1    2  502    0 -.29416221E+02 -.78101338E+01 -.88163630E+03 0.88216154E+03 0.32000000E+00 0.0000E+00 0.9000E+01
        4  1    1    2  503    0 -.47672889E+01 -.57613328E+02 0.19361250E+03 0.20206490E+03 0.15500000E+01 0.0000E+00 0.9000E+01
#aMCatNLO 2  0  0  1  4 0.57810229D+02 0.00000000D+00  -5  6  0 0.00000000D+00 0.00000000D+00 0.00000000D+00 0.00000000D+00 0.00000000D+00
  <mgrwgt>
 0.1379682960D-03    1    2    0
 0.111039061642795D+04 0.000000000000000D+00 0.000000000000000D+00 0.111039061642795D+04
 0.111039061642795D+04 0.000000000000000D+00 0.000000000000000D+00 -.111039061642795D+04
 0.620135678593147D+03 -.530030945150723D+03 0.152387389795075D+03 -.254535931605457D+03
 0.101627330071613D+04 0.560718040375232D+03 -.129420157743338D+03 0.837649761962547D+03
 0.584372253546618D+03 -.306870952245098D+02 -.229672320517369D+02 -.583113830357089D+03
 0.000000000000000D+00 -.000000000000000D+00 -.000000000000000D+00 0.000000000000000D+00
 0.140995728145797D+04 0.000000000000000D+00 0.000000000000000D+00 0.140995728145797D+04
 0.111355932820359D+04 0.000000000000000D+00 0.000000000000000D+00 -.111355932820359D+04
 0.623161312829023D+03 -.528696695728804D+03 0.168511973621990D+03 -.254535931605457D+03
 0.101446372902218D+04 0.562897334402879D+03 -.103083096130264D+03 0.837649761962547D+03
 0.583908506575307D+03 -.294333497883138D+02 -.781554972649483D+01 -.583113830357089D+03
 0.301983061235045D+03 -.476728888576187D+01 -.576133277652314D+02 0.296397953254379D+03
0.769848703606D-04 0.000000000000D+00 0.000000000000D+00 0.197591905550D-04 0.147643875552D-08  6 21 1 25 -4 1 4 2 0.14343409D+00 0.25908377D+00 0.37781238D+06 0.37781238D+06 0.37781238D+06 0.10772188D+01  1  2  1  5  6  1       -4 0.137968296012D-03 0.100000000000D+01
  </mgrwgt>
  </event>
  <event>
  6     66 -.24339899E-05 0.27482884E+03 0.75467711E-02 0.93037614E-01
       -4 -1    0    0    0  501 0.00000000E+00 0.00000000E+00 0.65962552E+03 0.65962734E+03 0.15500000E+01 0.0000E+00 0.9000E+01
        1 -1    0    0  502    0 -.00000000E+00 -.00000000E+00 -.26604875E+04 0.26604875E+04 0.32000000E+00 0.0000E+00 0.9000E+01
       25  1    1    2    0    0 0.42730111E+03 -.31131473E+03 -.35301831E+03 0.64788118E+03 0.12500000E+03 0.0000E+00 0.9000E+01
       -4  1    1    2    0  501 -.10912579E+03 0.26469650E+03 0.45833296E+03 0.54041112E+03 0.15500000E+01 0.0000E+00 0.9000E+01
        1  1    1    2  503    0 -.29183727E+03 0.32949532E+02 -.20045223E+04 0.20259231E+04 0.32000000E+00 0.0000E+00 0.9000E+01
       21  1    1    2  502  503 -.26338053E+02 0.13668696E+02 -.10165438E+03 0.10589949E+03 0.75000000E+00 0.0000E+00 0.9000E+01
#aMCatNLO 2  0  0  5  2 0.15940522D+02 0.00000000D+00  -5  6  0 0.00000000D+00 0.00000000D+00 0.00000000D+00 0.00000000D+00 0.00000000D+00
  <mgrwgt>
 -.3482278744D-03    5    2    0
 0.132473713890635D+04 0.000000000000000D+00 0.000000000000000D+00 0.132473713890635D+04
 0.132473713890635D+04 -.000000000000000D+00 -.000000000000000D+00 -.132473713890635D+04
 0.545574867980048D+03 0.427591369380621D+03 -.311297888213236D+03 0.478140376524630D+02
 0.102384571378762D+04 -.108814162446724D+03 0.264575732411012D+03 0.983066226411773D+03
 0.108005369604503D+04 -.318777206933898D+03 0.467221558022243D+02 -.103088026406424D+04
 0.000000000000000D+00 0.000000000000000D+00 0.000000000000000D+00 0.000000000000000D+00
 0.132473713890635D+04 0.000000000000000D+00 0.000000000000000D+00 0.132473713890635D+04
 0.132473713890635D+04 -.000000000000000D+00 -.000000000000000D+00 -.132473713890635D+04
 0.545403959869523D+03 0.427442676561055D+03 -.311276094782177D+03 0.473331861682124D+02
 0.102301980432710D+04 -.109093135967926D+03 0.264616620667884D+03 0.982164065620636D+03
 0.102517051310563D+04 -.292014827501215D+03 0.329818259093488D+02 -.982147708148004D+03
 0.558800005104495D+02 -.263347130919141D+02 0.136776482049437D+02 -.473495436408442D+02
-.130678078358D-01 0.000000000000D+00 0.000000000000D+00 0.426101220033D-05 0.000000000000D+00  6 -4 1 25 -4 1 21 2 0.10148099D+00 0.40930591D+00 0.33241849D+06 0.33241849D+06 0.33241849D+06 0.10812702D+01  1  2 13  4  6  5        1 -.611367773641D-03 0.100000000000D+01
-.929566987756D-02 0.000000000000D+00 0.000000000000D+00 0.426101220033D-05 0.000000000000D+00  6 -4 1 25 -4 1 21 2 0.10148099D+00 0.40930591D+00 0.33162452D+06 0.33162452D+06 0.33162452D+06 0.10813463D+01  1  2  8  4  6  5        1 -.435022007552D-03 0.100000000000D+01
-.201069014317D-01 0.000000000000D+00 0.000000000000D+00 0.426101220033D-05 0.000000000000D+00  6 -4 1 25 -4 1 21 2 0.10148099D+00 0.40930591D+00 0.33162452D+06 0.33162452D+06 0.33162452D+06 0.10813463D+01  1  2  9  4  6  5        1 -.940969800097D-03 0.100000000000D+01
0.211740692229D-01 0.000000000000D+00 0.000000000000D+00 0.426101220033D-05 0.000000000000D+00  6 -4 1 25 -4 1 21 2 0.10148099D+00 0.40930591D+00 0.33162452D+06 0.33162452D+06 0.33162452D+06 0.10813463D+01  1  2 10  4  6  5        1 0.990911491342D-03 0.100000000000D+01
0.138555180325D-01 0.000000000000D+00 0.000000000000D+00 0.426101220033D-05 0.268311730388D-07  6 -4 1 25 -4 1 21 2 0.10148099D+00 0.40930591D+00 0.33241849D+06 0.33241849D+06 0.33241849D+06 0.10812702D+01  1  2  1  4  6  5        1 0.648220215553D-03 0.100000000000D+01
  </mgrwgt>
  </event>
  <event>
  5     66 -.24339899E-05 0.65053692E+02 0.75467711E-02 0.94280824E-01
       -4 -1    0    0    0  501 0.00000000E+00 0.00000000E+00 0.41847015E+03 0.41847302E+03 0.15500000E+01 0.0000E+00 0.9000E+01
        1 -1    0    0  502    0 0.00000000E+00 0.00000000E+00 -.91895401E+03 0.91895407E+03 0.32000000E+00 0.0000E+00 0.9000E+01
       25  1    1    2    0    0 -.24844351E+03 0.39346691E+03 -.17740857E+03 0.51345807E+03 0.12500000E+03 0.0000E+00 0.9000E+01
       -4  1    1    2    0  501 0.28610894E+03 -.34052631E+03 0.47906144E+02 0.44734092E+03 0.15500000E+01 0.0000E+00 0.9000E+01
        1  1    1    2  502    0 -.37665433E+02 -.52940599E+02 -.37098145E+03 0.37662810E+03 0.32000000E+00 0.0000E+00 0.9000E+01
#aMCatNLO 1  0  0  1  4 0.43892956D+02 0.00000000D+00  -5  6  0 0.00000000D+00 0.00000000D+00 0.00000000D+00 0.00000000D+00 0.00000000D+00
  <mgrwgt>
 -.1319784602D-02    9    2    0
 0.620126420588682D+03 0.000000000000000D+00 0.000000000000000D+00 0.620126420588682D+03
 0.620126420588682D+03 0.000000000000000D+00 0.000000000000000D+00 -.620126420588682D+03
 0.481938352308753D+03 -.248259825497211D+03 0.393366369160719D+03 0.164174932155591D+02
 0.501463837345441D+03 0.285963099605465D+03 -.340352729305514D+03 0.232058409637610D+03
 0.256850651523170D+03 -.377032741082537D+02 -.530136398552044D+02 -.248475902853169D+03
 0.000000000000000D+00 0.000000000000000D+00 -.000000000000000D+00 0.000000000000000D+00
 0.741930366389252D+03 0.000000000000000D+00 0.000000000000000D+00 0.741930366389252D+03
 0.624481577582097D+03 0.000000000000000D+00 0.000000000000000D+00 -.624481577582097D+03
 0.498579670530245D+03 -.255662746060784D+03 0.409052214343381D+03 0.164174932155591D+02
 0.486565374782644D+03 0.278503469490054D+03 -.324546723810056D+03 0.232058409637610D+03
 0.255884245907552D+03 -.415744275469850D+02 -.448111590914548D+02 -.248475902853169D+03
 0.125382652750908D+03 0.187337041177156D+02 -.396943314418705D+02 0.117448788807155D+03
0.434910426278D-04 0.000000000000D+00 0.000000000000D+00 0.516951156636D-06 0.000000000000D+00  6 -4 1 25 -4 1 21 0 0.64380248D-01 0.14137777D+00 0.24564477D+06 0.24564477D+06 0.24564477D+06 0.10910338D+01  1  2  2  1  6  1       -4 0.912778558451D-04 0.100000000000D+01
0.934570224835D-05 0.000000000000D+00 -.167017055145D-06 0.516951156636D-06 0.000000000000D+00  6 -4 1 25 -4 1 21 2 0.64380248D-01 0.14137777D+00 0.24564477D+06 0.24564477D+06 0.24564477D+06 0.10910338D+01  1  2  3  1  6  1       -4 0.233482282461D-04 0.100000000000D+01
-.257498364978D-04 0.000000000000D+00 0.000000000000D+00 0.516951156636D-06 0.000000000000D+00  6 -4 1 25 -4 1 21 2 0.64380248D-01 0.14137777D+00 0.24564477D+06 0.24564477D+06 0.24564477D+06 0.10910338D+01  1  2 15  1  6  1       -4 -.643304316652D-04 0.100000000000D+01
0.680650220663D-03 0.000000000000D+00 0.000000000000D+00 0.516951156636D-06 0.000000000000D+00  6 -4 1 25 -4 1 21 2 0.78095440D-01 0.14137777D+00 0.26573557D+06 0.26573557D+06 0.26573557D+06 0.10884704D+01  1  2 12  1  6  1       -4 0.104534408286D-02 0.100000000000D+01
-.122087241041D-02 0.000000000000D+00 0.000000000000D+00 0.516951156636D-06 0.000000000000D+00  6 -4 1 25 -4 1 21 2 0.64380248D-01 0.14137777D+00 0.24564477D+06 0.24564477D+06 0.24564477D+06 0.10910338D+01  1  2  4  1  6  1       -4 -.305008729576D-02 0.100000000000D+01
-.842988648873D-03 0.000000000000D+00 -.539715121976D-04 0.516951156636D-06 0.000000000000D+00  6 -4 1 25 -4 1 21 2 0.77292460D-01 0.14137777D+00 0.24564477D+06 0.24564477D+06 0.24564477D+06 0.10910338D+01  1  2  5  1  6  1       -4 -.133813828095D-02 0.100000000000D+01
0.839676596413D-03 0.000000000000D+00 0.530822479065D-04 0.516951156636D-06 0.000000000000D+00  6 -4 1 25 -4 1 21 2 0.64380248D-01 0.14137777D+00 0.24564477D+06 0.24564477D+06 0.24564477D+06 0.10910338D+01  1  2  6  1  6  1       -4 0.209775149101D-02 0.100000000000D+01
0.189607275236D-04 0.000000000000D+00 0.000000000000D+00 0.516951156636D-06 0.000000000000D+00  6 21 1 25 -4 1 4 2 0.78095440D-01 0.14137777D+00 0.26573557D+06 0.26573557D+06 0.26573557D+06 0.10884704D+01  1  2 12  5  6  1       -4 0.623610717976D-03 0.100000000000D+01
-.219698401726D-04 0.000000000000D+00 -.144064476611D-05 0.516951156636D-06 0.000000000000D+00  6 21 1 25 -4 1 4 2 0.77292460D-01 0.14137777D+00 0.24564477D+06 0.24564477D+06 0.24564477D+06 0.10910338D+01  1  2  5  5  6  1       -4 -.748560969689D-03 0.100000000000D+01
  </mgrwgt>
  </event>
  <event>
  5     66 0.24339899E-05 0.78255985E+02 0.75467711E-02 0.94916795E-01
       -4 -1    0    0    0  501 0.00000000E+00 0.00000000E+00 0.87714334E+03 0.87714471E+03 0.15500000E+01 0.0000E+00 0.9000E+01
        1 -1    0    0  502    0 0.00000000E+00 0.00000000E+00 -.44817058E+03 0.44817069E+03 0.32000000E+00 0.0000E+00 0.9000E+01
       25  1    1    2    0    0 0.24866832E+03 0.40912728E+03 -.67487895E+02 0.49940032E+03 0.12500000E+03 0.0000E+00 0.9000E+01
       -4  1    1    2    0  501 -.34675814E+02 -.70383196E+02 0.40814659E+03 0.41562273E+03 0.15500000E+01 0.0000E+00 0.9000E+01
        1  1    1    2  502    0 -.21399250E+03 -.33874408E+03 0.88314072E+02 0.41029236E+03 0.32000000E+00 0.0000E+00 0.9000E+01
#aMCatNLO 1  0  0  5  2 0.40615968D+01 0.00000000D+00  -5  6  0 0.00000000D+00 0.00000000D+00 0.00000000D+00 0.00000000D+00 0.00000000D+00
  <mgrwgt>
 0.7726741168D-04    8    2    0
 0.626985502400575D+03 0.000000000000000D+00 0.000000000000000D+00 0.626985502400575D+03
 0.626985502400575D+03 -.000000000000000D+00 -.000000000000000D+00 -.626985502400575D+03
 0.551058493768656D+03 0.248915903763995D+03 0.409510354293351D+03 -.241624928627962D+03
 0.298857173545089D+03 -.345849886033058D+02 -.701988439583826D+02 0.288429559944149D+03
 0.404055337487404D+03 -.214330915160689D+03 -.339311510334968D+03 -.468046313161867D+02
 0.000000000000000D+00 0.000000000000000D+00 -.000000000000000D+00 0.000000000000000D+00
 0.626985502400575D+03 0.000000000000000D+00 0.000000000000000D+00 0.626985502400575D+03
 0.626985502400575D+03 -.000000000000000D+00 -.000000000000000D+00 -.626985502400575D+03
 0.550993809585006D+03 0.248873692102454D+03 0.409443528177201D+03 -.241634146622735D+03
 0.298863514407559D+03 -.346078829643983D+02 -.702350884741801D+02 0.288424560375471D+03
 0.351707298049546D+03 -.187866918220747D+03 -.294002918323988D+03 -.443433034011888D+02
 0.524063827590379D+02 -.263988909173086D+02 -.452055213790326D+02 -.244711035154685D+01
0.498884218382D-05 0.000000000000D+00 0.000000000000D+00 0.157246228024D-06 0.000000000000D+00  6 -4 1 25 -4 1 21 0 0.13494524D+00 0.68949433D-01 0.23758396D+06 0.23758396D+06 0.23758396D+06 0.10921273D+01  1  2  2  4  6  5        1 0.407340448311D-05 0.100000000000D+01
0.873968775451D-06 0.000000000000D+00 -.191584675782D-07 0.157246228024D-06 0.000000000000D+00  6 -4 1 25 -4 1 21 2 0.13494524D+00 0.68949433D-01 0.23758396D+06 0.23758396D+06 0.23758396D+06 0.10921273D+01  1  2  3  4  6  5        1 0.851138485740D-06 0.100000000000D+01
-.290923256724D-05 0.000000000000D+00 0.000000000000D+00 0.157246228024D-06 0.000000000000D+00  6 -4 1 25 -4 1 21 2 0.13494524D+00 0.68949433D-01 0.23758396D+06 0.23758396D+06 0.23758396D+06 0.10921273D+01  1  2 15  4  6  5        1 -.283323600510D-05 0.100000000000D+01
0.283311647369D-03 0.000000000000D+00 0.000000000000D+00 0.157246228024D-06 0.000000000000D+00  6 -4 1 25 -4 1 21 2 0.13494524D+00 0.68949433D-01 0.23752584D+06 0.23752584D+06 0.23752584D+06 0.10921353D+01  1  2 12  4  6  5        1 0.275916286170D-03 0.100000000000D+01
-.266675446665D-02 0.000000000000D+00 0.000000000000D+00 0.157246228024D-06 0.000000000000D+00  6 -4 1 25 -4 1 21 2 0.13494524D+00 0.68949433D-01 0.23758396D+06 0.23758396D+06 0.23758396D+06 0.10921273D+01  1  2  4  4  6  5        1 -.259709204990D-02 0.100000000000D+01
-.255557750175D-02 0.000000000000D+00 0.000000000000D+00 0.157246228024D-06 0.000000000000D+00  6 -4 1 25 -4 1 21 2 0.13494524D+00 0.68949433D-01 0.23758396D+06 0.23758396D+06 0.23758396D+06 0.10921273D+01  1  2  5  4  6  5        1 -.248881931040D-02 0.100000000000D+01
0.290832812035D-02 0.000000000000D+00 -.000000000000D+00 0.157246228024D-06 0.000000000000D+00  6 -4 1 25 -4 1 21 2 0.13494524D+00 0.68949433D-01 0.23758396D+06 0.23758396D+06 0.23758396D+06 0.10921273D+01  1  2  6  4  6  5        1 0.283235518467D-02 0.100000000000D+01
0.210783745000D-02 0.000000000000D+00 0.000000000000D+00 0.157246228024D-06 0.429818402886D-07  6 -4 1 25 -4 1 21 2 0.13494524D+00 0.68949433D-01 0.23752584D+06 0.23752584D+06 0.23752584D+06 0.10921353D+01  1  2 11  4  6  5        1 0.205281599417D-02 0.100000000000D+01
  </mgrwgt>
  </event>
  <event>
  5     66 -.24339899E-05 0.51000512E+02 0.75467711E-02 0.93455592E-01
       -4 -1    0    0    0  501 0.00000000E+00 0.00000000E+00 0.12827715E+04 0.12827724E+04 0.15500000E+01 0.0000E+00 0.9000E+01
        1 -1    0    0  502    0 -.00000000E+00 -.00000000E+00 -.14521616E+04 0.14521616E+04 0.32000000E+00 0.0000E+00 0.9000E+01
       25  1    1    2    0    0 0.24503377E+03 -.43824359E+03 -.13704215E+03 0.53526119E+03 0.12500000E+03 0.0000E+00 0.9000E+01
       -4  1    1    2    0  501 -.29283971E+03 0.45593420E+03 0.10152630E+04 0.11508225E+04 0.15500000E+01 0.0000E+00 0.9000E+01
        1  1    1    2  502    0 0.47805946E+02 -.17690613E+02 -.10476109E+04 0.10488503E+04 0.32000000E+00 0.0000E+00 0.9000E+01
#aMCatNLO 1  0  0  5  2 0.40615968D+01 0.00000000D+00  -5  6  0 0.00000000D+00 0.00000000D+00 0.00000000D+00 0.00000000D+00 0.00000000D+00
  <mgrwgt>
 -.7062857334D-04    1    2    0
 0.136484166773255D+04 0.000000000000000D+00 0.000000000000000D+00 0.136484166773255D+04
 0.136484166773255D+04 -.000000000000000D+00 -.000000000000000D+00 -.136484166773255D+04
 0.527612201143924D+03 0.244972084244865D+03 -.438177892008260D+03 -.103626481614793D+03
 0.121588458267366D+04 -.292802971799276D+03 0.455876999992420D+03 0.108849340786562D+04
 0.986186551647527D+03 0.478308875544123D+02 -.176991079841603D+02 -.984866926250832D+03
 0.000000000000000D+00 0.000000000000000D+00 0.000000000000000D+00 0.000000000000000D+00
 0.136484166773255D+04 0.000000000000000D+00 0.000000000000000D+00 0.136484166773255D+04
 0.136484166773255D+04 -.000000000000000D+00 -.000000000000000D+00 -.136484166773255D+04
 0.575546259361048D+03 0.251648714523134D+03 -.440648479662126D+03 -.241102340334567D+03
 0.973088157440667D+03 -.279554683182370D+03 0.450974667988457D+03 0.815703126201426D+03
 0.634279681496864D+03 0.478199845372229D+03 -.224983905961610D+03 -.350739025920978D+03
 0.546769237166530D+03 -.450293876712992D+03 0.214657717635279D+03 -.223861759945881D+03
-.194130238301D-02 0.000000000000D+00 0.000000000000D+00 0.704031782496D-04 0.000000000000D+00  6 -4 1 25 -4 1 21 2 0.19734954D+00 0.22340954D+00 0.30810580D+06 0.30810580D+06 0.30810580D+06 0.10836963D+01  1  2 14  4  6  5        1 -.706285733426D-04 0.100000000000D+01
  </mgrwgt>
  </event>
</LesHouchesEvents>
