<event>
 5    0  0.1531977E+001  0.2619602E+03  0.7546771E-02  0.1105971E+00
         21   -1    0    0  503  501  0.00000000000E+00  0.00000000000E+00  0.30268653078E+03  0.30268653078E+03  0.00000000000E+00 0. -1.
         21   -1    0    0  504  502 -0.00000000000E+00 -0.00000000000E+00 -0.25502214690E+03  0.25502214690E+03  0.00000000000E+00 0. -1.
         25    1    1    2    0    0 -0.14611244180E+03 -0.16756801575E+03 -0.35577419189E+02  0.25752405384E+03  0.12500000000E+03 0.  0.
         21    1    1    2  503  502  0.17492459871E+02 -0.39780427499E+02  0.40063502043E+01  0.43640799790E+02  0.00000000000E+00 0. -1.
         21    1    1    2  504  501  0.12861998193E+03  0.20734844325E+03  0.79235452864E+02  0.25654382405E+03  0.00000000000E+00 0. -1.
<mgrwt>
<rscale>  4 0.26196019E+03</rscale>
<asrwt>0</asrwt>
<pdfrwt beam="1">  1       21 0.46567159E-01 0.26196019E+03</pdfrwt>
<pdfrwt beam="2">  1       21 0.39234176E-01 0.26196019E+03</pdfrwt>
<totfact> 0.26717247E+04</totfact>
</mgrwt>
</event>
<event>
 5    0  0.1531977E+001  0.5391120E+03  0.7546771E-02  0.1004046E+00
         21   -1    0    0  504  501  0.00000000000E+00  0.00000000000E+00  0.20254240800E+04  0.20254240800E+04  0.00000000000E+00 0. -1.
         21   -1    0    0  503  502 -0.00000000000E+00 -0.00000000000E+00 -0.64575115508E+03  0.64575115508E+03  0.00000000000E+00 0. -1.
         25    1    1    2    0    0  0.43823733733E+03  0.88774558595E+02  0.24126431197E+01  0.46428838768E+03  0.12500000000E+03 0.  0.
         21    1    1    2  503  501  0.87399660498E+02 -0.23979524520E+03 -0.32827085030E+03  0.41581511689E+03  0.00000000000E+00 0. -1.
         21    1    1    2  504  502 -0.52563699783E+03  0.15102068661E+03  0.17055311321E+04  0.17910717305E+04  0.00000000000E+00 0. -1.
<mgrwt>
<rscale>  4 0.53911201E+03</rscale>
<asrwt>0</asrwt>
<pdfrwt beam="1">  1       21 0.31160370E+00 0.53911201E+03</pdfrwt>
<pdfrwt beam="2">  1       21 0.99346332E-01 0.53911201E+03</pdfrwt>
<totfact> 0.17071462E+01</totfact>
</mgrwt>
</event>
<event>
 5    0  0.1531977E+001  0.3453657E+03  0.7546771E-02  0.1064533E+00
         21   -1    0    0  503  501  0.00000000000E+00  0.00000000000E+00  0.66182721471E+03  0.66182721471E+03  0.00000000000E+00 0. -1.
         21   -1    0    0  504  502 -0.00000000000E+00 -0.00000000000E+00 -0.48663041074E+03  0.48663041074E+03  0.00000000000E+00 0. -1.
         25    1    1    2    0    0  0.35068756881E+03 -0.81852074603E+02  0.43693239277E+03  0.57984174469E+03  0.12500000000E+03 0.  0.
         21    1    1    2  503  502 -0.97701634517E+02  0.22713874057E+02 -0.29039784889E+03  0.30723352698E+03  0.00000000000E+00 0. -1.
         21    1    1    2  504  501 -0.25298593429E+03  0.59138200546E+02  0.28662260089E+02  0.26138235378E+03  0.00000000000E+00 0. -1.
<mgrwt>
<rscale>  4 0.34536574E+03</rscale>
<asrwt>0</asrwt>
<pdfrwt beam="1">  1       21 0.10181957E+00 0.34536574E+03</pdfrwt>
<pdfrwt beam="2">  1       21 0.74866217E-01 0.34536574E+03</pdfrwt>
<totfact> 0.11225595E+03</totfact>
</mgrwt>
</event>
<event>
 5    0  0.1531977E+001  0.2291766E+03  0.7546771E-02  0.1127221E+00
         21   -1    0    0  503  501  0.00000000000E+00  0.00000000000E+00  0.12534319603E+04  0.12534319603E+04  0.00000000000E+00 0.  1.
         21   -1    0    0  504  502 -0.00000000000E+00 -0.00000000000E+00 -0.69177445765E+02  0.69177445765E+02  0.00000000000E+00 0.  1.
         25    1    1    2    0    0 -0.18355722061E+03  0.99139056617E+02  0.27284808413E+03  0.36550360163E+03  0.12500000000E+03 0.  0.
         21    1    1    2  503  502  0.15740092576E+03 -0.75404467886E+02  0.31880051007E+03  0.36344827751E+03  0.00000000000E+00 0.  1.
         21    1    1    2  504  501  0.26156294858E+02 -0.23734588731E+02  0.59260592037E+03  0.59365752696E+03  0.00000000000E+00 0.  1.
<mgrwt>
<rscale>  4 0.22917656E+03</rscale>
<asrwt>0</asrwt>
<pdfrwt beam="1">  1       21 0.19283567E+00 0.22917656E+03</pdfrwt>
<pdfrwt beam="2">  1       21 0.10642685E-01 0.22917656E+03</pdfrwt>
<totfact> 0.10555452E+04</totfact>
</mgrwt>
</event>
<event>
 5    0  0.1531977E+001  0.2814932E+03  0.7546771E-02  0.1094876E+00
         21   -1    0    0  503  501  0.00000000000E+00  0.00000000000E+00  0.91661104007E+02  0.91661104007E+02  0.00000000000E+00 0. -1.
         21   -1    0    0  504  502 -0.00000000000E+00 -0.00000000000E+00 -0.16476535281E+04  0.16476535281E+04  0.00000000000E+00 0. -1.
         25    1    1    2    0    0 -0.42592742616E+02  0.25821742739E+03 -0.11424168960E+04  0.11786567548E+04  0.12500000000E+03 0.  0.
         21    1    1    2  503  502 -0.26371342672E+02 -0.17170355547E+02 -0.26982288306E+03  0.27165172012E+03  0.00000000000E+00 0.  1.
         21    1    1    2  504  501  0.68964085288E+02 -0.24104707184E+03 -0.14375264507E+03  0.28900615715E+03  0.00000000000E+00 0. -1.
<mgrwt>
<rscale>  4 0.28149319E+03</rscale>
<asrwt>0</asrwt>
<pdfrwt beam="1">  1       21 0.14101710E-01 0.28149319E+03</pdfrwt>
<pdfrwt beam="2">  1       21 0.25348512E+00 0.28149319E+03</pdfrwt>
<totfact> 0.25619210E+03</totfact>
</mgrwt>
</event>
<event>
 5    0  0.1531977E+001  0.2498288E+03  0.7546771E-02  0.1113413E+00
         21   -1    0    0  502  501  0.00000000000E+00  0.00000000000E+00  0.11889308699E+04  0.11889308699E+04  0.00000000000E+00 0.  1.
         21   -1    0    0  504  502 -0.00000000000E+00 -0.00000000000E+00 -0.64269676895E+02  0.64269676895E+02  0.00000000000E+00 0.  1.
         25    1    1    2    0    0 -0.12052111603E+03  0.17962208167E+03  0.88072489269E+03  0.91547297515E+03  0.12500000000E+03 0.  0.
         21    1    1    2  503  501  0.74870342332E+02 -0.14327949420E+03  0.22363196168E+03  0.27594534949E+03  0.00000000000E+00 0.  1.
         21    1    1    2  504  503  0.45650773700E+02 -0.36342587475E+02  0.20304338596E+02  0.61782222116E+02  0.00000000000E+00 0.  1.
<mgrwt>
<rscale>  4 0.24982880E+03</rscale>
<asrwt>0</asrwt>
<pdfrwt beam="1">  1       21 0.18291243E+00 0.24982880E+03</pdfrwt>
<pdfrwt beam="2">  1       21 0.98876434E-02 0.24982880E+03</pdfrwt>
<totfact> 0.13832694E+04</totfact>
</mgrwt>
</event>
<event>
 5    0  0.1531977E+001  0.3100454E+03  0.7546771E-02  0.1080324E+00
         21   -1    0    0  504  501  0.00000000000E+00  0.00000000000E+00  0.15704104844E+03  0.15704104844E+03  0.00000000000E+00 0. -1.
         21   -1    0    0  503  502 -0.00000000000E+00 -0.00000000000E+00 -0.97527862559E+03  0.97527862559E+03  0.00000000000E+00 0. -1.
         25    1    1    2    0    0 -0.20546876123E+03 -0.19484597052E+03 -0.10438407182E+03  0.32665486147E+03  0.12500000000E+03 0.  0.
         21    1    1    2  503  501  0.25517472917E+03  0.14252621105E+03 -0.63341858049E+03  0.69760086105E+03  0.00000000000E+00 0. -1.
         21    1    1    2  504  502 -0.49705967933E+02  0.52319759473E+02 -0.80434924853E+02  0.10806395151E+03  0.00000000000E+00 0. -1.
<mgrwt>
<rscale>  4 0.31004544E+03</rscale>
<asrwt>0</asrwt>
<pdfrwt beam="1">  1       21 0.24160161E-01 0.31004544E+03</pdfrwt>
<pdfrwt beam="2">  1       21 0.15004287E+00 0.31004544E+03</pdfrwt>
<totfact> 0.44576912E+03</totfact>
</mgrwt>
</event>
<event>
 5    0  0.1531977E+001  0.2574952E+03  0.7546771E-02  0.1108658E+00
         21   -1    0    0  504  501  0.00000000000E+00  0.00000000000E+00  0.24215093793E+03  0.24215093793E+03  0.00000000000E+00 0.  1.
         21   -1    0    0  503  502 -0.00000000000E+00 -0.00000000000E+00 -0.10722432492E+04  0.10722432492E+04  0.00000000000E+00 0. -1.
         25    1    1    2    0    0 -0.22580264177E+03  0.87297107985E+02  0.77459710796E+02  0.28325364056E+03  0.12500000000E+03 0.  0.
         21    1    1    2  503  501  0.20486685694E+03 -0.90380095953E+02 -0.95409190057E+03  0.98001548230E+03  0.00000000000E+00 0. -1.
         21    1    1    2  504  502  0.20935784838E+02  0.30829879687E+01  0.46539878521E+02  0.51125064248E+02  0.00000000000E+00 0. -1.
<mgrwt>
<rscale>  4 0.25749522E+03</rscale>
<asrwt>0</asrwt>
<pdfrwt beam="1">  1       21 0.37253990E-01 0.25749522E+03</pdfrwt>
<pdfrwt beam="2">  1       21 0.16496050E+00 0.25749522E+03</pdfrwt>
<totfact> 0.15199335E+03</totfact>
</mgrwt>
</event>
<event>
 5    0  0.1531977E+001  0.2543442E+03  0.7546771E-02  0.1110590E+00
         21   -1    0    0  502  501  0.00000000000E+00  0.00000000000E+00  0.74145269706E+03  0.74145269706E+03  0.00000000000E+00 0.  1.
         21   -1    0    0  504  502 -0.00000000000E+00 -0.00000000000E+00 -0.20110083359E+03  0.20110083359E+03  0.00000000000E+00 0.  1.
         25    1    1    2    0    0 -0.13409210693E+03 -0.15334018390E+03  0.11135149501E+03  0.26366277815E+03  0.12500000000E+03 0.  0.
         21    1    1    2  503  501  0.11561999158E+03  0.19639830815E+03  0.52485382874E+03  0.57219910822E+03  0.00000000000E+00 0.  1.
         21    1    1    2  504  503  0.18472115351E+02 -0.43058124252E+02 -0.95853460288E+02  0.10669164428E+03  0.00000000000E+00 0. -1.
<mgrwt>
<rscale>  4 0.25434420E+03</rscale>
<asrwt>0</asrwt>
<pdfrwt beam="1">  1       21 0.11406964E+00 0.25434420E+03</pdfrwt>
<pdfrwt beam="2">  1       21 0.30938590E-01 0.25434420E+03</pdfrwt>
<totfact> 0.57463646E+03</totfact>
</mgrwt>
</event>
<event>
 5    0  0.1531977E+001  0.9066332E+03  0.7546771E-02  0.9417327E-01
         21   -1    0    0  503  501  0.00000000000E+00  0.00000000000E+00  0.84289382962E+03  0.84289382962E+03  0.00000000000E+00 0.  1.
         21   -1    0    0  504  502 -0.00000000000E+00 -0.00000000000E+00 -0.17196914300E+04  0.17196914300E+04  0.00000000000E+00 0.  1.
         25    1    1    2    0    0  0.76678691698E+03  0.43949312544E+03  0.81035206372E+02  0.89627456063E+03  0.12500000000E+03 0.  0.
         21    1    1    2  503  502 -0.79055365021E+03 -0.43536829851E+03 -0.11560566350E+04  0.14666245506E+04  0.00000000000E+00 0.  1.
         21    1    1    2  504  501  0.23766733233E+02 -0.41248269248E+01  0.19822382818E+03  0.19968614840E+03  0.00000000000E+00 0.  1.
<mgrwt>
<rscale>  4 0.90663323E+03</rscale>
<asrwt>0</asrwt>
<pdfrwt beam="1">  1       21 0.12967598E+00 0.90663323E+03</pdfrwt>
<pdfrwt beam="2">  1       21 0.26456791E+00 0.90663323E+03</pdfrwt>
<totfact> 0.14348735E+01</totfact>
</mgrwt>
</event>
<event>
 5    0  0.1531977E+001  0.3464195E+03  0.7546771E-02  0.1064094E+00
         21   -1    0    0  502  501  0.00000000000E+00  0.00000000000E+00  0.16629045122E+03  0.16629045122E+03  0.00000000000E+00 0.  1.
         21   -1    0    0  504  502 -0.00000000000E+00 -0.00000000000E+00 -0.22713814283E+04  0.22713814283E+04  0.00000000000E+00 0.  1.
         25    1    1    2    0    0  0.17851475459E+03  0.19088981477E+03 -0.86838105018E+02  0.30244387160E+03  0.12500000000E+03 0.  0.
         21    1    1    2  503  501  0.12896996866E+03 -0.60680355939E+02 -0.70417327735E+02  0.15897785524E+03  0.00000000000E+00 0. -1.
         21    1    1    2  504  503 -0.30748472324E+03 -0.13020945883E+03 -0.19478355443E+04  0.19762501527E+04  0.00000000000E+00 0.  1.
<mgrwt>
<rscale>  4 0.34641947E+03</rscale>
<asrwt>0</asrwt>
<pdfrwt beam="1">  1       21 0.25583149E-01 0.34641947E+03</pdfrwt>
<pdfrwt beam="2">  1       21 0.34944326E+00 0.34641947E+03</pdfrwt>
<totfact> 0.21283587E+02</totfact>
</mgrwt>
</event>
<event>
 5    0  0.1531977E+001  0.2739162E+03  0.7546771E-02  0.1099059E+00
         21   -1    0    0  504  501  0.00000000000E+00  0.00000000000E+00  0.13112371798E+04  0.13112371798E+04  0.00000000000E+00 0.  1.
         21   -1    0    0  503  502 -0.00000000000E+00 -0.00000000000E+00 -0.62731759885E+02  0.62731759885E+02  0.00000000000E+00 0.  1.
         25    1    1    2    0    0  0.22726322813E+03 -0.11394365687E+03  0.65854343783E+03  0.71689343093E+03  0.12500000000E+03 0.  0.
         21    1    1    2  503  501 -0.21782441858E+03  0.94293282493E+02  0.39449437089E+03  0.46039603508E+03  0.00000000000E+00 0.  1.
         21    1    1    2  504  502 -0.94388095486E+01  0.19650374376E+02  0.19546761119E+03  0.19667947367E+03  0.00000000000E+00 0. -1.
<mgrwt>
<rscale>  4 0.27391624E+03</rscale>
<asrwt>0</asrwt>
<pdfrwt beam="1">  1       21 0.20172878E+00 0.27391624E+03</pdfrwt>
<pdfrwt beam="2">  1       21 0.96510410E-02 0.27391624E+03</pdfrwt>
<totfact> 0.10668386E+04</totfact>
</mgrwt>
</event>
<event>
 5    0  0.1531977E+001  0.2773953E+03  0.7546771E-02  0.1097120E+00
         21   -1    0    0  502  501  0.00000000000E+00  0.00000000000E+00  0.54577533405E+02  0.54577533405E+02  0.00000000000E+00 0.  1.
         21   -1    0    0  504  502 -0.00000000000E+00 -0.00000000000E+00 -0.14852006247E+04  0.14852006247E+04  0.00000000000E+00 0.  1.
         25    1    1    2    0    0  0.48118726103E+02 -0.23889861343E+03 -0.53023680624E+03  0.59679479723E+03  0.12500000000E+03 0.  0.
         21    1    1    2  503  501 -0.71819672573E+02  0.24343574767E+03 -0.78182072184E+03  0.82198702527E+03  0.00000000000E+00 0.  1.
         21    1    1    2  504  503  0.23700946470E+02 -0.45371342401E+01 -0.11856556318E+03  0.12099633558E+03  0.00000000000E+00 0. -1.
<mgrwt>
<rscale>  4 0.27739532E+03</rscale>
<asrwt>0</asrwt>
<pdfrwt beam="1">  1       21 0.83965442E-02 0.27739532E+03</pdfrwt>
<pdfrwt beam="2">  1       21 0.22849239E+00 0.27739532E+03</pdfrwt>
<totfact> 0.92266887E+03</totfact>
</mgrwt>
</event>
<event>
 5    0  0.1531977E+001  0.2973588E+03  0.7546771E-02  0.1086568E+00
         21   -1    0    0  503  501  0.00000000000E+00  0.00000000000E+00  0.20877179121E+03  0.20877179121E+03  0.00000000000E+00 0. -1.
         21   -1    0    0  501  502 -0.00000000000E+00 -0.00000000000E+00 -0.71848247396E+03  0.71848247396E+03  0.00000000000E+00 0. -1.
         25    1    1    2    0    0  0.77171855227E+02  0.29449571385E+03 -0.50545450889E+03  0.60315212117E+03  0.12500000000E+03 0.  0.
         21    1    1    2  503  504 -0.15062017674E+01 -0.42941868408E+02 -0.40353328070E+02  0.58946278868E+02  0.00000000000E+00 0.  1.
         21    1    1    2  504  502 -0.75665653460E+02 -0.25155384544E+03  0.36097154219E+02  0.26515586513E+03  0.00000000000E+00 0. -1.
<mgrwt>
<rscale>  4 0.29735884E+03</rscale>
<asrwt>0</asrwt>
<pdfrwt beam="1">  1       21 0.32118737E-01 0.29735884E+03</pdfrwt>
<pdfrwt beam="2">  1       21 0.11053576E+00 0.29735884E+03</pdfrwt>
<totfact> 0.56276003E+03</totfact>
</mgrwt>
</event>
<event>
 5    0  0.1531977E+001  0.2718961E+03  0.7546771E-02  0.1100199E+00
         21   -1    0    0  502  501  0.00000000000E+00  0.00000000000E+00  0.21604041112E+03  0.21604041112E+03  0.00000000000E+00 0. -1.
         21   -1    0    0  504  502 -0.00000000000E+00 -0.00000000000E+00 -0.42183993717E+03  0.42183993717E+03  0.00000000000E+00 0. -1.
         25    1    1    2    0    0 -0.23406058610E+03 -0.54902852610E+02 -0.23069789691E+02  0.27194833403E+03  0.12500000000E+03 0.  0.
         21    1    1    2  503  501  0.24664950758E+03 -0.21949560280E+01 -0.10357240819E+03  0.26752203865E+03  0.00000000000E+00 0. -1.
         21    1    1    2  504  503 -0.12588921490E+02  0.57097808638E+02 -0.79157328171E+02  0.98409975606E+02  0.00000000000E+00 0.  1.
<mgrwt>
<rscale>  4 0.27189613E+03</rscale>
<asrwt>0</asrwt>
<pdfrwt beam="1">  1       21 0.33236987E-01 0.27189613E+03</pdfrwt>
<pdfrwt beam="2">  1       21 0.64898451E-01 0.27189613E+03</pdfrwt>
<totfact> 0.18275274E+04</totfact>
</mgrwt>
</event>
<event>
 5    0  0.1531977E+001  0.2281284E+03  0.7546771E-02  0.1127964E+00
         21   -1    0    0  503  501  0.00000000000E+00  0.00000000000E+00  0.53139729426E+03  0.53139729426E+03  0.00000000000E+00 0.  1.
         21   -1    0    0  504  502 -0.00000000000E+00 -0.00000000000E+00 -0.26222480709E+03  0.26222480709E+03  0.00000000000E+00 0.  1.
         25    1    1    2    0    0 -0.23203667115E+03  0.76798496590E+02  0.20445987648E+03  0.34229792130E+03  0.12500000000E+03 0.  0.
         21    1    1    2  503  502  0.61587295947E+02 -0.12173458509E+03 -0.13015834362E+03  0.18855635402E+03  0.00000000000E+00 0.  1.
         21    1    1    2  504  501  0.17044937520E+03  0.44936088495E+02  0.19487095432E+03  0.26276782603E+03  0.00000000000E+00 0.  1.
<mgrwt>
<rscale>  4 0.22812841E+03</rscale>
<asrwt>0</asrwt>
<pdfrwt beam="1">  1       21 0.81753429E-01 0.22812841E+03</pdfrwt>
<pdfrwt beam="2">  1       21 0.40342278E-01 0.22812841E+03</pdfrwt>
<totfact> 0.75644352E+03</totfact>
</mgrwt>
</event>
<event>
 5    0  0.1531977E+001  0.2282177E+03  0.7546771E-02  0.1127901E+00
         21   -1    0    0  503  501  0.00000000000E+00  0.00000000000E+00  0.25090400697E+03  0.25090400697E+03  0.00000000000E+00 0. -1.
         21   -1    0    0  504  502 -0.00000000000E+00 -0.00000000000E+00 -0.70798109848E+03  0.70798109848E+03  0.00000000000E+00 0.  1.
         25    1    1    2    0    0  0.22452281828E+03  0.62603937622E+02 -0.49260177296E+03  0.55911649561E+03  0.12500000000E+03 0.  0.
         21    1    1    2  503  502 -0.36330643301E+02 -0.69516968815E+02 -0.12815828990E+03  0.15025668660E+03  0.00000000000E+00 0.  1.
         21    1    1    2  504  501 -0.18819217498E+03  0.69130311926E+01  0.16368297136E+03  0.24951192324E+03  0.00000000000E+00 0. -1.
<mgrwt>
<rscale>  4 0.22821772E+03</rscale>
<asrwt>0</asrwt>
<pdfrwt beam="1">  1       21 0.38600617E-01 0.22821772E+03</pdfrwt>
<pdfrwt beam="2">  1       21 0.10892017E+00 0.22821772E+03</pdfrwt>
<totfact> 0.42107339E+03</totfact>
</mgrwt>
</event>
<event>
 5    0  0.1531977E+001  0.2207830E+03  0.7546771E-02  0.1133301E+00
         21   -1    0    0  504  501  0.00000000000E+00  0.00000000000E+00  0.23929456445E+03  0.23929456445E+03  0.00000000000E+00 0.  1.
         21   -1    0    0  503  502 -0.00000000000E+00 -0.00000000000E+00 -0.14437544583E+04  0.14437544583E+04  0.00000000000E+00 0.  1.
         25    1    1    2    0    0  0.14274735833E+03 -0.18510812445E+03 -0.10872744687E+04  0.11191213502E+04  0.12500000000E+03 0.  0.
         21    1    1    2  503  501 -0.22348702823E+02  0.50920639389E+02 -0.30121540712E+03  0.30630556234E+03  0.00000000000E+00 0.  1.
         21    1    1    2  504  502 -0.12039865550E+03  0.13418748506E+03  0.18402998201E+03  0.25762211022E+03  0.00000000000E+00 0.  1.
<mgrwt>
<rscale>  4 0.22078301E+03</rscale>
<asrwt>0</asrwt>
<pdfrwt beam="1">  1       21 0.36814548E-01 0.22078301E+03</pdfrwt>
<pdfrwt beam="2">  1       21 0.22211607E+00 0.22078301E+03</pdfrwt>
<totfact> 0.67252136E+02</totfact>
</mgrwt>
</event>
<event>
 5    0  0.1531977E+001  0.3405422E+03  0.7546771E-02  0.1066565E+00
         21   -1    0    0  502  501  0.00000000000E+00  0.00000000000E+00  0.69520458796E+03  0.69520458796E+03  0.00000000000E+00 0. -1.
         21   -1    0    0  504  502 -0.00000000000E+00 -0.00000000000E+00 -0.21607399434E+04  0.21607399434E+04  0.00000000000E+00 0. -1.
         25    1    1    2    0    0  0.33319378539E+03  0.44622465350E+02  0.51213456011E+03  0.62523281319E+03  0.12500000000E+03 0.  0.
         21    1    1    2  503  501 -0.17302782437E+02 -0.26938770208E+02  0.11237941517E+03  0.11685125833E+03  0.00000000000E+00 0. -1.
         21    1    1    2  504  503 -0.31589100296E+03 -0.17683695142E+02 -0.20900493308E+04  0.21138604599E+04  0.00000000000E+00 0. -1.
<mgrwt>
<rscale>  4 0.34054217E+03</rscale>
<asrwt>0</asrwt>
<pdfrwt beam="1">  1       21 0.10695455E+00 0.34054217E+03</pdfrwt>
<pdfrwt beam="2">  1       21 0.33242153E+00 0.34054217E+03</pdfrwt>
<totfact> 0.12504454E+01</totfact>
</mgrwt>
</event>
<event>
 5    0  0.1531977E+001  0.2352438E+03  0.7546771E-02  0.1123002E+00
         21   -1    0    0  502  501  0.00000000000E+00  0.00000000000E+00  0.35287098991E+03  0.35287098991E+03  0.00000000000E+00 0.  1.
         21   -1    0    0  504  502 -0.00000000000E+00 -0.00000000000E+00 -0.38419895254E+03  0.38419895254E+03  0.00000000000E+00 0.  1.
         25    1    1    2    0    0 -0.18556264195E+03 -0.18710063087E+03  0.40700818986E+02  0.29448547813E+03  0.12500000000E+03 0.  0.
         21    1    1    2  503  501  0.87583346792E+02  0.28197059851E+02  0.13528265393E+03  0.16360719200E+03  0.00000000000E+00 0.  1.
         21    1    1    2  504  503  0.97979295163E+02  0.15890357102E+03 -0.20731143555E+03  0.27897727233E+03  0.00000000000E+00 0.  1.
<mgrwt>
<rscale>  4 0.23524375E+03</rscale>
<asrwt>0</asrwt>
<pdfrwt beam="1">  1       21 0.54287845E-01 0.23524375E+03</pdfrwt>
<pdfrwt beam="2">  1       21 0.59107531E-01 0.23524375E+03</pdfrwt>
<totfact> 0.83395805E+03</totfact>
</mgrwt>
</event>
<event>
 5    0  0.1531977E+001  0.2180345E+03  0.7546771E-02  0.1135357E+00
         21   -1    0    0  502  501  0.00000000000E+00  0.00000000000E+00  0.33581024704E+03  0.33581024704E+03  0.00000000000E+00 0.  1.
         21   -1    0    0  504  502 -0.00000000000E+00 -0.00000000000E+00 -0.18306890904E+03  0.18306890904E+03  0.00000000000E+00 0.  1.
         25    1    1    2    0    0 -0.89060707462E+02 -0.19040018904E+03  0.11828159312E+03  0.27166077537E+03  0.12500000000E+03 0.  0.
         21    1    1    2  503  501  0.48654981071E+02  0.36701930422E+02 -0.38775637753E+02  0.72234956654E+02  0.00000000000E+00 0.  1.
         21    1    1    2  504  503  0.40405726392E+02  0.15369825862E+03  0.73235382627E+02  0.17498342406E+03  0.00000000000E+00 0.  1.
<mgrwt>
<rscale>  4 0.21803454E+03</rscale>
<asrwt>0</asrwt>
<pdfrwt beam="1">  1       21 0.51663115E-01 0.21803454E+03</pdfrwt>
<pdfrwt beam="2">  1       21 0.28164448E-01 0.21803454E+03</pdfrwt>
<totfact> 0.42330492E+04</totfact>
</mgrwt>
</event>
<event>
 5    0  0.1531977E+001  0.3276709E+03  0.7546771E-02  0.1072172E+00
         21   -1    0    0  502  501  0.00000000000E+00  0.00000000000E+00  0.57713939693E+03  0.57713939693E+03  0.00000000000E+00 0. -1.
         21   -1    0    0  504  502 -0.00000000000E+00 -0.00000000000E+00 -0.40683040091E+03  0.40683040091E+03  0.00000000000E+00 0. -1.
         25    1    1    2    0    0 -0.30317898745E+03  0.12646344835E+03  0.22001471769E+03  0.41465886968E+03  0.12500000000E+03 0.  0.
         21    1    1    2  503  501  0.26492143700E+03 -0.98354411381E+02  0.17980416738E+03  0.33494252735E+03  0.00000000000E+00 0. -1.
         21    1    1    2  504  503  0.38257550458E+02 -0.28109036972E+02 -0.22950988906E+03  0.23436840082E+03  0.00000000000E+00 0. -1.
<mgrwt>
<rscale>  4 0.32767093E+03</rscale>
<asrwt>0</asrwt>
<pdfrwt beam="1">  1       21 0.88790676E-01 0.32767093E+03</pdfrwt>
<pdfrwt beam="2">  1       21 0.62589293E-01 0.32767093E+03</pdfrwt>
<totfact> 0.23397964E+03</totfact>
</mgrwt>
</event>
<event>
 5    0  0.1531977E+001  0.2741583E+03  0.7546771E-02  0.1098923E+00
         21   -1    0    0  503  501  0.00000000000E+00  0.00000000000E+00  0.10711385940E+04  0.10711385940E+04  0.00000000000E+00 0.  1.
         21   -1    0    0  504  502 -0.00000000000E+00 -0.00000000000E+00 -0.96423964044E+02  0.96423964044E+02  0.00000000000E+00 0.  1.
         25    1    1    2    0    0  0.61342673593E+02  0.22788509216E+03  0.22309174264E+03  0.34797911498E+03  0.12500000000E+03 0.  0.
         21    1    1    2  503  502  0.51510673107E+02 -0.70435855225E+01  0.38865567732E+02  0.64911431166E+02  0.00000000000E+00 0.  1.
         21    1    1    2  504  501 -0.11285334670E+03 -0.22084150663E+03  0.71275731962E+03  0.75467201193E+03  0.00000000000E+00 0.  1.
<mgrwt>
<rscale>  4 0.27415830E+03</rscale>
<asrwt>0</asrwt>
<pdfrwt beam="1">  1       21 0.16479054E+00 0.27415830E+03</pdfrwt>
<pdfrwt beam="2">  1       21 0.14834457E-01 0.27415830E+03</pdfrwt>
<totfact> 0.87987361E+03</totfact>
</mgrwt>
</event>
<event>
 5    0  0.1531977E+001  0.2967672E+03  0.7546771E-02  0.1086868E+00
         21   -1    0    0  504  501  0.00000000000E+00  0.00000000000E+00  0.16635631608E+03  0.16635631608E+03  0.00000000000E+00 0.  1.
         21   -1    0    0  501  502 -0.00000000000E+00 -0.00000000000E+00 -0.14995413626E+04  0.14995413626E+04  0.00000000000E+00 0.  1.
         25    1    1    2    0    0 -0.15312569379E+03  0.15405785967E+03  0.48914470532E-01  0.25061186049E+03  0.12500000000E+03 0.  0.
         21    1    1    2  503  502 -0.11749770523E+03 -0.82901887943E+02 -0.18986991732E+03  0.23817854493E+03  0.00000000000E+00 0.  1.
         21    1    1    2  504  503  0.27062339902E+03 -0.71155971727E+02 -0.11433640437E+04  0.11771072732E+04  0.00000000000E+00 0.  1.
<mgrwt>
<rscale>  4 0.29676719E+03</rscale>
<asrwt>0</asrwt>
<pdfrwt beam="1">  1       21 0.25593279E-01 0.29676719E+03</pdfrwt>
<pdfrwt beam="2">  1       21 0.23069867E+00 0.29676719E+03</pdfrwt>
<totfact> 0.11371758E+03</totfact>
</mgrwt>
</event>
<event>
 5    0  0.1531977E+001  0.2057120E+03  0.7546771E-02  0.1145007E+00
         21   -1    0    0  502  501  0.00000000000E+00  0.00000000000E+00  0.44352782527E+03  0.44352782527E+03  0.00000000000E+00 0. -1.
         21   -1    0    0  504  502 -0.00000000000E+00 -0.00000000000E+00 -0.14514239311E+03  0.14514239311E+03  0.00000000000E+00 0.  1.
         25    1    1    2    0    0 -0.76121438746E+02  0.19111421200E+03  0.22759399620E+03  0.33127502558E+03  0.12500000000E+03 0.  0.
         21    1    1    2  503  501  0.92152172509E+01 -0.53396660498E+02  0.87975934043E+02  0.10332419151E+03  0.00000000000E+00 0. -1.
         21    1    1    2  504  503  0.66906221495E+02 -0.13771755150E+03 -0.17184498083E+02  0.15407100130E+03  0.00000000000E+00 0.  1.
<mgrwt>
<rscale>  4 0.20571198E+03</rscale>
<asrwt>0</asrwt>
<pdfrwt beam="1">  1       21 0.68235050E-01 0.20571198E+03</pdfrwt>
<pdfrwt beam="2">  1       21 0.22329599E-01 0.20571198E+03</pdfrwt>
<totfact> 0.36533466E+04</totfact>
</mgrwt>
</event>
<event>
 5    0  0.1531977E+001  0.4972526E+03  0.7546771E-02  0.1014499E+00
         21   -1    0    0  504  501  0.00000000000E+00  0.00000000000E+00  0.46499723835E+03  0.46499723835E+03  0.00000000000E+00 0.  1.
         21   -1    0    0  503  502 -0.00000000000E+00 -0.00000000000E+00 -0.68178214543E+03  0.68178214543E+03  0.00000000000E+00 0.  1.
         25    1    1    2    0    0  0.39844200382E+03 -0.28927396553E+03 -0.64968796440E+02  0.51213416412E+03  0.12500000000E+03 0.  0.
         21    1    1    2  503  501 -0.14305536952E+02  0.14346693410E+02 -0.16090415400E+03  0.16217466749E+03  0.00000000000E+00 0. -1.
         21    1    1    2  504  502 -0.38413646687E+03  0.27492727213E+03  0.90880433590E+01  0.47247055217E+03  0.00000000000E+00 0.  1.
<mgrwt>
<rscale>  4 0.49725257E+03</rscale>
<asrwt>0</asrwt>
<pdfrwt beam="1">  1       21 0.71538037E-01 0.49725257E+03</pdfrwt>
<pdfrwt beam="2">  1       21 0.10488956E+00 0.49725257E+03</pdfrwt>
<totfact> 0.10814866E+03</totfact>
</mgrwt>
</event>
<event>
 5    0  0.1531977E+001  0.2257845E+03  0.7546771E-02  0.1129643E+00
         21   -1    0    0  502  501  0.00000000000E+00  0.00000000000E+00  0.29627487859E+03  0.29627487859E+03  0.00000000000E+00 0.  1.
         21   -1    0    0  504  502 -0.00000000000E+00 -0.00000000000E+00 -0.31394649952E+03  0.31394649952E+03  0.00000000000E+00 0.  1.
         25    1    1    2    0    0 -0.77048145287E+02 -0.21681583930E+03  0.62490939154E+02  0.26921300552E+03  0.12500000000E+03 0.  0.
         21    1    1    2  503  501 -0.69727869547E+02  0.15854872958E+03 -0.34332621627E+02  0.17657407610E+03  0.00000000000E+00 0.  1.
         21    1    1    2  504  503  0.14677601483E+03  0.58267109715E+02 -0.45829938458E+02  0.16443429650E+03  0.00000000000E+00 0.  1.
<mgrwt>
<rscale>  4 0.22578446E+03</rscale>
<asrwt>0</asrwt>
<pdfrwt beam="1">  1       21 0.45580750E-01 0.22578446E+03</pdfrwt>
<pdfrwt beam="2">  1       21 0.48299462E-01 0.22578446E+03</pdfrwt>
<totfact> 0.18536598E+04</totfact>
</mgrwt>
</event>
<event>
 5    0  0.1531977E+001  0.3150364E+03  0.7546771E-02  0.1077957E+00
         21   -1    0    0  502  501  0.00000000000E+00  0.00000000000E+00  0.10585400329E+04  0.10585400329E+04  0.00000000000E+00 0.  1.
         21   -1    0    0  504  502 -0.00000000000E+00 -0.00000000000E+00 -0.73760396482E+03  0.73760396482E+03  0.00000000000E+00 0. -1.
         25    1    1    2    0    0  0.88929581238E+02  0.29880379549E+03 -0.61821007214E+03  0.70356298362E+03  0.12500000000E+03 0.  0.
         21    1    1    2  503  501 -0.84052159976E+02 -0.27595857316E+03  0.99290697107E+03  0.10339642899E+04  0.00000000000E+00 0.  1.
         21    1    1    2  504  503 -0.48774212615E+01 -0.22845222330E+02 -0.53760830831E+02  0.58616724176E+02  0.00000000000E+00 0. -1.
<mgrwt>
<rscale>  4 0.31503643E+03</rscale>
<asrwt>0</asrwt>
<pdfrwt beam="1">  1       21 0.16285231E+00 0.31503643E+03</pdfrwt>
<pdfrwt beam="2">  1       21 0.11347753E+00 0.31503643E+03</pdfrwt>
<totfact> 0.12784523E+02</totfact>
</mgrwt>
</event>
<event>
 5    0  0.1531977E+001  0.4108131E+03  0.7546771E-02  0.1040099E+00
         21   -1    0    0  504  501  0.00000000000E+00  0.00000000000E+00  0.11798320776E+04  0.11798320776E+04  0.00000000000E+00 0. -1.
         21   -1    0    0  503  502 -0.00000000000E+00 -0.00000000000E+00 -0.28773597550E+03  0.28773597550E+03  0.00000000000E+00 0.  1.
         25    1    1    2    0    0  0.19688537322E+03 -0.34595955165E+03 -0.47093669383E+01  0.41725177016E+03  0.12500000000E+03 0.  0.
         21    1    1    2  503  501 -0.32807407799E+02 -0.81711995974E+01 -0.29673001385E+02  0.44984236356E+02  0.00000000000E+00 0. -1.
         21    1    1    2  504  502 -0.16407796542E+03  0.35413075125E+03  0.92647847044E+03  0.10053320466E+04  0.00000000000E+00 0. -1.
<mgrwt>
<rscale>  4 0.41081308E+03</rscale>
<asrwt>0</asrwt>
<pdfrwt beam="1">  1       21 0.18151262E+00 0.41081308E+03</pdfrwt>
<pdfrwt beam="2">  1       21 0.44267074E-01 0.41081308E+03</pdfrwt>
<totfact> 0.73971918E+02</totfact>
</mgrwt>
</event>
<event>
 5    0  0.1531977E+001  0.3259564E+03  0.7546771E-02  0.1072940E+00
         21   -1    0    0  503  501  0.00000000000E+00  0.00000000000E+00  0.55621570003E+03  0.55621570003E+03  0.00000000000E+00 0. -1.
         21   -1    0    0  504  502 -0.00000000000E+00 -0.00000000000E+00 -0.12001983458E+04  0.12001983458E+04  0.00000000000E+00 0.  1.
         25    1    1    2    0    0 -0.21629015618E+03  0.42708608700E+03 -0.75644258844E+03  0.90388845937E+03  0.12500000000E+03 0.  0.
         21    1    1    2  503  502  0.92531670312E+02 -0.16361943508E+03 -0.29619064982E+03  0.35080240960E+03  0.00000000000E+00 0.  1.
         21    1    1    2  504  501  0.12375848587E+03 -0.26346665193E+03  0.40865059247E+03  0.50172317689E+03  0.00000000000E+00 0. -1.
<mgrwt>
<rscale>  4 0.32595642E+03</rscale>
<asrwt>0</asrwt>
<pdfrwt beam="1">  1       21 0.85571646E-01 0.32595642E+03</pdfrwt>
<pdfrwt beam="2">  1       21 0.18464590E+00 0.32595642E+03</pdfrwt>
<totfact> 0.17463848E+02</totfact>
</mgrwt>
</event>
<event>
 5    0  0.1531977E+001  0.3310604E+03  0.7546771E-02  0.1070669E+00
         21   -1    0    0  503  501  0.00000000000E+00  0.00000000000E+00  0.16147331783E+03  0.16147331783E+03  0.00000000000E+00 0.  1.
         21   -1    0    0  504  502 -0.00000000000E+00 -0.00000000000E+00 -0.12854987140E+04  0.12854987140E+04  0.00000000000E+00 0.  1.
         25    1    1    2    0    0  0.28238073368E+03  0.13636740664E+03 -0.81070781239E+03  0.87818398153E+03  0.12500000000E+03 0.  0.
         21    1    1    2  503  502  0.67234161646E+01 -0.37844885233E+02 -0.25494894380E+03  0.25783018366E+03  0.00000000000E+00 0. -1.
         21    1    1    2  504  501 -0.28910414985E+03 -0.98522521408E+02 -0.58368639970E+02  0.31095786662E+03  0.00000000000E+00 0.  1.
<mgrwt>
<rscale>  4 0.33106042E+03</rscale>
<asrwt>0</asrwt>
<pdfrwt beam="1">  1       21 0.24842049E-01 0.33106042E+03</pdfrwt>
<pdfrwt beam="2">  1       21 0.19776903E+00 0.33106042E+03</pdfrwt>
<totfact> 0.19078336E+03</totfact>
</mgrwt>
</event>
<event>
 5    0  0.1531977E+001  0.2585900E+03  0.7546771E-02  0.1107993E+00
         21   -1    0    0  504  501  0.00000000000E+00  0.00000000000E+00  0.94243560710E+03  0.94243560710E+03  0.00000000000E+00 0. -1.
         21   -1    0    0  501  502 -0.00000000000E+00 -0.00000000000E+00 -0.84507991785E+02  0.84507991785E+02  0.00000000000E+00 0.  1.
         25    1    1    2    0    0 -0.12060391927E+03  0.19156852588E+03  0.69153468970E+03  0.73830145098E+03  0.12500000000E+03 0.  0.
         21    1    1    2  503  502  0.41632619891E+02 -0.11897367361E+03  0.68695830846E+02  0.14355182767E+03  0.00000000000E+00 0. -1.
         21    1    1    2  504  503  0.78971299374E+02 -0.72594852270E+02  0.97697094769E+02  0.14509032024E+03  0.00000000000E+00 0.  1.
<mgrwt>
<rscale>  4 0.25859003E+03</rscale>
<asrwt>0</asrwt>
<pdfrwt beam="1">  1       21 0.14499009E+00 0.25859003E+03</pdfrwt>
<pdfrwt beam="2">  1       21 0.13001230E-01 0.25859003E+03</pdfrwt>
<totfact> 0.15942843E+04</totfact>
</mgrwt>
</event>
<event>
 5    0  0.1531977E+001  0.2727528E+03  0.7546771E-02  0.1099714E+00
         21   -1    0    0  502  501  0.00000000000E+00  0.00000000000E+00  0.19459957457E+04  0.19459957457E+04  0.00000000000E+00 0.  1.
         21   -1    0    0  504  502 -0.00000000000E+00 -0.00000000000E+00 -0.39325033765E+03  0.39325033765E+03  0.00000000000E+00 0.  1.
         25    1    1    2    0    0  0.29575868673E+03 -0.36450390457E+02  0.12978759570E+04  0.13375009650E+04  0.12500000000E+03 0.  0.
         21    1    1    2  503  501 -0.19891681793E+03 -0.19298176270E+02  0.60345517300E+03  0.63568739635E+03  0.00000000000E+00 0.  1.
         21    1    1    2  504  503 -0.96841868806E+02  0.55748566727E+02 -0.34858572196E+03  0.36605772195E+03  0.00000000000E+00 0.  1.
<mgrwt>
<rscale>  4 0.27275278E+03</rscale>
<asrwt>0</asrwt>
<pdfrwt beam="1">  1       21 0.29938395E+00 0.27275278E+03</pdfrwt>
<pdfrwt beam="2">  1       21 0.60500053E-01 0.27275278E+03</pdfrwt>
<totfact> 0.78347487E+01</totfact>
</mgrwt>
</event>
