<event>
 5    0  0.2629946E-001  0.4748026E+03  0.7546771E-02  0.1020573E+00
         21   -1    0    0  502  501  0.00000000000E+00  0.00000000000E+00  0.19721954030E+03  0.19721954030E+03  0.00000000000E+00 0. -1.
         21   -1    0    0  504  502 -0.00000000000E+00 -0.00000000000E+00 -0.28576973968E+03  0.28576973968E+03  0.00000000000E+00 0. -1.
         25    1    1    2    0    0 -0.57366891469E+01 -0.21593999726E+03 -0.60061962753E+02  0.25670105451E+03  0.12500000000E+03 0.  0.
         21    1    1    2  503  501  0.25915715884E+02  0.85668781016E+02 -0.30175024949E+02  0.94452615110E+02  0.00000000000E+00 0. -1.
         21    1    1    2  504  503 -0.20179026737E+02  0.13027121625E+03  0.16867883152E+01  0.13183561035E+03  0.00000000000E+00 0. -1.
<mgrwt>
<rscale>  4 0.47480260E+03</rscale>
<asrwt>0</asrwt>
<pdfrwt beam="1">  1       21 0.30341468E-01 0.47480260E+03</pdfrwt>
<pdfrwt beam="2">  1       21 0.43964575E-01 0.47480260E+03</pdfrwt>
<totfact> 0.47422364E+04</totfact>
</mgrwt>
</event>
<event>
 5    0  0.2629946E-001  0.4736908E+03  0.7546771E-02  0.1020884E+00
         21   -1    0    0  504  501  0.00000000000E+00  0.00000000000E+00  0.13954201399E+03  0.13954201399E+03  0.00000000000E+00 0.  1.
         21   -1    0    0  501  502 -0.00000000000E+00 -0.00000000000E+00 -0.40199892708E+03  0.40199892708E+03  0.00000000000E+00 0.  1.
         25    1    1    2    0    0  0.16059929589E+03 -0.14028152784E+03 -0.90835080384E+02  0.26333828571E+03  0.12500000000E+03 0.  0.
         21    1    1    2  503  502 -0.13332935280E+03  0.12115437870E+03 -0.16488844299E+03  0.24421977485E+03  0.00000000000E+00 0.  1.
         21    1    1    2  504  503 -0.27269943092E+02  0.19127149143E+02 -0.67333897232E+01  0.33982880510E+02  0.00000000000E+00 0.  1.
<mgrwt>
<rscale>  4 0.47369078E+03</rscale>
<asrwt>0</asrwt>
<pdfrwt beam="1">  1       21 0.21468002E-01 0.47369078E+03</pdfrwt>
<pdfrwt beam="2">  1       21 0.61845989E-01 0.47369078E+03</pdfrwt>
<totfact> 0.44840395E+04</totfact>
</mgrwt>
</event>
<event>
 5    0  0.2629946E-001  0.5658915E+03  0.7546771E-02  0.9978812E-01
         21   -1    0    0  504  501  0.00000000000E+00  0.00000000000E+00  0.90944711229E+02  0.90944711229E+02  0.00000000000E+00 0. -1.
         21   -1    0    0  501  502 -0.00000000000E+00 -0.00000000000E+00 -0.88029643991E+03  0.88029643991E+03  0.00000000000E+00 0. -1.
         25    1    1    2    0    0 -0.20967340548E+03  0.12421316820E+03 -0.55756075125E+03  0.62120112641E+03  0.12500000000E+03 0.  0.
         21    1    1    2  503  502  0.14496824482E+02  0.15573517885E+02 -0.27787992243E+02  0.34998069836E+02  0.00000000000E+00 0. -1.
         21    1    1    2  504  503  0.19517658100E+03 -0.13978668608E+03 -0.20400298519E+03  0.31504195489E+03  0.00000000000E+00 0. -1.
<mgrwt>
<rscale>  4 0.56589153E+03</rscale>
<asrwt>0</asrwt>
<pdfrwt beam="1">  1       21 0.13991494E-01 0.56589153E+03</pdfrwt>
<pdfrwt beam="2">  1       21 0.13543022E+00 0.56589153E+03</pdfrwt>
<totfact> 0.15015384E+04</totfact>
</mgrwt>
</event>
<event>
 5    0  0.2629946E-001  0.5816962E+03  0.7546771E-02  0.9944125E-01
         21   -1    0    0  504  501  0.00000000000E+00  0.00000000000E+00  0.18760752820E+03  0.18760752820E+03  0.00000000000E+00 0.  1.
         21   -1    0    0  501  502 -0.00000000000E+00 -0.00000000000E+00 -0.45090209427E+03  0.45090209427E+03  0.00000000000E+00 0.  1.
         25    1    1    2    0    0 -0.22237685664E+03 -0.15196103152E+03 -0.96989429005E+02  0.31237088662E+03  0.12500000000E+03 0.  0.
         21    1    1    2  503  502  0.45912413510E+02  0.20982929257E+02 -0.69752547410E+02  0.86102560384E+02  0.00000000000E+00 0.  1.
         21    1    1    2  504  503  0.17646444313E+03  0.13097810226E+03 -0.96552589645E+02  0.24003617546E+03  0.00000000000E+00 0.  1.
<mgrwt>
<rscale>  4 0.58169623E+03</rscale>
<asrwt>0</asrwt>
<pdfrwt beam="1">  1       21 0.28862697E-01 0.58169623E+03</pdfrwt>
<pdfrwt beam="2">  1       21 0.69369553E-01 0.58169623E+03</pdfrwt>
<totfact> 0.19041378E+04</totfact>
</mgrwt>
</event>
<event>
 5    0  0.2629946E-001  0.5251258E+03  0.7546771E-02  0.1007421E+00
         21   -1    0    0  502  501  0.00000000000E+00  0.00000000000E+00  0.16968959106E+03  0.16968959106E+03  0.00000000000E+00 0. -1.
         21   -1    0    0  504  502 -0.00000000000E+00 -0.00000000000E+00 -0.40626699556E+03  0.40626699556E+03  0.00000000000E+00 0. -1.
         25    1    1    2    0    0 -0.22149145356E+03 -0.45093251397E+02 -0.86978948075E+02  0.27254761553E+03  0.12500000000E+03 0.  0.
         21    1    1    2  503  501  0.14673222411E+03  0.38687022114E+02 -0.19190021052E+02  0.15295518356E+03  0.00000000000E+00 0. -1.
         21    1    1    2  504  503  0.74759229458E+02  0.64062292831E+01 -0.13040843538E+03  0.15045378753E+03  0.00000000000E+00 0. -1.
<mgrwt>
<rscale>  4 0.52512581E+03</rscale>
<asrwt>0</asrwt>
<pdfrwt beam="1">  1       21 0.26106091E-01 0.52512581E+03</pdfrwt>
<pdfrwt beam="2">  1       21 0.62502614E-01 0.52512581E+03</pdfrwt>
<totfact> 0.29656437E+04</totfact>
</mgrwt>
</event>
<event>
 5    0  0.2629946E-001  0.6187695E+03  0.7546771E-02  0.9867213E-01
         21   -1    0    0  504  501  0.00000000000E+00  0.00000000000E+00  0.10031371759E+04  0.10031371759E+04  0.00000000000E+00 0. -1.
         21   -1    0    0  501  502 -0.00000000000E+00 -0.00000000000E+00 -0.95419581865E+02  0.95419581865E+02  0.00000000000E+00 0. -1.
         25    1    1    2    0    0 -0.37742241606E+02 -0.22836307598E+03  0.15045372260E+03  0.30304371618E+03  0.12500000000E+03 0.  0.
         21    1    1    2  503  502 -0.17225370159E+02  0.28208256913E+02  0.66874745262E+02  0.74596586309E+02  0.00000000000E+00 0. -1.
         21    1    1    2  504  503  0.54967611765E+02  0.20015481907E+03  0.69038912613E+03  0.72091645523E+03  0.00000000000E+00 0. -1.
<mgrwt>
<rscale>  4 0.61876952E+03</rscale>
<asrwt>0</asrwt>
<pdfrwt beam="1">  1       21 0.15432879E+00 0.61876952E+03</pdfrwt>
<pdfrwt beam="2">  1       21 0.14679936E-01 0.61876952E+03</pdfrwt>
<totfact> 0.95212076E+03</totfact>
</mgrwt>
</event>
<event>
 5    0  0.2629946E-001  0.6075491E+03  0.7546771E-02  0.9889867E-01
         21   -1    0    0  504  501  0.00000000000E+00  0.00000000000E+00  0.15192901317E+04  0.15192901317E+04  0.00000000000E+00 0. -1.
         21   -1    0    0  501  502 -0.00000000000E+00 -0.00000000000E+00 -0.60738221688E+02  0.60738221688E+02  0.00000000000E+00 0. -1.
         25    1    1    2    0    0 -0.17853140458E+03  0.13701429525E+03  0.30150440520E+03  0.39645464543E+03  0.12500000000E+03 0.  0.
         21    1    1    2  503  502  0.45465522640E+02 -0.48951518711E+02  0.15334352911E+03  0.16726506764E+03  0.00000000000E+00 0. -1.
         21    1    1    2  504  503  0.13306588195E+03 -0.88062776542E+02  0.10037039757E+04  0.10163086403E+04  0.00000000000E+00 0. -1.
<mgrwt>
<rscale>  4 0.60754911E+03</rscale>
<asrwt>0</asrwt>
<pdfrwt beam="1">  1       21 0.23373692E+00 0.60754911E+03</pdfrwt>
<pdfrwt beam="2">  1       21 0.93443429E-02 0.60754911E+03</pdfrwt>
<totfact> 0.61521953E+03</totfact>
</mgrwt>
</event>
<event>
 5    0  0.2629946E-001  0.5260989E+03  0.7546771E-02  0.1007183E+00
         21   -1    0    0  504  501  0.00000000000E+00  0.00000000000E+00  0.28496363653E+03  0.28496363653E+03  0.00000000000E+00 0. -1.
         21   -1    0    0  501  502 -0.00000000000E+00 -0.00000000000E+00 -0.24282048376E+03  0.24282048376E+03  0.00000000000E+00 0. -1.
         25    1    1    2    0    0  0.14323143711E+03  0.19310039719E+03  0.69526907016E+01  0.27106520965E+03  0.12500000000E+03 0.  0.
         21    1    1    2  503  502 -0.89136749946E+02 -0.16357963943E+03  0.10997093794E+01  0.18629242601E+03  0.00000000000E+00 0. -1.
         21    1    1    2  504  503 -0.54094687163E+02 -0.29520757760E+02  0.34090752688E+02  0.70426484627E+02  0.00000000000E+00 0. -1.
<mgrwt>
<rscale>  4 0.52609888E+03</rscale>
<asrwt>0</asrwt>
<pdfrwt beam="1">  1       21 0.43840559E-01 0.52609888E+03</pdfrwt>
<pdfrwt beam="2">  1       21 0.37356997E-01 0.52609888E+03</pdfrwt>
<totfact> 0.31017777E+04</totfact>
</mgrwt>
</event>
<event>
 5    0  0.2629946E-001  0.4851494E+03  0.7546771E-02  0.1017729E+00
         21   -1    0    0  502  501  0.00000000000E+00  0.00000000000E+00  0.54890449500E+03  0.54890449500E+03  0.00000000000E+00 0.  1.
         21   -1    0    0  504  502 -0.00000000000E+00 -0.00000000000E+00 -0.10719986033E+03  0.10719986033E+03  0.00000000000E+00 0.  1.
         25    1    1    2    0    0  0.15614604521E+03 -0.12770840448E+03  0.25208681774E+03  0.34621350015E+03  0.12500000000E+03 0.  0.
         21    1    1    2  503  501 -0.10344347236E+03  0.13891498011E+03  0.18851364657E+03  0.25599866916E+03  0.00000000000E+00 0.  1.
         21    1    1    2  504  503 -0.52702572850E+02 -0.11206575626E+02  0.11041703707E+01  0.53892186024E+02  0.00000000000E+00 0.  1.
<mgrwt>
<rscale>  4 0.48514940E+03</rscale>
<asrwt>0</asrwt>
<pdfrwt beam="1">  1       21 0.84446843E-01 0.48514940E+03</pdfrwt>
<pdfrwt beam="2">  1       21 0.16492287E-01 0.48514940E+03</pdfrwt>
<totfact> 0.36349433E+04</totfact>
</mgrwt>
</event>
<event>
 5    0  0.2629946E-001  0.5612286E+03  0.7546771E-02  0.9989279E-01
         21   -1    0    0  502  501  0.00000000000E+00  0.00000000000E+00  0.43151222945E+03  0.43151222945E+03  0.00000000000E+00 0.  1.
         21   -1    0    0  504  502 -0.00000000000E+00 -0.00000000000E+00 -0.18248471728E+03  0.18248471728E+03  0.00000000000E+00 0.  1.
         25    1    1    2    0    0  0.20775738636E+03 -0.80693328103E+02  0.28614955045E+03  0.38364190336E+03  0.12500000000E+03 0.  0.
         21    1    1    2  503  501 -0.11009996230E+03  0.43706891794E+02  0.29732828035E+01  0.11849529315E+03  0.00000000000E+00 0.  1.
         21    1    1    2  504  503 -0.97657424063E+02  0.36986436309E+02 -0.40095321085E+02  0.11185975022E+03  0.00000000000E+00 0.  1.
<mgrwt>
<rscale>  4 0.56122861E+03</rscale>
<asrwt>0</asrwt>
<pdfrwt beam="1">  1       21 0.66386497E-01 0.56122861E+03</pdfrwt>
<pdfrwt beam="2">  1       21 0.28074572E-01 0.56122861E+03</pdfrwt>
<totfact> 0.22302362E+04</totfact>
</mgrwt>
</event>
<event>
 5    0  0.2629946E-001  0.5024192E+03  0.7546771E-02  0.1013149E+00
         21   -1    0    0  504  501  0.00000000000E+00  0.00000000000E+00  0.38667453016E+03  0.38667453016E+03  0.00000000000E+00 0. -1.
         21   -1    0    0  501  502 -0.00000000000E+00 -0.00000000000E+00 -0.16320250538E+03  0.16320250538E+03  0.00000000000E+00 0. -1.
         25    1    1    2    0    0 -0.17948182977E+03 -0.14025829308E+03  0.14480844541E+03  0.29745689076E+03  0.12500000000E+03 0.  0.
         21    1    1    2  503  502  0.87308372211E+02  0.89893926200E+02  0.74828921924E+01  0.12553749839E+03  0.00000000000E+00 0. -1.
         21    1    1    2  504  503  0.92173457563E+02  0.50364366875E+02  0.71180687173E+02  0.12688264640E+03  0.00000000000E+00 0. -1.
<mgrwt>
<rscale>  4 0.50241916E+03</rscale>
<asrwt>0</asrwt>
<pdfrwt beam="1">  1       21 0.59488389E-01 0.50241916E+03</pdfrwt>
<pdfrwt beam="2">  1       21 0.25108078E-01 0.50241916E+03</pdfrwt>
<totfact> 0.35857959E+04</totfact>
</mgrwt>
</event>
<event>
 5    0  0.2629946E-001  0.6285828E+03  0.7546771E-02  0.9847818E-01
         21   -1    0    0  502  501  0.00000000000E+00  0.00000000000E+00  0.17950060938E+03  0.17950060938E+03  0.00000000000E+00 0. -1.
         21   -1    0    0  504  502 -0.00000000000E+00 -0.00000000000E+00 -0.55029950974E+03  0.55029950974E+03  0.00000000000E+00 0. -1.
         25    1    1    2    0    0  0.11242935308E+03 -0.21284392378E+03  0.44729483792E+00  0.27123439199E+03  0.12500000000E+03 0.  0.
         21    1    1    2  503  501 -0.12915118308E+02  0.96268478235E+02 -0.67325862643E+02  0.11818287508E+03  0.00000000000E+00 0. -1.
         21    1    1    2  504  503 -0.99514234773E+02  0.11657544554E+03 -0.30392033256E+03  0.34038285205E+03  0.00000000000E+00 0. -1.
<mgrwt>
<rscale>  4 0.62858284E+03</rscale>
<asrwt>0</asrwt>
<pdfrwt beam="1">  1       21 0.27615479E-01 0.62858284E+03</pdfrwt>
<pdfrwt beam="2">  1       21 0.84661463E-01 0.62858284E+03</pdfrwt>
<totfact> 0.13004291E+04</totfact>
</mgrwt>
</event>
<event>
 5    0  0.2629946E-001  0.5277295E+03  0.7546771E-02  0.1006784E+00
         21   -1    0    0  504  501  0.00000000000E+00  0.00000000000E+00  0.17625146373E+03  0.17625146373E+03  0.00000000000E+00 0.  1.
         21   -1    0    0  501  502 -0.00000000000E+00 -0.00000000000E+00 -0.39502989709E+03  0.39502989709E+03  0.00000000000E+00 0.  1.
         25    1    1    2    0    0  0.17553580210E+03 -0.16590909725E+03 -0.16869339468E+03  0.32003297920E+03  0.12500000000E+03 0.  0.
         21    1    1    2  503  502 -0.26857824629E+02  0.73377486032E+01 -0.13036409842E+02  0.30743020019E+02  0.00000000000E+00 0. -1.
         21    1    1    2  504  503 -0.14867797747E+03  0.15857134864E+03 -0.37048628838E+02  0.22050536160E+03  0.00000000000E+00 0.  1.
<mgrwt>
<rscale>  4 0.52772947E+03</rscale>
<asrwt>0</asrwt>
<pdfrwt beam="1">  1       21 0.27115610E-01 0.52772947E+03</pdfrwt>
<pdfrwt beam="2">  1       21 0.60773829E-01 0.52772947E+03</pdfrwt>
<totfact> 0.29270184E+04</totfact>
</mgrwt>
</event>
<event>
 5    0  0.2629946E-001  0.6328719E+03  0.7546771E-02  0.9839460E-01
         21   -1    0    0  502  501  0.00000000000E+00  0.00000000000E+00  0.42768159615E+03  0.42768159615E+03  0.00000000000E+00 0. -1.
         21   -1    0    0  504  502 -0.00000000000E+00 -0.00000000000E+00 -0.23412679684E+03  0.23412679684E+03  0.00000000000E+00 0. -1.
         25    1    1    2    0    0 -0.25379422051E+03  0.10496409062E+03  0.23274919824E+03  0.38108549692E+03  0.12500000000E+03 0.  0.
         21    1    1    2  503  501  0.33442542355E+02 -0.22774442747E+01  0.41815772910E+01  0.33779816166E+02  0.00000000000E+00 0. -1.
         21    1    1    2  504  503  0.22035167815E+03 -0.10268664634E+03 -0.43375976220E+02  0.24694307991E+03  0.00000000000E+00 0. -1.
<mgrwt>
<rscale>  4 0.63287194E+03</rscale>
<asrwt>0</asrwt>
<pdfrwt beam="1">  1       21 0.65797169E-01 0.63287194E+03</pdfrwt>
<pdfrwt beam="2">  1       21 0.36019507E-01 0.63287194E+03</pdfrwt>
<totfact> 0.13584671E+04</totfact>
</mgrwt>
</event>
<event>
 5    0  0.2629946E-001  0.6333851E+03  0.7546771E-02  0.9838465E-01
         21   -1    0    0  502  501  0.00000000000E+00  0.00000000000E+00  0.59448770712E+03  0.59448770712E+03  0.00000000000E+00 0. -1.
         21   -1    0    0  504  502 -0.00000000000E+00 -0.00000000000E+00 -0.16870690885E+03  0.16870690885E+03  0.00000000000E+00 0. -1.
         25    1    1    2    0    0 -0.20714037875E+03  0.87155296718E+02  0.43660801576E+03  0.50670972133E+03  0.12500000000E+03 0.  0.
         21    1    1    2  503  501  0.24223973796E+02 -0.29552195476E+02  0.42780351727E+02  0.57361063952E+02  0.00000000000E+00 0.  1.
         21    1    1    2  504  503  0.18291640495E+03 -0.57603101243E+02 -0.53607569224E+02  0.19912383070E+03  0.00000000000E+00 0. -1.
<mgrwt>
<rscale>  4 0.63338514E+03</rscale>
<asrwt>0</asrwt>
<pdfrwt beam="1">  1       21 0.91459646E-01 0.63338514E+03</pdfrwt>
<pdfrwt beam="2">  1       21 0.25954909E-01 0.63338514E+03</pdfrwt>
<totfact> 0.12220911E+04</totfact>
</mgrwt>
</event>
<event>
 5    0  0.2629946E-001  0.4778741E+03  0.7546771E-02  0.1019721E+00
         21   -1    0    0  502  501  0.00000000000E+00  0.00000000000E+00  0.18191228852E+04  0.18191228852E+04  0.00000000000E+00 0. -1.
         21   -1    0    0  504  502 -0.00000000000E+00 -0.00000000000E+00 -0.31383755641E+02  0.31383755641E+02  0.00000000000E+00 0. -1.
         25    1    1    2    0    0  0.16088459348E+02  0.20038810066E+03  0.11618754840E+04  0.11857461236E+04  0.12500000000E+03 0.  0.
         21    1    1    2  503  501 -0.36892664931E+02 -0.19778576952E+03  0.58814072887E+03  0.62160260320E+03  0.00000000000E+00 0. -1.
         21    1    1    2  504  503  0.20804205582E+02 -0.26023311369E+01  0.37722916689E+02  0.43157913999E+02  0.00000000000E+00 0. -1.
<mgrwt>
<rscale>  4 0.47787408E+03</rscale>
<asrwt>0</asrwt>
<pdfrwt beam="1">  1       21 0.27986498E+00 0.47787408E+03</pdfrwt>
<pdfrwt beam="2">  1       21 0.48282715E-02 0.47787408E+03</pdfrwt>
<totfact> 0.10675303E+04</totfact>
</mgrwt>
</event>
<event>
 5    0  0.2629946E-001  0.5504891E+03  0.7546771E-02  0.1001381E+00
         21   -1    0    0  504  501  0.00000000000E+00  0.00000000000E+00  0.12998989605E+03  0.12998989605E+03  0.00000000000E+00 0.  1.
         21   -1    0    0  501  502 -0.00000000000E+00 -0.00000000000E+00 -0.58281107726E+03  0.58281107726E+03  0.00000000000E+00 0.  1.
         25    1    1    2    0    0  0.69067968305E+02  0.20295529914E+03 -0.60640281934E+02  0.25546718280E+03  0.12500000000E+03 0.  0.
         21    1    1    2  503  502 -0.47765328801E+02 -0.18978173961E+03 -0.38398643345E+03  0.43098052903E+03  0.00000000000E+00 0.  1.
         21    1    1    2  504  503 -0.21302639504E+02 -0.13173559538E+02 -0.81944658120E+01  0.26353261481E+02  0.00000000000E+00 0. -1.
<mgrwt>
<rscale>  4 0.55048906E+03</rscale>
<asrwt>0</asrwt>
<pdfrwt beam="1">  1       21 0.19998445E-01 0.55048906E+03</pdfrwt>
<pdfrwt beam="2">  1       21 0.89663244E-01 0.55048906E+03</pdfrwt>
<totfact> 0.21608103E+04</totfact>
</mgrwt>
</event>
<event>
 5    0  0.2629946E-001  0.4632960E+03  0.7546771E-02  0.1023830E+00
         21   -1    0    0  504  501  0.00000000000E+00  0.00000000000E+00  0.69723876592E+03  0.69723876592E+03  0.00000000000E+00 0.  1.
         21   -1    0    0  501  502 -0.00000000000E+00 -0.00000000000E+00 -0.76961859004E+02  0.76961859004E+02  0.00000000000E+00 0.  1.
         25    1    1    2    0    0 -0.18432247854E+01 -0.21345864481E+03  0.33084033666E+03  0.41309601654E+03  0.12500000000E+03 0.  0.
         21    1    1    2  503  502  0.73125577746E+01  0.18945543608E+03  0.23979137979E+03  0.30569059780E+03  0.00000000000E+00 0.  1.
         21    1    1    2  504  503 -0.54693329892E+01  0.24003208722E+02  0.49645190461E+02  0.55414010577E+02  0.00000000000E+00 0. -1.
<mgrwt>
<rscale>  4 0.46329598E+03</rscale>
<asrwt>0</asrwt>
<pdfrwt beam="1">  1       21 0.10726750E+00 0.46329598E+03</pdfrwt>
<pdfrwt beam="2">  1       21 0.11840286E-01 0.46329598E+03</pdfrwt>
<totfact> 0.37895899E+04</totfact>
</mgrwt>
</event>
<event>
 5    0  0.2629946E-001  0.4496320E+03  0.7546771E-02  0.1027832E+00
         21   -1    0    0  504  501  0.00000000000E+00  0.00000000000E+00  0.23579631459E+03  0.23579631459E+03  0.00000000000E+00 0.  1.
         21   -1    0    0  501  502 -0.00000000000E+00 -0.00000000000E+00 -0.21434703757E+03  0.21434703757E+03  0.00000000000E+00 0.  1.
         25    1    1    2    0    0  0.64063003898E-02 -0.20598842568E+03  0.17431994048E+02  0.24157836404E+03  0.12500000000E+03 0.  0.
         21    1    1    2  503  502 -0.77450793760E+01  0.29312976339E+02 -0.78617345771E+01  0.31321617246E+02  0.00000000000E+00 0. -1.
         21    1    1    2  504  503  0.77386730756E+01  0.17667544934E+03  0.11879017551E+02  0.17724337087E+03  0.00000000000E+00 0.  1.
<mgrwt>
<rscale>  4 0.44963203E+03</rscale>
<asrwt>0</asrwt>
<pdfrwt beam="1">  1       21 0.36276356E-01 0.44963203E+03</pdfrwt>
<pdfrwt beam="2">  1       21 0.32976467E-01 0.44963203E+03</pdfrwt>
<totfact> 0.59973004E+04</totfact>
</mgrwt>
</event>
<event>
 5    0  0.2629946E-001  0.6096447E+03  0.7546771E-02  0.9885596E-01
         21   -1    0    0  504  501  0.00000000000E+00  0.00000000000E+00  0.19019315495E+03  0.19019315495E+03  0.00000000000E+00 0.  1.
         21   -1    0    0  501  502 -0.00000000000E+00 -0.00000000000E+00 -0.48853848079E+03  0.48853848079E+03  0.00000000000E+00 0.  1.
         25    1    1    2    0    0  0.20973924444E+02  0.24029520046E+03 -0.14995649839E+02  0.27208740946E+03  0.12500000000E+03 0.  0.
         21    1    1    2  503  502 -0.73306340836E+02 -0.22547883840E+03 -0.22469870060E+03  0.32665583146E+03  0.00000000000E+00 0.  1.
         21    1    1    2  504  503  0.52332416392E+02 -0.14816362057E+02 -0.58650975402E+02  0.79988394819E+02  0.00000000000E+00 0.  1.
<mgrwt>
<rscale>  4 0.60964473E+03</rscale>
<asrwt>0</asrwt>
<pdfrwt beam="1">  1       21 0.29260486E-01 0.60964473E+03</pdfrwt>
<pdfrwt beam="2">  1       21 0.75159766E-01 0.60964473E+03</pdfrwt>
<totfact> 0.15348241E+04</totfact>
</mgrwt>
</event>
<event>
 5    0  0.2629946E-001  0.5934766E+03  0.7546771E-02  0.9919033E-01
         21   -1    0    0  504  501  0.00000000000E+00  0.00000000000E+00  0.13060839440E+03  0.13060839440E+03  0.00000000000E+00 0. -1.
         21   -1    0    0  501  502 -0.00000000000E+00 -0.00000000000E+00 -0.67418030310E+03  0.67418030310E+03  0.00000000000E+00 0. -1.
         25    1    1    2    0    0  0.13347970273E+03  0.24310409970E+03 -0.27758538205E+03  0.41181923057E+03  0.12500000000E+03 0.  0.
         21    1    1    2  503  502 -0.87887627191E+02 -0.21456012580E+03 -0.18943553942E+03  0.29940959602E+03  0.00000000000E+00 0. -1.
         21    1    1    2  504  503 -0.45592075538E+02 -0.28543973908E+02 -0.76550987229E+02  0.93559870907E+02  0.00000000000E+00 0.  1.
<mgrwt>
<rscale>  4 0.59347656E+03</rscale>
<asrwt>0</asrwt>
<pdfrwt beam="1">  1       21 0.20093599E-01 0.59347656E+03</pdfrwt>
<pdfrwt beam="2">  1       21 0.10372005E+00 0.59347656E+03</pdfrwt>
<totfact> 0.14908359E+04</totfact>
</mgrwt>
</event>
<event>
 5    0  0.2629946E-001  0.4704609E+03  0.7546771E-02  0.1021790E+00
         21   -1    0    0  504  501  0.00000000000E+00  0.00000000000E+00  0.18273185037E+03  0.18273185037E+03  0.00000000000E+00 0.  1.
         21   -1    0    0  501  502 -0.00000000000E+00 -0.00000000000E+00 -0.30281184520E+03  0.30281184520E+03  0.00000000000E+00 0.  1.
         25    1    1    2    0    0  0.19749526443E+03  0.70159265106E+02 -0.10399592313E+03  0.26526751399E+03  0.12500000000E+03 0.  0.
         21    1    1    2  503  502 -0.37179331522E+02 -0.22877816482E+02  0.21947744347E+02  0.48861034182E+02  0.00000000000E+00 0.  1.
         21    1    1    2  504  503 -0.16031593291E+03 -0.47281448623E+02 -0.38031816048E+02  0.17141514740E+03  0.00000000000E+00 0.  1.
<mgrwt>
<rscale>  4 0.47046092E+03</rscale>
<asrwt>0</asrwt>
<pdfrwt beam="1">  1       21 0.28112592E-01 0.47046092E+03</pdfrwt>
<pdfrwt beam="2">  1       21 0.46586438E-01 0.47046092E+03</pdfrwt>
<totfact> 0.48897223E+04</totfact>
</mgrwt>
</event>
<event>
 5    0  0.2629946E-001  0.5068385E+03  0.7546771E-02  0.1012009E+00
         21   -1    0    0  502  501  0.00000000000E+00  0.00000000000E+00  0.40630828298E+03  0.40630828298E+03  0.00000000000E+00 0.  1.
         21   -1    0    0  504  502 -0.00000000000E+00 -0.00000000000E+00 -0.15806056748E+03  0.15806056748E+03  0.00000000000E+00 0.  1.
         25    1    1    2    0    0 -0.22642450694E+03  0.51343118642E+02  0.14988408750E+03  0.30330580749E+03  0.12500000000E+03 0.  0.
         21    1    1    2  503  501  0.52511289816E+02 -0.12003108074E+02  0.56185495704E+02  0.77835211113E+02  0.00000000000E+00 0.  1.
         21    1    1    2  504  503  0.17391321712E+03 -0.39340010568E+02  0.42178132290E+02  0.18322783185E+03  0.00000000000E+00 0.  1.
<mgrwt>
<rscale>  4 0.50683851E+03</rscale>
<asrwt>0</asrwt>
<pdfrwt beam="1">  1       21 0.62508966E-01 0.50683851E+03</pdfrwt>
<pdfrwt beam="2">  1       21 0.24317010E-01 0.50683851E+03</pdfrwt>
<totfact> 0.34187949E+04</totfact>
</mgrwt>
</event>
<event>
 5    0  0.2629946E-001  0.6585498E+03  0.7546771E-02  0.9790867E-01
         21   -1    0    0  502  501  0.00000000000E+00  0.00000000000E+00  0.10687155663E+04  0.10687155663E+04  0.00000000000E+00 0. -1.
         21   -1    0    0  504  502 -0.00000000000E+00 -0.00000000000E+00 -0.10145070832E+03  0.10145070832E+03  0.00000000000E+00 0. -1.
         25    1    1    2    0    0 -0.21551475996E+03  0.10319356678E+03  0.24614708056E+03  0.36511492609E+03  0.12500000000E+03 0.  0.
         21    1    1    2  503  501  0.15030479324E+02 -0.20585509580E+02  0.48038265913E+03  0.48105839324E+03  0.00000000000E+00 0.  1.
         21    1    1    2  504  503  0.20048428063E+03 -0.82608057203E+02  0.24073511826E+03  0.32399295526E+03  0.00000000000E+00 0. -1.
<mgrwt>
<rscale>  4 0.65854977E+03</rscale>
<asrwt>0</asrwt>
<pdfrwt beam="1">  1       21 0.16441777E+00 0.65854977E+03</pdfrwt>
<pdfrwt beam="2">  1       21 0.15607802E-01 0.65854977E+03</pdfrwt>
<totfact> 0.70392134E+03</totfact>
</mgrwt>
</event>
<event>
 5    0  0.2629946E-001  0.4493731E+03  0.7546771E-02  0.1027909E+00
         21   -1    0    0  504  501  0.00000000000E+00  0.00000000000E+00  0.15718558489E+04  0.15718558489E+04  0.00000000000E+00 0. -1.
         21   -1    0    0  501  502 -0.00000000000E+00 -0.00000000000E+00 -0.32117475759E+02  0.32117475759E+02  0.00000000000E+00 0. -1.
         25    1    1    2    0    0  0.55601289170E+02  0.19373928151E+03  0.68974436592E+03  0.72938241196E+03  0.12500000000E+03 0.  0.
         21    1    1    2  503  502 -0.41901755283E+02 -0.17206480717E+03  0.78486585109E+03  0.80459707878E+03  0.00000000000E+00 0. -1.
         21    1    1    2  504  503 -0.13699533887E+02 -0.21674474342E+02  0.65128156112E+02  0.69993833909E+02  0.00000000000E+00 0. -1.
<mgrwt>
<rscale>  4 0.44937308E+03</rscale>
<asrwt>0</asrwt>
<pdfrwt beam="1">  1       21 0.24182392E+00 0.44937308E+03</pdfrwt>
<pdfrwt beam="2">  1       21 0.49411513E-02 0.44937308E+03</pdfrwt>
<totfact> 0.17700451E+04</totfact>
</mgrwt>
</event>
<event>
 5    0  0.2629946E-001  0.5006743E+03  0.7546771E-02  0.1013603E+00
         21   -1    0    0  504  501  0.00000000000E+00  0.00000000000E+00  0.33553292101E+03  0.33553292101E+03  0.00000000000E+00 0. -1.
         21   -1    0    0  501  502 -0.00000000000E+00 -0.00000000000E+00 -0.18677357803E+03  0.18677357803E+03  0.00000000000E+00 0. -1.
         25    1    1    2    0    0 -0.21494353691E+03  0.59095136039E+02  0.15114042574E+03  0.29691983338E+03  0.12500000000E+03 0.  0.
         21    1    1    2  503  502  0.18177071704E+03 -0.48538270452E+02 -0.14068571347E+02  0.18866499933E+03  0.00000000000E+00 0. -1.
         21    1    1    2  504  503  0.33172819866E+02 -0.10556865587E+02  0.11687488581E+02  0.36721666332E+02  0.00000000000E+00 0. -1.
<mgrwt>
<rscale>  4 0.50067428E+03</rscale>
<asrwt>0</asrwt>
<pdfrwt beam="1">  1       21 0.51620449E-01 0.50067428E+03</pdfrwt>
<pdfrwt beam="2">  1       21 0.28734397E-01 0.50067428E+03</pdfrwt>
<totfact> 0.37418581E+04</totfact>
</mgrwt>
</event>
<event>
 5    0  0.2629946E-001  0.4852601E+03  0.7546771E-02  0.1017699E+00
         21   -1    0    0  504  501  0.00000000000E+00  0.00000000000E+00  0.38204574004E+03  0.38204574004E+03  0.00000000000E+00 0.  1.
         21   -1    0    0  501  502 -0.00000000000E+00 -0.00000000000E+00 -0.15408980361E+03  0.15408980361E+03  0.00000000000E+00 0.  1.
         25    1    1    2    0    0  0.19526584095E+03  0.65047916603E+02  0.58836968182E+02  0.24788458791E+03  0.12500000000E+03 0.  0.
         21    1    1    2  503  502 -0.16332855686E+03 -0.53320790198E+01  0.10051723434E+03  0.19185505715E+03  0.00000000000E+00 0.  1.
         21    1    1    2  504  503 -0.31937284090E+02 -0.59715837584E+02  0.68601733906E+02  0.96395898607E+02  0.00000000000E+00 0. -1.
<mgrwt>
<rscale>  4 0.48526015E+03</rscale>
<asrwt>0</asrwt>
<pdfrwt beam="1">  1       21 0.58776267E-01 0.48526015E+03</pdfrwt>
<pdfrwt beam="2">  1       21 0.23706124E-01 0.48526015E+03</pdfrwt>
<totfact> 0.41316849E+04</totfact>
</mgrwt>
</event>
<event>
 5    0  0.2629946E-001  0.4970168E+03  0.7546771E-02  0.1014561E+00
         21   -1    0    0  504  501  0.00000000000E+00  0.00000000000E+00  0.39284676298E+03  0.39284676298E+03  0.00000000000E+00 0. -1.
         21   -1    0    0  501  502 -0.00000000000E+00 -0.00000000000E+00 -0.15720231574E+03  0.15720231574E+03  0.00000000000E+00 0. -1.
         25    1    1    2    0    0  0.49366387315E+02  0.22274127475E+03  0.15762383206E+03  0.30417262879E+03  0.12500000000E+03 0.  0.
         21    1    1    2  503  502 -0.53577345787E+02 -0.17309734203E+03  0.47033743290E+02  0.18720415275E+03  0.00000000000E+00 0. -1.
         21    1    1    2  504  503  0.42109584719E+01 -0.49643932720E+02  0.30986871883E+02  0.58672297179E+02  0.00000000000E+00 0. -1.
<mgrwt>
<rscale>  4 0.49701678E+03</rscale>
<asrwt>0</asrwt>
<pdfrwt beam="1">  1       21 0.60437963E-01 0.49701678E+03</pdfrwt>
<pdfrwt beam="2">  1       21 0.24184972E-01 0.49701678E+03</pdfrwt>
<totfact> 0.37293972E+04</totfact>
</mgrwt>
</event>
<event>
 5    0  0.2629946E-001  0.4661584E+03  0.7546771E-02  0.1023010E+00
         21   -1    0    0  504  501  0.00000000000E+00  0.00000000000E+00  0.43444048714E+03  0.43444048714E+03  0.00000000000E+00 0. -1.
         21   -1    0    0  501  502 -0.00000000000E+00 -0.00000000000E+00 -0.12504799962E+03  0.12504799962E+03  0.00000000000E+00 0. -1.
         25    1    1    2    0    0  0.20477959487E+03  0.36563508217E+02  0.18054024950E+03  0.30247537800E+03  0.12500000000E+03 0.  0.
         21    1    1    2  503  502 -0.11168744522E+03  0.19031033569E+02  0.55990461673E+02  0.12637720307E+03  0.00000000000E+00 0. -1.
         21    1    1    2  504  503 -0.93092149647E+02 -0.55594541786E+02  0.72861776349E+02  0.13063590569E+03  0.00000000000E+00 0. -1.
<mgrwt>
<rscale>  4 0.46615840E+03</rscale>
<asrwt>0</asrwt>
<pdfrwt beam="1">  1       21 0.66836997E-01 0.46615840E+03</pdfrwt>
<pdfrwt beam="2">  1       21 0.19238154E-01 0.46615840E+03</pdfrwt>
<totfact> 0.46603485E+04</totfact>
</mgrwt>
</event>
<event>
 5    0  0.2629946E-001  0.6344761E+03  0.7546771E-02  0.9836353E-01
         21   -1    0    0  504  501  0.00000000000E+00  0.00000000000E+00  0.20269218794E+04  0.20269218794E+04  0.00000000000E+00 0. -1.
         21   -1    0    0  501  502 -0.00000000000E+00 -0.00000000000E+00 -0.49651628563E+02  0.49651628563E+02  0.00000000000E+00 0. -1.
         25    1    1    2    0    0  0.28309372547E+03  0.73281429555E+02  0.11257123789E+04  0.11697715953E+04  0.12500000000E+03 0.  0.
         21    1    1    2  503  502 -0.10950739979E+03 -0.69587221488E+02  0.26453639339E+03  0.29464174082E+03  0.00000000000E+00 0. -1.
         21    1    1    2  504  503 -0.17358632569E+03 -0.36942080666E+01  0.58702147862E+03  0.61216017185E+03  0.00000000000E+00 0. -1.
<mgrwt>
<rscale>  4 0.63447607E+03</rscale>
<asrwt>0</asrwt>
<pdfrwt beam="1">  1       21 0.31183407E+00 0.63447607E+03</pdfrwt>
<pdfrwt beam="2">  1       21 0.76387136E-02 0.63447607E+03</pdfrwt>
<totfact> 0.28879460E+03</totfact>
</mgrwt>
</event>
<event>
 5    0  0.2629946E-001  0.4808617E+03  0.7546771E-02  0.1018899E+00
         21   -1    0    0  504  501  0.00000000000E+00  0.00000000000E+00  0.26312638886E+02  0.26312638886E+02  0.00000000000E+00 0. -1.
         21   -1    0    0  501  502 -0.00000000000E+00 -0.00000000000E+00 -0.21969286804E+04  0.21969286804E+04  0.00000000000E+00 0. -1.
         25    1    1    2    0    0  0.65679976440E+02 -0.19523995914E+03 -0.15393488567E+04  0.15580925529E+04  0.12500000000E+03 0.  0.
         21    1    1    2  503  502 -0.69731116530E+02  0.16661183174E+03 -0.54921364594E+03  0.57815011889E+03  0.00000000000E+00 0. -1.
         21    1    1    2  504  503  0.40511400901E+01  0.28628127401E+02 -0.82053538900E+02  0.86998647463E+02  0.00000000000E+00 0. -1.
<mgrwt>
<rscale>  4 0.48086169E+03</rscale>
<asrwt>0</asrwt>
<pdfrwt beam="1">  1       21 0.40480992E-02 0.48086169E+03</pdfrwt>
<pdfrwt beam="2">  1       21 0.33798895E+00 0.48086169E+03</pdfrwt>
<totfact> 0.64212173E+03</totfact>
</mgrwt>
</event>
<event>
 5    0  0.2629946E-001  0.4870084E+03  0.7546771E-02  0.1017227E+00
         21   -1    0    0  504  501  0.00000000000E+00  0.00000000000E+00  0.68285257752E+03  0.68285257752E+03  0.00000000000E+00 0.  1.
         21   -1    0    0  501  502 -0.00000000000E+00 -0.00000000000E+00 -0.86833228297E+02  0.86833228297E+02  0.00000000000E+00 0.  1.
         25    1    1    2    0    0  0.20285898153E+03  0.32718784072E+02  0.45889434034E+03  0.51810356186E+03  0.12500000000E+03 0.  0.
         21    1    1    2  503  502 -0.17435469352E+03 -0.44668629038E+02  0.11541806548E+03  0.21381341261E+03  0.00000000000E+00 0.  1.
         21    1    1    2  504  503 -0.28504288008E+02  0.11949844966E+02  0.21706943405E+02  0.37768831350E+02  0.00000000000E+00 0. -1.
<mgrwt>
<rscale>  4 0.48700839E+03</rscale>
<asrwt>0</asrwt>
<pdfrwt beam="1">  1       21 0.10505424E+00 0.48700839E+03</pdfrwt>
<pdfrwt beam="2">  1       21 0.13358959E-01 0.48700839E+03</pdfrwt>
<totfact> 0.31811147E+04</totfact>
</mgrwt>
</event>
<event>
 5    0  0.2629946E-001  0.5583908E+03  0.7546771E-02  0.9995702E-01
         21   -1    0    0  502  501  0.00000000000E+00  0.00000000000E+00  0.37016289113E+03  0.37016289113E+03  0.00000000000E+00 0. -1.
         21   -1    0    0  504  502 -0.00000000000E+00 -0.00000000000E+00 -0.21058315696E+03  0.21058315696E+03  0.00000000000E+00 0. -1.
         25    1    1    2    0    0 -0.21209280646E+03 -0.78905440255E+01  0.11983484603E+03  0.27391788836E+03  0.12500000000E+03 0.  0.
         21    1    1    2  503  501  0.20099245589E+03  0.89392633475E+02  0.13096189962E+02  0.22036451719E+03  0.00000000000E+00 0. -1.
         21    1    1    2  504  503  0.11100350578E+02 -0.81502089450E+02  0.26648698185E+02  0.86463642547E+02  0.00000000000E+00 0. -1.
<mgrwt>
<rscale>  4 0.55839080E+03</rscale>
<asrwt>0</asrwt>
<pdfrwt beam="1">  1       21 0.56948137E-01 0.55839080E+03</pdfrwt>
<pdfrwt beam="2">  1       21 0.32397409E-01 0.55839080E+03</pdfrwt>
<totfact> 0.23533599E+04</totfact>
</mgrwt>
</event>
<event>
 5    0  0.2629946E-001  0.9788978E+03  0.7546771E-02  0.9331997E-01
         21   -1    0    0  504  501  0.00000000000E+00  0.00000000000E+00  0.91348064140E+03  0.91348064140E+03  0.00000000000E+00 0.  1.
         21   -1    0    0  501  502 -0.00000000000E+00 -0.00000000000E+00 -0.26224992830E+03  0.26224992830E+03  0.00000000000E+00 0.  1.
         25    1    1    2    0    0 -0.23373283163E+03 -0.40299319011E+03  0.37514997079E+03  0.61106222960E+03  0.12500000000E+03 0.  0.
         21    1    1    2  503  502  0.20198514355E+03  0.21877046241E+03  0.21761072153E+03  0.36879932153E+03  0.00000000000E+00 0.  1.
         21    1    1    2  504  503  0.31747688078E+02  0.18422272770E+03  0.58470020780E+02  0.19586901856E+03  0.00000000000E+00 0.  1.
<mgrwt>
<rscale>  4 0.97889781E+03</rscale>
<asrwt>0</asrwt>
<pdfrwt beam="1">  1       21 0.14053548E+00 0.97889781E+03</pdfrwt>
<pdfrwt beam="2">  1       21 0.40346143E-01 0.97889781E+03</pdfrwt>
<totfact> 0.15679447E+03</totfact>
</mgrwt>
</event>
<event>
 5    0  0.2629946E-001  0.5802852E+03  0.7546771E-02  0.9947174E-01
         21   -1    0    0  502  501  0.00000000000E+00  0.00000000000E+00  0.80296839068E+02  0.80296839068E+02  0.00000000000E+00 0.  1.
         21   -1    0    0  504  502 -0.00000000000E+00 -0.00000000000E+00 -0.10483939619E+04  0.10483939619E+04  0.00000000000E+00 0.  1.
         25    1    1    2    0    0  0.12875549789E+02 -0.26779032594E+03 -0.57411221617E+03  0.64583842810E+03  0.12500000000E+03 0.  0.
         21    1    1    2  503  501 -0.24903312074E+02  0.32718758221E+02 -0.37377227258E+02  0.55567519373E+02  0.00000000000E+00 0.  1.
         21    1    1    2  504  503  0.12027762284E+02  0.23507156772E+03 -0.35660767936E+03  0.42728485346E+03  0.00000000000E+00 0.  1.
<mgrwt>
<rscale>  4 0.58028518E+03</rscale>
<asrwt>0</asrwt>
<pdfrwt beam="1">  1       21 0.12353360E-01 0.58028518E+03</pdfrwt>
<pdfrwt beam="2">  1       21 0.16129137E+00 0.58028518E+03</pdfrwt>
<totfact> 0.11685309E+04</totfact>
</mgrwt>
</event>
<event>
 5    0  0.2629946E-001  0.5276554E+03  0.7546771E-02  0.1006802E+00
         21   -1    0    0  504  501  0.00000000000E+00  0.00000000000E+00  0.61662642407E+02  0.61662642407E+02  0.00000000000E+00 0. -1.
         21   -1    0    0  501  502 -0.00000000000E+00 -0.00000000000E+00 -0.11288043231E+04  0.11288043231E+04  0.00000000000E+00 0. -1.
         25    1    1    2    0    0 -0.13199271822E+03  0.17366249736E+03 -0.32131945017E+03  0.40798520771E+03  0.12500000000E+03 0.  0.
         21    1    1    2  503  502  0.12310192053E+03 -0.92280446000E+02 -0.45189809550E+03  0.47736951334E+03  0.00000000000E+00 0.  1.
         21    1    1    2  504  503  0.88907976874E+01 -0.81382051360E+02 -0.29392413498E+03  0.30511224441E+03  0.00000000000E+00 0.  1.
<mgrwt>
<rscale>  4 0.52765541E+03</rscale>
<asrwt>0</asrwt>
<pdfrwt beam="1">  1       21 0.94865611E-02 0.52765541E+03</pdfrwt>
<pdfrwt beam="2">  1       21 0.17366219E+00 0.52765541E+03</pdfrwt>
<totfact> 0.15498204E+04</totfact>
</mgrwt>
</event>
<event>
 5    0  0.2629946E-001  0.9824517E+03  0.7546771E-02  0.9328004E-01
         21   -1    0    0  504  501  0.00000000000E+00  0.00000000000E+00  0.13385611780E+04  0.13385611780E+04  0.00000000000E+00 0.  1.
         21   -1    0    0  501  502 -0.00000000000E+00 -0.00000000000E+00 -0.18027031057E+03  0.18027031057E+03  0.00000000000E+00 0.  1.
         25    1    1    2    0    0  0.46456319533E+03  0.12287427352E+03  0.59398481906E+03  0.77418345037E+03  0.12500000000E+03 0.  0.
         21    1    1    2  503  502 -0.49277597584E+02 -0.13398899883E+02  0.30344022844E+02  0.59401783341E+02  0.00000000000E+00 0.  1.
         21    1    1    2  504  503 -0.41528559774E+03 -0.10947537364E+03  0.53396202556E+03  0.68524625491E+03  0.00000000000E+00 0.  1.
<mgrwt>
<rscale>  4 0.98245171E+03</rscale>
<asrwt>0</asrwt>
<pdfrwt beam="1">  1       21 0.20593248E+00 0.98245171E+03</pdfrwt>
<pdfrwt beam="2">  1       21 0.27733895E-01 0.98245171E+03</pdfrwt>
<totfact> 0.10954804E+03</totfact>
</mgrwt>
</event>
<event>
 5    0  0.2629946E-001  0.5178537E+03  0.7546771E-02  0.1009221E+00
         21   -1    0    0  504  501  0.00000000000E+00  0.00000000000E+00  0.59285713039E+03  0.59285713039E+03  0.00000000000E+00 0.  1.
         21   -1    0    0  501  502 -0.00000000000E+00 -0.00000000000E+00 -0.11308477174E+03  0.11308477174E+03  0.00000000000E+00 0.  1.
         25    1    1    2    0    0  0.20416724991E+03 -0.10119642111E+03  0.14453660888E+03  0.29739000133E+03  0.12500000000E+03 0.  0.
         21    1    1    2  503  502 -0.15982546468E+03  0.81589348853E+02  0.22258572543E+03  0.28591153557E+03  0.00000000000E+00 0.  1.
         21    1    1    2  504  503 -0.44341785236E+02  0.19607072262E+02  0.11265002433E+03  0.12264036523E+03  0.00000000000E+00 0. -1.
<mgrwt>
<rscale>  4 0.51785370E+03</rscale>
<asrwt>0</asrwt>
<pdfrwt beam="1">  1       21 0.91208788E-01 0.51785370E+03</pdfrwt>
<pdfrwt beam="2">  1       21 0.17397658E-01 0.51785370E+03</pdfrwt>
<totfact> 0.27213258E+04</totfact>
</mgrwt>
</event>
<event>
 5    0  0.2629946E-001  0.5340101E+03  0.7546771E-02  0.1005264E+00
         21   -1    0    0  504  501  0.00000000000E+00  0.00000000000E+00  0.57894703654E+02  0.57894703654E+02  0.00000000000E+00 0. -1.
         21   -1    0    0  501  502 -0.00000000000E+00 -0.00000000000E+00 -0.12314025118E+04  0.12314025118E+04  0.00000000000E+00 0. -1.
         25    1    1    2    0    0  0.20680186175E+03  0.12533058093E+03 -0.46237349052E+03  0.53655289514E+03  0.12500000000E+03 0.  0.
         21    1    1    2  503  502 -0.45380096157E+02 -0.24274090969E+02 -0.22093982516E+03  0.22685455905E+03  0.00000000000E+00 0.  1.
         21    1    1    2  504  503 -0.16142176559E+03 -0.10105648996E+03 -0.49019449248E+03  0.52588976129E+03  0.00000000000E+00 0.  1.
<mgrwt>
<rscale>  4 0.53401005E+03</rscale>
<asrwt>0</asrwt>
<pdfrwt beam="1">  1       21 0.89068777E-02 0.53401005E+03</pdfrwt>
<pdfrwt beam="2">  1       21 0.18944654E+00 0.53401005E+03</pdfrwt>
<totfact> 0.13402687E+04</totfact>
</mgrwt>
</event>
<event>
 5    0  0.2629946E-001  0.7146002E+03  0.7546771E-02  0.9692585E-01
         21   -1    0    0  502  501  0.00000000000E+00  0.00000000000E+00  0.56125748005E+03  0.56125748005E+03  0.00000000000E+00 0. -1.
         21   -1    0    0  504  502 -0.00000000000E+00 -0.00000000000E+00 -0.22745953013E+03  0.22745953013E+03  0.00000000000E+00 0. -1.
         25    1    1    2    0    0 -0.16806960262E+03  0.27744581209E+03  0.14571260746E+03  0.37693598123E+03  0.12500000000E+03 0.  0.
         21    1    1    2  503  501 -0.31898301702E+02 -0.47823918026E+02  0.80431245941E+01  0.58045849465E+02  0.00000000000E+00 0. -1.
         21    1    1    2  504  503  0.19996790432E+03 -0.22962189406E+03  0.18004221786E+03  0.35373517949E+03  0.00000000000E+00 0. -1.
<mgrwt>
<rscale>  4 0.71460020E+03</rscale>
<asrwt>0</asrwt>
<pdfrwt beam="1">  1       21 0.86347304E-01 0.71460020E+03</pdfrwt>
<pdfrwt beam="2">  1       21 0.34993774E-01 0.71460020E+03</pdfrwt>
<totfact> 0.75798037E+03</totfact>
</mgrwt>
</event>
<event>
 5    0  0.2629946E-001  0.7056505E+03  0.7546771E-02  0.9707618E-01
         21   -1    0    0  504  501  0.00000000000E+00  0.00000000000E+00  0.25524168568E+03  0.25524168568E+03  0.00000000000E+00 0.  1.
         21   -1    0    0  501  502 -0.00000000000E+00 -0.00000000000E+00 -0.48771685459E+03  0.48771685459E+03  0.00000000000E+00 0.  1.
         25    1    1    2    0    0 -0.31222634127E+03 -0.11802402468E+03 -0.16102437948E+03  0.39111227208E+03  0.12500000000E+03 0.  0.
         21    1    1    2  503  502  0.26951543688E+02  0.37412930124E+02  0.29596894810E+01  0.46204683848E+02  0.00000000000E+00 0.  1.
         21    1    1    2  504  503  0.28527479759E+03  0.80611094560E+02 -0.74410478910E+02  0.30564158434E+03  0.00000000000E+00 0.  1.
<mgrwt>
<rscale>  4 0.70565054E+03</rscale>
<asrwt>0</asrwt>
<pdfrwt beam="1">  1       21 0.39267952E-01 0.70565054E+03</pdfrwt>
<pdfrwt beam="2">  1       21 0.75033361E-01 0.70565054E+03</pdfrwt>
<totfact> 0.83187567E+03</totfact>
</mgrwt>
</event>
<event>
 5    0  0.2629946E-001  0.5118197E+03  0.7546771E-02  0.1010739E+00
         21   -1    0    0  502  501  0.00000000000E+00  0.00000000000E+00  0.13788935410E+04  0.13788935410E+04  0.00000000000E+00 0. -1.
         21   -1    0    0  504  502 -0.00000000000E+00 -0.00000000000E+00 -0.47494499452E+02  0.47494499452E+02  0.00000000000E+00 0. -1.
         25    1    1    2    0    0 -0.20976315141E+03 -0.11225170806E+03  0.70976393489E+03  0.75894062279E+03  0.12500000000E+03 0.  0.
         21    1    1    2  503  501  0.18182290104E+03  0.10222288066E+03  0.57956472565E+03  0.61595807965E+03  0.00000000000E+00 0.  1.
         21    1    1    2  504  503  0.27940250369E+02  0.10028827403E+02  0.42070380979E+02  0.51489337978E+02  0.00000000000E+00 0. -1.
<mgrwt>
<rscale>  4 0.51181973E+03</rscale>
<asrwt>0</asrwt>
<pdfrwt beam="1">  1       21 0.21213744E+00 0.51181973E+03</pdfrwt>
<pdfrwt beam="2">  1       21 0.73068471E-02 0.51181973E+03</pdfrwt>
<totfact> 0.13515391E+04</totfact>
</mgrwt>
</event>
<event>
 5    0  0.2629946E-001  0.5170455E+03  0.7546771E-02  0.1009423E+00
         21   -1    0    0  504  501  0.00000000000E+00  0.00000000000E+00  0.11412139570E+03  0.11412139570E+03  0.00000000000E+00 0. -1.
         21   -1    0    0  501  502 -0.00000000000E+00 -0.00000000000E+00 -0.58563957634E+03  0.58563957634E+03  0.00000000000E+00 0. -1.
         25    1    1    2    0    0 -0.17532629619E+03  0.12686406430E+03 -0.31678344378E+03  0.40349789492E+03  0.12500000000E+03 0.  0.
         21    1    1    2  503  502  0.55854442514E+02 -0.11927939489E+03 -0.66485136377E+02  0.14753835485E+03  0.00000000000E+00 0. -1.
         21    1    1    2  504  503  0.11947185368E+03 -0.75846694052E+01 -0.88249600470E+02  0.14872472227E+03  0.00000000000E+00 0. -1.
<mgrwt>
<rscale>  4 0.51704548E+03</rscale>
<asrwt>0</asrwt>
<pdfrwt beam="1">  1       21 0.17557138E-01 0.51704548E+03</pdfrwt>
<pdfrwt beam="2">  1       21 0.90098396E-01 0.51704548E+03</pdfrwt>
<totfact> 0.27545669E+04</totfact>
</mgrwt>
</event>
<event>
 5    0  0.2629946E-001  0.6140481E+03  0.7546771E-02  0.9876682E-01
         21   -1    0    0  504  501  0.00000000000E+00  0.00000000000E+00  0.13964483320E+03  0.13964483320E+03  0.00000000000E+00 0.  1.
         21   -1    0    0  501  502 -0.00000000000E+00 -0.00000000000E+00 -0.67502510274E+03  0.67502510274E+03  0.00000000000E+00 0.  1.
         25    1    1    2    0    0  0.25295342194E+03 -0.11720699294E+03 -0.34828025524E+03  0.46330017166E+03  0.12500000000E+03 0.  0.
         21    1    1    2  503  502 -0.13139532746E+03  0.11559507993E+03 -0.97344001859E+02  0.20025685826E+03  0.00000000000E+00 0.  1.
         21    1    1    2  504  503 -0.12155809448E+03  0.16119130087E+01 -0.89756012435E+02  0.15111290602E+03  0.00000000000E+00 0.  1.
<mgrwt>
<rscale>  4 0.61404810E+03</rscale>
<asrwt>0</asrwt>
<pdfrwt beam="1">  1       21 0.21483820E-01 0.61404810E+03</pdfrwt>
<pdfrwt beam="2">  1       21 0.10385002E+00 0.61404810E+03</pdfrwt>
<totfact> 0.13013075E+04</totfact>
</mgrwt>
</event>
<event>
 5    0  0.2629946E-001  0.7035111E+03  0.7546771E-02  0.9711247E-01
         21   -1    0    0  502  501  0.00000000000E+00  0.00000000000E+00  0.33549754853E+03  0.33549754853E+03  0.00000000000E+00 0.  1.
         21   -1    0    0  504  502 -0.00000000000E+00 -0.00000000000E+00 -0.36880138180E+03  0.36880138180E+03  0.00000000000E+00 0.  1.
         25    1    1    2    0    0 -0.15348349667E+02  0.30298459177E+03 -0.83013467915E+02  0.33845453246E+03  0.12500000000E+03 0.  0.
         21    1    1    2  503  501 -0.54580739594E+02 -0.26724456203E+03  0.75788270327E+02  0.28309463963E+03  0.00000000000E+00 0.  1.
         21    1    1    2  504  503  0.69929089260E+02 -0.35740029746E+02 -0.26078635682E+02  0.82749758248E+02  0.00000000000E+00 0.  1.
<mgrwt>
<rscale>  4 0.70351108E+03</rscale>
<asrwt>0</asrwt>
<pdfrwt beam="1">  1       21 0.51615007E-01 0.70351108E+03</pdfrwt>
<pdfrwt beam="2">  1       21 0.56738674E-01 0.70351108E+03</pdfrwt>
<totfact> 0.87454042E+03</totfact>
</mgrwt>
</event>
<event>
 5    0  0.2629946E-001  0.6217287E+03  0.7546771E-02  0.9861324E-01
         21   -1    0    0  504  501  0.00000000000E+00  0.00000000000E+00  0.10856866825E+04  0.10856866825E+04  0.00000000000E+00 0. -1.
         21   -1    0    0  501  502 -0.00000000000E+00 -0.00000000000E+00 -0.89009701988E+02  0.89009701988E+02  0.00000000000E+00 0. -1.
         25    1    1    2    0    0 -0.17764116480E+03  0.19079448189E+03  0.27874385602E+03  0.40159937129E+03  0.12500000000E+03 0.  0.
         21    1    1    2  503  502  0.16171792015E+03 -0.20567787354E+03  0.62332122700E+03  0.67600697141E+03  0.00000000000E+00 0. -1.
         21    1    1    2  504  503  0.15923244653E+02  0.14883391649E+02  0.94611897495E+02  0.97090041791E+02  0.00000000000E+00 0. -1.
<mgrwt>
<rscale>  4 0.62172871E+03</rscale>
<asrwt>0</asrwt>
<pdfrwt beam="1">  1       21 0.16702871E+00 0.62172871E+03</pdfrwt>
<pdfrwt beam="2">  1       21 0.13693801E-01 0.62172871E+03</pdfrwt>
<totfact> 0.86625857E+03</totfact>
</mgrwt>
</event>
<event>
 5    0  0.2629946E-001  0.4942669E+03  0.7546771E-02  0.1015286E+00
         21   -1    0    0  504  501  0.00000000000E+00  0.00000000000E+00  0.11320309125E+03  0.11320309125E+03  0.00000000000E+00 0.  1.
         21   -1    0    0  501  502 -0.00000000000E+00 -0.00000000000E+00 -0.53951647251E+03  0.53951647251E+03  0.00000000000E+00 0.  1.
         25    1    1    2    0    0 -0.10384718111E+03 -0.17181816207E+03 -0.77883022731E+02  0.24899092970E+03  0.12500000000E+03 0.  0.
         21    1    1    2  503  502  0.10076739950E+03  0.14291826824E+03 -0.29737866994E+03  0.34498372938E+03  0.00000000000E+00 0.  1.
         21    1    1    2  504  503  0.30797816098E+01  0.28899893834E+02 -0.51051688587E+02  0.58744904681E+02  0.00000000000E+00 0.  1.
<mgrwt>
<rscale>  4 0.49426686E+03</rscale>
<asrwt>0</asrwt>
<pdfrwt beam="1">  1       21 0.17415860E-01 0.49426686E+03</pdfrwt>
<pdfrwt beam="2">  1       21 0.83002534E-01 0.49426686E+03</pdfrwt>
<totfact> 0.34096880E+04</totfact>
</mgrwt>
</event>
<event>
 5    0  0.2629946E-001  0.4486995E+03  0.7546771E-02  0.1028111E+00
         21   -1    0    0  504  501  0.00000000000E+00  0.00000000000E+00  0.19589185920E+03  0.19589185920E+03  0.00000000000E+00 0.  1.
         21   -1    0    0  501  502 -0.00000000000E+00 -0.00000000000E+00 -0.25694181585E+03  0.25694181585E+03  0.00000000000E+00 0.  1.
         25    1    1    2    0    0 -0.37296111160E+02  0.19723821539E+03 -0.50485560772E+02  0.24180096229E+03  0.12500000000E+03 0.  0.
         21    1    1    2  503  502  0.49828149145E+02 -0.10831101946E+03 -0.19408333409E+02  0.12079240369E+03  0.00000000000E+00 0.  1.
         21    1    1    2  504  503 -0.12532037985E+02 -0.88927195923E+02  0.88439375308E+01  0.90240309074E+02  0.00000000000E+00 0.  1.
<mgrwt>
<rscale>  4 0.44869950E+03</rscale>
<asrwt>0</asrwt>
<pdfrwt beam="1">  1       21 0.30137209E-01 0.44869950E+03</pdfrwt>
<pdfrwt beam="2">  1       21 0.39529510E-01 0.44869950E+03</pdfrwt>
<totfact> 0.60248080E+04</totfact>
</mgrwt>
</event>
<event>
 5    0  0.2629946E-001  0.5426183E+03  0.7546771E-02  0.1003217E+00
         21   -1    0    0  502  501  0.00000000000E+00  0.00000000000E+00  0.38670339129E+03  0.38670339129E+03  0.00000000000E+00 0. -1.
         21   -1    0    0  504  502 -0.00000000000E+00 -0.00000000000E+00 -0.19034912108E+03  0.19034912108E+03  0.00000000000E+00 0. -1.
         25    1    1    2    0    0  0.22739585347E+03 -0.58283965169E+02  0.17138666321E+03  0.31639260911E+03  0.12500000000E+03 0.  0.
         21    1    1    2  503  501 -0.18437146876E+03  0.32093728218E+02  0.63088350992E+02  0.19749173632E+03  0.00000000000E+00 0. -1.
         21    1    1    2  504  503 -0.43024384713E+02  0.26190236950E+02 -0.38120744001E+02  0.63168166940E+02  0.00000000000E+00 0. -1.
<mgrwt>
<rscale>  4 0.54261828E+03</rscale>
<asrwt>0</asrwt>
<pdfrwt beam="1">  1       21 0.59492830E-01 0.54261828E+03</pdfrwt>
<pdfrwt beam="2">  1       21 0.29284480E-01 0.54261828E+03</pdfrwt>
<totfact> 0.26260494E+04</totfact>
</mgrwt>
</event>
<event>
 5    0  0.2629946E-001  0.5054335E+03  0.7546771E-02  0.1012370E+00
         21   -1    0    0  504  501  0.00000000000E+00  0.00000000000E+00  0.61201739891E+02  0.61201739891E+02  0.00000000000E+00 0.  1.
         21   -1    0    0  501  502 -0.00000000000E+00 -0.00000000000E+00 -0.10435284004E+04  0.10435284004E+04  0.00000000000E+00 0.  1.
         25    1    1    2    0    0 -0.38257897462E+02  0.21511082806E+03 -0.32898921876E+03  0.41424055949E+03  0.12500000000E+03 0.  0.
         21    1    1    2  503  502 -0.35202887167E+01 -0.76840672229E+02 -0.27362810601E+03  0.28423444854E+03  0.00000000000E+00 0.  1.
         21    1    1    2  504  503  0.41778186179E+02 -0.13827015583E+03 -0.37970933576E+03  0.40625513227E+03  0.00000000000E+00 0.  1.
<mgrwt>
<rscale>  4 0.50543349E+03</rscale>
<asrwt>0</asrwt>
<pdfrwt beam="1">  1       21 0.94156534E-02 0.50543349E+03</pdfrwt>
<pdfrwt beam="2">  1       21 0.16054281E+00 0.50543349E+03</pdfrwt>
<totfact> 0.19754831E+04</totfact>
</mgrwt>
</event>
<event>
 5    0  0.2629946E-001  0.5534788E+03  0.7546771E-02  0.1000692E+00
         21   -1    0    0  504  501  0.00000000000E+00  0.00000000000E+00  0.99159749923E+03  0.99159749923E+03  0.00000000000E+00 0.  1.
         21   -1    0    0  501  502 -0.00000000000E+00 -0.00000000000E+00 -0.77233640206E+02  0.77233640206E+02  0.00000000000E+00 0.  1.
         25    1    1    2    0    0 -0.20143225789E+03  0.12783766298E+03  0.58978122967E+03  0.64837051249E+03  0.12500000000E+03 0.  0.
         21    1    1    2  503  502  0.81597536004E+02 -0.44962125222E+02  0.41308473862E+02  0.10191241632E+03  0.00000000000E+00 0. -1.
         21    1    1    2  504  503  0.11983472189E+03 -0.82875537754E+02  0.28327415549E+03  0.31854821063E+03  0.00000000000E+00 0.  1.
<mgrwt>
<rscale>  4 0.55347876E+03</rscale>
<asrwt>0</asrwt>
<pdfrwt beam="1">  1       21 0.15255345E+00 0.55347876E+03</pdfrwt>
<pdfrwt beam="2">  1       21 0.11882099E-01 0.55347876E+03</pdfrwt>
<totfact> 0.14752177E+04</totfact>
</mgrwt>
</event>
<event>
 5    0  0.2629946E-001  0.5632015E+03  0.7546771E-02  0.9984837E-01
         21   -1    0    0  502  501  0.00000000000E+00  0.00000000000E+00  0.69893038830E+03  0.69893038830E+03  0.00000000000E+00 0.  1.
         21   -1    0    0  504  502 -0.00000000000E+00 -0.00000000000E+00 -0.11345761136E+03  0.11345761136E+03  0.00000000000E+00 0.  1.
         25    1    1    2    0    0  0.25099130017E+03 -0.30503683684E+02  0.21508446782E+03  0.35470189706E+03  0.12500000000E+03 0.  0.
         21    1    1    2  503  501 -0.19796362014E+03  0.37398129897E+02  0.34254331612E+03  0.39739670159E+03  0.00000000000E+00 0. -1.
         21    1    1    2  504  503 -0.53027680033E+02 -0.68944462128E+01  0.27844993000E+02  0.60289401004E+02  0.00000000000E+00 0.  1.
<mgrwt>
<rscale>  4 0.56320146E+03</rscale>
<asrwt>0</asrwt>
<pdfrwt beam="1">  1       21 0.10752775E+00 0.56320146E+03</pdfrwt>
<pdfrwt beam="2">  1       21 0.17455018E-01 0.56320146E+03</pdfrwt>
<totfact> 0.17933474E+04</totfact>
</mgrwt>
</event>
<event>
 5    0  0.2629946E-001  0.9526947E+03  0.7546771E-02  0.9362006E-01
         21   -1    0    0  504  501  0.00000000000E+00  0.00000000000E+00  0.25757287414E+03  0.25757287414E+03  0.00000000000E+00 0. -1.
         21   -1    0    0  501  502 -0.00000000000E+00 -0.00000000000E+00 -0.88094213230E+03  0.88094213230E+03  0.00000000000E+00 0. -1.
         25    1    1    2    0    0 -0.45833465823E+03 -0.12418061761E+02 -0.24401270374E+03  0.53422099058E+03  0.12500000000E+03 0.  0.
         21    1    1    2  503  502  0.21350665455E+03 -0.17141284239E+02 -0.23740903002E+03  0.31975297137E+03  0.00000000000E+00 0. -1.
         21    1    1    2  504  503  0.24482800368E+03  0.29559346000E+02 -0.14194752440E+03  0.28454104450E+03  0.00000000000E+00 0. -1.
<mgrwt>
<rscale>  4 0.95269470E+03</rscale>
<asrwt>0</asrwt>
<pdfrwt beam="1">  1       21 0.39626596E-01 0.95269470E+03</pdfrwt>
<pdfrwt beam="2">  1       21 0.13552956E+00 0.95269470E+03</pdfrwt>
<totfact> 0.18044270E+03</totfact>
</mgrwt>
</event>
<event>
 5    0  0.2629946E-001  0.5672614E+03  0.7546771E-02  0.9975757E-01
         21   -1    0    0  502  501  0.00000000000E+00  0.00000000000E+00  0.12363248863E+03  0.12363248863E+03  0.00000000000E+00 0.  1.
         21   -1    0    0  504  502 -0.00000000000E+00 -0.00000000000E+00 -0.65068948474E+03  0.65068948474E+03  0.00000000000E+00 0.  1.
         25    1    1    2    0    0  0.21251954458E+03 -0.12927124382E+03 -0.39215576633E+03  0.48092281748E+03  0.12500000000E+03 0.  0.
         21    1    1    2  503  501 -0.88612268116E+01  0.32804175178E+02 -0.27751188672E+02  0.43872129222E+02  0.00000000000E+00 0. -1.
         21    1    1    2  504  503 -0.20365831776E+03  0.96467068643E+02 -0.10715004111E+03  0.24952702667E+03  0.00000000000E+00 0.  1.
<mgrwt>
<rscale>  4 0.56726135E+03</rscale>
<asrwt>0</asrwt>
<pdfrwt beam="1">  1       21 0.19020383E-01 0.56726135E+03</pdfrwt>
<pdfrwt beam="2">  1       21 0.10010607E+00 0.56726135E+03</pdfrwt>
<totfact> 0.18168941E+04</totfact>
</mgrwt>
</event>
<event>
 5    0  0.2629946E-001  0.5227114E+03  0.7546771E-02  0.1008015E+00
         21   -1    0    0  504  501  0.00000000000E+00  0.00000000000E+00  0.13136754087E+03  0.13136754087E+03  0.00000000000E+00 0. -1.
         21   -1    0    0  501  502 -0.00000000000E+00 -0.00000000000E+00 -0.51996705616E+03  0.51996705616E+03  0.00000000000E+00 0. -1.
         25    1    1    2    0    0 -0.21838681959E+03 -0.63596667783E+02 -0.31137857895E+03  0.40536274935E+03  0.12500000000E+03 0.  0.
         21    1    1    2  503  502  0.19054454220E+03  0.69864636699E+02 -0.78000533178E+02  0.21742210835E+03  0.00000000000E+00 0. -1.
         21    1    1    2  504  503  0.27842277397E+02 -0.62679689161E+01  0.77959684825E+00  0.28549739337E+02  0.00000000000E+00 0.  1.
<mgrwt>
<rscale>  4 0.52271137E+03</rscale>
<asrwt>0</asrwt>
<pdfrwt beam="1">  1       21 0.20210391E-01 0.52271137E+03</pdfrwt>
<pdfrwt beam="2">  1       21 0.79994933E-01 0.52271137E+03</pdfrwt>
<totfact> 0.27847402E+04</totfact>
</mgrwt>
</event>
<event>
 5    0  0.2629946E-001  0.5276237E+03  0.7546771E-02  0.1006810E+00
         21   -1    0    0  504  501  0.00000000000E+00  0.00000000000E+00  0.18721960280E+03  0.18721960280E+03  0.00000000000E+00 0.  1.
         21   -1    0    0  501  502 -0.00000000000E+00 -0.00000000000E+00 -0.37173829802E+03  0.37173829802E+03  0.00000000000E+00 0.  1.
         25    1    1    2    0    0  0.46302720473E+02  0.21306236966E+03  0.21806289622E+02  0.25226975553E+03  0.12500000000E+03 0.  0.
         21    1    1    2  503  502 -0.39161157565E+01 -0.25418936775E+02 -0.16085030827E+01  0.25769082086E+02  0.00000000000E+00 0.  1.
         21    1    1    2  504  503 -0.42386604716E+02 -0.18764343288E+03 -0.20471648177E+03  0.28091906320E+03  0.00000000000E+00 0.  1.
<mgrwt>
<rscale>  4 0.52762372E+03</rscale>
<asrwt>0</asrwt>
<pdfrwt beam="1">  1       21 0.28803016E-01 0.52762372E+03</pdfrwt>
<pdfrwt beam="2">  1       21 0.57190507E-01 0.52762372E+03</pdfrwt>
<totfact> 0.29680495E+04</totfact>
</mgrwt>
</event>
<event>
 5    0  0.2629946E-001  0.9853777E+03  0.7546771E-02  0.9324729E-01
         21   -1    0    0  502  501  0.00000000000E+00  0.00000000000E+00  0.58175621129E+03  0.58175621129E+03  0.00000000000E+00 0.  1.
         21   -1    0    0  504  502 -0.00000000000E+00 -0.00000000000E+00 -0.41725777728E+03  0.41725777728E+03  0.00000000000E+00 0.  1.
         25    1    1    2    0    0 -0.40433751988E+03  0.15755519436E+03  0.28416149364E+03  0.53355901616E+03  0.12500000000E+03 0.  0.
         21    1    1    2  503  501  0.23999569588E+02  0.17410989280E+02  0.12963288416E+01  0.29678314585E+02  0.00000000000E+00 0.  1.
         21    1    1    2  504  503  0.38033795029E+03 -0.17496618364E+03 -0.12095938848E+03  0.43577665783E+03  0.00000000000E+00 0.  1.
<mgrwt>
<rscale>  4 0.98537770E+03</rscale>
<asrwt>0</asrwt>
<pdfrwt beam="1">  1       21 0.89500956E-01 0.98537770E+03</pdfrwt>
<pdfrwt beam="2">  1       21 0.64193504E-01 0.98537770E+03</pdfrwt>
<totfact> 0.18095014E+03</totfact>
</mgrwt>
</event>
<event>
 5    0  0.2629946E-001  0.5094488E+03  0.7546771E-02  0.1011342E+00
         21   -1    0    0  502  501  0.00000000000E+00  0.00000000000E+00  0.70276393111E+03  0.70276393111E+03  0.00000000000E+00 0.  1.
         21   -1    0    0  504  502 -0.00000000000E+00 -0.00000000000E+00 -0.92327631776E+02  0.92327631776E+02  0.00000000000E+00 0.  1.
         25    1    1    2    0    0  0.26678096949E+02 -0.22201969756E+03  0.44444006901E+03  0.51298775999E+03  0.12500000000E+03 0.  0.
         21    1    1    2  503  501  0.96729424138E+01  0.24685227995E+02  0.28102507882E+02  0.38635181446E+02  0.00000000000E+00 0. -1.
         21    1    1    2  504  503 -0.36351039363E+02  0.19733446956E+03  0.13789372244E+03  0.24346862145E+03  0.00000000000E+00 0. -1.
<mgrwt>
<rscale>  4 0.50944884E+03</rscale>
<asrwt>0</asrwt>
<pdfrwt beam="1">  1       21 0.10811752E+00 0.50944884E+03</pdfrwt>
<pdfrwt beam="2">  1       21 0.14204251E-01 0.50944884E+03</pdfrwt>
<totfact> 0.26318555E+04</totfact>
</mgrwt>
</event>
<event>
 5    0  0.2629946E-001  0.4814539E+03  0.7546771E-02  0.1018736E+00
         21   -1    0    0  502  501  0.00000000000E+00  0.00000000000E+00  0.53344442932E+03  0.53344442932E+03  0.00000000000E+00 0.  1.
         21   -1    0    0  504  502 -0.00000000000E+00 -0.00000000000E+00 -0.10863262415E+03  0.10863262415E+03  0.00000000000E+00 0.  1.
         25    1    1    2    0    0  0.11993230668E+02  0.21346984173E+03  0.28838841708E+03  0.38013956650E+03  0.12500000000E+03 0.  0.
         21    1    1    2  503  501  0.21840881793E+02 -0.13705244336E+03  0.98371820401E+02  0.17010999793E+03  0.00000000000E+00 0.  1.
         21    1    1    2  504  503 -0.33834112461E+02 -0.76417398376E+02  0.38051567682E+02  0.91827489041E+02  0.00000000000E+00 0.  1.
<mgrwt>
<rscale>  4 0.48145392E+03</rscale>
<asrwt>0</asrwt>
<pdfrwt beam="1">  1       21 0.82068372E-01 0.48145392E+03</pdfrwt>
<pdfrwt beam="2">  1       21 0.16712712E-01 0.48145392E+03</pdfrwt>
<totfact> 0.37931914E+04</totfact>
</mgrwt>
</event>
<event>
 5    0  0.2629946E-001  0.5503048E+03  0.7546771E-02  0.1001423E+00
         21   -1    0    0  504  501  0.00000000000E+00  0.00000000000E+00  0.55808978623E+03  0.55808978623E+03  0.00000000000E+00 0.  1.
         21   -1    0    0  501  502 -0.00000000000E+00 -0.00000000000E+00 -0.13565709843E+03  0.13565709843E+03  0.00000000000E+00 0.  1.
         25    1    1    2    0    0  0.94070224927E+02  0.23461276868E+03  0.17850380880E+03  0.33373787348E+03  0.12500000000E+03 0.  0.
         21    1    1    2  503  502 -0.58200054001E+02 -0.17859054794E+03  0.13120824594E+03  0.22912318499E+03  0.00000000000E+00 0.  1.
         21    1    1    2  504  503 -0.35870170926E+02 -0.56022220738E+02  0.11272063306E+03  0.13088582619E+03  0.00000000000E+00 0.  1.
<mgrwt>
<rscale>  4 0.55030479E+03</rscale>
<asrwt>0</asrwt>
<pdfrwt beam="1">  1       21 0.85859966E-01 0.55030479E+03</pdfrwt>
<pdfrwt beam="2">  1       21 0.20870323E-01 0.55030479E+03</pdfrwt>
<totfact> 0.22064993E+04</totfact>
</mgrwt>
</event>
<event>
 5    0  0.2629946E-001  0.7620495E+03  0.7546771E-02  0.9616634E-01
         21   -1    0    0  504  501  0.00000000000E+00  0.00000000000E+00  0.46021405973E+03  0.46021405973E+03  0.00000000000E+00 0.  1.
         21   -1    0    0  501  502 -0.00000000000E+00 -0.00000000000E+00 -0.31546159144E+03  0.31546159144E+03  0.00000000000E+00 0.  1.
         25    1    1    2    0    0  0.15525379641E+02  0.34377167777E+03  0.19749513875E+03  0.41599198752E+03  0.12500000000E+03 0.  0.
         21    1    1    2  503  502  0.13356438377E+02 -0.31629417452E+02  0.17348029334E+02  0.38467760739E+02  0.00000000000E+00 0.  1.
         21    1    1    2  504  503 -0.28881818018E+02 -0.31214226032E+03 -0.70090699798E+02  0.32121590292E+03  0.00000000000E+00 0.  1.
<mgrwt>
<rscale>  4 0.76204950E+03</rscale>
<asrwt>0</asrwt>
<pdfrwt beam="1">  1       21 0.70802163E-01 0.76204950E+03</pdfrwt>
<pdfrwt beam="2">  1       21 0.48532552E-01 0.76204950E+03</pdfrwt>
<totfact> 0.60187814E+03</totfact>
</mgrwt>
</event>
<event>
 5    0  0.2629946E-001  0.4662563E+03  0.7546771E-02  0.1022982E+00
         21   -1    0    0  502  501  0.00000000000E+00  0.00000000000E+00  0.15170148081E+03  0.15170148081E+03  0.00000000000E+00 0. -1.
         21   -1    0    0  504  502 -0.00000000000E+00 -0.00000000000E+00 -0.35826104145E+03  0.35826104145E+03  0.00000000000E+00 0. -1.
         25    1    1    2    0    0 -0.13977890889E+02  0.20436668219E+03 -0.10783705296E+03  0.26308734712E+03  0.12500000000E+03 0.  0.
         21    1    1    2  503  501  0.16551932020E+02 -0.18192224570E+03 -0.44327050304E+02  0.18797488482E+03  0.00000000000E+00 0. -1.
         21    1    1    2  504  503 -0.25740411305E+01 -0.22444436490E+02 -0.54395457370E+02  0.58900290318E+02  0.00000000000E+00 0.  1.
<mgrwt>
<rscale>  4 0.46625628E+03</rscale>
<asrwt>0</asrwt>
<pdfrwt beam="1">  1       21 0.23338689E-01 0.46625628E+03</pdfrwt>
<pdfrwt beam="2">  1       21 0.55117083E-01 0.46625628E+03</pdfrwt>
<totfact> 0.49169499E+04</totfact>
</mgrwt>
</event>
<event>
 5    0  0.2629946E-001  0.7928390E+03  0.7546771E-02  0.9570441E-01
         21   -1    0    0  502  501  0.00000000000E+00  0.00000000000E+00  0.11210924664E+03  0.11210924664E+03  0.00000000000E+00 0. -1.
         21   -1    0    0  504  502 -0.00000000000E+00 -0.00000000000E+00 -0.14017437857E+04  0.14017437857E+04  0.00000000000E+00 0. -1.
         25    1    1    2    0    0 -0.13724588232E+03 -0.25580594599E+03 -0.11269539362E+04  0.11704372211E+04  0.12500000000E+03 0.  0.
         21    1    1    2  503  501  0.10537211684E+03  0.24811890805E+03 -0.14247542569E+03  0.30490248025E+03  0.00000000000E+00 0. -1.
         21    1    1    2  504  503  0.31873765485E+02  0.76870379451E+01 -0.20205177153E+02  0.38513330969E+02  0.00000000000E+00 0. -1.
<mgrwt>
<rscale>  4 0.79283905E+03</rscale>
<asrwt>0</asrwt>
<pdfrwt beam="1">  1       21 0.17247577E-01 0.79283905E+03</pdfrwt>
<pdfrwt beam="2">  1       21 0.21565288E+00 0.79283905E+03</pdfrwt>
<totfact> 0.24746788E+03</totfact>
</mgrwt>
</event>
<event>
 5    0  0.2629946E-001  0.4849980E+03  0.7546771E-02  0.1017771E+00
         21   -1    0    0  502  501  0.00000000000E+00  0.00000000000E+00  0.58362412609E+03  0.58362412609E+03  0.00000000000E+00 0.  1.
         21   -1    0    0  504  502 -0.00000000000E+00 -0.00000000000E+00 -0.10075965612E+03  0.10075965612E+03  0.00000000000E+00 0.  1.
         25    1    1    2    0    0  0.10812709666E+03 -0.17076599851E+03  0.18343552153E+03  0.30021006951E+03  0.12500000000E+03 0.  0.
         21    1    1    2  503  501 -0.75803704653E+02  0.17361348058E+03  0.29615324471E+03  0.35156021765E+03  0.00000000000E+00 0.  1.
         21    1    1    2  504  503 -0.32323392007E+02 -0.28474820710E+01  0.32757037321E+01  0.32613495059E+02  0.00000000000E+00 0.  1.
<mgrwt>
<rscale>  4 0.48499801E+03</rscale>
<asrwt>0</asrwt>
<pdfrwt beam="1">  1       21 0.89788325E-01 0.48499801E+03</pdfrwt>
<pdfrwt beam="2">  1       21 0.15501486E-01 0.48499801E+03</pdfrwt>
<totfact> 0.35318500E+04</totfact>
</mgrwt>
</event>
<event>
 5    0  0.2629946E-001  0.5528802E+03  0.7546771E-02  0.1000829E+00
         21   -1    0    0  504  501  0.00000000000E+00  0.00000000000E+00  0.52413805613E+03  0.52413805613E+03  0.00000000000E+00 0. -1.
         21   -1    0    0  501  502 -0.00000000000E+00 -0.00000000000E+00 -0.14579961888E+03  0.14579961888E+03  0.00000000000E+00 0. -1.
         25    1    1    2    0    0  0.25754251148E+03 -0.34206204285E+02  0.18616084661E+03  0.34318955468E+03  0.12500000000E+03 0.  0.
         21    1    1    2  503  502 -0.65853427921E+02  0.17112949743E+02  0.27244884610E+02  0.73292637798E+02  0.00000000000E+00 0.  1.
         21    1    1    2  504  503 -0.19168908355E+03  0.17093254542E+02  0.16493270603E+03  0.25345548253E+03  0.00000000000E+00 0. -1.
<mgrwt>
<rscale>  4 0.55288020E+03</rscale>
<asrwt>0</asrwt>
<pdfrwt beam="1">  1       21 0.80636623E-01 0.55288020E+03</pdfrwt>
<pdfrwt beam="2">  1       21 0.22430711E-01 0.55288020E+03</pdfrwt>
<totfact> 0.22231489E+04</totfact>
</mgrwt>
</event>
<event>
 5    0  0.2629946E-001  0.7891171E+03  0.7546771E-02  0.9575905E-01
         21   -1    0    0  504  501  0.00000000000E+00  0.00000000000E+00  0.11024510742E+03  0.11024510742E+03  0.00000000000E+00 0.  1.
         21   -1    0    0  501  502 -0.00000000000E+00 -0.00000000000E+00 -0.14120940906E+04  0.14120940906E+04  0.00000000000E+00 0.  1.
         25    1    1    2    0    0  0.24081593765E+03  0.26117192317E+03 -0.85408301287E+03  0.93342695598E+03  0.12500000000E+03 0.  0.
         21    1    1    2  503  502 -0.98630962522E+02 -0.15971703888E+03 -0.32533670253E+03  0.37560826574E+03  0.00000000000E+00 0.  1.
         21    1    1    2  504  503 -0.14218497513E+03 -0.10145488428E+03 -0.12242926777E+03  0.21330397629E+03  0.00000000000E+00 0.  1.
<mgrwt>
<rscale>  4 0.78911714E+03</rscale>
<asrwt>0</asrwt>
<pdfrwt beam="1">  1       21 0.16960788E-01 0.78911714E+03</pdfrwt>
<pdfrwt beam="2">  1       21 0.21724521E+00 0.78911714E+03</pdfrwt>
<totfact> 0.24957712E+03</totfact>
</mgrwt>
</event>
<event>
 5    0  0.2629946E-001  0.8620511E+03  0.7546771E-02  0.9474304E-01
         21   -1    0    0  504  501  0.00000000000E+00  0.00000000000E+00  0.11441957964E+03  0.11441957964E+03  0.00000000000E+00 0. -1.
         21   -1    0    0  501  502 -0.00000000000E+00 -0.00000000000E+00 -0.16236997367E+04  0.16236997367E+04  0.00000000000E+00 0. -1.
         25    1    1    2    0    0 -0.11726011593E+03  0.23261647916E+03 -0.14110532014E+04  0.14403320792E+04  0.12500000000E+03 0.  0.
         21    1    1    2  503  502  0.88572354908E+02 -0.23236041743E+03 -0.10214727870E+03  0.26883171723E+03  0.00000000000E+00 0. -1.
         21    1    1    2  504  503  0.28687761024E+02 -0.25606172887E+00  0.39203230609E+01  0.28955519907E+02  0.00000000000E+00 0.  1.
<mgrwt>
<rscale>  4 0.86205114E+03</rscale>
<asrwt>0</asrwt>
<pdfrwt beam="1">  1       21 0.17603014E-01 0.86205114E+03</pdfrwt>
<pdfrwt beam="2">  1       21 0.24979993E+00 0.86205114E+03</pdfrwt>
<totfact> 0.14113605E+03</totfact>
</mgrwt>
</event>
<event>
 5    0  0.2629946E-001  0.5071072E+03  0.7546771E-02  0.1011940E+00
         21   -1    0    0  504  501  0.00000000000E+00  0.00000000000E+00  0.62370103594E+02  0.62370103594E+02  0.00000000000E+00 0. -1.
         21   -1    0    0  501  502 -0.00000000000E+00 -0.00000000000E+00 -0.10307733090E+04  0.10307733090E+04  0.00000000000E+00 0. -1.
         25    1    1    2    0    0 -0.20770018167E+03 -0.22847543378E+02 -0.29223003531E+03  0.38037451182E+03  0.12500000000E+03 0.  0.
         21    1    1    2  503  502  0.14989532479E+03  0.11934745832E+02 -0.58689907128E+03  0.60585606081E+03  0.00000000000E+00 0. -1.
         21    1    1    2  504  503  0.57804856886E+02  0.10912797547E+02 -0.89274098825E+02  0.10691283997E+03  0.00000000000E+00 0. -1.
<mgrwt>
<rscale>  4 0.50710724E+03</rscale>
<asrwt>0</asrwt>
<pdfrwt beam="1">  1       21 0.95954019E-02 0.50710724E+03</pdfrwt>
<pdfrwt beam="2">  1       21 0.15858049E+00 0.50710724E+03</pdfrwt>
<totfact> 0.19754091E+04</totfact>
</mgrwt>
</event>
<event>
 5    0  0.2629946E-001  0.1166499E+04  0.7546771E-02  0.9142696E-01
         21   -1    0    0  504  501  0.00000000000E+00  0.00000000000E+00  0.80885989064E+03  0.80885989064E+03  0.00000000000E+00 0. -1.
         21   -1    0    0  501  502 -0.00000000000E+00 -0.00000000000E+00 -0.42056693734E+03  0.42056693734E+03  0.00000000000E+00 0. -1.
         25    1    1    2    0    0  0.30484497361E+03  0.34899389418E+03 -0.14292653766E+03  0.50077958353E+03  0.12500000000E+03 0.  0.
         21    1    1    2  503  502 -0.25938619735E+03 -0.34836470876E+03  0.40256933910E+03  0.59220033980E+03  0.00000000000E+00 0. -1.
         21    1    1    2  504  503 -0.45458776266E+02 -0.62918542482E+00  0.12865015186E+03  0.13644690465E+03  0.00000000000E+00 0. -1.
<mgrwt>
<rscale>  4 0.11664986E+04</rscale>
<asrwt>0</asrwt>
<pdfrwt beam="1">  1       21 0.12443998E+00 0.11664986E+04</pdfrwt>
<pdfrwt beam="2">  1       21 0.64702606E-01 0.11664986E+04</pdfrwt>
<totfact> 0.75380368E+02</totfact>
</mgrwt>
</event>
<event>
 5    0  0.2629946E-001  0.5229710E+03  0.7546771E-02  0.1007951E+00
         21   -1    0    0  502  501  0.00000000000E+00  0.00000000000E+00  0.20600500374E+03  0.20600500374E+03  0.00000000000E+00 0. -1.
         21   -1    0    0  504  502 -0.00000000000E+00 -0.00000000000E+00 -0.33190775269E+03  0.33190775269E+03  0.00000000000E+00 0. -1.
         25    1    1    2    0    0 -0.74245610649E+02  0.18632999126E+03 -0.10143855198E+03  0.25718875592E+03  0.12500000000E+03 0.  0.
         21    1    1    2  503  501  0.71206621072E+02 -0.49154175760E+02  0.72357852786E+02  0.11279261828E+03  0.00000000000E+00 0. -1.
         21    1    1    2  504  503  0.30389895766E+01 -0.13717581550E+03 -0.96822049766E+02  0.16793138223E+03  0.00000000000E+00 0. -1.
<mgrwt>
<rscale>  4 0.52297097E+03</rscale>
<asrwt>0</asrwt>
<pdfrwt beam="1">  1       21 0.31693078E-01 0.52297097E+03</pdfrwt>
<pdfrwt beam="2">  1       21 0.51062731E-01 0.52297097E+03</pdfrwt>
<totfact> 0.31358583E+04</totfact>
</mgrwt>
</event>
<event>
 5    0  0.2629946E-001  0.7006432E+03  0.7546771E-02  0.9716133E-01
         21   -1    0    0  502  501  0.00000000000E+00  0.00000000000E+00  0.86289455706E+03  0.86289455706E+03  0.00000000000E+00 0.  1.
         21   -1    0    0  504  502 -0.00000000000E+00 -0.00000000000E+00 -0.14222504886E+03  0.14222504886E+03  0.00000000000E+00 0.  1.
         25    1    1    2    0    0  0.26360526395E+03  0.16913014941E+03  0.22002691903E+03  0.40265318541E+03  0.12500000000E+03 0.  0.
         21    1    1    2  503  501 -0.14240242637E+02  0.15954626511E+02  0.15377450233E+02  0.26340094782E+02  0.00000000000E+00 0. -1.
         21    1    1    2  504  503 -0.24936502132E+03 -0.18508477592E+03  0.48526513894E+03  0.57612632573E+03  0.00000000000E+00 0.  1.
<mgrwt>
<rscale>  4 0.70064319E+03</rscale>
<asrwt>0</asrwt>
<pdfrwt beam="1">  1       21 0.13275301E+00 0.70064319E+03</pdfrwt>
<pdfrwt beam="2">  1       21 0.21880777E-01 0.70064319E+03</pdfrwt>
<totfact> 0.65905255E+03</totfact>
</mgrwt>
</event>
<event>
 5    0  0.2629946E-001  0.4878254E+03  0.7546771E-02  0.1017006E+00
         21   -1    0    0  504  501  0.00000000000E+00  0.00000000000E+00  0.77599310930E+03  0.77599310930E+03  0.00000000000E+00 0. -1.
         21   -1    0    0  501  502 -0.00000000000E+00 -0.00000000000E+00 -0.76667436134E+02  0.76667436134E+02  0.00000000000E+00 0. -1.
         25    1    1    2    0    0 -0.79420778504E+02 -0.19588020855E+03  0.26769414432E+03  0.36326556548E+03  0.12500000000E+03 0.  0.
         21    1    1    2  503  502  0.19884911526E+02  0.31979024084E+02  0.20646454304E+02  0.42945823582E+02  0.00000000000E+00 0. -1.
         21    1    1    2  504  503  0.59535866977E+02  0.16390118447E+03  0.41098507454E+03  0.44644915637E+03  0.00000000000E+00 0. -1.
<mgrwt>
<rscale>  4 0.48782539E+03</rscale>
<asrwt>0</asrwt>
<pdfrwt beam="1">  1       21 0.11938355E+00 0.48782539E+03</pdfrwt>
<pdfrwt beam="2">  1       21 0.11794991E-01 0.48782539E+03</pdfrwt>
<totfact> 0.29032896E+04</totfact>
</mgrwt>
</event>
<event>
 5    0  0.2629946E-001  0.5378936E+03  0.7546771E-02  0.1004336E+00
         21   -1    0    0  504  501  0.00000000000E+00  0.00000000000E+00  0.22989754278E+04  0.22989754278E+04  0.00000000000E+00 0. -1.
         21   -1    0    0  501  502 -0.00000000000E+00 -0.00000000000E+00 -0.31462871274E+02  0.31462871274E+02  0.00000000000E+00 0. -1.
         25    1    1    2    0    0  0.19279331214E+03 -0.13677349683E+03  0.95665068758E+03  0.99331857361E+03  0.12500000000E+03 0.  0.
         21    1    1    2  503  502 -0.19341866342E+03  0.10764028410E+03  0.96634607141E+03  0.99137376395E+03  0.00000000000E+00 0. -1.
         21    1    1    2  504  503  0.62535127586E+00  0.29133212731E+02  0.34451579757E+03  0.34574596155E+03  0.00000000000E+00 0.  1.
<mgrwt>
<rscale>  4 0.53789355E+03</rscale>
<asrwt>0</asrwt>
<pdfrwt beam="1">  1       21 0.35368840E+00 0.53789355E+03</pdfrwt>
<pdfrwt beam="2">  1       21 0.48404435E-02 0.53789355E+03</pdfrwt>
<totfact> 0.36884156E+03</totfact>
</mgrwt>
</event>
<event>
 5    0  0.2629946E-001  0.7564490E+03  0.7546771E-02  0.9625287E-01
         21   -1    0    0  502  501  0.00000000000E+00  0.00000000000E+00  0.40208933727E+03  0.40208933727E+03  0.00000000000E+00 0.  1.
         21   -1    0    0  504  502 -0.00000000000E+00 -0.00000000000E+00 -0.35577611009E+03  0.35577611009E+03  0.00000000000E+00 0.  1.
         25    1    1    2    0    0  0.28432735845E+03 -0.14699158121E+03 -0.12796403009E+03  0.36667201244E+03  0.12500000000E+03 0.  0.
         21    1    1    2  503  501 -0.18763056140E+03  0.21581836152E+02  0.12011543503E+03  0.22382743566E+03  0.00000000000E+00 0.  1.
         21    1    1    2  504  503 -0.96696797051E+02  0.12540974506E+03  0.54161822240E+02  0.16736599925E+03  0.00000000000E+00 0.  1.
<mgrwt>
<rscale>  4 0.75644902E+03</rscale>
<asrwt>0</asrwt>
<pdfrwt beam="1">  1       21 0.61859898E-01 0.75644902E+03</pdfrwt>
<pdfrwt beam="2">  1       21 0.54734786E-01 0.75644902E+03</pdfrwt>
<totfact> 0.62999497E+03</totfact>
</mgrwt>
</event>
<event>
 5    0  0.2629946E-001  0.4801198E+03  0.7546771E-02  0.1019102E+00
         21   -1    0    0  504  501  0.00000000000E+00  0.00000000000E+00  0.11292891606E+04  0.11292891606E+04  0.00000000000E+00 0.  1.
         21   -1    0    0  501  502 -0.00000000000E+00 -0.00000000000E+00 -0.51030998816E+02  0.51030998816E+02  0.00000000000E+00 0.  1.
         25    1    1    2    0    0  0.20902074733E+03  0.51878858186E+02  0.44373602464E+03  0.50882978323E+03  0.12500000000E+03 0.  0.
         21    1    1    2  503  502 -0.15549389706E+03 -0.24646466453E+02  0.49928102034E+03  0.52351441013E+03  0.00000000000E+00 0.  1.
         21    1    1    2  504  503 -0.53526850266E+02 -0.27232391733E+02  0.13524111683E+03  0.14797596609E+03  0.00000000000E+00 0.  1.
<mgrwt>
<rscale>  4 0.48011979E+03</rscale>
<asrwt>0</asrwt>
<pdfrwt beam="1">  1       21 0.17373678E+00 0.48011979E+03</pdfrwt>
<pdfrwt beam="2">  1       21 0.78509237E-02 0.48011979E+03</pdfrwt>
<totfact> 0.21984308E+04</totfact>
</mgrwt>
</event>
<event>
 5    0  0.2629946E-001  0.5193736E+03  0.7546771E-02  0.1008842E+00
         21   -1    0    0  502  501  0.00000000000E+00  0.00000000000E+00  0.12505949653E+03  0.12505949653E+03  0.00000000000E+00 0. -1.
         21   -1    0    0  504  502 -0.00000000000E+00 -0.00000000000E+00 -0.53924125287E+03  0.53924125287E+03  0.00000000000E+00 0. -1.
         25    1    1    2    0    0  0.21754602032E+03  0.10249280517E+03 -0.18852625291E+03  0.33014874543E+03  0.12500000000E+03 0.  0.
         21    1    1    2  503  501 -0.12790193062E+03 -0.77484648666E+02 -0.10968219710E+03  0.18545338767E+03  0.00000000000E+00 0. -1.
         21    1    1    2  504  503 -0.89644089699E+02 -0.25008156509E+02 -0.11597330633E+03  0.14869861631E+03  0.00000000000E+00 0. -1.
<mgrwt>
<rscale>  4 0.51937362E+03</rscale>
<asrwt>0</asrwt>
<pdfrwt beam="1">  1       21 0.19239923E-01 0.51937362E+03</pdfrwt>
<pdfrwt beam="2">  1       21 0.82960191E-01 0.51937362E+03</pdfrwt>
<totfact> 0.28123032E+04</totfact>
</mgrwt>
</event>
<event>
 5    0  0.2629946E-001  0.6342521E+03  0.7546771E-02  0.9836786E-01
         21   -1    0    0  504  501  0.00000000000E+00  0.00000000000E+00  0.64633897985E+03  0.64633897985E+03  0.00000000000E+00 0.  1.
         21   -1    0    0  501  502 -0.00000000000E+00 -0.00000000000E+00 -0.15559779874E+03  0.15559779874E+03  0.00000000000E+00 0.  1.
         25    1    1    2    0    0  0.12572226041E+02  0.22858939951E+03  0.32242324492E+01  0.26085737504E+03  0.12500000000E+03 0.  0.
         21    1    1    2  503  502 -0.23203709585E+02 -0.19616880491E+03  0.37996526345E+03  0.42824550621E+03  0.00000000000E+00 0.  1.
         21    1    1    2  504  503  0.10631483544E+02 -0.32420594608E+02  0.10755168521E+03  0.11283389734E+03  0.00000000000E+00 0.  1.
<mgrwt>
<rscale>  4 0.63425207E+03</rscale>
<asrwt>0</asrwt>
<pdfrwt beam="1">  1       21 0.99436765E-01 0.63425207E+03</pdfrwt>
<pdfrwt beam="2">  1       21 0.23938123E-01 0.63425207E+03</pdfrwt>
<totfact> 0.11693552E+04</totfact>
</mgrwt>
</event>
<event>
 5    0  0.2629946E-001  0.5562317E+03  0.7546771E-02  0.1000062E+00
         21   -1    0    0  504  501  0.00000000000E+00  0.00000000000E+00  0.40304823611E+03  0.40304823611E+03  0.00000000000E+00 0.  1.
         21   -1    0    0  501  502 -0.00000000000E+00 -0.00000000000E+00 -0.19190863898E+03  0.19190863898E+03  0.00000000000E+00 0.  1.
         25    1    1    2    0    0 -0.19593584840E+03  0.15722823855E+03  0.17379969600E+03  0.33006500877E+03  0.12500000000E+03 0.  0.
         21    1    1    2  503  502  0.13648747402E+03 -0.14922417818E+03  0.30555691918E+02  0.20452465922E+03  0.00000000000E+00 0.  1.
         21    1    1    2  504  503  0.59448374381E+02 -0.80040603644E+01  0.67842092126E+01  0.60367207104E+02  0.00000000000E+00 0.  1.
<mgrwt>
<rscale>  4 0.55623174E+03</rscale>
<asrwt>0</asrwt>
<pdfrwt beam="1">  1       21 0.62007421E-01 0.55623174E+03</pdfrwt>
<pdfrwt beam="2">  1       21 0.29524406E-01 0.55623174E+03</pdfrwt>
<totfact> 0.23516958E+04</totfact>
</mgrwt>
</event>
<event>
 5    0  0.2629946E-001  0.5174833E+03  0.7546771E-02  0.1009314E+00
         21   -1    0    0  504  501  0.00000000000E+00  0.00000000000E+00  0.46044144356E+03  0.46044144356E+03  0.00000000000E+00 0. -1.
         21   -1    0    0  501  502 -0.00000000000E+00 -0.00000000000E+00 -0.14539793358E+03  0.14539793358E+03  0.00000000000E+00 0. -1.
         25    1    1    2    0    0 -0.20874321286E+03 -0.81941470354E+02  0.23176500017E+03  0.34587302407E+03  0.12500000000E+03 0.  0.
         21    1    1    2  503  502  0.85774920196E+02  0.64227772710E+02 -0.54540210312E+01  0.10729534038E+03  0.00000000000E+00 0. -1.
         21    1    1    2  504  503  0.12296829267E+03  0.17713697644E+02  0.88732530836E+02  0.15267101268E+03  0.00000000000E+00 0. -1.
<mgrwt>
<rscale>  4 0.51748327E+03</rscale>
<asrwt>0</asrwt>
<pdfrwt beam="1">  1       21 0.70837144E-01 0.51748327E+03</pdfrwt>
<pdfrwt beam="2">  1       21 0.22368913E-01 0.51748327E+03</pdfrwt>
<totfact> 0.30310090E+04</totfact>
</mgrwt>
</event>
<event>
 5    0  0.2629946E-001  0.4722756E+03  0.7546771E-02  0.1021280E+00
         21   -1    0    0  504  501  0.00000000000E+00  0.00000000000E+00  0.14698332715E+03  0.14698332715E+03  0.00000000000E+00 0. -1.
         21   -1    0    0  501  502 -0.00000000000E+00 -0.00000000000E+00 -0.37936992761E+03  0.37936992761E+03  0.00000000000E+00 0. -1.
         25    1    1    2    0    0  0.90226149369E+02  0.18012550292E+03 -0.20501483646E+03  0.31343585947E+03  0.12500000000E+03 0.  0.
         21    1    1    2  503  502 -0.28224535469E+02 -0.20912462944E+02 -0.23027448323E+02  0.42002605695E+02  0.00000000000E+00 0. -1.
         21    1    1    2  504  503 -0.62001613900E+02 -0.15921303998E+03 -0.43443156733E+01  0.17091478960E+03  0.00000000000E+00 0. -1.
<mgrwt>
<rscale>  4 0.47227557E+03</rscale>
<asrwt>0</asrwt>
<pdfrwt beam="1">  1       21 0.22612820E-01 0.47227557E+03</pdfrwt>
<pdfrwt beam="2">  1       21 0.58364603E-01 0.47227557E+03</pdfrwt>
<totfact> 0.46092659E+04</totfact>
</mgrwt>
</event>
<event>
 5    0  0.2629946E-001  0.4570684E+03  0.7546771E-02  0.1025635E+00
         21   -1    0    0  504  501  0.00000000000E+00  0.00000000000E+00  0.61785710003E+02  0.61785710003E+02  0.00000000000E+00 0.  1.
         21   -1    0    0  501  502 -0.00000000000E+00 -0.00000000000E+00 -0.84530680042E+03  0.84530680042E+03  0.00000000000E+00 0.  1.
         25    1    1    2    0    0 -0.18851338507E+03  0.69752102262E+02 -0.32770681419E+03  0.40425166442E+03  0.12500000000E+03 0.  0.
         21    1    1    2  503  502  0.18053583603E+02  0.13576017110E+02 -0.48203660947E+02  0.53233758557E+02  0.00000000000E+00 0. -1.
         21    1    1    2  504  503  0.17045980146E+03 -0.83328119372E+02 -0.40761061528E+03  0.44960708744E+03  0.00000000000E+00 0.  1.
<mgrwt>
<rscale>  4 0.45706840E+03</rscale>
<asrwt>0</asrwt>
<pdfrwt beam="1">  1       21 0.95054939E-02 0.45706840E+03</pdfrwt>
<pdfrwt beam="2">  1       21 0.13004720E+00 0.45706840E+03</pdfrwt>
<totfact> 0.34675367E+04</totfact>
</mgrwt>
</event>
<event>
 5    0  0.2629946E-001  0.4682794E+03  0.7546771E-02  0.1022407E+00
         21   -1    0    0  504  501  0.00000000000E+00  0.00000000000E+00  0.84965760153E+02  0.84965760153E+02  0.00000000000E+00 0. -1.
         21   -1    0    0  501  502 -0.00000000000E+00 -0.00000000000E+00 -0.64521764353E+03  0.64521764353E+03  0.00000000000E+00 0. -1.
         25    1    1    2    0    0 -0.20000923748E+03  0.40424297864E+02 -0.25082947629E+03  0.34666734070E+03  0.12500000000E+03 0.  0.
         21    1    1    2  503  502  0.16813261561E+03 -0.70714157161E+02 -0.25578891097E+03  0.31416084325E+03  0.00000000000E+00 0. -1.
         21    1    1    2  504  503  0.31876621872E+02  0.30289859297E+02 -0.53633496121E+02  0.69355219734E+02  0.00000000000E+00 0. -1.
<mgrwt>
<rscale>  4 0.46827944E+03</rscale>
<asrwt>0</asrwt>
<pdfrwt beam="1">  1       21 0.13071656E-01 0.46827944E+03</pdfrwt>
<pdfrwt beam="2">  1       21 0.99264247E-01 0.46827944E+03</pdfrwt>
<totfact> 0.38207258E+04</totfact>
</mgrwt>
</event>
<event>
 5    0  0.2629946E-001  0.5040609E+03  0.7546771E-02  0.1012724E+00
         21   -1    0    0  504  501  0.00000000000E+00  0.00000000000E+00  0.43626938913E+02  0.43626938913E+02  0.00000000000E+00 0. -1.
         21   -1    0    0  501  502 -0.00000000000E+00 -0.00000000000E+00 -0.14559660184E+04  0.14559660184E+04  0.00000000000E+00 0. -1.
         25    1    1    2    0    0  0.72318497557E+02 -0.21211526250E+03 -0.63689679637E+03  0.68664792936E+03  0.12500000000E+03 0.  0.
         21    1    1    2  503  502 -0.74652302616E+02  0.72031589654E+02 -0.34731881633E+03  0.36248017377E+03  0.00000000000E+00 0. -1.
         21    1    1    2  504  503  0.23338050599E+01  0.14008367285E+03 -0.42812346682E+03  0.45046485422E+03  0.00000000000E+00 0. -1.
<mgrwt>
<rscale>  4 0.50406087E+03</rscale>
<asrwt>0</asrwt>
<pdfrwt beam="1">  1       21 0.67118375E-02 0.50406087E+03</pdfrwt>
<pdfrwt beam="2">  1       21 0.22399475E+00 0.50406087E+03</pdfrwt>
<totfact> 0.13193176E+04</totfact>
</mgrwt>
</event>
<event>
 5    0  0.2629946E-001  0.5041566E+03  0.7546771E-02  0.1012700E+00
         21   -1    0    0  504  501  0.00000000000E+00  0.00000000000E+00  0.12890581768E+04  0.12890581768E+04  0.00000000000E+00 0.  1.
         21   -1    0    0  501  502 -0.00000000000E+00 -0.00000000000E+00 -0.49294495515E+02  0.49294495515E+02  0.00000000000E+00 0.  1.
         25    1    1    2    0    0  0.21138737024E+03 -0.84449452260E+02  0.79307821444E+03  0.83451446033E+03  0.12500000000E+03 0.  0.
         21    1    1    2  503  502 -0.18136912935E+03  0.84840257708E+02  0.35775343958E+03  0.40997579678E+03  0.00000000000E+00 0.  1.
         21    1    1    2  504  503 -0.30018240889E+02 -0.39080544776E+00  0.88932027249E+02  0.93862415192E+02  0.00000000000E+00 0.  1.
<mgrwt>
<rscale>  4 0.50415661E+03</rscale>
<asrwt>0</asrwt>
<pdfrwt beam="1">  1       21 0.19831662E+00 0.50415661E+03</pdfrwt>
<pdfrwt beam="2">  1       21 0.75837695E-02 0.50415661E+03</pdfrwt>
<totfact> 0.15659174E+04</totfact>
</mgrwt>
</event>
<event>
 5    0  0.2629946E-001  0.8553458E+03  0.7546771E-02  0.9483190E-01
         21   -1    0    0  502  501  0.00000000000E+00  0.00000000000E+00  0.29902202522E+03  0.29902202522E+03  0.00000000000E+00 0.  1.
         21   -1    0    0  504  502 -0.00000000000E+00 -0.00000000000E+00 -0.61167441197E+03  0.61167441197E+03  0.00000000000E+00 0.  1.
         25    1    1    2    0    0 -0.19233277325E+02  0.39470905715E+03 -0.21010281061E+03  0.46468629180E+03  0.12500000000E+03 0.  0.
         21    1    1    2  503  501  0.80105184443E+02 -0.34860394387E+03 -0.85659885315E+02  0.36780316231E+03  0.00000000000E+00 0.  1.
         21    1    1    2  504  503 -0.60871907118E+02 -0.46105113286E+02 -0.16889690826E+02  0.78206983086E+02  0.00000000000E+00 0. -1.
<mgrwt>
<rscale>  4 0.85534583E+03</rscale>
<asrwt>0</asrwt>
<pdfrwt beam="1">  1       21 0.46003389E-01 0.85534583E+03</pdfrwt>
<pdfrwt beam="2">  1       21 0.94103755E-01 0.85534583E+03</pdfrwt>
<totfact> 0.33971434E+03</totfact>
</mgrwt>
</event>
<event>
 5    0  0.2629946E-001  0.6237324E+03  0.7546771E-02  0.9857356E-01
         21   -1    0    0  502  501  0.00000000000E+00  0.00000000000E+00  0.16785241321E+03  0.16785241321E+03  0.00000000000E+00 0.  1.
         21   -1    0    0  504  502 -0.00000000000E+00 -0.00000000000E+00 -0.57944081069E+03  0.57944081069E+03  0.00000000000E+00 0.  1.
         25    1    1    2    0    0 -0.17128791668E+03 -0.20383736326E+03 -0.57074436706E+02  0.29961927906E+03  0.12500000000E+03 0.  0.
         21    1    1    2  503  501  0.70310142126E+01  0.18821010748E+02 -0.73981945727E+01  0.21410251969E+02  0.00000000000E+00 0.  1.
         21    1    1    2  504  503  0.16425690247E+03  0.18501635251E+03 -0.34711576620E+03  0.42626369286E+03  0.00000000000E+00 0.  1.
<mgrwt>
<rscale>  4 0.62373244E+03</rscale>
<asrwt>0</asrwt>
<pdfrwt beam="1">  1       21 0.25823448E-01 0.62373244E+03</pdfrwt>
<pdfrwt beam="2">  1       21 0.89144741E-01 0.62373244E+03</pdfrwt>
<totfact> 0.13148921E+04</totfact>
</mgrwt>
</event>
<event>
 5    0  0.2629946E-001  0.5810774E+03  0.7546771E-02  0.9945461E-01
         21   -1    0    0  502  501  0.00000000000E+00  0.00000000000E+00  0.46806249363E+02  0.46806249363E+02  0.00000000000E+00 0. -1.
         21   -1    0    0  504  502 -0.00000000000E+00 -0.00000000000E+00 -0.18034498860E+04  0.18034498860E+04  0.00000000000E+00 0. -1.
         25    1    1    2    0    0 -0.15912479648E+03 -0.20639265723E+03 -0.81436107931E+03  0.86413401582E+03  0.12500000000E+03 0.  0.
         21    1    1    2  503  501  0.11966095122E+03  0.19735329036E+03 -0.89299751740E+03  0.92234030084E+03  0.00000000000E+00 0. -1.
         21    1    1    2  504  503  0.39463845258E+02  0.90393668617E+01 -0.49285039916E+02  0.63781818689E+02  0.00000000000E+00 0. -1.
<mgrwt>
<rscale>  4 0.58107736E+03</rscale>
<asrwt>0</asrwt>
<pdfrwt beam="1">  1       21 0.72009615E-02 0.58107736E+03</pdfrwt>
<pdfrwt beam="2">  1       21 0.27745383E+00 0.58107736E+03</pdfrwt>
<totfact> 0.52913828E+03</totfact>
</mgrwt>
</event>
<event>
 5    0  0.2629946E-001  0.6272748E+03  0.7546771E-02  0.9850381E-01
         21   -1    0    0  504  501  0.00000000000E+00  0.00000000000E+00  0.42953660417E+03  0.42953660417E+03  0.00000000000E+00 0. -1.
         21   -1    0    0  501  502 -0.00000000000E+00 -0.00000000000E+00 -0.22901054336E+03  0.22901054336E+03  0.00000000000E+00 0. -1.
         25    1    1    2    0    0 -0.12977868701E+02  0.29648545058E+03  0.13058918161E+03  0.34749184427E+03  0.12500000000E+03 0.  0.
         21    1    1    2  503  502 -0.15397564165E-01 -0.24873640231E+02 -0.11210256004E+02  0.27283109337E+02  0.00000000000E+00 0. -1.
         21    1    1    2  504  503  0.12993266265E+02 -0.27161181035E+03  0.81147135200E+02  0.28377219392E+03  0.00000000000E+00 0. -1.
<mgrwt>
<rscale>  4 0.62727478E+03</rscale>
<asrwt>0</asrwt>
<pdfrwt beam="1">  1       21 0.66082555E-01 0.62727478E+03</pdfrwt>
<pdfrwt beam="2">  1       21 0.35232391E-01 0.62727478E+03</pdfrwt>
<totfact> 0.14089617E+04</totfact>
</mgrwt>
</event>
<event>
 5    0  0.2629946E-001  0.5012794E+03  0.7546771E-02  0.1013446E+00
         21   -1    0    0  504  501  0.00000000000E+00  0.00000000000E+00  0.65141749517E+03  0.65141749517E+03  0.00000000000E+00 0. -1.
         21   -1    0    0  501  502 -0.00000000000E+00 -0.00000000000E+00 -0.96436246575E+02  0.96436246575E+02  0.00000000000E+00 0. -1.
         25    1    1    2    0    0 -0.11731406798E+03  0.16902611642E+03  0.17071935509E+03  0.29513135512E+03  0.12500000000E+03 0.  0.
         21    1    1    2  503  502  0.12383911286E+03 -0.76824382220E+02  0.21253918843E+03  0.25770335309E+03  0.00000000000E+00 0. -1.
         21    1    1    2  504  503 -0.65250448791E+01 -0.92201734195E+02  0.17172270508E+03  0.19501903353E+03  0.00000000000E+00 0. -1.
<mgrwt>
<rscale>  4 0.50127940E+03</rscale>
<asrwt>0</asrwt>
<pdfrwt beam="1">  1       21 0.10021807E+00 0.50127940E+03</pdfrwt>
<pdfrwt beam="2">  1       21 0.14836346E-01 0.50127940E+03</pdfrwt>
<totfact> 0.29322122E+04</totfact>
</mgrwt>
</event>
<event>
 5    0  0.2629946E-001  0.6579101E+03  0.7546771E-02  0.9792049E-01
         21   -1    0    0  504  501  0.00000000000E+00  0.00000000000E+00  0.40149911782E+02  0.40149911782E+02  0.00000000000E+00 0. -1.
         21   -1    0    0  501  502 -0.00000000000E+00 -0.00000000000E+00 -0.26951849971E+04  0.26951849971E+04  0.00000000000E+00 0. -1.
         25    1    1    2    0    0 -0.13517455205E+03 -0.27417413604E+03 -0.11883750086E+04  0.12334114388E+04  0.12500000000E+03 0.  0.
         21    1    1    2  503  502  0.47116550394E+02  0.26674281200E+02 -0.38670555910E+03  0.39047749748E+03  0.00000000000E+00 0. -1.
         21    1    1    2  504  503  0.88058001656E+02  0.24749985484E+03 -0.10799545177E+04  0.11114459726E+04  0.00000000000E+00 0. -1.
<mgrwt>
<rscale>  4 0.65791015E+03</rscale>
<asrwt>0</asrwt>
<pdfrwt beam="1">  1       21 0.61769099E-02 0.65791015E+03</pdfrwt>
<pdfrwt beam="2">  1       21 0.41464382E+00 0.65791015E+03</pdfrwt>
<totfact> 0.93755988E+02</totfact>
</mgrwt>
</event>
<event>
 5    0  0.2629946E-001  0.5220783E+03  0.7546771E-02  0.1008172E+00
         21   -1    0    0  504  501  0.00000000000E+00  0.00000000000E+00  0.12026056118E+04  0.12026056118E+04  0.00000000000E+00 0.  1.
         21   -1    0    0  501  502 -0.00000000000E+00 -0.00000000000E+00 -0.56661501753E+02  0.56661501753E+02  0.00000000000E+00 0.  1.
         25    1    1    2    0    0  0.33309263919E+02  0.23423287693E+03  0.51564280327E+03  0.58093635475E+03  0.12500000000E+03 0.  0.
         21    1    1    2  503  502  0.99349327299E+01 -0.55568407973E+02  0.24508849364E+03  0.25150530922E+03  0.00000000000E+00 0.  1.
         21    1    1    2  504  503 -0.43244196649E+02 -0.17866446896E+03  0.38521281318E+03  0.42682544963E+03  0.00000000000E+00 0.  1.
<mgrwt>
<rscale>  4 0.52207831E+03</rscale>
<asrwt>0</asrwt>
<pdfrwt beam="1">  1       21 0.18501623E+00 0.52207831E+03</pdfrwt>
<pdfrwt beam="2">  1       21 0.87171550E-02 0.52207831E+03</pdfrwt>
<totfact> 0.14999505E+04</totfact>
</mgrwt>
</event>
<event>
 5    0  0.2629946E-001  0.4778880E+03  0.7546771E-02  0.1019717E+00
         21   -1    0    0  504  501  0.00000000000E+00  0.00000000000E+00  0.26088783912E+03  0.26088783912E+03  0.00000000000E+00 0. -1.
         21   -1    0    0  501  502 -0.00000000000E+00 -0.00000000000E+00 -0.21884589077E+03  0.21884589077E+03  0.00000000000E+00 0. -1.
         25    1    1    2    0    0  0.21085219183E+03 -0.18012203098E+02  0.83544334536E+02  0.25959149080E+03  0.12500000000E+03 0.  0.
         21    1    1    2  503  502 -0.22889157988E+02  0.14444518921E+02 -0.12897079397E+02  0.29981533270E+02  0.00000000000E+00 0. -1.
         21    1    1    2  504  503 -0.18796303384E+03  0.35676841774E+01 -0.28605306790E+02  0.19016070582E+03  0.00000000000E+00 0. -1.
<mgrwt>
<rscale>  4 0.47788798E+03</rscale>
<asrwt>0</asrwt>
<pdfrwt beam="1">  1       21 0.40136591E-01 0.47788798E+03</pdfrwt>
<pdfrwt beam="2">  1       21 0.33668598E-01 0.47788798E+03</pdfrwt>
<totfact> 0.46486210E+04</totfact>
</mgrwt>
</event>
<event>
 5    0  0.2629946E-001  0.5760970E+03  0.7546771E-02  0.9956277E-01
         21   -1    0    0  504  501  0.00000000000E+00  0.00000000000E+00  0.45642320215E+02  0.45642320215E+02  0.00000000000E+00 0. -1.
         21   -1    0    0  501  502 -0.00000000000E+00 -0.00000000000E+00 -0.18178728881E+04  0.18178728881E+04  0.00000000000E+00 0. -1.
         25    1    1    2    0    0  0.80531024387E+02  0.21029626278E+03 -0.14181942526E+04  0.14413915853E+04  0.12500000000E+03 0.  0.
         21    1    1    2  503  502 -0.61020936877E+01 -0.43168299761E+02 -0.99754285022E+02  0.10886530683E+03  0.00000000000E+00 0. -1.
         21    1    1    2  504  503 -0.74428930699E+02 -0.16712796302E+03 -0.25428203024E+03  0.31325831618E+03  0.00000000000E+00 0. -1.
<mgrwt>
<rscale>  4 0.57609699E+03</rscale>
<asrwt>0</asrwt>
<pdfrwt beam="1">  1       21 0.70218978E-02 0.57609699E+03</pdfrwt>
<pdfrwt beam="2">  1       21 0.27967266E+00 0.57609699E+03</pdfrwt>
<totfact> 0.53718636E+03</totfact>
</mgrwt>
</event>
<event>
 5    0  0.2629946E-001  0.5107034E+03  0.7546771E-02  0.1011022E+00
         21   -1    0    0  504  501  0.00000000000E+00  0.00000000000E+00  0.59461637553E+02  0.59461637553E+02  0.00000000000E+00 0.  1.
         21   -1    0    0  501  502 -0.00000000000E+00 -0.00000000000E+00 -0.10965806095E+04  0.10965806095E+04  0.00000000000E+00 0.  1.
         25    1    1    2    0    0  0.22200420713E+03  0.86474498383E+02 -0.53468160884E+03  0.59855921151E+03  0.12500000000E+03 0.  0.
         21    1    1    2  503  502 -0.33918217368E+02 -0.28854358870E+02 -0.82353825454E+02  0.93622497628E+02  0.00000000000E+00 0.  1.
         21    1    1    2  504  503 -0.18808598977E+03 -0.57620139514E+02 -0.42008353763E+03  0.46386053789E+03  0.00000000000E+00 0.  1.
<mgrwt>
<rscale>  4 0.51070335E+03</rscale>
<asrwt>0</asrwt>
<pdfrwt beam="1">  1       21 0.91479437E-02 0.51070335E+03</pdfrwt>
<pdfrwt beam="2">  1       21 0.16870472E+00 0.51070335E+03</pdfrwt>
<totfact> 0.18058378E+04</totfact>
</mgrwt>
</event>
<event>
 5    0  0.2629946E-001  0.6111723E+03  0.7546771E-02  0.9882494E-01
         21   -1    0    0  504  501  0.00000000000E+00  0.00000000000E+00  0.46712215878E+03  0.46712215878E+03  0.00000000000E+00 0.  1.
         21   -1    0    0  501  502 -0.00000000000E+00 -0.00000000000E+00 -0.19991107908E+03  0.19991107908E+03  0.00000000000E+00 0.  1.
         25    1    1    2    0    0  0.27370048492E+03 -0.66955439342E+02  0.10004302813E+03  0.32408115308E+03  0.12500000000E+03 0.  0.
         21    1    1    2  503  502 -0.51781282541E+02 -0.17912825251E+02  0.44344518621E+01  0.54971218773E+02  0.00000000000E+00 0.  1.
         21    1    1    2  504  503 -0.22191920237E+03  0.84868264593E+02  0.16273359970E+03  0.28798086601E+03  0.00000000000E+00 0.  1.
<mgrwt>
<rscale>  4 0.61117230E+03</rscale>
<asrwt>0</asrwt>
<pdfrwt beam="1">  1       21 0.71864947E-01 0.61117230E+03</pdfrwt>
<pdfrwt beam="2">  1       21 0.30755551E-01 0.61117230E+03</pdfrwt>
<totfact> 0.15388877E+04</totfact>
</mgrwt>
</event>
<event>
 5    0  0.2629946E-001  0.5146709E+03  0.7546771E-02  0.1010019E+00
         21   -1    0    0  504  501  0.00000000000E+00  0.00000000000E+00  0.88751966296E+03  0.88751966296E+03  0.00000000000E+00 0.  1.
         21   -1    0    0  501  502 -0.00000000000E+00 -0.00000000000E+00 -0.74614148528E+02  0.74614148528E+02  0.00000000000E+00 0.  1.
         25    1    1    2    0    0 -0.20440856410E+03 -0.86753438366E+02  0.27104147407E+03  0.37201814581E+03  0.12500000000E+03 0.  0.
         21    1    1    2  503  502  0.86481061341E+02  0.53145341398E+02  0.16418342673E+03  0.19302745632E+03  0.00000000000E+00 0.  1.
         21    1    1    2  504  503  0.11792750276E+03  0.33608096969E+02  0.37768061364E+03  0.39708820935E+03  0.00000000000E+00 0.  1.
<mgrwt>
<rscale>  4 0.51467086E+03</rscale>
<asrwt>0</asrwt>
<pdfrwt beam="1">  1       21 0.13654148E+00 0.51467086E+03</pdfrwt>
<pdfrwt beam="2">  1       21 0.11479100E-01 0.51467086E+03</pdfrwt>
<totfact> 0.21397498E+04</totfact>
</mgrwt>
</event>
<event>
 5    0  0.2629946E-001  0.5832841E+03  0.7546771E-02  0.9940706E-01
         21   -1    0    0  502  501  0.00000000000E+00  0.00000000000E+00  0.10369527814E+03  0.10369527814E+03  0.00000000000E+00 0. -1.
         21   -1    0    0  504  502 -0.00000000000E+00 -0.00000000000E+00 -0.82024061367E+03  0.82024061367E+03  0.00000000000E+00 0. -1.
         25    1    1    2    0    0 -0.25894016374E+03  0.83720149009E+02 -0.35515012209E+03  0.46455966352E+03  0.12500000000E+03 0.  0.
         21    1    1    2  503  501  0.12646240577E+03 -0.24153603375E+02 -0.11143221479E+03  0.17027411759E+03  0.00000000000E+00 0. -1.
         21    1    1    2  504  503  0.13247775796E+03 -0.59566545634E+02 -0.24996299866E+03  0.28910211070E+03  0.00000000000E+00 0. -1.
<mgrwt>
<rscale>  4 0.58328408E+03</rscale>
<asrwt>0</asrwt>
<pdfrwt beam="1">  1       21 0.15953120E-01 0.58328408E+03</pdfrwt>
<pdfrwt beam="2">  1       21 0.12619086E+00 0.58328408E+03</pdfrwt>
<totfact> 0.14090329E+04</totfact>
</mgrwt>
</event>
<event>
 5    0  0.2629946E-001  0.6016001E+03  0.7546771E-02  0.9902092E-01
         21   -1    0    0  504  501  0.00000000000E+00  0.00000000000E+00  0.50174813452E+02  0.50174813452E+02  0.00000000000E+00 0.  1.
         21   -1    0    0  501  502 -0.00000000000E+00 -0.00000000000E+00 -0.18033085409E+04  0.18033085409E+04  0.00000000000E+00 0.  1.
         25    1    1    2    0    0 -0.24350180532E+03  0.13550085546E+03 -0.91093810137E+03  0.96077408143E+03  0.12500000000E+03 0.  0.
         21    1    1    2  503  502  0.17474435674E+03 -0.51270369594E+02 -0.60428839891E+03  0.63113287829E+03  0.00000000000E+00 0.  1.
         21    1    1    2  504  503  0.68757448582E+02 -0.84230485863E+02 -0.23790722716E+03  0.26157639461E+03  0.00000000000E+00 0.  1.
<mgrwt>
<rscale>  4 0.60160010E+03</rscale>
<asrwt>0</asrwt>
<pdfrwt beam="1">  1       21 0.77192031E-02 0.60160010E+03</pdfrwt>
<pdfrwt beam="2">  1       21 0.27743205E+00 0.60160010E+03</pdfrwt>
<totfact> 0.46468079E+03</totfact>
</mgrwt>
</event>
<event>
 5    0  0.2629946E-001  0.4972914E+03  0.7546771E-02  0.1014488E+00
         21   -1    0    0  502  501  0.00000000000E+00  0.00000000000E+00  0.14212214300E+03  0.14212214300E+03  0.00000000000E+00 0.  1.
         21   -1    0    0  504  502 -0.00000000000E+00 -0.00000000000E+00 -0.43501087032E+03  0.43501087032E+03  0.00000000000E+00 0.  1.
         25    1    1    2    0    0  0.17241499728E+03 -0.12229236386E+03 -0.48293384635E+02  0.25027905335E+03  0.12500000000E+03 0.  0.
         21    1    1    2  503  501 -0.16369314893E+03  0.10194160819E+03 -0.23083158827E+03  0.30078357773E+03  0.00000000000E+00 0.  1.
         21    1    1    2  504  503 -0.87218483492E+01  0.20350755673E+02 -0.13763754419E+02  0.26070382252E+02  0.00000000000E+00 0. -1.
<mgrwt>
<rscale>  4 0.49729137E+03</rscale>
<asrwt>0</asrwt>
<pdfrwt beam="1">  1       21 0.21864945E-01 0.49729137E+03</pdfrwt>
<pdfrwt beam="2">  1       21 0.66924748E-01 0.49729137E+03</pdfrwt>
<totfact> 0.36144561E+04</totfact>
</mgrwt>
</event>
<event>
 5    0  0.2629946E-001  0.5570429E+03  0.7546771E-02  0.9998768E-01
         21   -1    0    0  504  501  0.00000000000E+00  0.00000000000E+00  0.10096227348E+03  0.10096227348E+03  0.00000000000E+00 0.  1.
         21   -1    0    0  501  502 -0.00000000000E+00 -0.00000000000E+00 -0.76834841301E+03  0.76834841301E+03  0.00000000000E+00 0.  1.
         25    1    1    2    0    0  0.16723851142E+03 -0.16951233655E+03 -0.17643693266E+03  0.32164909941E+03  0.12500000000E+03 0.  0.
         21    1    1    2  503  502 -0.12936833104E+03  0.10049660735E+03 -0.34074620192E+03  0.37807896964E+03  0.00000000000E+00 0.  1.
         21    1    1    2  504  503 -0.37870180379E+02  0.69015729198E+02 -0.15020300496E+03  0.16958261744E+03  0.00000000000E+00 0.  1.
<mgrwt>
<rscale>  4 0.55704292E+03</rscale>
<asrwt>0</asrwt>
<pdfrwt beam="1">  1       21 0.15532658E-01 0.55704292E+03</pdfrwt>
<pdfrwt beam="2">  1       21 0.11820744E+00 0.55704292E+03</pdfrwt>
<totfact> 0.17631834E+04</totfact>
</mgrwt>
</event>
<event>
 5    0  0.2629946E-001  0.4943098E+03  0.7546771E-02  0.1015275E+00
         21   -1    0    0  504  501  0.00000000000E+00  0.00000000000E+00  0.19671459167E+04  0.19671459167E+04  0.00000000000E+00 0.  1.
         21   -1    0    0  501  502 -0.00000000000E+00 -0.00000000000E+00 -0.31052876693E+02  0.31052876693E+02  0.00000000000E+00 0.  1.
         25    1    1    2    0    0 -0.12900386455E+03 -0.18648760881E+03  0.96451670504E+03  0.99866766224E+03  0.12500000000E+03 0.  0.
         21    1    1    2  503  502  0.75784334382E+02  0.10609344888E+03  0.42614548624E+03  0.44564454521E+03  0.00000000000E+00 0.  1.
         21    1    1    2  504  503  0.53219530167E+02  0.80394159929E+02  0.54543084870E+03  0.55388658592E+03  0.00000000000E+00 0.  1.
<mgrwt>
<rscale>  4 0.49430978E+03</rscale>
<asrwt>0</asrwt>
<pdfrwt beam="1">  1       21 0.30263774E+00 0.49430978E+03</pdfrwt>
<pdfrwt beam="2">  1       21 0.47773672E-02 0.49430978E+03</pdfrwt>
<totfact> 0.78686035E+03</totfact>
</mgrwt>
</event>
<event>
 5    0  0.2629946E-001  0.4734576E+03  0.7546771E-02  0.1020949E+00
         21   -1    0    0  502  501  0.00000000000E+00  0.00000000000E+00  0.82214938280E+02  0.82214938280E+02  0.00000000000E+00 0. -1.
         21   -1    0    0  504  502 -0.00000000000E+00 -0.00000000000E+00 -0.68163426752E+03  0.68163426752E+03  0.00000000000E+00 0. -1.
         25    1    1    2    0    0  0.20527464723E+03  0.24853203642E+02 -0.20764713600E+03  0.31858702989E+03  0.12500000000E+03 0.  0.
         21    1    1    2  503  501 -0.18273965231E+03 -0.93692432751E+01 -0.32257020924E+03  0.37085455793E+03  0.00000000000E+00 0. -1.
         21    1    1    2  504  503 -0.22534994918E+02 -0.15483960367E+02 -0.69201983998E+02  0.74407617982E+02  0.00000000000E+00 0. -1.
<mgrwt>
<rscale>  4 0.47345758E+03</rscale>
<asrwt>0</asrwt>
<pdfrwt beam="1">  1       21 0.12648452E-01 0.47345758E+03</pdfrwt>
<pdfrwt beam="2">  1       21 0.10486681E+00 0.47345758E+03</pdfrwt>
<totfact> 0.35436277E+04</totfact>
</mgrwt>
</event>
<event>
 5    0  0.2629946E-001  0.8033432E+03  0.7546771E-02  0.9555191E-01
         21   -1    0    0  504  501  0.00000000000E+00  0.00000000000E+00  0.10919218556E+03  0.10919218556E+03  0.00000000000E+00 0. -1.
         21   -1    0    0  501  502 -0.00000000000E+00 -0.00000000000E+00 -0.14775788820E+04  0.14775788820E+04  0.00000000000E+00 0. -1.
         25    1    1    2    0    0  0.23776927304E+03  0.28313877268E+03 -0.63537128199E+03  0.74566980479E+03  0.12500000000E+03 0.  0.
         21    1    1    2  503  502  0.21286891818E+02 -0.57186919214E+02 -0.17891040792E+03  0.18903018160E+03  0.00000000000E+00 0. -1.
         21    1    1    2  504  503 -0.25905616486E+03 -0.22595185347E+03 -0.55410500657E+03  0.65207108121E+03  0.00000000000E+00 0. -1.
<mgrwt>
<rscale>  4 0.80334318E+03</rscale>
<asrwt>0</asrwt>
<pdfrwt beam="1">  1       21 0.16798798E-01 0.80334318E+03</pdfrwt>
<pdfrwt beam="2">  1       21 0.22731982E+00 0.80334318E+03</pdfrwt>
<totfact> 0.21773756E+03</totfact>
</mgrwt>
</event>
<event>
 5    0  0.2629946E-001  0.5266808E+03  0.7546771E-02  0.1007040E+00
         21   -1    0    0  504  501  0.00000000000E+00  0.00000000000E+00  0.10931961106E+03  0.10931961106E+03  0.00000000000E+00 0.  1.
         21   -1    0    0  501  502 -0.00000000000E+00 -0.00000000000E+00 -0.63436158911E+03  0.63436158911E+03  0.00000000000E+00 0.  1.
         25    1    1    2    0    0  0.73145408145E+02  0.21017772225E+03 -0.20991833305E+03  0.33047788461E+03  0.12500000000E+03 0.  0.
         21    1    1    2  503  502  0.33938688580E+02 -0.33791456810E+01 -0.34119528877E+02  0.48243087162E+02  0.00000000000E+00 0.  1.
         21    1    1    2  504  503 -0.10708409673E+03 -0.20679857657E+03 -0.28100411611E+03  0.36496022840E+03  0.00000000000E+00 0.  1.
<mgrwt>
<rscale>  4 0.52668078E+03</rscale>
<asrwt>0</asrwt>
<pdfrwt beam="1">  1       21 0.16818402E-01 0.52668078E+03</pdfrwt>
<pdfrwt beam="2">  1       21 0.97594090E-01 0.52668078E+03</pdfrwt>
<totfact> 0.24604143E+04</totfact>
</mgrwt>
</event>
<event>
 5    0  0.2629946E-001  0.4793716E+03  0.7546771E-02  0.1019308E+00
         21   -1    0    0  502  501  0.00000000000E+00  0.00000000000E+00  0.15967216171E+04  0.15967216171E+04  0.00000000000E+00 0.  1.
         21   -1    0    0  504  502 -0.00000000000E+00 -0.00000000000E+00 -0.35979516643E+02  0.35979516643E+02  0.00000000000E+00 0.  1.
         25    1    1    2    0    0 -0.11099995796E+03  0.16697016017E+03  0.52384040595E+03  0.57465972189E+03  0.12500000000E+03 0.  0.
         21    1    1    2  503  501  0.11332718650E+03 -0.12624632303E+03  0.83362667592E+03  0.85071418237E+03  0.00000000000E+00 0.  1.
         21    1    1    2  504  503 -0.23272285391E+01 -0.40723837144E+02  0.20327501853E+03  0.20732722943E+03  0.00000000000E+00 0.  1.
<mgrwt>
<rscale>  4 0.47937156E+03</rscale>
<asrwt>0</asrwt>
<pdfrwt beam="1">  1       21 0.24564942E+00 0.47937156E+03</pdfrwt>
<pdfrwt beam="2">  1       21 0.55353115E-02 0.47937156E+03</pdfrwt>
<totfact> 0.13622675E+04</totfact>
</mgrwt>
</event>
<event>
 5    0  0.2629946E-001  0.6137438E+03  0.7546771E-02  0.9877295E-01
         21   -1    0    0  504  501  0.00000000000E+00  0.00000000000E+00  0.76802042291E+03  0.76802042291E+03  0.00000000000E+00 0. -1.
         21   -1    0    0  501  502 -0.00000000000E+00 -0.00000000000E+00 -0.12261440157E+03  0.12261440157E+03  0.00000000000E+00 0. -1.
         25    1    1    2    0    0 -0.18427757084E+03 -0.10520084934E+03  0.61001911647E+03  0.65785542809E+03  0.12500000000E+03 0.  0.
         21    1    1    2  503  502  0.31860591821E+02  0.50070763018E+01  0.38664686846E+02  0.50350036079E+02  0.00000000000E+00 0.  1.
         21    1    1    2  504  503  0.15241697902E+03  0.10019377304E+03 -0.32777819755E+01  0.18242936031E+03  0.00000000000E+00 0.  1.
<mgrwt>
<rscale>  4 0.61374381E+03</rscale>
<asrwt>0</asrwt>
<pdfrwt beam="1">  1       21 0.11815699E+00 0.61374381E+03</pdfrwt>
<pdfrwt beam="2">  1       21 0.18863755E-01 0.61374381E+03</pdfrwt>
<totfact> 0.12084382E+04</totfact>
</mgrwt>
</event>
<event>
 5    0  0.2629946E-001  0.5739611E+03  0.7546771E-02  0.9960951E-01
         21   -1    0    0  504  501  0.00000000000E+00  0.00000000000E+00  0.21800500184E+03  0.21800500184E+03  0.00000000000E+00 0. -1.
         21   -1    0    0  501  502 -0.00000000000E+00 -0.00000000000E+00 -0.37777955083E+03  0.37777955083E+03  0.00000000000E+00 0. -1.
         25    1    1    2    0    0  0.21162997743E+03  0.69134643144E+02  0.20038276551E+02  0.25611204337E+03  0.12500000000E+03 0.  0.
         21    1    1    2  503  502 -0.64914133428E+02 -0.49789395528E+02 -0.17318833247E+03  0.19153857870E+03  0.00000000000E+00 0. -1.
         21    1    1    2  504  503 -0.14671584400E+03 -0.19345247615E+02 -0.66244930690E+01  0.14813393060E+03  0.00000000000E+00 0. -1.
<mgrwt>
<rscale>  4 0.57396108E+03</rscale>
<asrwt>0</asrwt>
<pdfrwt beam="1">  1       21 0.33539231E-01 0.57396108E+03</pdfrwt>
<pdfrwt beam="2">  1       21 0.58119931E-01 0.57396108E+03</pdfrwt>
<totfact> 0.20922556E+04</totfact>
</mgrwt>
</event>
<event>
 5    0  0.2629946E-001  0.5200599E+03  0.7546771E-02  0.1008672E+00
         21   -1    0    0  504  501  0.00000000000E+00  0.00000000000E+00  0.45284754124E+03  0.45284754124E+03  0.00000000000E+00 0.  1.
         21   -1    0    0  501  502 -0.00000000000E+00 -0.00000000000E+00 -0.14931199553E+03  0.14931199553E+03  0.00000000000E+00 0.  1.
         25    1    1    2    0    0  0.32946433130E+02  0.22057826774E+03  0.55643108407E+02  0.26165128543E+03  0.12500000000E+03 0.  0.
         21    1    1    2  503  502 -0.14135924360E+02 -0.54839161270E+02  0.24481226629E+02  0.61696745648E+02  0.00000000000E+00 0.  1.
         21    1    1    2  504  503 -0.18810508770E+02 -0.16573910647E+03  0.22341121067E+03  0.27881150569E+03  0.00000000000E+00 0.  1.
<mgrwt>
<rscale>  4 0.52005988E+03</rscale>
<asrwt>0</asrwt>
<pdfrwt beam="1">  1       21 0.69668852E-01 0.52005988E+03</pdfrwt>
<pdfrwt beam="2">  1       21 0.22971076E-01 0.52005988E+03</pdfrwt>
<totfact> 0.29880682E+04</totfact>
</mgrwt>
</event>
<event>
 5    0  0.2629946E-001  0.5400934E+03  0.7546771E-02  0.1003813E+00
         21   -1    0    0  504  501  0.00000000000E+00  0.00000000000E+00  0.11431320634E+03  0.11431320634E+03  0.00000000000E+00 0.  1.
         21   -1    0    0  501  502 -0.00000000000E+00 -0.00000000000E+00 -0.63794233352E+03  0.63794233352E+03  0.00000000000E+00 0.  1.
         25    1    1    2    0    0 -0.63835262442E+02 -0.19952116142E+03 -0.73364844350E+02  0.25473718804E+03  0.12500000000E+03 0.  0.
         21    1    1    2  503  502  0.62495996038E+02  0.17568158768E+03 -0.41456513577E+03  0.45457015033E+03  0.00000000000E+00 0.  1.
         21    1    1    2  504  503  0.13392664047E+01  0.23839573741E+02 -0.35699147064E+02  0.42948201496E+02  0.00000000000E+00 0. -1.
<mgrwt>
<rscale>  4 0.54009345E+03</rscale>
<asrwt>0</asrwt>
<pdfrwt beam="1">  1       21 0.17586647E-01 0.54009345E+03</pdfrwt>
<pdfrwt beam="2">  1       21 0.98144975E-01 0.54009345E+03</pdfrwt>
<totfact> 0.22247832E+04</totfact>
</mgrwt>
</event>
<event>
 5    0  0.2629946E-001  0.4853268E+03  0.7546771E-02  0.1017681E+00
         21   -1    0    0  504  501  0.00000000000E+00  0.00000000000E+00  0.46294407852E+03  0.46294407852E+03  0.00000000000E+00 0.  1.
         21   -1    0    0  501  502 -0.00000000000E+00 -0.00000000000E+00 -0.12719789882E+03  0.12719789882E+03  0.00000000000E+00 0.  1.
         25    1    1    2    0    0  0.33390254197E+02 -0.21590016435E+03  0.17772577380E+03  0.30812211981E+03  0.12500000000E+03 0.  0.
         21    1    1    2  503  502 -0.12832913648E+02  0.27966791618E+02 -0.64466653312E+01  0.31438584574E+02  0.00000000000E+00 0.  1.
         21    1    1    2  504  503 -0.20557340549E+02  0.18793337273E+03  0.16446707123E+03  0.25058127296E+03  0.00000000000E+00 0.  1.
<mgrwt>
<rscale>  4 0.48532675E+03</rscale>
<asrwt>0</asrwt>
<pdfrwt beam="1">  1       21 0.71222165E-01 0.48532675E+03</pdfrwt>
<pdfrwt beam="2">  1       21 0.19568908E-01 0.48532675E+03</pdfrwt>
<totfact> 0.38948557E+04</totfact>
</mgrwt>
</event>
<event>
 5    0  0.2629946E-001  0.5723811E+03  0.7546771E-02  0.9964423E-01
         21   -1    0    0  502  501  0.00000000000E+00  0.00000000000E+00  0.48452601910E+02  0.48452601910E+02  0.00000000000E+00 0. -1.
         21   -1    0    0  504  502 -0.00000000000E+00 -0.00000000000E+00 -0.16904158036E+04  0.16904158036E+04  0.00000000000E+00 0. -1.
         25    1    1    2    0    0 -0.12282402034E+03 -0.23878627988E+03 -0.96169297649E+03  0.10062718363E+04  0.12500000000E+03 0.  0.
         21    1    1    2  503  501  0.12236566571E+03  0.21398376620E+03 -0.60284750831E+03  0.65129680378E+03  0.00000000000E+00 0. -1.
         21    1    1    2  504  503  0.45835462852E+00  0.24802513673E+02 -0.77422716909E+02  0.81299765480E+02  0.00000000000E+00 0.  1.
<mgrwt>
<rscale>  4 0.57238115E+03</rscale>
<asrwt>0</asrwt>
<pdfrwt beam="1">  1       21 0.74542447E-02 0.57238115E+03</pdfrwt>
<pdfrwt beam="2">  1       21 0.26006403E+00 0.57238115E+03</pdfrwt>
<totfact> 0.63797624E+03</totfact>
</mgrwt>
</event>
<event>
 5    0  0.2629946E-001  0.5223690E+03  0.7546771E-02  0.1008100E+00
         21   -1    0    0  504  501  0.00000000000E+00  0.00000000000E+00  0.30638481036E+03  0.30638481036E+03  0.00000000000E+00 0. -1.
         21   -1    0    0  501  502 -0.00000000000E+00 -0.00000000000E+00 -0.22265252351E+03  0.22265252351E+03  0.00000000000E+00 0. -1.
         25    1    1    2    0    0 -0.19317366274E+03  0.87853247120E+02 -0.18792681683E+01  0.24629817022E+03  0.12500000000E+03 0.  0.
         21    1    1    2  503  502  0.12059461797E+03 -0.35713687325E+02 -0.36922039975E+02  0.13107923704E+03  0.00000000000E+00 0. -1.
         21    1    1    2  504  503  0.72579044768E+02 -0.52139559795E+02  0.12253359500E+03  0.15165992661E+03  0.00000000000E+00 0. -1.
<mgrwt>
<rscale>  4 0.52236903E+03</rscale>
<asrwt>0</asrwt>
<pdfrwt beam="1">  1       21 0.47136125E-01 0.52236903E+03</pdfrwt>
<pdfrwt beam="2">  1       21 0.34254234E-01 0.52236903E+03</pdfrwt>
<totfact> 0.31794258E+04</totfact>
</mgrwt>
</event>
<event>
 5    0  0.2629946E-001  0.6576138E+03  0.7546771E-02  0.9792596E-01
         21   -1    0    0  504  501  0.00000000000E+00  0.00000000000E+00  0.76735183984E+02  0.76735183984E+02  0.00000000000E+00 0.  1.
         21   -1    0    0  501  502 -0.00000000000E+00 -0.00000000000E+00 -0.14089231124E+04  0.14089231124E+04  0.00000000000E+00 0.  1.
         25    1    1    2    0    0 -0.27158910692E+03 -0.23143408147E+02 -0.10298260325E+04  0.10725963442E+04  0.12500000000E+03 0.  0.
         21    1    1    2  503  502  0.20641881248E+02  0.99976225398E+01 -0.58759249688E+02  0.63076851077E+02  0.00000000000E+00 0.  1.
         21    1    1    2  504  503  0.25094722567E+03  0.13145785607E+02 -0.24360264617E+03  0.34998510107E+03  0.00000000000E+00 0.  1.
<mgrwt>
<rscale>  4 0.65761379E+03</rscale>
<asrwt>0</asrwt>
<pdfrwt beam="1">  1       21 0.11805413E-01 0.65761379E+03</pdfrwt>
<pdfrwt beam="2">  1       21 0.21675741E+00 0.65761379E+03</pdfrwt>
<totfact> 0.51028430E+03</totfact>
</mgrwt>
</event>
<event>
 5    0  0.2629946E-001  0.5329328E+03  0.7546771E-02  0.1005523E+00
         21   -1    0    0  502  501  0.00000000000E+00  0.00000000000E+00  0.91882995447E+02  0.91882995447E+02  0.00000000000E+00 0.  1.
         21   -1    0    0  504  502 -0.00000000000E+00 -0.00000000000E+00 -0.77276915702E+03  0.77276915702E+03  0.00000000000E+00 0.  1.
         25    1    1    2    0    0  0.10260556955E+03  0.20534487481E+03 -0.51371666044E+03  0.57638895524E+03  0.12500000000E+03 0.  0.
         21    1    1    2  503  501 -0.78917766013E+02 -0.19164373964E+03 -0.14355278955E+03  0.25211652092E+03  0.00000000000E+00 0.  1.
         21    1    1    2  504  503 -0.23687803541E+02 -0.13701135169E+02 -0.23616711581E+02  0.36146676299E+02  0.00000000000E+00 0.  1.
<mgrwt>
<rscale>  4 0.53293281E+03</rscale>
<asrwt>0</asrwt>
<pdfrwt beam="1">  1       21 0.14135846E-01 0.53293281E+03</pdfrwt>
<pdfrwt beam="2">  1       21 0.11888756E+00 0.53293281E+03</pdfrwt>
<totfact> 0.20819296E+04</totfact>
</mgrwt>
</event>
<event>
 5    0  0.2629946E-001  0.5749654E+03  0.7546771E-02  0.9958751E-01
         21   -1    0    0  504  501  0.00000000000E+00  0.00000000000E+00  0.78660778171E+02  0.78660778171E+02  0.00000000000E+00 0.  1.
         21   -1    0    0  501  502 -0.00000000000E+00 -0.00000000000E+00 -0.10506673378E+04  0.10506673378E+04  0.00000000000E+00 0.  1.
         25    1    1    2    0    0 -0.15186309512E+03  0.20910324317E+03 -0.66725372744E+03  0.72638770828E+03  0.12500000000E+03 0.  0.
         21    1    1    2  503  502  0.15247695601E+03 -0.18841032982E+03 -0.28712134531E+03  0.37574770981E+03  0.00000000000E+00 0.  1.
         21    1    1    2  504  503 -0.61386088450E+00 -0.20692913351E+02 -0.17631486885E+02  0.27192697879E+02  0.00000000000E+00 0.  1.
<mgrwt>
<rscale>  4 0.57496543E+03</rscale>
<asrwt>0</asrwt>
<pdfrwt beam="1">  1       21 0.12101658E-01 0.57496543E+03</pdfrwt>
<pdfrwt beam="2">  1       21 0.16164113E+00 0.57496543E+03</pdfrwt>
<totfact> 0.12076916E+04</totfact>
</mgrwt>
</event>
<event>
 5    0  0.2629946E-001  0.4719095E+03  0.7546771E-02  0.1021383E+00
         21   -1    0    0  504  501  0.00000000000E+00  0.00000000000E+00  0.39930672181E+02  0.39930672181E+02  0.00000000000E+00 0.  1.
         21   -1    0    0  501  502 -0.00000000000E+00 -0.00000000000E+00 -0.13942829255E+04  0.13942829255E+04  0.00000000000E+00 0.  1.
         25    1    1    2    0    0  0.72433705842E+02 -0.20027855061E+03 -0.58080908315E+03  0.63112782433E+03  0.12500000000E+03 0.  0.
         21    1    1    2  503  502 -0.55003927164E+02  0.17420404565E+03 -0.61908939044E+03  0.64547978658E+03  0.00000000000E+00 0.  1.
         21    1    1    2  504  503 -0.17429778679E+02  0.26074504960E+02 -0.15445377974E+03  0.15760598678E+03  0.00000000000E+00 0.  1.
<mgrwt>
<rscale>  4 0.47190954E+03</rscale>
<asrwt>0</asrwt>
<pdfrwt beam="1">  1       21 0.61431810E-02 0.47190954E+03</pdfrwt>
<pdfrwt beam="2">  1       21 0.21450504E+00 0.47190954E+03</pdfrwt>
<totfact> 0.17916513E+04</totfact>
</mgrwt>
</event>
<event>
 5    0  0.2629946E-001  0.4679113E+03  0.7546771E-02  0.1022511E+00
         21   -1    0    0  504  501  0.00000000000E+00  0.00000000000E+00  0.60197783817E+03  0.60197783817E+03  0.00000000000E+00 0. -1.
         21   -1    0    0  501  502 -0.00000000000E+00 -0.00000000000E+00 -0.90925673835E+02  0.90925673835E+02  0.00000000000E+00 0. -1.
         25    1    1    2    0    0 -0.54271252706E+02 -0.20504880986E+03  0.23776951083E+03  0.34227141799E+03  0.12500000000E+03 0.  0.
         21    1    1    2  503  502  0.40786368452E+02  0.18318113039E+03  0.20628223448E+03  0.27887490859E+03  0.00000000000E+00 0. -1.
         21    1    1    2  504  503  0.13484884254E+02  0.21867679470E+02  0.67000419031E+02  0.71757185418E+02  0.00000000000E+00 0. -1.
<mgrwt>
<rscale>  4 0.46791128E+03</rscale>
<asrwt>0</asrwt>
<pdfrwt beam="1">  1       21 0.92611972E-01 0.46791128E+03</pdfrwt>
<pdfrwt beam="2">  1       21 0.13988566E-01 0.46791128E+03</pdfrwt>
<totfact> 0.39847632E+04</totfact>
</mgrwt>
</event>
<event>
 5    0  0.2629946E-001  0.5596296E+03  0.7546771E-02  0.9992893E-01
         21   -1    0    0  502  501  0.00000000000E+00  0.00000000000E+00  0.64286037298E+03  0.64286037298E+03  0.00000000000E+00 0.  1.
         21   -1    0    0  504  502 -0.00000000000E+00 -0.00000000000E+00 -0.12179366100E+03  0.12179366100E+03  0.00000000000E+00 0.  1.
         25    1    1    2    0    0  0.19409239720E+03 -0.12429616228E+03  0.32464076307E+03  0.41729847790E+03  0.12500000000E+03 0.  0.
         21    1    1    2  503  501 -0.21421755790E+02  0.62671874079E+02  0.14106844390E+03  0.15584274538E+03  0.00000000000E+00 0.  1.
         21    1    1    2  504  503 -0.17267064141E+03  0.61624288196E+02  0.55357505002E+02  0.19151281070E+03  0.00000000000E+00 0.  1.
<mgrwt>
<rscale>  4 0.55962959E+03</rscale>
<asrwt>0</asrwt>
<pdfrwt beam="1">  1       21 0.98901594E-01 0.55962959E+03</pdfrwt>
<pdfrwt beam="2">  1       21 0.18737487E-01 0.55962959E+03</pdfrwt>
<totfact> 0.19285818E+04</totfact>
</mgrwt>
</event>
<event>
 5    0  0.2629946E-001  0.6039978E+03  0.7546771E-02  0.9897147E-01
         21   -1    0    0  502  501  0.00000000000E+00  0.00000000000E+00  0.11794206966E+04  0.11794206966E+04  0.00000000000E+00 0. -1.
         21   -1    0    0  504  502 -0.00000000000E+00 -0.00000000000E+00 -0.77328913511E+02  0.77328913511E+02  0.00000000000E+00 0. -1.
         25    1    1    2    0    0  0.75730018577E+02 -0.27438032141E+03  0.49534680624E+03  0.58481882232E+03  0.12500000000E+03 0.  0.
         21    1    1    2  503  501 -0.75251395441E+02  0.21342624296E+03  0.50378489955E+03  0.55227960193E+03  0.00000000000E+00 0. -1.
         21    1    1    2  504  503 -0.47862313598E+00  0.60954078448E+02  0.10296007731E+03  0.11965118587E+03  0.00000000000E+00 0.  1.
<mgrwt>
<rscale>  4 0.60399775E+03</rscale>
<asrwt>0</asrwt>
<pdfrwt beam="1">  1       21 0.18144933E+00 0.60399775E+03</pdfrwt>
<pdfrwt beam="2">  1       21 0.11896757E-01 0.60399775E+03</pdfrwt>
<totfact> 0.88581102E+03</totfact>
</mgrwt>
</event>
<event>
 5    0  0.2629946E-001  0.5901107E+03  0.7546771E-02  0.9926138E-01
         21   -1    0    0  502  501  0.00000000000E+00  0.00000000000E+00  0.18358507293E+03  0.18358507293E+03  0.00000000000E+00 0.  1.
         21   -1    0    0  504  502 -0.00000000000E+00 -0.00000000000E+00 -0.47420882853E+03  0.47420882853E+03  0.00000000000E+00 0.  1.
         25    1    1    2    0    0 -0.97331493055E+01 -0.20858674239E+03 -0.33080512442E+03  0.41068259476E+03  0.12500000000E+03 0.  0.
         21    1    1    2  503  501 -0.30364419734E+02  0.16671649068E+03  0.68266706545E+02  0.18269299240E+03  0.00000000000E+00 0.  1.
         21    1    1    2  504  503  0.40097569039E+02  0.41870251715E+02 -0.28085337727E+02  0.64418314296E+02  0.00000000000E+00 0.  1.
<mgrwt>
<rscale>  4 0.59011071E+03</rscale>
<asrwt>0</asrwt>
<pdfrwt beam="1">  1       21 0.28243858E-01 0.59011071E+03</pdfrwt>
<pdfrwt beam="2">  1       21 0.72955203E-01 0.59011071E+03</pdfrwt>
<totfact> 0.17697825E+04</totfact>
</mgrwt>
</event>
<event>
 5    0  0.2629946E-001  0.5557369E+03  0.7546771E-02  0.1000175E+00
         21   -1    0    0  502  501  0.00000000000E+00  0.00000000000E+00  0.42013849143E+03  0.42013849143E+03  0.00000000000E+00 0.  1.
         21   -1    0    0  504  502 -0.00000000000E+00 -0.00000000000E+00 -0.18377481558E+03  0.18377481558E+03  0.00000000000E+00 0.  1.
         25    1    1    2    0    0 -0.22771123051E+03 -0.96586858546E+02  0.17458732847E+03  0.32754718897E+03  0.12500000000E+03 0.  0.
         21    1    1    2  503  501  0.66065021891E+02  0.23894473258E+02  0.69683050733E+02  0.98950798528E+02  0.00000000000E+00 0.  1.
         21    1    1    2  504  503  0.16164620861E+03  0.72692385288E+02 -0.79067033535E+01  0.17741531951E+03  0.00000000000E+00 0.  1.
<mgrwt>
<rscale>  4 0.55573689E+03</rscale>
<asrwt>0</asrwt>
<pdfrwt beam="1">  1       21 0.64636691E-01 0.55573689E+03</pdfrwt>
<pdfrwt beam="2">  1       21 0.28273049E-01 0.55573689E+03</pdfrwt>
<totfact> 0.23373014E+04</totfact>
</mgrwt>
</event>
<event>
 5    0  0.2629946E-001  0.7426264E+03  0.7546771E-02  0.9646990E-01
         21   -1    0    0  502  501  0.00000000000E+00  0.00000000000E+00  0.76842022731E+02  0.76842022731E+02  0.00000000000E+00 0. -1.
         21   -1    0    0  504  502 -0.00000000000E+00 -0.00000000000E+00 -0.17942462186E+04  0.17942462186E+04  0.00000000000E+00 0. -1.
         25    1    1    2    0    0 -0.16595046733E+03 -0.30694530674E+03 -0.10447255521E+04  0.11085267061E+04  0.12500000000E+03 0.  0.
         21    1    1    2  503  501  0.17208248655E+03  0.27647820050E+03 -0.63568260206E+03  0.71424431961E+03  0.00000000000E+00 0. -1.
         21    1    1    2  504  503 -0.61320192200E+01  0.30467106246E+02 -0.36996041686E+02  0.48317215598E+02  0.00000000000E+00 0. -1.
<mgrwt>
<rscale>  4 0.74262644E+03</rscale>
<asrwt>0</asrwt>
<pdfrwt beam="1">  1       21 0.11821850E-01 0.74262644E+03</pdfrwt>
<pdfrwt beam="2">  1       21 0.27603786E+00 0.74262644E+03</pdfrwt>
<totfact> 0.21021342E+03</totfact>
</mgrwt>
</event>
<event>
 5    0  0.2629946E-001  0.6779641E+03  0.7546771E-02  0.9755677E-01
         21   -1    0    0  502  501  0.00000000000E+00  0.00000000000E+00  0.24837102302E+03  0.24837102302E+03  0.00000000000E+00 0. -1.
         21   -1    0    0  504  502 -0.00000000000E+00 -0.00000000000E+00 -0.46264988433E+03  0.46264988433E+03  0.00000000000E+00 0. -1.
         25    1    1    2    0    0  0.14594608582E+02 -0.27516348360E+03  0.55088038649E+02  0.30755103204E+03  0.12500000000E+03 0.  0.
         21    1    1    2  503  501  0.69992536072E+01  0.57424353717E+02 -0.18671626594E+01  0.57879463087E+02  0.00000000000E+00 0. -1.
         21    1    1    2  504  503 -0.21593862189E+02  0.21773912989E+03 -0.26749973730E+03  0.34559041223E+03  0.00000000000E+00 0. -1.
<mgrwt>
<rscale>  4 0.67796408E+03</rscale>
<asrwt>0</asrwt>
<pdfrwt beam="1">  1       21 0.38210927E-01 0.67796408E+03</pdfrwt>
<pdfrwt beam="2">  1       21 0.71176905E-01 0.67796408E+03</pdfrwt>
<totfact> 0.99858556E+03</totfact>
</mgrwt>
</event>
<event>
 5    0  0.2629946E-001  0.5516197E+03  0.7546771E-02  0.1001120E+00
         21   -1    0    0  502  501  0.00000000000E+00  0.00000000000E+00  0.11062745184E+03  0.11062745184E+03  0.00000000000E+00 0. -1.
         21   -1    0    0  504  502 -0.00000000000E+00 -0.00000000000E+00 -0.68763280342E+03  0.68763280342E+03  0.00000000000E+00 0. -1.
         25    1    1    2    0    0  0.79738086812E+02 -0.23428514037E+03 -0.29735816778E+03  0.40656434845E+03  0.12500000000E+03 0.  0.
         21    1    1    2  503  501 -0.12377401899E+01  0.17165800012E+03 -0.15203105488E+03  0.22930643832E+03  0.00000000000E+00 0. -1.
         21    1    1    2  504  503 -0.78500346622E+02  0.62627140253E+02 -0.12761612892E+03  0.16238946849E+03  0.00000000000E+00 0. -1.
<mgrwt>
<rscale>  4 0.55161967E+03</rscale>
<asrwt>0</asrwt>
<pdfrwt beam="1">  1       21 0.17019608E-01 0.55161967E+03</pdfrwt>
<pdfrwt beam="2">  1       21 0.10578966E+00 0.55161967E+03</pdfrwt>
<totfact> 0.19634364E+04</totfact>
</mgrwt>
</event>
<event>
 5    0  0.2629946E-001  0.5769725E+03  0.7546771E-02  0.9954367E-01
         21   -1    0    0  504  501  0.00000000000E+00  0.00000000000E+00  0.63308681045E+03  0.63308681045E+03  0.00000000000E+00 0. -1.
         21   -1    0    0  501  502 -0.00000000000E+00 -0.00000000000E+00 -0.13145798918E+03  0.13145798918E+03  0.00000000000E+00 0. -1.
         25    1    1    2    0    0  0.48728696018E+02  0.20602609840E+03  0.91540369296E+02  0.26234686628E+03  0.12500000000E+03 0.  0.
         21    1    1    2  503  502 -0.50078145226E+02 -0.44885460626E+02  0.64231389972E+01  0.67555768957E+02  0.00000000000E+00 0. -1.
         21    1    1    2  504  503  0.13494492080E+01 -0.16114063778E+03  0.40366531298E+03  0.43464216438E+03  0.00000000000E+00 0. -1.
<mgrwt>
<rscale>  4 0.57697251E+03</rscale>
<asrwt>0</asrwt>
<pdfrwt beam="1">  1       21 0.97397969E-01 0.57697251E+03</pdfrwt>
<pdfrwt beam="2">  1       21 0.20224306E-01 0.57697251E+03</pdfrwt>
<totfact> 0.17239262E+04</totfact>
</mgrwt>
</event>
<event>
 5    0  0.2629946E-001  0.5264910E+03  0.7546771E-02  0.1007087E+00
         21   -1    0    0  504  501  0.00000000000E+00  0.00000000000E+00  0.15271740117E+03  0.15271740117E+03  0.00000000000E+00 0. -1.
         21   -1    0    0  501  502 -0.00000000000E+00 -0.00000000000E+00 -0.45376753746E+03  0.45376753746E+03  0.00000000000E+00 0. -1.
         25    1    1    2    0    0 -0.28050791202E+01 -0.21940860643E+03 -0.52764635959E+02  0.25798665054E+03  0.12500000000E+03 0.  0.
         21    1    1    2  503  502 -0.20100473797E+02 -0.26477670681E+01 -0.12585539748E+02  0.23862848280E+02  0.00000000000E+00 0. -1.
         21    1    1    2  504  503  0.22905552917E+02  0.22205637350E+03 -0.23569996058E+03  0.32463543982E+03  0.00000000000E+00 0. -1.
<mgrwt>
<rscale>  4 0.52649102E+03</rscale>
<asrwt>0</asrwt>
<pdfrwt beam="1">  1       21 0.23494985E-01 0.52649102E+03</pdfrwt>
<pdfrwt beam="2">  1       21 0.69810390E-01 0.52649102E+03</pdfrwt>
<totfact> 0.28434452E+04</totfact>
</mgrwt>
</event>
<event>
 5    0  0.2629946E-001  0.5846531E+03  0.7546771E-02  0.9937768E-01
         21   -1    0    0  504  501  0.00000000000E+00  0.00000000000E+00  0.69442089002E+02  0.69442089002E+02  0.00000000000E+00 0. -1.
         21   -1    0    0  501  502 -0.00000000000E+00 -0.00000000000E+00 -0.12305911697E+04  0.12305911697E+04  0.00000000000E+00 0. -1.
         25    1    1    2    0    0 -0.13547319456E+03  0.22743764926E+03 -0.50173936158E+03  0.58090296754E+03  0.12500000000E+03 0.  0.
         21    1    1    2  503  502  0.81372325340E+02 -0.91456511634E+02 -0.42940361386E+03  0.44651227581E+03  0.00000000000E+00 0. -1.
         21    1    1    2  504  503  0.54100869222E+02 -0.13598113762E+03 -0.23000610529E+03  0.27261801538E+03  0.00000000000E+00 0. -1.
<mgrwt>
<rscale>  4 0.58465313E+03</rscale>
<asrwt>0</asrwt>
<pdfrwt beam="1">  1       21 0.10683399E-01 0.58465313E+03</pdfrwt>
<pdfrwt beam="2">  1       21 0.18932170E+00 0.58465313E+03</pdfrwt>
<totfact> 0.95407125E+03</totfact>
</mgrwt>
</event>
<event>
 5    0  0.2629946E-001  0.5865031E+03  0.7546771E-02  0.9933810E-01
         21   -1    0    0  504  501  0.00000000000E+00  0.00000000000E+00  0.24658013619E+03  0.24658013619E+03  0.00000000000E+00 0. -1.
         21   -1    0    0  501  502 -0.00000000000E+00 -0.00000000000E+00 -0.34875668678E+03  0.34875668678E+03  0.00000000000E+00 0. -1.
         25    1    1    2    0    0  0.92636596050E+01  0.26714277284E+03 -0.18363381631E+02  0.29565738661E+03  0.12500000000E+03 0.  0.
         21    1    1    2  503  502 -0.56179803831E+02 -0.14207828349E+03 -0.30153402857E+02  0.15572937007E+03  0.00000000000E+00 0. -1.
         21    1    1    2  504  503  0.46916144226E+02 -0.12506448935E+03 -0.53659766101E+02  0.14395006628E+03  0.00000000000E+00 0. -1.
<mgrwt>
<rscale>  4 0.58650310E+03</rscale>
<asrwt>0</asrwt>
<pdfrwt beam="1">  1       21 0.37935406E-01 0.58650310E+03</pdfrwt>
<pdfrwt beam="2">  1       21 0.53654875E-01 0.58650310E+03</pdfrwt>
<totfact> 0.19319374E+04</totfact>
</mgrwt>
</event>
<event>
 5    0  0.2629946E-001  0.4783441E+03  0.7546771E-02  0.1019591E+00
         21   -1    0    0  502  501  0.00000000000E+00  0.00000000000E+00  0.99257760829E+02  0.99257760829E+02  0.00000000000E+00 0.  1.
         21   -1    0    0  504  502 -0.00000000000E+00 -0.00000000000E+00 -0.57631020949E+03  0.57631020949E+03  0.00000000000E+00 0.  1.
         25    1    1    2    0    0 -0.13676944909E+03 -0.16239635940E+03 -0.28002007560E+03  0.37298083394E+03  0.12500000000E+03 0.  0.
         21    1    1    2  503  501  0.24608987777E+02 -0.72222969532E+01 -0.15290029749E+02  0.29858815490E+02  0.00000000000E+00 0.  1.
         21    1    1    2  504  503  0.11216046131E+03  0.16961865635E+03 -0.18174234331E+03  0.27272832089E+03  0.00000000000E+00 0.  1.
<mgrwt>
<rscale>  4 0.47834406E+03</rscale>
<asrwt>0</asrwt>
<pdfrwt beam="1">  1       21 0.15270425E-01 0.47834406E+03</pdfrwt>
<pdfrwt beam="2">  1       21 0.88663108E-01 0.47834406E+03</pdfrwt>
<totfact> 0.37476710E+04</totfact>
</mgrwt>
</event>
<event>
 5    0  0.2629946E-001  0.6278607E+03  0.7546771E-02  0.9849232E-01
         21   -1    0    0  502  501  0.00000000000E+00  0.00000000000E+00  0.29475601392E+03  0.29475601392E+03  0.00000000000E+00 0. -1.
         21   -1    0    0  504  502 -0.00000000000E+00 -0.00000000000E+00 -0.33435196871E+03  0.33435196871E+03  0.00000000000E+00 0. -1.
         25    1    1    2    0    0  0.26977592805E+03 -0.26502073440E+02 -0.37277104583E+02  0.30082552049E+03  0.12500000000E+03 0.  0.
         21    1    1    2  503  501 -0.18858884667E+03  0.99697446750E+02  0.27223058682E+02  0.21504982888E+03  0.00000000000E+00 0. -1.
         21    1    1    2  504  503 -0.81187081375E+02 -0.73195373310E+02 -0.29541908889E+02  0.11323263327E+03  0.00000000000E+00 0. -1.
<mgrwt>
<rscale>  4 0.62786066E+03</rscale>
<asrwt>0</asrwt>
<pdfrwt beam="1">  1       21 0.45347079E-01 0.62786066E+03</pdfrwt>
<pdfrwt beam="2">  1       21 0.51438764E-01 0.62786066E+03</pdfrwt>
<totfact> 0.14470757E+04</totfact>
</mgrwt>
</event>
<event>
 5    0  0.2629946E-001  0.5852668E+03  0.7546771E-02  0.9936453E-01
         21   -1    0    0  502  501  0.00000000000E+00  0.00000000000E+00  0.56006684358E+03  0.56006684358E+03  0.00000000000E+00 0.  1.
         21   -1    0    0  504  502 -0.00000000000E+00 -0.00000000000E+00 -0.15290017035E+03  0.15290017035E+03  0.00000000000E+00 0.  1.
         25    1    1    2    0    0 -0.13101049825E+03 -0.16649941305E+03  0.39501690504E+03  0.46534842910E+03  0.12500000000E+03 0.  0.
         21    1    1    2  503  501 -0.14611163219E+02  0.66753751496E+02  0.19168476878E+02  0.70971684039E+02  0.00000000000E+00 0.  1.
         21    1    1    2  504  503  0.14562166147E+03  0.99745661549E+02 -0.70187086943E+01  0.17664690079E+03  0.00000000000E+00 0.  1.
<mgrwt>
<rscale>  4 0.58526683E+03</rscale>
<asrwt>0</asrwt>
<pdfrwt beam="1">  1       21 0.86164129E-01 0.58526683E+03</pdfrwt>
<pdfrwt beam="2">  1       21 0.23523103E-01 0.58526683E+03</pdfrwt>
<totfact> 0.17239610E+04</totfact>
</mgrwt>
</event>
<event>
 5    0  0.2629946E-001  0.6995417E+03  0.7546771E-02  0.9718016E-01
         21   -1    0    0  504  501  0.00000000000E+00  0.00000000000E+00  0.51176555337E+03  0.51176555337E+03  0.00000000000E+00 0.  1.
         21   -1    0    0  501  502 -0.00000000000E+00 -0.00000000000E+00 -0.23905409114E+03  0.23905409114E+03  0.00000000000E+00 0.  1.
         25    1    1    2    0    0 -0.17950561333E+03  0.16689828560E+03  0.80177708269E+02  0.28658466089E+03  0.12500000000E+03 0.  0.
         21    1    1    2  503  502  0.14280704710E+03  0.77605199329E+02  0.22298599095E+02  0.16405379357E+03  0.00000000000E+00 0.  1.
         21    1    1    2  504  503  0.36698566232E+02 -0.24450348493E+03  0.17023515487E+03  0.30018119005E+03  0.00000000000E+00 0.  1.
<mgrwt>
<rscale>  4 0.69954170E+03</rscale>
<asrwt>0</asrwt>
<pdfrwt beam="1">  1       21 0.78733162E-01 0.69954170E+03</pdfrwt>
<pdfrwt beam="2">  1       21 0.36777553E-01 0.69954170E+03</pdfrwt>
<totfact> 0.85286707E+03</totfact>
</mgrwt>
</event>
<event>
 5    0  0.2629946E-001  0.5557892E+03  0.7546771E-02  0.1000163E+00
         21   -1    0    0  504  501  0.00000000000E+00  0.00000000000E+00  0.29674127385E+03  0.29674127385E+03  0.00000000000E+00 0.  1.
         21   -1    0    0  501  502 -0.00000000000E+00 -0.00000000000E+00 -0.26024492540E+03  0.26024492540E+03  0.00000000000E+00 0.  1.
         25    1    1    2    0    0  0.15112147059E+02 -0.22225385196E+03  0.12150058867E+03  0.28286488779E+03  0.12500000000E+03 0.  0.
         21    1    1    2  503  502 -0.97474255208E+01  0.36945382951E+02 -0.80012773842E+02  0.88668019058E+02  0.00000000000E+00 0. -1.
         21    1    1    2  504  503 -0.53647215378E+01  0.18530846901E+03 -0.49914663822E+01  0.18545329239E+03  0.00000000000E+00 0.  1.
<mgrwt>
<rscale>  4 0.55578921E+03</rscale>
<asrwt>0</asrwt>
<pdfrwt beam="1">  1       21 0.45652503E-01 0.55578921E+03</pdfrwt>
<pdfrwt beam="2">  1       21 0.40037681E-01 0.55578921E+03</pdfrwt>
<totfact> 0.24553588E+04</totfact>
</mgrwt>
</event>
<event>
 5    0  0.2629946E-001  0.4715322E+03  0.7546771E-02  0.1021489E+00
         21   -1    0    0  502  501  0.00000000000E+00  0.00000000000E+00  0.39107006855E+03  0.39107006855E+03  0.00000000000E+00 0. -1.
         21   -1    0    0  504  502 -0.00000000000E+00 -0.00000000000E+00 -0.14213735556E+03  0.14213735556E+03  0.00000000000E+00 0. -1.
         25    1    1    2    0    0 -0.19331422013E+03  0.57276507725E+02  0.22183736457E+03  0.32478885813E+03  0.12500000000E+03 0.  0.
         21    1    1    2  503  501  0.54366726272E+02 -0.12496532249E+02  0.28029608345E+02  0.62430466823E+02  0.00000000000E+00 0. -1.
         21    1    1    2  504  503  0.13894749386E+03 -0.44779975475E+02 -0.93425992368E+00  0.14598809916E+03  0.00000000000E+00 0. -1.
<mgrwt>
<rscale>  4 0.47153225E+03</rscale>
<asrwt>0</asrwt>
<pdfrwt beam="1">  1       21 0.60164625E-01 0.47153225E+03</pdfrwt>
<pdfrwt beam="2">  1       21 0.21867286E-01 0.47153225E+03</pdfrwt>
<totfact> 0.46008862E+04</totfact>
</mgrwt>
</event>
<event>
 5    0  0.2629946E-001  0.5652866E+03  0.7546771E-02  0.9980163E-01
         21   -1    0    0  504  501  0.00000000000E+00  0.00000000000E+00  0.15354443668E+03  0.15354443668E+03  0.00000000000E+00 0.  1.
         21   -1    0    0  501  502 -0.00000000000E+00 -0.00000000000E+00 -0.52028747496E+03  0.52028747496E+03  0.00000000000E+00 0.  1.
         25    1    1    2    0    0 -0.24672939486E+03  0.73197641330E+02 -0.11853663579E+03  0.30969214232E+03  0.12500000000E+03 0.  0.
         21    1    1    2  503  502  0.22722080647E+03 -0.44284714254E+02 -0.21290522929E+03  0.31451401792E+03  0.00000000000E+00 0.  1.
         21    1    1    2  504  503  0.19508588399E+02 -0.28912927075E+02 -0.35301173192E+02  0.49625751401E+02  0.00000000000E+00 0. -1.
<mgrwt>
<rscale>  4 0.56528664E+03</rscale>
<asrwt>0</asrwt>
<pdfrwt beam="1">  1       21 0.23622221E-01 0.56528664E+03</pdfrwt>
<pdfrwt beam="2">  1       21 0.80044227E-01 0.56528664E+03</pdfrwt>
<totfact> 0.20404388E+04</totfact>
</mgrwt>
</event>
<event>
 5    0  0.2629946E-001  0.6606013E+03  0.7546771E-02  0.9787087E-01
         21   -1    0    0  504  501  0.00000000000E+00  0.00000000000E+00  0.46619104838E+03  0.46619104838E+03  0.00000000000E+00 0.  1.
         21   -1    0    0  501  502 -0.00000000000E+00 -0.00000000000E+00 -0.23402107270E+03  0.23402107270E+03  0.00000000000E+00 0.  1.
         25    1    1    2    0    0 -0.21937725944E+03 -0.15677236306E+03  0.11915751232E+03  0.32019910762E+03  0.12500000000E+03 0.  0.
         21    1    1    2  503  502  0.23254704145E+03  0.77187287172E+02  0.48350761475E+01  0.24507015679E+03  0.00000000000E+00 0.  1.
         21    1    1    2  504  503 -0.13169782007E+02  0.79585075886E+02  0.10817738721E+03  0.13494285667E+03  0.00000000000E+00 0.  1.
<mgrwt>
<rscale>  4 0.66060133E+03</rscale>
<asrwt>0</asrwt>
<pdfrwt beam="1">  1       21 0.71721699E-01 0.66060133E+03</pdfrwt>
<pdfrwt beam="2">  1       21 0.36003242E-01 0.66060133E+03</pdfrwt>
<totfact> 0.11127533E+04</totfact>
</mgrwt>
</event>
<event>
 5    0  0.2629946E-001  0.5248861E+03  0.7546771E-02  0.1007480E+00
         21   -1    0    0  504  501  0.00000000000E+00  0.00000000000E+00  0.13146342487E+04  0.13146342487E+04  0.00000000000E+00 0. -1.
         21   -1    0    0  501  502 -0.00000000000E+00 -0.00000000000E+00 -0.52392027202E+02  0.52392027202E+02  0.00000000000E+00 0. -1.
         25    1    1    2    0    0 -0.12508355924E+03  0.16391890730E+03  0.34839830730E+03  0.42369999468E+03  0.12500000000E+03 0.  0.
         21    1    1    2  503  502  0.96259586209E+02 -0.14934584473E+03  0.54857435669E+03  0.57663152368E+03  0.00000000000E+00 0. -1.
         21    1    1    2  504  503  0.28823973031E+02 -0.14573062568E+02  0.36526955750E+03  0.36669475755E+03  0.00000000000E+00 0. -1.
<mgrwt>
<rscale>  4 0.52488610E+03</rscale>
<asrwt>0</asrwt>
<pdfrwt beam="1">  1       21 0.20225140E+00 0.52488610E+03</pdfrwt>
<pdfrwt beam="2">  1       21 0.80603129E-02 0.52488610E+03</pdfrwt>
<totfact> 0.13146483E+04</totfact>
</mgrwt>
</event>
<event>
 5    0  0.2629946E-001  0.6245216E+03  0.7546771E-02  0.9855798E-01
         21   -1    0    0  502  501  0.00000000000E+00  0.00000000000E+00  0.36935119284E+04  0.36935119284E+04  0.00000000000E+00 0. -1.
         21   -1    0    0  504  502 -0.00000000000E+00 -0.00000000000E+00 -0.26399482253E+02  0.26399482253E+02  0.00000000000E+00 0. -1.
         25    1    1    2    0    0  0.21578924365E+03  0.67552343187E+02  0.30110861300E+04  0.30221503932E+04  0.12500000000E+03 0.  0.
         21    1    1    2  503  501 -0.15907288398E+03 -0.55612499875E+02  0.37958661750E+03  0.41531064608E+03  0.00000000000E+00 0. -1.
         21    1    1    2  504  503 -0.56716359670E+02 -0.11939843312E+02  0.27643969867E+03  0.28245037142E+03  0.00000000000E+00 0. -1.
<mgrwt>
<rscale>  4 0.62452159E+03</rscale>
<asrwt>0</asrwt>
<pdfrwt beam="1">  1       21 0.56823219E+00 0.62452159E+03</pdfrwt>
<pdfrwt beam="2">  1       21 0.40614617E-02 0.62452159E+03</pdfrwt>
<totfact> 0.15970975E+02</totfact>
</mgrwt>
</event>
<event>
 5    0  0.2629946E-001  0.8294386E+03  0.7546771E-02  0.9518357E-01
         21   -1    0    0  504  501  0.00000000000E+00  0.00000000000E+00  0.19549101940E+03  0.19549101940E+03  0.00000000000E+00 0.  1.
         21   -1    0    0  501  502 -0.00000000000E+00 -0.00000000000E+00 -0.87979533317E+03  0.87979533317E+03  0.00000000000E+00 0.  1.
         25    1    1    2    0    0  0.18542846457E+03 -0.31441961772E+03 -0.56854845918E+03  0.68710680532E+03  0.12500000000E+03 0.  0.
         21    1    1    2  503  502 -0.11055664336E+02  0.20259186874E+02 -0.25738112720E+02  0.34570403716E+02  0.00000000000E+00 0.  1.
         21    1    1    2  504  503 -0.17437280023E+03  0.29416043085E+03 -0.90017741863E+02  0.35360914353E+03  0.00000000000E+00 0.  1.
<mgrwt>
<rscale>  4 0.82943857E+03</rscale>
<asrwt>0</asrwt>
<pdfrwt beam="1">  1       21 0.30075541E-01 0.82943857E+03</pdfrwt>
<pdfrwt beam="2">  1       21 0.13535313E+00 0.82943857E+03</pdfrwt>
<totfact> 0.32579045E+03</totfact>
</mgrwt>
</event>
<event>
 5    0  0.2629946E-001  0.8303134E+03  0.7546771E-02  0.9517147E-01
         21   -1    0    0  504  501  0.00000000000E+00  0.00000000000E+00  0.74942107954E+03  0.74942107954E+03  0.00000000000E+00 0. -1.
         21   -1    0    0  501  502 -0.00000000000E+00 -0.00000000000E+00 -0.22998429690E+03  0.22998429690E+03  0.00000000000E+00 0. -1.
         25    1    1    2    0    0 -0.28982044150E+03 -0.20312811723E+03  0.43833372993E+02  0.37789321893E+03  0.12500000000E+03 0.  0.
         21    1    1    2  503  502  0.22701298644E+03  0.18651457871E+03  0.32861650651E+03  0.44080765923E+03  0.00000000000E+00 0. -1.
         21    1    1    2  504  503  0.62807455067E+02  0.16613538519E+02  0.14698690313E+03  0.16070449828E+03  0.00000000000E+00 0.  1.
<mgrwt>
<rscale>  4 0.83031339E+03</rscale>
<asrwt>0</asrwt>
<pdfrwt beam="1">  1       21 0.11529555E+00 0.83031339E+03</pdfrwt>
<pdfrwt beam="2">  1       21 0.35382200E-01 0.83031339E+03</pdfrwt>
<totfact> 0.35603300E+03</totfact>
</mgrwt>
</event>
<event>
 5    0  0.2629946E-001  0.5653538E+03  0.7546771E-02  0.9980013E-01
         21   -1    0    0  504  501  0.00000000000E+00  0.00000000000E+00  0.42170490379E+03  0.42170490379E+03  0.00000000000E+00 0.  1.
         21   -1    0    0  501  502 -0.00000000000E+00 -0.00000000000E+00 -0.18948375654E+03  0.18948375654E+03  0.00000000000E+00 0.  1.
         25    1    1    2    0    0  0.68390554133E+02  0.20918861883E+03  0.27999353814E+03  0.37743678615E+03  0.12500000000E+03 0.  0.
         21    1    1    2  503  502 -0.22539878200E+02 -0.14178334951E+02 -0.15586863627E+02  0.30854847415E+02  0.00000000000E+00 0. -1.
         21    1    1    2  504  503 -0.45850675933E+02 -0.19501028388E+03 -0.32185527263E+02  0.20289702676E+03  0.00000000000E+00 0.  1.
<mgrwt>
<rscale>  4 0.56535380E+03</rscale>
<asrwt>0</asrwt>
<pdfrwt beam="1">  1       21 0.64877677E-01 0.56535380E+03</pdfrwt>
<pdfrwt beam="2">  1       21 0.29151347E-01 0.56535380E+03</pdfrwt>
<totfact> 0.21770666E+04</totfact>
</mgrwt>
</event>
<event>
 5    0  0.2629946E-001  0.5393395E+03  0.7546771E-02  0.1003992E+00
         21   -1    0    0  504  501  0.00000000000E+00  0.00000000000E+00  0.10185550933E+04  0.10185550933E+04  0.00000000000E+00 0.  1.
         21   -1    0    0  501  502 -0.00000000000E+00 -0.00000000000E+00 -0.71396982998E+02  0.71396982998E+02  0.00000000000E+00 0.  1.
         25    1    1    2    0    0  0.84739499607E+02 -0.18657963604E+03  0.19616352666E+03  0.30999656864E+03  0.12500000000E+03 0.  0.
         21    1    1    2  503  502 -0.48860207478E+02  0.56353928154E+02  0.23356242517E+03  0.24518256778E+03  0.00000000000E+00 0.  1.
         21    1    1    2  504  503 -0.35879292130E+02  0.13022570789E+03  0.51743215850E+03  0.53477293990E+03  0.00000000000E+00 0.  1.
<mgrwt>
<rscale>  4 0.53933945E+03</rscale>
<asrwt>0</asrwt>
<pdfrwt beam="1">  1       21 0.15670077E+00 0.53933945E+03</pdfrwt>
<pdfrwt beam="2">  1       21 0.10984152E-01 0.53933945E+03</pdfrwt>
<totfact> 0.15863305E+04</totfact>
</mgrwt>
</event>
<event>
 5    0  0.2629946E-001  0.4642730E+03  0.7546771E-02  0.1023549E+00
         21   -1    0    0  504  501  0.00000000000E+00  0.00000000000E+00  0.65212343602E+02  0.65212343602E+02  0.00000000000E+00 0. -1.
         21   -1    0    0  501  502 -0.00000000000E+00 -0.00000000000E+00 -0.82633675237E+03  0.82633675237E+03  0.00000000000E+00 0. -1.
         25    1    1    2    0    0 -0.14846262895E+03  0.15028227444E+03 -0.39877722507E+03  0.46826722013E+03  0.12500000000E+03 0.  0.
         21    1    1    2  503  502  0.11326090831E+03 -0.14372401287E+03 -0.30248827243E+03  0.35353045156E+03  0.00000000000E+00 0. -1.
         21    1    1    2  504  503  0.35201720644E+02 -0.65582615756E+01 -0.59858911262E+02  0.69751424277E+02  0.00000000000E+00 0. -1.
<mgrwt>
<rscale>  4 0.46427301E+03</rscale>
<asrwt>0</asrwt>
<pdfrwt beam="1">  1       21 0.10032669E-01 0.46427301E+03</pdfrwt>
<pdfrwt beam="2">  1       21 0.12712873E+00 0.46427301E+03</pdfrwt>
<totfact> 0.33314682E+04</totfact>
</mgrwt>
</event>
<event>
 5    0  0.2629946E-001  0.5002845E+03  0.7546771E-02  0.1013705E+00
         21   -1    0    0  504  501  0.00000000000E+00  0.00000000000E+00  0.80910795391E+03  0.80910795391E+03  0.00000000000E+00 0.  1.
         21   -1    0    0  501  502 -0.00000000000E+00 -0.00000000000E+00 -0.77333496351E+02  0.77333496351E+02  0.00000000000E+00 0.  1.
         25    1    1    2    0    0  0.86560653921E+02  0.20985153949E+03  0.33712468190E+03  0.42521578825E+03  0.12500000000E+03 0.  0.
         21    1    1    2  503  502 -0.98914673006E+02 -0.18539775348E+03  0.33293830569E+03  0.39370592443E+03  0.00000000000E+00 0.  1.
         21    1    1    2  504  503  0.12354019085E+02 -0.24453786011E+02  0.61711469971E+02  0.67519737587E+02  0.00000000000E+00 0.  1.
<mgrwt>
<rscale>  4 0.50028451E+03</rscale>
<asrwt>0</asrwt>
<pdfrwt beam="1">  1       21 0.12447814E+00 0.50028451E+03</pdfrwt>
<pdfrwt beam="2">  1       21 0.11897462E-01 0.50028451E+03</pdfrwt>
<totfact> 0.25598166E+04</totfact>
</mgrwt>
</event>
<event>
 5    0  0.2629946E-001  0.4766061E+03  0.7546771E-02  0.1020072E+00
         21   -1    0    0  502  501  0.00000000000E+00  0.00000000000E+00  0.13435688296E+04  0.13435688296E+04  0.00000000000E+00 0.  1.
         21   -1    0    0  504  502 -0.00000000000E+00 -0.00000000000E+00 -0.42266799736E+02  0.42266799736E+02  0.00000000000E+00 0.  1.
         25    1    1    2    0    0  0.10657100172E+03  0.19068163106E+03  0.62623964307E+03  0.67492070155E+03  0.12500000000E+03 0.  0.
         21    1    1    2  503  501 -0.48117785693E+02 -0.53982871553E+02  0.26673362891E+03  0.27636262503E+03  0.00000000000E+00 0.  1.
         21    1    1    2  504  503 -0.58453216030E+02 -0.13669875950E+03  0.40832875786E+03  0.43455230273E+03  0.00000000000E+00 0.  1.
<mgrwt>
<rscale>  4 0.47660615E+03</rscale>
<asrwt>0</asrwt>
<pdfrwt beam="1">  1       21 0.20670286E+00 0.47660615E+03</pdfrwt>
<pdfrwt beam="2">  1       21 0.65025856E-02 0.47660615E+03</pdfrwt>
<totfact> 0.18210210E+04</totfact>
</mgrwt>
</event>
<event>
 5    0  0.2629946E-001  0.6558302E+03  0.7546771E-02  0.9795900E-01
         21   -1    0    0  504  501  0.00000000000E+00  0.00000000000E+00  0.11067186824E+04  0.11067186824E+04  0.00000000000E+00 0.  1.
         21   -1    0    0  501  502 -0.00000000000E+00 -0.00000000000E+00 -0.97159569627E+02  0.97159569627E+02  0.00000000000E+00 0.  1.
         25    1    1    2    0    0  0.16819458852E+03  0.24938150016E+03  0.42940370893E+03  0.53897411577E+03  0.12500000000E+03 0.  0.
         21    1    1    2  503  502 -0.97592637558E+02 -0.21999512988E+03  0.37118598657E+03  0.44238130239E+03  0.00000000000E+00 0.  1.
         21    1    1    2  504  503 -0.70601950957E+02 -0.29386370272E+02  0.20896941725E+03  0.22252283385E+03  0.00000000000E+00 0.  1.
<mgrwt>
<rscale>  4 0.65583019E+03</rscale>
<asrwt>0</asrwt>
<pdfrwt beam="1">  1       21 0.17026440E+00 0.65583019E+03</pdfrwt>
<pdfrwt beam="2">  1       21 0.14947627E-01 0.65583019E+03</pdfrwt>
<totfact> 0.69087293E+03</totfact>
</mgrwt>
</event>
<event>
 5    0  0.2629946E-001  0.5074978E+03  0.7546771E-02  0.1011840E+00
         21   -1    0    0  504  501  0.00000000000E+00  0.00000000000E+00  0.49809688326E+03  0.49809688326E+03  0.00000000000E+00 0.  1.
         21   -1    0    0  501  502 -0.00000000000E+00 -0.00000000000E+00 -0.12926905943E+03  0.12926905943E+03  0.00000000000E+00 0.  1.
         25    1    1    2    0    0  0.21526058556E+03  0.60986860599E+00  0.14883126515E+03  0.29002282172E+03  0.12500000000E+03 0.  0.
         21    1    1    2  503  502 -0.41582793756E+02  0.56288075687E+02  0.38955252595E+02  0.80093619633E+02  0.00000000000E+00 0.  1.
         21    1    1    2  504  503 -0.17367779180E+03 -0.56897944293E+02  0.18104130608E+03  0.25724950134E+03  0.00000000000E+00 0.  1.
<mgrwt>
<rscale>  4 0.50749784E+03</rscale>
<asrwt>0</asrwt>
<pdfrwt beam="1">  1       21 0.76630289E-01 0.50749784E+03</pdfrwt>
<pdfrwt beam="2">  1       21 0.19887548E-01 0.50749784E+03</pdfrwt>
<totfact> 0.31812964E+04</totfact>
</mgrwt>
</event>
<event>
 5    0  0.2629946E-001  0.5432537E+03  0.7546771E-02  0.1003068E+00
         21   -1    0    0  502  501  0.00000000000E+00  0.00000000000E+00  0.75246772424E+02  0.75246772424E+02  0.00000000000E+00 0. -1.
         21   -1    0    0  504  502 -0.00000000000E+00 -0.00000000000E+00 -0.98052223662E+03  0.98052223662E+03  0.00000000000E+00 0. -1.
         25    1    1    2    0    0  0.13543575891E+03 -0.19175074918E+03 -0.48536891291E+03  0.55346108826E+03  0.12500000000E+03 0.  0.
         21    1    1    2  503  501 -0.83830303752E+02  0.19954521421E+03 -0.28657345422E+03  0.35912415264E+03  0.00000000000E+00 0. -1.
         21    1    1    2  504  503 -0.51605455155E+02 -0.77944650293E+01 -0.13333309706E+03  0.14318376814E+03  0.00000000000E+00 0.  1.
<mgrwt>
<rscale>  4 0.54325366E+03</rscale>
<asrwt>0</asrwt>
<pdfrwt beam="1">  1       21 0.11576426E-01 0.54325366E+03</pdfrwt>
<pdfrwt beam="2">  1       21 0.15084958E+00 0.54325366E+03</pdfrwt>
<totfact> 0.15995632E+04</totfact>
</mgrwt>
</event>
<event>
 5    0  0.2629946E-001  0.8757336E+03  0.7546771E-02  0.9456435E-01
         21   -1    0    0  504  501  0.00000000000E+00  0.00000000000E+00  0.79573170844E+03  0.79573170844E+03  0.00000000000E+00 0. -1.
         21   -1    0    0  501  502 -0.00000000000E+00 -0.00000000000E+00 -0.24094467736E+03  0.24094467736E+03  0.00000000000E+00 0. -1.
         25    1    1    2    0    0  0.27442647897E+03  0.40084193990E+02 -0.86793828994E+02  0.31634601897E+03  0.12500000000E+03 0.  0.
         21    1    1    2  503  502 -0.54695780475E+02 -0.30672472265E+02  0.28286402449E+02  0.68793528185E+02  0.00000000000E+00 0. -1.
         21    1    1    2  504  503 -0.21973069849E+03 -0.94117217255E+01  0.61329445762E+03  0.65153683865E+03  0.00000000000E+00 0. -1.
<mgrwt>
<rscale>  4 0.87573357E+03</rscale>
<asrwt>0</asrwt>
<pdfrwt beam="1">  1       21 0.12242026E+00 0.87573357E+03</pdfrwt>
<pdfrwt beam="2">  1       21 0.37068412E-01 0.87573357E+03</pdfrwt>
<totfact> 0.27489847E+03</totfact>
</mgrwt>
</event>
<event>
 5    0  0.2629946E-001  0.7431131E+03  0.7546771E-02  0.9646217E-01
         21   -1    0    0  504  501  0.00000000000E+00  0.00000000000E+00  0.31388356722E+04  0.31388356722E+04  0.00000000000E+00 0.  1.
         21   -1    0    0  501  502 -0.00000000000E+00 -0.00000000000E+00 -0.43982633440E+02  0.43982633440E+02  0.00000000000E+00 0.  1.
         25    1    1    2    0    0 -0.23590601512E+02  0.35043809505E+03  0.12888932920E+04  0.13417280996E+04  0.12500000000E+03 0.  0.
         21    1    1    2  503  502  0.93661688365E+01 -0.11912272824E+03  0.79340126475E+03  0.80234874986E+03  0.00000000000E+00 0.  1.
         21    1    1    2  504  503  0.14224432676E+02 -0.23131536681E+03  0.10125584820E+04  0.10387414562E+04  0.00000000000E+00 0.  1.
<mgrwt>
<rscale>  4 0.74311307E+03</rscale>
<asrwt>0</asrwt>
<pdfrwt beam="1">  1       21 0.48289762E+00 0.74311307E+03</pdfrwt>
<pdfrwt beam="2">  1       21 0.67665615E-02 0.74311307E+03</pdfrwt>
<totfact> 0.26441692E+02</totfact>
</mgrwt>
</event>
<event>
 5    0  0.2629946E-001  0.5225295E+03  0.7546771E-02  0.1008060E+00
         21   -1    0    0  504  501  0.00000000000E+00  0.00000000000E+00  0.85747467582E+03  0.85747467582E+03  0.00000000000E+00 0. -1.
         21   -1    0    0  501  502 -0.00000000000E+00 -0.00000000000E+00 -0.79605006997E+02  0.79605006997E+02  0.00000000000E+00 0. -1.
         25    1    1    2    0    0  0.52150168151E+02 -0.23731990676E+03  0.44145131676E+03  0.51917689014E+03  0.12500000000E+03 0.  0.
         21    1    1    2  503  502 -0.37708052795E+02  0.20876339775E+03  0.26359371969E+03  0.33835735923E+03  0.00000000000E+00 0. -1.
         21    1    1    2  504  503 -0.14442115356E+02  0.28556509001E+02  0.72824632370E+02  0.79545433446E+02  0.00000000000E+00 0. -1.
<mgrwt>
<rscale>  4 0.52252953E+03</rscale>
<asrwt>0</asrwt>
<pdfrwt beam="1">  1       21 0.13191917E+00 0.52252953E+03</pdfrwt>
<pdfrwt beam="2">  1       21 0.12246925E-01 0.52252953E+03</pdfrwt>
<totfact> 0.20771712E+04</totfact>
</mgrwt>
</event>
<event>
 5    0  0.2629946E-001  0.9607847E+03  0.7546771E-02  0.9352633E-01
         21   -1    0    0  502  501  0.00000000000E+00  0.00000000000E+00  0.41816032695E+03  0.41816032695E+03  0.00000000000E+00 0.  1.
         21   -1    0    0  504  502 -0.00000000000E+00 -0.00000000000E+00 -0.55188598691E+03  0.55188598691E+03  0.00000000000E+00 0.  1.
         25    1    1    2    0    0 -0.20010973232E+03 -0.37742908742E+03 -0.48554910284E+02  0.44774903720E+03  0.12500000000E+03 0.  0.
         21    1    1    2  503  501  0.26347225818E+03  0.21963480209E+03 -0.33835919307E+02  0.34467658254E+03  0.00000000000E+00 0.  1.
         21    1    1    2  504  503 -0.63362525858E+02  0.15779428534E+03 -0.51334830370E+02  0.17762069411E+03  0.00000000000E+00 0.  1.
<mgrwt>
<rscale>  4 0.96078473E+03</rscale>
<asrwt>0</asrwt>
<pdfrwt beam="1">  1       21 0.64332358E-01 0.96078473E+03</pdfrwt>
<pdfrwt beam="2">  1       21 0.84905537E-01 0.96078473E+03</pdfrwt>
<totfact> 0.20513443E+03</totfact>
</mgrwt>
</event>
<event>
 5    0  0.2629946E-001  0.6503390E+03  0.7546771E-02  0.9806143E-01
         21   -1    0    0  502  501  0.00000000000E+00  0.00000000000E+00  0.68847430181E+03  0.68847430181E+03  0.00000000000E+00 0. -1.
         21   -1    0    0  504  502 -0.00000000000E+00 -0.00000000000E+00 -0.15357901470E+03  0.15357901470E+03  0.00000000000E+00 0. -1.
         25    1    1    2    0    0  0.17877706979E+03 -0.16318300973E+03  0.18686619130E+03  0.33035421716E+03  0.12500000000E+03 0.  0.
         21    1    1    2  503  501 -0.21861507143E+03  0.10020409991E+03  0.11408833913E+03  0.26617580698E+03  0.00000000000E+00 0. -1.
         21    1    1    2  504  503  0.39838001642E+02  0.62978909822E+02  0.23394075669E+03  0.24552329237E+03  0.00000000000E+00 0. -1.
<mgrwt>
<rscale>  4 0.65033900E+03</rscale>
<asrwt>0</asrwt>
<pdfrwt beam="1">  1       21 0.10591912E+00 0.65033900E+03</pdfrwt>
<pdfrwt beam="2">  1       21 0.23627541E-01 0.65033900E+03</pdfrwt>
<totfact> 0.10227851E+04</totfact>
</mgrwt>
</event>
<event>
 5    0  0.2629946E-001  0.4819882E+03  0.7546771E-02  0.1018590E+00
         21   -1    0    0  504  501  0.00000000000E+00  0.00000000000E+00  0.16856500293E+03  0.16856500293E+03  0.00000000000E+00 0. -1.
         21   -1    0    0  501  502 -0.00000000000E+00 -0.00000000000E+00 -0.34454457254E+03  0.34454457254E+03  0.00000000000E+00 0. -1.
         25    1    1    2    0    0  0.11135140755E+03  0.17841084261E+03 -0.15617103140E+03  0.29024809349E+03  0.12500000000E+03 0.  0.
         21    1    1    2  503  502 -0.30486724575E+02 -0.14935720492E+02 -0.22022278397E+02  0.40465996438E+02  0.00000000000E+00 0. -1.
         21    1    1    2  504  503 -0.80864682975E+02 -0.16347512212E+03  0.22137401903E+01  0.18239548555E+03  0.00000000000E+00 0. -1.
<mgrwt>
<rscale>  4 0.48198820E+03</rscale>
<asrwt>0</asrwt>
<pdfrwt beam="1">  1       21 0.25933077E-01 0.48198820E+03</pdfrwt>
<pdfrwt beam="2">  1       21 0.53006857E-01 0.48198820E+03</pdfrwt>
<totfact> 0.43428636E+04</totfact>
</mgrwt>
</event>
<event>
 5    0  0.2629946E-001  0.5445084E+03  0.7546771E-02  0.1002773E+00
         21   -1    0    0  504  501  0.00000000000E+00  0.00000000000E+00  0.72753574582E+03  0.72753574582E+03  0.00000000000E+00 0. -1.
         21   -1    0    0  501  502 -0.00000000000E+00 -0.00000000000E+00 -0.10188137141E+03  0.10188137141E+03  0.00000000000E+00 0. -1.
         25    1    1    2    0    0 -0.87920513718E+02  0.22987803733E+03  0.36106055537E+03  0.45449274298E+03  0.12500000000E+03 0.  0.
         21    1    1    2  503  502  0.27980867749E+02 -0.15475260292E+03  0.10656874348E+03  0.18996892946E+03  0.00000000000E+00 0. -1.
         21    1    1    2  504  503  0.59939645969E+02 -0.75125434413E+02  0.15802507555E+03  0.18495544479E+03  0.00000000000E+00 0. -1.
<mgrwt>
<rscale>  4 0.54450836E+03</rscale>
<asrwt>0</asrwt>
<pdfrwt beam="1">  1       21 0.11192857E+00 0.54450836E+03</pdfrwt>
<pdfrwt beam="2">  1       21 0.15674058E-01 0.54450836E+03</pdfrwt>
<totfact> 0.19942833E+04</totfact>
</mgrwt>
</event>
<event>
 5    0  0.2629946E-001  0.4481942E+03  0.7546771E-02  0.1028262E+00
         21   -1    0    0  504  501  0.00000000000E+00  0.00000000000E+00  0.95151379430E+02  0.95151379430E+02  0.00000000000E+00 0.  1.
         21   -1    0    0  501  502 -0.00000000000E+00 -0.00000000000E+00 -0.52778550009E+03  0.52778550009E+03  0.00000000000E+00 0.  1.
         25    1    1    2    0    0  0.11394965784E+03 -0.16989331663E+03 -0.25780877249E+03  0.35204918226E+03  0.12500000000E+03 0.  0.
         21    1    1    2  503  502 -0.10738669424E+03  0.14088302903E+03 -0.15138555561E+03  0.23301827485E+03  0.00000000000E+00 0.  1.
         21    1    1    2  504  503 -0.65629635990E+01  0.29010287605E+02 -0.23439792564E+02  0.37869422408E+02  0.00000000000E+00 0. -1.
<mgrwt>
<rscale>  4 0.44819424E+03</rscale>
<asrwt>0</asrwt>
<pdfrwt beam="1">  1       21 0.14638674E-01 0.44819424E+03</pdfrwt>
<pdfrwt beam="2">  1       21 0.81197769E-01 0.44819424E+03</pdfrwt>
<totfact> 0.50136155E+04</totfact>
</mgrwt>
</event>
<event>
 5    0  0.2629946E-001  0.5328671E+03  0.7546771E-02  0.1005539E+00
         21   -1    0    0  504  501  0.00000000000E+00  0.00000000000E+00  0.36859090377E+03  0.36859090377E+03  0.00000000000E+00 0. -1.
         21   -1    0    0  501  502 -0.00000000000E+00 -0.00000000000E+00 -0.19258973957E+03  0.19258973957E+03  0.00000000000E+00 0. -1.
         25    1    1    2    0    0  0.80393904489E+02  0.23172313455E+03  0.94735292876E+02  0.29113324558E+03  0.12500000000E+03 0.  0.
         21    1    1    2  503  502 -0.59807310521E+02 -0.22843967309E+03  0.69717491672E+02  0.24621561136E+03  0.00000000000E+00 0. -1.
         21    1    1    2  504  503 -0.20586593968E+02 -0.32834614631E+01  0.11548379661E+02  0.23831786403E+02  0.00000000000E+00 0.  1.
<mgrwt>
<rscale>  4 0.53286706E+03</rscale>
<asrwt>0</asrwt>
<pdfrwt beam="1">  1       21 0.56706293E-01 0.53286706E+03</pdfrwt>
<pdfrwt beam="2">  1       21 0.29629191E-01 0.53286706E+03</pdfrwt>
<totfact> 0.28552148E+04</totfact>
</mgrwt>
</event>
<event>
 5    0  0.2629946E-001  0.4905384E+03  0.7546771E-02  0.1016278E+00
         21   -1    0    0  504  501  0.00000000000E+00  0.00000000000E+00  0.38190582112E+02  0.38190582112E+02  0.00000000000E+00 0.  1.
         21   -1    0    0  501  502 -0.00000000000E+00 -0.00000000000E+00 -0.15751781833E+04  0.15751781833E+04  0.00000000000E+00 0.  1.
         25    1    1    2    0    0 -0.19569663840E+03  0.67148657157E+02 -0.61471752604E+03  0.66053671605E+03  0.12500000000E+03 0.  0.
         21    1    1    2  503  502  0.13121115761E+03  0.16021154230E+02 -0.57309974734E+03  0.58814655118E+03  0.00000000000E+00 0.  1.
         21    1    1    2  504  503  0.64485480783E+02 -0.83169811387E+02 -0.34917032783E+03  0.36468549820E+03  0.00000000000E+00 0.  1.
<mgrwt>
<rscale>  4 0.49053836E+03</rscale>
<asrwt>0</asrwt>
<pdfrwt beam="1">  1       21 0.58754746E-02 0.49053836E+03</pdfrwt>
<pdfrwt beam="2">  1       21 0.24233509E+00 0.49053836E+03</pdfrwt>
<totfact> 0.12823658E+04</totfact>
</mgrwt>
</event>
<event>
 5    0  0.2629946E-001  0.4571279E+03  0.7546771E-02  0.1025618E+00
         21   -1    0    0  504  501  0.00000000000E+00  0.00000000000E+00  0.86219957908E+02  0.86219957908E+02  0.00000000000E+00 0. -1.
         21   -1    0    0  501  502 -0.00000000000E+00 -0.00000000000E+00 -0.60590923941E+03  0.60590923941E+03  0.00000000000E+00 0. -1.
         25    1    1    2    0    0  0.16247955460E+03 -0.13268465098E+03 -0.27568357383E+03  0.36828148901E+03  0.12500000000E+03 0.  0.
         21    1    1    2  503  502 -0.37179445502E+02  0.32428413748E+02 -0.82819241510E+02  0.96399896008E+02  0.00000000000E+00 0.  1.
         21    1    1    2  504  503 -0.12530010910E+03  0.10025623723E+03 -0.16118646617E+03  0.22744781230E+03  0.00000000000E+00 0. -1.
<mgrwt>
<rscale>  4 0.45712786E+03</rscale>
<asrwt>0</asrwt>
<pdfrwt beam="1">  1       21 0.13264609E-01 0.45712786E+03</pdfrwt>
<pdfrwt beam="2">  1       21 0.93216805E-01 0.45712786E+03</pdfrwt>
<totfact> 0.43374506E+04</totfact>
</mgrwt>
</event>
<event>
 5    0  0.2629946E-001  0.5555975E+03  0.7546771E-02  0.1000207E+00
         21   -1    0    0  502  501  0.00000000000E+00  0.00000000000E+00  0.41006556541E+03  0.41006556541E+03  0.00000000000E+00 0.  1.
         21   -1    0    0  504  502 -0.00000000000E+00 -0.00000000000E+00 -0.18819462540E+03  0.18819462540E+03  0.00000000000E+00 0.  1.
         25    1    1    2    0    0  0.23364669893E+03  0.11093985291E+03  0.12815976359E+03  0.31456057586E+03  0.12500000000E+03 0.  0.
         21    1    1    2  503  501 -0.22587924952E+03 -0.86642479567E+02  0.88886903322E+02  0.25773869754E+03  0.00000000000E+00 0.  1.
         21    1    1    2  504  503 -0.77674494158E+01 -0.24297373338E+02  0.48242730950E+01  0.25960917404E+02  0.00000000000E+00 0. -1.
<mgrwt>
<rscale>  4 0.55559746E+03</rscale>
<asrwt>0</asrwt>
<pdfrwt beam="1">  1       21 0.63087010E-01 0.55559746E+03</pdfrwt>
<pdfrwt beam="2">  1       21 0.28953019E-01 0.55559746E+03</pdfrwt>
<totfact> 0.23534196E+04</totfact>
</mgrwt>
</event>
<event>
 5    0  0.2629946E-001  0.5645358E+03  0.7546771E-02  0.9981844E-01
         21   -1    0    0  504  501  0.00000000000E+00  0.00000000000E+00  0.17274911749E+03  0.17274911749E+03  0.00000000000E+00 0.  1.
         21   -1    0    0  501  502 -0.00000000000E+00 -0.00000000000E+00 -0.46121892634E+03  0.46121892634E+03  0.00000000000E+00 0.  1.
         25    1    1    2    0    0  0.24386251234E+03 -0.67707042947E+02 -0.18849238176E+03  0.33942237193E+03  0.12500000000E+03 0.  0.
         21    1    1    2  503  502 -0.14681498878E+02 -0.25617371312E+02 -0.85089950576E+01  0.30727823208E+02  0.00000000000E+00 0. -1.
         21    1    1    2  504  503 -0.22918101346E+03  0.93324414259E+02 -0.91468432028E+02  0.26381784869E+03  0.00000000000E+00 0.  1.
<mgrwt>
<rscale>  4 0.56453578E+03</rscale>
<asrwt>0</asrwt>
<pdfrwt beam="1">  1       21 0.26576787E-01 0.56453578E+03</pdfrwt>
<pdfrwt beam="2">  1       21 0.70956758E-01 0.56453578E+03</pdfrwt>
<totfact> 0.21372570E+04</totfact>
</mgrwt>
</event>
<event>
 5    0  0.2629946E-001  0.5089149E+03  0.7546771E-02  0.1011478E+00
         21   -1    0    0  502  501  0.00000000000E+00  0.00000000000E+00  0.19543204114E+03  0.19543204114E+03  0.00000000000E+00 0. -1.
         21   -1    0    0  504  502 -0.00000000000E+00 -0.00000000000E+00 -0.33131001348E+03  0.33131001348E+03  0.00000000000E+00 0. -1.
         25    1    1    2    0    0 -0.19522477571E+03 -0.68480658389E+02 -0.15502903599E+03  0.28716078357E+03  0.12500000000E+03 0.  0.
         21    1    1    2  503  501  0.43381708518E+02  0.23363788022E+02  0.58377814332E+02  0.76392463181E+02  0.00000000000E+00 0. -1.
         21    1    1    2  504  503  0.15184306719E+03  0.45116870367E+02 -0.39226750684E+02  0.16318880787E+03  0.00000000000E+00 0. -1.
<mgrwt>
<rscale>  4 0.50891489E+03</rscale>
<asrwt>0</asrwt>
<pdfrwt beam="1">  1       21 0.30066468E-01 0.50891489E+03</pdfrwt>
<pdfrwt beam="2">  1       21 0.50970770E-01 0.50891489E+03</pdfrwt>
<totfact> 0.35077082E+04</totfact>
</mgrwt>
</event>
<event>
 5    0  0.2629946E-001  0.4702814E+03  0.7546771E-02  0.1021841E+00
         21   -1    0    0  504  501  0.00000000000E+00  0.00000000000E+00  0.76226056416E+02  0.76226056416E+02  0.00000000000E+00 0. -1.
         21   -1    0    0  501  502 -0.00000000000E+00 -0.00000000000E+00 -0.72535756091E+03  0.72535756091E+03  0.00000000000E+00 0. -1.
         25    1    1    2    0    0  0.19625368251E+03  0.41321347677E+02 -0.22424998645E+03  0.32578523308E+03  0.12500000000E+03 0.  0.
         21    1    1    2  503  502 -0.16475017494E+03 -0.40261952591E+02 -0.40354341528E+03  0.43773386091E+03  0.00000000000E+00 0. -1.
         21    1    1    2  504  503 -0.31503507567E+02 -0.10593950858E+01 -0.21338102760E+02  0.38064523331E+02  0.00000000000E+00 0. -1.
<mgrwt>
<rscale>  4 0.47028139E+03</rscale>
<asrwt>0</asrwt>
<pdfrwt beam="1">  1       21 0.11727086E-01 0.47028139E+03</pdfrwt>
<pdfrwt beam="2">  1       21 0.11159347E+00 0.47028139E+03</pdfrwt>
<totfact> 0.34902550E+04</totfact>
</mgrwt>
</event>
<event>
 5    0  0.2629946E-001  0.6918881E+03  0.7546771E-02  0.9731206E-01
         21   -1    0    0  502  501  0.00000000000E+00  0.00000000000E+00  0.12707900179E+03  0.12707900179E+03  0.00000000000E+00 0. -1.
         21   -1    0    0  504  502 -0.00000000000E+00 -0.00000000000E+00 -0.94175498342E+03  0.94175498342E+03  0.00000000000E+00 0. -1.
         25    1    1    2    0    0 -0.21294176003E+02  0.26507142741E+03 -0.44536227024E+03  0.53356241933E+03  0.12500000000E+03 0.  0.
         21    1    1    2  503  501 -0.65311993456E+02 -0.26819526225E+03 -0.18700916819E+03  0.33341683246E+03  0.00000000000E+00 0. -1.
         21    1    1    2  504  503  0.86606169459E+02  0.31238348340E+01 -0.18230454321E+03  0.20185473343E+03  0.00000000000E+00 0.  1.
<mgrwt>
<rscale>  4 0.69188809E+03</rscale>
<asrwt>0</asrwt>
<pdfrwt beam="1">  1       21 0.19550616E-01 0.69188809E+03</pdfrwt>
<pdfrwt beam="2">  1       21 0.14488538E+00 0.69188809E+03</pdfrwt>
<totfact> 0.64852904E+03</totfact>
</mgrwt>
</event>
<event>
 5    0  0.2629946E-001  0.4668431E+03  0.7546771E-02  0.1022815E+00
         21   -1    0    0  502  501  0.00000000000E+00  0.00000000000E+00  0.32865127679E+02  0.32865127679E+02  0.00000000000E+00 0.  1.
         21   -1    0    0  504  502 -0.00000000000E+00 -0.00000000000E+00 -0.16578549197E+04  0.16578549197E+04  0.00000000000E+00 0.  1.
         25    1    1    2    0    0 -0.16582170412E+03  0.11935450546E+03 -0.81487381338E+03  0.84934484590E+03  0.12500000000E+03 0.  0.
         21    1    1    2  503  501 -0.70220074824E+01 -0.32021259316E+02 -0.94750076825E+02  0.10026089315E+03  0.00000000000E+00 0.  1.
         21    1    1    2  504  503  0.17284371160E+03 -0.87333246142E+02 -0.71536590185E+03  0.74111430835E+03  0.00000000000E+00 0.  1.
<mgrwt>
<rscale>  4 0.46684307E+03</rscale>
<asrwt>0</asrwt>
<pdfrwt beam="1">  1       21 0.50561739E-02 0.46684307E+03</pdfrwt>
<pdfrwt beam="2">  1       21 0.25505458E+00 0.46684307E+03</pdfrwt>
<totfact> 0.14010812E+04</totfact>
</mgrwt>
</event>
<event>
 5    0  0.2629946E-001  0.5662049E+03  0.7546771E-02  0.9978112E-01
         21   -1    0    0  502  501  0.00000000000E+00  0.00000000000E+00  0.33782721029E+03  0.33782721029E+03  0.00000000000E+00 0.  1.
         21   -1    0    0  504  502 -0.00000000000E+00 -0.00000000000E+00 -0.23724257494E+03  0.23724257494E+03  0.00000000000E+00 0.  1.
         25    1    1    2    0    0  0.26184899761E+03 -0.44023519977E+02  0.83721299922E+02  0.30518391819E+03  0.12500000000E+03 0.  0.
         21    1    1    2  503  501 -0.16960835471E+02  0.14300545668E+02 -0.30701146345E+01  0.22396453963E+02  0.00000000000E+00 0.  1.
         21    1    1    2  504  503 -0.24488816214E+03  0.29722974309E+02  0.19933450055E+02  0.24748941308E+03  0.00000000000E+00 0.  1.
<mgrwt>
<rscale>  4 0.56620490E+03</rscale>
<asrwt>0</asrwt>
<pdfrwt beam="1">  1       21 0.51973417E-01 0.56620490E+03</pdfrwt>
<pdfrwt beam="2">  1       21 0.36498858E-01 0.56620490E+03</pdfrwt>
<totfact> 0.22487570E+04</totfact>
</mgrwt>
</event>
<event>
 5    0  0.2629946E-001  0.5405565E+03  0.7546771E-02  0.1003704E+00
         21   -1    0    0  504  501  0.00000000000E+00  0.00000000000E+00  0.27690680775E+03  0.27690680775E+03  0.00000000000E+00 0. -1.
         21   -1    0    0  501  502 -0.00000000000E+00 -0.00000000000E+00 -0.26380840758E+03  0.26380840758E+03  0.00000000000E+00 0. -1.
         25    1    1    2    0    0  0.15814926033E+03  0.13016941949E+03  0.48287566881E+02  0.24476918807E+03  0.12500000000E+03 0.  0.
         21    1    1    2  503  502 -0.63818923318E+02 -0.14271753285E+03 -0.95580245966E+02  0.18323954970E+03  0.00000000000E+00 0. -1.
         21    1    1    2  504  503 -0.94330337013E+02  0.12548113361E+02  0.60391079258E+02  0.11270647756E+03  0.00000000000E+00 0. -1.
<mgrwt>
<rscale>  4 0.54055654E+03</rscale>
<asrwt>0</asrwt>
<pdfrwt beam="1">  1       21 0.42601047E-01 0.54055654E+03</pdfrwt>
<pdfrwt beam="2">  1       21 0.40585909E-01 0.54055654E+03</pdfrwt>
<totfact> 0.27684162E+04</totfact>
</mgrwt>
</event>
<event>
 5    0  0.2629946E-001  0.7239674E+03  0.7546771E-02  0.9677100E-01
         21   -1    0    0  504  501  0.00000000000E+00  0.00000000000E+00  0.42308808694E+03  0.42308808694E+03  0.00000000000E+00 0.  1.
         21   -1    0    0  501  502 -0.00000000000E+00 -0.00000000000E+00 -0.30970429030E+03  0.30970429030E+03  0.00000000000E+00 0.  1.
         25    1    1    2    0    0 -0.26118783065E+03 -0.12091113689E+03  0.25690238828E+03  0.40553966885E+03  0.12500000000E+03 0.  0.
         21    1    1    2  503  502  0.31337645526E+02  0.35335247999E+02 -0.11064189554E+02  0.48508185585E+02  0.00000000000E+00 0. -1.
         21    1    1    2  504  503  0.22985018513E+03  0.85575888891E+02 -0.13245440209E+03  0.27874452281E+03  0.00000000000E+00 0.  1.
<mgrwt>
<rscale>  4 0.72396739E+03</rscale>
<asrwt>0</asrwt>
<pdfrwt beam="1">  1       21 0.65090475E-01 0.72396739E+03</pdfrwt>
<pdfrwt beam="2">  1       21 0.47646814E-01 0.72396739E+03</pdfrwt>
<totfact> 0.76266150E+03</totfact>
</mgrwt>
</event>
<event>
 5    0  0.2629946E-001  0.4538478E+03  0.7546771E-02  0.1026581E+00
         21   -1    0    0  504  501  0.00000000000E+00  0.00000000000E+00  0.30507216447E+02  0.30507216447E+02  0.00000000000E+00 0. -1.
         21   -1    0    0  501  502 -0.00000000000E+00 -0.00000000000E+00 -0.16879434346E+04  0.16879434346E+04  0.00000000000E+00 0. -1.
         25    1    1    2    0    0  0.13842744735E+03  0.15456814330E+03 -0.91940233700E+03  0.95077816886E+03  0.12500000000E+03 0.  0.
         21    1    1    2  503  502 -0.28730762996E+02 -0.55826064812E+02 -0.25343068088E+03  0.26109216048E+03  0.00000000000E+00 0.  1.
         21    1    1    2  504  503 -0.10969668435E+03 -0.98742078485E+02 -0.48460320027E+03  0.50658032170E+03  0.00000000000E+00 0. -1.
<mgrwt>
<rscale>  4 0.45384780E+03</rscale>
<asrwt>0</asrwt>
<pdfrwt beam="1">  1       21 0.46934166E-02 0.45384780E+03</pdfrwt>
<pdfrwt beam="2">  1       21 0.25968368E+00 0.45384780E+03</pdfrwt>
<totfact> 0.14999026E+04</totfact>
</mgrwt>
</event>
<event>
 5    0  0.2629946E-001  0.6080260E+03  0.7546771E-02  0.9888893E-01
         21   -1    0    0  502  501  0.00000000000E+00  0.00000000000E+00  0.28808124510E+03  0.28808124510E+03  0.00000000000E+00 0.  1.
         21   -1    0    0  504  502 -0.00000000000E+00 -0.00000000000E+00 -0.32082586609E+03  0.32082586609E+03  0.00000000000E+00 0.  1.
         25    1    1    2    0    0 -0.26590281999E+02  0.25563371778E+03 -0.26408785352E+01  0.28581045293E+03  0.12500000000E+03 0.  0.
         21    1    1    2  503  501 -0.38627271579E+02 -0.22615985171E+03  0.27699312622E+02  0.23110083633E+03  0.00000000000E+00 0.  1.
         21    1    1    2  504  503  0.65217553578E+02 -0.29473866076E+02 -0.57803055077E+02  0.91995821929E+02  0.00000000000E+00 0.  1.
<mgrwt>
<rscale>  4 0.60802604E+03</rscale>
<asrwt>0</asrwt>
<pdfrwt beam="1">  1       21 0.44320191E-01 0.60802604E+03</pdfrwt>
<pdfrwt beam="2">  1       21 0.49357826E-01 0.60802604E+03</pdfrwt>
<totfact> 0.16656322E+04</totfact>
</mgrwt>
</event>
<event>
 5    0  0.2629946E-001  0.6982353E+03  0.7546771E-02  0.9720255E-01
         21   -1    0    0  504  501  0.00000000000E+00  0.00000000000E+00  0.74284828009E+02  0.74284828009E+02  0.00000000000E+00 0. -1.
         21   -1    0    0  501  502 -0.00000000000E+00 -0.00000000000E+00 -0.16407542760E+04  0.16407542760E+04  0.00000000000E+00 0. -1.
         25    1    1    2    0    0 -0.29272595292E+03  0.90503700781E+02 -0.51471475338E+03  0.61191149745E+03  0.12500000000E+03 0.  0.
         21    1    1    2  503  502  0.21312517984E+03 -0.34637088013E+01 -0.72765169948E+03  0.75822907839E+03  0.00000000000E+00 0. -1.
         21    1    1    2  504  503  0.79600773082E+02 -0.87039991980E+02 -0.32410299512E+03  0.34489852815E+03  0.00000000000E+00 0. -1.
<mgrwt>
<rscale>  4 0.69823534E+03</rscale>
<asrwt>0</asrwt>
<pdfrwt beam="1">  1       21 0.11428436E-01 0.69823534E+03</pdfrwt>
<pdfrwt beam="2">  1       21 0.25242371E+00 0.69823534E+03</pdfrwt>
<totfact> 0.31732308E+03</totfact>
</mgrwt>
</event>
<event>
 5    0  0.2629946E-001  0.7037285E+03  0.7546771E-02  0.9710877E-01
         21   -1    0    0  502  501  0.00000000000E+00  0.00000000000E+00  0.22019328567E+03  0.22019328567E+03  0.00000000000E+00 0.  1.
         21   -1    0    0  504  502 -0.00000000000E+00 -0.00000000000E+00 -0.56227175421E+03  0.56227175421E+03  0.00000000000E+00 0.  1.
         25    1    1    2    0    0 -0.32056531664E+03  0.76050728345E+02 -0.94901216437E+02  0.36493434532E+03  0.12500000000E+03 0.  0.
         21    1    1    2  503  501  0.29653191147E+03 -0.88189150179E+02 -0.23128242259E+03  0.38626423563E+03  0.00000000000E+00 0.  1.
         21    1    1    2  504  503  0.24033405171E+02  0.12138421834E+02 -0.15894829511E+02  0.31266458928E+02  0.00000000000E+00 0.  1.
<mgrwt>
<rscale>  4 0.70372854E+03</rscale>
<asrwt>0</asrwt>
<pdfrwt beam="1">  1       21 0.33875891E-01 0.70372854E+03</pdfrwt>
<pdfrwt beam="2">  1       21 0.86503346E-01 0.70372854E+03</pdfrwt>
<totfact> 0.80806255E+03</totfact>
</mgrwt>
</event>
<event>
 5    0  0.2629946E-001  0.4658749E+03  0.7546771E-02  0.1023091E+00
         21   -1    0    0  504  501  0.00000000000E+00  0.00000000000E+00  0.28226729876E+03  0.28226729876E+03  0.00000000000E+00 0.  1.
         21   -1    0    0  501  502 -0.00000000000E+00 -0.00000000000E+00 -0.19222864171E+03  0.19222864171E+03  0.00000000000E+00 0.  1.
         25    1    1    2    0    0  0.17722557002E+03  0.11568272651E+03  0.54774449471E+02  0.25182659946E+03  0.12500000000E+03 0.  0.
         21    1    1    2  503  502 -0.15543771976E+03 -0.93389216780E+02  0.84183810557E+01  0.18153043733E+03  0.00000000000E+00 0.  1.
         21    1    1    2  504  503 -0.21787850259E+02 -0.22293509727E+02  0.26845826525E+02  0.41138903688E+02  0.00000000000E+00 0.  1.
<mgrwt>
<rscale>  4 0.46587492E+03</rscale>
<asrwt>0</asrwt>
<pdfrwt beam="1">  1       21 0.43425738E-01 0.46587492E+03</pdfrwt>
<pdfrwt beam="2">  1       21 0.29573637E-01 0.46587492E+03</pdfrwt>
<totfact> 0.51298799E+04</totfact>
</mgrwt>
</event>
<event>
 5    0  0.2629946E-001  0.4926762E+03  0.7546771E-02  0.1015708E+00
         21   -1    0    0  504  501  0.00000000000E+00  0.00000000000E+00  0.83304186749E+03  0.83304186749E+03  0.00000000000E+00 0. -1.
         21   -1    0    0  501  502 -0.00000000000E+00 -0.00000000000E+00 -0.72844418076E+02  0.72844418076E+02  0.00000000000E+00 0. -1.
         25    1    1    2    0    0 -0.17784929371E+03  0.12488455606E+03  0.39236465947E+03  0.46561953311E+03  0.12500000000E+03 0.  0.
         21    1    1    2  503  502  0.58034259033E+02 -0.56580603667E+02  0.53796375073E+02  0.97279956331E+02  0.00000000000E+00 0. -1.
         21    1    1    2  504  503  0.11981503468E+03 -0.68303952395E+02  0.31403641487E+03  0.34298679612E+03  0.00000000000E+00 0. -1.
<mgrwt>
<rscale>  4 0.49267616E+03</rscale>
<asrwt>0</asrwt>
<pdfrwt beam="1">  1       21 0.12816028E+00 0.49267616E+03</pdfrwt>
<pdfrwt beam="2">  1       21 0.11206834E-01 0.49267616E+03</pdfrwt>
<totfact> 0.26518879E+04</totfact>
</mgrwt>
</event>
<event>
 5    0  0.2629946E-001  0.7081355E+03  0.7546771E-02  0.9703420E-01
         21   -1    0    0  502  501  0.00000000000E+00  0.00000000000E+00  0.11849235844E+04  0.11849235844E+04  0.00000000000E+00 0. -1.
         21   -1    0    0  504  502 -0.00000000000E+00 -0.00000000000E+00 -0.10579919691E+03  0.10579919691E+03  0.00000000000E+00 0. -1.
         25    1    1    2    0    0 -0.13767143914E+03  0.19219341413E+03  0.10754361324E+03  0.28824011230E+03  0.12500000000E+03 0.  0.
         21    1    1    2  503  501  0.10744721460E+03 -0.12892426996E+03  0.79434953759E+03  0.81188518842E+03  0.00000000000E+00 0. -1.
         21    1    1    2  504  503  0.30224224537E+02 -0.63269144173E+02  0.17723123664E+03  0.19059748056E+03  0.00000000000E+00 0.  1.
<mgrwt>
<rscale>  4 0.70813548E+03</rscale>
<asrwt>0</asrwt>
<pdfrwt beam="1">  1       21 0.18229593E+00 0.70813548E+03</pdfrwt>
<pdfrwt beam="2">  1       21 0.16276800E-01 0.70813548E+03</pdfrwt>
<totfact> 0.47589223E+03</totfact>
</mgrwt>
</event>
<event>
 5    0  0.2629946E-001  0.5706859E+03  0.7546771E-02  0.9968162E-01
         21   -1    0    0  504  501  0.00000000000E+00  0.00000000000E+00  0.48409684648E+03  0.48409684648E+03  0.00000000000E+00 0.  1.
         21   -1    0    0  501  502 -0.00000000000E+00 -0.00000000000E+00 -0.16819071588E+03  0.16819071588E+03  0.00000000000E+00 0.  1.
         25    1    1    2    0    0 -0.22809781620E+03  0.57091396518E+01  0.32829107785E+03  0.41888093754E+03  0.12500000000E+03 0.  0.
         21    1    1    2  503  502  0.14247390364E+03 -0.23588130171E+02 -0.19136868818E+02  0.14567577991E+03  0.00000000000E+00 0.  1.
         21    1    1    2  504  503  0.85623912562E+02  0.17878990520E+02  0.67519215569E+01  0.87730844913E+02  0.00000000000E+00 0.  1.
<mgrwt>
<rscale>  4 0.57068589E+03</rscale>
<asrwt>0</asrwt>
<pdfrwt beam="1">  1       21 0.74476437E-01 0.57068589E+03</pdfrwt>
<pdfrwt beam="2">  1       21 0.25875495E-01 0.57068589E+03</pdfrwt>
<totfact> 0.20146188E+04</totfact>
</mgrwt>
</event>
<event>
 5    0  0.2629946E-001  0.5467112E+03  0.7546771E-02  0.1002258E+00
         21   -1    0    0  504  501  0.00000000000E+00  0.00000000000E+00  0.21153396545E+03  0.21153396545E+03  0.00000000000E+00 0.  1.
         21   -1    0    0  501  502 -0.00000000000E+00 -0.00000000000E+00 -0.35324490243E+03  0.35324490243E+03  0.00000000000E+00 0.  1.
         25    1    1    2    0    0  0.11630362907E+03  0.18003054650E+03 -0.92834087924E+02  0.26491640132E+03  0.12500000000E+03 0.  0.
         21    1    1    2  503  502 -0.81249209785E+02 -0.17084272977E+03 -0.11718772210E+03  0.22253456949E+03  0.00000000000E+00 0.  1.
         21    1    1    2  504  503 -0.35054419282E+02 -0.91878167258E+01  0.68310873052E+02  0.77327897065E+02  0.00000000000E+00 0.  1.
<mgrwt>
<rscale>  4 0.54671124E+03</rscale>
<asrwt>0</asrwt>
<pdfrwt beam="1">  1       21 0.32543687E-01 0.54671124E+03</pdfrwt>
<pdfrwt beam="2">  1       21 0.54345370E-01 0.54671124E+03</pdfrwt>
<totfact> 0.25876638E+04</totfact>
</mgrwt>
</event>
<event>
 5    0  0.2629946E-001  0.8039382E+03  0.7546771E-02  0.9554334E-01
         21   -1    0    0  502  501  0.00000000000E+00  0.00000000000E+00  0.12103593138E+03  0.12103593138E+03  0.00000000000E+00 0.  1.
         21   -1    0    0  504  502 -0.00000000000E+00 -0.00000000000E+00 -0.13349685802E+04  0.13349685802E+04  0.00000000000E+00 0.  1.
         25    1    1    2    0    0  0.18850269161E+03 -0.24368679521E+03 -0.18680234004E+03  0.38136155174E+03  0.12500000000E+03 0.  0.
         21    1    1    2  503  501 -0.26057347441E+02  0.23654224179E+02 -0.59755897260E+02  0.69348936074E+02  0.00000000000E+00 0. -1.
         21    1    1    2  504  503 -0.16244534417E+03  0.22003257103E+03 -0.96737441148E+03  0.10052940237E+04  0.00000000000E+00 0.  1.
<mgrwt>
<rscale>  4 0.80393822E+03</rscale>
<asrwt>0</asrwt>
<pdfrwt beam="1">  1       21 0.18620911E-01 0.80393822E+03</pdfrwt>
<pdfrwt beam="2">  1       21 0.20537980E+00 0.80393822E+03</pdfrwt>
<totfact> 0.24978206E+03</totfact>
</mgrwt>
</event>
<event>
 5    0  0.2629946E-001  0.7076933E+03  0.7546771E-02  0.9704165E-01
         21   -1    0    0  504  501  0.00000000000E+00  0.00000000000E+00  0.16906569360E+03  0.16906569360E+03  0.00000000000E+00 0. -1.
         21   -1    0    0  501  502 -0.00000000000E+00 -0.00000000000E+00 -0.74058461319E+03  0.74058461319E+03  0.00000000000E+00 0. -1.
         25    1    1    2    0    0 -0.27855164841E+03 -0.18610431428E+03 -0.38082612253E+03  0.52237857175E+03  0.12500000000E+03 0.  0.
         21    1    1    2  503  502  0.21368111810E+02  0.11437673992E+02 -0.25653629530E+02  0.35292000464E+02  0.00000000000E+00 0. -1.
         21    1    1    2  504  503  0.25718353660E+03  0.17466664029E+03 -0.16503916753E+03  0.35197973457E+03  0.00000000000E+00 0. -1.
<mgrwt>
<rscale>  4 0.70769330E+03</rscale>
<asrwt>0</asrwt>
<pdfrwt beam="1">  1       21 0.26010106E-01 0.70769330E+03</pdfrwt>
<pdfrwt beam="2">  1       21 0.11393610E+00 0.70769330E+03</pdfrwt>
<totfact> 0.69738655E+03</totfact>
</mgrwt>
</event>
<event>
 5    0  0.2629946E-001  0.8260504E+03  0.7546771E-02  0.9523057E-01
         21   -1    0    0  502  501  0.00000000000E+00  0.00000000000E+00  0.18868160187E+03  0.18868160187E+03  0.00000000000E+00 0. -1.
         21   -1    0    0  504  502 -0.00000000000E+00 -0.00000000000E+00 -0.90411482527E+03  0.90411482527E+03  0.00000000000E+00 0. -1.
         25    1    1    2    0    0 -0.17203346095E+03  0.35338314777E+03 -0.37528901982E+03  0.55762174384E+03  0.12500000000E+03 0.  0.
         21    1    1    2  503  501  0.16701239009E+03 -0.23504187549E+03 -0.19618318216E+03  0.34874870988E+03  0.00000000000E+00 0. -1.
         21    1    1    2  504  503  0.50210708575E+01 -0.11834127228E+03 -0.14396102142E+03  0.18642597342E+03  0.00000000000E+00 0. -1.
<mgrwt>
<rscale>  4 0.82605044E+03</rscale>
<asrwt>0</asrwt>
<pdfrwt beam="1">  1       21 0.29027938E-01 0.82605044E+03</pdfrwt>
<pdfrwt beam="2">  1       21 0.13909459E+00 0.82605044E+03</pdfrwt>
<totfact> 0.32529992E+03</totfact>
</mgrwt>
</event>
<event>
 5    0  0.2629946E-001  0.6302307E+03  0.7546771E-02  0.9844599E-01
         21   -1    0    0  504  501  0.00000000000E+00  0.00000000000E+00  0.45045312553E+03  0.45045312553E+03  0.00000000000E+00 0.  1.
         21   -1    0    0  501  502 -0.00000000000E+00 -0.00000000000E+00 -0.22043954218E+03  0.22043954218E+03  0.00000000000E+00 0.  1.
         25    1    1    2    0    0  0.80040911133E+02  0.28856709769E+03  0.14082346191E+03  0.35374251193E+03  0.12500000000E+03 0.  0.
         21    1    1    2  503  502 -0.65111116185E+02 -0.25185533096E+03  0.57520123485E+02  0.26641908676E+03  0.00000000000E+00 0.  1.
         21    1    1    2  504  503 -0.14929794948E+02 -0.36711766722E+02  0.31669997954E+02  0.50731069016E+02  0.00000000000E+00 0.  1.
<mgrwt>
<rscale>  4 0.63023069E+03</rscale>
<asrwt>0</asrwt>
<pdfrwt beam="1">  1       21 0.69300481E-01 0.63023069E+03</pdfrwt>
<pdfrwt beam="2">  1       21 0.33913776E-01 0.63023069E+03</pdfrwt>
<totfact> 0.13670618E+04</totfact>
</mgrwt>
</event>
<event>
 5    0  0.2629946E-001  0.5039908E+03  0.7546771E-02  0.1012742E+00
         21   -1    0    0  502  501  0.00000000000E+00  0.00000000000E+00  0.26501633151E+02  0.26501633151E+02  0.00000000000E+00 0. -1.
         21   -1    0    0  504  502 -0.00000000000E+00 -0.00000000000E+00 -0.23961422267E+04  0.23961422267E+04  0.00000000000E+00 0. -1.
         25    1    1    2    0    0 -0.95952996149E+02 -0.20205042186E+03 -0.11728849647E+04  0.12005479961E+04  0.12500000000E+03 0.  0.
         21    1    1    2  503  501  0.21645688268E+02  0.14475827902E+03 -0.57686823239E+03  0.59514742099E+03  0.00000000000E+00 0. -1.
         21    1    1    2  504  503  0.74307307881E+02  0.57292142839E+02 -0.61988739644E+03  0.62694844278E+03  0.00000000000E+00 0. -1.
<mgrwt>
<rscale>  4 0.50399080E+03</rscale>
<asrwt>0</asrwt>
<pdfrwt beam="1">  1       21 0.40771744E-02 0.50399080E+03</pdfrwt>
<pdfrwt beam="2">  1       21 0.36863726E+00 0.50399080E+03</pdfrwt>
<totfact> 0.40587719E+03</totfact>
</mgrwt>
</event>
<event>
 5    0  0.2629946E-001  0.6167092E+03  0.7546771E-02  0.9871334E-01
         21   -1    0    0  504  501  0.00000000000E+00  0.00000000000E+00  0.18235224036E+04  0.18235224036E+04  0.00000000000E+00 0. -1.
         21   -1    0    0  501  502 -0.00000000000E+00 -0.00000000000E+00 -0.52142246011E+02  0.52142246011E+02  0.00000000000E+00 0. -1.
         25    1    1    2    0    0  0.23147862971E+03  0.99093723368E+02  0.11440687651E+04  0.11781002764E+04  0.12500000000E+03 0.  0.
         21    1    1    2  503  502 -0.79981402219E+01 -0.57246142413E+02  0.25375799540E+03  0.26025797067E+03  0.00000000000E+00 0.  1.
         21    1    1    2  504  503 -0.22348048949E+03 -0.41847580955E+02  0.37355339715E+03  0.43730640258E+03  0.00000000000E+00 0.  1.
<mgrwt>
<rscale>  4 0.61670918E+03</rscale>
<asrwt>0</asrwt>
<pdfrwt beam="1">  1       21 0.28054186E+00 0.61670918E+03</pdfrwt>
<pdfrwt beam="2">  1       21 0.80218854E-02 0.61670918E+03</pdfrwt>
<totfact> 0.41333625E+03</totfact>
</mgrwt>
</event>
<event>
 5    0  0.2629946E-001  0.4851673E+03  0.7546771E-02  0.1017725E+00
         21   -1    0    0  504  501  0.00000000000E+00  0.00000000000E+00  0.21744343268E+03  0.21744343268E+03  0.00000000000E+00 0.  1.
         21   -1    0    0  501  502 -0.00000000000E+00 -0.00000000000E+00 -0.27063054244E+03  0.27063054244E+03  0.00000000000E+00 0.  1.
         25    1    1    2    0    0  0.21314628384E+03 -0.48428763158E+02 -0.16424281884E+02  0.25233200441E+03  0.12500000000E+03 0.  0.
         21    1    1    2  503  502 -0.23350485743E+02  0.35000867467E+02 -0.12738402828E+02  0.43961037459E+02  0.00000000000E+00 0.  1.
         21    1    1    2  504  503 -0.18979579809E+03  0.13427895691E+02 -0.24024425046E+02  0.19178093324E+03  0.00000000000E+00 0.  1.
<mgrwt>
<rscale>  4 0.48516733E+03</rscale>
<asrwt>0</asrwt>
<pdfrwt beam="1">  1       21 0.33452836E-01 0.48516733E+03</pdfrwt>
<pdfrwt beam="2">  1       21 0.41635468E-01 0.48516733E+03</pdfrwt>
<totfact> 0.43585227E+04</totfact>
</mgrwt>
</event>
<event>
 5    0  0.2629946E-001  0.4967697E+03  0.7546771E-02  0.1014626E+00
         21   -1    0    0  504  501  0.00000000000E+00  0.00000000000E+00  0.98495974680E+03  0.98495974680E+03  0.00000000000E+00 0. -1.
         21   -1    0    0  501  502 -0.00000000000E+00 -0.00000000000E+00 -0.62637110848E+02  0.62637110848E+02  0.00000000000E+00 0. -1.
         25    1    1    2    0    0  0.61145787540E+02 -0.20053166306E+03  0.64635872747E+03  0.69090980583E+03  0.12500000000E+03 0.  0.
         21    1    1    2  503  502 -0.40718087208E+02  0.58337902585E+02  0.43407476973E+02  0.83339561801E+02  0.00000000000E+00 0. -1.
         21    1    1    2  504  503 -0.20427700332E+02  0.14219376048E+03  0.23255643151E+03  0.27334749002E+03  0.00000000000E+00 0. -1.
<mgrwt>
<rscale>  4 0.49676970E+03</rscale>
<asrwt>0</asrwt>
<pdfrwt beam="1">  1       21 0.15153226E+00 0.49676970E+03</pdfrwt>
<pdfrwt beam="2">  1       21 0.96364793E-02 0.49676970E+03</pdfrwt>
<totfact> 0.22283213E+04</totfact>
</mgrwt>
</event>
<event>
 5    0  0.2629946E-001  0.4856436E+03  0.7546771E-02  0.1017596E+00
         21   -1    0    0  502  501  0.00000000000E+00  0.00000000000E+00  0.18007268696E+03  0.18007268696E+03  0.00000000000E+00 0.  1.
         21   -1    0    0  504  502 -0.00000000000E+00 -0.00000000000E+00 -0.32743674483E+03  0.32743674483E+03  0.00000000000E+00 0.  1.
         25    1    1    2    0    0 -0.16907048929E+03  0.13299588811E+03 -0.14799663275E+03  0.28948357450E+03  0.12500000000E+03 0.  0.
         21    1    1    2  503  501  0.15888812860E+03 -0.11440061768E+03  0.69273468349E+01  0.19591050730E+03  0.00000000000E+00 0.  1.
         21    1    1    2  504  503  0.10182360685E+02 -0.18595270425E+02 -0.62947719539E+01  0.22115349992E+02  0.00000000000E+00 0.  1.
<mgrwt>
<rscale>  4 0.48564355E+03</rscale>
<asrwt>0</asrwt>
<pdfrwt beam="1">  1       21 0.27703490E-01 0.48564355E+03</pdfrwt>
<pdfrwt beam="2">  1       21 0.50374884E-01 0.48564355E+03</pdfrwt>
<totfact> 0.42509447E+04</totfact>
</mgrwt>
</event>
<event>
 5    0  0.2629946E-001  0.4512311E+03  0.7546771E-02  0.1027356E+00
         21   -1    0    0  504  501  0.00000000000E+00  0.00000000000E+00  0.62987262281E+03  0.62987262281E+03  0.00000000000E+00 0. -1.
         21   -1    0    0  501  502 -0.00000000000E+00 -0.00000000000E+00 -0.80813762565E+02  0.80813762565E+02  0.00000000000E+00 0. -1.
         25    1    1    2    0    0  0.15577201859E+03  0.13097188329E+03  0.34892305114E+03  0.42283667249E+03  0.12500000000E+03 0.  0.
         21    1    1    2  503  502 -0.13580179559E+03 -0.12089043940E+03  0.16140128989E+03  0.24311931721E+03  0.00000000000E+00 0. -1.
         21    1    1    2  504  503 -0.19970223006E+02 -0.10081443892E+02  0.38734519220E+02  0.44730395673E+02  0.00000000000E+00 0. -1.
<mgrwt>
<rscale>  4 0.45123110E+03</rscale>
<asrwt>0</asrwt>
<pdfrwt beam="1">  1       21 0.96903477E-01 0.45123110E+03</pdfrwt>
<pdfrwt beam="2">  1       21 0.12432887E-01 0.45123110E+03</pdfrwt>
<totfact> 0.44561687E+04</totfact>
</mgrwt>
</event>
<event>
 5    0  0.2629946E-001  0.5989365E+03  0.7546771E-02  0.9907615E-01
         21   -1    0    0  504  501  0.00000000000E+00  0.00000000000E+00  0.19822661409E+03  0.19822661409E+03  0.00000000000E+00 0. -1.
         21   -1    0    0  501  502 -0.00000000000E+00 -0.00000000000E+00 -0.45241766903E+03  0.45241766903E+03  0.00000000000E+00 0. -1.
         25    1    1    2    0    0 -0.26255087799E+03  0.83955234431E+02 -0.69631371218E+02  0.31057200900E+03  0.12500000000E+03 0.  0.
         21    1    1    2  503  502  0.59600070959E+02 -0.42048669685E+02 -0.78930960166E+02  0.10747258047E+03  0.00000000000E+00 0.  1.
         21    1    1    2  504  503  0.20295080703E+03 -0.41906564747E+02 -0.10562872356E+03  0.23259969364E+03  0.00000000000E+00 0.  1.
<mgrwt>
<rscale>  4 0.59893647E+03</rscale>
<asrwt>0</asrwt>
<pdfrwt beam="1">  1       21 0.30496402E-01 0.59893647E+03</pdfrwt>
<pdfrwt beam="2">  1       21 0.69602718E-01 0.59893647E+03</pdfrwt>
<totfact> 0.16872260E+04</totfact>
</mgrwt>
</event>
<event>
 5    0  0.2629946E-001  0.5166297E+03  0.7546771E-02  0.1009527E+00
         21   -1    0    0  504  501  0.00000000000E+00  0.00000000000E+00  0.22088051366E+03  0.22088051366E+03  0.00000000000E+00 0. -1.
         21   -1    0    0  501  502 -0.00000000000E+00 -0.00000000000E+00 -0.30209341606E+03  0.30209341606E+03  0.00000000000E+00 0. -1.
         25    1    1    2    0    0 -0.16689843377E+03 -0.16957626063E+03 -0.11396476939E+02  0.26900943301E+03  0.12500000000E+03 0.  0.
         21    1    1    2  503  502  0.15132027047E+03  0.12280382339E+03 -0.55669195939E+02  0.20267625088E+03  0.00000000000E+00 0. -1.
         21    1    1    2  504  503  0.15578163298E+02  0.46772437233E+02 -0.14147229528E+02  0.51288245824E+02  0.00000000000E+00 0. -1.
<mgrwt>
<rscale>  4 0.51662965E+03</rscale>
<asrwt>0</asrwt>
<pdfrwt beam="1">  1       21 0.33981617E-01 0.51662965E+03</pdfrwt>
<pdfrwt beam="2">  1       21 0.46475910E-01 0.51662965E+03</pdfrwt>
<totfact> 0.33328983E+04</totfact>
</mgrwt>
</event>
