<event>
 5    0  0.2159162E+000  0.2439159E+03  0.7546771E-02  0.1117211E+00
         21   -1    0    0  502  501  0.00000000000E+00  0.00000000000E+00  0.26017293368E+04  0.26017293368E+04  0.00000000000E+00 0. -1.
         21   -1    0    0  503  502 -0.00000000000E+00 -0.00000000000E+00 -0.35303824144E+02  0.35303824144E+02  0.00000000000E+00 0. -1.
         25    1    1    2    0    0  0.14764695235E+03 -0.14856089731E+03  0.21682420408E+04  0.21819185389E+04  0.12500000000E+03 0.  0.
         21    1    1    2  503  504 -0.10640556801E+03  0.68563988830E+02  0.27317216188E+03  0.30107506621E+03  0.00000000000E+00 0. -1.
         21    1    1    2  504  501 -0.41241384340E+02  0.79996908481E+02  0.12501130996E+03  0.15403955585E+03  0.00000000000E+00 0. -1.
<mgrwt>
<rscale>  4 0.24391589E+03</rscale>
<asrwt>0</asrwt>
<pdfrwt beam="1">  1       21 0.40026590E+00 0.24391589E+03</pdfrwt>
<pdfrwt beam="2">  1       21 0.54313596E-02 0.24391589E+03</pdfrwt>
<totfact> 0.18969797E+03</totfact>
</mgrwt>
</event>
<event>
 5    0  0.2565383E+000  0.2508079E+03  0.7546771E-02  0.1112795E+00
         21   -1    0    0  502  501  0.00000000000E+00  0.00000000000E+00  0.12574088955E+04  0.12574088955E+04  0.00000000000E+00 0.  1.
         21   -1    0    0  503  502 -0.00000000000E+00 -0.00000000000E+00 -0.10729934261E+03  0.10729934261E+03  0.00000000000E+00 0.  1.
         25    1    1    2    0    0  0.19255331678E+03 -0.10100907293E+03  0.11110203394E+04  0.11389779661E+04  0.12500000000E+03 0.  0.
         21    1    1    2  503  504 -0.16505079839E+03  0.94728000337E+02  0.47783707543E+02  0.19621020056E+03  0.00000000000E+00 0.  1.
         21    1    1    2  504  501 -0.27502518387E+02  0.62810725948E+01 -0.86944940994E+01  0.29520071447E+02  0.00000000000E+00 0.  1.
<mgrwt>
<rscale>  4 0.25080792E+03</rscale>
<asrwt>0</asrwt>
<pdfrwt beam="1">  1       21 0.19344751E+00 0.25080792E+03</pdfrwt>
<pdfrwt beam="2">  1       21 0.16507592E-01 0.25080792E+03</pdfrwt>
<totfact> 0.46470705E+03</totfact>
</mgrwt>
</event>
<event>
 5    0  0.2159162E+000  0.2712180E+03  0.7546771E-02  0.1100585E+00
         21   -1    0    0  502  501  0.00000000000E+00  0.00000000000E+00  0.51233020265E+02  0.51233020265E+02  0.00000000000E+00 0. -1.
         21   -1    0    0  503  502 -0.00000000000E+00 -0.00000000000E+00 -0.13121640259E+04  0.13121640259E+04  0.00000000000E+00 0. -1.
         25    1    1    2    0    0  0.13381722255E+03 -0.20006784206E+03 -0.65499036227E+03  0.70892282030E+03  0.12500000000E+03 0.  0.
         21    1    1    2  503  504 -0.48628977021E+02  0.30532759533E+02 -0.13056546783E+03  0.14263368536E+03  0.00000000000E+00 0. -1.
         21    1    1    2  504  501 -0.85188245530E+02  0.16953508253E+03 -0.47537517552E+03  0.51184054048E+03  0.00000000000E+00 0. -1.
<mgrwt>
<rscale>  4 0.27121798E+03</rscale>
<asrwt>0</asrwt>
<pdfrwt beam="1">  1       21 0.78820030E-02 0.27121798E+03</pdfrwt>
<pdfrwt beam="2">  1       21 0.20187139E+00 0.27121798E+03</pdfrwt>
<totfact> 0.15240802E+04</totfact>
</mgrwt>
</event>
<event>
 5    0  0.2159162E+000  0.2373547E+03  0.7546771E-02  0.1121568E+00
         21   -1    0    0  502  501  0.00000000000E+00  0.00000000000E+00  0.57682801810E+02  0.57682801810E+02  0.00000000000E+00 0. -1.
         21   -1    0    0  503  502 -0.00000000000E+00 -0.00000000000E+00 -0.89883266799E+03  0.89883266799E+03  0.00000000000E+00 0. -1.
         25    1    1    2    0    0 -0.20448179260E+02  0.20073397360E+03 -0.40328217258E+03  0.46794632909E+03  0.12500000000E+03 0.  0.
         21    1    1    2  503  504  0.99508140367E+01 -0.63762429355E+02 -0.66763238683E+02  0.92854704441E+02  0.00000000000E+00 0. -1.
         21    1    1    2  504  501  0.10497365224E+02 -0.13697154425E+03 -0.37110445492E+03  0.39571443627E+03  0.00000000000E+00 0. -1.
<mgrwt>
<rscale>  4 0.23735471E+03</rscale>
<asrwt>0</asrwt>
<pdfrwt beam="1">  1       21 0.88742766E-02 0.23735471E+03</pdfrwt>
<pdfrwt beam="2">  1       21 0.13828196E+00 0.23735471E+03</pdfrwt>
<totfact> 0.36084728E+04</totfact>
</mgrwt>
</event>
<event>
 5    0  0.2159162E+000  0.3201975E+03  0.7546771E-02  0.1075558E+00
         21   -1    0    0  502  501  0.00000000000E+00  0.00000000000E+00  0.26110203160E+03  0.26110203160E+03  0.00000000000E+00 0.  1.
         21   -1    0    0  503  502 -0.00000000000E+00 -0.00000000000E+00 -0.13390804322E+04  0.13390804322E+04  0.00000000000E+00 0.  1.
         25    1    1    2    0    0 -0.18774413022E+03 -0.23210002128E+03 -0.12091513014E+04  0.12517148829E+04  0.12500000000E+03 0.  0.
         21    1    1    2  503  504  0.50337840650E+02  0.13715004916E+02 -0.11794450731E+02  0.53489331920E+02  0.00000000000E+00 0.  1.
         21    1    1    2  504  501  0.13740628957E+03  0.21838501637E+03  0.14296735153E+03  0.29497824901E+03  0.00000000000E+00 0. -1.
<mgrwt>
<rscale>  4 0.32019746E+03</rscale>
<asrwt>0</asrwt>
<pdfrwt beam="1">  1       21 0.40169544E-01 0.32019746E+03</pdfrwt>
<pdfrwt beam="2">  1       21 0.20601237E+00 0.32019746E+03</pdfrwt>
<totfact> 0.65338727E+02</totfact>
</mgrwt>
</event>
<event>
 5    0  0.2159162E+000  0.2582667E+03  0.7546771E-02  0.1108189E+00
         21   -1    0    0  502  501  0.00000000000E+00  0.00000000000E+00  0.15142873147E+04  0.15142873147E+04  0.00000000000E+00 0.  1.
         21   -1    0    0  503  502 -0.00000000000E+00 -0.00000000000E+00 -0.55626599461E+03  0.55626599461E+03  0.00000000000E+00 0. -1.
         25    1    1    2    0    0  0.17966396417E+03  0.13710417474E+03  0.14764749358E+04  0.14988929017E+04  0.12500000000E+03 0.  0.
         21    1    1    2  503  504 -0.12467029363E+03 -0.12719806055E+03 -0.32872891449E+03  0.37387795862E+03  0.00000000000E+00 0. -1.
         21    1    1    2  504  501 -0.54993670539E+02 -0.99061141909E+01 -0.18972470119E+03  0.19778244902E+03  0.00000000000E+00 0. -1.
<mgrwt>
<rscale>  4 0.25826671E+03</rscale>
<asrwt>0</asrwt>
<pdfrwt beam="1">  1       21 0.23296728E+00 0.25826671E+03</pdfrwt>
<pdfrwt beam="2">  1       21 0.85579385E-01 0.25826671E+03</pdfrwt>
<totfact> 0.90889399E+01</totfact>
</mgrwt>
</event>
<event>
 5    0  0.2159162E+000  0.3083066E+03  0.7546771E-02  0.1082087E+00
         21   -1    0    0  502  501  0.00000000000E+00  0.00000000000E+00  0.12002554897E+03  0.12002554897E+03  0.00000000000E+00 0. -1.
         21   -1    0    0  503  502 -0.00000000000E+00 -0.00000000000E+00 -0.84280710893E+03  0.84280710893E+03  0.00000000000E+00 0. -1.
         25    1    1    2    0    0 -0.25252708491E+03 -0.10509447066E+03 -0.49620487157E+03  0.58022327681E+03  0.12500000000E+03 0.  0.
         21    1    1    2  503  504  0.14539498569E+03  0.13319986102E+03 -0.15393247519E+03  0.25015417597E+03  0.00000000000E+00 0. -1.
         21    1    1    2  504  501  0.10713209922E+03 -0.28105390359E+02 -0.72644213194E+02  0.13245520511E+03  0.00000000000E+00 0. -1.
<mgrwt>
<rscale>  4 0.30639525E+03</rscale>
<asrwt>0</asrwt>
<pdfrwt beam="1">  1       21 0.18465469E-01 0.30830657E+03</pdfrwt>
<pdfrwt beam="2">  1       21 0.12966263E+00 0.30830657E+03</pdfrwt>
<totfact> 0.10896014E+04</totfact>
</mgrwt>
</event>
<event>
 5    0  0.2159162E+000  0.3967049E+03  0.7546771E-02  0.1044927E+00
         21   -1    0    0  502  501  0.00000000000E+00  0.00000000000E+00  0.85677856237E+03  0.85677856237E+03  0.00000000000E+00 0. -1.
         21   -1    0    0  503  502 -0.00000000000E+00 -0.00000000000E+00 -0.19859159563E+03  0.19859159563E+03  0.00000000000E+00 0. -1.
         25    1    1    2    0    0 -0.20313533179E+03 -0.31699499529E+03  0.50894168152E+03  0.64528786231E+03  0.12500000000E+03 0.  0.
         21    1    1    2  503  504  0.18976436830E+03  0.25682360554E+03  0.11391727877E+03  0.33903690985E+03  0.00000000000E+00 0. -1.
         21    1    1    2  504  501  0.13370963492E+02  0.60171389754E+02  0.35328006446E+02  0.71045385839E+02  0.00000000000E+00 0.  1.
<mgrwt>
<rscale>  4 0.39670492E+03</rscale>
<asrwt>0</asrwt>
<pdfrwt beam="1">  1       21 0.13181208E+00 0.39670492E+03</pdfrwt>
<pdfrwt beam="2">  1       21 0.30552554E-01 0.39670492E+03</pdfrwt>
<totfact> 0.38085998E+03</totfact>
</mgrwt>
</event>
<event>
 5    0  0.2159162E+000  0.3591309E+03  0.7546771E-02  0.1058929E+00
         21   -1    0    0  502  501  0.00000000000E+00  0.00000000000E+00  0.40338758489E+03  0.40338758489E+03  0.00000000000E+00 0. -1.
         21   -1    0    0  503  502 -0.00000000000E+00 -0.00000000000E+00 -0.51562395683E+03  0.51562395683E+03  0.00000000000E+00 0. -1.
         25    1    1    2    0    0  0.27929122056E+03  0.18800637842E+03  0.23638489010E+03  0.42994511333E+03  0.12500000000E+03 0.  0.
         21    1    1    2  503  504 -0.25980396102E+03 -0.15816737010E+03 -0.33023035094E+03  0.44896224765E+03  0.00000000000E+00 0. -1.
         21    1    1    2  504  501 -0.19487259542E+02 -0.29839008319E+02 -0.18390911090E+02  0.40104180737E+02  0.00000000000E+00 0. -1.
<mgrwt>
<rscale>  4 0.35913087E+03</rscale>
<asrwt>0</asrwt>
<pdfrwt beam="1">  1       21 0.62059628E-01 0.35913087E+03</pdfrwt>
<pdfrwt beam="2">  1       21 0.79326763E-01 0.35913087E+03</pdfrwt>
<totfact> 0.30487186E+03</totfact>
</mgrwt>
</event>
<event>
 5    0  0.2159162E+000  0.3095928E+03  0.7546771E-02  0.1080541E+00
         21   -1    0    0  502  501  0.00000000000E+00  0.00000000000E+00  0.98108056970E+03  0.98108056970E+03  0.00000000000E+00 0.  1.
         21   -1    0    0  503  502 -0.00000000000E+00 -0.00000000000E+00 -0.68859915952E+03  0.68859915952E+03  0.00000000000E+00 0.  1.
         25    1    1    2    0    0  0.97593143785E+02  0.26663173671E+03  0.92292657292E+03  0.97367107574E+03  0.12500000000E+03 0.  0.
         21    1    1    2  503  504  0.39745188696E+01 -0.20920089606E+02 -0.16412977587E+02  0.26885549700E+02  0.00000000000E+00 0.  1.
         21    1    1    2  504  501 -0.10156766265E+03 -0.24571164710E+03 -0.61403218514E+03  0.66912310378E+03  0.00000000000E+00 0.  1.
<mgrwt>
<rscale>  4 0.30959276E+03</rscale>
<asrwt>0</asrwt>
<pdfrwt beam="1">  1       21 0.15093547E+00 0.30959276E+03</pdfrwt>
<pdfrwt beam="2">  1       21 0.10593833E+00 0.30959276E+03</pdfrwt>
<totfact> 0.18699808E+02</totfact>
</mgrwt>
</event>
<event>
 5    0  0.2159162E+000  0.2499868E+03  0.7546771E-02  0.1113313E+00
         21   -1    0    0  502  501  0.00000000000E+00  0.00000000000E+00  0.13715259205E+03  0.13715259205E+03  0.00000000000E+00 0.  1.
         21   -1    0    0  503  502 -0.00000000000E+00 -0.00000000000E+00 -0.50002786753E+03  0.50002786753E+03  0.00000000000E+00 0. -1.
         25    1    1    2    0    0 -0.21146551061E+03  0.46376312194E+02 -0.52404383093E+02  0.25542052360E+03  0.12500000000E+03 0.  0.
         21    1    1    2  503  504  0.18644794615E+02 -0.15050441767E+02 -0.56338019065E+02  0.61221863380E+02  0.00000000000E+00 0. -1.
         21    1    1    2  504  501  0.19282071600E+03 -0.31325870427E+02 -0.25413287333E+03  0.32053807260E+03  0.00000000000E+00 0. -1.
<mgrwt>
<rscale>  4 0.24998685E+03</rscale>
<asrwt>0</asrwt>
<pdfrwt beam="1">  1       21 0.21100399E-01 0.24998685E+03</pdfrwt>
<pdfrwt beam="2">  1       21 0.76927363E-01 0.24998685E+03</pdfrwt>
<totfact> 0.30467997E+04</totfact>
</mgrwt>
</event>
