<event>
 5    0  0.2958081E+000  0.2383645E+03  0.7546771E-02  0.1120887E+00
         21   -1    0    0  502  501  0.00000000000E+00  0.00000000000E+00  0.31137854970E+03  0.31137854970E+03  0.00000000000E+00 0. -1.
         21   -1    0    0  503  502 -0.00000000000E+00 -0.00000000000E+00 -0.27066158165E+03  0.27066158165E+03  0.00000000000E+00 0. -1.
         25    1    1    2    0    0  0.61039032537E+02  0.22481665530E+03  0.15018169559E+03  0.30405235352E+03  0.12500000000E+03 0.  0.
         21    1    1    2  503  504 -0.79192336495E+02 -0.17941317096E+03 -0.11722460684E+03  0.22847783376E+03  0.00000000000E+00 0. -1.
         21    1    1    2  504  501  0.18153303958E+02 -0.45403484341E+02  0.77598792966E+01  0.49509944067E+02  0.00000000000E+00 0. -1.
<mgrwt>
<rscale>  4 0.23836454E+03</rscale>
<asrwt>0</asrwt>
<pdfrwt beam="1">  1       21 0.47904392E-01 0.23836454E+03</pdfrwt>
<pdfrwt beam="2">  1       21 0.41640243E-01 0.23836454E+03</pdfrwt>
<totfact> 0.22557050E+04</totfact>
</mgrwt>
</event>
<event>
 5    0  0.2159162E+000  0.3213418E+03  0.7546771E-02  0.1075033E+00
         21   -1    0    0  502  501  0.00000000000E+00  0.00000000000E+00  0.78309968024E+03  0.78309968024E+03  0.00000000000E+00 0.  1.
         21   -1    0    0  503  502 -0.00000000000E+00 -0.00000000000E+00 -0.49057252829E+03  0.49057252829E+03  0.00000000000E+00 0. -1.
         25    1    1    2    0    0 -0.16371862783E+03 -0.24664096729E+03  0.69255676934E+03  0.76347588999E+03  0.12500000000E+03 0.  0.
         21    1    1    2  503  504  0.47523236184E+02  0.61828210681E+02 -0.36375931720E+02  0.86048788614E+02  0.00000000000E+00 0. -1.
         21    1    1    2  504  501  0.11619539165E+03  0.18481275661E+03 -0.36365368567E+03  0.42414752993E+03  0.00000000000E+00 0. -1.
<mgrwt>
<rscale>  4 0.32134181E+03</rscale>
<asrwt>0</asrwt>
<pdfrwt beam="1">  1       21 0.12047687E+00 0.32134181E+03</pdfrwt>
<pdfrwt beam="2">  1       21 0.75472697E-01 0.32134181E+03</pdfrwt>
<totfact> 0.73823352E+02</totfact>
</mgrwt>
</event>
<event>
 5    0  0.2968757E+000  0.2911105E+03  0.7546771E-02  0.1089771E+00
         21   -1    0    0  502  501  0.00000000000E+00  0.00000000000E+00  0.13437725593E+04  0.13437725593E+04  0.00000000000E+00 0.  1.
         21   -1    0    0  503  502 -0.00000000000E+00 -0.00000000000E+00 -0.63235266963E+02  0.63235266963E+02  0.00000000000E+00 0. -1.
         25    1    1    2    0    0  0.14751877494E+03  0.21762021394E+03  0.87862164973E+03  0.92559243183E+03  0.12500000000E+03 0.  0.
         21    1    1    2  503  504 -0.13730463608E+03 -0.19640713572E+03  0.37998070635E+03  0.44923675634E+03  0.00000000000E+00 0. -1.
         21    1    1    2  504  501 -0.10214138866E+02 -0.21213078218E+02  0.21934936222E+02  0.32178638059E+02  0.00000000000E+00 0.  1.
<mgrwt>
<rscale>  4 0.29111054E+03</rscale>
<asrwt>0</asrwt>
<pdfrwt beam="1">  1       21 0.20673422E+00 0.29111054E+03</pdfrwt>
<pdfrwt beam="2">  1       21 0.97285036E-02 0.29111054E+03</pdfrwt>
<totfact> 0.96643424E+03</totfact>
</mgrwt>
</event>
<event>
 5    0  0.2159162E+000  0.2719251E+03  0.7546771E-02  0.1100183E+00
         21   -1    0    0  502  501  0.00000000000E+00  0.00000000000E+00  0.24495920267E+03  0.24495920267E+03  0.00000000000E+00 0.  1.
         21   -1    0    0  503  502 -0.00000000000E+00 -0.00000000000E+00 -0.69594743313E+03  0.69594743313E+03  0.00000000000E+00 0. -1.
         25    1    1    2    0    0 -0.18243253270E+03  0.15629380975E+03  0.12412923492E+03  0.29789671183E+03  0.12500000000E+03 0.  0.
         21    1    1    2  503  504 -0.22679572128E+02 -0.11652956199E+02 -0.15890380477E+02  0.30044276856E+02  0.00000000000E+00 0.  1.
         21    1    1    2  504  501  0.20511210483E+03 -0.14464085355E+03 -0.55922708490E+03  0.61296564712E+03  0.00000000000E+00 0. -1.
<mgrwt>
<rscale>  4 0.27192513E+03</rscale>
<asrwt>0</asrwt>
<pdfrwt beam="1">  1       21 0.37686031E-01 0.27192513E+03</pdfrwt>
<pdfrwt beam="2">  1       21 0.10706884E+00 0.27192513E+03</pdfrwt>
<totfact> 0.44795128E+03</totfact>
</mgrwt>
</event>
<event>
 5    0  0.2159162E+000  0.4045343E+03  0.7546771E-02  0.1042221E+00
         21   -1    0    0  502  501  0.00000000000E+00  0.00000000000E+00  0.16965166993E+03  0.16965166993E+03  0.00000000000E+00 0.  1.
         21   -1    0    0  503  502 -0.00000000000E+00 -0.00000000000E+00 -0.14750028356E+04  0.14750028356E+04  0.00000000000E+00 0. -1.
         25    1    1    2    0    0  0.14649924071E+03  0.35575409764E+03 -0.15952744356E+03  0.43485286106E+03  0.12500000000E+03 0.  0.
         21    1    1    2  503  504 -0.14787975484E+03 -0.32211949014E+03 -0.10541419865E+04  0.11121352055E+04  0.00000000000E+00 0. -1.
         21    1    1    2  504  501  0.13805141271E+01 -0.33634607498E+02 -0.91681735656E+02  0.97666438932E+02  0.00000000000E+00 0. -1.
<mgrwt>
<rscale>  4 0.40453431E+03</rscale>
<asrwt>0</asrwt>
<pdfrwt beam="1">  1       21 0.26100256E-01 0.40453431E+03</pdfrwt>
<pdfrwt beam="2">  1       21 0.22692352E+00 0.40453431E+03</pdfrwt>
<totfact> 0.10792448E+03</totfact>
</mgrwt>
</event>
<event>
 5    0  0.2159162E+000  0.2917512E+03  0.7546771E-02  0.1089438E+00
         21   -1    0    0  502  501  0.00000000000E+00  0.00000000000E+00  0.14506202640E+04  0.14506202640E+04  0.00000000000E+00 0.  1.
         21   -1    0    0  503  502 -0.00000000000E+00 -0.00000000000E+00 -0.56095920569E+02  0.56095920569E+02  0.00000000000E+00 0. -1.
         25    1    1    2    0    0 -0.23148674949E+03 -0.12612558836E+03  0.71164010733E+03  0.76912315111E+03  0.12500000000E+03 0.  0.
         21    1    1    2  503  504  0.14575573199E+03  0.11544763373E+03  0.38694115148E+03  0.42929750087E+03  0.00000000000E+00 0. -1.
         21    1    1    2  504  501  0.85731017493E+02  0.10677954629E+02  0.29594308466E+03  0.30829553262E+03  0.00000000000E+00 0. -1.
<mgrwt>
<rscale>  4 0.29175123E+03</rscale>
<asrwt>0</asrwt>
<pdfrwt beam="1">  1       21 0.22317232E+00 0.29175123E+03</pdfrwt>
<pdfrwt beam="2">  1       21 0.86301427E-02 0.29175123E+03</pdfrwt>
<totfact> 0.94004963E+03</totfact>
</mgrwt>
</event>
<event>
 5    0  0.2159162E+000  0.3403554E+03  0.7546771E-02  0.1066645E+00
         21   -1    0    0  502  501  0.00000000000E+00  0.00000000000E+00  0.66532264814E+03  0.66532264814E+03  0.00000000000E+00 0.  1.
         21   -1    0    0  503  502 -0.00000000000E+00 -0.00000000000E+00 -0.26119430245E+03  0.26119430245E+03  0.00000000000E+00 0.  1.
         25    1    1    2    0    0  0.28855878189E+03 -0.13019463690E+03  0.47637879085E+03  0.58547294254E+03  0.12500000000E+03 0.  0.
         21    1    1    2  503  504 -0.12860006630E+03  0.80858484017E+02 -0.83367944982E+02  0.17328094454E+03  0.00000000000E+00 0.  1.
         21    1    1    2  504  501 -0.15995871559E+03  0.49336152878E+02  0.11117499833E+02  0.16776306351E+03  0.00000000000E+00 0.  1.
<mgrwt>
<rscale>  4 0.34035542E+03</rscale>
<asrwt>0</asrwt>
<pdfrwt beam="1">  1       21 0.10235733E+00 0.34035542E+03</pdfrwt>
<pdfrwt beam="2">  1       21 0.40183739E-01 0.34035542E+03</pdfrwt>
<totfact> 0.42328334E+03</totfact>
</mgrwt>
</event>
