<event>
 5    0  0.1856407E+000  0.3020295E+03  0.7546771E-02  0.1084230E+00
         21   -1    0    0  502  501  0.00000000000E+00  0.00000000000E+00  0.68829171687E+03  0.68829171687E+03  0.00000000000E+00 0.  1.
         21   -1    0    0  503  502 -0.00000000000E+00 -0.00000000000E+00 -0.18626700393E+03  0.18626700393E+03  0.00000000000E+00 0.  1.
         25    1    1    2    0    0  0.27432245584E+03  0.94239000521E+02  0.88915842980E+02  0.32812318743E+03  0.12500000000E+03 0.  0.
         21    1    1    2  503  504 -0.56141781052E+02  0.45615846353E+02  0.19406720429E+03  0.20711056177E+03  0.00000000000E+00 0.  1.
         21    1    1    2  504  501 -0.21818067479E+03 -0.13985484687E+03  0.21904166568E+03  0.33932497159E+03  0.00000000000E+00 0.  1.
<mgrwt>
<rscale>  4 0.30202946E+03</rscale>
<asrwt>0</asrwt>
<pdfrwt beam="1">  1       21 0.10589103E+00 0.30202946E+03</pdfrwt>
<pdfrwt beam="2">  1       21 0.28656462E-01 0.30202946E+03</pdfrwt>
<totfact> 0.78091338E+03</totfact>
</mgrwt>
</event>
<event>
 5    0  0.1856407E+000  0.3308233E+03  0.7546771E-02  0.1070773E+00
         21   -1    0    0  502  501  0.00000000000E+00  0.00000000000E+00  0.17253531085E+04  0.17253531085E+04  0.00000000000E+00 0.  1.
         21   -1    0    0  503  502 -0.00000000000E+00 -0.00000000000E+00 -0.12265237499E+03  0.12265237499E+03  0.00000000000E+00 0. -1.
         25    1    1    2    0    0  0.21594018153E+03 -0.25175788053E+03  0.13626899790E+04  0.14080345064E+04  0.12500000000E+03 0.  0.
         21    1    1    2  503  504 -0.70277265885E+02  0.95080822125E+02  0.18420210097E+03  0.21888277876E+03  0.00000000000E+00 0. -1.
         21    1    1    2  504  501 -0.14566291565E+03  0.15667705840E+03  0.55808653553E+02  0.22108819832E+03  0.00000000000E+00 0. -1.
<mgrwt>
<rscale>  4 0.33082335E+03</rscale>
<asrwt>0</asrwt>
<pdfrwt beam="1">  1       21 0.26543892E+00 0.33082335E+03</pdfrwt>
<pdfrwt beam="2">  1       21 0.18869597E-01 0.33082335E+03</pdfrwt>
<totfact> 0.12218057E+03</totfact>
</mgrwt>
</event>
<event>
 5    0  0.2881266E+000  0.2912756E+03  0.7546771E-02  0.1089685E+00
         21   -1    0    0  502  501  0.00000000000E+00  0.00000000000E+00  0.88526438848E+03  0.88526438848E+03  0.00000000000E+00 0.  1.
         21   -1    0    0  503  502 -0.00000000000E+00 -0.00000000000E+00 -0.11018163565E+03  0.11018163565E+03  0.00000000000E+00 0. -1.
         25    1    1    2    0    0  0.23187585387E+03 -0.12429837351E+03  0.61975579684E+03  0.68479102286E+03  0.12500000000E+03 0.  0.
         21    1    1    2  503  504 -0.20323939038E+03  0.11024639719E+03  0.15570328235E+03  0.27875442602E+03  0.00000000000E+00 0. -1.
         21    1    1    2  504  501 -0.28636463491E+02  0.14051976324E+02 -0.37632636511E+00  0.31900575252E+02  0.00000000000E+00 0.  1.
<mgrwt>
<rscale>  4 0.29127564E+03</rscale>
<asrwt>0</asrwt>
<pdfrwt beam="1">  1       21 0.13619452E+00 0.29127564E+03</pdfrwt>
<pdfrwt beam="2">  1       21 0.16951021E-01 0.29127564E+03</pdfrwt>
<totfact> 0.11353512E+04</totfact>
</mgrwt>
</event>
<event>
 5    0  0.2086815E+000  0.2369510E+03  0.7546771E-02  0.1121841E+00
         21   -1    0    0  502  501  0.00000000000E+00  0.00000000000E+00  0.10189315021E+03  0.10189315021E+03  0.00000000000E+00 0. -1.
         21   -1    0    0  503  502 -0.00000000000E+00 -0.00000000000E+00 -0.11352803420E+04  0.11352803420E+04  0.00000000000E+00 0.  1.
         25    1    1    2    0    0 -0.15222741169E+03 -0.13331810782E+03 -0.81180262536E+02  0.25132078658E+03  0.12500000000E+03 0.  0.
         21    1    1    2  503  504 -0.26098093982E+02  0.41019025927E+02 -0.11407001977E+03  0.12399855002E+03  0.00000000000E+00 0.  1.
         21    1    1    2  504  501  0.17832550567E+03  0.92299081892E+02 -0.83813690953E+03  0.86185415565E+03  0.00000000000E+00 0.  1.
<mgrwt>
<rscale>  4 0.23695100E+03</rscale>
<asrwt>0</asrwt>
<pdfrwt beam="1">  1       21 0.15675869E-01 0.23695100E+03</pdfrwt>
<pdfrwt beam="2">  1       21 0.17465852E+00 0.23695100E+03</pdfrwt>
<totfact> 0.69240592E+03</totfact>
</mgrwt>
</event>
<event>
 5    0  0.2086817E+000  0.3245812E+03  0.7546771E-02  0.1073560E+00
         21   -1    0    0  502  501  0.00000000000E+00  0.00000000000E+00  0.18916417529E+03  0.18916417529E+03  0.00000000000E+00 0. -1.
         21   -1    0    0  503  502 -0.00000000000E+00 -0.00000000000E+00 -0.56186049095E+03  0.56186049095E+03  0.00000000000E+00 0. -1.
         25    1    1    2    0    0  0.46755498680E+02  0.29587473412E+03 -0.13429151832E+03  0.35126506635E+03  0.12500000000E+03 0.  0.
         21    1    1    2  503  504  0.21984562057E+01 -0.19146065626E+03 -0.89329049314E+02  0.21128581390E+03  0.00000000000E+00 0. -1.
         21    1    1    2  504  501 -0.48953954885E+02 -0.10441407786E+03 -0.14907574803E+03  0.18847378598E+03  0.00000000000E+00 0. -1.
<mgrwt>
<rscale>  4 0.32458117E+03</rscale>
<asrwt>0</asrwt>
<pdfrwt beam="1">  1       21 0.29102182E-01 0.32458117E+03</pdfrwt>
<pdfrwt beam="2">  1       21 0.86440073E-01 0.32458117E+03</pdfrwt>
<totfact> 0.12160984E+04</totfact>
</mgrwt>
</event>
<event>
 5    0  0.1856407E+000  0.2738923E+03  0.7546771E-02  0.1099072E+00
         21   -1    0    0  502  501  0.00000000000E+00  0.00000000000E+00  0.15019252100E+03  0.15019252100E+03  0.00000000000E+00 0.  1.
         21   -1    0    0  503  502 -0.00000000000E+00 -0.00000000000E+00 -0.33368731612E+04  0.33368731612E+04  0.00000000000E+00 0.  1.
         25    1    1    2    0    0  0.21380942802E+03 -0.11695098642E+03  0.16320334691E+02  0.27437812970E+03  0.12500000000E+03 0.  0.
         21    1    1    2  503  504 -0.12316574144E+03  0.70809834611E+02 -0.21864586083E+04  0.21910693915E+04  0.00000000000E+00 0.  1.
         21    1    1    2  504  501 -0.90643686583E+02  0.46141151807E+02 -0.10165423666E+04  0.10216181611E+04  0.00000000000E+00 0.  1.
<mgrwt>
<rscale>  4 0.27389232E+03</rscale>
<asrwt>0</asrwt>
<pdfrwt beam="1">  1       21 0.23106542E-01 0.27389232E+03</pdfrwt>
<pdfrwt beam="2">  1       21 0.51336509E+00 0.27389232E+03</pdfrwt>
<totfact> 0.23362833E+01</totfact>
</mgrwt>
</event>
<event>
 5    0  0.4155103E+000  0.3096726E+03  0.7546771E-02  0.1080503E+00
         21   -1    0    0  502  501  0.00000000000E+00  0.00000000000E+00  0.15162354958E+03  0.15162354958E+03  0.00000000000E+00 0.  1.
         21   -1    0    0  503  502 -0.00000000000E+00 -0.00000000000E+00 -0.75107097861E+03  0.75107097861E+03  0.00000000000E+00 0. -1.
         25    1    1    2    0    0  0.27057274158E+03 -0.84038829677E+02 -0.10594424935E+03  0.32729393113E+03  0.12500000000E+03 0.  0.
         21    1    1    2  503  504 -0.22527145573E+03  0.10082891247E+03 -0.42707930440E+03  0.49326507134E+03  0.00000000000E+00 0. -1.
         21    1    1    2  504  501 -0.45301285853E+02 -0.16790082793E+02 -0.66423875266E+02  0.82135525722E+02  0.00000000000E+00 0.  1.
<mgrwt>
<rscale>  4 0.30967262E+03</rscale>
<asrwt>0</asrwt>
<pdfrwt beam="1">  1       21 0.23326700E-01 0.30967262E+03</pdfrwt>
<pdfrwt beam="2">  1       21 0.11554938E+00 0.30967262E+03</pdfrwt>
<totfact> 0.93549454E+03</totfact>
</mgrwt>
</event>
<event>
 5    0  0.2439451E+000  0.2681948E+03  0.7546771E-02  0.1102317E+00
         21   -1    0    0  502  501  0.00000000000E+00  0.00000000000E+00  0.11443032155E+03  0.11443032155E+03  0.00000000000E+00 0. -1.
         21   -1    0    0  503  502 -0.00000000000E+00 -0.00000000000E+00 -0.87106402970E+03  0.87106402970E+03  0.00000000000E+00 0. -1.
         25    1    1    2    0    0  0.27332752108E+03 -0.16542267570E+02 -0.50257523583E+03  0.58582288114E+03  0.12500000000E+03 0.  0.
         21    1    1    2  503  504 -0.48496365993E+02  0.25485572839E+02 -0.13371229040E+03  0.14450047938E+03  0.00000000000E+00 0. -1.
         21    1    1    2  504  501 -0.22483115509E+03 -0.89433052687E+01 -0.12034618192E+03  0.25517099073E+03  0.00000000000E+00 0. -1.
<mgrwt>
<rscale>  4 0.26819475E+03</rscale>
<asrwt>0</asrwt>
<pdfrwt beam="1">  1       21 0.17604664E-01 0.26819475E+03</pdfrwt>
<pdfrwt beam="2">  1       21 0.13400986E+00 0.26819475E+03</pdfrwt>
<totfact> 0.11164510E+04</totfact>
</mgrwt>
</event>
<event>
 5    0  0.2408791E+000  0.2807474E+03  0.7546771E-02  0.1095281E+00
         21   -1    0    0  502  501  0.00000000000E+00  0.00000000000E+00  0.81430922927E+03  0.81430922927E+03  0.00000000000E+00 0.  1.
         21   -1    0    0  503  502 -0.00000000000E+00 -0.00000000000E+00 -0.11710923438E+03  0.11710923438E+03  0.00000000000E+00 0.  1.
         25    1    1    2    0    0  0.27267532552E+03  0.41543047301E+02  0.25002101595E+03  0.39269984256E+03  0.12500000000E+03 0.  0.
         21    1    1    2  503  504 -0.49668716828E+02  0.71451240835E+01  0.18218687508E+03  0.18897113981E+03  0.00000000000E+00 0.  1.
         21    1    1    2  504  501 -0.22300660870E+03 -0.48688171384E+02  0.26499210386E+03  0.34974748128E+03  0.00000000000E+00 0.  1.
<mgrwt>
<rscale>  4 0.28074744E+03</rscale>
<asrwt>0</asrwt>
<pdfrwt beam="1">  1       21 0.12527834E+00 0.28074744E+03</pdfrwt>
<pdfrwt beam="2">  1       21 0.18016806E-01 0.28074744E+03</pdfrwt>
<totfact> 0.12617560E+04</totfact>
</mgrwt>
</event>
<event>
 5    0  0.1856407E+000  0.3106782E+03  0.7546771E-02  0.1080021E+00
         21   -1    0    0  502  501  0.00000000000E+00  0.00000000000E+00  0.14235965265E+03  0.14235965265E+03  0.00000000000E+00 0. -1.
         21   -1    0    0  503  502 -0.00000000000E+00 -0.00000000000E+00 -0.12206035601E+04  0.12206035601E+04  0.00000000000E+00 0. -1.
         25    1    1    2    0    0  0.12374587212E+03  0.25609158371E+03 -0.79213114831E+02  0.32061761910E+03  0.12500000000E+03 0.  0.
         21    1    1    2  503  504 -0.61781338828E+02 -0.62252150352E+02 -0.40613979080E+03  0.41550185767E+03  0.00000000000E+00 0. -1.
         21    1    1    2  504  501 -0.61964533290E+02 -0.19383943336E+03 -0.59289100183E+03  0.62684373600E+03  0.00000000000E+00 0. -1.
<mgrwt>
<rscale>  4 0.31067819E+03</rscale>
<asrwt>0</asrwt>
<pdfrwt beam="1">  1       21 0.21901484E-01 0.31067819E+03</pdfrwt>
<pdfrwt beam="2">  1       21 0.18778517E+00 0.31067819E+03</pdfrwt>
<totfact> 0.28689653E+03</totfact>
</mgrwt>
</event>
<event>
 5    0  0.2193326E+000  0.2581190E+03  0.7546771E-02  0.1108279E+00
         21   -1    0    0  502  501  0.00000000000E+00  0.00000000000E+00  0.15551837765E+03  0.15551837765E+03  0.00000000000E+00 0.  1.
         21   -1    0    0  503  502 -0.00000000000E+00 -0.00000000000E+00 -0.75065267039E+03  0.75065267039E+03  0.00000000000E+00 0. -1.
         25    1    1    2    0    0  0.23127225905E+02  0.22003434393E+03 -0.44683289388E+01  0.25415536007E+03  0.12500000000E+03 0.  0.
         21    1    1    2  503  504  0.12545555650E+02  0.23960467499E+02 -0.36188326341E+02  0.45178423309E+02  0.00000000000E+00 0. -1.
         21    1    1    2  504  501 -0.35672781554E+02 -0.24399481143E+03 -0.55447763745E+03  0.60683726466E+03  0.00000000000E+00 0. -1.
<mgrwt>
<rscale>  4 0.25811904E+03</rscale>
<asrwt>0</asrwt>
<pdfrwt beam="1">  1       21 0.23925904E-01 0.25811904E+03</pdfrwt>
<pdfrwt beam="2">  1       21 0.11548503E+00 0.25811904E+03</pdfrwt>
<totfact> 0.91599584E+03</totfact>
</mgrwt>
</event>
<event>
 5    0  0.1856407E+000  0.2618648E+03  0.7546771E-02  0.1106028E+00
         21   -1    0    0  502  501  0.00000000000E+00  0.00000000000E+00  0.10280348116E+03  0.10280348116E+03  0.00000000000E+00 0. -1.
         21   -1    0    0  503  502 -0.00000000000E+00 -0.00000000000E+00 -0.94185077571E+03  0.94185077571E+03  0.00000000000E+00 0. -1.
         25    1    1    2    0    0 -0.47110914655E+02 -0.22523045472E+03 -0.12719310017E+03  0.29112073225E+03  0.12500000000E+03 0.  0.
         21    1    1    2  503  504  0.43797427850E+02  0.92625211941E+02 -0.42982291707E+03  0.44186579932E+03  0.00000000000E+00 0. -1.
         21    1    1    2  504  501  0.33134868049E+01  0.13260524278E+03 -0.28203127732E+03  0.31166772530E+03  0.00000000000E+00 0. -1.
<mgrwt>
<rscale>  4 0.26186484E+03</rscale>
<asrwt>0</asrwt>
<pdfrwt beam="1">  1       21 0.15815919E-01 0.26186484E+03</pdfrwt>
<pdfrwt beam="2">  1       21 0.14490013E+00 0.26186484E+03</pdfrwt>
<totfact> 0.11142761E+04</totfact>
</mgrwt>
</event>
