<LesHouchesEvents version="3.0">
  <!--
  <scalesfunctionalform>
    muR  H_T/2 := sum_i mT(i)/2, i=final state
    muF1 H_T/2 := sum_i mT(i)/2, i=final state
    muF2 H_T/2 := sum_i mT(i)/2, i=final state
    QES  H_T/2 := sum_i mT(i)/2, i=final state
  </scalesfunctionalform>
HERWIG6   
  -->
  <header>
       54
  </header>
  <init>
   2212   2212 0.65000000D+04 0.65000000D+04 -1 -1   247000   247000 -3   1
 0.10054369D-01 0.17793546D-03 0.42756899D-03     66
  </init>
  <event>
  5     66 0.42756899E-03 0.14585817E+03 0.75467711E-02 0.10526990E+00
        1 -1    0    0  502    0 0.00000000E+00 0.00000000E+00 0.18420479E+04 0.18420479E+04 0.32000000E+00 0.0000E+00 0.9000E+01
       21 -1    0    0  501  502 0.00000000E+00 0.00000000E+00 -.43829770E+02 0.43836186E+02 0.75000000E+00 0.0000E+00 0.9000E+01
       25  1    1    2    0    0 0.11530399E+03 0.72595714E+02 0.71670444E+03 0.74017255E+03 0.12500000E+03 0.0000E+00 0.9000E+01
       23  1    1    2    0    0 0.28407554E+02 -.97526901E+02 0.91167093E+03 0.92183384E+03 0.91188000E+02 0.0000E+00 0.9000E+01
        1  1    1    2  501    0 -.14371154E+03 0.24931186E+02 0.16984275E+03 0.22387772E+03 0.32000000E+00 0.0000E+00 0.9000E+01
#aMCatNLO 1  0  0  0  0 0.00000000D+00 0.00000000D+00  -5  6  0 0.00000000D+00 0.00000000D+00 0.00000000D+00 0.00000000D+00 0.00000000D+00
  <mgrwgt>
 0.2719003662D-01    3    2    0
 0.284152445264035D+03 0.000000000000000D+00 0.000000000000000D+00 0.284152445264035D+03
 0.284152445264035D+03 0.000000000000000D+00 0.000000000000000D+00 -.284152445264035D+03
 0.188435397084549D+03 0.115304046308285D+03 0.725957042573300D+02 0.363006818493932D+02
 0.174358203225852D+03 0.284076073550595D+02 -.975269099701209D+02 0.108475994414378D+03
 0.205511290217670D+03 -.143711653663344D+03 0.249312057127909D+02 -.144776676263771D+03
 0.000000000000000D+00 0.000000000000000D+00 -.000000000000000D+00 -.000000000000000D+00
 0.362954634295394D+03 0.000000000000000D+00 0.000000000000000D+00 0.362954634295394D+03
 0.539448185355281D+03 0.000000000000000D+00 0.000000000000000D+00 -.539448185355281D+03
 0.193989287579064D+03 0.657303717095915D+02 0.127939917256581D+03 0.363006818493932D+02
 0.151048524278694D+03 -.137748350145422D+02 -.504342928859434D+02 0.108475994414378D+03
 0.267854402050705D+03 -.205074002213985D+03 0.934363329968288D+02 -.144776676263771D+03
 0.289510605742213D+03 0.153118465518935D+03 -.170941957367466D+03 -.176493551059886D+03
0.227345544411D-04 0.000000000000D+00 0.000000000000D+00 0.167925580267D-06 0.000000000000D+00  6 1 21 25 23 1 21 2 0.28339248D+00 0.67435372D-02 0.54585183D+05 0.54585183D+05 0.54585183D+05 0.11885264D+01  1  2  2  1  6  1        1 0.248901275288D-01 0.100000000000D+01
-.875165538064D-06 0.119973539872D-05 -.458945153010D-07 0.167925580267D-06 0.000000000000D+00  6 1 21 25 23 1 21 4 0.28339248D+00 0.67435372D-02 0.54585183D+05 0.54585183D+05 0.54585183D+05 0.11885264D+01  1  2  3  1  6  1        1 -.135346963302D-02 0.100000000000D+01
0.236230727244D-05 0.000000000000D+00 0.000000000000D+00 0.167925580267D-06 0.000000000000D+00  6 1 21 25 23 1 21 4 0.28339248D+00 0.67435372D-02 0.54585183D+05 0.54585183D+05 0.54585183D+05 0.11885264D+01  1  2 15  1  6  1        1 0.365337872441D-02 0.100000000000D+01
  </mgrwgt>
  </event>
  <event>
  5     66 -.42756899E-03 0.25239591E+02 0.75467711E-02 0.12191265E+00
        1 -1    0    0  502    0 0.00000000E+00 0.00000000E+00 0.76855808E+02 0.76856474E+02 0.32000000E+00 0.0000E+00 0.9000E+01
       21 -1    0    0  501  502 -.00000000E+00 -.00000000E+00 -.26211466E+03 0.26211573E+03 0.75000000E+00 0.0000E+00 0.9000E+01
       25  1    1    2    0    0 0.67385633E+02 -.71329228E+01 -.50164313E+02 0.15077520E+03 0.12500000E+03 0.0000E+00 0.9000E+01
       23  1    1    2    0    0 -.46966977E+02 -.95273704E+01 -.11866181E+03 0.15713861E+03 0.91188000E+02 0.0000E+00 0.9000E+01
        1  1    1    2  501    0 -.20418656E+02 0.16660293E+02 -.16432731E+02 0.31058395E+02 0.32000000E+00 0.0000E+00 0.9000E+01
#aMCatNLO 1  0  0  5  2 0.59977372D+01 0.00000000D+00  -5  6  0 0.00000000D+00 0.00000000D+00 0.00000000D+00 0.00000000D+00 0.00000000D+00
  <mgrwgt>
 -.9948546979D-01    7    2    0
 0.141934240446464D+03 0.000000000000000D+00 0.000000000000000D+00 0.141934240446464D+03
 0.141934240446464D+03 -.000000000000000D+00 -.000000000000000D+00 -.141934240446464D+03
 0.147305282634708D+03 0.673864134099686D+02 -.713355977078736D+01 0.384971415150343D+02
 0.110200381644987D+03 -.469663930140445D+02 -.952784690415619D+01 -.391439756708761D+02
 0.263628166132334D+02 -.204200203959241D+02 0.166614066749436D+02 0.646834155841820D+00
 0.000000000000000D+00 -.000000000000000D+00 0.000000000000000D+00 0.000000000000000D+00
 0.141934240446464D+03 0.000000000000000D+00 0.000000000000000D+00 0.141934240446464D+03
 0.141934240446464D+03 -.000000000000000D+00 -.000000000000000D+00 -.141934240446464D+03
 0.146714404478225D+03 0.661624023368577D+02 -.613484645570151D+01 0.385359138646141D+02
 0.110522750561502D+03 -.478852687552077D+02 -.877810414629315D+01 -.391148689313707D+02
 0.105213540294865D+02 -.377644704650635D+01 0.888723420101972D+01 0.417784712201768D+01
 0.161099718237153D+02 -.145006865351438D+02 0.602571640097498D+01 -.359889205526101D+01
0.644504815850D-05 0.000000000000D+00 0.000000000000D+00 0.397453736167D-06 0.000000000000D+00  6 1 21 25 23 1 21 2 0.11824104D-01 0.40325466D-01 0.18435486D+05 0.18435486D+05 0.18435486D+05 0.12377397D+01  1  2  2  3  6  5        1 0.318807751947D-01 0.100000000000D+01
0.155130417009D-06 0.340114535443D-06 -.130106953313D-07 0.397453736167D-06 0.000000000000D+00  6 1 21 25 23 1 21 4 0.11824104D-01 0.40325466D-01 0.18435486D+05 0.18435486D+05 0.18435486D+05 0.12377397D+01  1  2  3  3  6  5        1 0.117559652897D-02 0.100000000000D+01
0.727070330117D-06 0.000000000000D+00 0.000000000000D+00 0.397453736167D-06 0.000000000000D+00  6 1 21 25 23 1 21 4 0.11824104D-01 0.40325466D-01 0.18435486D+05 0.18435486D+05 0.18435486D+05 0.12377397D+01  1  2 15  3  6  5        1 0.550982439733D-02 0.100000000000D+01
0.220027377098D-05 0.000000000000D+00 0.000000000000D+00 0.397742997071D-06 0.000000000000D+00  6 1 21 25 23 1 21 4 0.11824104D-01 0.40325466D-01 0.18264437D+05 0.18264437D+05 0.18264437D+05 0.12381900D+01  1  2 12  3  6  5        1 0.166975170120D-01 0.100000000000D+01
-.249584686619D-04 0.000000000000D+00 0.000000000000D+00 0.397453736167D-06 0.000000000000D+00  6 1 21 25 23 1 21 4 0.11824104D-01 0.40325466D-01 0.18435486D+05 0.18435486D+05 0.18435486D+05 0.12377397D+01  1  2  4  3  6  5        1 -.189138208310D+00 0.100000000000D+01
-.253728412466D-05 0.000000000000D+00 0.000000000000D+00 0.397453736167D-06 0.000000000000D+00  6 1 21 25 23 1 21 4 0.11824104D-01 0.40325466D-01 0.18435486D+05 0.18435486D+05 0.18435486D+05 0.12377397D+01  1  2  5  3  6  5        1 -.192278372448D-01 0.100000000000D+01
0.707522185867D-05 0.000000000000D+00 -.000000000000D+00 0.397453736167D-06 0.000000000000D+00  6 1 21 25 23 1 21 4 0.11824104D-01 0.40325466D-01 0.18435486D+05 0.18435486D+05 0.18435486D+05 0.12377397D+01  1  2  6  3  6  5        1 0.536168626317D-01 0.100000000000D+01
  </mgrwgt>
  </event>
  <event>
  6     66 -.42756899E-03 0.34303339E+02 0.75467711E-02 0.11830518E+00
        1 -1    0    0  503    0 0.00000000E+00 0.00000000E+00 0.23659155E+04 0.23659155E+04 0.32000000E+00 0.0000E+00 0.9000E+01
       21 -1    0    0  501  502 0.00000000E+00 0.00000000E+00 -.15972359E+02 0.15989958E+02 0.75000000E+00 0.0000E+00 0.9000E+01
       25  1    1    2    0    0 -.23510400E+02 0.41910223E+02 0.59505082E+03 0.60993416E+03 0.12500000E+03 0.0000E+00 0.9000E+01
       23  1    1    2    0    0 -.40602341E+02 -.63825596E+02 0.14789565E+04 0.14836947E+04 0.91188000E+02 0.0000E+00 0.9000E+01
        1  1    1    2  501    0 0.48731660E+02 -.26745250E+01 0.11795184E+03 0.12765056E+03 0.32000000E+00 0.0000E+00 0.9000E+01
       21  1    1    2  503  502 0.15381082E+02 0.24589899E+02 0.15798395E+03 0.16062606E+03 0.75000000E+00 0.0000E+00 0.9000E+01
#aMCatNLO 2  0  0  1  2 0.29004151D+02 0.00000000D+00  -5  6  0 0.00000000D+00 0.00000000D+00 0.00000000D+00 0.00000000D+00 0.00000000D+00
  <mgrwgt>
 -.2417128744D-01    2    2    0
 0.179273472815422D+03 0.000000000000000D+00 0.000000000000000D+00 0.179273472815422D+03
 0.179273472815422D+03 0.000000000000000D+00 0.000000000000000D+00 -.179273472815422D+03
 0.142731738912326D+03 -.174474031511824D+02 0.516035201688086D+02 -.421902135856615D+02
 0.144176942813087D+03 -.343071291111186D+02 -.537610506605088D+02 0.916761136772242D+02
 0.716382639054319D+02 0.517545322623010D+02 0.215753049170021D+01 -.494859000915627D+02
 0.000000000000000D+00 0.000000000000000D+00 0.000000000000000D+00 -.000000000000000D+00
 0.192839070011696D+03 0.000000000000000D+00 0.000000000000000D+00 0.192839070011696D+03
 0.196061724580612D+03 0.000000000000000D+00 0.000000000000000D+00 -.196061724580612D+03
 0.140407367516032D+03 -.235106041383296D+02 0.419102162178748D+02 -.421902135856615D+02
 0.149806669548950D+03 -.406025566525967D+02 -.638256176755204D+02 0.916761136772242D+02
 0.695041206808436D+02 0.487320792484912D+02 -.267449731050851D+01 -.494859000915627D+02
 0.291826368464821D+02 0.153810815424350D+02 0.245898987681541D+02 -.322265456891589D+01
-.629201027264D-05 0.000000000000D+00 0.000000000000D+00 0.288446796008D-06 0.000000000000D+00  6 1 21 25 23 1 21 4 0.37855746D+00 0.22480586D-02 0.27259385D+05 0.27259385D+05 0.27259385D+05 0.12192894D+01  1  2 13  1  6  1        1 -.277241717009D-01 0.100000000000D+01
0.809515651938D-06 0.000000000000D+00 0.000000000000D+00 0.292779892207D-06 0.333880817835D-08  6 1 21 25 23 1 21 4 0.36397932D+00 0.24585804D-02 0.27259385D+05 0.27259385D+05 0.27259385D+05 0.12192894D+01  1  2  1  1  6  1        1 0.355288426033D-02 0.100000000000D+01
  </mgrwgt>
  </event>
  <event>
  5     66 -.42756899E-03 0.39388450E+02 0.75467711E-02 0.12027237E+00
        3 -1    0    0  502    0 0.00000000E+00 0.00000000E+00 0.25046588E+02 0.25051578E+02 0.50000000E+00 0.0000E+00 0.9000E+01
       21 -1    0    0  501  502 -.00000000E+00 -.00000000E+00 -.14443213E+04 0.14443215E+04 0.75000000E+00 0.0000E+00 0.9000E+01
       25  1    1    2    0    0 -.84681142E+01 -.66989969E+02 -.35916064E+03 0.38623922E+03 0.12500000E+03 0.0000E+00 0.9000E+01
       23  1    1    2    0    0 0.45366339E+02 0.53207889E+02 -.28889658E+03 0.31091103E+03 0.91188000E+02 0.0000E+00 0.9000E+01
        3  1    1    2  501    0 -.36898225E+02 0.13782080E+02 -.77121749E+03 0.77222283E+03 0.50000000E+00 0.0000E+00 0.9000E+01
#aMCatNLO 1  0  0  5  2 0.32898016D+01 0.00000000D+00  -5  6  0 0.00000000D+00 0.00000000D+00 0.00000000D+00 0.00000000D+00 0.00000000D+00
  <mgrwgt>
 -.5579979878D-01    8    2    0
 0.190208121524605D+03 0.000000000000000D+00 0.000000000000000D+00 0.190208121524605D+03
 0.190208121524605D+03 -.000000000000000D+00 -.000000000000000D+00 -.190208121524605D+03
 0.151891390791598D+03 -.846794855504415D+01 -.669900313594521D+02 0.537273128151296D+02
 0.123077674300362D+03 0.453664736860102D+02 0.532078391320905D+02 0.440870898038880D+02
 0.105447177957249D+03 -.368985251309660D+02 0.137821922273616D+02 -.978144026190176D+02
 0.000000000000000D+00 0.000000000000000D+00 0.000000000000000D+00 -.000000000000000D+00
 0.190208121524605D+03 0.000000000000000D+00 0.000000000000000D+00 0.190208121524605D+03
 0.190208121524605D+03 -.000000000000000D+00 -.000000000000000D+00 -.190208121524605D+03
 0.151860837613796D+03 -.849715844406816D+01 -.669791209963945D+02 0.536498802392933D+02
 0.123050312613599D+03 0.453428051479349D+02 0.532166797114995D+02 0.440243468106524D+02
 0.597227425279516D+02 -.232117820799382D+02 0.978544786331132D+01 -.541503846509688D+02
 0.457823502938623D+02 -.136338646239285D+02 0.397699342158371D+01 -.435238423989769D+02
0.352854137698D-05 0.000000000000D+00 0.000000000000D+00 0.123107369090D-05 0.000000000000D+00  6 3 21 25 23 3 21 2 0.38537200D-02 0.22220368D+00 0.21958904D+05 0.21958904D+05 0.21958904D+05 0.12293833D+01  1  2  2  3  6  5        3 0.894306975765D-03 0.100000000000D+01
0.323180491642D-06 0.186206244191D-06 -.712310842229D-08 0.123107369090D-05 0.000000000000D+00  6 3 21 25 23 3 21 4 0.38537200D-02 0.22220368D+00 0.21958904D+05 0.21958904D+05 0.21958904D+05 0.12293833D+01  1  2  3  3  6  5        3 0.123797301963D-03 0.100000000000D+01
0.353567379608D-06 0.000000000000D+00 0.000000000000D+00 0.123107369090D-05 0.000000000000D+00  6 3 21 25 23 3 21 4 0.38537200D-02 0.22220368D+00 0.21958904D+05 0.21958904D+05 0.21958904D+05 0.12293833D+01  1  2 15  3  6  5        3 0.135437282849D-03 0.100000000000D+01
0.357575790010D-05 0.000000000000D+00 0.000000000000D+00 0.123107683258D-05 0.000000000000D+00  6 3 21 25 23 3 21 4 0.38537200D-02 0.22220368D+00 0.21958176D+05 0.21958176D+05 0.21958176D+05 0.12293849D+01  1  2 12  3  6  5        3 0.136973553269D-02 0.100000000000D+01
-.447481672956D-03 0.000000000000D+00 0.000000000000D+00 0.123107369090D-05 0.000000000000D+00  6 3 21 25 23 3 21 4 0.38537200D-02 0.22220368D+00 0.21958904D+05 0.21958904D+05 0.21958904D+05 0.12293833D+01  1  2  4  3  6  5        3 -.171412028951D+00 0.100000000000D+01
-.125121607314D-03 0.000000000000D+00 0.000000000000D+00 0.123107369090D-05 0.000000000000D+00  6 3 21 25 23 3 21 4 0.38537200D-02 0.22220368D+00 0.21958904D+05 0.21958904D+05 0.21958904D+05 0.12293833D+01  1  2  5  3  6  5        3 -.479289988207D-01 0.100000000000D+01
0.189555239052D-03 0.000000000000D+00 -.000000000000D+00 0.123107369090D-05 0.000000000000D+00  6 3 21 25 23 3 21 4 0.38537200D-02 0.22220368D+00 0.21958904D+05 0.21958904D+05 0.21958904D+05 0.12293833D+01  1  2  6  3  6  5        3 0.726109024972D-01 0.100000000000D+01
0.230790687520D-03 0.000000000000D+00 0.000000000000D+00 0.123107369090D-05 0.659301462118D-06  6 3 21 25 23 3 21 4 0.38537200D-02 0.22220368D+00 0.21958176D+05 0.21958176D+05 0.21958176D+05 0.12293849D+01  1  2 11  3  6  5        3 0.884070493982D-01 0.100000000000D+01
  </mgrwgt>
  </event>
  <event>
  5     66 -.42756899E-03 0.61000941E+02 0.75467711E-02 0.10531986E+00
        3 -1    0    0  502    0 0.00000000E+00 0.00000000E+00 0.11529122E+04 0.11529123E+04 0.50000000E+00 0.0000E+00 0.9000E+01
       21 -1    0    0  501  502 0.00000000E+00 0.00000000E+00 -.80730342E+02 0.80733825E+02 0.75000000E+00 0.0000E+00 0.9000E+01
       25  1    1    2    0    0 0.59089523E+02 -.22255905E+01 0.53560531E+03 0.55316777E+03 0.12500000E+03 0.0000E+00 0.9000E+01
       23  1    1    2    0    0 -.59166618E+02 -.58775230E+02 0.58790640E+03 0.60075320E+03 0.91188000E+02 0.0000E+00 0.9000E+01
        3  1    1    2  501    0 0.77095102E-01 0.61000821E+02 -.51329828E+02 0.79725199E+02 0.50000000E+00 0.0000E+00 0.9000E+01
#aMCatNLO 1  0  0  2  5 0.32021964D+01 0.00000000D+00  -5  6  0 0.00000000D+00 0.00000000D+00 0.00000000D+00 0.00000000D+00 0.00000000D+00
  <mgrwgt>
 -.2858528631D-02   12    2    0
 0.305085584171385D+03 0.000000000000000D+00 0.000000000000000D+00 0.305085584171385D+03
 0.305085584171385D+03 0.000000000000000D+00 0.000000000000000D+00 -.305085584171385D+03
 0.177240477272710D+03 0.590895226786363D+02 -.222562551875280D+01 0.110872276446906D+03
 0.181546357521578D+03 -.591666178699042D+02 -.587752663451198D+02 0.132998526237134D+03
 0.251384333548483D+03 0.770951912678307D-01 0.610008918638726D+02 -.243870802684041D+03
 0.000000000000000D+00 0.000000000000000D+00 0.000000000000000D+00 -.000000000000000D+00
 0.348789812414933D+03 0.000000000000000D+00 0.000000000000000D+00 0.348789812414933D+03
 0.485512000527316D+04 0.000000000000000D+00 0.000000000000000D+00 -.485512000527316D+04
 0.183986223491266D+03 0.118535420711135D+02 -.761101983339107D+02 0.110872276446906D+03
 0.246277786723004D+03 -.115111244715668D+03 -.146281544454320D+03 0.132998526237134D+03
 0.256332672721362D+03 -.663147595956296D+02 -.428465093384786D+02 -.243870802684041D+03
 0.451731313475246D+04 0.169572462240184D+03 0.265238252126710D+03 -.450633019285823D+04
0.269410648514D-05 0.000000000000D+00 0.000000000000D+00 0.257301934651D-05 0.000000000000D+00  6 3 21 25 23 3 21 2 0.17737139D+00 0.12420329D-01 0.26058885D+05 0.26058885D+05 0.26058885D+05 0.12213708D+01  1  2  2  2  6  2       21 0.245911831688D-03 0.100000000000D+01
0.293273242426D-06 0.142171905173D-06 -.543862478700D-08 0.257301934651D-05 0.000000000000D+00  6 3 21 25 23 3 21 4 0.17737139D+00 0.12420329D-01 0.26058885D+05 0.26058885D+05 0.26058885D+05 0.12213708D+01  1  2  3  2  6  2       21 0.399330232566D-04 0.100000000000D+01
0.372727031636D-06 0.000000000000D+00 0.000000000000D+00 0.257301934651D-05 0.000000000000D+00  6 3 21 25 23 3 21 4 0.17737139D+00 0.12420329D-01 0.26058885D+05 0.26058885D+05 0.26058885D+05 0.12213708D+01  1  2 15  2  6  2       21 0.507517054730D-04 0.100000000000D+01
-.438749519799D-02 0.000000000000D+00 -.214216717967D-03 0.257301934651D-05 0.000000000000D+00  6 3 21 25 23 3 21 4 0.17737139D+00 0.20517395D+00 0.26058885D+05 0.26058885D+05 0.26058885D+05 0.12213708D+01  1  2  5  2  6  2       21 -.139210013158D-02 0.100000000000D+01
-.193575629504D-02 0.000000000000D+00 -.946532513722D-04 0.257301934651D-05 0.000000000000D+00  6 3 -3 25 23 3 -3 4 0.17737139D+00 0.20517395D+00 0.26058885D+05 0.26058885D+05 0.26058885D+05 0.12213708D+01  1  2  5  5  6  2       21 -.355609986121D-04 0.100000000000D+01
-.193575629504D-02 0.000000000000D+00 -.946532513722D-04 0.257301934651D-05 0.000000000000D+00  6 3 3 25 23 3 3 4 0.17737139D+00 0.20517395D+00 0.26058885D+05 0.26058885D+05 0.26058885D+05 0.12213708D+01  1  2  5  6  6  2       21 -.357974820002D-04 0.100000000000D+01
-.193575629504D-02 0.000000000000D+00 -.946532513722D-04 0.257301934651D-05 0.000000000000D+00  6 3 -2 25 23 3 -2 4 0.17737139D+00 0.20517395D+00 0.26058885D+05 0.26058885D+05 0.26058885D+05 0.12213708D+01  1  2  5  7  6  2       21 -.539224870477D-04 0.100000000000D+01
-.193575629504D-02 0.000000000000D+00 -.946532513722D-04 0.257301934651D-05 0.000000000000D+00  6 3 -4 25 23 3 -4 4 0.17737139D+00 0.20517395D+00 0.26058885D+05 0.26058885D+05 0.26058885D+05 0.12213708D+01  1  2  5  7  6  2       21 -.272527747374D-04 0.100000000000D+01
-.193575629504D-02 0.000000000000D+00 -.946532513722D-04 0.257301934651D-05 0.000000000000D+00  6 3 2 25 23 3 2 4 0.17737139D+00 0.20517395D+00 0.26058885D+05 0.26058885D+05 0.26058885D+05 0.12213708D+01  1  2  5  8  6  2       21 -.104315789513D-02 0.100000000000D+01
-.193575629504D-02 0.000000000000D+00 -.946532513722D-04 0.257301934651D-05 0.000000000000D+00  6 3 4 25 23 3 4 4 0.17737139D+00 0.20517395D+00 0.26058885D+05 0.26058885D+05 0.26058885D+05 0.12213708D+01  1  2  5  8  6  2       21 -.272527747374D-04 0.100000000000D+01
-.193575629504D-02 0.000000000000D+00 -.946532513722D-04 0.257301934651D-05 0.000000000000D+00  6 3 -1 25 23 3 -1 4 0.17737139D+00 0.20517395D+00 0.26058885D+05 0.26058885D+05 0.26058885D+05 0.12213708D+01  1  2  5  9  6  2       21 -.714321755113D-04 0.100000000000D+01
-.193575629504D-02 0.000000000000D+00 -.946532513722D-04 0.257301934651D-05 0.000000000000D+00  6 3 1 25 23 3 1 4 0.17737139D+00 0.20517395D+00 0.26058885D+05 0.26058885D+05 0.26058885D+05 0.12213708D+01  1  2  5 10  6  2       21 -.508648472261D-03 0.100000000000D+01
  </mgrwgt>
  </event>
  <event>
  5     66 0.42756899E-03 0.40612554E+02 0.75467711E-02 0.10456809E+00
        1 -1    0    0  502    0 0.00000000E+00 0.00000000E+00 0.49465877E+03 0.49465887E+03 0.32000000E+00 0.0000E+00 0.9000E+01
       21 -1    0    0  501  502 0.00000000E+00 0.00000000E+00 -.57243684E+02 0.57248597E+02 0.75000000E+00 0.0000E+00 0.9000E+01
       25  1    1    2    0    0 0.11748573E+02 0.34302444E+01 0.37868767E+03 0.39897261E+03 0.12500000E+03 0.0000E+00 0.9000E+01
       23  1    1    2    0    0 -.23217756E+02 0.35528434E+02 0.40813070E+02 0.10854627E+03 0.91188000E+02 0.0000E+00 0.9000E+01
        1  1    1    2  501    0 0.11469183E+02 -.38958678E+02 0.17914348E+02 0.44388591E+02 0.32000000E+00 0.0000E+00 0.9000E+01
#aMCatNLO 1  0  0  2  5 0.35438923D+03 0.00000000D+00  -5  6  0 0.00000000D+00 0.00000000D+00 0.00000000D+00 0.00000000D+00 0.00000000D+00
  <mgrwgt>
 0.3444194180D-01    3    2    0
 0.168277967341579D+03 0.000000000000000D+00 0.000000000000000D+00 0.168277967341579D+03
 0.168277967341579D+03 0.000000000000000D+00 0.000000000000000D+00 -.168277967341579D+03
 0.162089925785345D+03 0.117484576675018D+02 0.343063635248336D+01 0.102461448934469D+03
 0.124957632984182D+03 -.232178454460227D+02 0.355287358851971D+02 -.741471461099762D+02
 0.495083759136300D+02 0.114693877785209D+02 -.389593722376805D+02 -.283143028244924D+02
 0.000000000000000D+00 -.000000000000000D+00 -.000000000000000D+00 0.000000000000000D+00
 0.107238940081978D+04 0.000000000000000D+00 0.000000000000000D+00 0.107238940081978D+04
 0.282286558120689D+03 0.000000000000000D+00 0.000000000000000D+00 -.282286558120689D+03
 0.239392321811953D+03 0.173297250195938D+02 0.175741332234373D+03 0.102461448934469D+03
 0.218059322827670D+03 -.184493423599113D+02 0.182746927247204D+03 -.741471461099762D+02
 0.312830745829007D+02 0.125925225813248D+02 -.428478540432211D+01 -.283143028244924D+02
 0.865941239717941D+03 -.114729052410073D+02 -.354203474077254D+03 0.790102842699088D+03
0.373371690982D-05 0.000000000000D+00 0.000000000000D+00 0.268226441192D-06 0.000000000000D+00  6 1 21 25 23 1 21 2 0.76101735D-01 0.88071065D-02 0.17794449D+05 0.17794449D+05 0.17794449D+05 0.12394521D+01  1  2  2  2  6  2       21 0.294198988908D-01 0.100000000000D+01
-.310029437722D-07 0.197033654525D-06 -.753729870940D-08 0.268226441192D-06 0.000000000000D+00  6 1 21 25 23 1 21 4 0.76101735D-01 0.88071065D-02 0.17794449D+05 0.17794449D+05 0.17794449D+05 0.12394521D+01  1  2  3  2  6  2       21 -.375285874924D-03 0.100000000000D+01
0.445881638764D-06 0.000000000000D+00 0.000000000000D+00 0.268226441192D-06 0.000000000000D+00  6 1 21 25 23 1 21 4 0.76101735D-01 0.88071065D-02 0.17794449D+05 0.17794449D+05 0.17794449D+05 0.12394521D+01  1  2 15  2  6  2       21 0.539732878740D-02 0.100000000000D+01
  </mgrwgt>
  </event>
  <event>
  5     66 0.42756899E-03 0.48310113E+02 0.75467711E-02 0.11760460E+00
        1 -1    0    0  502    0 0.00000000E+00 0.00000000E+00 0.10536395E+04 0.10536395E+04 0.32000000E+00 0.0000E+00 0.9000E+01
       21 -1    0    0  501  502 0.00000000E+00 0.00000000E+00 -.12350482E+03 0.12350709E+03 0.75000000E+00 0.0000E+00 0.9000E+01
       25  1    1    2    0    0 -.50322038E+02 -.80762923E+02 0.56712024E+02 0.16702159E+03 0.12500000E+03 0.0000E+00 0.9000E+01
       23  1    1    2    0    0 0.64615498E+02 0.27588612E+02 -.18423844E+02 0.11658037E+03 0.91188000E+02 0.0000E+00 0.9000E+01
        1  1    1    2  501    0 -.14293460E+02 0.53174312E+02 0.89184646E+03 0.89354464E+03 0.32000000E+00 0.0000E+00 0.9000E+01
#aMCatNLO 1  0  0  2  5 0.20054214D+02 0.00000000D+00  -5  6  0 0.00000000D+00 0.00000000D+00 0.00000000D+00 0.00000000D+00 0.00000000D+00
  <mgrwgt>
 0.1799336622D-01   32    2    0
 0.360736632673140D+03 0.000000000000000D+00 0.000000000000000D+00 0.360736632673140D+03
 0.360736632673140D+03 0.000000000000000D+00 0.000000000000000D+00 -.360736632673140D+03
 0.199396299636387D+03 -.503220363170544D+02 -.807629312119601D+02 -.122796278085457D+03
 0.213963404017270D+03 0.646155005159561D+02 0.275886032564531D+02 -.180357403446845D+03
 0.308113561692623D+03 -.142934641989017D+02 0.531743279555070D+02 0.303153681532302D+03
 0.000000000000000D+00 -.000000000000000D+00 0.000000000000000D+00 -.000000000000000D+00
 0.369684493667327D+03 0.000000000000000D+00 0.000000000000000D+00 0.369684493667327D+03
 0.372290225970862D+03 0.000000000000000D+00 0.000000000000000D+00 -.372290225970862D+03
 0.199589895293097D+03 -.457504145132916D+02 -.838993442365940D+02 -.122796278085457D+03
 0.215093242886653D+03 0.695316724210567D+02 0.242158077242842D+02 -.180357403446845D+03
 0.307068788808430D+03 -.724464626338971D+01 0.483384064094558D+02 0.303153681532302D+03
 0.202227926500092D+02 -.165366116443754D+02 0.113451301028540D+02 -.260573230353543D+01
0.389255184216D-05 0.000000000000D+00 0.000000000000D+00 0.715490750044D-07 0.000000000000D+00  6 1 21 25 23 1 21 2 0.16209856D+00 0.19000920D-01 0.26777365D+05 0.26777365D+05 0.26777365D+05 0.12201126D+01  1  2  2  2  6  2       21 0.244597097723D-02 0.100000000000D+01
-.301314329662D-06 0.205415604186D-06 -.785794067542D-08 0.715490750044D-07 0.000000000000D+00  6 1 21 25 23 1 21 4 0.16209856D+00 0.19000920D-01 0.26777365D+05 0.26777365D+05 0.26777365D+05 0.12201126D+01  1  2  3  2  6  2       21 -.281861980866D-03 0.100000000000D+01
0.442284342344D-06 0.000000000000D+00 0.000000000000D+00 0.715490750044D-07 0.000000000000D+00  6 1 21 25 23 1 21 4 0.16209856D+00 0.19000920D-01 0.26777365D+05 0.26777365D+05 0.26777365D+05 0.12201126D+01  1  2 15  2  6  2       21 0.413731205479D-03 0.100000000000D+01
0.928034442080D-05 0.000000000000D+00 0.000000000000D+00 0.710294383405D-07 0.000000000000D+00  6 1 21 25 23 1 21 4 0.16209856D+00 0.19838465D-01 0.29494406D+05 0.29494406D+05 0.29494406D+05 0.12156739D+01  1  2 12  2  6  2       21 0.786817962202D-02 0.100000000000D+01
0.882167966774D-05 0.000000000000D+00 0.000000000000D+00 0.710294383405D-07 0.000000000000D+00  6 1 21 25 23 1 21 4 0.16209856D+00 0.19880524D-01 0.29494406D+05 0.29494406D+05 0.29494406D+05 0.12156739D+01  1  2 12  2  6  2       21 0.744988277534D-02 0.100000000000D+01
-.101379527169D-04 0.000000000000D+00 0.000000000000D+00 0.715490750044D-07 0.000000000000D+00  6 1 21 25 23 1 21 4 0.16209856D+00 0.19000920D-01 0.26777365D+05 0.26777365D+05 0.26777365D+05 0.12201126D+01  1  2  4  2  6  2       21 -.948346345793D-02 0.100000000000D+01
-.101549745145D-03 0.000000000000D+00 -.219405927301D-04 0.715490750044D-07 0.000000000000D+00  6 1 21 25 23 1 21 4 0.16209856D+00 0.20097807D-01 0.26777365D+05 0.26777365D+05 0.26777365D+05 0.12201126D+01  1  2  5  2  6  2       21 -.855948476640D-01 0.100000000000D+01
0.102158163572D-03 0.000000000000D+00 0.218029889284D-04 0.715490750044D-07 0.000000000000D+00  6 1 21 25 23 1 21 4 0.16209856D+00 0.19000920D-01 0.26777365D+05 0.26777365D+05 0.26777365D+05 0.12201126D+01  1  2  6  2  6  2       21 0.955630035201D-01 0.100000000000D+01
0.160823172748D-06 0.000000000000D+00 0.000000000000D+00 0.710294383405D-07 0.000000000000D+00  6 1 -1 25 23 1 -1 4 0.16209856D+00 0.19838465D-01 0.29494406D+05 0.29494406D+05 0.29494406D+05 0.12156739D+01  1  2 12  5  6  2       21 0.107199115571D-04 0.100000000000D+01
0.160860021501D-06 0.000000000000D+00 0.000000000000D+00 0.710294383405D-07 0.000000000000D+00  6 1 -1 25 23 1 -1 4 0.16209856D+00 0.19880524D-01 0.29494406D+05 0.29494406D+05 0.29494406D+05 0.12156739D+01  1  2 12  5  6  2       21 0.106857787104D-04 0.100000000000D+01
-.109954804237D-05 0.000000000000D+00 -.296726749353D-06 0.715490750044D-07 0.000000000000D+00  6 1 -1 25 23 1 -1 4 0.16209856D+00 0.20097807D-01 0.26777365D+05 0.26777365D+05 0.26777365D+05 0.12201126D+01  1  2  5  5  6  2       21 -.729489252765D-04 0.100000000000D+01
0.160823172748D-06 0.000000000000D+00 0.000000000000D+00 0.710294383405D-07 0.000000000000D+00  6 1 1 25 23 1 1 4 0.16209856D+00 0.19838465D-01 0.29494406D+05 0.29494406D+05 0.29494406D+05 0.12156739D+01  1  2 12  6  6  2       21 0.160757351341D-04 0.100000000000D+01
0.160860021501D-06 0.000000000000D+00 0.000000000000D+00 0.710294383405D-07 0.000000000000D+00  6 1 1 25 23 1 1 4 0.16209856D+00 0.19880524D-01 0.29494406D+05 0.29494406D+05 0.29494406D+05 0.12156739D+01  1  2 12  6  6  2       21 0.160358844935D-04 0.100000000000D+01
-.109954804237D-05 0.000000000000D+00 -.296726749353D-06 0.715490750044D-07 0.000000000000D+00  6 1 1 25 23 1 1 4 0.16209856D+00 0.20097807D-01 0.26777365D+05 0.26777365D+05 0.26777365D+05 0.12201126D+01  1  2  5  6  6  2       21 -.109878927841D-03 0.100000000000D+01
0.160823172748D-06 0.000000000000D+00 0.000000000000D+00 0.710294383405D-07 0.000000000000D+00  6 1 -2 25 23 1 -2 4 0.16209856D+00 0.19838465D-01 0.29494406D+05 0.29494406D+05 0.29494406D+05 0.12156739D+01  1  2 12  7  6  2       21 0.981434892355D-05 0.100000000000D+01
0.160823172748D-06 0.000000000000D+00 0.000000000000D+00 0.710294383405D-07 0.000000000000D+00  6 1 -4 25 23 1 -4 4 0.16209856D+00 0.19838465D-01 0.29494406D+05 0.29494406D+05 0.29494406D+05 0.12156739D+01  1  2 12  7  6  2       21 0.553349425344D-05 0.100000000000D+01
0.160860021501D-06 0.000000000000D+00 0.000000000000D+00 0.710294383405D-07 0.000000000000D+00  6 1 -2 25 23 1 -2 4 0.16209856D+00 0.19880524D-01 0.29494406D+05 0.29494406D+05 0.29494406D+05 0.12156739D+01  1  2 12  7  6  2       21 0.978132590811D-05 0.100000000000D+01
0.160860021501D-06 0.000000000000D+00 0.000000000000D+00 0.710294383405D-07 0.000000000000D+00  6 1 -4 25 23 1 -4 4 0.16209856D+00 0.19880524D-01 0.29494406D+05 0.29494406D+05 0.29494406D+05 0.12156739D+01  1  2 12  7  6  2       21 0.551362857378D-05 0.100000000000D+01
-.109954804237D-05 0.000000000000D+00 -.296726749353D-06 0.715490750044D-07 0.000000000000D+00  6 1 -2 25 23 1 -2 4 0.16209856D+00 0.20097807D-01 0.26777365D+05 0.26777365D+05 0.26777365D+05 0.12201126D+01  1  2  5  7  6  2       21 -.667057350133D-04 0.100000000000D+01
-.109954804237D-05 0.000000000000D+00 -.296726749353D-06 0.715490750044D-07 0.000000000000D+00  6 1 -4 25 23 1 -4 4 0.16209856D+00 0.20097807D-01 0.26777365D+05 0.26777365D+05 0.26777365D+05 0.12201126D+01  1  2  5  7  6  2       21 -.374436357234D-04 0.100000000000D+01
0.160823172748D-06 0.000000000000D+00 0.000000000000D+00 0.710294383405D-07 0.000000000000D+00  6 1 2 25 23 1 2 4 0.16209856D+00 0.19838465D-01 0.29494406D+05 0.29494406D+05 0.29494406D+05 0.12156739D+01  1  2 12  8  6  2       21 0.198452697269D-04 0.100000000000D+01
0.160823172748D-06 0.000000000000D+00 0.000000000000D+00 0.710294383405D-07 0.000000000000D+00  6 1 4 25 23 1 4 4 0.16209856D+00 0.19838465D-01 0.29494406D+05 0.29494406D+05 0.29494406D+05 0.12156739D+01  1  2 12  8  6  2       21 0.553349425344D-05 0.100000000000D+01
0.160860021501D-06 0.000000000000D+00 0.000000000000D+00 0.710294383405D-07 0.000000000000D+00  6 1 2 25 23 1 2 4 0.16209856D+00 0.19880524D-01 0.29494406D+05 0.29494406D+05 0.29494406D+05 0.12156739D+01  1  2 12  8  6  2       21 0.198019887293D-04 0.100000000000D+01
0.160860021501D-06 0.000000000000D+00 0.000000000000D+00 0.710294383405D-07 0.000000000000D+00  6 1 4 25 23 1 4 4 0.16209856D+00 0.19880524D-01 0.29494406D+05 0.29494406D+05 0.29494406D+05 0.12156739D+01  1  2 12  8  6  2       21 0.551362857378D-05 0.100000000000D+01
-.109954804237D-05 0.000000000000D+00 -.296726749353D-06 0.715490750044D-07 0.000000000000D+00  6 1 2 25 23 1 2 4 0.16209856D+00 0.20097807D-01 0.26777365D+05 0.26777365D+05 0.26777365D+05 0.12201126D+01  1  2  5  8  6  2       21 -.135876603126D-03 0.100000000000D+01
-.109954804237D-05 0.000000000000D+00 -.296726749353D-06 0.715490750044D-07 0.000000000000D+00  6 1 4 25 23 1 4 4 0.16209856D+00 0.20097807D-01 0.26777365D+05 0.26777365D+05 0.26777365D+05 0.12201126D+01  1  2  5  8  6  2       21 -.374436357234D-04 0.100000000000D+01
0.160823172748D-06 0.000000000000D+00 0.000000000000D+00 0.710294383405D-07 0.000000000000D+00  6 1 -3 25 23 1 -3 4 0.16209856D+00 0.19838465D-01 0.29494406D+05 0.29494406D+05 0.29494406D+05 0.12156739D+01  1  2 12  9  6  2       21 0.646300871400D-05 0.100000000000D+01
0.160860021501D-06 0.000000000000D+00 0.000000000000D+00 0.710294383405D-07 0.000000000000D+00  6 1 -3 25 23 1 -3 4 0.16209856D+00 0.19880524D-01 0.29494406D+05 0.29494406D+05 0.29494406D+05 0.12156739D+01  1  2 12  9  6  2       21 0.644032063575D-05 0.100000000000D+01
-.109954804237D-05 0.000000000000D+00 -.296726749353D-06 0.715490750044D-07 0.000000000000D+00  6 1 -3 25 23 1 -3 4 0.16209856D+00 0.20097807D-01 0.26777365D+05 0.26777365D+05 0.26777365D+05 0.12201126D+01  1  2  5  9  6  2       21 -.437975867883D-04 0.100000000000D+01
0.160823172748D-06 0.000000000000D+00 0.000000000000D+00 0.710294383405D-07 0.000000000000D+00  6 1 3 25 23 1 3 4 0.16209856D+00 0.19838465D-01 0.29494406D+05 0.29494406D+05 0.29494406D+05 0.12156739D+01  1  2 12 10  6  2       21 0.646243828024D-05 0.100000000000D+01
0.160860021501D-06 0.000000000000D+00 0.000000000000D+00 0.710294383405D-07 0.000000000000D+00  6 1 3 25 23 1 3 4 0.16209856D+00 0.19880524D-01 0.29494406D+05 0.29494406D+05 0.29494406D+05 0.12156739D+01  1  2 12 10  6  2       21 0.643975433696D-05 0.100000000000D+01
-.109954804237D-05 0.000000000000D+00 -.296726749353D-06 0.715490750044D-07 0.000000000000D+00  6 1 3 25 23 1 3 4 0.16209856D+00 0.20097807D-01 0.26777365D+05 0.26777365D+05 0.26777365D+05 0.12201126D+01  1  2  5 10  6  2       21 -.437937435919D-04 0.100000000000D+01
  </mgrwgt>
  </event>
  <event>
  6     66 0.42756899E-03 0.40455625E+02 0.75467711E-02 0.12108015E+00
        3 -1    0    0  502    0 0.00000000E+00 0.00000000E+00 0.12258580E+03 0.12258682E+03 0.50000000E+00 0.0000E+00 0.9000E+01
       21 -1    0    0  501  502 -.00000000E+00 -.00000000E+00 -.38810229E+03 0.38810302E+03 0.75000000E+00 0.0000E+00 0.9000E+01
       25  1    1    2    0    0 -.21649769E+02 0.31596705E+02 -.29378094E+03 0.32155762E+03 0.12500000E+03 0.0000E+00 0.9000E+01
       23  1    1    2    0    0 0.18356173E+02 0.85654943E+01 0.66666133E+02 0.11476036E+03 0.91188000E+02 0.0000E+00 0.9000E+01
        3  1    1    2  503    0 0.15087862E+02 -.44655705E+02 -.18179627E+02 0.50522514E+02 0.50000000E+00 0.0000E+00 0.9000E+01
       21  1    1    2  501  503 -.11794265E+02 0.44935053E+01 -.20222066E+02 0.23849334E+02 0.75000000E+00 0.0000E+00 0.9000E+01
#aMCatNLO 2  0  0  5  2 0.14891242D+02 0.00000000D+00  -5  6  0 0.00000000D+00 0.00000000D+00 0.00000000D+00 0.00000000D+00 0.00000000D+00
  <mgrwgt>
 0.4500255115D-02    3    2    0
 0.218119860703282D+03 0.000000000000000D+00 0.000000000000000D+00 0.218119860703282D+03
 0.218119860703282D+03 -.000000000000000D+00 -.000000000000000D+00 -.218119860703282D+03
 0.199823811372531D+03 -.225447266840499D+02 0.425098377942619D+02 -.148287573926111D+03
 0.175512818758036D+03 0.175670822555069D+02 0.181876819400905D+02 0.147817806948505D+03
 0.609030912759964D+02 0.497764442854304D+01 -.606975197343523D+02 0.469766977605536D+00
 0.000000000000000D+00 0.000000000000000D+00 0.000000000000000D+00 -.000000000000000D+00
 0.218119860703282D+03 0.000000000000000D+00 0.000000000000000D+00 0.218119860703282D+03
 0.218119860703282D+03 -.000000000000000D+00 -.000000000000000D+00 -.218119860703282D+03
 0.197597707465534D+03 -.216362275900579D+02 0.314315772881442D+02 -.148201833998386D+03
 0.174917083519123D+03 0.183681592823809D+02 0.841932878722163D+01 0.147893408880131D+03
 0.478533757628082D+02 0.152977014629304D+02 -.443021942368597D+02 0.965616319493030D+01
 0.158715546590984D+02 -.120296331552534D+02 0.445128816149398D+01 -.934773807667507D+01
-.874946503827D-05 0.000000000000D+00 0.000000000000D+00 0.481015013537D-07 0.000000000000D+00  6 3 21 25 23 3 21 4 0.18859487D-01 0.59708179D-01 0.20134215D+05 0.20134215D+05 0.20134215D+05 0.12335064D+01  1  2 13  3  6  5        3 -.648496075444D-02 0.100000000000D+01
-.177795256429D-05 0.000000000000D+00 0.000000000000D+00 0.479542453839D-07 0.000000000000D+00  6 3 21 25 23 3 21 4 0.18859487D-01 0.59708179D-01 0.20948490D+05 0.20948490D+05 0.20948490D+05 0.12316168D+01  1  2  8  3  6  5        3 -.131021656136D-02 0.100000000000D+01
0.165889139896D-04 0.000000000000D+00 0.000000000000D+00 0.479542453839D-07 0.442104739018D-08  6 3 21 25 23 3 21 4 0.18859487D-01 0.59708179D-01 0.20134215D+05 0.20134215D+05 0.20134215D+05 0.12335064D+01  1  2  1  3  6  5        3 0.122954324305D-01 0.100000000000D+01
  </mgrwgt>
  </event>
  <event>
  5     66 0.42756899E-03 0.37674847E+02 0.75467711E-02 0.10418969E+00
        3 -1    0    0  502    0 0.00000000E+00 0.00000000E+00 0.31106854E+03 0.31106894E+03 0.50000000E+00 0.0000E+00 0.9000E+01
       21 -1    0    0  501  502 0.00000000E+00 0.00000000E+00 -.96932174E+02 0.96935075E+02 0.75000000E+00 0.0000E+00 0.9000E+01
       25  1    1    2    0    0 0.80644376E+02 -.11566650E+01 0.12773219E+03 0.19607490E+03 0.12500000E+03 0.0000E+00 0.9000E+01
       23  1    1    2    0    0 -.10520155E+03 0.29726456E+02 0.97623978E+02 0.17261726E+03 0.91188000E+02 0.0000E+00 0.9000E+01
        3  1    1    2  501    0 0.24557170E+02 -.28569790E+02 -.11219807E+02 0.39311851E+02 0.50000000E+00 0.0000E+00 0.9000E+01
#aMCatNLO 1  0  0  2  2 0.20398815D+02 0.00000000D+00  -5  6  0 0.00000000D+00 0.00000000D+00 0.00000000D+00 0.00000000D+00 0.00000000D+00
  <mgrwgt>
 0.6018260971D-02    3    2    0
 0.173646835256530D+03 0.000000000000000D+00 0.000000000000000D+00 0.173646835256530D+03
 0.173646835256530D+03 0.000000000000000D+00 0.000000000000000D+00 -.173646835256530D+03
 0.151592737145787D+03 0.806439009664365D+02 -.115611216543426D+01 0.291647492176460D+02
 0.142599371093014D+03 -.105201993268999D+03 0.297269755566963D+02 0.825692609898777D+01
 0.531015622742580D+02 0.245580923025627D+02 -.285708633912620D+02 -.374216753166338D+02
 0.000000000000000D+00 0.000000000000000D+00 0.000000000000000D+00 0.000000000000000D+00
 0.545911807013305D+03 0.000000000000000D+00 0.000000000000000D+00 0.545911807013305D+03
 0.338193220896281D+03 0.000000000000000D+00 0.000000000000000D+00 -.338193220896281D+03
 0.143171416558138D+03 -.251605161636967D+02 -.582187285047694D+02 0.291647492176460D+02
 0.276280979836997D+03 -.255557424282269D+03 -.513629685795028D+02 0.825692609898777D+01
 0.664104568940820D+02 -.183402702332450D+02 -.517068804816992D+02 -.374216753166338D+02
 0.398242174620370D+03 0.299058210679211D+03 0.161288577565971D+03 0.207718586117024D+03
0.380669107286D-05 0.000000000000D+00 0.000000000000D+00 0.436946444974D-06 0.000000000000D+00  6 3 21 25 23 3 21 2 0.47856952D-01 0.14912896D-01 0.27026664D+05 0.27026664D+05 0.27026664D+05 0.12196848D+01  1  2  2  2  6  2       21 0.480631839508D-02 0.100000000000D+01
0.169672450456D-06 0.200884606908D-06 -.768461251979D-08 0.436946444974D-06 0.000000000000D+00  6 3 21 25 23 3 21 4 0.47856952D-01 0.14912896D-01 0.27026664D+05 0.27026664D+05 0.27026664D+05 0.12196848D+01  1  2  3  2  6  2       21 0.318692218293D-03 0.100000000000D+01
0.475568489975D-06 0.000000000000D+00 0.000000000000D+00 0.436946444974D-06 0.000000000000D+00  6 3 21 25 23 3 21 4 0.47856952D-01 0.14912896D-01 0.27026664D+05 0.27026664D+05 0.27026664D+05 0.12196848D+01  1  2 15  2  6  2       21 0.893250357453D-03 0.100000000000D+01
  </mgrwgt>
  </event>
  <event>
  5     66 0.42756899E-03 0.67365644E+02 0.75467711E-02 0.11810954E+00
        1 -1    0    0  502    0 0.00000000E+00 0.00000000E+00 0.13331983E+03 0.13332021E+03 0.32000000E+00 0.0000E+00 0.9000E+01
       21 -1    0    0  501  502 0.00000000E+00 0.00000000E+00 -.22292281E+03 0.22292407E+03 0.75000000E+00 0.0000E+00 0.9000E+01
       25  1    1    2    0    0 -.16363334E+02 -.20572928E+02 -.55140103E+02 0.13912741E+03 0.12500000E+03 0.0000E+00 0.9000E+01
       23  1    1    2    0    0 0.83737924E+02 0.29521119E+02 0.21496853E+02 0.12907712E+03 0.91188000E+02 0.0000E+00 0.9000E+01
        1  1    1    2  501    0 -.67374589E+02 -.89481910E+01 -.55959735E+02 0.88039762E+02 0.32000000E+00 0.0000E+00 0.9000E+01
#aMCatNLO 1  0  0  2  1 0.10728562D+02 0.00000000D+00  -5  6  0 0.00000000D+00 0.00000000D+00 0.00000000D+00 0.00000000D+00 0.00000000D+00
  <mgrwgt>
 0.1560715409D-01   32    2    0
 0.172395835307521D+03 0.000000000000000D+00 0.000000000000000D+00 0.172395835307521D+03
 0.172395835307521D+03 0.000000000000000D+00 0.000000000000000D+00 -.172395835307521D+03
 0.129419042276601D+03 -.163631124856707D+02 -.205728987275612D+02 -.208156885910483D+02
 0.138951258696085D+03 0.837381615626365D+02 0.295211508197459D+02 0.557550257969087D+02
 0.764213696423563D+02 -.673750490769658D+02 -.894825209218468D+01 -.349393372058604D+02
 0.000000000000000D+00 0.000000000000000D+00 0.000000000000000D+00 -.000000000000000D+00
 0.173847325957699D+03 0.000000000000000D+00 0.000000000000000D+00 0.173847325957699D+03
 0.193513183509362D+03 0.000000000000000D+00 0.000000000000000D+00 -.193513183509362D+03
 0.130214091947764D+03 -.172070130624676D+02 -.245221441095431D+02 -.208156885910483D+02
 0.137575717706257D+03 0.828393499545457D+02 0.253149354312022D+02 0.557550257969087D+02
 0.771687359118221D+02 -.678742718709081D+02 -.112844909427845D+02 -.349393372058604D+02
 0.224019639012193D+02 0.224193497882993D+01 0.104916996211253D+02 -.196658575516633D+02
0.474001219322D-06 0.000000000000D+00 0.000000000000D+00 0.224403955020D-06 0.000000000000D+00  6 1 21 25 23 1 21 2 0.20510869D-01 0.34295944D-01 0.26078273D+05 0.26078273D+05 0.26078273D+05 0.12213364D+01  1  2  2  2  6  2       21 0.154433138232D-02 0.100000000000D+01
-.167830919155D-07 0.250137315571D-07 -.956871896006D-09 0.224403955020D-06 0.000000000000D+00  6 1 21 25 23 1 21 4 0.20510869D-01 0.34295944D-01 0.26078273D+05 0.26078273D+05 0.26078273D+05 0.12213364D+01  1  2  3  2  6  2       21 -.815649524688D-04 0.100000000000D+01
0.585798008424D-07 0.000000000000D+00 0.000000000000D+00 0.224403955020D-06 0.000000000000D+00  6 1 21 25 23 1 21 4 0.20510869D-01 0.34295944D-01 0.26078273D+05 0.26078273D+05 0.26078273D+05 0.12213364D+01  1  2 15  2  6  2       21 0.284694780639D-03 0.100000000000D+01
0.490672231499D-05 0.000000000000D+00 0.000000000000D+00 0.223282551069D-06 0.000000000000D+00  6 1 21 25 23 1 21 4 0.20510869D-01 0.38630492D-01 0.27863203D+05 0.27863203D+05 0.27863203D+05 0.12182809D+01  1  2 12  2  6  2       21 0.186280585277D-01 0.100000000000D+01
0.388182224780D-05 0.000000000000D+00 0.000000000000D+00 0.223282551069D-06 0.000000000000D+00  6 1 21 25 23 1 21 4 0.20510869D-01 0.39708619D-01 0.27863203D+05 0.27863203D+05 0.27863203D+05 0.12182809D+01  1  2 12  2  6  2       21 0.139452207431D-01 0.100000000000D+01
-.644322981274D-05 0.000000000000D+00 0.000000000000D+00 0.224403955020D-06 0.000000000000D+00  6 1 21 25 23 1 21 4 0.20510869D-01 0.34295944D-01 0.26078273D+05 0.26078273D+05 0.26078273D+05 0.12213364D+01  1  2  4  2  6  2       21 -.313137612584D-01 0.100000000000D+01
-.139604095133D-04 0.000000000000D+00 -.128687708516D-05 0.224403955020D-06 0.000000000000D+00  6 1 21 25 23 1 21 4 0.20510869D-01 0.38714318D-01 0.26078273D+05 0.26078273D+05 0.26078273D+05 0.12213364D+01  1  2  5  2  6  2       21 -.533342700313D-01 0.100000000000D+01
0.136525038138D-04 0.000000000000D+00 0.124985331038D-05 0.224403955020D-06 0.000000000000D+00  6 1 21 25 23 1 21 4 0.20510869D-01 0.34295944D-01 0.26078273D+05 0.26078273D+05 0.26078273D+05 0.12213364D+01  1  2  6  2  6  2       21 0.663504573685D-01 0.100000000000D+01
0.152816426320D-06 0.000000000000D+00 0.000000000000D+00 0.223282551069D-06 0.000000000000D+00  6 1 -1 25 23 1 -1 4 0.20510869D-01 0.38630492D-01 0.27863203D+05 0.27863203D+05 0.27863203D+05 0.12182809D+01  1  2 12  5  6  2       21 0.538717127613D-04 0.100000000000D+01
0.153865778114D-06 0.000000000000D+00 0.000000000000D+00 0.223282551069D-06 0.000000000000D+00  6 1 -1 25 23 1 -1 4 0.20510869D-01 0.39708619D-01 0.27863203D+05 0.27863203D+05 0.27863203D+05 0.12182809D+01  1  2 12  5  6  2       21 0.516832218370D-04 0.100000000000D+01
-.436716883239D-06 0.000000000000D+00 -.409180864812D-07 0.224403955020D-06 0.000000000000D+00  6 1 -1 25 23 1 -1 4 0.20510869D-01 0.38714318D-01 0.26078273D+05 0.26078273D+05 0.26078273D+05 0.12213364D+01  1  2  5  5  6  2       21 -.154767020686D-03 0.100000000000D+01
0.152816426320D-06 0.000000000000D+00 0.000000000000D+00 0.223282551069D-06 0.000000000000D+00  6 1 1 25 23 1 1 4 0.20510869D-01 0.38630492D-01 0.27863203D+05 0.27863203D+05 0.27863203D+05 0.12182809D+01  1  2 12  6  6  2       21 0.106656478269D-03 0.100000000000D+01
0.153865778114D-06 0.000000000000D+00 0.000000000000D+00 0.223282551069D-06 0.000000000000D+00  6 1 1 25 23 1 1 4 0.20510869D-01 0.39708619D-01 0.27863203D+05 0.27863203D+05 0.27863203D+05 0.12182809D+01  1  2 12  6  6  2       21 0.103773047788D-03 0.100000000000D+01
-.436716883239D-06 0.000000000000D+00 -.409180864812D-07 0.224403955020D-06 0.000000000000D+00  6 1 1 25 23 1 1 4 0.20510869D-01 0.38714318D-01 0.26078273D+05 0.26078273D+05 0.26078273D+05 0.12213364D+01  1  2  5  6  6  2       21 -.306729634235D-03 0.100000000000D+01
0.152816426320D-06 0.000000000000D+00 0.000000000000D+00 0.223282551069D-06 0.000000000000D+00  6 1 -2 25 23 1 -2 4 0.20510869D-01 0.38630492D-01 0.27863203D+05 0.27863203D+05 0.27863203D+05 0.12182809D+01  1  2 12  7  6  2       21 0.457992430679D-04 0.100000000000D+01
0.152816426320D-06 0.000000000000D+00 0.000000000000D+00 0.223282551069D-06 0.000000000000D+00  6 1 -4 25 23 1 -4 4 0.20510869D-01 0.38630492D-01 0.27863203D+05 0.27863203D+05 0.27863203D+05 0.12182809D+01  1  2 12  7  6  2       21 0.242003678251D-04 0.100000000000D+01
0.153865778114D-06 0.000000000000D+00 0.000000000000D+00 0.223282551069D-06 0.000000000000D+00  6 1 -2 25 23 1 -2 4 0.20510869D-01 0.39708619D-01 0.27863203D+05 0.27863203D+05 0.27863203D+05 0.12182809D+01  1  2 12  7  6  2       21 0.437729798426D-04 0.100000000000D+01
0.153865778114D-06 0.000000000000D+00 0.000000000000D+00 0.223282551069D-06 0.000000000000D+00  6 1 -4 25 23 1 -4 4 0.20510869D-01 0.39708619D-01 0.27863203D+05 0.27863203D+05 0.27863203D+05 0.12182809D+01  1  2 12  7  6  2       21 0.230804728394D-04 0.100000000000D+01
-.436716883239D-06 0.000000000000D+00 -.409180864812D-07 0.224403955020D-06 0.000000000000D+00  6 1 -2 25 23 1 -2 4 0.20510869D-01 0.38714318D-01 0.26078273D+05 0.26078273D+05 0.26078273D+05 0.12213364D+01  1  2  5  7  6  2       21 -.131517949909D-03 0.100000000000D+01
-.436716883239D-06 0.000000000000D+00 -.409180864812D-07 0.224403955020D-06 0.000000000000D+00  6 1 -4 25 23 1 -4 4 0.20510869D-01 0.38714318D-01 0.26078273D+05 0.26078273D+05 0.26078273D+05 0.12213364D+01  1  2  5  7  6  2       21 -.693388423036D-04 0.100000000000D+01
0.152816426320D-06 0.000000000000D+00 0.000000000000D+00 0.223282551069D-06 0.000000000000D+00  6 1 2 25 23 1 2 4 0.20510869D-01 0.38630492D-01 0.27863203D+05 0.27863203D+05 0.27863203D+05 0.12182809D+01  1  2 12  8  6  2       21 0.146219136133D-03 0.100000000000D+01
0.152816426320D-06 0.000000000000D+00 0.000000000000D+00 0.223282551069D-06 0.000000000000D+00  6 1 4 25 23 1 4 4 0.20510869D-01 0.38630492D-01 0.27863203D+05 0.27863203D+05 0.27863203D+05 0.12182809D+01  1  2 12  8  6  2       21 0.242003678251D-04 0.100000000000D+01
0.153865778114D-06 0.000000000000D+00 0.000000000000D+00 0.223282551069D-06 0.000000000000D+00  6 1 2 25 23 1 2 4 0.20510869D-01 0.39708619D-01 0.27863203D+05 0.27863203D+05 0.27863203D+05 0.12182809D+01  1  2 12  8  6  2       21 0.142944346336D-03 0.100000000000D+01
0.153865778114D-06 0.000000000000D+00 0.000000000000D+00 0.223282551069D-06 0.000000000000D+00  6 1 4 25 23 1 4 4 0.20510869D-01 0.39708619D-01 0.27863203D+05 0.27863203D+05 0.27863203D+05 0.12182809D+01  1  2 12  8  6  2       21 0.230804728394D-04 0.100000000000D+01
-.436716883239D-06 0.000000000000D+00 -.409180864812D-07 0.224403955020D-06 0.000000000000D+00  6 1 2 25 23 1 2 4 0.20510869D-01 0.38714318D-01 0.26078273D+05 0.26078273D+05 0.26078273D+05 0.12213364D+01  1  2  5  8  6  2       21 -.420589431601D-03 0.100000000000D+01
-.436716883239D-06 0.000000000000D+00 -.409180864812D-07 0.224403955020D-06 0.000000000000D+00  6 1 4 25 23 1 4 4 0.20510869D-01 0.38714318D-01 0.26078273D+05 0.26078273D+05 0.26078273D+05 0.12213364D+01  1  2  5  8  6  2       21 -.693388423036D-04 0.100000000000D+01
0.152816426320D-06 0.000000000000D+00 0.000000000000D+00 0.223282551069D-06 0.000000000000D+00  6 1 -3 25 23 1 -3 4 0.20510869D-01 0.38630492D-01 0.27863203D+05 0.27863203D+05 0.27863203D+05 0.12182809D+01  1  2 12  9  6  2       21 0.290416308748D-04 0.100000000000D+01
0.153865778114D-06 0.000000000000D+00 0.000000000000D+00 0.223282551069D-06 0.000000000000D+00  6 1 -3 25 23 1 -3 4 0.20510869D-01 0.39708619D-01 0.27863203D+05 0.27863203D+05 0.27863203D+05 0.12182809D+01  1  2 12  9  6  2       21 0.277291444528D-04 0.100000000000D+01
-.436716883239D-06 0.000000000000D+00 -.409180864812D-07 0.224403955020D-06 0.000000000000D+00  6 1 -3 25 23 1 -3 4 0.20510869D-01 0.38714318D-01 0.26078273D+05 0.26078273D+05 0.26078273D+05 0.12213364D+01  1  2  5  9  6  2       21 -.832750605772D-04 0.100000000000D+01
0.152816426320D-06 0.000000000000D+00 0.000000000000D+00 0.223282551069D-06 0.000000000000D+00  6 1 3 25 23 1 3 4 0.20510869D-01 0.38630492D-01 0.27863203D+05 0.27863203D+05 0.27863203D+05 0.12182809D+01  1  2 12 10  6  2       21 0.290466493974D-04 0.100000000000D+01
0.153865778114D-06 0.000000000000D+00 0.000000000000D+00 0.223282551069D-06 0.000000000000D+00  6 1 3 25 23 1 3 4 0.20510869D-01 0.39708619D-01 0.27863203D+05 0.27863203D+05 0.27863203D+05 0.12182809D+01  1  2 12 10  6  2       21 0.277345159391D-04 0.100000000000D+01
-.436716883239D-06 0.000000000000D+00 -.409180864812D-07 0.224403955020D-06 0.000000000000D+00  6 1 3 25 23 1 3 4 0.20510869D-01 0.38714318D-01 0.26078273D+05 0.26078273D+05 0.26078273D+05 0.12213364D+01  1  2  5 10  6  2       21 -.832894780258D-04 0.100000000000D+01
  </mgrwgt>
  </event>
  <event>
  5     66 -.42756899E-03 0.15297759E+03 0.75467711E-02 0.11193706E+00
        1 -1    0    0  502    0 0.00000000E+00 0.00000000E+00 0.41806998E+03 0.41807011E+03 0.32000000E+00 0.0000E+00 0.9000E+01
       21 -1    0    0  501  502 0.00000000E+00 0.00000000E+00 -.37386231E+03 0.37386306E+03 0.75000000E+00 0.0000E+00 0.9000E+01
       25  1    1    2    0    0 -.12459242E+03 -.91254615E+01 0.29587645E+03 0.34463664E+03 0.12500000E+03 0.0000E+00 0.9000E+01
       23  1    1    2    0    0 -.65655102E+02 0.47076625E+01 0.21378652E+02 0.11447730E+03 0.91188000E+02 0.0000E+00 0.9000E+01
        1  1    1    2  501    0 0.19024752E+03 0.44177990E+01 -.27304742E+03 0.33281922E+03 0.32000000E+00 0.0000E+00 0.9000E+01
#aMCatNLO 1  0  0  5  2 0.22403378D+02 0.00000000D+00  -5  6  0 0.00000000D+00 0.00000000D+00 0.00000000D+00 0.00000000D+00 0.00000000D+00
  <mgrwgt>
 -.1729584013D-01    7    2    0
 0.395349155029003D+03 0.000000000000000D+00 0.000000000000000D+00 0.395349155029003D+03
 0.395349155029003D+03 -.000000000000000D+00 -.000000000000000D+00 -.395349155029003D+03
 0.328632574441947D+03 -.124592449104151D+03 -.912546225295260D+01 0.277070057114155D+03
 0.113460819765681D+03 -.656551137605531D+02 0.470766221519879D+01 0.150116698423877D+02
 0.348604915850379D+03 0.190247562864704D+03 0.441780003775381D+01 -.292081726956543D+03
 0.000000000000000D+00 0.000000000000000D+00 0.000000000000000D+00 -.000000000000000D+00
 0.395349155029003D+03 0.000000000000000D+00 0.000000000000000D+00 0.395349155029003D+03
 0.395349155029003D+03 -.000000000000000D+00 -.000000000000000D+00 -.395349155029003D+03
 0.327534303422385D+03 -.123936216523239D+03 -.911022366446782D+01 0.276062561708528D+03
 0.113284377916332D+03 -.654283458585088D+02 0.471292806581536D+01 0.146635194668977D+02
 0.185992465790562D+03 0.113049621628230D+03 -.147193389156957D+02 -.146956869327203D+03
 0.163887162928728D+03 0.763149407535181D+02 0.191166345143482D+02 -.143769211848223D+03
0.559599204256D-05 0.000000000000D+00 0.000000000000D+00 0.329890167742D-06 0.000000000000D+00  6 1 21 25 23 1 21 2 0.64318526D-01 0.57517345D-01 0.57476879D+05 0.57476879D+05 0.57476879D+05 0.11863339D+01  1  2  2  3  6  5        1 0.137990396088D-02 0.100000000000D+01
-.154213522345D-06 0.295308613232D-06 -.112966956572D-07 0.329890167742D-06 0.000000000000D+00  6 1 21 25 23 1 21 4 0.64318526D-01 0.57517345D-01 0.57476879D+05 0.57476879D+05 0.57476879D+05 0.11863339D+01  1  2  3  3  6  5        1 -.535190151218D-04 0.100000000000D+01
0.711899955324D-06 0.000000000000D+00 0.000000000000D+00 0.329890167742D-06 0.000000000000D+00  6 1 21 25 23 1 21 4 0.64318526D-01 0.57517345D-01 0.57476879D+05 0.57476879D+05 0.57476879D+05 0.11863339D+01  1  2 15  3  6  5        1 0.247061242716D-03 0.100000000000D+01
0.418664208650D-04 0.000000000000D+00 0.000000000000D+00 0.329715413488D-06 0.000000000000D+00  6 1 21 25 23 1 21 4 0.64318526D-01 0.57517345D-01 0.57905135D+05 0.57905135D+05 0.57905135D+05 0.11860196D+01  1  2 12  3  6  5        1 0.145093982036D-01 0.100000000000D+01
-.120509373057D-03 0.000000000000D+00 0.000000000000D+00 0.329890167742D-06 0.000000000000D+00  6 1 21 25 23 1 21 4 0.64318526D-01 0.57517345D-01 0.57476879D+05 0.57476879D+05 0.57476879D+05 0.11863339D+01  1  2  4  3  6  5        1 -.418221622910D-01 0.100000000000D+01
-.433250219234D-04 0.000000000000D+00 0.000000000000D+00 0.329890167742D-06 0.000000000000D+00  6 1 21 25 23 1 21 4 0.64318526D-01 0.57517345D-01 0.57476879D+05 0.57476879D+05 0.57476879D+05 0.11863339D+01  1  2  5  3  6  5        1 -.150357275303D-01 0.100000000000D+01
0.676546633665D-04 0.000000000000D+00 -.000000000000D+00 0.329890167742D-06 0.000000000000D+00  6 1 21 25 23 1 21 4 0.64318526D-01 0.57517345D-01 0.57476879D+05 0.57476879D+05 0.57476879D+05 0.11863339D+01  1  2  6  3  6  5        1 0.234792053039D-01 0.100000000000D+01
  </mgrwgt>
  </event>
  <event>
  5     66 -.42756899E-03 0.30568461E+02 0.75467711E-02 0.11278245E+00
        1 -1    0    0  502    0 0.00000000E+00 0.00000000E+00 0.58397874E+03 0.58397883E+03 0.32000000E+00 0.0000E+00 0.9000E+01
       21 -1    0    0  501  502 0.00000000E+00 0.00000000E+00 -.33392264E+02 0.33400686E+02 0.75000000E+00 0.0000E+00 0.9000E+01
       25  1    1    2    0    0 0.87814641E+01 -.47522293E+02 0.26919131E+03 0.30070658E+03 0.12500000E+03 0.0000E+00 0.9000E+01
       23  1    1    2    0    0 0.20107923E+02 0.57510403E+02 0.18006999E+03 0.21083697E+03 0.91188000E+02 0.0000E+00 0.9000E+01
        1  1    1    2  501    0 -.28889387E+02 -.99881093E+01 0.10132518E+03 0.10583597E+03 0.32000000E+00 0.0000E+00 0.9000E+01
#aMCatNLO 1  0  0  2  2 0.14691160D+03 0.00000000D+00  -5  6  0 0.00000000D+00 0.00000000D+00 0.00000000D+00 0.00000000D+00 0.00000000D+00
  <mgrwgt>
 -.6256445048D-01   12    2    0
 0.139653139601232D+03 0.000000000000000D+00 0.000000000000000D+00 0.139653139601232D+03
 0.139653139601232D+03 0.000000000000000D+00 0.000000000000000D+00 -.139653139601232D+03
 0.134035558124926D+03 0.878207091091390D+01 -.475220836370507D+02 0.224891955600167D+01
 0.111069422143745D+03 0.201084256493311D+02 0.575105766252652D+02 -.175883480031604D+02
 0.342012989337926D+02 -.288904965602450D+02 -.998849298821443D+01 0.153394284471588D+02
 0.000000000000000D+00 -.000000000000000D+00 0.000000000000000D+00 -.000000000000000D+00
 0.160732623475556D+03 0.000000000000000D+00 0.000000000000000D+00 0.160732623475556D+03
 0.199356194734562D+04 0.000000000000000D+00 0.000000000000000D+00 -.199356194734562D+04
 0.168149401983215D+03 0.730092590491678D+02 -.855208269442897D+02 0.224891955600167D+01
 0.119196848832379D+03 0.690498259843612D+02 0.285553668093776D+02 -.175883480031604D+02
 0.282405272068789D+02 -.156189462031464D+02 -.178403428033260D+02 0.153394284471588D+02
 0.183870779279870D+04 -.126440138830383D+03 0.748058029382381D+02 -.183282932387006D+04
0.199442512576D-06 0.000000000000D+00 0.000000000000D+00 0.284767489862D-06 0.000000000000D+00  6 1 21 25 23 1 21 2 0.89843538D-01 0.51379260D-02 0.18803695D+05 0.18803695D+05 0.18803695D+05 0.12367860D+01  1  2  2  2  6  2       21 0.315608226858D-02 0.100000000000D+01
-.557082857542D-08 0.105248705431D-07 -.402616970956D-09 0.284767489862D-06 0.000000000000D+00  6 1 21 25 23 1 21 4 0.89843538D-01 0.51379260D-02 0.18803695D+05 0.18803695D+05 0.18803695D+05 0.12367860D+01  1  2  3  2  6  2       21 -.134846438536D-03 0.100000000000D+01
0.220922873247D-07 0.000000000000D+00 0.000000000000D+00 0.284767489862D-06 0.000000000000D+00  6 1 21 25 23 1 21 4 0.89843538D-01 0.51379260D-02 0.18803695D+05 0.18803695D+05 0.18803695D+05 0.12367860D+01  1  2 15  2  6  2       21 0.534761790729D-03 0.100000000000D+01
-.311776112616D-03 0.000000000000D+00 -.140186238079D-04 0.284767489862D-06 0.000000000000D+00  6 1 21 25 23 1 21 4 0.89843538D-01 0.79632717D-01 0.18803695D+05 0.18803695D+05 0.18803695D+05 0.12367860D+01  1  2  5  2  6  2       21 -.427030412090D-01 0.100000000000D+01
-.137629762083D-03 0.000000000000D+00 -.618915644579D-05 0.284767489862D-06 0.000000000000D+00  6 1 -1 25 23 1 -1 4 0.89843538D-01 0.79632717D-01 0.18803695D+05 0.18803695D+05 0.18803695D+05 0.12367860D+01  1  2  5  5  6  2       21 -.204939677368D-02 0.100000000000D+01
-.137629762083D-03 0.000000000000D+00 -.618915644579D-05 0.284767489862D-06 0.000000000000D+00  6 1 1 25 23 1 1 4 0.89843538D-01 0.79632717D-01 0.18803695D+05 0.18803695D+05 0.18803695D+05 0.12367860D+01  1  2  5  6  6  2       21 -.633961514313D-02 0.100000000000D+01
-.137629762083D-03 0.000000000000D+00 -.618915644579D-05 0.284767489862D-06 0.000000000000D+00  6 1 -2 25 23 1 -2 4 0.89843538D-01 0.79632717D-01 0.18803695D+05 0.18803695D+05 0.18803695D+05 0.12367860D+01  1  2  5  7  6  2       21 -.156239477390D-02 0.100000000000D+01
-.137629762083D-03 0.000000000000D+00 -.618915644579D-05 0.284767489862D-06 0.000000000000D+00  6 1 -4 25 23 1 -4 4 0.89843538D-01 0.79632717D-01 0.18803695D+05 0.18803695D+05 0.18803695D+05 0.12367860D+01  1  2  5  7  6  2       21 -.785198915050D-03 0.100000000000D+01
-.137629762083D-03 0.000000000000D+00 -.618915644579D-05 0.284767489862D-06 0.000000000000D+00  6 1 2 25 23 1 2 4 0.89843538D-01 0.79632717D-01 0.18803695D+05 0.18803695D+05 0.18803695D+05 0.12367860D+01  1  2  5  8  6  2       21 -.994477802552D-02 0.100000000000D+01
-.137629762083D-03 0.000000000000D+00 -.618915644579D-05 0.284767489862D-06 0.000000000000D+00  6 1 4 25 23 1 4 4 0.89843538D-01 0.79632717D-01 0.18803695D+05 0.18803695D+05 0.18803695D+05 0.12367860D+01  1  2  5  8  6  2       21 -.785198915050D-03 0.100000000000D+01
-.137629762083D-03 0.000000000000D+00 -.618915644579D-05 0.284767489862D-06 0.000000000000D+00  6 1 -3 25 23 1 -3 4 0.89843538D-01 0.79632717D-01 0.18803695D+05 0.18803695D+05 0.18803695D+05 0.12367860D+01  1  2  5  9  6  2       21 -.974796803662D-03 0.100000000000D+01
-.137629762083D-03 0.000000000000D+00 -.618915644579D-05 0.284767489862D-06 0.000000000000D+00  6 1 3 25 23 1 3 4 0.89843538D-01 0.79632717D-01 0.18803695D+05 0.18803695D+05 0.18803695D+05 0.12367860D+01  1  2  5 10  6  2       21 -.976027544246D-03 0.100000000000D+01
  </mgrwgt>
  </event>
  <event>
  5     66 -.42756899E-03 0.41842911E+02 0.75467711E-02 0.11647275E+00
        1 -1    0    0  502    0 0.00000000E+00 0.00000000E+00 0.45642107E+03 0.45642118E+03 0.32000000E+00 0.0000E+00 0.9000E+01
       21 -1    0    0  501  502 0.00000000E+00 0.00000000E+00 -.11429732E+03 0.11429979E+03 0.75000000E+00 0.0000E+00 0.9000E+01
       25  1    1    2    0    0 0.33296875E+01 -.74712428E+02 0.29493232E+03 0.32894241E+03 0.12500000E+03 0.0000E+00 0.9000E+01
       23  1    1    2    0    0 0.20753183E+02 0.10892991E+03 0.99585893E+02 0.17472556E+03 0.91188000E+02 0.0000E+00 0.9000E+01
        1  1    1    2  501    0 -.24082871E+02 -.34217479E+02 -.52394476E+02 0.67052995E+02 0.32000000E+00 0.0000E+00 0.9000E+01
#aMCatNLO 1  0  0  2  2 0.42518199D+02 0.00000000D+00  -5  6  0 0.00000000D+00 0.00000000D+00 0.00000000D+00 0.00000000D+00 0.00000000D+00
  <mgrwgt>
 -.3057882875D-01   12    2    0
 0.228404117576275D+03 0.000000000000000D+00 0.000000000000000D+00 0.228404117576275D+03
 0.228404117576275D+03 0.000000000000000D+00 0.000000000000000D+00 -.228404117576275D+03
 0.190081990875112D+03 0.332972143617162D+01 -.747123797403415D+02 0.122119353600232D+03
 0.143712059446055D+03 0.207532086556899D+02 0.108929943094869D+03 -.644022624356776D+01
 0.123014184831384D+03 -.240829300918615D+02 -.342175633545275D+02 -.115679127356664D+03
 0.000000000000000D+00 -.000000000000000D+00 -.000000000000000D+00 -.000000000000000D+00
 0.230460485802433D+03 0.000000000000000D+00 0.000000000000000D+00 0.230460485802433D+03
 0.652114241143528D+03 0.000000000000000D+00 0.000000000000000D+00 -.652114241143528D+03
 0.185915207108568D+03 0.149384751030454D+02 -.616698441061660D+02 0.122119353600232D+03
 0.153190911464956D+03 0.299199616813827D+02 0.119228869785720D+03 -.644022624356776D+01
 0.119676576097532D+03 -.165899560059955D+02 -.257991418490621D+02 -.115679127356664D+03
 0.423792032274905D+03 -.282684807784325D+02 -.317598838304922D+02 -.421653755341094D+03
0.114567642676D-05 0.000000000000D+00 0.000000000000D+00 0.764038266569D-06 0.000000000000D+00  6 1 21 25 23 1 21 2 0.70218823D-01 0.17584402D-01 0.27402611D+05 0.27402611D+05 0.27402611D+05 0.12190479D+01  1  2  2  2  6  2       21 0.281830396808D-02 0.100000000000D+01
0.113174075584D-06 0.604590060574D-07 -.231279062162D-08 0.764038266569D-06 0.000000000000D+00  6 1 21 25 23 1 21 4 0.70218823D-01 0.17584402D-01 0.27402611D+05 0.27402611D+05 0.27402611D+05 0.12190479D+01  1  2  3  2  6  2       21 0.413727496770D-03 0.100000000000D+01
0.111050687569D-06 0.000000000000D+00 0.000000000000D+00 0.764038266569D-06 0.000000000000D+00  6 1 21 25 23 1 21 4 0.70218823D-01 0.17584402D-01 0.27402611D+05 0.27402611D+05 0.27402611D+05 0.12190479D+01  1  2 15  2  6  2       21 0.405965082952D-03 0.100000000000D+01
-.633286494906D-04 0.000000000000D+00 -.263834310619D-05 0.764038266569D-06 0.000000000000D+00  6 1 21 25 23 1 21 4 0.70218823D-01 0.50347977D-01 0.27402611D+05 0.27402611D+05 0.27402611D+05 0.12190479D+01  1  2  5  2  6  2       21 -.298944031729D-01 0.100000000000D+01
-.996105534435D-05 0.000000000000D+00 -.909550983855D-06 0.764038266569D-06 0.000000000000D+00  6 1 -1 25 23 1 -1 4 0.70218823D-01 0.50347977D-01 0.27402611D+05 0.27402611D+05 0.27402611D+05 0.12190479D+01  1  2  5  5  6  2       21 -.466063327330D-03 0.100000000000D+01
-.996105534435D-05 0.000000000000D+00 -.909550983855D-06 0.764038266569D-06 0.000000000000D+00  6 1 1 25 23 1 1 4 0.70218823D-01 0.50347977D-01 0.27402611D+05 0.27402611D+05 0.27402611D+05 0.12190479D+01  1  2  5  6  6  2       21 -.106669411096D-02 0.100000000000D+01
-.996105534435D-05 0.000000000000D+00 -.909550983855D-06 0.764038266569D-06 0.000000000000D+00  6 1 -2 25 23 1 -2 4 0.70218823D-01 0.50347977D-01 0.27402611D+05 0.27402611D+05 0.27402611D+05 0.12190479D+01  1  2  5  7  6  2       21 -.381381949700D-03 0.100000000000D+01
-.996105534435D-05 0.000000000000D+00 -.909550983855D-06 0.764038266569D-06 0.000000000000D+00  6 1 -4 25 23 1 -4 4 0.70218823D-01 0.50347977D-01 0.27402611D+05 0.27402611D+05 0.27402611D+05 0.12190479D+01  1  2  5  7  6  2       21 -.197749647390D-03 0.100000000000D+01
-.996105534435D-05 0.000000000000D+00 -.909550983855D-06 0.764038266569D-06 0.000000000000D+00  6 1 2 25 23 1 2 4 0.70218823D-01 0.50347977D-01 0.27402611D+05 0.27402611D+05 0.27402611D+05 0.12190479D+01  1  2  5  8  6  2       21 -.153276505993D-02 0.100000000000D+01
-.996105534435D-05 0.000000000000D+00 -.909550983855D-06 0.764038266569D-06 0.000000000000D+00  6 1 4 25 23 1 4 4 0.70218823D-01 0.50347977D-01 0.27402611D+05 0.27402611D+05 0.27402611D+05 0.12190479D+01  1  2  5  8  6  2       21 -.197749647390D-03 0.100000000000D+01
-.996105534435D-05 0.000000000000D+00 -.909550983855D-06 0.764038266569D-06 0.000000000000D+00  6 1 -3 25 23 1 -3 4 0.70218823D-01 0.50347977D-01 0.27402611D+05 0.27402611D+05 0.27402611D+05 0.12190479D+01  1  2  5  9  6  2       21 -.239957821488D-03 0.100000000000D+01
-.996105534435D-05 0.000000000000D+00 -.909550983855D-06 0.764038266569D-06 0.000000000000D+00  6 1 3 25 23 1 3 4 0.70218823D-01 0.50347977D-01 0.27402611D+05 0.27402611D+05 0.27402611D+05 0.12190479D+01  1  2  5 10  6  2       21 -.240060561315D-03 0.100000000000D+01
  </mgrwgt>
  </event>
  <event>
  5     66 0.42756899E-03 0.62177069E+02 0.75467711E-02 0.10825939E+00
        1 -1    0    0  502    0 0.00000000E+00 0.00000000E+00 0.73949292E+03 0.73949299E+03 0.32000000E+00 0.0000E+00 0.9000E+01
       21 -1    0    0  501  502 0.00000000E+00 0.00000000E+00 -.13364175E+03 0.13364385E+03 0.75000000E+00 0.0000E+00 0.9000E+01
       25  1    1    2    0    0 -.21125047E+03 0.86995339E+01 0.34157766E+03 0.42071693E+03 0.12500000E+03 0.0000E+00 0.9000E+01
       23  1    1    2    0    0 0.27225239E+03 -.20728922E+02 0.26347451E+03 0.39023726E+03 0.91188000E+02 0.0000E+00 0.9000E+01
        1  1    1    2  501    0 -.61001927E+02 0.12029388E+02 0.79901073E+00 0.62182651E+02 0.32000000E+00 0.0000E+00 0.9000E+01
#aMCatNLO 1  0  0  2  1 0.14789271D+02 0.00000000D+00  -5  6  0 0.00000000D+00 0.00000000D+00 0.00000000D+00 0.00000000D+00 0.00000000D+00
  <mgrwgt>
 0.9196613748D-01   23    2    0
 0.314369330441682D+03 0.000000000000000D+00 0.000000000000000D+00 0.314369330441682D+03
 0.314369330441682D+03 0.000000000000000D+00 0.000000000000000D+00 -.314369330441682D+03
 0.255111029799842D+03 -.211250292834854D+03 0.869949978619439D+01 0.689512146825135D+02
 0.288043851894525D+03 0.272252587945732D+03 -.207289606359091D+02 -.101413913267019D+02
 0.855837791889983D+02 -.610022951108779D+02 0.120294608497147D+02 -.588098233558116D+02
 0.000000000000000D+00 -.000000000000000D+00 -.000000000000000D+00 -.000000000000000D+00
 0.321315540271867D+03 0.000000000000000D+00 0.000000000000000D+00 0.321315540271867D+03
 0.322428093499001D+03 0.000000000000000D+00 0.000000000000000D+00 -.322428093499001D+03
 0.255134287397891D+03 -.210946390893843D+03 0.146919967566597D+02 0.689512146825135D+02
 0.287960915330577D+03 0.272595656193281D+03 -.139641620062485D+02 -.101413913267019D+02
 0.858173716702502D+02 -.609002086425028D+02 0.140424550755104D+02 -.588098233558116D+02
 0.148310593721497D+02 -.749056656935844D+00 -.147702898259215D+02 -.111255322713478D+01
0.136845274420D-04 0.000000000000D+00 0.000000000000D+00 0.900221602069D-07 0.000000000000D+00  6 1 21 25 23 1 21 2 0.11376831D+00 0.20560436D-01 0.88702304D+05 0.88702304D+05 0.88702304D+05 0.11683850D+01  1  2  2  2  6  2       21 0.115349427167D-01 0.100000000000D+01
0.718991849315D-06 0.722152353130D-06 -.276251182183D-07 0.900221602069D-07 0.000000000000D+00  6 1 21 25 23 1 21 4 0.11376831D+00 0.20560436D-01 0.88702304D+05 0.88702304D+05 0.88702304D+05 0.11683850D+01  1  2  3  2  6  2       21 0.827335276190D-03 0.100000000000D+01
0.128340565596D-05 0.000000000000D+00 0.000000000000D+00 0.900221602069D-07 0.000000000000D+00  6 1 21 25 23 1 21 4 0.11376831D+00 0.20560436D-01 0.88702304D+05 0.88702304D+05 0.88702304D+05 0.11683850D+01  1  2 15  2  6  2       21 0.147679945725D-02 0.100000000000D+01
0.268061708172D-04 0.000000000000D+00 0.000000000000D+00 0.897124904312D-07 0.000000000000D+00  6 1 21 25 23 1 21 4 0.11376831D+00 0.21309263D-01 0.93241742D+05 0.93241742D+05 0.93241742D+05 0.11663737D+01  1  2 12  2  6  2       21 0.285777512146D-01 0.100000000000D+01
-.549440779071D-05 0.000000000000D+00 0.000000000000D+00 0.900221602069D-07 0.000000000000D+00  6 1 21 25 23 1 21 4 0.11376831D+00 0.20560436D-01 0.88702304D+05 0.88702304D+05 0.88702304D+05 0.11683850D+01  1  2  4  2  6  2       21 -.632234898261D-02 0.100000000000D+01
-.588897030823D-03 0.000000000000D+00 -.919218137348D-04 0.900221602069D-07 0.000000000000D+00  6 1 21 25 23 1 21 4 0.11376831D+00 0.21543602D-01 0.88702304D+05 0.88702304D+05 0.88702304D+05 0.11683850D+01  1  2  5  2  6  2       21 -.620205443121D+00 0.100000000000D+01
0.590496052268D-03 0.000000000000D+00 0.915219314909D-04 0.900221602069D-07 0.000000000000D+00  6 1 21 25 23 1 21 4 0.11376831D+00 0.20560436D-01 0.88702304D+05 0.88702304D+05 0.88702304D+05 0.11683850D+01  1  2  6  2  6  2       21 0.679476707501D+00 0.100000000000D+01
0.532239010374D-06 0.000000000000D+00 0.000000000000D+00 0.897124904312D-07 0.000000000000D+00  6 1 -1 25 23 1 -1 4 0.11376831D+00 0.21309263D-01 0.93241742D+05 0.93241742D+05 0.93241742D+05 0.11663737D+01  1  2 12  5  6  2       21 0.466380253172D-04 0.100000000000D+01
-.566362994237D-05 0.000000000000D+00 -.102116726075D-05 0.900221602069D-07 0.000000000000D+00  6 1 -1 25 23 1 -1 4 0.11376831D+00 0.21543602D-01 0.88702304D+05 0.88702304D+05 0.88702304D+05 0.11683850D+01  1  2  5  5  6  2       21 -.491054638586D-03 0.100000000000D+01
0.532239010374D-06 0.000000000000D+00 0.000000000000D+00 0.897124904312D-07 0.000000000000D+00  6 1 1 25 23 1 1 4 0.11376831D+00 0.21309263D-01 0.93241742D+05 0.93241742D+05 0.93241742D+05 0.11663737D+01  1  2 12  6  6  2       21 0.716442733686D-04 0.100000000000D+01
-.566362994237D-05 0.000000000000D+00 -.102116726075D-05 0.900221602069D-07 0.000000000000D+00  6 1 1 25 23 1 1 4 0.11376831D+00 0.21543602D-01 0.88702304D+05 0.88702304D+05 0.88702304D+05 0.11683850D+01  1  2  5  6  6  2       21 -.757273444615D-03 0.100000000000D+01
0.532239010374D-06 0.000000000000D+00 0.000000000000D+00 0.897124904312D-07 0.000000000000D+00  6 1 -2 25 23 1 -2 4 0.11376831D+00 0.21309263D-01 0.93241742D+05 0.93241742D+05 0.93241742D+05 0.11663737D+01  1  2 12  7  6  2       21 0.424767378473D-04 0.100000000000D+01
0.532239010374D-06 0.000000000000D+00 0.000000000000D+00 0.897124904312D-07 0.000000000000D+00  6 1 -4 25 23 1 -4 4 0.11376831D+00 0.21309263D-01 0.93241742D+05 0.93241742D+05 0.93241742D+05 0.11663737D+01  1  2 12  7  6  2       21 0.245637550233D-04 0.100000000000D+01
-.566362994237D-05 0.000000000000D+00 -.102116726075D-05 0.900221602069D-07 0.000000000000D+00  6 1 -2 25 23 1 -2 4 0.11376831D+00 0.21543602D-01 0.88702304D+05 0.88702304D+05 0.88702304D+05 0.11683850D+01  1  2  5  7  6  2       21 -.446781279310D-03 0.100000000000D+01
-.566362994237D-05 0.000000000000D+00 -.102116726075D-05 0.900221602069D-07 0.000000000000D+00  6 1 -4 25 23 1 -4 4 0.11376831D+00 0.21543602D-01 0.88702304D+05 0.88702304D+05 0.88702304D+05 0.11683850D+01  1  2  5  7  6  2       21 -.257740243476D-03 0.100000000000D+01
0.532239010374D-06 0.000000000000D+00 0.000000000000D+00 0.897124904312D-07 0.000000000000D+00  6 1 2 25 23 1 2 4 0.11376831D+00 0.21309263D-01 0.93241742D+05 0.93241742D+05 0.93241742D+05 0.11663737D+01  1  2 12  8  6  2       21 0.894956774220D-04 0.100000000000D+01
0.532239010374D-06 0.000000000000D+00 0.000000000000D+00 0.897124904312D-07 0.000000000000D+00  6 1 4 25 23 1 4 4 0.11376831D+00 0.21309263D-01 0.93241742D+05 0.93241742D+05 0.93241742D+05 0.11663737D+01  1  2 12  8  6  2       21 0.245637550233D-04 0.100000000000D+01
-.566362994237D-05 0.000000000000D+00 -.102116726075D-05 0.900221602069D-07 0.000000000000D+00  6 1 2 25 23 1 2 4 0.11376831D+00 0.21543602D-01 0.88702304D+05 0.88702304D+05 0.88702304D+05 0.11683850D+01  1  2  5  8  6  2       21 -.947419683004D-03 0.100000000000D+01
-.566362994237D-05 0.000000000000D+00 -.102116726075D-05 0.900221602069D-07 0.000000000000D+00  6 1 4 25 23 1 4 4 0.11376831D+00 0.21543602D-01 0.88702304D+05 0.88702304D+05 0.88702304D+05 0.11683850D+01  1  2  5  8  6  2       21 -.257740243476D-03 0.100000000000D+01
0.532239010374D-06 0.000000000000D+00 0.000000000000D+00 0.897124904312D-07 0.000000000000D+00  6 1 -3 25 23 1 -3 4 0.11376831D+00 0.21309263D-01 0.93241742D+05 0.93241742D+05 0.93241742D+05 0.11663737D+01  1  2 12  9  6  2       21 0.284696214577D-04 0.100000000000D+01
-.566362994237D-05 0.000000000000D+00 -.102116726075D-05 0.900221602069D-07 0.000000000000D+00  6 1 -3 25 23 1 -3 4 0.11376831D+00 0.21543602D-01 0.88702304D+05 0.88702304D+05 0.88702304D+05 0.11683850D+01  1  2  5  9  6  2       21 -.298966942130D-03 0.100000000000D+01
0.532239010374D-06 0.000000000000D+00 0.000000000000D+00 0.897124904312D-07 0.000000000000D+00  6 1 3 25 23 1 3 4 0.11376831D+00 0.21309263D-01 0.93241742D+05 0.93241742D+05 0.93241742D+05 0.11663737D+01  1  2 12 10  6  2       21 0.284679566817D-04 0.100000000000D+01
-.566362994237D-05 0.000000000000D+00 -.102116726075D-05 0.900221602069D-07 0.000000000000D+00  6 1 3 25 23 1 3 4 0.11376831D+00 0.21543602D-01 0.88702304D+05 0.88702304D+05 0.88702304D+05 0.11683850D+01  1  2  5 10  6  2       21 -.298949907984D-03 0.100000000000D+01
  </mgrwgt>
  </event>
  <event>
  5     66 0.42756899E-03 0.22778378E+02 0.75467711E-02 0.12038731E+00
        1 -1    0    0  502    0 0.00000000E+00 0.00000000E+00 0.15462312E+04 0.15462312E+04 0.32000000E+00 0.0000E+00 0.9000E+01
       21 -1    0    0  501  502 0.00000000E+00 0.00000000E+00 -.24318532E+02 0.24330094E+02 0.75000000E+00 0.0000E+00 0.9000E+01
       25  1    1    2    0    0 -.55701835E+02 0.40612657E+02 0.44688460E+03 0.46912997E+03 0.12500000E+03 0.0000E+00 0.9000E+01
       23  1    1    2    0    0 0.76700435E+02 -.49439092E+02 0.10704498E+04 0.10781954E+04 0.91188000E+02 0.0000E+00 0.9000E+01
        1  1    1    2  501    0 -.20998600E+02 0.88264354E+01 0.45782106E+01 0.23235954E+02 0.32000000E+00 0.0000E+00 0.9000E+01
#aMCatNLO 1  0  0  5  2 0.46227431D+01 0.00000000D+00  -5  6  0 0.00000000D+00 0.00000000D+00 0.00000000D+00 0.00000000D+00 0.00000000D+00
  <mgrwgt>
 0.2001468506D-01    6    2    0
 0.193936015436559D+03 0.000000000000000D+00 0.000000000000000D+00 0.193936015436559D+03
 0.193936015436559D+03 -.000000000000000D+00 -.000000000000000D+00 -.193936015436559D+03
 0.146125564247907D+03 -.557017650759587D+02 0.406126272887017D+02 -.312347306519680D+02
 0.165623930533797D+03 0.767005137309472D+02 -.494391254077215D+02 0.103869336638839D+03
 0.761225360914126D+02 -.209987486549885D+02 0.882649811901973D+01 -.726346059868708D+02
 0.000000000000000D+00 0.000000000000000D+00 0.000000000000000D+00 -.000000000000000D+00
 0.193936015436559D+03 0.000000000000000D+00 0.000000000000000D+00 0.193936015436559D+03
 0.193936015436559D+03 -.000000000000000D+00 -.000000000000000D+00 -.193936015436559D+03
 0.146622666854780D+03 -.560984662120285D+02 0.407793744548717D+02 -.326069186421381D+02
 0.164393975432654D+03 0.762533087120572D+02 -.492511497181743D+02 0.102322455875794D+03
 0.475425968734426D+01 -.157843647652267D+01 0.448162754153356D+01 -.162905012989684D+00
 0.721011288983389D+02 -.185764060235060D+02 0.399014772176913D+01 -.695526322206657D+02
0.371508435110D-05 0.000000000000D+00 0.000000000000D+00 0.138929361833D-05 0.000000000000D+00  6 1 21 25 23 1 21 2 0.23788261D+00 0.37422045D-02 0.21687315D+05 0.21687315D+05 0.21687315D+05 0.12299722D+01  1  2  2  3  6  5        1 0.188370183292D-01 0.100000000000D+01
0.596833923603D-06 0.196050387388D-06 -.749968494162D-08 0.138929361833D-05 0.000000000000D+00  6 1 21 25 23 1 21 4 0.23788261D+00 0.37422045D-02 0.21687315D+05 0.21687315D+05 0.21687315D+05 0.12299722D+01  1  2  3  3  6  5        1 0.457812417954D-02 0.100000000000D+01
0.414947248808D-06 0.000000000000D+00 0.000000000000D+00 0.138929361833D-05 0.000000000000D+00  6 1 21 25 23 1 21 4 0.23788261D+00 0.37422045D-02 0.21687315D+05 0.21687315D+05 0.21687315D+05 0.12299722D+01  1  2 15  3  6  5        1 0.318292904923D-02 0.100000000000D+01
-.150527579077D-05 0.000000000000D+00 0.000000000000D+00 0.138929361833D-05 0.000000000000D+00  6 1 21 25 23 1 21 4 0.23788261D+00 0.37422045D-02 0.21687315D+05 0.21687315D+05 0.21687315D+05 0.12299722D+01  1  2  4  3  6  5        1 -.115464942961D-01 0.100000000000D+01
-.445712805731D-06 0.000000000000D+00 0.000000000000D+00 0.138929361833D-05 0.000000000000D+00  6 1 21 25 23 1 21 4 0.23788261D+00 0.37422045D-02 0.21687315D+05 0.21687315D+05 0.21687315D+05 0.12299722D+01  1  2  5  3  6  5        1 -.341892190164D-02 0.100000000000D+01
0.109273568710D-05 0.000000000000D+00 -.000000000000D+00 0.138929361833D-05 0.000000000000D+00  6 1 21 25 23 1 21 4 0.23788261D+00 0.37422045D-02 0.21687315D+05 0.21687315D+05 0.21687315D+05 0.12299722D+01  1  2  6  3  6  5        1 0.838202969557D-02 0.100000000000D+01
  </mgrwgt>
  </event>
  <event>
  6     66 -.42756899E-03 0.39208719E+03 0.75467711E-02 0.10265114E+00
        1 -1    0    0  502    0 0.00000000E+00 0.00000000E+00 0.38030906E+03 0.38030920E+03 0.32000000E+00 0.0000E+00 0.9000E+01
       21 -1    0    0  503  502 0.00000000E+00 0.00000000E+00 -.98621611E+03 0.98621640E+03 0.75000000E+00 0.0000E+00 0.9000E+01
       25  1    1    2    0    0 0.39935003E+02 0.75362184E+02 0.33923164E+01 0.15136304E+03 0.12500000E+03 0.0000E+00 0.9000E+01
       23  1    1    2    0    0 0.16492707E+03 0.28019133E+03 0.13261484E+03 0.36278102E+03 0.91188000E+02 0.0000E+00 0.9000E+01
        1  1    1    2  501    0 -.15315554E+03 -.32456482E+03 -.62010092E+03 0.71646646E+03 0.32000000E+00 0.0000E+00 0.9000E+01
       21  1    1    2  503  501 -.51706536E+02 -.30988698E+02 -.12181329E+03 0.13591507E+03 0.75000000E+00 0.0000E+00 0.9000E+01
#aMCatNLO 2  0  0  2  5 0.60281550D+02 0.00000000D+00  -5  6  0 0.00000000D+00 0.00000000D+00 0.00000000D+00 0.00000000D+00 0.00000000D+00
  <mgrwgt>
 -.5309094515D-02    3    2    0
 0.564894157143622D+03 0.000000000000000D+00 0.000000000000000D+00 0.564894157143622D+03
 0.564894157143622D+03 0.000000000000000D+00 0.000000000000000D+00 -.564894157143622D+03
 0.162429444242599D+03 0.324227934401143D+02 0.708599818504656D+02 0.684539976528110D+02
 0.436745205417367D+03 0.144619296500031D+03 0.268020518972399D+03 0.299468501850629D+03
 0.530613664627278D+03 -.177042089940146D+03 -.338880500822864D+03 -.367922499503440D+03
 0.000000000000000D+00 -.000000000000000D+00 -.000000000000000D+00 -.000000000000000D+00
 0.576382326900990D+03 0.000000000000000D+00 0.000000000000000D+00 0.576382326900990D+03
 0.650723153868142D+03 0.000000000000000D+00 0.000000000000000D+00 -.650723153868142D+03
 0.166087973261423D+03 0.399350082964608D+02 0.753621933053817D+02 0.684539976528110D+02
 0.451336653076432D+03 0.164927083471318D+03 0.280191357117274D+03 0.299468501850629D+03
 0.513970751237637D+03 -.153155555621239D+03 -.324564852177915D+03 -.367922499503440D+03
 0.957101031936401D+02 -.517065361465404D+02 -.309886982447415D+02 -.743408269671525D+02
-.159392816568D-03 0.000000000000D+00 0.000000000000D+00 0.137525992009D-06 0.000000000000D+00  6 1 21 25 23 1 21 4 0.57342800D-01 0.15293125D+00 0.20619128D+06 0.20619128D+06 0.20619128D+06 0.11357607D+01  1  2 13  2  6  2       21 -.482609257026D-02 0.100000000000D+01
-.114422331758D-03 0.000000000000D+00 0.000000000000D+00 0.137525992009D-06 0.000000000000D+00  6 1 21 25 23 1 21 4 0.57342800D-01 0.16089302D+00 0.20619128D+06 0.20619128D+06 0.20619128D+06 0.11357607D+01  1  2 13  2  6  2       21 -.301089690321D-02 0.100000000000D+01
0.838721171383D-04 0.000000000000D+00 0.000000000000D+00 0.138776454168D-06 0.117919694804D-08  6 1 21 25 23 1 21 4 0.58508972D-01 0.15172521D+00 0.20619128D+06 0.20619128D+06 0.20619128D+06 0.11357607D+01  1  2  1  2  6  2       21 0.252789495803D-02 0.100000000000D+01
  </mgrwgt>
  </event>
  <event>
  5     66 0.42756899E-03 0.87937166E+02 0.75467711E-02 0.11728961E+00
        1 -1    0    0  502    0 0.00000000E+00 0.00000000E+00 0.63691034E+03 0.63691042E+03 0.32000000E+00 0.0000E+00 0.9000E+01
       21 -1    0    0  501  502 0.00000000E+00 0.00000000E+00 -.84327156E+02 0.84330492E+02 0.75000000E+00 0.0000E+00 0.9000E+01
       25  1    1    2    0    0 -.18958941E+02 0.74781540E+02 0.42102148E+03 0.44591009E+03 0.12500000E+03 0.0000E+00 0.9000E+01
       23  1    1    2    0    0 -.60881448E+00 0.24040192E+02 0.14574660E+03 0.17359615E+03 0.91188000E+02 0.0000E+00 0.9000E+01
        1  1    1    2  501    0 0.19567755E+02 -.98821732E+02 -.14184887E+02 0.10173468E+03 0.32000000E+00 0.0000E+00 0.9000E+01
#aMCatNLO 1  0  0  2  1 0.69948525D+01 0.00000000D+00  -5  6  0 0.00000000D+00 0.00000000D+00 0.00000000D+00 0.00000000D+00 0.00000000D+00
  <mgrwgt>
 0.2751672918D-01   32    2    0
 0.231754330724233D+03 0.000000000000000D+00 0.000000000000000D+00 0.231754330724233D+03
 0.231754330724233D+03 0.000000000000000D+00 0.000000000000000D+00 -.231754330724233D+03
 0.191925757628027D+03 -.189589543320628D+02 0.747816079033744D+02 0.123526376175751D+03
 0.963682873740705D+02 -.608821268054431D+00 0.240402264381907D+02 0.198315989490390D+02
 0.175214616446369D+03 0.195677756001172D+02 -.988218343415650D+02 -.143357975124790D+03
 0.000000000000000D+00 -.000000000000000D+00 0.000000000000000D+00 -.000000000000000D+00
 0.233127858671209D+03 0.000000000000000D+00 0.000000000000000D+00 0.233127858671209D+03
 0.240860692580356D+03 0.000000000000000D+00 0.000000000000000D+00 -.240860692580356D+03
 0.190857148597377D+03 -.173134301014078D+02 0.724080844777149D+02 0.123526376175751D+03
 0.960758758844830D+02 0.218466284602365D+00 0.228469371815470D+02 0.198315989490390D+02
 0.176628413948125D+03 0.210802941125303D+02 -.101003508761228D+03 -.143357975124790D+03
 0.104271128215796D+02 -.398533029572486D+01 0.574848710196646D+01 -.773283390914697D+01
0.126788237629D-05 0.000000000000D+00 0.000000000000D+00 0.584324337090D-06 0.000000000000D+00  6 1 21 25 23 1 21 2 0.97986469D-01 0.12973671D-01 0.29230120D+05 0.29230120D+05 0.29230120D+05 0.12160852D+01  1  2  2  2  6  2       21 0.344883056519D-02 0.100000000000D+01
-.208065270175D-07 0.669079911899D-07 -.255948922462D-08 0.584324337090D-06 0.000000000000D+00  6 1 21 25 23 1 21 4 0.97986469D-01 0.12973671D-01 0.29230120D+05 0.29230120D+05 0.29230120D+05 0.12160852D+01  1  2  3  2  6  2       21 -.836990410386D-04 0.100000000000D+01
0.161543178258D-06 0.000000000000D+00 0.000000000000D+00 0.584324337090D-06 0.000000000000D+00  6 1 21 25 23 1 21 4 0.97986469D-01 0.12973671D-01 0.29230120D+05 0.29230120D+05 0.29230120D+05 0.12160852D+01  1  2 15  2  6  2       21 0.649844594205D-03 0.100000000000D+01
0.650018650664D-05 0.000000000000D+00 0.000000000000D+00 0.582365154077D-06 0.000000000000D+00  6 1 21 25 23 1 21 4 0.97986469D-01 0.13520988D-01 0.30567756D+05 0.30567756D+05 0.30567756D+05 0.12140448D+01  1  2 12  2  6  2       21 0.240967139167D-01 0.100000000000D+01
-.669593791264D-05 0.000000000000D+00 0.000000000000D+00 0.584324337090D-06 0.000000000000D+00  6 1 21 25 23 1 21 4 0.97986469D-01 0.12973671D-01 0.29230120D+05 0.29230120D+05 0.29230120D+05 0.12160852D+01  1  2  4  2  6  2       21 -.269359505154D-01 0.100000000000D+01
-.793242072793D-04 0.000000000000D+00 -.910917504927D-05 0.584324337090D-06 0.000000000000D+00  6 1 21 25 23 1 21 4 0.97986469D-01 0.13556271D-01 0.29230120D+05 0.29230120D+05 0.29230120D+05 0.12160852D+01  1  2  5  2  6  2       21 -.294864062045D+00 0.100000000000D+01
0.794398896201D-04 0.000000000000D+00 0.907411681500D-05 0.584324337090D-06 0.000000000000D+00  6 1 21 25 23 1 21 4 0.97986469D-01 0.12973671D-01 0.29230120D+05 0.29230120D+05 0.29230120D+05 0.12160852D+01  1  2  6  2  6  2       21 0.319565229498D+00 0.100000000000D+01
0.727246695689D-06 0.000000000000D+00 0.000000000000D+00 0.584324337090D-06 0.124176616654D-06  6 1 21 25 23 1 21 4 0.98567201D-01 0.13483448D-01 0.30567756D+05 0.30567756D+05 0.30567756D+05 0.12140448D+01  1  2 11  2  6  2       21 0.268718840871D-02 0.100000000000D+01
0.170550620400D-06 0.000000000000D+00 0.000000000000D+00 0.582365154077D-06 0.000000000000D+00  6 1 -1 25 23 1 -1 4 0.97986469D-01 0.13520988D-01 0.30567756D+05 0.30567756D+05 0.30567756D+05 0.12140448D+01  1  2 12  5  6  2       21 0.453376815562D-04 0.100000000000D+01
-.729066204222D-06 0.000000000000D+00 -.947933019467D-07 0.584324337090D-06 0.000000000000D+00  6 1 -1 25 23 1 -1 4 0.97986469D-01 0.13556271D-01 0.29230120D+05 0.29230120D+05 0.29230120D+05 0.12160852D+01  1  2  5  5  6  2       21 -.194283007500D-03 0.100000000000D+01
0.232738836068D-07 0.000000000000D+00 0.000000000000D+00 0.584324337090D-06 0.374042656030D-08  6 1 -1 25 23 1 -1 4 0.98567201D-01 0.13483448D-01 0.30567756D+05 0.30567756D+05 0.30567756D+05 0.12140448D+01  1  2 11  5  6  2       21 0.616273654402D-05 0.100000000000D+01
0.170550620400D-06 0.000000000000D+00 0.000000000000D+00 0.582365154077D-06 0.000000000000D+00  6 1 1 25 23 1 1 4 0.97986469D-01 0.13520988D-01 0.30567756D+05 0.30567756D+05 0.30567756D+05 0.12140448D+01  1  2 12  6  6  2       21 0.607894285207D-04 0.100000000000D+01
-.729066204222D-06 0.000000000000D+00 -.947933019467D-07 0.584324337090D-06 0.000000000000D+00  6 1 1 25 23 1 1 4 0.97986469D-01 0.13556271D-01 0.29230120D+05 0.29230120D+05 0.29230120D+05 0.12160852D+01  1  2  5  6  6  2       21 -.260683358789D-03 0.100000000000D+01
0.151479410229D-07 0.000000000000D+00 0.000000000000D+00 0.584324337090D-06 0.100165559807D-08  6 1 1 25 23 1 1 4 0.98567201D-01 0.13483448D-01 0.30567756D+05 0.30567756D+05 0.30567756D+05 0.12140448D+01  1  2 11  6  6  2       21 0.537429592221D-05 0.100000000000D+01
0.170550620400D-06 0.000000000000D+00 0.000000000000D+00 0.582365154077D-06 0.000000000000D+00  6 1 -2 25 23 1 -2 4 0.97986469D-01 0.13520988D-01 0.30567756D+05 0.30567756D+05 0.30567756D+05 0.12140448D+01  1  2 12  7  6  2       21 0.426757443867D-04 0.100000000000D+01
0.170550620400D-06 0.000000000000D+00 0.000000000000D+00 0.582365154077D-06 0.000000000000D+00  6 1 -4 25 23 1 -4 4 0.97986469D-01 0.13520988D-01 0.30567756D+05 0.30567756D+05 0.30567756D+05 0.12140448D+01  1  2 12  7  6  2       21 0.251289188614D-04 0.100000000000D+01
-.729066204222D-06 0.000000000000D+00 -.947933019467D-07 0.584324337090D-06 0.000000000000D+00  6 1 -2 25 23 1 -2 4 0.97986469D-01 0.13556271D-01 0.29230120D+05 0.29230120D+05 0.29230120D+05 0.12160852D+01  1  2  5  7  6  2       21 -.182841784879D-03 0.100000000000D+01
-.729066204222D-06 0.000000000000D+00 -.947933019467D-07 0.584324337090D-06 0.000000000000D+00  6 1 -4 25 23 1 -4 4 0.97986469D-01 0.13556271D-01 0.29230120D+05 0.29230120D+05 0.29230120D+05 0.12160852D+01  1  2  5  7  6  2       21 -.107482279106D-03 0.100000000000D+01
0.149039711873D-07 0.000000000000D+00 0.000000000000D+00 0.584324337090D-06 0.182000206431D-08  6 1 -2 25 23 1 -2 4 0.98567201D-01 0.13483448D-01 0.30567756D+05 0.30567756D+05 0.30567756D+05 0.12140448D+01  1  2 11  7  6  2       21 0.371536406093D-05 0.100000000000D+01
0.149039711873D-07 0.000000000000D+00 0.000000000000D+00 0.584324337090D-06 0.182000206431D-08  6 1 -4 25 23 1 -4 4 0.98567201D-01 0.13483448D-01 0.30567756D+05 0.30567756D+05 0.30567756D+05 0.12140448D+01  1  2 11  7  6  2       21 0.218841658387D-05 0.100000000000D+01
0.170550620400D-06 0.000000000000D+00 0.000000000000D+00 0.582365154077D-06 0.000000000000D+00  6 1 2 25 23 1 2 4 0.97986469D-01 0.13520988D-01 0.30567756D+05 0.30567756D+05 0.30567756D+05 0.12140448D+01  1  2 12  8  6  2       21 0.714046181188D-04 0.100000000000D+01
0.170550620400D-06 0.000000000000D+00 0.000000000000D+00 0.582365154077D-06 0.000000000000D+00  6 1 4 25 23 1 4 4 0.97986469D-01 0.13520988D-01 0.30567756D+05 0.30567756D+05 0.30567756D+05 0.12140448D+01  1  2 12  8  6  2       21 0.251289188614D-04 0.100000000000D+01
-.729066204222D-06 0.000000000000D+00 -.947933019467D-07 0.584324337090D-06 0.000000000000D+00  6 1 2 25 23 1 2 4 0.97986469D-01 0.13556271D-01 0.29230120D+05 0.29230120D+05 0.29230120D+05 0.12160852D+01  1  2  5  8  6  2       21 -.306291365797D-03 0.100000000000D+01
-.729066204222D-06 0.000000000000D+00 -.947933019467D-07 0.584324337090D-06 0.000000000000D+00  6 1 4 25 23 1 4 4 0.97986469D-01 0.13556271D-01 0.29230120D+05 0.29230120D+05 0.29230120D+05 0.12160852D+01  1  2  5  8  6  2       21 -.107482279106D-03 0.100000000000D+01
0.147797422870D-07 0.000000000000D+00 0.000000000000D+00 0.584324337090D-06 0.180483182196D-08  6 1 2 25 23 1 2 4 0.98567201D-01 0.13483448D-01 0.30567756D+05 0.30567756D+05 0.30567756D+05 0.12140448D+01  1  2 11  8  6  2       21 0.615730019424D-05 0.100000000000D+01
0.147797422870D-07 0.000000000000D+00 0.000000000000D+00 0.584324337090D-06 0.180483182196D-08  6 1 4 25 23 1 4 4 0.98567201D-01 0.13483448D-01 0.30567756D+05 0.30567756D+05 0.30567756D+05 0.12140448D+01  1  2 11  8  6  2       21 0.217017550019D-05 0.100000000000D+01
0.170550620400D-06 0.000000000000D+00 0.000000000000D+00 0.582365154077D-06 0.000000000000D+00  6 1 -3 25 23 1 -3 4 0.97986469D-01 0.13520988D-01 0.30567756D+05 0.30567756D+05 0.30567756D+05 0.12140448D+01  1  2 12  9  6  2       21 0.289353149814D-04 0.100000000000D+01
-.729066204222D-06 0.000000000000D+00 -.947933019467D-07 0.584324337090D-06 0.000000000000D+00  6 1 -3 25 23 1 -3 4 0.97986469D-01 0.13556271D-01 0.29230120D+05 0.29230120D+05 0.29230120D+05 0.12160852D+01  1  2  5  9  6  2       21 -.123828502725D-03 0.100000000000D+01
0.153886529053D-07 0.000000000000D+00 0.000000000000D+00 0.584324337090D-06 0.187918909012D-08  6 1 -3 25 23 1 -3 4 0.98567201D-01 0.13483448D-01 0.30567756D+05 0.30567756D+05 0.30567756D+05 0.12140448D+01  1  2 11  9  6  2       21 0.260160438613D-05 0.100000000000D+01
0.170550620400D-06 0.000000000000D+00 0.000000000000D+00 0.582365154077D-06 0.000000000000D+00  6 1 3 25 23 1 3 4 0.97986469D-01 0.13520988D-01 0.30567756D+05 0.30567756D+05 0.30567756D+05 0.12140448D+01  1  2 12 10  6  2       21 0.289318345962D-04 0.100000000000D+01
-.729066204222D-06 0.000000000000D+00 -.947933019467D-07 0.584324337090D-06 0.000000000000D+00  6 1 3 25 23 1 3 4 0.97986469D-01 0.13556271D-01 0.29230120D+05 0.29230120D+05 0.29230120D+05 0.12160852D+01  1  2  5 10  6  2       21 -.123813544512D-03 0.100000000000D+01
0.156032543141D-07 0.000000000000D+00 0.000000000000D+00 0.584324337090D-06 0.190539519332D-08  6 1 3 25 23 1 3 4 0.98567201D-01 0.13483448D-01 0.30567756D+05 0.30567756D+05 0.30567756D+05 0.12140448D+01  1  2 11 10  6  2       21 0.263756736937D-05 0.100000000000D+01
  </mgrwgt>
  </event>
  <event>
  6     66 -.42756899E-03 0.35593684E+02 0.75467711E-02 0.11809875E+00
        1 -1    0    0  502    0 0.00000000E+00 0.00000000E+00 0.50970257E+03 0.50970267E+03 0.32000000E+00 0.0000E+00 0.9000E+01
       21 -1    0    0  501  503 0.00000000E+00 0.00000000E+00 -.10811763E+03 0.10812023E+03 0.75000000E+00 0.0000E+00 0.9000E+01
       25  1    1    2    0    0 0.89932006E+02 -.93179107E+01 0.20015036E+03 0.25270488E+03 0.12500000E+03 0.0000E+00 0.9000E+01
       23  1    1    2    0    0 -.98414441E+02 -.25045035E+02 0.25868483E+03 0.29248205E+03 0.91188000E+02 0.0000E+00 0.9000E+01
        1  1    1    2  501    0 0.13432948E+02 0.35717349E+02 -.55091951E+02 0.67017897E+02 0.32000000E+00 0.0000E+00 0.9000E+01
       21  1    1    2  502  503 -.49505132E+01 -.13544027E+01 -.21583037E+01 0.56180746E+01 0.75000000E+00 0.0000E+00 0.9000E+01
#aMCatNLO 2  0  0  2  1 0.51324445D+01 0.00000000D+00  -5  6  0 0.00000000D+00 0.00000000D+00 0.00000000D+00 0.00000000D+00 0.00000000D+00
  <mgrwgt>
 -.1578627647D-01    3    2    0
 0.230086832614316D+03 0.000000000000000D+00 0.000000000000000D+00 0.230086832614316D+03
 0.230086832614316D+03 0.000000000000000D+00 0.000000000000000D+00 -.230086832614316D+03
 0.159646719644674D+03 0.882095789115551D+02 -.978917697562184D+01 0.445568995296048D+02
 0.163281464786915D+03 -.100164821049592D+03 -.255239497400939D+02 0.875278356451766D+02
 0.137245480797043D+03 0.119552421380364D+02 0.353131267157158D+02 -.132084735174781D+03
 0.000000000000000D+00 -.000000000000000D+00 -.000000000000000D+00 -.000000000000000D+00
 0.230869748481112D+03 0.000000000000000D+00 0.000000000000000D+00 0.230869748481112D+03
 0.238669254347172D+03 0.000000000000000D+00 0.000000000000000D+00 -.238669254347172D+03
 0.160576789003505D+03 0.899319953744735D+02 -.931794392292039D+01 0.445568995296048D+02
 0.162138931551141D+03 -.984144515954928D+02 -.250450690750701D+02 0.875278356451766D+02
 0.137486565572823D+03 0.134329693716062D+02 0.357174156495055D+02 -.132084735174781D+03
 0.933671670081436D+01 -.495051315058690D+01 -.135440265151502D+01 -.779950586605979D+01
-.631273357054D-05 0.000000000000D+00 0.000000000000D+00 0.139414715655D-05 0.000000000000D+00  6 1 21 25 23 1 21 4 0.78144991D-01 0.16659309D-01 0.27896951D+05 0.27896951D+05 0.27896951D+05 0.12182252D+01  1  2 13  2  6  2       21 -.220987454551D-01 0.100000000000D+01
-.826436001561D-05 0.000000000000D+00 0.000000000000D+00 0.139772895543D-05 0.000000000000D+00  6 1 21 25 23 1 21 4 0.78144991D-01 0.16034509D-01 0.26965621D+05 0.26965621D+05 0.26965621D+05 0.12197891D+01  1  2  8  2  6  2       21 -.311983268454D-01 0.100000000000D+01
0.107318837007D-04 0.000000000000D+00 0.000000000000D+00 0.139772895543D-05 0.490187932068D-06  6 1 21 25 23 1 21 4 0.78410894D-01 0.16632609D-01 0.27896951D+05 0.27896951D+05 0.27896951D+05 0.12182252D+01  1  2  1  2  6  2       21 0.375107958298D-01 0.100000000000D+01
  </mgrwgt>
  </event>
  <event>
  5     66 0.42756899E-03 0.37220749E+02 0.75467711E-02 0.11608525E+00
        1 -1    0    0  502    0 0.00000000E+00 0.00000000E+00 0.30032180E+03 0.30032197E+03 0.32000000E+00 0.0000E+00 0.9000E+01
       21 -1    0    0  501  502 0.00000000E+00 0.00000000E+00 -.11571324E+03 0.11571567E+03 0.75000000E+00 0.0000E+00 0.9000E+01
       25  1    1    2    0    0 -.12557335E+03 -.13810828E+02 0.11030667E+03 0.20916971E+03 0.12500000E+03 0.0000E+00 0.9000E+01
       23  1    1    2    0    0 0.11068970E+03 0.47925036E+02 0.40379919E+02 0.15650817E+03 0.91188000E+02 0.0000E+00 0.9000E+01
        1  1    1    2  501    0 0.14883656E+02 -.34114208E+02 0.33921970E+02 0.50359755E+02 0.32000000E+00 0.0000E+00 0.9000E+01
#aMCatNLO 1  0  0  1  2 0.84538645D+01 0.00000000D+00  -5  6  0 0.00000000D+00 0.00000000D+00 0.00000000D+00 0.00000000D+00 0.00000000D+00
  <mgrwgt>
 0.4641852113D-01    8    2    0
 0.186418207327041D+03 0.000000000000000D+00 0.000000000000000D+00 0.186418207327041D+03
 0.186418207327041D+03 0.000000000000000D+00 0.000000000000000D+00 -.186418207327041D+03
 0.178788740965891D+03 -.125573588118472D+03 -.138102882803939D+02 0.195182940041685D+02
 0.154649119184294D+03 0.110689492750296D+03 0.479255024406129D+02 -.324358001439007D+02
 0.393985545038978D+02 0.148840953681764D+02 -.341152141602191D+02 0.129175061397322D+02
 0.000000000000000D+00 -.000000000000000D+00 -.000000000000000D+00 -.000000000000000D+00
 0.189636245026040D+03 0.000000000000000D+00 0.000000000000000D+00 0.189636245026040D+03
 0.192102169484858D+03 0.000000000000000D+00 0.000000000000000D+00 -.192102169484858D+03
 0.176113213419042D+03 -.121911467267647D+03 -.121447226644973D+02 0.195182940041685D+02
 0.157423391722538D+03 0.113909670140251D+03 0.493900681816885D+02 -.324358001439007D+02
 0.393956406042038D+02 0.156971477091517D+02 -.337454306172354D+02 0.129175061397322D+02
 0.880616876511332D+01 -.769535058175585D+01 -.349991489995576D+01 -.246592445881764D+01
0.180835823152D-05 0.000000000000D+00 0.000000000000D+00 0.136761476216D-06 0.000000000000D+00  6 1 21 25 23 1 21 2 0.46203553D-01 0.17802236D-01 0.33516501D+05 0.33516501D+05 0.33516501D+05 0.12098784D+01  1  2  2  1  6  1        1 0.726017747824D-02 0.100000000000D+01
-.744497763203D-08 0.954296856600D-07 -.365055425834D-08 0.136761476216D-06 0.000000000000D+00  6 1 21 25 23 1 21 4 0.46203553D-01 0.17802236D-01 0.33516501D+05 0.33516501D+05 0.33516501D+05 0.12098784D+01  1  2  3  1  6  1        1 -.437531813116D-04 0.100000000000D+01
0.222870363101D-06 0.000000000000D+00 0.000000000000D+00 0.136761476216D-06 0.000000000000D+00  6 1 21 25 23 1 21 4 0.46203553D-01 0.17802236D-01 0.33516501D+05 0.33516501D+05 0.33516501D+05 0.12098784D+01  1  2 15  1  6  1        1 0.130978061825D-02 0.100000000000D+01
0.822460835600D-05 0.000000000000D+00 0.000000000000D+00 0.136291015202D-06 0.000000000000D+00  6 1 21 25 23 1 21 4 0.47689134D-01 0.17802236D-01 0.35108529D+05 0.35108529D+05 0.35108529D+05 0.12077956D+01  1  2 12  1  6  1        1 0.461275892900D-01 0.100000000000D+01
-.189033499952D-05 0.000000000000D+00 0.000000000000D+00 0.136761476216D-06 0.000000000000D+00  6 1 21 25 23 1 21 4 0.46203553D-01 0.17802236D-01 0.33516501D+05 0.33516501D+05 0.33516501D+05 0.12098784D+01  1  2  4  1  6  1        1 -.111092570135D-01 0.100000000000D+01
0.606163577307D-08 0.000000000000D+00 0.000000000000D+00 0.136761476216D-06 0.280924479460D-07  6 1 21 25 23 1 21 4 0.47001140D-01 0.18345033D-01 0.35108529D+05 0.35108529D+05 0.35108529D+05 0.12077956D+01  1  2 11  1  6  1        1 0.327510475190D-04 0.100000000000D+01
0.110453335423D-06 0.000000000000D+00 0.000000000000D+00 0.136291015202D-06 0.000000000000D+00  6 21 21 25 23 1 -1 4 0.47689134D-01 0.17802236D-01 0.35108529D+05 0.35108529D+05 0.35108529D+05 0.12077956D+01  1  2 12  4  6  1        1 0.283684251457D-02 0.100000000000D+01
0.175351252665D-09 0.000000000000D+00 0.000000000000D+00 0.136291015202D-06 0.180223907348D-09  6 21 21 25 23 1 -1 4 0.47001140D-01 0.18345033D-01 0.35108529D+05 0.35108529D+05 0.35108529D+05 0.12077956D+01  1  2 11  4  6  1        1 0.439037618207D-05 0.100000000000D+01
  </mgrwgt>
  </event>
  <event>
  5     66 -.42756899E-03 0.59127493E+02 0.75467711E-02 0.11611814E+00
        1 -1    0    0  502    0 0.00000000E+00 0.00000000E+00 0.49524334E+03 0.49524344E+03 0.32000000E+00 0.0000E+00 0.9000E+01
       21 -1    0    0  501  502 0.00000000E+00 0.00000000E+00 -.92953279E+02 0.92956305E+02 0.75000000E+00 0.0000E+00 0.9000E+01
       25  1    1    2    0    0 0.71149283E+02 -.48266035E+02 0.62569952E+02 0.16410920E+03 0.12500000E+03 0.0000E+00 0.9000E+01
       23  1    1    2    0    0 -.95549530E+02 0.10212346E+03 0.32142147E+03 0.36219598E+03 0.91188000E+02 0.0000E+00 0.9000E+01
        1  1    1    2  501    0 0.24400247E+02 -.53857428E+02 0.18298633E+02 0.61894563E+02 0.32000000E+00 0.0000E+00 0.9000E+01
#aMCatNLO 1  0  0  5  2 0.15203084D+02 0.00000000D+00  -5  6  0 0.00000000D+00 0.00000000D+00 0.00000000D+00 0.00000000D+00 0.00000000D+00
  <mgrwgt>
 -.5149681173D-01    7    2    0
 0.214558645233711D+03 0.000000000000000D+00 0.000000000000000D+00 0.214558645233711D+03
 0.214558645233711D+03 -.000000000000000D+00 -.000000000000000D+00 -.214558645233711D+03
 0.166289375732594D+03 0.711491773017150D+02 -.482658017386156D+02 -.680835033863096D+02
 0.195142557617655D+03 -.955496537513602D+02 0.102123736621474D+03 0.101026593212000D+03
 0.676853571171738D+02 0.244004764496451D+02 -.538579348828581D+02 -.329430898256899D+02
 0.000000000000000D+00 0.000000000000000D+00 0.000000000000000D+00 -.000000000000000D+00
 0.214558645233711D+03 0.000000000000000D+00 0.000000000000000D+00 0.214558645233711D+03
 0.214558645233711D+03 -.000000000000000D+00 -.000000000000000D+00 -.214558645233711D+03
 0.167961108041931D+03 0.721705844148063D+02 -.505203018873844D+02 -.694625054047580D+02
 0.192375199189884D+03 -.943654717906263D+02 0.995099518020552D+02 0.994278288279136D+02
 0.383769660079250D+02 0.807195739346604D+01 -.370633747289988D+02 -.582591430672583D+01
 0.304040172276826D+02 0.141229299823539D+02 -.119262751856719D+02 -.241394091164297D+02
0.356166602234D-05 0.000000000000D+00 0.000000000000D+00 0.125726816741D-06 0.000000000000D+00  6 1 21 25 23 1 21 2 0.76191523D-01 0.14300745D-01 0.35682487D+05 0.35682487D+05 0.35682487D+05 0.12070704D+01  1  2  2  3  6  5        1 0.112259256734D-01 0.100000000000D+01
-.391489937714D-07 0.187954279751D-06 -.718997753764D-08 0.125726816741D-06 0.000000000000D+00  6 1 21 25 23 1 21 4 0.76191523D-01 0.14300745D-01 0.35682487D+05 0.35682487D+05 0.35682487D+05 0.12070704D+01  1  2  3  3  6  5        1 -.179785560594D-03 0.100000000000D+01
0.428137660405D-06 0.000000000000D+00 0.000000000000D+00 0.125726816741D-06 0.000000000000D+00  6 1 21 25 23 1 21 4 0.76191523D-01 0.14300745D-01 0.35682487D+05 0.35682487D+05 0.35682487D+05 0.12070704D+01  1  2 15  3  6  5        1 0.196615447479D-02 0.100000000000D+01
0.262768990705D-05 0.000000000000D+00 0.000000000000D+00 0.125913592418D-06 0.000000000000D+00  6 1 21 25 23 1 21 4 0.76191523D-01 0.14300745D-01 0.34974641D+05 0.34974641D+05 0.34974641D+05 0.12079667D+01  1  2 12  3  6  5        1 0.121057951404D-01 0.100000000000D+01
-.187364225038D-04 0.000000000000D+00 0.000000000000D+00 0.125726816741D-06 0.000000000000D+00  6 1 21 25 23 1 21 4 0.76191523D-01 0.14300745D-01 0.35682487D+05 0.35682487D+05 0.35682487D+05 0.12070704D+01  1  2  4  3  6  5        1 -.860440562799D-01 0.100000000000D+01
-.241011483171D-05 0.000000000000D+00 0.000000000000D+00 0.125726816741D-06 0.000000000000D+00  6 1 21 25 23 1 21 4 0.76191523D-01 0.14300745D-01 0.35682487D+05 0.35682487D+05 0.35682487D+05 0.12070704D+01  1  2  5  3  6  5        1 -.110680710887D-01 0.100000000000D+01
0.446334937402D-05 0.000000000000D+00 -.000000000000D+00 0.125726816741D-06 0.000000000000D+00  6 1 21 25 23 1 21 4 0.76191523D-01 0.14300745D-01 0.35682487D+05 0.35682487D+05 0.35682487D+05 0.12070704D+01  1  2  6  3  6  5        1 0.204972259062D-01 0.100000000000D+01
  </mgrwgt>
  </event>
  <event>
  5     66 0.42756899E-03 0.27132366E+02 0.75467711E-02 0.11360029E+00
        3 -1    0    0  502    0 0.00000000E+00 0.00000000E+00 0.16608314E+03 0.16608389E+03 0.50000000E+00 0.0000E+00 0.9000E+01
       21 -1    0    0  501  502 0.00000000E+00 0.00000000E+00 -.38760039E+03 0.38760112E+03 0.75000000E+00 0.0000E+00 0.9000E+01
       25  1    1    2    0    0 -.15922321E+03 0.59584441E+02 0.40613550E+02 0.21488787E+03 0.12500000E+03 0.0000E+00 0.9000E+01
       23  1    1    2    0    0 0.13944586E+03 -.78156892E+02 -.20461829E+03 0.27520455E+03 0.91188000E+02 0.0000E+00 0.9000E+01
        3  1    1    2  501    0 0.19777352E+02 0.18572451E+02 -.57512509E+02 0.63592596E+02 0.50000000E+00 0.0000E+00 0.9000E+01
#aMCatNLO 1  0  0  1  2 0.11885868D+02 0.00000000D+00  -5  6  0 0.00000000D+00 0.00000000D+00 0.00000000D+00 0.00000000D+00 0.00000000D+00
  <mgrwgt>
 0.5198954186D-01    6    2    0
 0.253720910153815D+03 0.000000000000000D+00 0.000000000000000D+00 0.253720910153815D+03
 0.253720910153815D+03 0.000000000000000D+00 0.000000000000000D+00 -.253720910153815D+03
 0.252200799232666D+03 -.159223834216242D+03 0.595838529498105D+02 0.138122330630240D+03
 0.210959827684473D+03 0.139445331193450D+03 -.781573846493398D+02 -.103127204877214D+03
 0.442811933904918D+02 0.197785030227926D+02 0.185735316995293D+02 -.349951257530260D+02
 0.000000000000000D+00 -.000000000000000D+00 -.000000000000000D+00 -.000000000000000D+00
 0.258574826573292D+03 0.000000000000000D+00 0.000000000000000D+00 0.258574826573292D+03
 0.261172623001501D+03 0.000000000000000D+00 0.000000000000000D+00 -.261172623001501D+03
 0.249367129051919D+03 -.153804786453412D+03 0.618488035202579D+02 0.138122330630240D+03
 0.213325324697435D+03 0.144029399225233D+03 -.762414230343170D+02 -.103127204877214D+03
 0.448885495071266D+02 0.207419121016270D+02 0.189761991123628D+02 -.349951257530260D+02
 0.121664463183119D+02 -.109665248734486D+02 -.458357959830362D+01 -.259779642820867D+01
0.232105095726D-04 0.000000000000D+00 0.000000000000D+00 0.289748137349D-06 0.000000000000D+00  6 3 21 25 23 3 21 2 0.25551366D-01 0.59630943D-01 0.44559525D+05 0.44559525D+05 0.44559525D+05 0.11972685D+01  1  2  2  1  6  1        3 0.621061795800D-02 0.100000000000D+01
0.254609786237D-05 0.122485224106D-05 -.468553315829D-07 0.289748137349D-06 0.000000000000D+00  6 3 21 25 23 3 21 4 0.25551366D-01 0.59630943D-01 0.44559525D+05 0.44559525D+05 0.44559525D+05 0.11972685D+01  1  2  3  1  6  1        3 0.976581129739D-03 0.100000000000D+01
0.235665615098D-05 0.000000000000D+00 0.000000000000D+00 0.289748137349D-06 0.000000000000D+00  6 3 21 25 23 3 21 4 0.25551366D-01 0.59630943D-01 0.44559525D+05 0.44559525D+05 0.44559525D+05 0.11972685D+01  1  2 15  1  6  1        3 0.903918879296D-03 0.100000000000D+01
0.110410220228D-03 0.000000000000D+00 0.000000000000D+00 0.288553830358D-06 0.000000000000D+00  6 3 21 25 23 3 21 4 0.26406515D-01 0.59630943D-01 0.47167278D+05 0.47167278D+05 0.47167278D+05 0.11947984D+01  1  2 12  1  6  1        3 0.395251879162D-01 0.100000000000D+01
-.165910392051D-04 0.000000000000D+00 0.000000000000D+00 0.289748137349D-06 0.000000000000D+00  6 3 21 25 23 3 21 4 0.25551366D-01 0.59630943D-01 0.44559525D+05 0.44559525D+05 0.44559525D+05 0.11972685D+01  1  2  4  1  6  1        3 -.636365791350D-02 0.100000000000D+01
0.148997459091D-05 0.000000000000D+00 0.000000000000D+00 0.288553830358D-06 0.000000000000D+00  6 21 21 25 23 3 -3 4 0.26406515D-01 0.59630943D-01 0.47167278D+05 0.47167278D+05 0.47167278D+05 0.11947984D+01  1  2 12  4  6  1        3 0.107368938949D-01 0.100000000000D+01
  </mgrwgt>
  </event>
  <event>
  5     66 0.42756899E-03 0.50744761E+02 0.75467711E-02 0.11273423E+00
        1 -1    0    0  502    0 0.00000000E+00 0.00000000E+00 0.12141603E+04 0.12141603E+04 0.32000000E+00 0.0000E+00 0.9000E+01
       21 -1    0    0  501  502 0.00000000E+00 0.00000000E+00 -.45691654E+02 0.45697809E+02 0.75000000E+00 0.0000E+00 0.9000E+01
       25  1    1    2    0    0 0.18782234E+03 -.41027604E+02 0.71114873E+03 0.74720681E+03 0.12500000E+03 0.0000E+00 0.9000E+01
       23  1    1    2    0    0 -.14068027E+03 0.59804315E+02 0.31873597E+03 0.36506898E+03 0.91188000E+02 0.0000E+00 0.9000E+01
        1  1    1    2  501    0 -.47142075E+02 -.18776711E+02 0.13858394E+03 0.14758235E+03 0.32000000E+00 0.0000E+00 0.9000E+01
#aMCatNLO 1  0  0  5  1 0.37484369D+00 0.00000000D+00  -5  6  0 0.00000000D+00 0.00000000D+00 0.00000000D+00 0.00000000D+00 0.00000000D+00
  <mgrwgt>
 0.6258818210D-02    7    2    0
 0.235543829489876D+03 0.000000000000000D+00 0.000000000000000D+00 0.235543829489876D+03
 0.235543829489876D+03 -.000000000000000D+00 -.000000000000000D+00 -.235543829489876D+03
 0.234393207955173D+03 0.187822804313249D+03 -.410274200270941D+02 0.485234059124525D+02
 0.185744717874619D+03 -.140679899765937D+03 0.598044613906579D+02 -.530889920222738D+02
 0.509497331499598D+02 -.471429045473117D+02 -.187770413635637D+02 0.456558610982130D+01
 0.000000000000000D+00 0.000000000000000D+00 0.000000000000000D+00 0.000000000000000D+00
 0.235543829489876D+03 0.000000000000000D+00 0.000000000000000D+00 0.235543829489876D+03
 0.235543829489876D+03 -.000000000000000D+00 -.000000000000000D+00 -.235543829489876D+03
 0.234364493332658D+03 0.187782446000673D+03 -.410434947622399D+02 0.485273144402168D+02
 0.185763958162590D+03 -.140711885295414D+03 0.597917215390133D+02 -.530858943622866D+02
 0.501016139224499D+02 -.462900524019451D+02 -.187004957679772D+02 0.420645031959990D+01
 0.857593562054669D+00 -.780508303313482D+00 -.477310087961489D-01 0.352129602469925D+00
0.132738872057D-05 0.000000000000D+00 0.000000000000D+00 0.816035246326D-07 0.000000000000D+00  6 1 21 25 23 1 21 2 0.18679437D+00 0.70299619D-02 0.52453966D+05 0.52453966D+05 0.52453966D+05 0.11902265D+01  1  2  2  3  6  5        1 0.353903605110D-02 0.100000000000D+01
0.359749969031D-08 0.700482272510D-07 -.267961538919D-08 0.816035246326D-07 0.000000000000D+00  6 1 21 25 23 1 21 4 0.18679437D+00 0.70299619D-02 0.52453966D+05 0.52453966D+05 0.52453966D+05 0.11902265D+01  1  2  3  3  6  5        1 0.135877277882D-04 0.100000000000D+01
0.167629404391D-06 0.000000000000D+00 0.000000000000D+00 0.816035246326D-07 0.000000000000D+00  6 1 21 25 23 1 21 4 0.18679437D+00 0.70299619D-02 0.52453966D+05 0.52453966D+05 0.52453966D+05 0.11902265D+01  1  2 15  3  6  5        1 0.633134930432D-03 0.100000000000D+01
-.136711864411D-03 0.000000000000D+00 0.000000000000D+00 0.816035246326D-07 0.000000000000D+00  6 1 21 25 23 1 21 4 0.18679437D+00 0.70299619D-02 0.52453966D+05 0.52453966D+05 0.52453966D+05 0.11902265D+01  1  2  4  3  6  5        1 -.516359627224D+00 0.100000000000D+01
-.140296397701D-03 0.000000000000D+00 0.000000000000D+00 0.816035246326D-07 0.000000000000D+00  6 1 21 25 23 1 21 4 0.18679437D+00 0.70299619D-02 0.52453966D+05 0.52453966D+05 0.52453966D+05 0.11902265D+01  1  2  5  3  6  5        1 -.529898381022D+00 0.100000000000D+01
0.144690062525D-03 0.000000000000D+00 -.000000000000D+00 0.816035246326D-07 0.000000000000D+00  6 1 21 25 23 1 21 4 0.18679437D+00 0.70299619D-02 0.52453966D+05 0.52453966D+05 0.52453966D+05 0.11902265D+01  1  2  6  3  6  5        1 0.546493218203D+00 0.100000000000D+01
0.132862431138D-03 0.000000000000D+00 0.000000000000D+00 0.816035246326D-07 0.385577380341D-05  6 1 21 25 23 1 21 4 0.18679437D+00 0.70299619D-02 0.52443145D+05 0.52443145D+05 0.52443145D+05 0.11902353D+01  1  2 11  3  6  5        1 0.501837849543D+00 0.100000000000D+01
  </mgrwgt>
  </event>
  <event>
  6     66 -.42756899E-03 0.23765013E+02 0.75467711E-02 0.12067225E+00
        3 -1    0    0  502    0 0.00000000E+00 0.00000000E+00 0.76839598E+03 0.76839614E+03 0.50000000E+00 0.0000E+00 0.9000E+01
       21 -1    0    0  503  502 0.00000000E+00 0.00000000E+00 -.78122823E+02 0.78126423E+02 0.75000000E+00 0.0000E+00 0.9000E+01
       25  1    1    2    0    0 0.52384537E+02 0.21893499E+02 0.23244142E+03 0.26995829E+03 0.12500000E+03 0.0000E+00 0.9000E+01
       23  1    1    2    0    0 -.21255464E+02 0.24468829E+02 0.49306892E+03 0.50247660E+03 0.91188000E+02 0.0000E+00 0.9000E+01
        3  1    1    2  501    0 -.17603472E+02 -.29676300E+02 -.39208417E+02 0.52231360E+02 0.50000000E+00 0.0000E+00 0.9000E+01
       21  1    1    2  503  501 -.13525601E+02 -.16686027E+02 0.39712297E+01 0.21856316E+02 0.75000000E+00 0.0000E+00 0.9000E+01
#aMCatNLO 2  0  0  2  1 0.21479417D+02 0.00000000D+00  -5  6  0 0.00000000D+00 0.00000000D+00 0.00000000D+00 0.00000000D+00 0.00000000D+00
  <mgrwgt>
 -.2307162881D-02    2    2    0
 0.228365235987194D+03 0.000000000000000D+00 0.000000000000000D+00 0.228365235987194D+03
 0.228365235987194D+03 0.000000000000000D+00 0.000000000000000D+00 -.228365235987194D+03
 0.135805847409299D+03 0.483325071649342D+02 0.168946732738668D+02 0.140273645664039D+02
 0.166095007378656D+03 -.261726265247493D+02 0.184027248425629D+02 0.135087503016678D+03
 0.154829617186431D+03 -.221598806401848D+02 -.352973981164297D+02 -.149114867583081D+03
 0.000000000000000D+00 -.000000000000000D+00 -.000000000000000D+00 -.000000000000000D+00
 0.232521330405039D+03 0.000000000000000D+00 0.000000000000000D+00 0.232521330405039D+03
 0.258164329069964D+03 0.000000000000000D+00 0.000000000000000D+00 -.258164329069964D+03
 0.138004486114530D+03 0.523845729342499D+02 0.218935549775053D+02 0.140273645664039D+02
 0.166175824844836D+03 -.212554152271790D+02 0.244689041663253D+02 0.135087503016678D+03
 0.153054956058556D+03 -.176035568371688D+02 -.296764321717936D+02 -.149114867583081D+03
 0.334503924570820D+02 -.135256008699021D+02 -.166860269720370D+02 -.256429986649254D+02
-.611407348040D-05 0.000000000000D+00 0.000000000000D+00 0.174668576615D-05 0.000000000000D+00  6 3 21 25 23 3 21 4 0.11610000D+00 0.12107564D-01 0.21032365D+05 0.21032365D+05 0.21032365D+05 0.12314269D+01  1  2 13  2  6  2       21 -.256556743367D-02 0.100000000000D+01
0.633981443174D-06 0.000000000000D+00 0.000000000000D+00 0.176278291488D-05 0.360648544425D-07  6 3 21 25 23 3 21 4 0.11821295D+00 0.12018971D-01 0.21032365D+05 0.21032365D+05 0.21032365D+05 0.12314269D+01  1  2  1  2  6  2       21 0.258404552915D-03 0.100000000000D+01
  </mgrwgt>
  </event>
  <event>
  5     66 0.42756899E-03 0.84217008E+02 0.75467711E-02 0.11791266E+00
        1 -1    0    0  502    0 0.00000000E+00 0.00000000E+00 0.12958977E+04 0.12958978E+04 0.32000000E+00 0.0000E+00 0.9000E+01
       21 -1    0    0  501  502 0.00000000E+00 0.00000000E+00 -.23631070E+02 0.23642969E+02 0.75000000E+00 0.0000E+00 0.9000E+01
       25  1    1    2    0    0 0.58061468E+02 0.28294305E+02 0.65157473E+03 0.66659307E+03 0.12500000E+03 0.0000E+00 0.9000E+01
       23  1    1    2    0    0 0.18038891E+02 -.64365942E+02 0.27920534E+03 0.30122956E+03 0.91188000E+02 0.0000E+00 0.9000E+01
        1  1    1    2  501    0 -.76100359E+02 0.36071637E+02 0.34148659E+03 0.35171810E+03 0.32000000E+00 0.0000E+00 0.9000E+01
#aMCatNLO 1  0  0  5  1 0.14810498D+01 0.00000000D+00  -5  6  0 0.00000000D+00 0.00000000D+00 0.00000000D+00 0.00000000D+00 0.00000000D+00
  <mgrwgt>
 0.2281285196D-01    5    2    0
 0.175018075948979D+03 0.000000000000000D+00 0.000000000000000D+00 0.175018075948979D+03
 0.175018075948979D+03 -.000000000000000D+00 -.000000000000000D+00 -.175018075948979D+03
 0.144613457947788D+03 0.580616925256354D+02 0.282941988197033D+02 0.334115308512855D+02
 0.120733424702338D+03 0.180390785208969D+02 -.643660312978511D+02 -.423428170701494D+02
 0.846892692478306D+02 -.761007710465322D+02 0.360718324781478D+02 0.893128621886395D+01
 0.000000000000000D+00 0.000000000000000D+00 0.000000000000000D+00 -.000000000000000D+00
 0.175018075948979D+03 0.000000000000000D+00 0.000000000000000D+00 0.175018075948979D+03
 0.175018075948979D+03 -.000000000000000D+00 -.000000000000000D+00 -.175018075948979D+03
 0.144004159908967D+03 0.558269312706473D+02 0.293534776221387D+02 0.336738053607897D+02
 0.119922514788952D+03 0.161756837172408D+02 -.634827805203125D+02 -.421241266140433D+02
 0.829418712567416D+02 -.739525989248567D+02 0.362724194517192D+02 0.973029839972664D+01
 0.316760594329679D+01 0.194998393696861D+01 -.214311655354535D+01 -.127997714647311D+01
0.226186087343D-05 0.000000000000D+00 0.000000000000D+00 0.143034098331D-06 0.000000000000D+00  6 1 21 25 23 1 21 2 0.19936980D+00 0.36364676D-02 0.28558062D+05 0.28558062D+05 0.28558062D+05 0.12171501D+01  1  2  2  3  6  5        1 0.171668931426D-01 0.100000000000D+01
-.181977881914D-06 0.119361677568D-06 -.456604543244D-08 0.143034098331D-06 0.000000000000D+00  6 1 21 25 23 1 21 4 0.19936980D+00 0.36364676D-02 0.28558062D+05 0.28558062D+05 0.28558062D+05 0.12171501D+01  1  2  3  3  6  5        1 -.204612737121D-02 0.100000000000D+01
0.316192517059D-06 0.000000000000D+00 0.000000000000D+00 0.143034098331D-06 0.000000000000D+00  6 1 21 25 23 1 21 4 0.19936980D+00 0.36364676D-02 0.28558062D+05 0.28558062D+05 0.28558062D+05 0.12171501D+01  1  2 15  3  6  5        1 0.355521317712D-02 0.100000000000D+01
-.124384468128D-04 0.000000000000D+00 0.000000000000D+00 0.143034098331D-06 0.000000000000D+00  6 1 21 25 23 1 21 4 0.19936980D+00 0.36364676D-02 0.28558062D+05 0.28558062D+05 0.28558062D+05 0.12171501D+01  1  2  4  3  6  5        1 -.139855713295D+00 0.100000000000D+01
0.128011900762D-04 0.000000000000D+00 0.000000000000D+00 0.143034098331D-06 0.214114516534D-06  6 1 21 25 23 1 21 4 0.19936980D+00 0.36364676D-02 0.28486530D+05 0.28486530D+05 0.28486530D+05 0.12172650D+01  1  2 11  3  6  5        1 0.143992586302D+00 0.100000000000D+01
  </mgrwgt>
  </event>
  <event>
  5     66 0.42756899E-03 0.37485433E+02 0.75467711E-02 0.11703978E+00
        1 -1    0    0  502    0 0.00000000E+00 0.00000000E+00 0.21010426E+04 0.21010426E+04 0.32000000E+00 0.0000E+00 0.9000E+01
       21 -1    0    0  501  502 0.00000000E+00 0.00000000E+00 -.93694434E+01 0.93994133E+01 0.75000000E+00 0.0000E+00 0.9000E+01
       25  1    1    2    0    0 -.15735014E+02 0.16599603E+02 0.11093300E+04 0.11165846E+04 0.12500000E+03 0.0000E+00 0.9000E+01
       23  1    1    2    0    0 -.86841898E+01 -.45039216E+02 0.85617383E+03 0.86223710E+03 0.91188000E+02 0.0000E+00 0.9000E+01
        1  1    1    2  501    0 0.24419204E+02 0.28439613E+02 0.12616937E+03 0.13162037E+03 0.32000000E+00 0.0000E+00 0.9000E+01
#aMCatNLO 1  0  0  2  2 0.79645326D+02 0.00000000D+00  -5  6  0 0.00000000D+00 0.00000000D+00 0.00000000D+00 0.00000000D+00 0.00000000D+00
  <mgrwgt>
 0.3038875789D-01    4    2    0
 0.140418126548785D+03 0.000000000000000D+00 0.000000000000000D+00 0.140418126548785D+03
 0.140418126548785D+03 0.000000000000000D+00 0.000000000000000D+00 -.140418126548785D+03
 0.128656195369507D+03 -.157352486402443D+02 0.165993291746989D+02 0.201067358896545D+02
 0.102784643126592D+03 -.868437735011645D+01 -.450394340150169D+02 0.120607832377792D+02
 0.493954146014708D+02 0.244196259903608D+02 0.284401048403181D+02 -.321675191274337D+02
 0.000000000000000D+00 0.000000000000000D+00 0.000000000000000D+00 0.000000000000000D+00
 0.209057154040974D+03 0.000000000000000D+00 0.000000000000000D+00 0.209057154040974D+03
 0.171087498762633D+03 0.000000000000000D+00 0.000000000000000D+00 -.171087498762633D+03
 0.136740294954100D+03 -.512432086300132D+02 0.653918995738559D+01 0.201067358896545D+02
 0.112689652155443D+03 -.375131408592682D+02 -.532072187722554D+02 0.120607832377792D+02
 0.424816472668228D+02 0.121271987890101D+02 0.249574060595402D+02 -.321675191274337D+02
 0.882330584272425D+02 0.766291507002712D+02 0.217106227553296D+02 0.379696552783413D+02
0.247250341245D-05 0.000000000000D+00 0.000000000000D+00 0.708035500441D-06 0.000000000000D+00  6 1 21 25 23 1 21 2 0.32323963D+00 0.14437601D-02 0.17773600D+05 0.17773600D+05 0.17773600D+05 0.12395090D+01  1  2  2  2  6  2       21 0.265891625721D-01 0.100000000000D+01
0.446052329479D-07 0.130477589744D-06 -.499127202993D-08 0.708035500441D-06 0.000000000000D+00  6 1 21 25 23 1 21 4 0.32323963D+00 0.14437601D-02 0.17773600D+05 0.17773600D+05 0.17773600D+05 0.12395090D+01  1  2  3  2  6  2       21 0.736975257308D-03 0.100000000000D+01
0.269705911601D-06 0.000000000000D+00 0.000000000000D+00 0.708035500441D-06 0.000000000000D+00  6 1 21 25 23 1 21 4 0.32323963D+00 0.14437601D-02 0.17773600D+05 0.17773600D+05 0.17773600D+05 0.12395090D+01  1  2 15  2  6  2       21 0.445612701613D-02 0.100000000000D+01
-.843416409956D-07 0.000000000000D+00 0.000000000000D+00 0.708035500441D-06 0.000000000000D+00  6 1 21 25 23 1 21 4 0.32323963D+00 0.14437601D-02 0.17773600D+05 0.17773600D+05 0.17773600D+05 0.12395090D+01  1  2  4  2  6  2       21 -.139350696021D-02 0.100000000000D+01
  </mgrwgt>
  </event>
  <event>
  5     66 0.42756899E-03 0.26982691E+02 0.75467711E-02 0.11450976E+00
        1 -1    0    0  502    0 0.00000000E+00 0.00000000E+00 0.12384423E+04 0.12384423E+04 0.32000000E+00 0.0000E+00 0.9000E+01
       21 -1    0    0  501  502 0.00000000E+00 0.00000000E+00 -.34615018E+02 0.34623142E+02 0.75000000E+00 0.0000E+00 0.9000E+01
       25  1    1    2    0    0 0.16636719E+02 0.13184518E+03 0.76563380E+03 0.78707054E+03 0.12500000E+03 0.0000E+00 0.9000E+01
       23  1    1    2    0    0 -.14575471E+02 -.10494151E+03 0.43718760E+03 0.45899174E+03 0.91188000E+02 0.0000E+00 0.9000E+01
        1  1    1    2  501    0 -.20612480E+01 -.26903671E+02 0.10058366E+01 0.27003155E+02 0.32000000E+00 0.0000E+00 0.9000E+01
#aMCatNLO 1  0  0  2  2 0.62468009D+02 0.00000000D+00  -5  6  0 0.00000000D+00 0.00000000D+00 0.00000000D+00 0.00000000D+00 0.00000000D+00
  <mgrwgt>
 0.3212091042D-01   14    2    0
 0.207060133190263D+03 0.000000000000000D+00 0.000000000000000D+00 0.207060133190263D+03
 0.207060133190263D+03 0.000000000000000D+00 0.000000000000000D+00 -.207060133190263D+03
 0.193908787361990D+03 0.166367269122096D+02 0.131845280342471D+03 0.656936769047146D+02
 0.140123927341756D+03 -.145754656897725D+02 -.104941436056887D+03 0.971156361881150D+01
 0.800875516767801D+02 -.206126122243704D+01 -.269038442855844D+02 -.754052405235261D+02
 0.000000000000000D+00 -.000000000000000D+00 -.000000000000000D+00 -.000000000000000D+00
 0.218405522317659D+03 0.000000000000000D+00 0.000000000000000D+00 0.218405522317659D+03
 0.317763711101222D+03 0.000000000000000D+00 0.000000000000000D+00 -.317763711101222D+03
 0.213429935079509D+03 0.351829938662747D+02 0.156121218754492D+03 0.656936769047146D+02
 0.127795381743921D+03 -.237701080517634D+01 -.889743985806273D+02 0.971156361881150D+01
 0.775799448567556D+02 0.511739211835861D+01 -.175074225251284D+02 -.754052405235261D+02
 0.117363971738695D+03 -.379233751794570D+02 -.496393976487366D+02 -.993581887835623D+02
0.193232588437D-05 0.000000000000D+00 0.000000000000D+00 0.105152005217D-05 0.000000000000D+00  6 1 21 25 23 1 21 2 0.19053021D+00 0.53260155D-02 0.30487139D+05 0.30487139D+05 0.30487139D+05 0.12141649D+01  1  2  2  2  6  2       21 0.840104040446D-02 0.100000000000D+01
0.310314549488D-06 0.101971638431D-06 -.390080923278D-08 0.105152005217D-05 0.000000000000D+00  6 1 21 25 23 1 21 4 0.19053021D+00 0.53260155D-02 0.30487139D+05 0.30487139D+05 0.30487139D+05 0.12141649D+01  1  2  3  2  6  2       21 0.198888732921D-02 0.100000000000D+01
0.197882563554D-06 0.000000000000D+00 0.000000000000D+00 0.105152005217D-05 0.000000000000D+00  6 1 21 25 23 1 21 4 0.19053021D+00 0.53260155D-02 0.30487139D+05 0.30487139D+05 0.30487139D+05 0.12141649D+01  1  2 15  2  6  2       21 0.126828124550D-02 0.100000000000D+01
-.311162971360D-06 0.000000000000D+00 0.000000000000D+00 0.105152005217D-05 0.000000000000D+00  6 1 21 25 23 1 21 4 0.19053021D+00 0.53260155D-02 0.30487139D+05 0.30487139D+05 0.30487139D+05 0.12141649D+01  1  2  4  2  6  2       21 -.199432508748D-02 0.100000000000D+01
-.111450063214D-04 0.000000000000D+00 -.239578323651D-05 0.105152005217D-05 0.000000000000D+00  6 1 21 25 23 1 21 4 0.19053021D+00 0.86172393D-02 0.30487139D+05 0.30487139D+05 0.30487139D+05 0.12141649D+01  1  2  5  2  6  2       21 -.312197729963D-01 0.100000000000D+01
0.866782803996D-05 0.000000000000D+00 0.156818851311D-05 0.105152005217D-05 0.000000000000D+00  6 1 21 25 23 1 21 4 0.19053021D+00 0.53260155D-02 0.30487139D+05 0.30487139D+05 0.30487139D+05 0.12141649D+01  1  2  6  2  6  2       21 0.555543830892D-01 0.100000000000D+01
-.146181869909D-05 0.000000000000D+00 -.399248606679D-06 0.105152005217D-05 0.000000000000D+00  6 1 -1 25 23 1 -1 4 0.19053021D+00 0.86172393D-02 0.30487139D+05 0.30487139D+05 0.30487139D+05 0.12141649D+01  1  2  5  5  6  2       21 -.264851012874D-03 0.100000000000D+01
-.146181869909D-05 0.000000000000D+00 -.399248606679D-06 0.105152005217D-05 0.000000000000D+00  6 1 1 25 23 1 1 4 0.19053021D+00 0.86172393D-02 0.30487139D+05 0.30487139D+05 0.30487139D+05 0.12141649D+01  1  2  5  6  6  2       21 -.322497063125D-03 0.100000000000D+01
-.146181869909D-05 0.000000000000D+00 -.399248606679D-06 0.105152005217D-05 0.000000000000D+00  6 1 -2 25 23 1 -2 4 0.19053021D+00 0.86172393D-02 0.30487139D+05 0.30487139D+05 0.30487139D+05 0.12141649D+01  1  2  5  7  6  2       21 -.254829285266D-03 0.100000000000D+01
-.146181869909D-05 0.000000000000D+00 -.399248606679D-06 0.105152005217D-05 0.000000000000D+00  6 1 -4 25 23 1 -4 4 0.19053021D+00 0.86172393D-02 0.30487139D+05 0.30487139D+05 0.30487139D+05 0.12141649D+01  1  2  5  7  6  2       21 -.157869459740D-03 0.100000000000D+01
-.146181869909D-05 0.000000000000D+00 -.399248606679D-06 0.105152005217D-05 0.000000000000D+00  6 1 2 25 23 1 2 4 0.19053021D+00 0.86172393D-02 0.30487139D+05 0.30487139D+05 0.30487139D+05 0.12141649D+01  1  2  5  8  6  2       21 -.361417241730D-03 0.100000000000D+01
-.146181869909D-05 0.000000000000D+00 -.399248606679D-06 0.105152005217D-05 0.000000000000D+00  6 1 4 25 23 1 4 4 0.19053021D+00 0.86172393D-02 0.30487139D+05 0.30487139D+05 0.30487139D+05 0.12141649D+01  1  2  5  8  6  2       21 -.157869459740D-03 0.100000000000D+01
-.146181869909D-05 0.000000000000D+00 -.399248606679D-06 0.105152005217D-05 0.000000000000D+00  6 1 -3 25 23 1 -3 4 0.19053021D+00 0.86172393D-02 0.30487139D+05 0.30487139D+05 0.30487139D+05 0.12141649D+01  1  2  5  9  6  2       21 -.179135601145D-03 0.100000000000D+01
-.146181869909D-05 0.000000000000D+00 -.399248606679D-06 0.105152005217D-05 0.000000000000D+00  6 1 3 25 23 1 3 4 0.19053021D+00 0.86172393D-02 0.30487139D+05 0.30487139D+05 0.30487139D+05 0.12141649D+01  1  2  5 10  6  2       21 -.179114444959D-03 0.100000000000D+01
  </mgrwgt>
  </event>
  <event>
  5     66 -.42756899E-03 0.13070912E+03 0.75467711E-02 0.10559052E+00
        1 -1    0    0  502    0 0.00000000E+00 0.00000000E+00 0.98269101E+03 0.98269106E+03 0.32000000E+00 0.0000E+00 0.9000E+01
       21 -1    0    0  501  502 0.00000000E+00 0.00000000E+00 -.76003090E+02 0.76006791E+02 0.75000000E+00 0.0000E+00 0.9000E+01
       25  1    1    2    0    0 0.73903442E+02 0.81519224E+02 0.21885918E+03 0.27501171E+03 0.12500000E+03 0.0000E+00 0.9000E+01
       23  1    1    2    0    0 -.81885597E+02 -.21198410E+03 0.44957472E+03 0.51193280E+03 0.91188000E+02 0.0000E+00 0.9000E+01
        1  1    1    2  501    0 0.79821551E+01 0.13046487E+03 0.23825402E+03 0.27175334E+03 0.32000000E+00 0.0000E+00 0.9000E+01
#aMCatNLO 1  0  0  2  1 0.42149444D+01 0.00000000D+00  -5  6  0 0.00000000D+00 0.00000000D+00 0.00000000D+00 0.00000000D+00 0.00000000D+00
  <mgrwgt>
 -.2303028618D-01   12    2    0
 0.273293870485957D+03 0.000000000000000D+00 0.000000000000000D+00 0.273293870485957D+03
 0.273293870485957D+03 0.000000000000000D+00 0.000000000000000D+00 -.273293870485957D+03
 0.169629316992649D+03 0.739034345295324D+02 0.815191039546177D+02 -.322803847338920D+02
 0.245812809924963D+03 -.818856076718701D+02 -.211984271161894D+03 0.215894005330279D+02
 0.131145614054302D+03 0.798217314233765D+01 0.130465167207276D+03 0.106909842008641D+02
 0.000000000000000D+00 0.000000000000000D+00 -.000000000000000D+00 -.000000000000000D+00
 0.292577570903375D+03 0.000000000000000D+00 0.000000000000000D+00 0.292577570903375D+03
 0.130180104485780D+04 0.000000000000000D+00 0.000000000000000D+00 -.130180104485780D+04
 0.160235794725216D+03 0.256928809823389D+02 0.913693741878590D+02 -.322803847338920D+02
 0.268533353381810D+03 -.157058496125450D+03 -.196625118217171D+03 0.215894005330279D+02
 0.142697782828538D+03 -.320406764406680D+02 0.138642544459563D+03 0.106909842008641D+02
 0.102291168482561D+04 0.163406291583779D+03 -.333868004302503D+02 -.100922347395443D+04
0.187879332859D-05 0.000000000000D+00 0.000000000000D+00 0.364305747649D-07 0.000000000000D+00  6 1 21 25 23 1 21 2 0.15118352D+00 0.11693072D-01 0.73468519D+05 0.73468519D+05 0.73468519D+05 0.11760761D+01  1  2  2  2  6  2       21 0.290025205825D-02 0.100000000000D+01
-.143335464026D-06 0.991466478498D-07 -.379274242606D-08 0.364305747649D-07 0.000000000000D+00  6 1 21 25 23 1 21 4 0.15118352D+00 0.11693072D-01 0.73468519D+05 0.73468519D+05 0.73468519D+05 0.11760761D+01  1  2  3  2  6  2       21 -.306042129802D-03 0.100000000000D+01
0.238490622672D-06 0.000000000000D+00 0.000000000000D+00 0.364305747649D-07 0.000000000000D+00  6 1 21 25 23 1 21 4 0.15118352D+00 0.11693072D-01 0.73468519D+05 0.73468519D+05 0.73468519D+05 0.11760761D+01  1  2 15  2  6  2       21 0.509212277620D-03 0.100000000000D+01
-.192518113536D-03 0.000000000000D+00 -.124665776257D-04 0.364305747649D-07 0.000000000000D+00  6 1 21 25 23 1 21 4 0.15118352D+00 0.57803626D-01 0.73468519D+05 0.73468519D+05 0.73468519D+05 0.11760761D+01  1  2  5  2  6  2       21 -.183046129815D-01 0.100000000000D+01
-.793203299359D-04 0.000000000000D+00 -.514175894206D-05 0.364305747649D-07 0.000000000000D+00  6 1 -1 25 23 1 -1 4 0.15118352D+00 0.57803626D-01 0.73468519D+05 0.73468519D+05 0.73468519D+05 0.11760761D+01  1  2  5  5  6  2       21 -.793463950260D-03 0.100000000000D+01
-.793203299359D-04 0.000000000000D+00 -.514175894206D-05 0.364305747649D-07 0.000000000000D+00  6 1 1 25 23 1 1 4 0.15118352D+00 0.57803626D-01 0.73468519D+05 0.73468519D+05 0.73468519D+05 0.11760761D+01  1  2  5  6  6  2       21 -.197883630871D-02 0.100000000000D+01
-.793203299359D-04 0.000000000000D+00 -.514175894206D-05 0.364305747649D-07 0.000000000000D+00  6 1 -2 25 23 1 -2 4 0.15118352D+00 0.57803626D-01 0.73468519D+05 0.73468519D+05 0.73468519D+05 0.11760761D+01  1  2  5  7  6  2       21 -.637837185500D-03 0.100000000000D+01
-.793203299359D-04 0.000000000000D+00 -.514175894206D-05 0.364305747649D-07 0.000000000000D+00  6 1 -4 25 23 1 -4 4 0.15118352D+00 0.57803626D-01 0.73468519D+05 0.73468519D+05 0.73468519D+05 0.11760761D+01  1  2  5  7  6  2       21 -.337542766124D-03 0.100000000000D+01
-.793203299359D-04 0.000000000000D+00 -.514175894206D-05 0.364305747649D-07 0.000000000000D+00  6 1 2 25 23 1 2 4 0.15118352D+00 0.57803626D-01 0.73468519D+05 0.73468519D+05 0.73468519D+05 0.11760761D+01  1  2  5  8  6  2       21 -.292759035295D-02 0.100000000000D+01
-.793203299359D-04 0.000000000000D+00 -.514175894206D-05 0.364305747649D-07 0.000000000000D+00  6 1 4 25 23 1 4 4 0.15118352D+00 0.57803626D-01 0.73468519D+05 0.73468519D+05 0.73468519D+05 0.11760761D+01  1  2  5  8  6  2       21 -.337542766124D-03 0.100000000000D+01
-.793203299359D-04 0.000000000000D+00 -.514175894206D-05 0.364305747649D-07 0.000000000000D+00  6 1 -3 25 23 1 -3 4 0.15118352D+00 0.57803626D-01 0.73468519D+05 0.73468519D+05 0.73468519D+05 0.11760761D+01  1  2  5  9  6  2       21 -.408011506350D-03 0.100000000000D+01
-.793203299359D-04 0.000000000000D+00 -.514175894206D-05 0.364305747649D-07 0.000000000000D+00  6 1 3 25 23 1 3 4 0.15118352D+00 0.57803626D-01 0.73468519D+05 0.73468519D+05 0.73468519D+05 0.11760761D+01  1  2  5 10  6  2       21 -.408270566132D-03 0.100000000000D+01
  </mgrwgt>
  </event>
  <event>
  5     66 0.42756899E-03 0.59063504E+02 0.75467711E-02 0.10892576E+00
        1 -1    0    0  502    0 0.00000000E+00 0.00000000E+00 0.10652037E+04 0.10652037E+04 0.32000000E+00 0.0000E+00 0.9000E+01
       21 -1    0    0  501  502 0.00000000E+00 0.00000000E+00 -.65598936E+02 0.65603223E+02 0.75000000E+00 0.0000E+00 0.9000E+01
       25  1    1    2    0    0 -.23852428E+02 0.61388135E+02 0.36180465E+03 0.38841350E+03 0.12500000E+03 0.0000E+00 0.9000E+01
       23  1    1    2    0    0 0.47867235E+02 -.11534904E+03 0.66106671E+03 0.67891171E+03 0.91188000E+02 0.0000E+00 0.9000E+01
        1  1    1    2  501    0 -.24014808E+02 0.53960905E+02 -.23266631E+02 0.63481720E+02 0.32000000E+00 0.0000E+00 0.9000E+01
#aMCatNLO 1  0  0  2  2 0.20343379D+03 0.00000000D+00  -5  6  0 0.00000000D+00 0.00000000D+00 0.00000000D+00 0.00000000D+00 0.00000000D+00
  <mgrwgt>
 0.3179931812D-01   12    2    0
 0.264345754540650D+03 0.000000000000000D+00 0.000000000000000D+00 0.264345754540650D+03
 0.264345754540650D+03 0.000000000000000D+00 0.000000000000000D+00 -.264345754540650D+03
 0.146699999369978D+03 -.238524171469434D+02 0.613881108389308D+02 0.394772321601573D+02
 0.202221358697025D+03 0.478672499063718D+02 -.115349072036542D+03 0.130313255411644D+03
 0.179770151014298D+03 -.240148327594284D+02 0.539609611976113D+02 -.169790487571801D+03
 0.000000000000000D+00 -.000000000000000D+00 0.000000000000000D+00 -.000000000000000D+00
 0.341995683663256D+03 0.000000000000000D+00 0.000000000000000D+00 0.341995683663256D+03
 0.459331404719743D+03 0.000000000000000D+00 0.000000000000000D+00 -.459331404719743D+03
 0.134677070514274D+03 0.153455025386874D+02 0.268137467563735D+02 0.394772321601573D+02
 0.259848763484497D+03 0.112237056393629D+03 -.172126195497766D+03 0.130313255411644D+03
 0.171954543413148D+03 0.249830345127392D+02 0.107425935923081D+02 -.169790487571801D+03
 0.234846710971079D+03 -.152565593445056D+03 0.134569855149085D+03 -.117335721056487D+03
0.131530604902D-04 0.000000000000D+00 0.000000000000D+00 0.743246028354D-06 0.000000000000D+00  6 1 21 25 23 1 21 2 0.16387782D+00 0.10092477D-01 0.31503913D+05 0.31503913D+05 0.31503913D+05 0.12126751D+01  1  2  2  2  6  2       21 0.249672931164D-01 0.100000000000D+01
0.108631395206D-05 0.694106071558D-06 -.265522395651D-07 0.743246028354D-06 0.000000000000D+00  6 1 21 25 23 1 21 4 0.16387782D+00 0.10092477D-01 0.31503913D+05 0.31503913D+05 0.31503913D+05 0.12126751D+01  1  2  3  2  6  2       21 0.303241721138D-02 0.100000000000D+01
0.118647145906D-05 0.000000000000D+00 0.000000000000D+00 0.743246028354D-06 0.000000000000D+00  6 1 21 25 23 1 21 4 0.16387782D+00 0.10092477D-01 0.31503913D+05 0.31503913D+05 0.31503913D+05 0.12126751D+01  1  2 15  2  6  2       21 0.331200429348D-02 0.100000000000D+01
-.630787903096D-06 0.000000000000D+00 -.210224656635D-04 0.743246028354D-06 0.000000000000D+00  6 1 21 25 23 1 21 4 0.16387782D+00 0.22751590D-01 0.31503913D+05 0.31503913D+05 0.31503913D+05 0.12126751D+01  1  2  5  2  6  2       21 -.400761631348D-03 0.100000000000D+01
0.224446756986D-05 0.000000000000D+00 -.600064137519D-05 0.743246028354D-06 0.000000000000D+00  6 1 -1 25 23 1 -1 4 0.16387782D+00 0.22751590D-01 0.31503913D+05 0.31503913D+05 0.31503913D+05 0.12126751D+01  1  2  5  5  6  2       21 0.116163488804D-03 0.100000000000D+01
0.224446756986D-05 0.000000000000D+00 -.600064137519D-05 0.743246028354D-06 0.000000000000D+00  6 1 1 25 23 1 1 4 0.16387782D+00 0.22751590D-01 0.31503913D+05 0.31503913D+05 0.31503913D+05 0.12126751D+01  1  2  5  6  6  2       21 0.182740152014D-03 0.100000000000D+01
0.224446756986D-05 0.000000000000D+00 -.600064137519D-05 0.743246028354D-06 0.000000000000D+00  6 1 -2 25 23 1 -2 4 0.16387782D+00 0.22751590D-01 0.31503913D+05 0.31503913D+05 0.31503913D+05 0.12126751D+01  1  2  5  7  6  2       21 0.105047191384D-03 0.100000000000D+01
0.224446756986D-05 0.000000000000D+00 -.600064137519D-05 0.743246028354D-06 0.000000000000D+00  6 1 -4 25 23 1 -4 4 0.16387782D+00 0.22751590D-01 0.31503913D+05 0.31503913D+05 0.31503913D+05 0.12126751D+01  1  2  5  7  6  2       21 0.585021337471D-04 0.100000000000D+01
0.224446756986D-05 0.000000000000D+00 -.600064137519D-05 0.743246028354D-06 0.000000000000D+00  6 1 2 25 23 1 2 4 0.16387782D+00 0.22751590D-01 0.31503913D+05 0.31503913D+05 0.31503913D+05 0.12126751D+01  1  2  5  8  6  2       21 0.230129477444D-03 0.100000000000D+01
0.224446756986D-05 0.000000000000D+00 -.600064137519D-05 0.743246028354D-06 0.000000000000D+00  6 1 4 25 23 1 4 4 0.16387782D+00 0.22751590D-01 0.31503913D+05 0.31503913D+05 0.31503913D+05 0.12126751D+01  1  2  5  8  6  2       21 0.585021337471D-04 0.100000000000D+01
0.224446756986D-05 0.000000000000D+00 -.600064137519D-05 0.743246028354D-06 0.000000000000D+00  6 1 -3 25 23 1 -3 4 0.16387782D+00 0.22751590D-01 0.31503913D+05 0.31503913D+05 0.31503913D+05 0.12126751D+01  1  2  5  9  6  2       21 0.686423750444D-04 0.100000000000D+01
0.224446756986D-05 0.000000000000D+00 -.600064137519D-05 0.743246028354D-06 0.000000000000D+00  6 1 3 25 23 1 3 4 0.16387782D+00 0.22751590D-01 0.31503913D+05 0.31503913D+05 0.31503913D+05 0.12126751D+01  1  2  5 10  6  2       21 0.686381781453D-04 0.100000000000D+01
  </mgrwgt>
  </event>
  <event>
  5     66 0.42756899E-03 0.10186199E+03 0.75467711E-02 0.11155734E+00
        3 -1    0    0  502    0 0.00000000E+00 0.00000000E+00 0.77865089E+02 0.77866695E+02 0.50000000E+00 0.0000E+00 0.9000E+01
       21 -1    0    0  501  502 0.00000000E+00 0.00000000E+00 -.77803928E+03 0.77803964E+03 0.75000000E+00 0.0000E+00 0.9000E+01
       25  1    1    2    0    0 0.65228825E+01 -.17584659E+03 -.25999868E+03 0.33791846E+03 0.12500000E+03 0.0000E+00 0.9000E+01
       23  1    1    2    0    0 0.72151342E+02 0.97736852E+02 -.18229832E+03 0.23728935E+03 0.91188000E+02 0.0000E+00 0.9000E+01
        3  1    1    2  501    0 -.78674225E+02 0.78109741E+02 -.25787719E+03 0.28069852E+03 0.50000000E+00 0.0000E+00 0.9000E+01
#aMCatNLO 1  0  0  2  1 0.14119621D+02 0.00000000D+00  -5  6  0 0.00000000D+00 0.00000000D+00 0.00000000D+00 0.00000000D+00 0.00000000D+00
  <mgrwgt>
 0.9089205261D-02   23    2    0
 0.246136018422616D+03 0.000000000000000D+00 0.000000000000000D+00 0.246136018422616D+03
 0.246136018422616D+03 0.000000000000000D+00 0.000000000000000D+00 -.246136018422616D+03
 0.217729853972828D+03 0.652317830078997D+01 -.175846886403208D+03 0.285763888233348D+02
 0.153282876924395D+03 0.721515504443399D+02 0.977366448832228D+02 0.205448540921555D+02
 0.121259305948009D+03 -.786747287451299D+02 0.781102415199853D+02 -.491212429154903D+02
 0.000000000000000D+00 0.000000000000000D+00 0.000000000000000D+00 -.000000000000000D+00
 0.251711589599733D+03 0.000000000000000D+00 0.000000000000000D+00 0.251711589599733D+03
 0.255341697868837D+03 0.000000000000000D+00 0.000000000000000D+00 -.255341697868837D+03
 0.221878437949740D+03 0.296740617406837D+01 -.181051444980238D+03 0.285763888233348D+02
 0.149863780080515D+03 0.696995483936671D+02 0.941476667797549D+02 0.205448540921555D+02
 0.120732270597678D+03 -.806320778638633D+02 0.752452834233764D+02 -.491212429154903D+02
 0.145787988406374D+02 0.796512329612788D+01 0.116584947771070D+02 -.363010826910436D+01
0.554208268203D-05 0.000000000000D+00 0.000000000000D+00 0.778384978599D-07 0.000000000000D+00  6 3 21 25 23 3 21 2 0.11979396D-01 0.11969850D+00 0.57267041D+05 0.57267041D+05 0.57267041D+05 0.11864888D+01  1  2  2  2  6  2       21 0.110454859255D-02 0.100000000000D+01
-.245672519856D-06 0.292463738118D-06 -.111878681902D-07 0.778384978599D-07 0.000000000000D+00  6 3 21 25 23 3 21 4 0.11979396D-01 0.11969850D+00 0.57267041D+05 0.57267041D+05 0.57267041D+05 0.11864888D+01  1  2  3  2  6  2       21 -.689280064812D-04 0.100000000000D+01
0.551067776114D-06 0.000000000000D+00 0.000000000000D+00 0.778384978599D-07 0.000000000000D+00  6 3 21 25 23 3 21 4 0.11979396D-01 0.11969850D+00 0.57267041D+05 0.57267041D+05 0.57267041D+05 0.11864888D+01  1  2 15  2  6  2       21 0.154612340305D-03 0.100000000000D+01
0.152919005598D-04 0.000000000000D+00 0.000000000000D+00 0.775131045032D-07 0.000000000000D+00  6 3 21 25 23 3 21 4 0.11979396D-01 0.12549014D+00 0.60734333D+05 0.60734333D+05 0.60734333D+05 0.11840063D+01  1  2 12  2  6  2       21 0.377448052514D-02 0.100000000000D+01
-.639660029906D-05 0.000000000000D+00 0.000000000000D+00 0.778384978599D-07 0.000000000000D+00  6 3 21 25 23 3 21 4 0.11979396D-01 0.11969850D+00 0.57267041D+05 0.57267041D+05 0.57267041D+05 0.11864888D+01  1  2  4  2  6  2       21 -.179468549079D-02 0.100000000000D+01
-.190482810290D-03 0.000000000000D+00 -.295607370538D-04 0.778384978599D-07 0.000000000000D+00  6 3 21 25 23 3 21 4 0.11979396D-01 0.12622702D+00 0.57267041D+05 0.57267041D+05 0.57267041D+05 0.11864888D+01  1  2  5  2  6  2       21 -.467696272230D-01 0.100000000000D+01
0.190891977199D-03 0.000000000000D+00 0.293946641012D-04 0.778384978599D-07 0.000000000000D+00  6 3 21 25 23 3 21 4 0.11979396D-01 0.11969850D+00 0.57267041D+05 0.57267041D+05 0.57267041D+05 0.11864888D+01  1  2  6  2  6  2       21 0.535583037504D-01 0.100000000000D+01
0.266667185177D-06 0.000000000000D+00 0.000000000000D+00 0.775131045032D-07 0.000000000000D+00  6 3 -3 25 23 3 -3 4 0.11979396D-01 0.12549014D+00 0.60734333D+05 0.60734333D+05 0.60734333D+05 0.11840063D+01  1  2 12  5  6  2       21 0.376410889589D-05 0.100000000000D+01
-.212506298383D-05 0.000000000000D+00 -.376708784667D-06 0.778384978599D-07 0.000000000000D+00  6 3 -3 25 23 3 -3 4 0.11979396D-01 0.12622702D+00 0.57267041D+05 0.57267041D+05 0.57267041D+05 0.11864888D+01  1  2  5  5  6  2       21 -.297603883630D-04 0.100000000000D+01
0.266667185177D-06 0.000000000000D+00 0.000000000000D+00 0.775131045032D-07 0.000000000000D+00  6 3 3 25 23 3 3 4 0.11979396D-01 0.12549014D+00 0.60734333D+05 0.60734333D+05 0.60734333D+05 0.11840063D+01  1  2 12  6  6  2       21 0.377511853483D-05 0.100000000000D+01
-.212506298383D-05 0.000000000000D+00 -.376708784667D-06 0.778384978599D-07 0.000000000000D+00  6 3 3 25 23 3 3 4 0.11979396D-01 0.12622702D+00 0.57267041D+05 0.57267041D+05 0.57267041D+05 0.11864888D+01  1  2  5  6  6  2       21 -.298482670131D-04 0.100000000000D+01
0.266667185177D-06 0.000000000000D+00 0.000000000000D+00 0.775131045032D-07 0.000000000000D+00  6 3 -2 25 23 3 -2 4 0.11979396D-01 0.12549014D+00 0.60734333D+05 0.60734333D+05 0.60734333D+05 0.11840063D+01  1  2 12  7  6  2       21 0.583423420971D-05 0.100000000000D+01
0.266667185177D-06 0.000000000000D+00 0.000000000000D+00 0.775131045032D-07 0.000000000000D+00  6 3 -4 25 23 3 -4 4 0.11979396D-01 0.12549014D+00 0.60734333D+05 0.60734333D+05 0.60734333D+05 0.11840063D+01  1  2 12  7  6  2       21 0.300738895198D-05 0.100000000000D+01
-.212506298383D-05 0.000000000000D+00 -.376708784667D-06 0.778384978599D-07 0.000000000000D+00  6 3 -2 25 23 3 -2 4 0.11979396D-01 0.12622702D+00 0.57267041D+05 0.57267041D+05 0.57267041D+05 0.11864888D+01  1  2  5  7  6  2       21 -.461557138839D-04 0.100000000000D+01
-.212506298383D-05 0.000000000000D+00 -.376708784667D-06 0.778384978599D-07 0.000000000000D+00  6 3 -4 25 23 3 -4 4 0.11979396D-01 0.12622702D+00 0.57267041D+05 0.57267041D+05 0.57267041D+05 0.11864888D+01  1  2  5  7  6  2       21 -.237593728097D-04 0.100000000000D+01
0.266667185177D-06 0.000000000000D+00 0.000000000000D+00 0.775131045032D-07 0.000000000000D+00  6 3 2 25 23 3 2 4 0.11979396D-01 0.12549014D+00 0.60734333D+05 0.60734333D+05 0.60734333D+05 0.11840063D+01  1  2 12  8  6  2       21 0.623057237160D-04 0.100000000000D+01
0.266667185177D-06 0.000000000000D+00 0.000000000000D+00 0.775131045032D-07 0.000000000000D+00  6 3 4 25 23 3 4 4 0.11979396D-01 0.12549014D+00 0.60734333D+05 0.60734333D+05 0.60734333D+05 0.11840063D+01  1  2 12  8  6  2       21 0.300738895198D-05 0.100000000000D+01
-.212506298383D-05 0.000000000000D+00 -.376708784667D-06 0.778384978599D-07 0.000000000000D+00  6 3 2 25 23 3 2 4 0.11979396D-01 0.12622702D+00 0.57267041D+05 0.57267041D+05 0.57267041D+05 0.11864888D+01  1  2  5  8  6  2       21 -.496281714901D-03 0.100000000000D+01
-.212506298383D-05 0.000000000000D+00 -.376708784667D-06 0.778384978599D-07 0.000000000000D+00  6 3 4 25 23 3 4 4 0.11979396D-01 0.12622702D+00 0.57267041D+05 0.57267041D+05 0.57267041D+05 0.11864888D+01  1  2  5  8  6  2       21 -.237593728097D-04 0.100000000000D+01
0.266667185177D-06 0.000000000000D+00 0.000000000000D+00 0.775131045032D-07 0.000000000000D+00  6 3 -1 25 23 3 -1 4 0.11979396D-01 0.12549014D+00 0.60734333D+05 0.60734333D+05 0.60734333D+05 0.11840063D+01  1  2 12  9  6  2       21 0.793549246789D-05 0.100000000000D+01
-.212506298383D-05 0.000000000000D+00 -.376708784667D-06 0.778384978599D-07 0.000000000000D+00  6 3 -1 25 23 3 -1 4 0.11979396D-01 0.12622702D+00 0.57267041D+05 0.57267041D+05 0.57267041D+05 0.11864888D+01  1  2  5  9  6  2       21 -.628153069703D-04 0.100000000000D+01
0.266667185177D-06 0.000000000000D+00 0.000000000000D+00 0.775131045032D-07 0.000000000000D+00  6 3 1 25 23 3 1 4 0.11979396D-01 0.12549014D+00 0.60734333D+05 0.60734333D+05 0.60734333D+05 0.11840063D+01  1  2 12 10  6  2       21 0.354772476508D-04 0.100000000000D+01
-.212506298383D-05 0.000000000000D+00 -.376708784667D-06 0.778384978599D-07 0.000000000000D+00  6 3 1 25 23 3 1 4 0.11979396D-01 0.12622702D+00 0.57267041D+05 0.57267041D+05 0.57267041D+05 0.11864888D+01  1  2  5 10  6  2       21 -.282225794243D-03 0.100000000000D+01
  </mgrwgt>
  </event>
  <event>
  6     66 0.42756899E-03 0.55968083E+02 0.75467711E-02 0.11702580E+00
        1 -1    0    0  502    0 0.00000000E+00 0.00000000E+00 0.12246983E+04 0.12246983E+04 0.32000000E+00 0.0000E+00 0.9000E+01
       21 -1    0    0  501  502 0.00000000E+00 0.00000000E+00 -.41357608E+02 0.41364408E+02 0.75000000E+00 0.0000E+00 0.9000E+01
       25  1    1    2    0    0 0.41758624E+02 -.61119700E+01 0.47026910E+03 0.48842519E+03 0.12500000E+03 0.0000E+00 0.9000E+01
       23  1    1    2    0    0 -.90603656E+02 0.65293285E+02 0.66445020E+03 0.67991290E+03 0.91188000E+02 0.0000E+00 0.9000E+01
        1  1    1    2  503    0 0.34866860E+02 -.53322710E+02 0.51929295E+02 0.82193451E+02 0.32000000E+00 0.0000E+00 0.9000E+01
       21  1    1    2  501  503 0.13978172E+02 -.58586056E+01 -.33079331E+01 0.15531177E+02 0.75000000E+00 0.0000E+00 0.9000E+01
#aMCatNLO 2  0  0  5  2 0.17229868D+02 0.00000000D+00  -5  6  0 0.00000000D+00 0.00000000D+00 0.00000000D+00 0.00000000D+00 0.00000000D+00
  <mgrwgt>
 0.4992470498D-01    2    2    0
 0.225066484037179D+03 0.000000000000000D+00 0.000000000000000D+00 0.225066484037179D+03
 0.225066484037179D+03 -.000000000000000D+00 -.000000000000000D+00 -.225066484037179D+03
 0.137653713555047D+03 0.412870383016922D+02 -.554058967891181D+01 0.398525681704390D+02
 0.166875670012733D+03 -.911735066507233D+02 0.659837245014108D+02 0.828599884391202D+02
 0.145603584506577D+03 0.498864683490311D+02 -.604431348224990D+02 -.122712556609559D+03
 0.000000000000000D+00 0.000000000000000D+00 0.000000000000000D+00 -.000000000000000D+00
 0.225066484037179D+03 0.000000000000000D+00 0.000000000000000D+00 0.225066484037179D+03
 0.225066484037179D+03 -.000000000000000D+00 -.000000000000000D+00 -.225066484037179D+03
 0.137488949639760D+03 0.417590648849468D+02 -.611250361380582D+01 0.386914599433827D+02
 0.165597526069189D+03 -.906031255075446D+02 0.652926428217828D+02 0.814569440738300D+02
 0.944093399902806D+02 0.347821670066342D+02 -.532456490565199D+02 -.697726679457861D+02
 0.526371523751281D+02 0.140618936159637D+02 -.593449015145706D+01 -.503757360714266D+02
-.362971584936D-05 0.000000000000D+00 0.000000000000D+00 0.404800664158D-06 0.000000000000D+00  6 1 21 25 23 1 21 4 0.18841564D+00 0.63632352D-02 0.31501442D+05 0.31501442D+05 0.31501442D+05 0.12126787D+01  1  2 13  3  6  5        1 -.174551084105D-01 0.100000000000D+01
0.140113467543D-04 0.000000000000D+00 0.000000000000D+00 0.404799399065D-06 0.386503804253D-07  6 1 21 25 23 1 21 4 0.18841564D+00 0.63632352D-02 0.31501442D+05 0.31501442D+05 0.31501442D+05 0.12126787D+01  1  2  1  3  6  5        1 0.673798133856D-01 0.100000000000D+01
  </mgrwgt>
  </event>
  <event>
  5     66 0.42756899E-03 0.88979818E+02 0.75467711E-02 0.10854151E+00
        1 -1    0    0  502    0 0.00000000E+00 0.00000000E+00 0.26807735E+03 0.26807754E+03 0.32000000E+00 0.0000E+00 0.9000E+01
       21 -1    0    0  501  502 0.00000000E+00 0.00000000E+00 -.12598025E+03 0.12598248E+03 0.75000000E+00 0.0000E+00 0.9000E+01
       25  1    1    2    0    0 0.28317469E+02 -.37424436E+02 0.30690402E+02 0.13700134E+03 0.12500000E+03 0.0000E+00 0.9000E+01
       23  1    1    2    0    0 -.87711206E+02 -.28830550E+02 0.10661833E+03 0.16794992E+03 0.91188000E+02 0.0000E+00 0.9000E+01
        1  1    1    2  501    0 0.59393737E+02 0.66254986E+02 0.47883632E+01 0.89108754E+02 0.32000000E+00 0.0000E+00 0.9000E+01
#aMCatNLO 1  0  0  2  1 0.74557205D+01 0.00000000D+00  -5  6  0 0.00000000D+00 0.00000000D+00 0.00000000D+00 0.00000000D+00 0.00000000D+00
  <mgrwgt>
 0.6795807668D-02   12    2    0
 0.183774123304138D+03 0.000000000000000D+00 0.000000000000000D+00 0.183774123304138D+03
 0.183774123304138D+03 0.000000000000000D+00 0.000000000000000D+00 -.183774123304138D+03
 0.135018291742165D+03 0.283173418501164D+02 -.374245782122456D+02 -.200616101335773D+02
 0.138845020551675D+03 -.877113368120554D+02 -.288306957080647D+02 0.493781405849414D+02
 0.936849343144348D+02 0.593939949619390D+02 0.662552739203103D+02 -.293165304513642D+02
 0.000000000000000D+00 -.000000000000000D+00 -.000000000000000D+00 -.000000000000000D+00
 0.245769677004760D+03 0.000000000000000D+00 0.000000000000000D+00 0.245769677004760D+03
 0.473009571124767D+03 0.000000000000000D+00 0.000000000000000D+00 -.473009571124767D+03
 0.158097268930884D+03 0.945785500299490D+02 -.470915241682961D+01 -.200616101335773D+02
 0.108472996183881D+03 -.318030440011622D+02 -.122685848494774D+01 0.493781405849414D+02
 0.150871775128065D+03 0.114678071313721D+03 0.935509141182101D+02 -.293165304513642D+02
 0.301337207886697D+03 -.177453577342508D+03 -.876149032164327D+02 -.227239894120007D+03
0.239050842400D-05 0.000000000000D+00 0.000000000000D+00 0.168018812424D-06 0.000000000000D+00  6 1 21 25 23 1 21 2 0.41242855D-01 0.19381763D-01 0.31023079D+05 0.31023079D+05 0.31023079D+05 0.12133729D+01  1  2  2  2  6  2       21 0.950616444912D-02 0.100000000000D+01
-.137835998420D-06 0.126150595326D-06 -.482574777204D-08 0.168018812424D-06 0.000000000000D+00  6 1 21 25 23 1 21 4 0.41242855D-01 0.19381763D-01 0.31023079D+05 0.31023079D+05 0.31023079D+05 0.12133729D+01  1  2  3  2  6  2       21 -.806986468531D-03 0.100000000000D+01
0.303477017074D-06 0.000000000000D+00 0.000000000000D+00 0.168018812424D-06 0.000000000000D+00  6 1 21 25 23 1 21 4 0.41242855D-01 0.19381763D-01 0.31023079D+05 0.31023079D+05 0.31023079D+05 0.12133729D+01  1  2 15  2  6  2       21 0.177676259538D-02 0.100000000000D+01
-.511968335896D-05 0.000000000000D+00 -.708981055706D-05 0.168018812424D-06 0.000000000000D+00  6 1 21 25 23 1 21 4 0.41242855D-01 0.63902549D-01 0.31023079D+05 0.31023079D+05 0.31023079D+05 0.12133729D+01  1  2  5  2  6  2       21 -.278489841885D-02 0.100000000000D+01
-.152760615396D-05 0.000000000000D+00 -.262116229039D-05 0.168018812424D-06 0.000000000000D+00  6 1 -1 25 23 1 -1 4 0.41242855D-01 0.63902549D-01 0.31023079D+05 0.31023079D+05 0.31023079D+05 0.12133729D+01  1  2  5  5  6  2       21 -.873684897460D-04 0.100000000000D+01
-.152760615396D-05 0.000000000000D+00 -.262116229039D-05 0.168018812424D-06 0.000000000000D+00  6 1 1 25 23 1 1 4 0.41242855D-01 0.63902549D-01 0.31023079D+05 0.31023079D+05 0.31023079D+05 0.12133729D+01  1  2  5  6  6  2       21 -.232109805243D-03 0.100000000000D+01
-.152760615396D-05 0.000000000000D+00 -.262116229039D-05 0.168018812424D-06 0.000000000000D+00  6 1 -2 25 23 1 -2 4 0.41242855D-01 0.63902549D-01 0.31023079D+05 0.31023079D+05 0.31023079D+05 0.12133729D+01  1  2  5  7  6  2       21 -.689741412200D-04 0.100000000000D+01
-.152760615396D-05 0.000000000000D+00 -.262116229039D-05 0.168018812424D-06 0.000000000000D+00  6 1 -4 25 23 1 -4 4 0.41242855D-01 0.63902549D-01 0.31023079D+05 0.31023079D+05 0.31023079D+05 0.12133729D+01  1  2  5  7  6  2       21 -.354598989729D-04 0.100000000000D+01
-.152760615396D-05 0.000000000000D+00 -.262116229039D-05 0.168018812424D-06 0.000000000000D+00  6 1 2 25 23 1 2 4 0.41242855D-01 0.63902549D-01 0.31023079D+05 0.31023079D+05 0.31023079D+05 0.12133729D+01  1  2  5  8  6  2       21 -.349037053024D-03 0.100000000000D+01
-.152760615396D-05 0.000000000000D+00 -.262116229039D-05 0.168018812424D-06 0.000000000000D+00  6 1 4 25 23 1 4 4 0.41242855D-01 0.63902549D-01 0.31023079D+05 0.31023079D+05 0.31023079D+05 0.12133729D+01  1  2  5  8  6  2       21 -.354598989729D-04 0.100000000000D+01
-.152760615396D-05 0.000000000000D+00 -.262116229039D-05 0.168018812424D-06 0.000000000000D+00  6 1 -3 25 23 1 -3 4 0.41242855D-01 0.63902549D-01 0.31023079D+05 0.31023079D+05 0.31023079D+05 0.12133729D+01  1  2  5  9  6  2       21 -.433954828190D-04 0.100000000000D+01
-.152760615396D-05 0.000000000000D+00 -.262116229039D-05 0.168018812424D-06 0.000000000000D+00  6 1 3 25 23 1 3 4 0.41242855D-01 0.63902549D-01 0.31023079D+05 0.31023079D+05 0.31023079D+05 0.12133729D+01  1  2  5 10  6  2       21 -.434297195637D-04 0.100000000000D+01
  </mgrwgt>
  </event>
  <event>
  6     66 0.42756899E-03 0.17751420E+02 0.75467711E-02 0.12183887E+00
        1 -1    0    0  503    0 0.00000000E+00 0.00000000E+00 0.45022654E+03 0.45022666E+03 0.32000000E+00 0.0000E+00 0.9000E+01
       21 -1    0    0  501  502 0.00000000E+00 0.00000000E+00 -.14403285E+03 0.14403481E+03 0.75000000E+00 0.0000E+00 0.9000E+01
       25  1    1    2    0    0 0.14353074E+02 0.35340866E+02 0.57977221E+02 0.14297323E+03 0.12500000E+03 0.0000E+00 0.9000E+01
       23  1    1    2    0    0 -.51786676E+01 -.35892254E+02 0.18864681E+03 0.21264511E+03 0.91188000E+02 0.0000E+00 0.9000E+01
        1  1    1    2  501    0 0.16781566E+02 -.44298032E+01 -.87505229E+02 0.89210491E+02 0.32000000E+00 0.0000E+00 0.9000E+01
       21  1    1    2  503  502 -.25955973E+02 0.49811907E+01 0.14707489E+03 0.14943262E+03 0.75000000E+00 0.0000E+00 0.9000E+01
#aMCatNLO 2  0  0  1  1 0.10786533D+02 0.00000000D+00  -5  6  0 0.00000000D+00 0.00000000D+00 0.00000000D+00 0.00000000D+00 0.00000000D+00
  <mgrwgt>
 0.1705750923D-02    1    2    0
 0.207277215150386D+03 0.000000000000000D+00 0.000000000000000D+00 0.207277215150386D+03
 0.207277215150386D+03 0.000000000000000D+00 0.000000000000000D+00 -.207277215150386D+03
 0.130686930831829D+03 0.617231441510524D+01 0.369108309209163D+02 0.731894703710623D+01
 0.155658937118849D+03 -.149083404130289D+02 -.340250385333263D+02 0.120559078877970D+03
 0.128208562350093D+03 0.873602599792369D+01 -.288579238758992D+01 -.127878025915076D+03
 0.000000000000000D+00 -.000000000000000D+00 0.000000000000000D+00 0.000000000000000D+00
 0.309665199648669D+03 0.000000000000000D+00 0.000000000000000D+00 0.309665199648669D+03
 0.209410660200191D+03 0.000000000000000D+00 0.000000000000000D+00 -.209410660200191D+03
 0.130895204341584D+03 0.143530657647385D+02 0.353408692174673D+02 0.731894703710623D+01
 0.155450362579655D+03 -.517867052672447D+01 -.358922520025859D+02 0.120559078877970D+03
 0.129050509680522D+03 0.167815773476924D+02 -.442980796298508D+01 -.127878025915076D+03
 0.103679783247099D+03 -.259559725857064D+02 0.498119074810362D+01 0.100254539448479D+03
0.659833775954D-06 0.000000000000D+00 0.000000000000D+00 0.250522085235D-04 0.933631321458D-07  6 1 21 25 23 1 21 4 0.69265336D-01 0.22158917D-01 0.18579142D+05 0.18579142D+05 0.18579142D+05 0.12373651D+01  1  2  1  1  6  1        1 0.170575092338D-02 0.100000000000D+01
  </mgrwgt>
  </event>
  <event>
  5     66 0.42756899E-03 0.49243591E+02 0.75467711E-02 0.11761731E+00
        1 -1    0    0  502    0 0.00000000E+00 0.00000000E+00 0.17664125E+03 0.17664154E+03 0.32000000E+00 0.0000E+00 0.9000E+01
       21 -1    0    0  501  502 0.00000000E+00 0.00000000E+00 -.17726324E+03 0.17726482E+03 0.75000000E+00 0.0000E+00 0.9000E+01
       25  1    1    2    0    0 0.66528290E+02 0.17994180E+02 0.47225414E+02 0.15034974E+03 0.12500000E+03 0.0000E+00 0.9000E+01
       23  1    1    2    0    0 -.11565472E+03 -.11474614E+02 -.29061234E+02 0.15055725E+03 0.91188000E+02 0.0000E+00 0.9000E+01
        1  1    1    2  501    0 0.49126425E+02 -.65195666E+01 -.18786169E+02 0.52999367E+02 0.32000000E+00 0.0000E+00 0.9000E+01
#aMCatNLO 1  0  0  2  1 0.32351219D+01 0.00000000D+00  -5  6  0 0.00000000D+00 0.00000000D+00 0.00000000D+00 0.00000000D+00 0.00000000D+00
  <mgrwgt>
 0.5163793428D-01   32    2    0
 0.176952905775269D+03 0.000000000000000D+00 0.000000000000000D+00 0.176952905775269D+03
 0.176952905775269D+03 0.000000000000000D+00 0.000000000000000D+00 -.176952905775269D+03
 0.150432851888836D+03 0.665279092568297D+02 0.179942309517743D+02 0.474898712335352D+02
 0.150506672176974D+03 -.115655096377896D+03 -.114745631760191D+02 -.287965294354390D+02
 0.529662874847288D+02 0.491271871210664D+02 -.651966777575523D+01 -.186933417980962D+02
 0.000000000000000D+00 0.000000000000000D+00 -.000000000000000D+00 -.000000000000000D+00
 0.178501369623679D+03 0.000000000000000D+00 0.000000000000000D+00 0.178501369623679D+03
 0.178658146483895D+03 0.000000000000000D+00 0.000000000000000D+00 -.178658146483895D+03
 0.149876247596253D+03 0.651831457869849D+02 0.182690784953248D+02 0.474898712335352D+02
 0.151527769241620D+03 -.117007585810122D+03 -.111981365727831D+02 -.287965294354390D+02
 0.525165808430691D+02 0.486548420996704D+02 -.642312821935729D+01 -.186933417980962D+02
 0.323891842663169D+01 0.316959792346627D+01 -.647813703184457D+00 -.156776860215646D+00
0.179491738117D-05 0.000000000000D+00 0.000000000000D+00 0.195524606790D-06 0.000000000000D+00  6 1 21 25 23 1 21 2 0.27175721D-01 0.27271411D-01 0.28904120D+05 0.28904120D+05 0.28904120D+05 0.12165983D+01  1  2  2  2  6  2       21 0.634331050209D-02 0.100000000000D+01
-.121723036542D-07 0.947203925000D-07 -.362342105396D-08 0.195524606790D-06 0.000000000000D+00  6 1 21 25 23 1 21 4 0.27175721D-01 0.27271411D-01 0.28904120D+05 0.28904120D+05 0.28904120D+05 0.12165983D+01  1  2  3  2  6  2       21 -.636705610204D-04 0.100000000000D+01
0.170301634754D-06 0.000000000000D+00 0.000000000000D+00 0.195524606790D-06 0.000000000000D+00  6 1 21 25 23 1 21 4 0.27175721D-01 0.27271411D-01 0.28904120D+05 0.28904120D+05 0.28904120D+05 0.12165983D+01  1  2 15  2  6  2       21 0.890809244953D-03 0.100000000000D+01
0.257253657064D-07 0.000000000000D+00 0.000000000000D+00 0.195248687369D-06 0.000000000000D+00  6 1 21 25 23 1 21 4 0.27175721D-01 0.27652446D-01 0.29452033D+05 0.29452033D+05 0.29452033D+05 0.12157396D+01  1  2 12  2  6  2       21 0.130635075488D-03 0.100000000000D+01
-.379331263250D-06 0.000000000000D+00 0.000000000000D+00 0.195524606790D-06 0.000000000000D+00  6 1 21 25 23 1 21 4 0.27175721D-01 0.27271411D-01 0.28904120D+05 0.28904120D+05 0.28904120D+05 0.12165983D+01  1  2  4  2  6  2       21 -.198419584574D-02 0.100000000000D+01
-.256926917418D-03 0.000000000000D+00 -.308341654225D-04 0.195524606790D-06 0.000000000000D+00  6 1 21 25 23 1 21 4 0.27175721D-01 0.27761585D-01 0.28904120D+05 0.28904120D+05 0.28904120D+05 0.12165983D+01  1  2  5  2  6  2       21 -.129864183429D+01 0.100000000000D+01
0.257317480791D-03 0.000000000000D+00 0.308146038375D-04 0.195524606790D-06 0.000000000000D+00  6 1 21 25 23 1 21 4 0.27175721D-01 0.27271411D-01 0.28904120D+05 0.28904120D+05 0.28904120D+05 0.12165983D+01  1  2  6  2  6  2       21 0.134596940956D+01 0.100000000000D+01
0.349359866021D-06 0.000000000000D+00 0.000000000000D+00 0.195524606790D-06 0.956466633979D-06  6 1 21 25 23 1 21 4 0.27413528D-01 0.27534218D-01 0.29452033D+05 0.29452033D+05 0.29452033D+05 0.12157396D+01  1  2 11  2  6  2       21 0.176927679482D-02 0.100000000000D+01
0.173068826480D-08 0.000000000000D+00 0.000000000000D+00 0.195248687369D-06 0.000000000000D+00  6 1 -1 25 23 1 -1 4 0.27175721D-01 0.27652446D-01 0.29452033D+05 0.29452033D+05 0.29452033D+05 0.12157396D+01  1  2 12  5  6  2       21 0.750821619787D-06 0.100000000000D+01
-.921383243365D-06 0.000000000000D+00 -.125331054480D-06 0.195524606790D-06 0.000000000000D+00  6 1 -1 25 23 1 -1 4 0.27175721D-01 0.27761585D-01 0.28904120D+05 0.28904120D+05 0.28904120D+05 0.12165983D+01  1  2  5  5  6  2       21 -.398098282109D-03 0.100000000000D+01
0.120421877434D-06 0.000000000000D+00 0.000000000000D+00 0.195524606790D-06 0.329101591083D-06  6 1 -1 25 23 1 -1 4 0.27413528D-01 0.27534218D-01 0.29452033D+05 0.29452033D+05 0.29452033D+05 0.12157396D+01  1  2 11  5  6  2       21 0.520447317422D-04 0.100000000000D+01
0.173068826480D-08 0.000000000000D+00 0.000000000000D+00 0.195248687369D-06 0.000000000000D+00  6 1 1 25 23 1 1 4 0.27175721D-01 0.27652446D-01 0.29452033D+05 0.29452033D+05 0.29452033D+05 0.12157396D+01  1  2 12  6  6  2       21 0.127445690593D-05 0.100000000000D+01
-.921383243365D-06 0.000000000000D+00 -.125331054480D-06 0.195524606790D-06 0.000000000000D+00  6 1 1 25 23 1 1 4 0.27175721D-01 0.27761585D-01 0.28904120D+05 0.28904120D+05 0.28904120D+05 0.12165983D+01  1  2  5  6  6  2       21 -.676846725356D-03 0.100000000000D+01
0.860377897269D-07 0.000000000000D+00 0.000000000000D+00 0.195524606790D-06 0.450087678823D-09  6 1 1 25 23 1 1 4 0.27413528D-01 0.27534218D-01 0.29452033D+05 0.29452033D+05 0.29452033D+05 0.12157396D+01  1  2 11  6  6  2       21 0.630051819573D-04 0.100000000000D+01
0.173068826480D-08 0.000000000000D+00 0.000000000000D+00 0.195248687369D-06 0.000000000000D+00  6 1 -2 25 23 1 -2 4 0.27175721D-01 0.27652446D-01 0.29452033D+05 0.29452033D+05 0.29452033D+05 0.12157396D+01  1  2 12  7  6  2       21 0.665398538386D-06 0.100000000000D+01
0.173068826480D-08 0.000000000000D+00 0.000000000000D+00 0.195248687369D-06 0.000000000000D+00  6 1 -4 25 23 1 -4 4 0.27175721D-01 0.27652446D-01 0.29452033D+05 0.29452033D+05 0.29452033D+05 0.12157396D+01  1  2 12  7  6  2       21 0.362663593032D-06 0.100000000000D+01
-.921383243365D-06 0.000000000000D+00 -.125331054480D-06 0.195524606790D-06 0.000000000000D+00  6 1 -2 25 23 1 -2 4 0.27175721D-01 0.27761585D-01 0.28904120D+05 0.28904120D+05 0.28904120D+05 0.12165983D+01  1  2  5  7  6  2       21 -.352641704200D-03 0.100000000000D+01
-.921383243365D-06 0.000000000000D+00 -.125331054480D-06 0.195524606790D-06 0.000000000000D+00  6 1 -4 25 23 1 -4 4 0.27175721D-01 0.27761585D-01 0.28904120D+05 0.28904120D+05 0.28904120D+05 0.12165983D+01  1  2  5  7  6  2       21 -.192015347985D-03 0.100000000000D+01
0.114141349934D-06 0.000000000000D+00 0.000000000000D+00 0.195524606790D-06 0.633397481132D-09  6 1 -2 25 23 1 -2 4 0.27413528D-01 0.27534218D-01 0.29452033D+05 0.29452033D+05 0.29452033D+05 0.12157396D+01  1  2 11  7  6  2       21 0.437386739960D-04 0.100000000000D+01
0.114141349934D-06 0.000000000000D+00 0.000000000000D+00 0.195524606790D-06 0.633397481132D-09  6 1 -4 25 23 1 -4 4 0.27413528D-01 0.27534218D-01 0.29452033D+05 0.29452033D+05 0.29452033D+05 0.12157396D+01  1  2 11  7  6  2       21 0.238487656677D-04 0.100000000000D+01
0.173068826480D-08 0.000000000000D+00 0.000000000000D+00 0.195248687369D-06 0.000000000000D+00  6 1 2 25 23 1 2 4 0.27175721D-01 0.27652446D-01 0.29452033D+05 0.29452033D+05 0.29452033D+05 0.12157396D+01  1  2 12  8  6  2       21 0.165346649235D-05 0.100000000000D+01
0.173068826480D-08 0.000000000000D+00 0.000000000000D+00 0.195248687369D-06 0.000000000000D+00  6 1 4 25 23 1 4 4 0.27175721D-01 0.27652446D-01 0.29452033D+05 0.29452033D+05 0.29452033D+05 0.12157396D+01  1  2 12  8  6  2       21 0.362663593032D-06 0.100000000000D+01
-.921383243365D-06 0.000000000000D+00 -.125331054480D-06 0.195524606790D-06 0.000000000000D+00  6 1 2 25 23 1 2 4 0.27175721D-01 0.27761585D-01 0.28904120D+05 0.28904120D+05 0.28904120D+05 0.12165983D+01  1  2  5  8  6  2       21 -.878649139415D-03 0.100000000000D+01
-.921383243365D-06 0.000000000000D+00 -.125331054480D-06 0.195524606790D-06 0.000000000000D+00  6 1 4 25 23 1 4 4 0.27175721D-01 0.27761585D-01 0.28904120D+05 0.28904120D+05 0.28904120D+05 0.12165983D+01  1  2  5  8  6  2       21 -.192015347985D-03 0.100000000000D+01
0.112126936763D-06 0.000000000000D+00 0.000000000000D+00 0.195524606790D-06 0.622219023638D-09  6 1 2 25 23 1 2 4 0.27413528D-01 0.27534218D-01 0.29452033D+05 0.29452033D+05 0.29452033D+05 0.12157396D+01  1  2 11  8  6  2       21 0.106456746534D-03 0.100000000000D+01
0.112126936763D-06 0.000000000000D+00 0.000000000000D+00 0.195524606790D-06 0.622219023638D-09  6 1 4 25 23 1 4 4 0.27413528D-01 0.27534218D-01 0.29452033D+05 0.29452033D+05 0.29452033D+05 0.12157396D+01  1  2 11  8  6  2       21 0.234278729088D-04 0.100000000000D+01
0.173068826480D-08 0.000000000000D+00 0.000000000000D+00 0.195248687369D-06 0.000000000000D+00  6 1 -3 25 23 1 -3 4 0.27175721D-01 0.27652446D-01 0.29452033D+05 0.29452033D+05 0.29452033D+05 0.12157396D+01  1  2 12  9  6  2       21 0.429094547038D-06 0.100000000000D+01
-.921383243365D-06 0.000000000000D+00 -.125331054480D-06 0.195524606790D-06 0.000000000000D+00  6 1 -3 25 23 1 -3 4 0.27175721D-01 0.27761585D-01 0.28904120D+05 0.28904120D+05 0.28904120D+05 0.12165983D+01  1  2  5  9  6  2       21 -.227267245189D-03 0.100000000000D+01
0.100505882582D-06 0.000000000000D+00 0.000000000000D+00 0.195524606790D-06 0.557731031771D-09  6 1 -3 25 23 1 -3 4 0.27413528D-01 0.27534218D-01 0.29452033D+05 0.29452033D+05 0.29452033D+05 0.12157396D+01  1  2 11  9  6  2       21 0.248421537712D-04 0.100000000000D+01
0.173068826480D-08 0.000000000000D+00 0.000000000000D+00 0.195248687369D-06 0.000000000000D+00  6 1 3 25 23 1 3 4 0.27175721D-01 0.27652446D-01 0.29452033D+05 0.29452033D+05 0.29452033D+05 0.12157396D+01  1  2 12 10  6  2       21 0.429092225234D-06 0.100000000000D+01
-.921383243365D-06 0.000000000000D+00 -.125331054480D-06 0.195524606790D-06 0.000000000000D+00  6 1 3 25 23 1 3 4 0.27175721D-01 0.27761585D-01 0.28904120D+05 0.28904120D+05 0.28904120D+05 0.12165983D+01  1  2  5 10  6  2       21 -.227266270337D-03 0.100000000000D+01
0.103985716207D-06 0.000000000000D+00 0.000000000000D+00 0.195524606790D-06 0.577041455680D-09  6 1 3 25 23 1 3 4 0.27413528D-01 0.27534218D-01 0.29452033D+05 0.29452033D+05 0.29452033D+05 0.12157396D+01  1  2 11 10  6  2       21 0.257020888011D-04 0.100000000000D+01
  </mgrwgt>
  </event>
  <event>
  5     66 0.42756899E-03 0.65406580E+02 0.75467711E-02 0.11745090E+00
        1 -1    0    0  502    0 0.00000000E+00 0.00000000E+00 0.48032124E+04 0.48032124E+04 0.32000000E+00 0.0000E+00 0.9000E+01
       21 -1    0    0  501  502 0.00000000E+00 0.00000000E+00 -.25469764E+02 0.25480804E+02 0.75000000E+00 0.0000E+00 0.9000E+01
       25  1    1    2    0    0 -.20994882E+02 -.17437925E+02 0.12841808E+04 0.12905387E+04 0.12500000E+03 0.0000E+00 0.9000E+01
       23  1    1    2    0    0 0.84786788E+02 0.32814600E+02 0.34636433E+04 0.34660360E+04 0.91188000E+02 0.0000E+00 0.9000E+01
        1  1    1    2  501    0 -.63791906E+02 -.15376676E+02 0.29918512E+02 0.72118438E+02 0.32000000E+00 0.0000E+00 0.9000E+01
#aMCatNLO 1  0  0  1  2 0.23900740D+02 0.00000000D+00  -5  6  0 0.00000000D+00 0.00000000D+00 0.00000000D+00 0.00000000D+00 0.00000000D+00
  <mgrwgt>
 0.2413610037D-01    9    2    0
 0.349804750851146D+03 0.000000000000000D+00 0.000000000000000D+00 0.349804750851146D+03
 0.349804750851146D+03 0.000000000000000D+00 0.000000000000000D+00 -.349804750851146D+03
 0.137405533075260D+03 -.209948745329838D+02 -.174379228329294D+02 0.501040378643623D+02
 0.268761970846408D+03 0.847868021734804D+02 0.328146037654722D+02 0.235907069809609D+03
 0.293441997780624D+03 -.637919276404966D+02 -.153766809325428D+02 -.286011107673971D+03
 0.000000000000000D+00 -.000000000000000D+00 0.000000000000000D+00 0.000000000000000D+00
 0.364652502643570D+03 0.000000000000000D+00 0.000000000000000D+00 0.364652502643570D+03
 0.359761242052248D+03 0.000000000000000D+00 0.000000000000000D+00 -.359761242052248D+03
 0.137798837959429D+03 -.193807698854018D+02 -.218515649623700D+02 0.501040378643623D+02
 0.268860772885587D+03 0.879400201476027D+02 0.241923773721936D+02 0.235907069809609D+03
 0.293358031953879D+03 -.603502793424166D+02 -.247875973473358D+02 -.286011107673971D+03
 0.243961018969222D+02 -.820897091978433D+01 0.224467849375123D+02 0.489126059132184D+01
0.147455251964D-03 0.000000000000D+00 0.000000000000D+00 0.176247903103D-05 0.000000000000D+00  6 1 21 25 23 1 21 2 0.73895660D+00 0.39192752D-02 0.25974226D+05 0.25974226D+05 0.25974226D+05 0.12215216D+01  1  2  2  1  6  1        1 0.235839717290D-02 0.100000000000D+01
0.159540280809D-04 0.778142742881D-05 -.297669669975D-06 0.176247903103D-05 0.000000000000D+00  6 1 21 25 23 1 21 4 0.73895660D+00 0.39192752D-02 0.25974226D+05 0.25974226D+05 0.25974226D+05 0.12215216D+01  1  2  3  1  6  1        1 0.380740763437D-03 0.100000000000D+01
0.188302816926D-04 0.000000000000D+00 0.000000000000D+00 0.176247903103D-05 0.000000000000D+00  6 1 21 25 23 1 21 4 0.73895660D+00 0.39192752D-02 0.25974226D+05 0.25974226D+05 0.25974226D+05 0.12215216D+01  1  2 15  1  6  1        1 0.449382174271D-03 0.100000000000D+01
0.475829420010D-03 0.000000000000D+00 0.000000000000D+00 0.174336307688D-05 0.000000000000D+00  6 1 21 25 23 1 21 4 0.78046549D+00 0.39192752D-02 0.30012624D+05 0.30012624D+05 0.30012624D+05 0.12148792D+01  1  2 12  1  6  1        1 0.528555195746D-02 0.100000000000D+01
-.297240736354D-03 0.000000000000D+00 0.000000000000D+00 0.176247903103D-05 0.000000000000D+00  6 1 21 25 23 1 21 4 0.73895660D+00 0.39192752D-02 0.25974226D+05 0.25974226D+05 0.25974226D+05 0.12215216D+01  1  2  4  1  6  1        1 -.709361073645D-02 0.100000000000D+01
-.200784249546D-02 0.000000000000D+00 -.386417832844D-03 0.176247903103D-05 0.000000000000D+00  6 1 21 25 23 1 21 4 0.77301489D+00 0.39192752D-02 0.25974226D+05 0.25974226D+05 0.25974226D+05 0.12215216D+01  1  2  5  1  6  1        1 -.265720746236D-01 0.100000000000D+01
0.206737083070D-02 0.000000000000D+00 0.428370633883D-03 0.176247903103D-05 0.000000000000D+00  6 1 21 25 23 1 21 4 0.73895660D+00 0.39192752D-02 0.25974226D+05 0.25974226D+05 0.25974226D+05 0.12215216D+01  1  2  6  1  6  1        1 0.493375305846D-01 0.100000000000D+01
0.556583022163D-05 0.000000000000D+00 0.000000000000D+00 0.174336307688D-05 0.000000000000D+00  6 21 21 25 23 1 -1 4 0.78046549D+00 0.39192752D-02 0.30012624D+05 0.30012624D+05 0.30012624D+05 0.12148792D+01  1  2 12  4  6  1        1 0.381231912403D-05 0.100000000000D+01
-.155957783770D-04 0.000000000000D+00 -.305495862656D-05 0.176247903103D-05 0.000000000000D+00  6 21 21 25 23 1 -1 4 0.77301489D+00 0.39192752D-02 0.25974226D+05 0.25974226D+05 0.25974226D+05 0.12215216D+01  1  2  5  4  6  1        1 -.136292446280D-04 0.100000000000D+01
  </mgrwgt>
  </event>
  <event>
  5     66 0.42756899E-03 0.12287674E+03 0.75467711E-02 0.11304133E+00
        1 -1    0    0  502    0 0.00000000E+00 0.00000000E+00 0.87256896E+03 0.87256902E+03 0.32000000E+00 0.0000E+00 0.9000E+01
       21 -1    0    0  501  502 0.00000000E+00 0.00000000E+00 -.55923731E+02 0.55928760E+02 0.75000000E+00 0.0000E+00 0.9000E+01
       25  1    1    2    0    0 -.36156101E+02 0.51773513E+02 0.29508034E+03 0.32662695E+03 0.12500000E+03 0.0000E+00 0.9000E+01
       23  1    1    2    0    0 0.78868310E+02 0.88958850E+02 0.21759221E+03 0.26418839E+03 0.91188000E+02 0.0000E+00 0.9000E+01
        1  1    1    2  501    0 -.42712208E+02 -.14073236E+03 0.30397268E+03 0.33768243E+03 0.32000000E+00 0.0000E+00 0.9000E+01
#aMCatNLO 1  0  0  2  1 0.12369139D+02 0.00000000D+00  -5  6  0 0.00000000D+00 0.00000000D+00 0.00000000D+00 0.00000000D+00 0.00000000D+00
  <mgrwgt>
 0.8496538978D-02   32    2    0
 0.220906481916122D+03 0.000000000000000D+00 0.000000000000000D+00 0.220906481916122D+03
 0.220906481916122D+03 0.000000000000000D+00 0.000000000000000D+00 -.220906481916122D+03
 0.141001889396765D+03 -.361560694024021D+02 0.517736178619407D+02 0.163940218467591D+02
 0.153012116725558D+03 0.788683444874976D+02 0.889589639201151D+02 -.310409970345178D+02
 0.147798957709920D+03 -.427122750850955D+02 -.140732581782056D+03 0.146469751877587D+02
 0.000000000000000D+00 0.000000000000000D+00 0.000000000000000D+00 -.000000000000000D+00
 0.222020394691650D+03 0.000000000000000D+00 0.000000000000000D+00 0.222020394691650D+03
 0.258223419720585D+03 0.000000000000000D+00 0.000000000000000D+00 -.258223419720585D+03
 0.141060728558232D+03 -.393971499882426D+02 0.495199935568574D+02 0.163940218467591D+02
 0.149837411654897D+03 0.753884089540997D+02 0.865392563286252D+02 -.310409970345178D+02
 0.151087934911822D+03 -.461466773893139D+02 -.143120628700739D+03 0.146469751877587D+02
 0.382577392872838D+02 0.101554184234567D+02 0.706137881525649D+01 -.362030250289357D+02
0.322739631017D-06 0.000000000000D+00 0.000000000000D+00 0.104771048020D-06 0.000000000000D+00  6 1 21 25 23 1 21 2 0.13424177D+00 0.86040423D-02 0.47730769D+05 0.47730769D+05 0.47730769D+05 0.11942846D+01  1  2  2  2  6  2       21 0.108937964516D-02 0.100000000000D+01
-.319606193349D-07 0.170314382411D-07 -.651518329614D-09 0.104771048020D-06 0.000000000000D+00  6 1 21 25 23 1 21 4 0.13424177D+00 0.86040423D-02 0.47730769D+05 0.47730769D+05 0.47730769D+05 0.11942846D+01  1  2  3  2  6  2       21 -.153871378275D-03 0.100000000000D+01
0.377877047929D-07 0.000000000000D+00 0.000000000000D+00 0.104771048020D-06 0.000000000000D+00  6 1 21 25 23 1 21 4 0.13424177D+00 0.86040423D-02 0.47730769D+05 0.47730769D+05 0.47730769D+05 0.11942846D+01  1  2 15  2  6  2       21 0.181925329963D-03 0.100000000000D+01
0.576961606858D-05 0.000000000000D+00 0.000000000000D+00 0.104345252717D-06 0.000000000000D+00  6 1 21 25 23 1 21 4 0.13424177D+00 0.10076886D-01 0.50498433D+05 0.50498433D+05 0.50498433D+05 0.11918554D+01  1  2 12  2  6  2       21 0.208265741878D-01 0.100000000000D+01
0.560926809563D-05 0.000000000000D+00 0.000000000000D+00 0.104345252717D-06 0.000000000000D+00  6 1 21 25 23 1 21 4 0.13424177D+00 0.10116762D-01 0.50498433D+05 0.50498433D+05 0.50498433D+05 0.11918554D+01  1  2 12  2  6  2       21 0.201064015551D-01 0.100000000000D+01
-.972310729399D-05 0.000000000000D+00 0.000000000000D+00 0.104771048020D-06 0.000000000000D+00  6 1 21 25 23 1 21 4 0.13424177D+00 0.86040423D-02 0.47730769D+05 0.47730769D+05 0.47730769D+05 0.11942846D+01  1  2  4  2  6  2       21 -.468109802493D-01 0.100000000000D+01
-.134738203778D-04 0.000000000000D+00 -.709441732364D-06 0.104771048020D-06 0.000000000000D+00  6 1 21 25 23 1 21 4 0.13424177D+00 0.10096810D-01 0.47730769D+05 0.47730769D+05 0.47730769D+05 0.11942846D+01  1  2  5  2  6  2       21 -.489230142095D-01 0.100000000000D+01
0.129397312237D-04 0.000000000000D+00 0.674400449267D-06 0.104771048020D-06 0.000000000000D+00  6 1 21 25 23 1 21 4 0.13424177D+00 0.86040423D-02 0.47730769D+05 0.47730769D+05 0.47730769D+05 0.11942846D+01  1  2  6  2  6  2       21 0.622971118625D-01 0.100000000000D+01
0.248556617582D-06 0.000000000000D+00 0.000000000000D+00 0.104345252717D-06 0.000000000000D+00  6 1 -1 25 23 1 -1 4 0.13424177D+00 0.10076886D-01 0.50498433D+05 0.50498433D+05 0.50498433D+05 0.11918554D+01  1  2 12  5  6  2       21 0.607399010683D-04 0.100000000000D+01
0.248774887649D-06 0.000000000000D+00 0.000000000000D+00 0.104345252717D-06 0.000000000000D+00  6 1 -1 25 23 1 -1 4 0.13424177D+00 0.10116762D-01 0.50498433D+05 0.50498433D+05 0.50498433D+05 0.11918554D+01  1  2 12  5  6  2       21 0.604231789602D-04 0.100000000000D+01
-.560094957707D-06 0.000000000000D+00 -.311793650099D-07 0.104771048020D-06 0.000000000000D+00  6 1 -1 25 23 1 -1 4 0.13424177D+00 0.10096810D-01 0.47730769D+05 0.47730769D+05 0.47730769D+05 0.11942846D+01  1  2  5  5  6  2       21 -.137568921440D-03 0.100000000000D+01
0.248556617582D-06 0.000000000000D+00 0.000000000000D+00 0.104345252717D-06 0.000000000000D+00  6 1 1 25 23 1 1 4 0.13424177D+00 0.10076886D-01 0.50498433D+05 0.50498433D+05 0.50498433D+05 0.11918554D+01  1  2 12  6  6  2       21 0.761394550772D-04 0.100000000000D+01
0.248774887649D-06 0.000000000000D+00 0.000000000000D+00 0.104345252717D-06 0.000000000000D+00  6 1 1 25 23 1 1 4 0.13424177D+00 0.10116762D-01 0.50498433D+05 0.50498433D+05 0.50498433D+05 0.11918554D+01  1  2 12  6  6  2       21 0.758030336210D-04 0.100000000000D+01
-.560094957707D-06 0.000000000000D+00 -.311793650099D-07 0.104771048020D-06 0.000000000000D+00  6 1 1 25 23 1 1 4 0.13424177D+00 0.10096810D-01 0.47730769D+05 0.47730769D+05 0.47730769D+05 0.11942846D+01  1  2  5  6  6  2       21 -.172528393917D-03 0.100000000000D+01
0.248556617582D-06 0.000000000000D+00 0.000000000000D+00 0.104345252717D-06 0.000000000000D+00  6 1 -2 25 23 1 -2 4 0.13424177D+00 0.10076886D-01 0.50498433D+05 0.50498433D+05 0.50498433D+05 0.11918554D+01  1  2 12  7  6  2       21 0.580751837017D-04 0.100000000000D+01
0.248556617582D-06 0.000000000000D+00 0.000000000000D+00 0.104345252717D-06 0.000000000000D+00  6 1 -4 25 23 1 -4 4 0.13424177D+00 0.10076886D-01 0.50498433D+05 0.50498433D+05 0.50498433D+05 0.11918554D+01  1  2 12  7  6  2       21 0.358770626253D-04 0.100000000000D+01
0.248774887649D-06 0.000000000000D+00 0.000000000000D+00 0.104345252717D-06 0.000000000000D+00  6 1 -2 25 23 1 -2 4 0.13424177D+00 0.10116762D-01 0.50498433D+05 0.50498433D+05 0.50498433D+05 0.11918554D+01  1  2 12  7  6  2       21 0.577620650803D-04 0.100000000000D+01
0.248774887649D-06 0.000000000000D+00 0.000000000000D+00 0.104345252717D-06 0.000000000000D+00  6 1 -4 25 23 1 -4 4 0.13424177D+00 0.10116762D-01 0.50498433D+05 0.50498433D+05 0.50498433D+05 0.11918554D+01  1  2 12  7  6  2       21 0.356678055419D-04 0.100000000000D+01
-.560094957707D-06 0.000000000000D+00 -.311793650099D-07 0.104771048020D-06 0.000000000000D+00  6 1 -2 25 23 1 -2 4 0.13424177D+00 0.10096810D-01 0.47730769D+05 0.47730769D+05 0.47730769D+05 0.11942846D+01  1  2  5  7  6  2       21 -.131518340321D-03 0.100000000000D+01
-.560094957707D-06 0.000000000000D+00 -.311793650099D-07 0.104771048020D-06 0.000000000000D+00  6 1 -4 25 23 1 -4 4 0.13424177D+00 0.10096810D-01 0.47730769D+05 0.47730769D+05 0.47730769D+05 0.11942846D+01  1  2  5  7  6  2       21 -.811001761854D-04 0.100000000000D+01
0.248556617582D-06 0.000000000000D+00 0.000000000000D+00 0.104345252717D-06 0.000000000000D+00  6 1 2 25 23 1 2 4 0.13424177D+00 0.10076886D-01 0.50498433D+05 0.50498433D+05 0.50498433D+05 0.11918554D+01  1  2 12  8  6  2       21 0.866176744895D-04 0.100000000000D+01
0.248556617582D-06 0.000000000000D+00 0.000000000000D+00 0.104345252717D-06 0.000000000000D+00  6 1 4 25 23 1 4 4 0.13424177D+00 0.10076886D-01 0.50498433D+05 0.50498433D+05 0.50498433D+05 0.11918554D+01  1  2 12  8  6  2       21 0.358770626253D-04 0.100000000000D+01
0.248774887649D-06 0.000000000000D+00 0.000000000000D+00 0.104345252717D-06 0.000000000000D+00  6 1 2 25 23 1 2 4 0.13424177D+00 0.10116762D-01 0.50498433D+05 0.50498433D+05 0.50498433D+05 0.11918554D+01  1  2 12  8  6  2       21 0.862693179503D-04 0.100000000000D+01
0.248774887649D-06 0.000000000000D+00 0.000000000000D+00 0.104345252717D-06 0.000000000000D+00  6 1 4 25 23 1 4 4 0.13424177D+00 0.10116762D-01 0.50498433D+05 0.50498433D+05 0.50498433D+05 0.11918554D+01  1  2 12  8  6  2       21 0.356678055419D-04 0.100000000000D+01
-.560094957707D-06 0.000000000000D+00 -.311793650099D-07 0.104771048020D-06 0.000000000000D+00  6 1 2 25 23 1 2 4 0.13424177D+00 0.10096810D-01 0.47730769D+05 0.47730769D+05 0.47730769D+05 0.11942846D+01  1  2  5  8  6  2       21 -.196308820853D-03 0.100000000000D+01
-.560094957707D-06 0.000000000000D+00 -.311793650099D-07 0.104771048020D-06 0.000000000000D+00  6 1 4 25 23 1 4 4 0.13424177D+00 0.10096810D-01 0.47730769D+05 0.47730769D+05 0.47730769D+05 0.11942846D+01  1  2  5  8  6  2       21 -.811001761854D-04 0.100000000000D+01
0.248556617582D-06 0.000000000000D+00 0.000000000000D+00 0.104345252717D-06 0.000000000000D+00  6 1 -3 25 23 1 -3 4 0.13424177D+00 0.10076886D-01 0.50498433D+05 0.50498433D+05 0.50498433D+05 0.11918554D+01  1  2 12  9  6  2       21 0.407225243510D-04 0.100000000000D+01
0.248774887649D-06 0.000000000000D+00 0.000000000000D+00 0.104345252717D-06 0.000000000000D+00  6 1 -3 25 23 1 -3 4 0.13424177D+00 0.10116762D-01 0.50498433D+05 0.50498433D+05 0.50498433D+05 0.11918554D+01  1  2 12  9  6  2       21 0.404900726881D-04 0.100000000000D+01
-.560094957707D-06 0.000000000000D+00 -.311793650099D-07 0.104771048020D-06 0.000000000000D+00  6 1 -3 25 23 1 -3 4 0.13424177D+00 0.10096810D-01 0.47730769D+05 0.47730769D+05 0.47730769D+05 0.11942846D+01  1  2  5  9  6  2       21 -.921044989558D-04 0.100000000000D+01
0.248556617582D-06 0.000000000000D+00 0.000000000000D+00 0.104345252717D-06 0.000000000000D+00  6 1 3 25 23 1 3 4 0.13424177D+00 0.10076886D-01 0.50498433D+05 0.50498433D+05 0.50498433D+05 0.11918554D+01  1  2 12 10  6  2       21 0.407177923408D-04 0.100000000000D+01
0.248774887649D-06 0.000000000000D+00 0.000000000000D+00 0.104345252717D-06 0.000000000000D+00  6 1 3 25 23 1 3 4 0.13424177D+00 0.10116762D-01 0.50498433D+05 0.50498433D+05 0.50498433D+05 0.11918554D+01  1  2 12 10  6  2       21 0.404853657014D-04 0.100000000000D+01
-.560094957707D-06 0.000000000000D+00 -.311793650099D-07 0.104771048020D-06 0.000000000000D+00  6 1 3 25 23 1 3 4 0.13424177D+00 0.10096810D-01 0.47730769D+05 0.47730769D+05 0.47730769D+05 0.11942846D+01  1  2  5 10  6  2       21 -.920937386384D-04 0.100000000000D+01
  </mgrwgt>
  </event>
  <event>
  6     66 -.42756899E-03 0.21802928E+02 0.75467711E-02 0.11992271E+00
        1 -1    0    0  502    0 0.00000000E+00 0.00000000E+00 0.81083377E+03 0.81083383E+03 0.32000000E+00 0.0000E+00 0.9000E+01
       21 -1    0    0  503  502 0.00000000E+00 0.00000000E+00 -.60390966E+02 0.60395623E+02 0.75000000E+00 0.0000E+00 0.9000E+01
       25  1    1    2    0    0 0.52313284E+02 -.72259287E+02 0.55209758E+03 0.57305743E+03 0.12500000E+03 0.0000E+00 0.9000E+01
       23  1    1    2    0    0 -.49949659E+02 0.49355526E+02 0.22625962E+03 0.25384957E+03 0.91188000E+02 0.0000E+00 0.9000E+01
        1  1    1    2  501    0 -.10047025E+02 0.23612224E+02 -.25560849E+02 0.36220702E+02 0.32000000E+00 0.0000E+00 0.9000E+01
       21  1    1    2  503  501 0.76833993E+01 -.70846279E+00 -.23535551E+01 0.81017447E+01 0.75000000E+00 0.0000E+00 0.9000E+01
#aMCatNLO 2  0  0  2  1 0.77159928D+01 0.00000000D+00  -5  6  0 0.00000000D+00 0.00000000D+00 0.00000000D+00 0.00000000D+00 0.00000000D+00
  <mgrwgt>
 -.1831030070D-01    5    2    0
 0.211085024937705D+03 0.000000000000000D+00 0.000000000000000D+00 0.211085024937705D+03
 0.211085024937705D+03 0.000000000000000D+00 0.000000000000000D+00 -.211085024937705D+03
 0.188213002390023D+03 0.557283918440487D+02 -.725742201957680D+02 0.106894635852877D+03
 0.114547272549802D+03 -.478562410263862D+02 0.491624759314712D+02 0.993264615853565D+01
 0.119409774935585D+03 -.787215081766248D+01 0.234117442642968D+02 -.116827282011413D+03
 0.000000000000000D+00 0.000000000000000D+00 -.000000000000000D+00 -.000000000000000D+00
 0.211864523604363D+03 0.000000000000000D+00 0.000000000000000D+00 0.211864523604363D+03
 0.231119242559776D+03 0.000000000000000D+00 0.000000000000000D+00 -.231119242559776D+03
 0.187108401626563D+03 0.523132947260882D+02 -.722593245196026D+02 0.106894635852877D+03
 0.115519877635624D+03 -.499496512426096D+02 0.493555028946174D+02 0.993264615853565D+01
 0.119612277241759D+03 -.100470428243112D+02 0.236122844145076D+02 -.116827282011413D+03
 0.207432096601941D+02 0.768339934083255D+01 -.708462789522332D+00 -.192547189554126D+02
-.593792566597D-05 0.000000000000D+00 0.000000000000D+00 0.275018783927D-05 0.000000000000D+00  6 1 21 25 23 1 21 4 0.12428109D+00 0.93057836D-02 0.22806566D+05 0.22806566D+05 0.22806566D+05 0.12275965D+01  1  2 13  2  6  2       21 -.317173456855D-01 0.100000000000D+01
-.380398498559D-07 0.000000000000D+00 0.000000000000D+00 0.276200641348D-05 0.000000000000D+00  6 1 21 25 23 1 21 4 0.12428109D+00 0.84856099D-02 0.21568953D+05 0.21568953D+05 0.21568953D+05 0.12302314D+01  1  2  8  2  6  2       21 -.240785435120D-03 0.100000000000D+01
-.105472742852D-07 0.000000000000D+00 0.000000000000D+00 0.276200641348D-05 0.000000000000D+00  6 1 21 25 23 1 21 4 0.12428109D+00 0.93190288D-02 0.21568953D+05 0.21568953D+05 0.21568953D+05 0.12302314D+01  1  2  9  2  6  2       21 -.567128066597D-04 0.100000000000D+01
0.103002481486D-07 0.000000000000D+00 0.000000000000D+00 0.276200641348D-05 0.000000000000D+00  6 1 21 25 23 1 21 4 0.12428109D+00 0.84856099D-02 0.21568953D+05 0.21568953D+05 0.21568953D+05 0.12302314D+01  1  2 10  2  6  2       21 0.651987255919D-04 0.100000000000D+01
0.256069386800D-05 0.000000000000D+00 0.000000000000D+00 0.276200641348D-05 0.440217536612D-06  6 1 21 25 23 1 21 4 0.12474004D+00 0.92909847D-02 0.22806566D+05 0.22806566D+05 0.22806566D+05 0.12275965D+01  1  2  1  2  6  2       21 0.136393445038D-01 0.100000000000D+01
  </mgrwgt>
  </event>
  <event>
  5     66 0.42756899E-03 0.96229699E+02 0.75467711E-02 0.11708461E+00
        1 -1    0    0  502    0 0.00000000E+00 0.00000000E+00 0.15761530E+04 0.15761530E+04 0.32000000E+00 0.0000E+00 0.9000E+01
       21 -1    0    0  501  502 0.00000000E+00 0.00000000E+00 -.27961002E+02 0.27971059E+02 0.75000000E+00 0.0000E+00 0.9000E+01
       25  1    1    2    0    0 -.61865896E+02 0.10781351E+02 0.71237217E+03 0.72597709E+03 0.12500000E+03 0.0000E+00 0.9000E+01
       23  1    1    2    0    0 -.11393347E+02 -.73176920E+02 0.71048444E+03 0.72013059E+03 0.91188000E+02 0.0000E+00 0.9000E+01
        1  1    1    2  501    0 0.73259242E+02 0.62395569E+02 0.12533536E+03 0.15801638E+03 0.32000000E+00 0.0000E+00 0.9000E+01
#aMCatNLO 1  0  0  5  2 0.94309259D+01 0.00000000D+00  -5  6  0 0.00000000D+00 0.00000000D+00 0.00000000D+00 0.00000000D+00 0.00000000D+00
  <mgrwgt>
 0.1192791728D-01    8    2    0
 0.209949775962408D+03 0.000000000000000D+00 0.000000000000000D+00 0.209949775962408D+03
 0.209949775962408D+03 -.000000000000000D+00 -.000000000000000D+00 -.209949775962408D+03
 0.146864809657626D+03 -.618659611871588D+02 0.107812957255516D+02 0.447285012563347D+02
 0.131489843037263D+03 -.113934053444482D+02 -.731769699905718D+02 0.590732499158467D+02
 0.141544899229928D+03 0.732593665316071D+02 0.623956742650202D+02 -.103801751172182D+03
 0.000000000000000D+00 0.000000000000000D+00 0.000000000000000D+00 0.000000000000000D+00
 0.209949775962408D+03 0.000000000000000D+00 0.000000000000000D+00 0.209949775962408D+03
 0.209949775962408D+03 -.000000000000000D+00 -.000000000000000D+00 -.209949775962408D+03
 0.146678688382611D+03 -.616296899497204D+02 0.109825301050905D+02 0.443937267509185D+02
 0.131237065398253D+03 -.111819381779844D+02 -.729968614657359D+02 0.587736204864155D+02
 0.841088495971435D+02 0.441539578595360D+02 0.285306515180676D+02 -.656561384018876D+02
 0.578749485468092D+02 0.286576702681689D+02 0.334836798425779D+02 -.375112088354464D+02
0.496824706058D-06 0.000000000000D+00 0.000000000000D+00 0.379720377132D-06 0.000000000000D+00  6 1 21 25 23 1 21 2 0.24248585D+00 0.43024687D-02 0.31256602D+05 0.31256602D+05 0.31256602D+05 0.12130325D+01  1  2  2  3  6  5        1 0.184404361260D-02 0.100000000000D+01
-.125536122326D-07 0.262181600420D-07 -.100294593999D-08 0.379720377132D-06 0.000000000000D+00  6 1 21 25 23 1 21 4 0.24248585D+00 0.43024687D-02 0.31256602D+05 0.31256602D+05 0.31256602D+05 0.12130325D+01  1  2  3  3  6  5        1 -.685617026261D-04 0.100000000000D+01
0.569964941002D-07 0.000000000000D+00 0.000000000000D+00 0.379720377132D-06 0.000000000000D+00  6 1 21 25 23 1 21 4 0.24248585D+00 0.43024687D-02 0.31256602D+05 0.31256602D+05 0.31256602D+05 0.12130325D+01  1  2 15  3  6  5        1 0.311287030923D-03 0.100000000000D+01
0.401827553773D-05 0.000000000000D+00 0.000000000000D+00 0.379689586617D-06 0.000000000000D+00  6 1 21 25 23 1 21 4 0.24248585D+00 0.43024687D-02 0.31290509D+05 0.31290509D+05 0.31290509D+05 0.12129833D+01  1  2 12  3  6  5        1 0.219417855148D-01 0.100000000000D+01
-.417773783610D-05 0.000000000000D+00 0.000000000000D+00 0.379720377132D-06 0.000000000000D+00  6 1 21 25 23 1 21 4 0.24248585D+00 0.43024687D-02 0.31256602D+05 0.31256602D+05 0.31256602D+05 0.12130325D+01  1  2  4  3  6  5        1 -.228167649169D-01 0.100000000000D+01
-.406969658045D-05 0.000000000000D+00 0.000000000000D+00 0.379720377132D-06 0.000000000000D+00  6 1 21 25 23 1 21 4 0.24248585D+00 0.43024687D-02 0.31256602D+05 0.31256602D+05 0.31256602D+05 0.12130325D+01  1  2  5  3  6  5        1 -.222266963133D-01 0.100000000000D+01
0.603176140710D-05 0.000000000000D+00 -.000000000000D+00 0.379720377132D-06 0.000000000000D+00  6 1 21 25 23 1 21 4 0.24248585D+00 0.43024687D-02 0.31256602D+05 0.31256602D+05 0.31256602D+05 0.12130325D+01  1  2  6  3  6  5        1 0.329425367172D-01 0.100000000000D+01
0.526207390961D-10 0.000000000000D+00 0.000000000000D+00 0.379720377132D-06 0.106181236977D-07  6 1 21 25 23 1 21 4 0.24248585D+00 0.43024687D-02 0.31290509D+05 0.31290509D+05 0.31290509D+05 0.12129833D+01  1  2 11  3  6  5        1 0.287335440299D-06 0.100000000000D+01
  </mgrwgt>
  </event>
  <event>
  5     66 0.42756899E-03 0.31267907E+02 0.75467711E-02 0.12241576E+00
        1 -1    0    0  502    0 0.00000000E+00 0.00000000E+00 0.19500771E+04 0.19500772E+04 0.32000000E+00 0.0000E+00 0.9000E+01
       21 -1    0    0  501  502 0.00000000E+00 0.00000000E+00 -.95816864E+01 0.96109944E+01 0.75000000E+00 0.0000E+00 0.9000E+01
       25  1    1    2    0    0 0.54209021E+02 -.10555045E+01 0.76504188E+03 0.77708031E+03 0.12500000E+03 0.0000E+00 0.9000E+01
       23  1    1    2    0    0 -.28387121E+02 0.18685616E+02 0.95550722E+03 0.96045004E+03 0.91188000E+02 0.0000E+00 0.9000E+01
        1  1    1    2  501    0 -.25821900E+02 -.17630112E+02 0.21994637E+03 0.22215782E+03 0.32000000E+00 0.0000E+00 0.9000E+01
#aMCatNLO 1  0  0  5  2 0.19402446D+01 0.00000000D+00  -5  6  0 0.00000000D+00 0.00000000D+00 0.00000000D+00 0.00000000D+00 0.00000000D+00
  <mgrwgt>
 0.8402180000D-01    8    2    0
 0.136798283773525D+03 0.000000000000000D+00 0.000000000000000D+00 0.136798283773525D+03
 0.136798283773525D+03 -.000000000000000D+00 -.000000000000000D+00 -.136798283773525D+03
 0.139895278166655D+03 0.542097122219114D+02 -.105503240903402D+01 -.317156563980490D+02
 0.102432336444557D+03 -.283866148156693D+02 0.186859620379448D+02 0.319713485407527D+02
 0.312689529358390D+02 -.258230974062421D+02 -.176309296289108D+02 -.255692142703725D+00
 0.000000000000000D+00 -.000000000000000D+00 0.000000000000000D+00 0.000000000000000D+00
 0.136798283773525D+03 0.000000000000000D+00 0.000000000000000D+00 0.136798283773525D+03
 0.136798283773525D+03 -.000000000000000D+00 -.000000000000000D+00 -.136798283773525D+03
 0.139833596383623D+03 0.540471091939680D+02 -.116605094790327D+01 -.317172664418005D+02
 0.102450239375233D+03 -.285057105910151D+02 0.186046484293877D+02 0.319701692920551D+02
 0.623213147010828D+01 -.450386779463431D+01 -.387984171052328D+01 -.187122041738898D+01
 0.250806003180869D+02 -.210375308083186D+02 -.135587557709612D+02 0.161831756713445D+01
0.211653954595D-05 0.000000000000D+00 0.000000000000D+00 0.394313272939D-06 0.000000000000D+00  6 1 21 25 23 1 21 2 0.30001413D+00 0.14763621D-02 0.17534483D+05 0.17534483D+05 0.17534483D+05 0.12401664D+01  1  2  2  3  6  5        1 0.274267863840D-01 0.100000000000D+01
0.678255962951D-09 0.111692860428D-06 -.427268354120D-08 0.394313272939D-06 0.000000000000D+00  6 1 21 25 23 1 21 4 0.30001413D+00 0.14763621D-02 0.17534483D+05 0.17534483D+05 0.17534483D+05 0.12401664D+01  1  2  3  3  6  5        1 0.135176766838D-04 0.100000000000D+01
0.292969638677D-06 0.000000000000D+00 0.000000000000D+00 0.394313272939D-06 0.000000000000D+00  6 1 21 25 23 1 21 4 0.30001413D+00 0.14763621D-02 0.17534483D+05 0.17534483D+05 0.17534483D+05 0.12401664D+01  1  2 15  3  6  5        1 0.583890016474D-02 0.100000000000D+01
0.346767732573D-08 0.000000000000D+00 0.000000000000D+00 0.394392529803D-06 0.000000000000D+00  6 1 21 25 23 1 21 4 0.30001413D+00 0.14763621D-02 0.17489560D+05 0.17489560D+05 0.17489560D+05 0.12402910D+01  1  2 12  3  6  5        1 0.691398706775D-04 0.100000000000D+01
-.865855954228D-05 0.000000000000D+00 0.000000000000D+00 0.394313272939D-06 0.000000000000D+00  6 1 21 25 23 1 21 4 0.30001413D+00 0.14763621D-02 0.17534483D+05 0.17534483D+05 0.17534483D+05 0.12401664D+01  1  2  4  3  6  5        1 -.172565542853D+00 0.100000000000D+01
-.336257325992D-05 0.000000000000D+00 0.000000000000D+00 0.394313272939D-06 0.000000000000D+00  6 1 21 25 23 1 21 4 0.30001413D+00 0.14763621D-02 0.17534483D+05 0.17534483D+05 0.17534483D+05 0.12401664D+01  1  2  5  3  6  5        1 -.670162602855D-01 0.100000000000D+01
0.105347491198D-04 0.000000000000D+00 -.000000000000D+00 0.394313272939D-06 0.000000000000D+00  6 1 21 25 23 1 21 4 0.30001413D+00 0.14763621D-02 0.17534483D+05 0.17534483D+05 0.17534483D+05 0.12401664D+01  1  2  6  3  6  5        1 0.209958098896D+00 0.100000000000D+01
0.402726587188D-05 0.000000000000D+00 0.000000000000D+00 0.394313272939D-06 0.104504231096D-06  6 1 21 25 23 1 21 4 0.30001413D+00 0.14763621D-02 0.17489560D+05 0.17489560D+05 0.17489560D+05 0.12402910D+01  1  2 11  3  6  5        1 0.802971601481D-01 0.100000000000D+01
  </mgrwgt>
  </event>
  <event>
  5     66 0.42756899E-03 0.80349018E+02 0.75467711E-02 0.11603935E+00
        1 -1    0    0  502    0 0.00000000E+00 0.00000000E+00 0.21378409E+03 0.21378433E+03 0.32000000E+00 0.0000E+00 0.9000E+01
       21 -1    0    0  501  502 0.00000000E+00 0.00000000E+00 -.12522007E+03 0.12522232E+03 0.75000000E+00 0.0000E+00 0.9000E+01
       25  1    1    2    0    0 -.34382059E+02 0.46305029E+01 0.66113467E+02 0.14560068E+03 0.12500000E+03 0.0000E+00 0.9000E+01
       23  1    1    2    0    0 -.11917903E+02 0.61036903E+02 0.24369225E+02 0.11303385E+03 0.91188000E+02 0.0000E+00 0.9000E+01
        1  1    1    2  501    0 0.46299962E+02 -.65667406E+02 -.19186720E+01 0.80372125E+02 0.32000000E+00 0.0000E+00 0.9000E+01
#aMCatNLO 1  0  0  2  2 0.50922401D+02 0.00000000D+00  -5  6  0 0.00000000D+00 0.00000000D+00 0.00000000D+00 0.00000000D+00 0.00000000D+00
  <mgrwgt>
 0.1855733034D-01    4    2    0
 0.163616872504386D+03 0.000000000000000D+00 0.000000000000000D+00 0.163616872504386D+03
 0.163616872504386D+03 0.000000000000000D+00 0.000000000000000D+00 -.163616872504386D+03
 0.132945773745306D+03 -.343821961085057D+02 0.463069751335187D+01 0.290860789388008D+02
 0.110505172856322D+03 -.119180170340870D+02 0.610370650146377D+02 -.534597496998223D+01
 0.837827984071448D+02 0.463002131425927D+02 -.656677625279896D+02 -.237401039688186D+02
 0.000000000000000D+00 -.000000000000000D+00 0.000000000000000D+00 0.000000000000000D+00
 0.253474378655900D+03 0.000000000000000D+00 0.000000000000000D+00 0.253474378655900D+03
 0.172962190787889D+03 0.000000000000000D+00 0.000000000000000D+00 -.172962190787889D+03
 0.131089525804874D+03 -.235192441132576D+02 -.126613168372650D+02 0.290860789388008D+02
 0.102805694745385D+03 -.314197186599884D+01 0.470670595267532D+02 -.534597496998223D+01
 0.972769624599396D+02 0.537493818481447D+02 -.775256011903456D+02 -.237401039688186D+02
 0.952643864335893D+02 -.270881658688882D+02 0.431198585008573D+02 0.805121878680109D+02
0.354797027888D-05 0.000000000000D+00 0.000000000000D+00 0.247709341047D-06 0.000000000000D+00  6 1 21 25 23 1 21 2 0.32890052D-01 0.19264818D-01 0.25672021D+05 0.25672021D+05 0.25672021D+05 0.12220645D+01  1  2  2  2  6  2       21 0.191973399318D-01 0.100000000000D+01
-.206039487049D-06 0.187231535512D-06 -.716232977751D-08 0.247709341047D-06 0.000000000000D+00  6 1 21 25 23 1 21 4 0.32890052D-01 0.19264818D-01 0.25672021D+05 0.25672021D+05 0.25672021D+05 0.12220645D+01  1  2  3  2  6  2       21 -.166494457582D-02 0.100000000000D+01
0.388747609166D-06 0.000000000000D+00 0.000000000000D+00 0.247709341047D-06 0.000000000000D+00  6 1 21 25 23 1 21 4 0.32890052D-01 0.19264818D-01 0.25672021D+05 0.25672021D+05 0.25672021D+05 0.12220645D+01  1  2 15  2  6  2       21 0.314135524464D-02 0.100000000000D+01
-.261910307123D-06 0.000000000000D+00 0.000000000000D+00 0.247709341047D-06 0.000000000000D+00  6 1 21 25 23 1 21 4 0.32890052D-01 0.19264818D-01 0.25672021D+05 0.25672021D+05 0.25672021D+05 0.12220645D+01  1  2  4  2  6  2       21 -.211642026217D-02 0.100000000000D+01
  </mgrwgt>
  </event>
  <event>
  5     66 0.42756899E-03 0.69929028E+02 0.75467711E-02 0.11980188E+00
        3 -1    0    0  502    0 0.00000000E+00 0.00000000E+00 0.22421536E+03 0.22421592E+03 0.50000000E+00 0.0000E+00 0.9000E+01
       21 -1    0    0  501  502 0.00000000E+00 0.00000000E+00 -.12115538E+03 0.12115770E+03 0.75000000E+00 0.0000E+00 0.9000E+01
       25  1    1    2    0    0 0.60484479E+02 -.12977565E+02 0.10001369E+03 0.17162322E+03 0.12500000E+03 0.0000E+00 0.9000E+01
       23  1    1    2    0    0 0.86000749E+01 0.23803381E+02 -.25824748E+02 0.98095521E+02 0.91188000E+02 0.0000E+00 0.9000E+01
        3  1    1    2  501    0 -.69084554E+02 -.10825816E+02 0.28871041E+02 0.75654880E+02 0.50000000E+00 0.0000E+00 0.9000E+01
#aMCatNLO 1  0  0  5  2 0.17544827D+00 0.00000000D+00  -5  6  0 0.00000000D+00 0.00000000D+00 0.00000000D+00 0.00000000D+00 0.00000000D+00
  <mgrwgt>
 0.4327972474D-02    7    2    0
 0.164819275410532D+03 0.000000000000000D+00 0.000000000000000D+00 0.164819275410532D+03
 0.164819275410532D+03 -.000000000000000D+00 -.000000000000000D+00 -.164819275410532D+03
 0.148546990180314D+03 0.604852678427696D+02 -.129774412030555D+02 0.511304868492368D+02
 0.110852125769349D+03 0.860066355758527D+01 0.238034735232565D+02 -.577266461712471D+02
 0.702394348714019D+02 -.690859314003548D+02 -.108260323202010D+02 0.659615932201029D+01
 0.000000000000000D+00 0.000000000000000D+00 0.000000000000000D+00 0.000000000000000D+00
 0.164819275410532D+03 0.000000000000000D+00 0.000000000000000D+00 0.164819275410532D+03
 0.164819275410532D+03 -.000000000000000D+00 -.000000000000000D+00 -.164819275410532D+03
 0.148541666412830D+03 0.604705034121653D+02 -.129797548463642D+02 0.511318965217213D+02
 0.110850352909762D+03 0.858964559783283D+01 0.238017469664023D+02 -.577255942028295D+02
 0.481686983153179D+00 -.421475532850456D+00 -.232425501579263D+00 -.189502285761677D-01
 0.697648445153197D+02 -.686386734771477D+02 -.105895666184589D+02 0.661264790968436D+01
0.188179779924D-05 0.000000000000D+00 0.000000000000D+00 0.160794639769D-06 0.000000000000D+00  6 3 21 25 23 3 21 2 0.34494892D-01 0.18639510D-01 0.23109209D+05 0.23109209D+05 0.23109209D+05 0.12269765D+01  1  2  2  3  6  5        3 0.300417910729D-02 0.100000000000D+01
-.138858312679D-06 0.993051981222D-07 -.379880758669D-08 0.160794639769D-06 0.000000000000D+00  6 3 21 25 23 3 21 4 0.34494892D-01 0.18639510D-01 0.23109209D+05 0.23109209D+05 0.23109209D+05 0.12269765D+01  1  2  3  3  6  5        3 -.333731532177D-03 0.100000000000D+01
0.249713440335D-06 0.000000000000D+00 0.000000000000D+00 0.160794639769D-06 0.000000000000D+00  6 3 21 25 23 3 21 4 0.34494892D-01 0.18639510D-01 0.23109209D+05 0.23109209D+05 0.23109209D+05 0.12269765D+01  1  2 15  3  6  5        3 0.600160317666D-03 0.100000000000D+01
-.605379133807D-05 0.000000000000D+00 0.000000000000D+00 0.160794639769D-06 0.000000000000D+00  6 3 21 25 23 3 21 4 0.34494892D-01 0.18639510D-01 0.23109209D+05 0.23109209D+05 0.23109209D+05 0.12269765D+01  1  2  4  3  6  5        3 -.145496587115D-01 0.100000000000D+01
-.255760632615D-05 0.000000000000D+00 0.000000000000D+00 0.160794639769D-06 0.000000000000D+00  6 3 21 25 23 3 21 4 0.34494892D-01 0.18639510D-01 0.23109209D+05 0.23109209D+05 0.23109209D+05 0.12269765D+01  1  2  5  3  6  5        3 -.614694116226D-02 0.100000000000D+01
0.592679185073D-05 0.000000000000D+00 -.000000000000D+00 0.160794639769D-06 0.000000000000D+00  6 3 21 25 23 3 21 4 0.34494892D-01 0.18639510D-01 0.23109209D+05 0.23109209D+05 0.23109209D+05 0.12269765D+01  1  2  6  3  6  5        3 0.142444286343D-01 0.100000000000D+01
0.312453997698D-05 0.000000000000D+00 0.000000000000D+00 0.160794639769D-06 0.168110437067D-06  6 3 21 25 23 3 21 4 0.34494892D-01 0.18639510D-01 0.23108512D+05 0.23108512D+05 0.23108512D+05 0.12269779D+01  1  2 11  3  6  5        3 0.750953582064D-02 0.100000000000D+01
  </mgrwgt>
  </event>
  <event>
  6     66 -.42756899E-03 0.20186526E+02 0.75467711E-02 0.12117440E+00
        1 -1    0    0  502    0 0.00000000E+00 0.00000000E+00 0.25666768E+03 0.25666788E+03 0.32000000E+00 0.0000E+00 0.9000E+01
       21 -1    0    0  501  503 0.00000000E+00 0.00000000E+00 -.24712201E+03 0.24712314E+03 0.75000000E+00 0.0000E+00 0.9000E+01
       25  1    1    2    0    0 -.64887083E+02 -.13622035E+02 0.14471291E+03 0.20239249E+03 0.12500000E+03 0.0000E+00 0.9000E+01
       23  1    1    2    0    0 0.39938731E+02 0.80539222E+01 0.47018180E+02 0.11038989E+03 0.91188000E+02 0.0000E+00 0.9000E+01
        1  1    1    2  501    0 0.25829493E+02 -.82780329E+01 -.17109194E+03 0.17322888E+03 0.32000000E+00 0.0000E+00 0.9000E+01
       21  1    1    2  502  503 -.88114208E+00 0.13846146E+02 -.11093475E+02 0.17779760E+02 0.75000000E+00 0.0000E+00 0.9000E+01
#aMCatNLO 2  0  0  2  1 0.13874155D+02 0.00000000D+00  -5  6  0 0.00000000D+00 0.00000000D+00 0.00000000D+00 0.00000000D+00 0.00000000D+00
  <mgrwgt>
 -.2534089376D-01    3    2    0
 0.242687288858068D+03 0.000000000000000D+00 0.000000000000000D+00 0.242687288858068D+03
 0.242687288858068D+03 0.000000000000000D+00 0.000000000000000D+00 -.242687288858068D+03
 0.196233766927070D+03 -.652434389566556D+02 -.802255490782249D+01 0.136241049497748D+03
 0.108692653039285D+03 0.397416266111363D+02 0.111510604117094D+02 0.423686021331096D+02
 0.180448157749782D+03 0.255018123455193D+02 -.312850550388694D+01 -.178609651630857D+03
 0.000000000000000D+00 -.000000000000000D+00 0.000000000000000D+00 -.000000000000000D+00
 0.245982839476689D+03 0.000000000000000D+00 0.000000000000000D+00 0.245982839476689D+03
 0.257841687096896D+03 0.000000000000000D+00 0.000000000000000D+00 -.257841687096896D+03
 0.196424334070306D+03 -.648870987744305D+02 -.136220358005945D+02 0.136241049497748D+03
 0.108491091870904D+03 0.399387224944024D+02 0.805392265558963D+01 0.423686021331096D+02
 0.180657403681520D+03 0.258295183605896D+02 -.827803300980692D+01 -.178609651630857D+03
 0.182516969508549D+02 -.881142080561549D+00 0.138461461548118D+02 -.118588476202074D+02
-.145837036947D-04 0.000000000000D+00 0.000000000000D+00 0.813289430480D-05 0.000000000000D+00  6 1 21 25 23 1 21 4 0.38957197D-01 0.38250907D-01 0.19933061D+05 0.19933061D+05 0.19933061D+05 0.12339864D+01  1  2 13  2  6  2       21 -.266982831514D-01 0.100000000000D+01
-.952344050418D-06 0.000000000000D+00 0.000000000000D+00 0.820400949720D-05 0.000000000000D+00  6 1 21 25 23 1 21 4 0.38957197D-01 0.35783239D-01 0.17824716D+05 0.17824716D+05 0.17824716D+05 0.12393697D+01  1  2  8  2  6  2       21 -.202819753128D-02 0.100000000000D+01
0.185773922796D-05 0.000000000000D+00 0.000000000000D+00 0.820400949720D-05 0.306314528228D-06  6 1 21 25 23 1 21 4 0.39486212D-01 0.38017693D-01 0.19933061D+05 0.19933061D+05 0.19933061D+05 0.12339864D+01  1  2  1  2  6  2       21 0.338558692695D-02 0.100000000000D+01
  </mgrwgt>
  </event>
  <event>
  5     66 -.42756899E-03 0.52477005E+02 0.75467711E-02 0.11810441E+00
        1 -1    0    0  502    0 0.00000000E+00 0.00000000E+00 0.11310583E+04 0.11310583E+04 0.32000000E+00 0.0000E+00 0.9000E+01
       21 -1    0    0  501  502 0.00000000E+00 0.00000000E+00 -.24841582E+03 0.24841695E+03 0.75000000E+00 0.0000E+00 0.9000E+01
       25  1    1    2    0    0 0.55021464E+02 0.58595673E+02 0.79459913E+03 0.80837713E+03 0.12500000E+03 0.0000E+00 0.9000E+01
       23  1    1    2    0    0 -.21100619E+02 -.18555547E+02 0.31966687E+03 0.33360411E+03 0.91188000E+02 0.0000E+00 0.9000E+01
        1  1    1    2  501    0 -.33920845E+02 -.40040126E+02 -.23162355E+03 0.23749402E+03 0.32000000E+00 0.0000E+00 0.9000E+01
#aMCatNLO 1  0  0  5  5 0.25542638D+02 0.00000000D+00  -5  6  0 0.00000000D+00 0.00000000D+00 0.00000000D+00 0.00000000D+00 0.00000000D+00
  <mgrwgt>
 -.2276727316D-01    6    2    0
 0.530069408915917D+03 0.000000000000000D+00 0.000000000000000D+00 0.530069408915917D+03
 0.530069408915917D+03 -.000000000000000D+00 -.000000000000000D+00 -.530069408915917D+03
 0.390316221543019D+03 0.550214669497992D+02 0.585956764895423D+02 0.360916801591508D+03
 0.167946954395829D+03 -.211006178438989D+02 -.185555460085619D+02 0.138207755881371D+03
 0.501875641892986D+03 -.339208491059003D+02 -.400401304809805D+02 -.499124557472879D+03
 0.000000000000000D+00 0.000000000000000D+00 0.000000000000000D+00 -.000000000000000D+00
 0.530069408915917D+03 0.000000000000000D+00 0.000000000000000D+00 0.530069408915917D+03
 0.530069408915917D+03 -.000000000000000D+00 -.000000000000000D+00 -.530069408915917D+03
 0.387318559109975D+03 0.548060756306955D+02 0.583414288292182D+02 0.357747450007900D+03
 0.166849832245696D+03 -.211933507350973D+02 -.186650078045173D+02 0.136843248078572D+03
 0.460940762865995D+03 -.255653342195802D+02 -.615995559080646D+02 -.456090227114829D+03
 0.450296636101682D+02 -.804739067601806D+01 0.219231348833636D+02 -.385004709716425D+02
0.250308344744D-04 0.000000000000D+00 0.000000000000D+00 0.170845614865D-04 0.000000000000D+00  6 1 21 25 23 1 21 2 0.17400905D+00 0.38217909D-01 0.21979401D+05 0.21979401D+05 0.21979401D+05 0.12293392D+01  1  2  2  3  6  5        1 0.371658386204D-02 0.100000000000D+01
0.600375446373D-05 0.132091342526D-05 -.505300431007D-07 0.170845614865D-04 0.000000000000D+00  6 1 21 25 23 1 21 4 0.17400905D+00 0.38217909D-01 0.21979401D+05 0.21979401D+05 0.21979401D+05 0.12293392D+01  1  2  3  3  6  5        1 0.134720908902D-02 0.100000000000D+01
0.346486440797D-05 0.000000000000D+00 0.000000000000D+00 0.170845614865D-04 0.000000000000D+00  6 1 21 25 23 1 21 4 0.17400905D+00 0.38217909D-01 0.21979401D+05 0.21979401D+05 0.21979401D+05 0.12293392D+01  1  2 15  3  6  5        1 0.777496290168D-03 0.100000000000D+01
-.148975882923D-03 0.000000000000D+00 0.000000000000D+00 0.170845614865D-04 0.000000000000D+00  6 1 21 25 23 1 21 4 0.17400905D+00 0.38217909D-01 0.21979401D+05 0.21979401D+05 0.21979401D+05 0.12293392D+01  1  2  4  3  6  5        1 -.334293590337D-01 0.100000000000D+01
-.229206835813D-03 0.000000000000D+00 0.000000000000D+00 0.170845614865D-04 0.000000000000D+00  6 1 21 25 23 1 21 4 0.17400905D+00 0.38217909D-01 0.21979401D+05 0.21979401D+05 0.21979401D+05 0.12293392D+01  1  2  5  3  6  5        1 -.514327383537D-01 0.100000000000D+01
0.250690419565D-03 0.000000000000D+00 -.000000000000D+00 0.170845614865D-04 0.000000000000D+00  6 1 21 25 23 1 21 4 0.17400905D+00 0.38217909D-01 0.21979401D+05 0.21979401D+05 0.21979401D+05 0.12293392D+01  1  2  6  3  6  5        1 0.562535349853D-01 0.100000000000D+01
  </mgrwgt>
  </event>
  <event>
  6     66 -.42756899E-03 0.30796380E+02 0.75467711E-02 0.11613625E+00
        1 -1    0    0  502    0 0.00000000E+00 0.00000000E+00 0.98406780E+03 0.98406786E+03 0.32000000E+00 0.0000E+00 0.9000E+01
       21 -1    0    0  501  503 0.00000000E+00 0.00000000E+00 -.46277871E+02 0.46283948E+02 0.75000000E+00 0.0000E+00 0.9000E+01
       25  1    1    2    0    0 -.24268481E+02 0.10213270E+02 0.47857536E+03 0.49533084E+03 0.12500000E+03 0.0000E+00 0.9000E+01
       23  1    1    2    0    0 -.45972058E+02 0.79402802E+02 0.30503997E+03 0.33133498E+03 0.91188000E+02 0.0000E+00 0.9000E+01
        1  1    1    2  501    0 0.45583572E+02 -.38047949E+02 0.29009020E+02 0.66084296E+02 0.32000000E+00 0.0000E+00 0.9000E+01
       21  1    1    2  502  503 0.24656966E+02 -.51568123E+02 0.12516559E+03 0.13760169E+03 0.75000000E+00 0.0000E+00 0.9000E+01
#aMCatNLO 2  0  0  2  1 0.57159752D+02 0.00000000D+00  -5  6  0 0.00000000D+00 0.00000000D+00 0.00000000D+00 0.00000000D+00 0.00000000D+00
  <mgrwgt>
 -.8579154915D-02    2    2    0
 0.182604221992765D+03 0.000000000000000D+00 0.000000000000000D+00 0.182604221992765D+03
 0.182604221992765D+03 0.000000000000000D+00 0.000000000000000D+00 -.182604221992765D+03
 0.142876320226968D+03 -.146362167681684D+02 -.993196265800121D+01 0.669012717223988D+02
 0.116887437695509D+03 -.377008712817632D+02 0.621041756157001D+02 0.831489162356290D+01
 0.105444686063055D+03 0.523370880499316D+02 -.521722129576989D+02 -.752161633459617D+02
 0.000000000000000D+00 0.000000000000000D+00 -.000000000000000D+00 -.000000000000000D+00
 0.213303314354242D+03 0.000000000000000D+00 0.000000000000000D+00 0.213303314354242D+03
 0.213511310380011D+03 0.000000000000000D+00 0.000000000000000D+00 -.213511310380011D+03
 0.144201446423671D+03 -.242685799918354D+02 0.102133744562944D+02 0.669012717223988D+02
 0.129625019026424D+03 -.459721405967214D+02 0.794028908783838D+02 0.831489162356290D+01
 0.958280284411300D+02 0.455837545691221D+02 -.380481422123298D+02 -.752161633459617D+02
 0.571601308430272D+02 0.246569660194347D+02 -.515681231223485D+02 -.207996025769229D+00
-.141086519967D-05 0.000000000000D+00 0.000000000000D+00 0.387371976995D-06 0.000000000000D+00  6 1 21 25 23 1 21 4 0.12960484D+00 0.75515719D-02 0.34901167D+05 0.34901167D+05 0.34901167D+05 0.12080609D+01  1  2 13  2  6  2       21 -.948446201523D-02 0.100000000000D+01
0.156515412583D-06 0.000000000000D+00 0.000000000000D+00 0.397108037439D-06 0.118770724124D-08  6 1 21 25 23 1 21 4 0.15139377D+00 0.71200618D-02 0.34901167D+05 0.34901167D+05 0.34901167D+05 0.12080609D+01  1  2  1  2  6  2       21 0.905307100193D-03 0.100000000000D+01
  </mgrwgt>
  </event>
  <event>
  5     66 0.42756899E-03 0.76785241E+02 0.75467711E-02 0.11289094E+00
        1 -1    0    0  502    0 0.00000000E+00 0.00000000E+00 0.90707848E+03 0.90707854E+03 0.32000000E+00 0.0000E+00 0.9000E+01
       21 -1    0    0  501  502 0.00000000E+00 0.00000000E+00 -.34521392E+02 0.34529538E+02 0.75000000E+00 0.0000E+00 0.9000E+01
       25  1    1    2    0    0 0.31662173E+02 0.63448533E+02 0.25794935E+03 0.29528135E+03 0.12500000E+03 0.0000E+00 0.9000E+01
       23  1    1    2    0    0 -.81552744E+02 -.50805208E+01 0.40463208E+03 0.42275174E+03 0.91188000E+02 0.0000E+00 0.9000E+01
        1  1    1    2  501    0 0.49890571E+02 -.58368012E+02 0.20997567E+03 0.22357499E+03 0.32000000E+00 0.0000E+00 0.9000E+01
#aMCatNLO 1  0  0  2  2 0.96704695D+02 0.00000000D+00  -5  6  0 0.00000000D+00 0.00000000D+00 0.00000000D+00 0.00000000D+00 0.00000000D+00
  <mgrwgt>
 0.2715498527D-01   14    2    0
 0.176967437286988D+03 0.000000000000000D+00 0.000000000000000D+00 0.176967437286988D+03
 0.176967437286988D+03 0.000000000000000D+00 0.000000000000000D+00 -.176967437286988D+03
 0.149642763981350D+03 0.316619918496045D+02 0.634487454541786D+02 -.417100921167088D+02
 0.127147381153996D+03 -.815528982202380D+02 -.508034042732571D+01 0.342712725667077D+02
 0.771447294386307D+02 0.498909063706335D+02 -.583684050268528D+02 0.743881955000111D+01
 0.000000000000000D+00 0.000000000000000D+00 -.000000000000000D+00 -.000000000000000D+00
 0.227265718997173D+03 0.000000000000000D+00 0.000000000000000D+00 0.227265718997173D+03
 0.236817887027815D+03 0.000000000000000D+00 0.000000000000000D+00 -.236817887027815D+03
 0.165288198321893D+03 0.936629854428261D+01 0.993364443278121D+02 -.417100921167088D+02
 0.142387656820474D+03 -.100634764600625D+03 0.256343032138644D+02 0.342712725667077D+02
 0.592324351802506D+02 0.402360175214888D+02 -.428276573617511D+02 0.743881955000111D+01
 0.971753157023707D+02 0.510324485348533D+02 -.821430901799254D+02 -.955216803064192D+01
0.162806601360D-05 0.000000000000D+00 0.000000000000D+00 0.135060800747D-06 0.000000000000D+00  6 1 21 25 23 1 21 2 0.13955117D+00 0.53116144D-02 0.29401807D+05 0.29401807D+05 0.29401807D+05 0.12158175D+01  1  2  2  2  6  2       21 0.123671270716D-01 0.100000000000D+01
-.116585157012D-06 0.859154039303D-07 -.328659621486D-08 0.135060800747D-06 0.000000000000D+00  6 1 21 25 23 1 21 4 0.13955117D+00 0.53116144D-02 0.29401807D+05 0.29401807D+05 0.29401807D+05 0.12158175D+01  1  2  3  2  6  2       21 -.130911220776D-02 0.100000000000D+01
0.183940073230D-06 0.000000000000D+00 0.000000000000D+00 0.135060800747D-06 0.000000000000D+00  6 1 21 25 23 1 21 4 0.13955117D+00 0.53116144D-02 0.29401807D+05 0.29401807D+05 0.29401807D+05 0.12158175D+01  1  2 15  2  6  2       21 0.206542755126D-02 0.100000000000D+01
-.362080883277D-07 0.000000000000D+00 0.000000000000D+00 0.135060800747D-06 0.000000000000D+00  6 1 21 25 23 1 21 4 0.13955117D+00 0.53116144D-02 0.29401807D+05 0.29401807D+05 0.29401807D+05 0.12158175D+01  1  2  4  2  6  2       21 -.406573629647D-03 0.100000000000D+01
-.281596497385D-05 0.000000000000D+00 -.204761485052D-05 0.135060800747D-06 0.000000000000D+00  6 1 21 25 23 1 21 4 0.13955117D+00 0.92051899D-02 0.29401807D+05 0.29401807D+05 0.29401807D+05 0.12158175D+01  1  2  5  2  6  2       21 -.122617551140D-01 0.100000000000D+01
0.244469412567D-05 0.000000000000D+00 0.119308010659D-05 0.135060800747D-06 0.000000000000D+00  6 1 21 25 23 1 21 4 0.13955117D+00 0.53116144D-02 0.29401807D+05 0.29401807D+05 0.29401807D+05 0.12158175D+01  1  2  6  2  6  2       21 0.274509981045D-01 0.100000000000D+01
-.370338912087D-06 0.000000000000D+00 -.397068628071D-06 0.135060800747D-06 0.000000000000D+00  6 1 -1 25 23 1 -1 4 0.13955117D+00 0.92051899D-02 0.29401807D+05 0.29401807D+05 0.29401807D+05 0.12158175D+01  1  2  5  5  6  2       21 -.105769259072D-03 0.100000000000D+01
-.370338912087D-06 0.000000000000D+00 -.397068628071D-06 0.135060800747D-06 0.000000000000D+00  6 1 1 25 23 1 1 4 0.13955117D+00 0.92051899D-02 0.29401807D+05 0.29401807D+05 0.29401807D+05 0.12158175D+01  1  2  5  6  6  2       21 -.130361788365D-03 0.100000000000D+01
-.370338912087D-06 0.000000000000D+00 -.397068628071D-06 0.135060800747D-06 0.000000000000D+00  6 1 -2 25 23 1 -2 4 0.13955117D+00 0.92051899D-02 0.29401807D+05 0.29401807D+05 0.29401807D+05 0.12158175D+01  1  2  5  7  6  2       21 -.101497985549D-03 0.100000000000D+01
-.370338912087D-06 0.000000000000D+00 -.397068628071D-06 0.135060800747D-06 0.000000000000D+00  6 1 -4 25 23 1 -4 4 0.13955117D+00 0.92051899D-02 0.29401807D+05 0.29401807D+05 0.29401807D+05 0.12158175D+01  1  2  5  7  6  2       21 -.623453030656D-04 0.100000000000D+01
-.370338912087D-06 0.000000000000D+00 -.397068628071D-06 0.135060800747D-06 0.000000000000D+00  6 1 2 25 23 1 2 4 0.13955117D+00 0.92051899D-02 0.29401807D+05 0.29401807D+05 0.29401807D+05 0.12158175D+01  1  2  5  8  6  2       21 -.146990250213D-03 0.100000000000D+01
-.370338912087D-06 0.000000000000D+00 -.397068628071D-06 0.135060800747D-06 0.000000000000D+00  6 1 4 25 23 1 4 4 0.13955117D+00 0.92051899D-02 0.29401807D+05 0.29401807D+05 0.29401807D+05 0.12158175D+01  1  2  5  8  6  2       21 -.623453030656D-04 0.100000000000D+01
-.370338912087D-06 0.000000000000D+00 -.397068628071D-06 0.135060800747D-06 0.000000000000D+00  6 1 -3 25 23 1 -3 4 0.13955117D+00 0.92051899D-02 0.29401807D+05 0.29401807D+05 0.29401807D+05 0.12158175D+01  1  2  5  9  6  2       21 -.709125747490D-04 0.100000000000D+01
-.370338912087D-06 0.000000000000D+00 -.397068628071D-06 0.135060800747D-06 0.000000000000D+00  6 1 3 25 23 1 3 4 0.13955117D+00 0.92051899D-02 0.29401807D+05 0.29401807D+05 0.29401807D+05 0.12158175D+01  1  2  5 10  6  2       21 -.709040441674D-04 0.100000000000D+01
  </mgrwgt>
  </event>
  <event>
  6     66 0.42756899E-03 0.75637268E+02 0.75467711E-02 0.11653880E+00
        1 -1    0    0  502    0 0.00000000E+00 0.00000000E+00 0.22869587E+03 0.22869609E+03 0.32000000E+00 0.0000E+00 0.9000E+01
       21 -1    0    0  501  502 0.00000000E+00 0.00000000E+00 -.15211360E+03 0.15211545E+03 0.75000000E+00 0.0000E+00 0.9000E+01
       25  1    1    2    0    0 0.21649572E+02 0.43490157E+00 0.60312392E+02 0.14046878E+03 0.12500000E+03 0.0000E+00 0.9000E+01
       23  1    1    2    0    0 -.78663326E+02 0.31346460E+02 -.56281017E+00 0.12444311E+03 0.91188000E+02 0.0000E+00 0.9000E+01
        1  1    1    2  503    0 0.70864721E+02 -.52934889E+02 0.19133875E+02 0.90499275E+02 0.32000000E+00 0.0000E+00 0.9000E+01
       21  1    1    2  501  503 -.13850967E+02 0.21153527E+02 -.23011892E+01 0.25400373E+02 0.75000000E+00 0.0000E+00 0.9000E+01
#aMCatNLO 2  0  0  5  5 0.15407990D+02 0.00000000D+00  -5  6  0 0.00000000D+00 0.00000000D+00 0.00000000D+00 0.00000000D+00 0.00000000D+00
  <mgrwgt>
 0.1677250254D-01    1    2    0
 0.186515805190980D+03 0.000000000000000D+00 0.000000000000000D+00 0.186515805190980D+03
 0.186515805190980D+03 -.000000000000000D+00 -.000000000000000D+00 -.186515805190980D+03
 0.130157650731229D+03 0.560663523835594D+01 0.937776770956060D+01 0.345924436541006D+02
 0.139927041045925D+03 -.950691058030831D+02 0.404915877295528D+02 -.242202790407143D+02
 0.102946918604806D+03 0.894624705647272D+02 -.498693554391134D+02 -.103721646133863D+02
 0.000000000000000D+00 0.000000000000000D+00 0.000000000000000D+00 0.000000000000000D+00
 0.186515805190980D+03 0.000000000000000D+00 0.000000000000000D+00 0.186515805190980D+03
 0.186515805190980D+03 -.000000000000000D+00 -.000000000000000D+00 -.186515805190980D+03
 0.131030179532722D+03 0.217514354843422D+02 0.378119288516256D+00 0.327206361269381D+02
 0.127081694901457D+03 -.785644979833108D+02 0.312913706044077D+02 -.261338021985864D+02
 0.883616674063737D+02 0.707173947292676D+02 -.529691547536160D+02 0.105023531984563D+01
 0.265580685414074D+02 -.139043322302989D+02 0.212996648606921D+02 -.763706924819729D+01
0.338375757001D-05 0.000000000000D+00 0.000000000000D+00 0.135315938272D-06 0.265493841513D-08  6 1 21 25 23 1 21 4 0.35184139D-01 0.23402251D-01 0.33312858D+05 0.33312858D+05 0.33312858D+05 0.12101528D+01  1  2  1  3  6  5        1 0.167725025417D-01 0.100000000000D+01
  </mgrwgt>
  </event>
  <event>
  5     66 -.42756899E-03 0.27623812E+02 0.75467711E-02 0.11652770E+00
        1 -1    0    0  502    0 0.00000000E+00 0.00000000E+00 0.26201404E+03 0.26201423E+03 0.32000000E+00 0.0000E+00 0.9000E+01
       21 -1    0    0  501  502 0.00000000E+00 0.00000000E+00 -.13425500E+03 0.13425710E+03 0.75000000E+00 0.0000E+00 0.9000E+01
       25  1    1    2    0    0 0.67840085E+02 -.99452737E+02 0.80303869E+02 0.19122457E+03 0.12500000E+03 0.0000E+00 0.9000E+01
       23  1    1    2    0    0 -.95396327E+02 0.97535726E+02 0.59975911E+02 0.17471702E+03 0.91188000E+02 0.0000E+00 0.9000E+01
        1  1    1    2  501    0 0.27556242E+02 0.19170118E+01 -.12520746E+02 0.30329736E+02 0.32000000E+00 0.0000E+00 0.9000E+01
#aMCatNLO 1  0  0  5  2 0.89400093D+01 0.00000000D+00  -5  6  0 0.00000000D+00 0.00000000D+00 0.00000000D+00 0.00000000D+00 0.00000000D+00
  <mgrwgt>
 -.5362488876D-01    7    2    0
 0.187555721377251D+03 0.000000000000000D+00 0.000000000000000D+00 0.187555721377251D+03
 0.187555721377251D+03 -.000000000000000D+00 -.000000000000000D+00 -.187555721377251D+03
 0.174660685336149D+03 0.678395868250901D+02 -.994527720136376D+02 0.197051160945050D+02
 0.164145834509120D+03 -.953967958828931D+02 0.975356929130801D+02 0.385273746035045D+01
 0.363049229092319D+02 0.275572090578031D+02 0.191707910055745D+01 -.235578535548554D+02
 0.000000000000000D+00 0.000000000000000D+00 0.000000000000000D+00 -.000000000000000D+00
 0.187555721377251D+03 0.000000000000000D+00 0.000000000000000D+00 0.187555721377251D+03
 0.187555721377251D+03 -.000000000000000D+00 -.000000000000000D+00 -.187555721377251D+03
 0.175092285370217D+03 0.694978793741490D+02 -.993374091704069D+02 0.182874902043107D+02
 0.163287106228534D+03 -.938443298528117D+02 0.976436936969894D+02 0.252557957187081D+01
 0.191399944239259D+02 0.185781793592080D+02 0.189584571295618D+01 -.419480718003552D+01
 0.175920567318247D+02 0.576827111945479D+01 -.202130239538703D+00 -.166182625961460D+02
0.453943857915D-05 0.000000000000D+00 0.000000000000D+00 0.446077625343D-06 0.000000000000D+00  6 1 21 25 23 1 21 2 0.40310028D-01 0.20654792D-01 0.33355542D+05 0.33355542D+05 0.33355542D+05 0.12100951D+01  1  2  2  3  6  5        1 0.164000864999D-01 0.100000000000D+01
0.416902773624D-06 0.239552755162D-06 -.916381862107D-08 0.446077625343D-06 0.000000000000D+00  6 1 21 25 23 1 21 4 0.40310028D-01 0.20654792D-01 0.33355542D+05 0.33355542D+05 0.33355542D+05 0.12100951D+01  1  2  3  3  6  5        1 0.220555454337D-02 0.100000000000D+01
0.388124134277D-06 0.000000000000D+00 0.000000000000D+00 0.446077625343D-06 0.000000000000D+00  6 1 21 25 23 1 21 4 0.40310028D-01 0.20654792D-01 0.33355542D+05 0.33355542D+05 0.33355542D+05 0.12100951D+01  1  2 15  3  6  5        1 0.205330595502D-02 0.100000000000D+01
0.256256701274D-05 0.000000000000D+00 0.000000000000D+00 0.446703312981D-06 0.000000000000D+00  6 1 21 25 23 1 21 4 0.40310028D-01 0.20654792D-01 0.32733620D+05 0.32733620D+05 0.32733620D+05 0.12109435D+01  1  2 12  3  6  5        1 0.135965138178D-01 0.100000000000D+01
-.196714333012D-04 0.000000000000D+00 0.000000000000D+00 0.446077625343D-06 0.000000000000D+00  6 1 21 25 23 1 21 4 0.40310028D-01 0.20654792D-01 0.33355542D+05 0.33355542D+05 0.33355542D+05 0.12100951D+01  1  2  4  3  6  5        1 -.104068434745D+00 0.100000000000D+01
-.234151966913D-05 0.000000000000D+00 0.000000000000D+00 0.446077625343D-06 0.000000000000D+00  6 1 21 25 23 1 21 4 0.40310028D-01 0.20654792D-01 0.33355542D+05 0.33355542D+05 0.33355542D+05 0.12100951D+01  1  2  5  3  6  5        1 -.123874190132D-01 0.100000000000D+01
0.540145651178D-05 0.000000000000D+00 -.000000000000D+00 0.446077625343D-06 0.000000000000D+00  6 1 21 25 23 1 21 4 0.40310028D-01 0.20654792D-01 0.33355542D+05 0.33355542D+05 0.33355542D+05 0.12100951D+01  1  2  6  3  6  5        1 0.285755041801D-01 0.100000000000D+01
  </mgrwgt>
  </event>
  <event>
  5     66 0.42756899E-03 0.29138217E+02 0.75467711E-02 0.11543111E+00
        1 -1    0    0  502    0 0.00000000E+00 0.00000000E+00 0.19945366E+04 0.19945366E+04 0.32000000E+00 0.0000E+00 0.9000E+01
       21 -1    0    0  501  502 0.00000000E+00 0.00000000E+00 -.60639585E+02 0.60644223E+02 0.75000000E+00 0.0000E+00 0.9000E+01
       25  1    1    2    0    0 0.34960822E+02 0.29011728E+02 0.74822772E+03 0.75995636E+03 0.12500000E+03 0.0000E+00 0.9000E+01
       23  1    1    2    0    0 -.60417242E+02 -.43189382E+02 0.12335663E+04 0.12391597E+04 0.91188000E+02 0.0000E+00 0.9000E+01
        1  1    1    2  501    0 0.25456419E+02 0.14177654E+02 -.47897036E+02 0.56064816E+02 0.32000000E+00 0.0000E+00 0.9000E+01
#aMCatNLO 1  0  0  2  1 0.12362514D+03 0.00000000D+00  -5  6  0 0.00000000D+00 0.00000000D+00 0.00000000D+00 0.00000000D+00 0.00000000D+00
  <mgrwgt>
 0.2082454178D+00    4    2    0
 0.347782494218492D+03 0.000000000000000D+00 0.000000000000000D+00 0.347782494218492D+03
 0.347782494218492D+03 0.000000000000000D+00 0.000000000000000D+00 -.347782494218492D+03
 0.165121029402307D+03 0.349608187710442D+02 0.290117256817762D+02 0.978571166277713D+02
 0.231620382846294D+03 -.604172465014491D+02 -.431893843839028D+02 0.199542436107176D+03
 0.298823576188382D+03 0.254564277304049D+02 0.141776587021266D+02 -.297399552734947D+03
 0.000000000000000D+00 0.000000000000000D+00 -.000000000000000D+00 0.000000000000000D+00
 0.521471797585280D+03 0.000000000000000D+00 0.000000000000000D+00 0.521471797585280D+03
 0.360872024824746D+03 0.000000000000000D+00 0.000000000000000D+00 -.360872024824746D+03
 0.168941269851926D+03 0.308327669776464D+02 0.488822857994817D+02 0.978571166277713D+02
 0.229678145096511D+03 -.661175731166259D+02 -.157506097835978D+02 0.199542436107176D+03
 0.302098919371762D+03 0.180307493733201D+02 0.499214903190615D+02 -.297399552734947D+03
 0.181625488089827D+03 0.172540567656593D+02 -.830531663349454D+02 0.160599772760534D+03
0.233675575016D-03 0.000000000000D+00 0.000000000000D+00 0.145590682615D-04 0.000000000000D+00  6 1 21 25 23 1 21 2 0.30685214D+00 0.93295257D-02 0.19563965D+05 0.19563965D+05 0.19563965D+05 0.12348814D+01  1  2  2  2  6  2       21 0.131040753428D+00 0.100000000000D+01
0.726726353035D-04 0.123313988796D-04 -.471723661039D-06 0.145590682615D-04 0.000000000000D+00  6 1 21 25 23 1 21 4 0.30685214D+00 0.93295257D-02 0.19563965D+05 0.19563965D+05 0.19563965D+05 0.12348814D+01  1  2  3  2  6  2       21 0.621461799968D-01 0.100000000000D+01
0.286595386143D-04 0.000000000000D+00 0.000000000000D+00 0.145590682615D-04 0.000000000000D+00  6 1 21 25 23 1 21 4 0.30685214D+00 0.93295257D-02 0.19563965D+05 0.19563965D+05 0.19563965D+05 0.12348814D+01  1  2 15  2  6  2       21 0.245082738215D-01 0.100000000000D+01
-.110504154198D-04 0.000000000000D+00 0.000000000000D+00 0.145590682615D-04 0.000000000000D+00  6 1 21 25 23 1 21 4 0.30685214D+00 0.93295257D-02 0.19563965D+05 0.19563965D+05 0.19563965D+05 0.12348814D+01  1  2  4  2  6  2       21 -.944978949574D-02 0.100000000000D+01
  </mgrwgt>
  </event>
  <event>
  6     66 0.42756899E-03 0.10613189E+03 0.75467711E-02 0.10864776E+00
       21 -1    0    0  502  503 0.00000000E+00 0.00000000E+00 0.83802738E+03 0.83802771E+03 0.75000000E+00 0.0000E+00 0.9000E+01
       21 -1    0    0  501  502 0.00000000E+00 0.00000000E+00 -.32308105E+03 0.32308192E+03 0.75000000E+00 0.0000E+00 0.9000E+01
       25  1    1    2    0    0 -.75293986E+02 -.11319106E+03 -.14548915E+03 0.23510315E+03 0.12500000E+03 0.0000E+00 0.9000E+01
       23  1    1    2    0    0 -.10419140E+03 0.59716025E+02 0.20685769E+02 0.15220054E+03 0.91188000E+02 0.0000E+00 0.9000E+01
        3  1    1    2  501    0 0.28690806E+02 0.98212254E+02 -.12298109E+02 0.10305485E+03 0.50000000E+00 0.0000E+00 0.9000E+01
       -3  1    1    2    0  503 0.15079458E+03 -.44737222E+02 0.65204782E+03 0.67075109E+03 0.50000000E+00 0.0000E+00 0.9000E+01
#aMCatNLO 2  0  0  1  1 0.15729089D+03 0.00000000D+00  -5  6  0 0.00000000D+00 0.00000000D+00 0.00000000D+00 0.00000000D+00 0.00000000D+00
  <mgrwgt>
 0.1931458008D-02    1    2    0
 0.221875110350428D+03 0.000000000000000D+00 0.000000000000000D+00 0.221875110350428D+03
 0.221875110350428D+03 0.000000000000000D+00 0.000000000000000D+00 -.221875110350428D+03
 0.200671742628396D+03 -.881776106596462D+01 -.132913496558126D+03 -.830686331414792D+02
 0.133151122962520D+03 -.551061597626962D+02 0.451532522987439D+02 0.658670263882803D+02
 0.109927355109941D+03 0.639239208286608D+02 0.877602442593822D+02 0.172016067531988D+02
 0.000000000000000D+00 0.000000000000000D+00 -.000000000000000D+00 0.000000000000000D+00
 0.111687870313904D+04 0.000000000000000D+00 0.000000000000000D+00 0.111687870313904D+04
 0.242417832183848D+03 0.000000000000000D+00 0.000000000000000D+00 -.242417832183848D+03
 0.202501717065550D+03 -.752944033001663D+02 -.113191432688939D+03 -.830686331414792D+02
 0.164546574462514D+03 -.104191591479090D+03 0.597157510475045D+02 0.658670263882803D+02
 0.103753877542837D+03 0.286914160253810D+02 0.982129038199194D+02 0.172016067531988D+02
 0.888494366251991D+03 0.150794578753876D+03 -.447372221784854D+02 0.874460870955197D+03
0.660418597699D-05 0.000000000000D+00 0.000000000000D+00 0.577684111911D-07 0.105908377702D-10  6 21 21 25 23 3 -3 4 0.12892735D+00 0.49704856D-01 0.88529087D+05 0.88529087D+05 0.88529087D+05 0.11684640D+01  1  2  1  4  6  1        3 0.193145800823D-02 0.100000000000D+01
  </mgrwgt>
  </event>
  <event>
  6     66 -.42756899E-03 0.23539149E+03 0.75467711E-02 0.10922404E+00
        1 -1    0    0  502    0 0.00000000E+00 0.00000000E+00 0.32179089E+04 0.32179089E+04 0.32000000E+00 0.0000E+00 0.9000E+01
       21 -1    0    0  503  502 0.00000000E+00 0.00000000E+00 -.26425497E+02 0.26436138E+02 0.75000000E+00 0.0000E+00 0.9000E+01
       25  1    1    2    0    0 -.56443613E+01 0.16554984E+03 0.13901067E+04 0.14055106E+04 0.12500000E+03 0.0000E+00 0.9000E+01
       23  1    1    2    0    0 0.10443426E+02 0.70642648E+02 0.67533236E+03 0.68519230E+03 0.91188000E+02 0.0000E+00 0.9000E+01
        1  1    1    2  501    0 0.37569571E+01 -.24005589E+03 0.11013075E+04 0.11271731E+04 0.32000000E+00 0.0000E+00 0.9000E+01
       21  1    1    2  503  501 -.85560220E+01 0.38634051E+01 0.24736861E+02 0.26468967E+02 0.75000000E+00 0.0000E+00 0.9000E+01
#aMCatNLO 2  0  0  2  1 0.93878332D+01 0.00000000D+00  -5  6  0 0.00000000D+00 0.00000000D+00 0.00000000D+00 0.00000000D+00 0.00000000D+00
  <mgrwgt>
 -.7593834622D-02    4    2    0
 0.285637320595311D+03 0.000000000000000D+00 0.000000000000000D+00 0.285637320595311D+03
 0.285637320595311D+03 0.000000000000000D+00 0.000000000000000D+00 -.285637320595311D+03
 0.212387350018236D+03 -.881585655266592D+01 0.166981982135639D+03 0.390215935485043D+02
 0.116303260516623D+03 0.870418508490435D+01 0.714280305391231D+02 0.578538487114823D+01
 0.242584030655762D+03 0.111671467761577D+00 -.238410012674762D+03 -.448069784196525D+02
 0.000000000000000D+00 -.000000000000000D+00 0.000000000000000D+00 -.000000000000000D+00
 0.287955354764654D+03 0.000000000000000D+00 0.000000000000000D+00 0.287955354764654D+03
 0.295341669460620D+03 0.000000000000000D+00 0.000000000000000D+00 -.295341669460620D+03
 0.211154727201633D+03 -.564436034558584D+01 0.165549917707079D+03 0.390215935485043D+02
 0.115966274288832D+03 0.104434265635576D+02 0.706426895859494D+02 0.578538487114823D+01
 0.244230770257409D+03 0.375695579176768D+01 -.240056012440028D+03 -.448069784196525D+02
 0.119452524774009D+02 -.855602200973944D+01 0.386340514699920D+01 -.738631469596626D+01
-.204108650025D-04 0.000000000000D+00 0.000000000000D+00 0.181649003198D-06 0.000000000000D+00  6 1 21 25 23 1 21 4 0.49105851D+00 0.40817268D-02 0.82028657D+05 0.82028657D+05 0.82028657D+05 0.11715587D+01  1  2 13  2  6  2       21 -.855659038105D-02 0.100000000000D+01
-.168751308368D-04 0.000000000000D+00 0.000000000000D+00 0.181649003198D-06 0.000000000000D+00  6 1 21 25 23 1 21 4 0.49105851D+00 0.41119024D-02 0.82028657D+05 0.82028657D+05 0.82028657D+05 0.11715587D+01  1  2 13  2  6  2       21 -.698670391050D-02 0.100000000000D+01
-.549946677715D-04 0.000000000000D+00 0.000000000000D+00 0.182071351913D-06 0.000000000000D+00  6 1 21 25 23 1 21 4 0.49105851D+00 0.39325110D-02 0.79338328D+05 0.79338328D+05 0.79338328D+05 0.11729199D+01  1  2  8  2  6  2       21 -.247155121388D-01 0.100000000000D+01
0.808178279160D-04 0.000000000000D+00 0.000000000000D+00 0.182071351913D-06 0.259169198903D-07  6 1 21 25 23 1 21 4 0.49504360D+00 0.40661156D-02 0.82028657D+05 0.82028657D+05 0.82028657D+05 0.11715587D+01  1  2  1  2  6  2       21 0.326649718082D-01 0.100000000000D+01
  </mgrwgt>
  </event>
  <event>
  5     66 0.42756899E-03 0.45445581E+02 0.75467711E-02 0.11851486E+00
        1 -1    0    0  502    0 0.00000000E+00 0.00000000E+00 0.16522765E+03 0.16522796E+03 0.32000000E+00 0.0000E+00 0.9000E+01
       21 -1    0    0  501  502 0.00000000E+00 0.00000000E+00 -.39656385E+03 0.39656456E+03 0.75000000E+00 0.0000E+00 0.9000E+01
       25  1    1    2    0    0 0.13599313E+02 -.41109822E+02 -.73891708E+02 0.15152539E+03 0.12500000E+03 0.0000E+00 0.9000E+01
       23  1    1    2    0    0 0.87805706E+01 0.80662781E+02 0.94430972E+02 0.15432447E+03 0.91188000E+02 0.0000E+00 0.9000E+01
        1  1    1    2  501    0 -.22379884E+02 -.39552958E+02 -.25187546E+03 0.25594266E+03 0.32000000E+00 0.0000E+00 0.9000E+01
#aMCatNLO 1  0  0  2  1 0.28986426D+02 0.00000000D+00  -5  6  0 0.00000000D+00 0.00000000D+00 0.00000000D+00 0.00000000D+00 0.00000000D+00
  <mgrwgt>
 0.5696782378D-01   23    2    0
 0.255975779315007D+03 0.000000000000000D+00 0.000000000000000D+00 0.255975779315007D+03
 0.255975779315007D+03 0.000000000000000D+00 0.000000000000000D+00 -.255975779315007D+03
 0.132887566498539D+03 0.135993239075832D+02 -.411098034652303D+02 -.126153786391992D+02
 0.212019458214102D+03 0.878058762798463D+01 0.806628108001958D+02 0.173359198060329D+03
 0.167044533917373D+03 -.223799115355678D+02 -.395530073349655D+02 -.160743819421130D+03
 0.000000000000000D+00 -.000000000000000D+00 -.000000000000000D+00 -.000000000000000D+00
 0.260098742085495D+03 0.000000000000000D+00 0.000000000000000D+00 0.260098742085495D+03
 0.312958245322593D+03 0.000000000000000D+00 0.000000000000000D+00 -.312958245322593D+03
 0.130982999905038D+03 0.151468505552824D+02 -.338078600944910D+02 -.126153786391992D+02
 0.216929951491734D+03 0.112962552565574D+02 0.925328891544203D+02 0.173359198060329D+03
 0.164858548673910D+03 -.204333933173215D+02 -.303684379959636D+02 -.160743819421130D+03
 0.602854873374062D+02 -.600971249451831D+01 -.283565910639657D+02 -.528595032370984D+02
0.604231864293D-05 0.000000000000D+00 0.000000000000D+00 0.890582279207D-06 0.000000000000D+00  6 1 21 25 23 1 21 2 0.25419717D-01 0.61009901D-01 0.22469079D+05 0.22469079D+05 0.22469079D+05 0.12282989D+01  1  2  2  2  6  2       21 0.466885910735D-02 0.100000000000D+01
0.612813476672D-06 0.318861915024D-06 -.121977004709D-07 0.890582279207D-06 0.000000000000D+00  6 1 21 25 23 1 21 4 0.25419717D-01 0.61009901D-01 0.22469079D+05 0.22469079D+05 0.22469079D+05 0.12282989D+01  1  2  3  2  6  2       21 0.714403477455D-03 0.100000000000D+01
0.551712865887D-06 0.000000000000D+00 0.000000000000D+00 0.890582279207D-06 0.000000000000D+00  6 1 21 25 23 1 21 4 0.25419717D-01 0.61009901D-01 0.22469079D+05 0.22469079D+05 0.22469079D+05 0.12282989D+01  1  2 15  2  6  2       21 0.643173828497D-03 0.100000000000D+01
0.352417855843D-04 0.000000000000D+00 0.000000000000D+00 0.879120922459D-06 0.000000000000D+00  6 1 21 25 23 1 21 4 0.25419717D-01 0.75009077D-01 0.26628898D+05 0.26628898D+05 0.26628898D+05 0.12203695D+01  1  2 12  2  6  2       21 0.254095167350D-01 0.100000000000D+01
-.387684837251D-05 0.000000000000D+00 0.000000000000D+00 0.890582279207D-06 0.000000000000D+00  6 1 21 25 23 1 21 4 0.25419717D-01 0.61009901D-01 0.22469079D+05 0.22469079D+05 0.22469079D+05 0.12282989D+01  1  2  4  2  6  2       21 -.451953826786D-02 0.100000000000D+01
-.811028995128D-04 0.000000000000D+00 -.101775770829D-04 0.890582279207D-06 0.000000000000D+00  6 1 21 25 23 1 21 4 0.25419717D-01 0.75269062D-01 0.22469079D+05 0.22469079D+05 0.22469079D+05 0.12282989D+01  1  2  5  2  6  2       21 -.598429458280D-01 0.100000000000D+01
0.783526165395D-04 0.000000000000D+00 0.933283474663D-05 0.890582279207D-06 0.000000000000D+00  6 1 21 25 23 1 21 4 0.25419717D-01 0.61009901D-01 0.22469079D+05 0.22469079D+05 0.22469079D+05 0.12282989D+01  1  2  6  2  6  2       21 0.913416298014D-01 0.100000000000D+01
0.210236702717D-05 0.000000000000D+00 0.000000000000D+00 0.879120922459D-06 0.000000000000D+00  6 1 -1 25 23 1 -1 4 0.25419717D-01 0.75009077D-01 0.26628898D+05 0.26628898D+05 0.26628898D+05 0.12203695D+01  1  2 12  5  6  2       21 0.164283438853D-03 0.100000000000D+01
-.369815443129D-05 0.000000000000D+00 -.619475135866D-06 0.890582279207D-06 0.000000000000D+00  6 1 -1 25 23 1 -1 4 0.25419717D-01 0.75269062D-01 0.22469079D+05 0.22469079D+05 0.22469079D+05 0.12282989D+01  1  2  5  5  6  2       21 -.294678432621D-03 0.100000000000D+01
0.210236702717D-05 0.000000000000D+00 0.000000000000D+00 0.879120922459D-06 0.000000000000D+00  6 1 1 25 23 1 1 4 0.25419717D-01 0.75009077D-01 0.26628898D+05 0.26628898D+05 0.26628898D+05 0.12203695D+01  1  2 12  6  6  2       21 0.487128864591D-03 0.100000000000D+01
-.369815443129D-05 0.000000000000D+00 -.619475135866D-06 0.890582279207D-06 0.000000000000D+00  6 1 1 25 23 1 1 4 0.25419717D-01 0.75269062D-01 0.22469079D+05 0.22469079D+05 0.22469079D+05 0.12282989D+01  1  2  5  6  6  2       21 -.875585174721D-03 0.100000000000D+01
0.210236702717D-05 0.000000000000D+00 0.000000000000D+00 0.879120922459D-06 0.000000000000D+00  6 1 -2 25 23 1 -2 4 0.25419717D-01 0.75009077D-01 0.26628898D+05 0.26628898D+05 0.26628898D+05 0.12203695D+01  1  2 12  7  6  2       21 0.126552959145D-03 0.100000000000D+01
0.210236702717D-05 0.000000000000D+00 0.000000000000D+00 0.879120922459D-06 0.000000000000D+00  6 1 -4 25 23 1 -4 4 0.25419717D-01 0.75009077D-01 0.26628898D+05 0.26628898D+05 0.26628898D+05 0.12203695D+01  1  2 12  7  6  2       21 0.643904539290D-04 0.100000000000D+01
-.369815443129D-05 0.000000000000D+00 -.619475135866D-06 0.890582279207D-06 0.000000000000D+00  6 1 -2 25 23 1 -2 4 0.25419717D-01 0.75269062D-01 0.22469079D+05 0.22469079D+05 0.22469079D+05 0.12282989D+01  1  2  5  7  6  2       21 -.226694477013D-03 0.100000000000D+01
-.369815443129D-05 0.000000000000D+00 -.619475135866D-06 0.890582279207D-06 0.000000000000D+00  6 1 -4 25 23 1 -4 4 0.25419717D-01 0.75269062D-01 0.22469079D+05 0.22469079D+05 0.22469079D+05 0.12282989D+01  1  2  5  7  6  2       21 -.114729618642D-03 0.100000000000D+01
0.210236702717D-05 0.000000000000D+00 0.000000000000D+00 0.879120922459D-06 0.000000000000D+00  6 1 2 25 23 1 2 4 0.25419717D-01 0.75009077D-01 0.26628898D+05 0.26628898D+05 0.26628898D+05 0.12203695D+01  1  2 12  8  6  2       21 0.755902807672D-03 0.100000000000D+01
0.210236702717D-05 0.000000000000D+00 0.000000000000D+00 0.879120922459D-06 0.000000000000D+00  6 1 4 25 23 1 4 4 0.25419717D-01 0.75009077D-01 0.26628898D+05 0.26628898D+05 0.26628898D+05 0.12203695D+01  1  2 12  8  6  2       21 0.643904539290D-04 0.100000000000D+01
-.369815443129D-05 0.000000000000D+00 -.619475135866D-06 0.890582279207D-06 0.000000000000D+00  6 1 2 25 23 1 2 4 0.25419717D-01 0.75269062D-01 0.22469079D+05 0.22469079D+05 0.22469079D+05 0.12282989D+01  1  2  5  8  6  2       21 -.135865959611D-02 0.100000000000D+01
-.369815443129D-05 0.000000000000D+00 -.619475135866D-06 0.890582279207D-06 0.000000000000D+00  6 1 4 25 23 1 4 4 0.25419717D-01 0.75269062D-01 0.22469079D+05 0.22469079D+05 0.22469079D+05 0.12282989D+01  1  2  5  8  6  2       21 -.114729618642D-03 0.100000000000D+01
0.210236702717D-05 0.000000000000D+00 0.000000000000D+00 0.879120922459D-06 0.000000000000D+00  6 1 -3 25 23 1 -3 4 0.25419717D-01 0.75009077D-01 0.26628898D+05 0.26628898D+05 0.26628898D+05 0.12203695D+01  1  2 12  9  6  2       21 0.794406055961D-04 0.100000000000D+01
-.369815443129D-05 0.000000000000D+00 -.619475135866D-06 0.890582279207D-06 0.000000000000D+00  6 1 -3 25 23 1 -3 4 0.25419717D-01 0.75269062D-01 0.22469079D+05 0.22469079D+05 0.22469079D+05 0.12282989D+01  1  2  5  9  6  2       21 -.141828832007D-03 0.100000000000D+01
0.210236702717D-05 0.000000000000D+00 0.000000000000D+00 0.879120922459D-06 0.000000000000D+00  6 1 3 25 23 1 3 4 0.25419717D-01 0.75009077D-01 0.26628898D+05 0.26628898D+05 0.26628898D+05 0.12203695D+01  1  2 12 10  6  2       21 0.795295815902D-04 0.100000000000D+01
-.369815443129D-05 0.000000000000D+00 -.619475135866D-06 0.890582279207D-06 0.000000000000D+00  6 1 3 25 23 1 3 4 0.25419717D-01 0.75269062D-01 0.22469079D+05 0.22469079D+05 0.22469079D+05 0.12282989D+01  1  2  5 10  6  2       21 -.141988493190D-03 0.100000000000D+01
  </mgrwgt>
  </event>
  <event>
  5     66 -.42756899E-03 0.89364485E+02 0.75467711E-02 0.11866062E+00
        3 -1    0    0  502    0 0.00000000E+00 0.00000000E+00 0.37589375E+03 0.37589408E+03 0.50000000E+00 0.0000E+00 0.9000E+01
       21 -1    0    0  501  502 0.00000000E+00 0.00000000E+00 -.14072427E+03 0.14072627E+03 0.75000000E+00 0.0000E+00 0.9000E+01
       25  1    1    2    0    0 0.19978887E+02 0.38836464E+02 0.27522441E+03 0.30541923E+03 0.12500000E+03 0.0000E+00 0.9000E+01
       23  1    1    2    0    0 0.15516001E+02 0.43176126E+02 0.19343794E+02 0.10389590E+03 0.91188000E+02 0.0000E+00 0.9000E+01
        3  1    1    2  501    0 -.35494889E+02 -.82012591E+02 -.59398729E+02 0.10730522E+03 0.50000000E+00 0.0000E+00 0.9000E+01
#aMCatNLO 1  0  0  5  2 0.66819566D+01 0.00000000D+00  -5  6  0 0.00000000D+00 0.00000000D+00 0.00000000D+00 0.00000000D+00 0.00000000D+00
  <mgrwgt>
 -.1418118299D-01    8    2    0
 0.229995599667598D+03 0.000000000000000D+00 0.000000000000000D+00 0.229995599667598D+03
 0.229995599667598D+03 -.000000000000000D+00 -.000000000000000D+00 -.229995599667598D+03
 0.202311545139656D+03 0.199789731791887D+02 0.388366622771495D+02 0.152962464646302D+03
 0.106796972747013D+03 0.155160467451213D+02 0.431762309585987D+02 -.313911996830204D+02
 0.150882681448527D+03 -.354950199243100D+02 -.820128932357482D+02 -.121571264963281D+03
 0.000000000000000D+00 0.000000000000000D+00 0.000000000000000D+00 -.000000000000000D+00
 0.229995599667598D+03 0.000000000000000D+00 0.000000000000000D+00 0.229995599667598D+03
 0.229995599667598D+03 -.000000000000000D+00 -.000000000000000D+00 -.229995599667598D+03
 0.202010763968099D+03 0.198828739552939D+02 0.386146205539407D+02 0.152633322579730D+03
 0.106793501437895D+03 0.154652806153824D+02 0.430589334563815D+02 -.315650748526304D+02
 0.120793000642465D+03 -.276275491266425D+02 -.711606218940012D+02 -.936153482348086D+02
 0.303939332867376D+02 -.772060544403377D+01 -.105129321163211D+02 -.274528994922911D+02
0.551884839181D-06 0.000000000000D+00 0.000000000000D+00 0.298749631002D-06 0.000000000000D+00  6 3 21 25 23 3 21 2 0.57829987D-01 0.21650067D-01 0.26220343D+05 0.26220343D+05 0.26220343D+05 0.12210847D+01  1  2  2  3  6  5        3 0.239696904710D-03 0.100000000000D+01
-.124192738386D-07 0.291237630938D-07 -.111409648524D-08 0.298749631002D-06 0.000000000000D+00  6 3 21 25 23 3 21 4 0.57829987D-01 0.21650067D-01 0.26220343D+05 0.26220343D+05 0.26220343D+05 0.12210847D+01  1  2  3  3  6  5        3 -.804269800598D-05 0.100000000000D+01
0.659817391149D-07 0.000000000000D+00 0.000000000000D+00 0.298749631002D-06 0.000000000000D+00  6 3 21 25 23 3 21 4 0.57829987D-01 0.21650067D-01 0.26220343D+05 0.26220343D+05 0.26220343D+05 0.12210847D+01  1  2 15  3  6  5        3 0.427296481669D-04 0.100000000000D+01
0.982760217191D-05 0.000000000000D+00 0.000000000000D+00 0.298766742001D-06 0.000000000000D+00  6 3 21 25 23 3 21 4 0.57829987D-01 0.21650067D-01 0.26200549D+05 0.26200549D+05 0.26200549D+05 0.12211197D+01  1  2 12  3  6  5        3 0.636503130545D-02 0.100000000000D+01
-.367389080381D-04 0.000000000000D+00 0.000000000000D+00 0.298749631002D-06 0.000000000000D+00  6 3 21 25 23 3 21 4 0.57829987D-01 0.21650067D-01 0.26220343D+05 0.26220343D+05 0.26220343D+05 0.12210847D+01  1  2  4  3  6  5        3 -.237920466414D-01 0.100000000000D+01
-.110602370838D-04 0.000000000000D+00 0.000000000000D+00 0.298749631002D-06 0.000000000000D+00  6 3 21 25 23 3 21 4 0.57829987D-01 0.21650067D-01 0.26220343D+05 0.26220343D+05 0.26220343D+05 0.12210847D+01  1  2  5  3  6  5        3 -.716258840054D-02 0.100000000000D+01
0.135070636827D-04 0.000000000000D+00 -.000000000000D+00 0.298749631002D-06 0.000000000000D+00  6 3 21 25 23 3 21 4 0.57829987D-01 0.21650067D-01 0.26220343D+05 0.26220343D+05 0.26220343D+05 0.12210847D+01  1  2  6  3  6  5        3 0.874714863039D-02 0.100000000000D+01
0.214135412865D-05 0.000000000000D+00 0.000000000000D+00 0.298749631002D-06 0.955289191915D-07  6 3 21 25 23 3 21 4 0.57829987D-01 0.21650067D-01 0.26200549D+05 0.26200549D+05 0.26200549D+05 0.12211197D+01  1  2 11  3  6  5        3 0.138688825885D-02 0.100000000000D+01
  </mgrwgt>
  </event>
  <event>
  5     66 0.42756899E-03 0.27846651E+02 0.75467711E-02 0.11953043E+00
        1 -1    0    0  502    0 0.00000000E+00 0.00000000E+00 0.10768101E+04 0.10768102E+04 0.32000000E+00 0.0000E+00 0.9000E+01
       21 -1    0    0  501  502 0.00000000E+00 0.00000000E+00 -.53195274E+02 0.53200561E+02 0.75000000E+00 0.0000E+00 0.9000E+01
       25  1    1    2    0    0 -.19128574E+01 0.72767465E+02 0.23855329E+03 0.27898286E+03 0.12500000E+03 0.0000E+00 0.9000E+01
       23  1    1    2    0    0 0.75989866E+00 -.10059017E+03 0.80525983E+03 0.81662574E+03 0.91188000E+02 0.0000E+00 0.9000E+01
        1  1    1    2  501    0 0.11529587E+01 0.27822704E+02 -.20198288E+02 0.34402113E+02 0.32000000E+00 0.0000E+00 0.9000E+01
#aMCatNLO 1  0  0  5  2 0.19250565D+01 0.00000000D+00  -5  6  0 0.00000000D+00 0.00000000D+00 0.00000000D+00 0.00000000D+00 0.00000000D+00
  <mgrwgt>
 0.3070805422D-01    7    2    0
 0.239341225763098D+03 0.000000000000000D+00 0.000000000000000D+00 0.239341225763098D+03
 0.239341225763098D+03 -.000000000000000D+00 -.000000000000000D+00 -.239341225763098D+03
 0.148463584393082D+03 -.191285857546802D+01 0.727674363777004D+02 -.334316775817395D+02
 0.205814949518144D+03 0.759897022524267D+00 -.100590208484425D+03 0.154678940437059D+03
 0.124403917614970D+03 0.115296155294376D+01 0.278227721067244D+02 -.121247262855320D+03
 0.000000000000000D+00 0.000000000000000D+00 0.000000000000000D+00 0.000000000000000D+00
 0.239341225763098D+03 0.000000000000000D+00 0.000000000000000D+00 0.239341225763098D+03
 0.239341225763098D+03 -.000000000000000D+00 -.000000000000000D+00 -.239341225763098D+03
 0.148558246444804D+03 -.191019867522712D+01 0.728316239458290D+02 -.337113969035629D+02
 0.205480534518344D+03 0.763580270162952D+00 -.100501325937212D+03 0.154291604282208D+03
 0.122150762070594D+03 -.249545771379676D+00 0.260116992043173D+02 -.119348807726927D+03
 0.249290849245499D+01 0.139616417644384D+01 0.165800278706592D+01 -.123139965171781D+01
0.357414730106D-05 0.000000000000D+00 0.000000000000D+00 0.120136641435D-05 0.000000000000D+00  6 1 21 25 23 1 21 2 0.16566350D+00 0.81842986D-02 0.23757567D+05 0.23757567D+05 0.23757567D+05 0.12256783D+01  1  2  2  3  6  5        1 0.986793299491D-02 0.100000000000D+01
0.636794000408D-06 0.188612934925D-06 -.721517364336D-08 0.120136641435D-05 0.000000000000D+00  6 1 21 25 23 1 21 4 0.16566350D+00 0.81842986D-02 0.23757567D+05 0.23757567D+05 0.23757567D+05 0.12256783D+01  1  2  3  3  6  5        1 0.264122666069D-02 0.100000000000D+01
0.431893523373D-06 0.000000000000D+00 0.000000000000D+00 0.120136641435D-05 0.000000000000D+00  6 1 21 25 23 1 21 4 0.16566350D+00 0.81842986D-02 0.23757567D+05 0.23757567D+05 0.23757567D+05 0.12256783D+01  1  2 15  3  6  5        1 0.179136217957D-02 0.100000000000D+01
-.687892250512D-04 0.000000000000D+00 0.000000000000D+00 0.120136641435D-05 0.000000000000D+00  6 1 21 25 23 1 21 4 0.16566350D+00 0.81842986D-02 0.23757567D+05 0.23757567D+05 0.23757567D+05 0.12256783D+01  1  2  4  3  6  5        1 -.285316656654D+00 0.100000000000D+01
-.871774241501D-04 0.000000000000D+00 0.000000000000D+00 0.120136641435D-05 0.000000000000D+00  6 1 21 25 23 1 21 4 0.16566350D+00 0.81842986D-02 0.23757567D+05 0.23757567D+05 0.23757567D+05 0.12256783D+01  1  2  5  3  6  5        1 -.361585279899D+00 0.100000000000D+01
0.889418570680D-04 0.000000000000D+00 -.000000000000D+00 0.120136641435D-05 0.000000000000D+00  6 1 21 25 23 1 21 4 0.16566350D+00 0.81842986D-02 0.23757567D+05 0.23757567D+05 0.23757567D+05 0.12256783D+01  1  2  6  3  6  5        1 0.368903607742D+00 0.100000000000D+01
0.710039581898D-04 0.000000000000D+00 0.000000000000D+00 0.120136641435D-05 0.225471744108D-05  6 1 21 25 23 1 21 4 0.16566350D+00 0.81842986D-02 0.23803866D+05 0.23803866D+05 0.23803866D+05 0.12255871D+01  1  2 11  3  6  5        1 0.294405861196D+00 0.100000000000D+01
  </mgrwgt>
  </event>
  <event>
  6     66 0.42756899E-03 0.13239858E+03 0.75467711E-02 0.11522809E+00
        1 -1    0    0  502    0 0.00000000E+00 0.00000000E+00 0.18648595E+03 0.18648622E+03 0.32000000E+00 0.0000E+00 0.9000E+01
       21 -1    0    0  501  502 -.00000000E+00 -.00000000E+00 -.25780338E+03 0.25780447E+03 0.75000000E+00 0.0000E+00 0.9000E+01
       25  1    1    2    0    0 -.74251656E+00 -.64025094E+02 0.16431582E+02 0.14140283E+03 0.12500000E+03 0.0000E+00 0.9000E+01
       23  1    1    2    0    0 -.32051428E+02 -.67245350E+02 0.29958834E+02 0.12149903E+03 0.91188000E+02 0.0000E+00 0.9000E+01
        1  1    1    2  503    0 0.33796049E+02 0.12514073E+03 -.10353809E+03 0.16589941E+03 0.32000000E+00 0.0000E+00 0.9000E+01
       21  1    1    2  501  503 -.10021047E+01 0.61297125E+01 -.14169759E+02 0.15489420E+02 0.75000000E+00 0.0000E+00 0.9000E+01
#aMCatNLO 2  0  0  5  2 0.71785071D+01 0.00000000D+00  -5  6  0 0.00000000D+00 0.00000000D+00 0.00000000D+00 0.00000000D+00 0.00000000D+00
  <mgrwgt>
 0.1679812720D-01    3    2    0
 0.219264705175751D+03 0.000000000000000D+00 0.000000000000000D+00 0.219264705175751D+03
 0.219264705175751D+03 -.000000000000000D+00 -.000000000000000D+00 -.219264705175751D+03
 0.146316399863842D+03 -.895087886026326D+00 -.646358200002467D+02 0.400611839526466D+02
 0.128426848691442D+03 -.321852808861070D+02 -.677811478071583D+02 0.504779933935677D+02
 0.163786161796218D+03 0.330803687721333D+02 0.132416967807405D+03 -.905391773462143D+02
 0.000000000000000D+00 0.000000000000000D+00 0.000000000000000D+00 -.000000000000000D+00
 0.219264705175751D+03 0.000000000000000D+00 0.000000000000000D+00 0.219264705175751D+03
 0.219264705175751D+03 -.000000000000000D+00 -.000000000000000D+00 -.219264705175751D+03
 0.145931987541476D+03 -.742195903133167D+00 -.640238107171511D+02 0.396427268777170D+02
 0.127966452174127D+03 -.320511467664360D+02 -.672442241250589D+02 0.501108755741529D+02
 0.151287686006512D+03 0.338199091958682D+02 0.125191168990366D+03 -.779188609132208D+02
 0.133432846293874D+02 -.102656652629900D+01 0.607686585184351D+01 -.118347415386491D+02
-.355049992588D-05 0.000000000000D+00 0.000000000000D+00 0.310134162778D-06 0.000000000000D+00  6 1 21 25 23 1 21 4 0.28690251D-01 0.39662164D-01 0.38815495D+05 0.38815495D+05 0.38815495D+05 0.12033282D+01  1  2 13  3  6  5        1 -.791647966735D-02 0.100000000000D+01
-.457538653276D-05 0.000000000000D+00 0.000000000000D+00 0.309987483889D-06 0.000000000000D+00  6 1 21 25 23 1 21 4 0.28690251D-01 0.39662164D-01 0.39066014D+05 0.39066014D+05 0.39066014D+05 0.12030436D+01  1  2  8  3  6  5        1 -.101907182699D-01 0.100000000000D+01
0.156548566446D-04 0.000000000000D+00 0.000000000000D+00 0.309987483889D-06 0.236454283437D-06  6 1 21 25 23 1 21 4 0.28690251D-01 0.39662164D-01 0.38815495D+05 0.38815495D+05 0.38815495D+05 0.12033282D+01  1  2  1  3  6  5        1 0.349053251399D-01 0.100000000000D+01
  </mgrwgt>
  </event>
  <event>
  5     66 -.42756899E-03 0.53115296E+02 0.75467711E-02 0.11633896E+00
        1 -1    0    0  502    0 0.00000000E+00 0.00000000E+00 0.57702945E+03 0.57702954E+03 0.32000000E+00 0.0000E+00 0.9000E+01
       21 -1    0    0  501  502 0.00000000E+00 0.00000000E+00 -.17596370E+03 0.17596530E+03 0.75000000E+00 0.0000E+00 0.9000E+01
       25  1    1    2    0    0 -.11571063E+03 0.81714491E+02 0.19879242E+03 0.27424375E+03 0.12500000E+03 0.0000E+00 0.9000E+01
       23  1    1    2    0    0 0.74501960E+02 -.48202157E+02 0.32283681E+03 0.34700555E+03 0.91188000E+02 0.0000E+00 0.9000E+01
        1  1    1    2  501    0 0.41208673E+02 -.33512334E+02 -.12056348E+03 0.13174554E+03 0.32000000E+00 0.0000E+00 0.9000E+01
#aMCatNLO 1  0  0  2  5 0.17848353D+02 0.00000000D+00  -5  6  0 0.00000000D+00 0.00000000D+00 0.00000000D+00 0.00000000D+00 0.00000000D+00
  <mgrwgt>
 -.1441146801D-02    1    2    0
 0.318648507804979D+03 0.000000000000000D+00 0.000000000000000D+00 0.318648507804979D+03
 0.318648507804979D+03 0.000000000000000D+00 0.000000000000000D+00 -.318648507804979D+03
 0.198926582063820D+03 -.115710644707690D+03 0.817145014137390D+02 0.622942373870041D+02
 0.206833899383865D+03 0.745019469900443D+02 -.482021468797121D+02 0.163067542819576D+03
 0.231536534162273D+03 0.412086977176462D+02 -.335123545340269D+02 -.225361780206580D+03
 0.000000000000000D+00 0.000000000000000D+00 0.000000000000000D+00 0.000000000000000D+00
 0.230581112134361D+04 0.000000000000000D+00 0.000000000000000D+00 0.230581112134361D+04
 0.224196908156340D+04 0.000000000000000D+00 0.000000000000000D+00 -.224196908156340D+04
 0.971234387727219D+03 -.916947498744941D+03 -.288093645257292D+03 0.622942373870041D+02
 0.586409887298557D+03 -.468650809369209D+03 -.298892455464967D+03 0.163067542819576D+03
 0.760451093846438D+03 -.638028660926702D+03 -.347012048768404D+03 -.225361780206580D+03
 0.222968483403479D+04 0.202362696904085D+04 0.933998149490664D+03 0.638420397802043D+02
-.125604108628D-05 0.000000000000D+00 0.000000000000D+00 0.127461217978D-05 0.000000000000D+00  6 1 21 25 23 1 21 4 0.88773891D-01 0.27071468D-01 0.34090714D+05 0.34090714D+05 0.34090714D+05 0.12091147D+01  1  2 14  2  6  2       21 -.144114680139D-02 0.100000000000D+01
  </mgrwgt>
  </event>
</LesHouchesEvents>
