<LesHouchesEvents version="3.0">
  <!--
  <scalesfunctionalform>
    muR  H_T/2 := sum_i mT(i)/2, i=final state
    muF1 H_T/2 := sum_i mT(i)/2, i=final state
    muF2 H_T/2 := sum_i mT(i)/2, i=final state
    QES  H_T/2 := sum_i mT(i)/2, i=final state
  </scalesfunctionalform>
HERWIG6   
  -->
  <header>
       98
  </header>
  <init>
   2212   2212 0.65000000D+04 0.65000000D+04 -1 -1   247000   247000 -3   1
 0.18744090D-01 0.29564099D-03 0.42050411D-03     66
  </init>
  <event>
  6     66 0.42050411E-03 0.31190093E+02 0.75467711E-02 0.11859008E+00
       21 -1    0    0  503  502 0.00000000E+00 0.00000000E+00 0.37144237E+03 0.37144312E+03 0.75000000E+00 0.0000E+00 0.9000E+01
        3 -1    0    0  502    0 0.00000000E+00 0.00000000E+00 -.21502718E+03 0.21502776E+03 0.50000000E+00 0.0000E+00 0.9000E+01
       25  1    1    2    0    0 -.11002018E+02 0.38103350E+02 -.79826607E+02 0.15352588E+03 0.12500000E+03 0.0000E+00 0.9000E+01
      -24  1    1    2    0    0 -.25339098E+02 0.40257984E+02 -.11213778E+02 0.94104941E+02 0.80419002E+02 0.0000E+00 0.9000E+01
        4  1    1    2  501    0 0.39295078E+02 -.24174547E+02 -.30700620E+02 0.55438637E+02 0.15500000E+01 0.0000E+00 0.9000E+01
       21  1    1    2  503  501 -.29539618E+01 -.54186787E+02 0.27815620E+03 0.28340142E+03 0.75000000E+00 0.0000E+00 0.9000E+01
#aMCatNLO 2  0  0  1  1 0.54267244D+02 0.00000000D+00  -5  6  0 0.00000000D+00 0.00000000D+00 0.00000000D+00 0.00000000D+00 0.00000000D+00
  <mgrwgt>
 0.1512920279D-01    1    2    0
 0.136093067672225D+03 0.000000000000000D+00 0.000000000000000D+00 0.136093067672225D+03
 0.136093067672225D+03 0.000000000000000D+00 0.000000000000000D+00 -.136093067672225D+03
 0.127776356470619D+03 -.124092775587634D+02 0.124421133300713D+02 -.198242507867974D+02
 0.920305602885941D+02 -.263650945826498D+02 0.215476905316286D+02 0.290342365675958D+02
 0.523792185852379D+02 0.387743721414132D+02 -.339898038616998D+02 -.920998578079848D+01
 0.000000000000000D+00 -.000000000000000D+00 -.000000000000000D+00 0.000000000000000D+00
 0.568533222096006D+03 0.000000000000000D+00 0.000000000000000D+00 0.568533222096006D+03
 0.140484718811446D+03 0.000000000000000D+00 0.000000000000000D+00 -.140484718811446D+03
 0.132633500959260D+03 -.110099693196849D+02 0.381106970945419D+02 -.198242507867974D+02
 0.978454486243070D+02 -.253447988599862D+02 0.402637571496388D+02 0.290342365675958D+02
 0.470642470910640D+02 0.393087300271581D+02 -.241876675150420D+02 -.920998578079848D+01
 0.431474744232820D+03 -.295396184748703D+01 -.541867867291387D+02 0.428048503284560D+03
0.536260814064D-04 0.000000000000D+00 0.000000000000D+00 0.377034235996D-06 0.170424614096D-07  6 21 3 25 -24 4 21 4 0.57144952D-01 0.33081131D-01 0.26406836D+05 0.26406836D+05 0.26406836D+05 0.12207567D+01  1  2  1  1  6  1       21 0.151292027880D-01 0.100000000000D+01
  </mgrwgt>
  </event>
  <event>
  5     66 0.42050411E-03 0.35952368E+02 0.75467711E-02 0.12121923E+00
       21 -1    0    0  501  502 0.00000000E+00 0.00000000E+00 0.77550988E+02 0.77554614E+02 0.75000000E+00 0.0000E+00 0.9000E+01
        1 -1    0    0  502    0 0.00000000E+00 0.00000000E+00 -.83761487E+03 0.83761493E+03 0.32000000E+00 0.0000E+00 0.9000E+01
       25  1    1    2    0    0 -.62974293E+02 0.28494940E+02 -.52297323E+03 0.54212888E+03 0.12500000E+03 0.0000E+00 0.9000E+01
      -24  1    1    2    0    0 0.63557146E+02 0.74526737E+01 -.29078963E+03 0.30841672E+03 0.80419002E+02 0.0000E+00 0.9000E+01
        2  1    1    2  501    0 -.58285329E+00 -.35947613E+02 0.53698978E+02 0.64623937E+02 0.32000000E+00 0.0000E+00 0.9000E+01
#aMCatNLO 1  0  0  1  2 0.18786249D+00 0.00000000D+00  -5  6  0 0.00000000D+00 0.00000000D+00 0.00000000D+00 0.00000000D+00 0.00000000D+00
  <mgrwgt>
 0.1187709872D+00   23    2    0
 0.254871629757000D+03 0.000000000000000D+00 0.000000000000000D+00 0.254871629757000D+03
 0.254871629757000D+03 0.000000000000000D+00 0.000000000000000D+00 -.254871629757000D+03
 0.193522543031325D+03 -.629742929085802D+02 0.284949578885691D+02 -.130568949099333D+03
 0.120128940284999D+03 0.635571466761218D+02 0.745268499283488D+01 -.621988177734414D+02
 0.196091776197676D+03 -.582853767541532D+00 -.359476428814040D+02 0.192767766872774D+03
 0.000000000000000D+00 -.000000000000000D+00 -.000000000000000D+00 0.000000000000000D+00
 0.255297041595137D+03 0.000000000000000D+00 0.000000000000000D+00 0.255297041595137D+03
 0.254892387997847D+03 0.000000000000000D+00 0.000000000000000D+00 -.254892387997847D+03
 0.193529702327510D+03 -.629642995694469D+02 0.285655770780068D+02 -.130568949099333D+03
 0.120134949962371D+03 0.635633500726025D+02 0.749652207525430D+01 -.621988177734414D+02
 0.196078641841855D+03 -.572728281815701D+00 -.358760898614294D+02 0.192767766872774D+03
 0.446135461248517D+00 -.263222213399465D-01 -.186009291831743D+00 0.404653597289597D+00
0.293654029045D-05 0.000000000000D+00 0.000000000000D+00 0.682304621423D-05 0.000000000000D+00  6 21 1 25 -24 2 21 2 0.11931205D-01 0.12886411D+00 0.19819483D+05 0.19819483D+05 0.19819483D+05 0.12342598D+01  1  2  2  1  6  1       21 0.643781197533D-02 0.100000000000D+01
0.552383038168D-06 0.154965488564D-06 -.592802879166D-08 0.682304621423D-05 0.000000000000D+00  6 21 1 25 -24 2 21 4 0.11931205D-01 0.12886411D+00 0.19819483D+05 0.19819483D+05 0.19819483D+05 0.12342598D+01  1  2  3  1  6  1       21 0.184482771981D-02 0.100000000000D+01
0.316957297538D-06 0.000000000000D+00 0.000000000000D+00 0.682304621423D-05 0.000000000000D+00  6 21 1 25 -24 2 21 4 0.11931205D-01 0.12886411D+00 0.19819483D+05 0.19819483D+05 0.19819483D+05 0.12342598D+01  1  2 15  1  6  1       21 0.105856184584D-02 0.100000000000D+01
-.418714915876D-03 0.000000000000D+00 0.000000000000D+00 0.682304621423D-05 0.000000000000D+00  6 21 1 25 -24 2 21 4 0.11931205D-01 0.12886411D+00 0.19819483D+05 0.19819483D+05 0.19819483D+05 0.12342598D+01  1  2  4  1  6  1       21 -.139840804321D+01 0.100000000000D+01
-.114009324369D-01 0.000000000000D+00 -.528453294346D-03 0.682304621423D-05 0.000000000000D+00  6 21 1 25 -24 2 21 4 0.11951900D-01 0.12886411D+00 0.19819483D+05 0.19819483D+05 0.19819483D+05 0.12342598D+01  1  2  5  1  6  1       21 -.379594605402D+02 0.100000000000D+01
0.114017889124D-01 0.000000000000D+00 0.528450119900D-03 0.682304621423D-05 0.000000000000D+00  6 21 1 25 -24 2 21 4 0.11931205D-01 0.12886411D+00 0.19819483D+05 0.19819483D+05 0.19819483D+05 0.12342598D+01  1  2  6  1  6  1       21 0.380792580287D+02 0.100000000000D+01
0.417944740157D-03 0.000000000000D+00 0.000000000000D+00 0.682304621423D-05 0.209099645657D-02  6 21 1 25 -24 2 21 4 0.11951120D-01 0.12887460D+00 0.19838195D+05 0.19838195D+05 0.19838195D+05 0.12342146D+01  1  2 11  1  6  1       21 0.139131111145D+01 0.100000000000D+01
-.419483052730D-05 0.000000000000D+00 -.204050847983D-06 0.682304621423D-05 0.000000000000D+00  6 -1 1 25 -24 2 -1 4 0.11951900D-01 0.12886411D+00 0.19819483D+05 0.19819483D+05 0.19819483D+05 0.12342598D+01  1  2  5  4  6  1       21 -.965524989064D-03 0.100000000000D+01
0.219286128996D-05 0.000000000000D+00 0.000000000000D+00 0.682304621423D-05 0.130190002270D-05  6 -1 1 25 -24 2 -1 4 0.11951120D-01 0.12887460D+00 0.19838195D+05 0.19838195D+05 0.19838195D+05 0.12342146D+01  1  2 11  4  6  1       21 0.504645273138D-03 0.100000000000D+01
-.419483052730D-05 0.000000000000D+00 -.204050847983D-06 0.682304621423D-05 0.000000000000D+00  6 1 1 25 -24 2 1 4 0.11951900D-01 0.12886411D+00 0.19819483D+05 0.19819483D+05 0.19819483D+05 0.12342598D+01  1  2  5  5  6  1       21 -.125731453801D-02 0.100000000000D+01
0.214478142339D-05 0.000000000000D+00 0.000000000000D+00 0.682304621423D-05 0.128709664800D-05  6 1 1 25 -24 2 1 4 0.11951120D-01 0.12887460D+00 0.19838195D+05 0.19838195D+05 0.19838195D+05 0.12342146D+01  1  2 11  5  6  1       21 0.642734184930D-03 0.100000000000D+01
-.419483052730D-05 0.000000000000D+00 -.204050847983D-06 0.682304621423D-05 0.000000000000D+00  6 -2 1 25 -24 2 -2 4 0.11951900D-01 0.12886411D+00 0.19819483D+05 0.19819483D+05 0.19819483D+05 0.12342598D+01  1  2  5  6  6  1       21 -.914980803355D-03 0.100000000000D+01
0.236130604260D-05 0.000000000000D+00 0.000000000000D+00 0.682304621423D-05 0.117966261195D-04  6 -2 1 25 -24 2 -2 4 0.11951120D-01 0.12887460D+00 0.19838195D+05 0.19838195D+05 0.19838195D+05 0.12342146D+01  1  2 11  6  6  1       21 0.514964827928D-03 0.100000000000D+01
-.419483052730D-05 0.000000000000D+00 -.204050847983D-06 0.682304621423D-05 0.000000000000D+00  6 2 1 25 -24 2 2 4 0.11951900D-01 0.12886411D+00 0.19819483D+05 0.19819483D+05 0.19819483D+05 0.12342598D+01  1  2  5  7  6  1       21 -.145595975870D-02 0.100000000000D+01
0.221107821337D-05 0.000000000000D+00 0.000000000000D+00 0.682304621423D-05 0.657278176734D-06  6 2 1 25 -24 2 2 4 0.11951120D-01 0.12887460D+00 0.19838195D+05 0.19838195D+05 0.19838195D+05 0.12342146D+01  1  2 11  7  6  1       21 0.767281836020D-03 0.100000000000D+01
-.419483052730D-05 0.000000000000D+00 -.204050847983D-06 0.682304621423D-05 0.000000000000D+00  6 -3 1 25 -24 2 -3 4 0.11951900D-01 0.12886411D+00 0.19819483D+05 0.19819483D+05 0.19819483D+05 0.12342598D+01  1  2  5  8  6  1       21 -.620492265853D-03 0.100000000000D+01
-.419483052730D-05 0.000000000000D+00 -.204050847983D-06 0.682304621423D-05 0.000000000000D+00  6 -4 1 25 -24 2 -4 4 0.11951900D-01 0.12886411D+00 0.19819483D+05 0.19819483D+05 0.19819483D+05 0.12342598D+01  1  2  5  8  6  1       21 -.538761009063D-03 0.100000000000D+01
0.219287424833D-05 0.000000000000D+00 0.000000000000D+00 0.682304621423D-05 0.130190771607D-05  6 -3 1 25 -24 2 -3 4 0.11951120D-01 0.12887460D+00 0.19838195D+05 0.19838195D+05 0.19838195D+05 0.12342146D+01  1  2 11  8  6  1       21 0.324320944267D-03 0.100000000000D+01
0.219287424833D-05 0.000000000000D+00 0.000000000000D+00 0.682304621423D-05 0.130190771607D-05  6 -4 1 25 -24 2 -4 4 0.11951120D-01 0.12887460D+00 0.19838195D+05 0.19838195D+05 0.19838195D+05 0.12342146D+01  1  2 11  8  6  1       21 0.281604812749D-03 0.100000000000D+01
-.419483052730D-05 0.000000000000D+00 -.204050847983D-06 0.682304621423D-05 0.000000000000D+00  6 3 1 25 -24 2 3 4 0.11951900D-01 0.12886411D+00 0.19819483D+05 0.19819483D+05 0.19819483D+05 0.12342598D+01  1  2  5  9  6  1       21 -.620412729890D-03 0.100000000000D+01
-.419483052730D-05 0.000000000000D+00 -.204050847983D-06 0.682304621423D-05 0.000000000000D+00  6 4 1 25 -24 2 4 4 0.11951900D-01 0.12886411D+00 0.19819483D+05 0.19819483D+05 0.19819483D+05 0.12342598D+01  1  2  5  9  6  1       21 -.538761009063D-03 0.100000000000D+01
0.219287424833D-05 0.000000000000D+00 0.000000000000D+00 0.682304621423D-05 0.130190771607D-05  6 3 1 25 -24 2 3 4 0.11951120D-01 0.12887460D+00 0.19838195D+05 0.19838195D+05 0.19838195D+05 0.12342146D+01  1  2 11  9  6  1       21 0.324279376161D-03 0.100000000000D+01
0.219287424833D-05 0.000000000000D+00 0.000000000000D+00 0.682304621423D-05 0.130190771607D-05  6 4 1 25 -24 2 4 4 0.11951120D-01 0.12887460D+00 0.19838195D+05 0.19838195D+05 0.19838195D+05 0.12342146D+01  1  2 11  9  6  1       21 0.281604812749D-03 0.100000000000D+01
  </mgrwgt>
  </event>
  <event>
  5     66 0.42050411E-03 0.39823903E+02 0.75467711E-02 0.88909109E-01
       21 -1    0    0  501  502 0.00000000E+00 0.00000000E+00 0.12866129E+04 0.12866131E+04 0.75000000E+00 0.0000E+00 0.9000E+01
        1 -1    0    0  502    0 0.00000000E+00 0.00000000E+00 -.77835810E+03 0.77835817E+03 0.32000000E+00 0.0000E+00 0.9000E+01
       25  1    1    2    0    0 -.21586076E+03 0.81283872E+02 -.41000232E+03 0.48675439E+03 0.12500000E+03 0.0000E+00 0.9000E+01
      -24  1    1    2    0    0 0.17645156E+03 -.75551660E+02 -.29680826E+03 0.36249905E+03 0.80419002E+02 0.0000E+00 0.9000E+01
        2  1    1    2  501    0 0.39409199E+02 -.57322120E+01 0.12150654E+04 0.12157179E+04 0.32000000E+00 0.0000E+00 0.9000E+01
#aMCatNLO 1  0  0  1  2 0.18786249D+00 0.00000000D+00  -5  6  0 0.00000000D+00 0.00000000D+00 0.00000000D+00 0.00000000D+00 0.00000000D+00
  <mgrwgt>
 0.9034014325D+00   12    2    0
 0.100072267674585D+04 0.000000000000000D+00 0.000000000000000D+00 0.100072267674585D+04
 0.100072267674585D+04 0.000000000000000D+00 0.000000000000000D+00 -.100072267674585D+04
 0.606321581707973D+03 -.215860755883243D+03 0.812838716212332D+02 -.546624118319560D+03
 0.449377433081482D+03 0.176451556190802D+03 -.755516594588845D+02 -.398283387149633D+03
 0.945746338702236D+03 0.394091996924405D+02 -.573221216234869D+01 0.944907505469193D+03
 0.000000000000000D+00 0.000000000000000D+00 0.000000000000000D+00 0.000000000000000D+00
 0.221744899598092D+04 0.000000000000000D+00 0.000000000000000D+00 0.221744899598092D+04
 0.173952572160688D+04 0.000000000000000D+00 0.000000000000000D+00 -.173952572160688D+04
 0.731359295896730D+03 -.335205535522489D+03 -.328786772728172D+03 -.546624118319560D+03
 0.567910510593149D+03 0.856914896457025D+02 -.387404755018207D+03 -.398283387149633D+03
 0.115652321084609D+04 -.148150404644882D+03 -.650190126760845D+03 0.944907505469193D+03
 0.150118170025184D+04 0.397664450521668D+03 0.136638165450722D+04 0.477923274374033D+03
0.865545108327D-01 0.000000000000D+00 0.000000000000D+00 0.278857577448D-04 0.000000000000D+00  6 21 1 25 -24 2 21 2 0.19794047D+00 0.11974742D+00 0.65098013D+05 0.65098013D+05 0.65098013D+05 0.11810965D+01  1  2  2  1  6  1       21 0.422124833572D+00 0.100000000000D+01
0.446035634811D-01 0.456760702456D-02 -.174728619911D-03 0.278857577448D-04 0.000000000000D+00  6 21 1 25 -24 2 21 4 0.19794047D+00 0.11974742D+00 0.65098013D+05 0.65098013D+05 0.65098013D+05 0.11810965D+01  1  2  3  1  6  1       21 0.303453059151D+00 0.100000000000D+01
0.923182096589D-02 0.000000000000D+00 0.000000000000D+00 0.278857577448D-04 0.000000000000D+00  6 21 1 25 -24 2 21 4 0.19794047D+00 0.11974742D+00 0.65098013D+05 0.65098013D+05 0.65098013D+05 0.11810965D+01  1  2 15  1  6  1       21 0.628071861304D-01 0.100000000000D+01
0.318862248641D+00 0.000000000000D+00 -.149011388951D+00 0.278857577448D-04 0.000000000000D+00  6 21 1 25 -24 2 21 4 0.53435863D+00 0.11974742D+00 0.65098013D+05 0.65098013D+05 0.65098013D+05 0.11810965D+01  1  2  5  1  6  1       21 0.159154885534D-01 0.100000000000D+01
0.109212085448D+00 0.000000000000D+00 -.495107798590D-01 0.278857577448D-04 0.000000000000D+00  6 -1 1 25 -24 2 -1 4 0.53435863D+00 0.11974742D+00 0.65098013D+05 0.65098013D+05 0.65098013D+05 0.11810965D+01  1  2  5  4  6  1       21 0.584405398817D-03 0.100000000000D+01
0.109212085448D+00 0.000000000000D+00 -.495107798590D-01 0.278857577448D-04 0.000000000000D+00  6 1 1 25 -24 2 1 4 0.53435863D+00 0.11974742D+00 0.65098013D+05 0.65098013D+05 0.65098013D+05 0.11810965D+01  1  2  5  5  6  1       21 0.206142932023D-01 0.100000000000D+01
0.109212085448D+00 0.000000000000D+00 -.495107798590D-01 0.278857577448D-04 0.000000000000D+00  6 -2 1 25 -24 2 -2 4 0.53435863D+00 0.11974742D+00 0.65098013D+05 0.65098013D+05 0.65098013D+05 0.11810965D+01  1  2  5  6  6  1       21 0.572037056440D-03 0.100000000000D+01
0.109212085448D+00 0.000000000000D+00 -.495107798590D-01 0.278857577448D-04 0.000000000000D+00  6 2 1 25 -24 2 2 4 0.53435863D+00 0.11974742D+00 0.65098013D+05 0.65098013D+05 0.65098013D+05 0.11810965D+01  1  2  5  7  6  1       21 0.754015992873D-01 0.100000000000D+01
0.109212085448D+00 0.000000000000D+00 -.495107798590D-01 0.278857577448D-04 0.000000000000D+00  6 -3 1 25 -24 2 -3 4 0.53435863D+00 0.11974742D+00 0.65098013D+05 0.65098013D+05 0.65098013D+05 0.11810965D+01  1  2  5  8  6  1       21 0.707348842284D-03 0.100000000000D+01
0.109212085448D+00 0.000000000000D+00 -.495107798590D-01 0.278857577448D-04 0.000000000000D+00  6 -4 1 25 -24 2 -4 4 0.53435863D+00 0.11974742D+00 0.65098013D+05 0.65098013D+05 0.65098013D+05 0.11810965D+01  1  2  5  8  6  1       21 0.202554363557D-03 0.100000000000D+01
0.109212085448D+00 0.000000000000D+00 -.495107798590D-01 0.278857577448D-04 0.000000000000D+00  6 3 1 25 -24 2 3 4 0.53435863D+00 0.11974742D+00 0.65098013D+05 0.65098013D+05 0.65098013D+05 0.11810965D+01  1  2  5  9  6  1       21 0.816072571137D-03 0.100000000000D+01
0.109212085448D+00 0.000000000000D+00 -.495107798590D-01 0.278857577448D-04 0.000000000000D+00  6 4 1 25 -24 2 4 4 0.53435863D+00 0.11974742D+00 0.65098013D+05 0.65098013D+05 0.65098013D+05 0.11810965D+01  1  2  5  9  6  1       21 0.202554363557D-03 0.100000000000D+01
  </mgrwgt>
  </event>
  <event>
  6     66 0.42050411E-03 0.80187216E+02 0.75467711E-02 0.11822201E+00
       21 -1    0    0  501  502 0.00000000E+00 0.00000000E+00 0.74902562E+02 0.74906317E+02 0.75000000E+00 0.0000E+00 0.9000E+01
        1 -1    0    0  502    0 -.00000000E+00 -.00000000E+00 -.42791260E+03 0.42791272E+03 0.32000000E+00 0.0000E+00 0.9000E+01
       25  1    1    2    0    0 0.11705669E+02 0.76862894E+00 -.48281973E+02 0.13451306E+03 0.12500000E+03 0.0000E+00 0.9000E+01
      -24  1    1    2    0    0 0.19479873E+02 -.82869247E+02 -.17718212E+03 0.21238526E+03 0.80419002E+02 0.0000E+00 0.9000E+01
        2  1    1    2  503    0 -.61400170E+01 0.36891782E+02 -.62535755E+02 0.72866498E+02 0.32000000E+00 0.0000E+00 0.9000E+01
       21  1    1    2  501  503 -.25045525E+02 0.45208837E+02 -.65010187E+02 0.83054224E+02 0.75000000E+00 0.0000E+00 0.9000E+01
#aMCatNLO 2  0  0  5  1 0.89539208D+01 0.00000000D+00  -5  6  0 0.00000000D+00 0.00000000D+00 0.00000000D+00 0.00000000D+00 0.00000000D+00
  <mgrwgt>
 0.1282320108D-01    2    2    0
 0.179032746509879D+03 0.000000000000000D+00 0.000000000000000D+00 0.179032746509879D+03
 0.179032746509879D+03 -.000000000000000D+00 -.000000000000000D+00 -.179032746509879D+03
 0.141400220417936D+03 0.119471406184213D+02 0.132917824054303D+00 0.650097723279871D+02
 0.123917486100544D+03 0.196912693042247D+02 -.834257795696864D+02 -.392520142602451D+02
 0.927477865012783D+02 -.316384099226461D+02 0.832928617456321D+02 -.257577580677419D+02
 0.000000000000000D+00 -.000000000000000D+00 0.000000000000000D+00 0.000000000000000D+00
 0.179032746509879D+03 0.000000000000000D+00 0.000000000000000D+00 0.179032746509879D+03
 0.179032746509879D+03 -.000000000000000D+00 -.000000000000000D+00 -.179032746509879D+03
 0.141292863543005D+03 0.117081593973444D+02 0.762071749793023D+00 0.648152107020937D+02
 0.123568402733257D+03 0.194820513103350D+02 -.828749818057544D+02 -.394223447693702D+02
 0.403158763636592D+02 -.605116201286701D+01 0.365682434443959D+02 -.158592842415819D+02
 0.528883503798376D+02 -.251390486948124D+02 0.455446666115655D+02 -.953358169114159D+01
-.442233589170D-05 0.000000000000D+00 0.000000000000D+00 0.171901799450D-06 0.000000000000D+00  6 21 1 25 -24 2 21 4 0.11523769D-01 0.65833006D-01 0.27514208D+05 0.27514208D+05 0.27514208D+05 0.12188608D+01  1  2 13  3  6  5        2 -.376698113739D-01 0.100000000000D+01
0.592774567041D-05 0.000000000000D+00 0.000000000000D+00 0.171866022706D-06 0.590955841078D-08  6 21 1 25 -24 2 21 4 0.11523769D-01 0.65833006D-01 0.27514208D+05 0.27514208D+05 0.27514208D+05 0.12188608D+01  1  2  1  3  6  5        2 0.504930124589D-01 0.100000000000D+01
  </mgrwgt>
  </event>
  <event>
  6     66 0.42050411E-03 0.55810994E+02 0.75467711E-02 0.12065607E+00
       21 -1    0    0  501  502 0.00000000E+00 0.00000000E+00 0.19095642E+03 0.19095790E+03 0.75000000E+00 0.0000E+00 0.9000E+01
        1 -1    0    0  502    0 -.00000000E+00 -.00000000E+00 -.19173519E+03 0.19173546E+03 0.32000000E+00 0.0000E+00 0.9000E+01
       25  1    1    2    0    0 0.32901032E+02 0.84858078E+01 -.11850878E+03 0.17556713E+03 0.12500000E+03 0.0000E+00 0.9000E+01
      -24  1    1    2    0    0 -.19689093E+01 0.48864724E+02 0.46718895E+02 0.10507858E+03 0.80419002E+02 0.0000E+00 0.9000E+01
        2  1    1    2  503    0 -.24500483E+02 -.54236625E+02 0.43775396E+02 0.73880125E+02 0.32000000E+00 0.0000E+00 0.9000E+01
       21  1    1    2  501  503 -.64316396E+01 -.31139075E+01 0.27235717E+02 0.28167520E+02 0.75000000E+00 0.0000E+00 0.9000E+01
#aMCatNLO 2  0  0  5  1 0.14833155D+02 0.00000000D+00  -5  6  0 0.00000000D+00 0.00000000D+00 0.00000000D+00 0.00000000D+00 0.00000000D+00
  <mgrwgt>
 0.4067031525D-01    2    2    0
 0.191346283515264D+03 0.000000000000000D+00 0.000000000000000D+00 0.191346283515264D+03
 0.191346283515264D+03 -.000000000000000D+00 -.000000000000000D+00 -.191346283515264D+03
 0.176877651938211D+03 0.337422241641794D+02 0.100454424236202D+02 -.120088530468746D+03
 0.105092746288909D+03 -.146671561600369D+01 0.497958298863856D+02 0.457765599341232D+02
 0.100722168803409D+03 -.322755085481757D+02 -.598412723100058D+02 0.743119705346233D+02
 0.000000000000000D+00 0.000000000000000D+00 0.000000000000000D+00 0.000000000000000D+00
 0.191346283515264D+03 0.000000000000000D+00 0.000000000000000D+00 0.191346283515264D+03
 0.191346283515264D+03 -.000000000000000D+00 -.000000000000000D+00 -.191346283515264D+03
 0.175320653726637D+03 0.328979278710042D+02 0.848005223573802D+01 -.118144600718816D+03
 0.105174218181726D+03 -.197077147267407D+01 0.488612716056557D+02 0.469371112516271D+02
 0.737698787822581D+02 -.244371123431820D+02 -.541662588413258D+02 0.437131440073835D+02
 0.284278163399083D+02 -.649004405514817D+01 -.317506500006795D+01 0.274943454598057D+02
-.389648114913D-05 0.000000000000D+00 0.000000000000D+00 0.372875272890D-06 0.000000000000D+00  6 21 1 25 -24 2 21 4 0.29378045D-01 0.29497856D-01 0.21068933D+05 0.21068933D+05 0.21068933D+05 0.12313443D+01  1  2 13  3  6  5        2 -.167475617874D-01 0.100000000000D+01
0.133588207252D-04 0.000000000000D+00 0.000000000000D+00 0.372451124941D-06 0.143570103131D-06  6 21 1 25 -24 2 21 4 0.29378045D-01 0.29497856D-01 0.21068933D+05 0.21068933D+05 0.21068933D+05 0.12313443D+01  1  2  1  3  6  5        2 0.574178770381D-01 0.100000000000D+01
  </mgrwgt>
  </event>
  <event>
  5     66 -.42050411E-03 0.47141745E+02 0.75467711E-02 0.12267336E+00
       21 -1    0    0  501  502 0.00000000E+00 0.00000000E+00 0.25554591E+02 0.25565594E+02 0.75000000E+00 0.0000E+00 0.9000E+01
        1 -1    0    0  502    0 0.00000000E+00 0.00000000E+00 -.14809943E+04 0.14809944E+04 0.32000000E+00 0.0000E+00 0.9000E+01
       25  1    1    2    0    0 -.48129811E+01 -.92709929E+01 -.82975217E+03 0.83917983E+03 0.12500000E+03 0.0000E+00 0.9000E+01
      -24  1    1    2    0    0 -.18172290E+02 -.31887152E+02 -.78670672E+02 0.11833560E+03 0.80419002E+02 0.0000E+00 0.9000E+01
        2  1    1    2  501    0 0.22985271E+02 0.41158145E+02 -.54701690E+03 0.54904454E+03 0.32000000E+00 0.0000E+00 0.9000E+01
#aMCatNLO 1  0  0  2  1 0.44970230D+01 0.00000000D+00  -5  6  0 0.00000000D+00 0.00000000D+00 0.00000000D+00 0.00000000D+00 0.00000000D+00
  <mgrwgt>
 -.1077373818D-02    1    2    0
 0.194562376948492D+03 0.000000000000000D+00 0.000000000000000D+00 0.194562376948492D+03
 0.194562376948492D+03 0.000000000000000D+00 0.000000000000000D+00 -.194562376948492D+03
 0.145507081001062D+03 -.481305031540597D+01 -.927111691789856D+01 -.737440950802542D+02
 0.163904589886343D+03 -.181723676115858D+02 -.318872921763564D+02 0.138023419333419D+03
 0.797130830095790D+02 0.229854179269918D+02 0.411584090942549D+02 -.642793242531649D+02
 0.000000000000000D+00 -.000000000000000D+00 0.000000000000000D+00 0.000000000000000D+00
 0.195341188133919D+03 0.000000000000000D+00 0.000000000000000D+00 0.195341188133919D+03
 0.194704457556857D+03 0.000000000000000D+00 0.000000000000000D+00 -.194704457556857D+03
 0.145518972763130D+03 -.472131392792671D+01 -.950205607354753D+01 -.737440950802542D+02
 0.163943979745351D+03 -.180690241375936D+02 -.321474512613324D+02 0.138023419333419D+03
 0.796623687783370D+02 0.230356557940515D+02 0.410319392067963D+02 -.642793242531649D+02
 0.920324403958368D+00 -.245317728531193D+00 0.617568128083534D+00 0.636730577061461D+00
-.132837382065D-06 0.000000000000D+00 0.000000000000D+00 0.669205467655D-07 0.000000000000D+00  6 21 1 25 -24 2 21 4 0.39323246D-02 0.22784613D+00 0.17027080D+05 0.17027080D+05 0.17027080D+05 0.12415953D+01  1  2 14  2  6  2        1 -.107737381841D-02 0.100000000000D+01
  </mgrwgt>
  </event>
  <event>
  6     66 0.42050411E-03 0.55857644E+02 0.75467711E-02 0.11793694E+00
       21 -1    0    0  501  502 0.00000000E+00 0.00000000E+00 0.25787395E+03 0.25787504E+03 0.75000000E+00 0.0000E+00 0.9000E+01
        1 -1    0    0  502    0 0.00000000E+00 0.00000000E+00 -.13992244E+03 0.13992281E+03 0.32000000E+00 0.0000E+00 0.9000E+01
       25  1    1    2    0    0 -.93076704E+01 -.10332920E+01 -.38621523E+02 0.13116525E+03 0.12500000E+03 0.0000E+00 0.9000E+01
      -24  1    1    2    0    0 0.15918346E+01 -.81820803E+02 0.11028209E+03 0.15914312E+03 0.80419002E+02 0.0000E+00 0.9000E+01
        2  1    1    2  503    0 0.23242160E+02 0.15624081E+02 0.13367510E+02 0.31033895E+02 0.32000000E+00 0.0000E+00 0.9000E+01
       21  1    1    2  501  503 -.15526324E+02 0.67230013E+02 0.32923425E+02 0.76455581E+02 0.75000000E+00 0.0000E+00 0.9000E+01
#aMCatNLO 2  0  0  5  1 0.21375369D+02 0.00000000D+00  -5  6  0 0.00000000D+00 0.00000000D+00 0.00000000D+00 0.00000000D+00 0.00000000D+00
  <mgrwgt>
 0.7236545338D-02    2    2    0
 0.189954317056871D+03 0.000000000000000D+00 0.000000000000000D+00 0.189954317056871D+03
 0.189954317056871D+03 -.000000000000000D+00 -.000000000000000D+00 -.189954317056871D+03
 0.150028439094974D+03 -.980572672409725D+01 -.638151488059939D+01 -.821380333859741D+02
 0.134974228681192D+03 0.114700017900978D+01 -.865975182903090D+02 0.651949435942789D+02
 0.949059663375750D+02 0.865872654508747D+01 0.929790331709084D+02 0.169430897916952D+02
 0.000000000000000D+00 0.000000000000000D+00 0.000000000000000D+00 0.000000000000000D+00
 0.189954317056871D+03 0.000000000000000D+00 0.000000000000000D+00 0.189954317056871D+03
 0.189954317056871D+03 -.000000000000000D+00 -.000000000000000D+00 -.189954317056871D+03
 0.149342234794433D+03 -.931572899589134D+01 -.111982717314132D+01 -.811792231656156D+02
 0.132437609182945D+03 0.158468898582057D+01 -.818975336129912D+02 0.660513975677356D+02
 0.277257726963780D+02 0.228471211911653D+02 0.151227440626806D+02 0.424619086971882D+01
 0.704030174399862D+02 -.151160811810946D+02 0.678946167234520D+02 0.108816347281611D+02
-.169566297462D-05 0.000000000000D+00 0.000000000000D+00 0.145025349173D-06 0.000000000000D+00  6 21 1 25 -24 2 21 4 0.39673027D-01 0.21526642D-01 0.28408792D+05 0.28408792D+05 0.28408792D+05 0.12173904D+01  1  2 13  3  6  5        2 -.571991531867D-02 0.100000000000D+01
0.384092934842D-05 0.000000000000D+00 0.000000000000D+00 0.145024418649D-06 0.957198954673D-09  6 21 1 25 -24 2 21 4 0.39673027D-01 0.21526642D-01 0.28408792D+05 0.28408792D+05 0.28408792D+05 0.12173904D+01  1  2  1  3  6  5        2 0.129564606569D-01 0.100000000000D+01
  </mgrwgt>
  </event>
  <event>
  5     66 0.42050411E-03 0.47854957E+02 0.75467711E-02 0.11781944E+00
       21 -1    0    0  501  502 0.00000000E+00 0.00000000E+00 0.39403167E+02 0.39410304E+02 0.75000000E+00 0.0000E+00 0.9000E+01
        1 -1    0    0  502    0 0.00000000E+00 0.00000000E+00 -.19280339E+04 0.19280340E+04 0.32000000E+00 0.0000E+00 0.9000E+01
       25  1    1    2    0    0 0.74733937E+02 0.30157497E+02 -.13526676E+04 0.13608193E+04 0.12500000E+03 0.0000E+00 0.9000E+01
      -24  1    1    2    0    0 -.35647605E+02 -.57768230E+02 -.54739753E+03 0.55742191E+03 0.80419002E+02 0.0000E+00 0.9000E+01
        2  1    1    2  501    0 -.39086331E+02 0.27610733E+02 0.11434324E+02 0.49203049E+02 0.32000000E+00 0.0000E+00 0.9000E+01
#aMCatNLO 1  0  0  1  2 0.45877727D+02 0.00000000D+00  -5  6  0 0.00000000D+00 0.00000000D+00 0.00000000D+00 0.00000000D+00 0.00000000D+00
  <mgrwgt>
 0.1120587480D+00   23    2    0
 0.275640508157886D+03 0.000000000000000D+00 0.000000000000000D+00 0.275640508157886D+03
 0.275640508157886D+03 0.000000000000000D+00 0.000000000000000D+00 -.275640508157886D+03
 0.222475634524261D+03 0.747339542145224D+02 0.301574850552692D+02 -.165456248415028D+03
 0.114033935509230D+03 -.356475965135935D+02 -.577682364341301D+02 -.439158538052844D+02
 0.214771446282282D+03 -.390863577009288D+02 0.276107513788609D+02 0.209372102220312D+03
 0.000000000000000D+00 -.000000000000000D+00 0.000000000000000D+00 0.000000000000000D+00
 0.331632754433535D+03 0.000000000000000D+00 0.000000000000000D+00 0.331632754433535D+03
 0.286153617695046D+03 0.000000000000000D+00 0.000000000000000D+00 -.286153617695046D+03
 0.223257402751609D+03 0.816950102376817D+02 0.130008863576266D+02 -.165456248415028D+03
 0.117767554608672D+03 -.320275301868432D+02 -.666904495322969D+02 -.439158538052844D+02
 0.212161742359608D+03 -.324189007351063D+02 0.111777729463009D+02 0.209372102220312D+03
 0.645996724086908D+02 -.172485793157323D+02 0.425117902283694D+02 0.454791367384890D+02
0.151808354506D-04 0.000000000000D+00 0.000000000000D+00 0.368775824476D-05 0.000000000000D+00  6 21 1 25 -24 2 21 2 0.60625767D-02 0.29662116D+00 0.22773851D+05 0.22773851D+05 0.22773851D+05 0.12276641D+01  1  2  2  1  6  1       21 0.193821611696D-01 0.100000000000D+01
0.204968954702D-05 0.801114696109D-06 -.306457329821D-07 0.368775824476D-05 0.000000000000D+00  6 21 1 25 -24 2 21 4 0.60625767D-02 0.29662116D+00 0.22773851D+05 0.22773851D+05 0.22773851D+05 0.12276641D+01  1  2  3  1  6  1       21 0.394415273464D-02 0.100000000000D+01
0.148595283550D-05 0.000000000000D+00 0.000000000000D+00 0.368775824476D-05 0.000000000000D+00  6 21 1 25 -24 2 21 4 0.60625767D-02 0.29662116D+00 0.22773851D+05 0.22773851D+05 0.22773851D+05 0.12276641D+01  1  2 15  1  6  1       21 0.285937201964D-02 0.100000000000D+01
0.374424062833D-04 0.000000000000D+00 0.000000000000D+00 0.362268148581D-05 0.000000000000D+00  6 21 1 25 -24 2 21 4 0.73933367D-02 0.29662116D+00 0.28787261D+05 0.28787261D+05 0.28787261D+05 0.12167838D+01  1  2 12  1  6  1       21 0.490397764339D-01 0.100000000000D+01
-.979821835243D-05 0.000000000000D+00 0.000000000000D+00 0.368775824476D-05 0.000000000000D+00  6 21 1 25 -24 2 21 4 0.60625767D-02 0.29662116D+00 0.22773851D+05 0.22773851D+05 0.22773851D+05 0.12276641D+01  1  2  4  1  6  1       21 -.188544015192D-01 0.100000000000D+01
-.104473267165D-03 0.000000000000D+00 -.260205507883D-04 0.368775824476D-05 0.000000000000D+00  6 21 1 25 -24 2 21 4 0.75979129D-02 0.29662116D+00 0.22773851D+05 0.22773851D+05 0.22773851D+05 0.12276641D+01  1  2  5  1  6  1       21 -.136523261780D+00 0.100000000000D+01
0.100884171689D-03 0.000000000000D+00 0.235486857284D-04 0.368775824476D-05 0.000000000000D+00  6 21 1 25 -24 2 21 4 0.60625767D-02 0.29662116D+00 0.22773851D+05 0.22773851D+05 0.22773851D+05 0.12276641D+01  1  2  6  1  6  1       21 0.194128219186D+00 0.100000000000D+01
0.212797833450D-05 0.000000000000D+00 0.000000000000D+00 0.362268148581D-05 0.000000000000D+00  6 -1 1 25 -24 2 -1 4 0.73933367D-02 0.29662116D+00 0.28787261D+05 0.28787261D+05 0.28787261D+05 0.12167838D+01  1  2 12  4  6  1       21 0.174139893729D-03 0.100000000000D+01
-.545740752383D-05 0.000000000000D+00 -.172869670584D-05 0.368775824476D-05 0.000000000000D+00  6 -1 1 25 -24 2 -1 4 0.75979129D-02 0.29662116D+00 0.22773851D+05 0.22773851D+05 0.22773851D+05 0.12276641D+01  1  2  5  4  6  1       21 -.446433506198D-03 0.100000000000D+01
0.212797833450D-05 0.000000000000D+00 0.000000000000D+00 0.362268148581D-05 0.000000000000D+00  6 1 1 25 -24 2 1 4 0.73933367D-02 0.29662116D+00 0.28787261D+05 0.28787261D+05 0.28787261D+05 0.12167838D+01  1  2 12  5  6  1       21 0.206693375912D-03 0.100000000000D+01
-.545740752383D-05 0.000000000000D+00 -.172869670584D-05 0.368775824476D-05 0.000000000000D+00  6 1 1 25 -24 2 1 4 0.75979129D-02 0.29662116D+00 0.22773851D+05 0.22773851D+05 0.22773851D+05 0.12276641D+01  1  2  5  5  6  1       21 -.532383714807D-03 0.100000000000D+01
0.212797833450D-05 0.000000000000D+00 0.000000000000D+00 0.362268148581D-05 0.000000000000D+00  6 -2 1 25 -24 2 -2 4 0.73933367D-02 0.29662116D+00 0.28787261D+05 0.28787261D+05 0.28787261D+05 0.12167838D+01  1  2 12  6  6  1       21 0.168462259492D-03 0.100000000000D+01
-.545740752383D-05 0.000000000000D+00 -.172869670584D-05 0.368775824476D-05 0.000000000000D+00  6 -2 1 25 -24 2 -2 4 0.75979129D-02 0.29662116D+00 0.22773851D+05 0.22773851D+05 0.22773851D+05 0.12276641D+01  1  2  5  6  6  1       21 -.431439121318D-03 0.100000000000D+01
0.212797833450D-05 0.000000000000D+00 0.000000000000D+00 0.362268148581D-05 0.000000000000D+00  6 2 1 25 -24 2 2 4 0.73933367D-02 0.29662116D+00 0.28787261D+05 0.28787261D+05 0.28787261D+05 0.12167838D+01  1  2 12  7  6  1       21 0.228603136338D-03 0.100000000000D+01
-.545740752383D-05 0.000000000000D+00 -.172869670584D-05 0.368775824476D-05 0.000000000000D+00  6 2 1 25 -24 2 2 4 0.75979129D-02 0.29662116D+00 0.22773851D+05 0.22773851D+05 0.22773851D+05 0.12276641D+01  1  2  5  7  6  1       21 -.590175123470D-03 0.100000000000D+01
0.212797833450D-05 0.000000000000D+00 0.000000000000D+00 0.362268148581D-05 0.000000000000D+00  6 -3 1 25 -24 2 -3 4 0.73933367D-02 0.29662116D+00 0.28787261D+05 0.28787261D+05 0.28787261D+05 0.12167838D+01  1  2 12  8  6  1       21 0.119768472400D-03 0.100000000000D+01
0.212797833450D-05 0.000000000000D+00 0.000000000000D+00 0.362268148581D-05 0.000000000000D+00  6 -4 1 25 -24 2 -4 4 0.73933367D-02 0.29662116D+00 0.28787261D+05 0.28787261D+05 0.28787261D+05 0.12167838D+01  1  2 12  8  6  1       21 0.105977734016D-03 0.100000000000D+01
-.545740752383D-05 0.000000000000D+00 -.172869670584D-05 0.368775824476D-05 0.000000000000D+00  6 -3 1 25 -24 2 -3 4 0.75979129D-02 0.29662116D+00 0.22773851D+05 0.22773851D+05 0.22773851D+05 0.12276641D+01  1  2  5  8  6  1       21 -.304509523716D-03 0.100000000000D+01
-.545740752383D-05 0.000000000000D+00 -.172869670584D-05 0.368775824476D-05 0.000000000000D+00  6 -4 1 25 -24 2 -4 4 0.75979129D-02 0.29662116D+00 0.22773851D+05 0.22773851D+05 0.22773851D+05 0.12276641D+01  1  2  5  8  6  1       21 -.268616367908D-03 0.100000000000D+01
0.212797833450D-05 0.000000000000D+00 0.000000000000D+00 0.362268148581D-05 0.000000000000D+00  6 3 1 25 -24 2 3 4 0.73933367D-02 0.29662116D+00 0.28787261D+05 0.28787261D+05 0.28787261D+05 0.12167838D+01  1  2 12  9  6  1       21 0.119754898467D-03 0.100000000000D+01
0.212797833450D-05 0.000000000000D+00 0.000000000000D+00 0.362268148581D-05 0.000000000000D+00  6 4 1 25 -24 2 4 4 0.73933367D-02 0.29662116D+00 0.28787261D+05 0.28787261D+05 0.28787261D+05 0.12167838D+01  1  2 12  9  6  1       21 0.105977734016D-03 0.100000000000D+01
-.545740752383D-05 0.000000000000D+00 -.172869670584D-05 0.368775824476D-05 0.000000000000D+00  6 3 1 25 -24 2 3 4 0.75979129D-02 0.29662116D+00 0.22773851D+05 0.22773851D+05 0.22773851D+05 0.12276641D+01  1  2  5  9  6  1       21 -.304473974726D-03 0.100000000000D+01
-.545740752383D-05 0.000000000000D+00 -.172869670584D-05 0.368775824476D-05 0.000000000000D+00  6 4 1 25 -24 2 4 4 0.75979129D-02 0.29662116D+00 0.22773851D+05 0.22773851D+05 0.22773851D+05 0.12276641D+01  1  2  5  9  6  1       21 -.268616367908D-03 0.100000000000D+01
  </mgrwgt>
  </event>
  <event>
  6     66 -.42050411E-03 0.15091071E+02 0.75467711E-02 0.11826781E+00
       21 -1    0    0  501  502 0.00000000E+00 0.00000000E+00 0.15247718E+02 0.15266152E+02 0.75000000E+00 0.0000E+00 0.9000E+01
        1 -1    0    0  502    0 -.00000000E+00 -.00000000E+00 -.21319789E+04 0.21319790E+04 0.32000000E+00 0.0000E+00 0.9000E+01
       25  1    1    2    0    0 0.96157777E+02 -.24302140E+02 -.60261359E+03 0.62338195E+03 0.12500000E+03 0.0000E+00 0.9000E+01
      -24  1    1    2    0    0 -.11832415E+03 0.24298269E+02 -.12907930E+04 0.12989245E+04 0.80419002E+02 0.0000E+00 0.9000E+01
        2  1    1    2  503    0 0.18128568E+02 -.63062897E+01 -.14832201E+03 0.14955914E+03 0.32000000E+00 0.0000E+00 0.9000E+01
       21  1    1    2  501  503 0.40378013E+01 0.63101604E+01 -.75002580E+02 0.75379516E+02 0.75000000E+00 0.0000E+00 0.9000E+01
#aMCatNLO 2  0  0  5  1 0.68584313D+01 0.00000000D+00  -5  6  0 0.00000000D+00 0.00000000D+00 0.00000000D+00 0.00000000D+00 0.00000000D+00
  <mgrwgt>
 -.5650685881D-01    2    2    0
 0.180354182234114D+03 0.000000000000000D+00 0.000000000000000D+00 0.180354182234114D+03
 0.180354182234114D+03 -.000000000000000D+00 -.000000000000000D+00 -.180354182234114D+03
 0.173873604994841D+03 0.941827967944460D+02 -.243024847232322D+02 0.717357688894131D+02
 0.158656308553730D+03 -.120116485044179D+03 0.242979561502399D+02 -.607144763386641D+02
 0.281784509196572D+02 0.259336882497334D+02 0.452857299226582D-02 -.110212925507490D+02
 0.000000000000000D+00 0.000000000000000D+00 0.000000000000000D+00 -.000000000000000D+00
 0.180354182234114D+03 0.000000000000000D+00 0.000000000000000D+00 0.180354182234114D+03
 0.180354182234114D+03 -.000000000000000D+00 -.000000000000000D+00 -.180354182234114D+03
 0.174620712340667D+03 0.961893896932527D+02 -.243021343294771D+02 0.708830075253125D+02
 0.157582634847502D+03 -.118295615128691D+03 0.242982741128159D+02 -.614883091942999D+02
 0.196416840736154D+02 0.178320133604621D+02 -.646527841883497D+01 -.510051249650145D+01
 0.886333320644400D+01 0.427421207497573D+01 0.646913863549616D+01 -.429418583451106D+01
-.225659230729D-05 0.000000000000D+00 0.000000000000D+00 0.236965409844D-06 0.000000000000D+00  6 21 1 25 -24 2 21 4 0.23472227D-02 0.32799818D+00 0.27456442D+05 0.27456442D+05 0.27456442D+05 0.12189576D+01  1  2 13  3  6  5        2 -.151049308498D-01 0.100000000000D+01
-.618194978808D-05 0.000000000000D+00 0.000000000000D+00 0.237019578718D-06 0.000000000000D+00  6 21 1 25 -24 2 21 4 0.23472227D-02 0.32799818D+00 0.27373523D+05 0.27373523D+05 0.27373523D+05 0.12190969D+01  1  2  8  3  6  5        2 -.414019279570D-01 0.100000000000D+01
  </mgrwgt>
  </event>
  <event>
  6     66 0.42050411E-03 0.76621268E+02 0.75467711E-02 0.10939476E+00
       21 -1    0    0  501  502 0.00000000E+00 0.00000000E+00 0.26242618E+03 0.26242726E+03 0.75000000E+00 0.0000E+00 0.9000E+01
        1 -1    0    0  502    0 -.00000000E+00 -.00000000E+00 -.33839331E+03 0.33839346E+03 0.32000000E+00 0.0000E+00 0.9000E+01
       25  1    1    2    0    0 -.57311102E+02 -.82719479E+00 -.12035269E+02 0.13804019E+03 0.12500000E+03 0.0000E+00 0.9000E+01
      -24  1    1    2    0    0 0.20238855E+03 0.79083624E+02 -.11509886E+03 0.25870893E+03 0.80419002E+02 0.0000E+00 0.9000E+01
        2  1    1    2  503    0 -.11702184E+03 -.31945834E+01 0.36320725E+02 0.12257085E+03 0.32000000E+00 0.0000E+00 0.9000E+01
       21  1    1    2  501  503 -.28055609E+02 -.75061846E+02 0.14846275E+02 0.81500750E+02 0.75000000E+00 0.0000E+00 0.9000E+01
#aMCatNLO 2  0  0  5  1 0.52892590D+02 0.00000000D+00  -5  6  0 0.00000000D+00 0.00000000D+00 0.00000000D+00 0.00000000D+00 0.00000000D+00
  <mgrwgt>
 0.5082914449D-02    2    2    0
 0.297999384068283D+03 0.000000000000000D+00 0.000000000000000D+00 0.297999384068283D+03
 0.297999384068283D+03 -.000000000000000D+00 -.000000000000000D+00 -.297999384068283D+03
 0.135305737365443D+03 -.516889735491694D+02 0.220544557734596D+01 0.245531815553659D+01
 0.258394549813586D+03 0.212781408873394D+03 0.846896500893390D+02 -.886129935426738D+02
 0.202298480957538D+03 -.161092435324225D+03 -.868950956666850D+02 0.861576753871372D+02
 0.000000000000000D+00 0.000000000000000D+00 -.000000000000000D+00 0.000000000000000D+00
 0.297999384068283D+03 0.000000000000000D+00 0.000000000000000D+00 0.297999384068283D+03
 0.297999384068283D+03 -.000000000000000D+00 -.000000000000000D+00 -.297999384068283D+03
 0.137626047091656D+03 -.573180750021766D+02 -.830955904151665D+00 0.546595173825781D+01
 0.246116637240104D+03 0.202376081176763D+03 0.790768977349399D+02 -.830478728454868D+02
 0.127911550982308D+03 -.116784155806562D+03 -.297951191902790D+01 0.520955692547127D+02
 0.843445328224992D+02 -.282738503680250D+02 -.752664299117603D+02 0.254863518525162D+02
-.607085028669D-05 0.000000000000D+00 0.000000000000D+00 0.660946399953D-07 0.000000000000D+00  6 21 1 25 -24 2 21 4 0.40373353D-01 0.52060603D-01 0.80208806D+05 0.80208806D+05 0.80208806D+05 0.11724739D+01  1  2 13  3  6  5        2 -.545346381024D-02 0.100000000000D+01
0.117292013300D-04 0.000000000000D+00 0.000000000000D+00 0.661826604340D-07 0.166308543380D-09  6 21 1 25 -24 2 21 4 0.40373353D-01 0.52060603D-01 0.80208806D+05 0.80208806D+05 0.80208806D+05 0.11724739D+01  1  2  1  3  6  5        2 0.105363782593D-01 0.100000000000D+01
  </mgrwgt>
  </event>
  <event>
  5     66 0.42050411E-03 0.42619602E+02 0.75467711E-02 0.12152180E+00
       21 -1    0    0  501  502 0.00000000E+00 0.00000000E+00 0.50467522E+02 0.50473094E+02 0.75000000E+00 0.0000E+00 0.9000E+01
        1 -1    0    0  502    0 0.00000000E+00 0.00000000E+00 -.39157506E+03 0.39157519E+03 0.32000000E+00 0.0000E+00 0.9000E+01
       25  1    1    2    0    0 -.64565817E+02 0.13567248E+02 -.19334894E+03 0.23950288E+03 0.12500000E+03 0.0000E+00 0.9000E+01
      -24  1    1    2    0    0 0.38839522E+02 0.21522262E+02 -.11923307E+03 0.15051730E+03 0.80419002E+02 0.0000E+00 0.9000E+01
        2  1    1    2  501    0 0.25726295E+02 -.35089510E+02 -.28525525E+02 0.52028107E+02 0.32000000E+00 0.0000E+00 0.9000E+01
#aMCatNLO 1  0  0  1  1 0.49524804D+00 0.00000000D+00  -5  6  0 0.00000000D+00 0.00000000D+00 0.00000000D+00 0.00000000D+00 0.00000000D+00
  <mgrwgt>
 0.3911779448D-01   23    2    0
 0.140581233681032D+03 0.000000000000000D+00 0.000000000000000D+00 0.140581233681032D+03
 0.140581233681032D+03 0.000000000000000D+00 0.000000000000000D+00 -.140581233681032D+03
 0.141978798357418D+03 -.645661155941497D+02 0.135676550682845D+02 -.134206794182398D+02
 0.919916917263625D+02 0.388393283154839D+02 0.215225262242422D+02 -.485209575713726D+01
 0.471919772782831D+02 0.257267872786658D+02 -.350901812925267D+02 0.182727751753771D+02
 0.000000000000000D+00 0.000000000000000D+00 0.000000000000000D+00 0.000000000000000D+00
 0.141656070769931D+03 0.000000000000000D+00 0.000000000000000D+00 0.141656070769931D+03
 0.140638511669330D+03 0.000000000000000D+00 0.000000000000000D+00 -.140638511669330D+03
 0.142087322617911D+03 -.648129428223281D+02 0.135268272476848D+02 -.134206794182398D+02
 0.919181520843761D+02 0.386795276436309D+02 0.214960935117320D+02 -.485209575713726D+01
 0.471574288318463D+02 0.256448063570744D+02 -.351037417995422D+02 0.182727751753771D+02
 0.113167890512762D+01 0.488608821622732D+00 0.808210401254243D-01 0.101755910060121D+01
0.327112478084D-06 0.000000000000D+00 0.000000000000D+00 0.571317878542D-06 0.000000000000D+00  6 21 1 25 -24 2 21 2 0.77646728D-02 0.60242755D-01 0.19143144D+05 0.19143144D+05 0.19143144D+05 0.12359251D+01  1  2  2  1  6  1       21 0.429791239121D-02 0.100000000000D+01
-.369312134050D-08 0.172621997206D-07 -.660345847969D-09 0.571317878542D-06 0.000000000000D+00  6 21 1 25 -24 2 21 4 0.77646728D-02 0.60242755D-01 0.19143144D+05 0.19143144D+05 0.19143144D+05 0.12359251D+01  1  2  3  1  6  1       21 -.741205017572D-04 0.100000000000D+01
0.344607348665D-07 0.000000000000D+00 0.000000000000D+00 0.571317878542D-06 0.000000000000D+00  6 21 1 25 -24 2 21 4 0.77646728D-02 0.60242755D-01 0.19143144D+05 0.19143144D+05 0.19143144D+05 0.12359251D+01  1  2 15  1  6  1       21 0.691622810011D-03 0.100000000000D+01
-.971977878869D-04 0.000000000000D+00 0.000000000000D+00 0.571317878542D-06 0.000000000000D+00  6 21 1 25 -24 2 21 4 0.77646728D-02 0.60242755D-01 0.19143144D+05 0.19143144D+05 0.19143144D+05 0.12359251D+01  1  2  4  1  6  1       21 -.195074792936D+01 0.100000000000D+01
-.242288158864D-03 0.000000000000D+00 -.128957625155D-04 0.571317878542D-06 0.000000000000D+00  6 21 1 25 -24 2 21 4 0.78268063D-02 0.60242755D-01 0.19143144D+05 0.19143144D+05 0.19143144D+05 0.12359251D+01  1  2  5  1  6  1       21 -.479631929221D+01 0.100000000000D+01
0.242357645825D-03 0.000000000000D+00 0.128941242690D-04 0.571317878542D-06 0.000000000000D+00  6 21 1 25 -24 2 21 4 0.77646728D-02 0.60242755D-01 0.19143144D+05 0.19143144D+05 0.19143144D+05 0.12359251D+01  1  2  6  1  6  1       21 0.486408884437D+01 0.100000000000D+01
0.969275111543D-04 0.000000000000D+00 0.000000000000D+00 0.571317878542D-06 0.473059027481D-04  6 21 1 25 -24 2 21 4 0.78240389D-02 0.60267300D-01 0.19211435D+05 0.19211435D+05 0.19211435D+05 0.12357540D+01  1  2 11  1  6  1       21 0.191797635475D+01 0.100000000000D+01
-.412627015956D-06 0.000000000000D+00 -.231137623010D-07 0.571317878542D-06 0.000000000000D+00  6 -1 1 25 -24 2 -1 4 0.78268063D-02 0.60242755D-01 0.19143144D+05 0.19143144D+05 0.19143144D+05 0.12359251D+01  1  2  5  4  6  1       21 -.513248071948D-03 0.100000000000D+01
0.227972032196D-06 0.000000000000D+00 0.000000000000D+00 0.571317878542D-06 0.727160447052D-07  6 -1 1 25 -24 2 -1 4 0.78240389D-02 0.60267300D-01 0.19211435D+05 0.19211435D+05 0.19211435D+05 0.12357540D+01  1  2 11  4  6  1       21 0.283440772966D-03 0.100000000000D+01
-.412627015956D-06 0.000000000000D+00 -.231137623010D-07 0.571317878542D-06 0.000000000000D+00  6 1 1 25 -24 2 1 4 0.78268063D-02 0.60242755D-01 0.19143144D+05 0.19143144D+05 0.19143144D+05 0.12359251D+01  1  2  5  5  6  1       21 -.615193179171D-03 0.100000000000D+01
0.230126144132D-06 0.000000000000D+00 0.000000000000D+00 0.571317878542D-06 0.743110144008D-07  6 1 1 25 -24 2 1 4 0.78240389D-02 0.60267300D-01 0.19211435D+05 0.19211435D+05 0.19211435D+05 0.12357540D+01  1  2 11  5  6  1       21 0.342928156498D-03 0.100000000000D+01
-.412627015956D-06 0.000000000000D+00 -.231137623010D-07 0.571317878542D-06 0.000000000000D+00  6 -2 1 25 -24 2 -2 4 0.78268063D-02 0.60242755D-01 0.19143144D+05 0.19143144D+05 0.19143144D+05 0.12359251D+01  1  2  5  6  6  1       21 -.495462588845D-03 0.100000000000D+01
0.910370841659D-06 0.000000000000D+00 0.000000000000D+00 0.571317878542D-06 0.440646905610D-06  6 -2 1 25 -24 2 -2 4 0.78240389D-02 0.60267300D-01 0.19211435D+05 0.19211435D+05 0.19211435D+05 0.12357540D+01  1  2 11  6  6  1       21 0.109266929395D-02 0.100000000000D+01
-.412627015956D-06 0.000000000000D+00 -.231137623010D-07 0.571317878542D-06 0.000000000000D+00  6 2 1 25 -24 2 2 4 0.78268063D-02 0.60242755D-01 0.19143144D+05 0.19143144D+05 0.19143144D+05 0.12359251D+01  1  2  5  7  6  1       21 -.683699186942D-03 0.100000000000D+01
0.228115946181D-06 0.000000000000D+00 0.000000000000D+00 0.571317878542D-06 0.363900091417D-07  6 2 1 25 -24 2 2 4 0.78240389D-02 0.60267300D-01 0.19211435D+05 0.19211435D+05 0.19211435D+05 0.12357540D+01  1  2 11  7  6  1       21 0.377774871648D-03 0.100000000000D+01
-.412627015956D-06 0.000000000000D+00 -.231137623010D-07 0.571317878542D-06 0.000000000000D+00  6 -3 1 25 -24 2 -3 4 0.78268063D-02 0.60242755D-01 0.19143144D+05 0.19143144D+05 0.19143144D+05 0.12359251D+01  1  2  5  8  6  1       21 -.347497538880D-03 0.100000000000D+01
-.412627015956D-06 0.000000000000D+00 -.231137623010D-07 0.571317878542D-06 0.000000000000D+00  6 -4 1 25 -24 2 -4 4 0.78268063D-02 0.60242755D-01 0.19143144D+05 0.19143144D+05 0.19143144D+05 0.12359251D+01  1  2  5  8  6  1       21 -.305723908625D-03 0.100000000000D+01
0.227981393381D-06 0.000000000000D+00 0.000000000000D+00 0.571317878542D-06 0.727190306345D-07  6 -3 1 25 -24 2 -3 4 0.78240389D-02 0.60267300D-01 0.19211435D+05 0.19211435D+05 0.19211435D+05 0.12357540D+01  1  2 11  8  6  1       21 0.191936729584D-03 0.100000000000D+01
0.227981393381D-06 0.000000000000D+00 0.000000000000D+00 0.571317878542D-06 0.727190306345D-07  6 -4 1 25 -24 2 -4 4 0.78240389D-02 0.60267300D-01 0.19211435D+05 0.19211435D+05 0.19211435D+05 0.12357540D+01  1  2 11  8  6  1       21 0.168871487963D-03 0.100000000000D+01
-.412627015956D-06 0.000000000000D+00 -.231137623010D-07 0.571317878542D-06 0.000000000000D+00  6 3 1 25 -24 2 3 4 0.78268063D-02 0.60242755D-01 0.19143144D+05 0.19143144D+05 0.19143144D+05 0.12359251D+01  1  2  5  9  6  1       21 -.347455938148D-03 0.100000000000D+01
-.412627015956D-06 0.000000000000D+00 -.231137623010D-07 0.571317878542D-06 0.000000000000D+00  6 4 1 25 -24 2 4 4 0.78268063D-02 0.60242755D-01 0.19143144D+05 0.19143144D+05 0.19143144D+05 0.12359251D+01  1  2  5  9  6  1       21 -.305723908625D-03 0.100000000000D+01
0.227981393381D-06 0.000000000000D+00 0.000000000000D+00 0.571317878542D-06 0.727190306345D-07  6 3 1 25 -24 2 3 4 0.78240389D-02 0.60267300D-01 0.19211435D+05 0.19211435D+05 0.19211435D+05 0.12357540D+01  1  2 11  9  6  1       21 0.191913761749D-03 0.100000000000D+01
0.227981393381D-06 0.000000000000D+00 0.000000000000D+00 0.571317878542D-06 0.727190306345D-07  6 4 1 25 -24 2 4 4 0.78240389D-02 0.60267300D-01 0.19211435D+05 0.19211435D+05 0.19211435D+05 0.12357540D+01  1  2 11  9  6  1       21 0.168871487963D-03 0.100000000000D+01
  </mgrwgt>
  </event>
  <event>
  6     66 -.42050411E-03 0.23978694E+02 0.75467711E-02 0.12133532E+00
       21 -1    0    0  503  502 0.00000000E+00 0.00000000E+00 0.11890273E+03 0.11890510E+03 0.75000000E+00 0.0000E+00 0.9000E+01
        3 -1    0    0  502    0 0.00000000E+00 0.00000000E+00 -.38766308E+03 0.38766340E+03 0.50000000E+00 0.0000E+00 0.9000E+01
       25  1    1    2    0    0 -.24161905E+02 0.77767946E+02 -.20453096E+03 0.25315917E+03 0.12500000E+03 0.0000E+00 0.9000E+01
      -24  1    1    2    0    0 0.30527958E+01 -.52207306E+02 -.13907697E+03 0.16895130E+03 0.80419002E+02 0.0000E+00 0.9000E+01
        4  1    1    2  501    0 0.20636500E+02 -.18328925E+02 0.71057032E+02 0.76245124E+02 0.15500000E+01 0.0000E+00 0.9000E+01
       21  1    1    2  503  501 0.47260936E+00 -.72317154E+01 0.37905475E+01 0.82129056E+01 0.75000000E+00 0.0000E+00 0.9000E+01
#aMCatNLO 2  0  0  1  2 0.72471420D+01 0.00000000D+00  -5  6  0 0.00000000D+00 0.00000000D+00 0.00000000D+00 0.00000000D+00 0.00000000D+00
  <mgrwgt>
 -.9488586323D-02    3    2    0
 0.208579591798796D+03 0.000000000000000D+00 0.000000000000000D+00 0.208579591798796D+03
 0.208579591798796D+03 0.000000000000000D+00 0.000000000000000D+00 -.208579591798796D+03
 0.167430517255088D+03 -.239719987400326D+02 0.748545102033425D+02 -.789311325582743D+02
 0.111879745459598D+03 0.317865975221927D+01 -.541382782864023D+02 -.557566537383432D+02
 0.137848920882907D+03 0.207933389878134D+02 -.207162319169402D+02 0.134687786296618D+03
 0.000000000000000D+00 0.000000000000000D+00 -.000000000000000D+00 0.000000000000000D+00
 0.219688586986410D+03 0.000000000000000D+00 0.000000000000000D+00 0.219688586986410D+03
 0.209796372072268D+03 0.000000000000000D+00 0.000000000000000D+00 -.209796372072268D+03
 0.168780589434918D+03 -.241624350726222D+02 0.777685052860588D+02 -.789311325582743D+02
 0.110954505154924D+03 0.305244221621892D+01 -.522069384298931D+02 -.557566537383432D+02
 0.137487035129226D+03 0.206373834924426D+02 -.183298514376835D+02 0.134687786296618D+03
 0.122628293396100D+02 0.472609363960587D+00 -.723171541848229D+01 0.989221491414247D+01
-.127167868676D-04 0.000000000000D+00 0.000000000000D+00 0.520162424835D-05 0.000000000000D+00  6 21 3 25 -24 4 21 4 0.18341008D-01 0.59291553D-01 0.19594958D+05 0.19594958D+05 0.19594958D+05 0.12348055D+01  1  2 13  1  6  1       21 -.110847876525D-01 0.100000000000D+01
-.165265212476D-05 0.000000000000D+00 0.000000000000D+00 0.521905664552D-05 0.000000000000D+00  6 21 3 25 -24 4 21 4 0.17366971D-01 0.59291553D-01 0.18769808D+05 0.18769808D+05 0.18769808D+05 0.12368729D+01  1  2  8  1  6  1       21 -.160156821813D-02 0.100000000000D+01
0.369447380372D-05 0.000000000000D+00 0.000000000000D+00 0.521905664552D-05 0.880922333351D-06  6 21 3 25 -24 4 21 4 0.18291940D-01 0.59637439D-01 0.19594958D+05 0.19594958D+05 0.19594958D+05 0.12348055D+01  1  2  1  1  6  1       21 0.319776954744D-02 0.100000000000D+01
  </mgrwgt>
  </event>
  <event>
  5     66 0.42050411E-03 0.34944544E+02 0.75467711E-02 0.12175546E+00
       21 -1    0    0  501  502 0.00000000E+00 0.00000000E+00 0.20122687E+03 0.20122827E+03 0.75000000E+00 0.0000E+00 0.9000E+01
        1 -1    0    0  502    0 0.00000000E+00 0.00000000E+00 -.15335691E+03 0.15335724E+03 0.32000000E+00 0.0000E+00 0.9000E+01
       25  1    1    2    0    0 0.16818181E+02 -.26956981E+02 0.13757936E+03 0.18858051E+03 0.12500000E+03 0.0000E+00 0.9000E+01
      -24  1    1    2    0    0 -.47195142E+02 0.44228023E+02 -.77224911E+02 0.12889687E+03 0.80419002E+02 0.0000E+00 0.9000E+01
        2  1    1    2  501    0 0.30376961E+02 -.17271042E+02 -.12484484E+02 0.37108131E+02 0.32000000E+00 0.0000E+00 0.9000E+01
#aMCatNLO 1  0  0  2  1 0.64611410D+01 0.00000000D+00  -5  6  0 0.00000000D+00 0.00000000D+00 0.00000000D+00 0.00000000D+00 0.00000000D+00
  <mgrwgt>
 0.6318000680D-01   11    2    0
 0.175669683957168D+03 0.000000000000000D+00 0.000000000000000D+00 0.175669683957168D+03
 0.175669683957168D+03 0.000000000000000D+00 0.000000000000000D+00 -.175669683957168D+03
 0.171577791994785D+03 0.168176854388987D+02 -.269566990931209D+02 0.113156707871371D+03
 0.140609725937227D+03 -.471955479882646D+02 0.442282537122896D+02 -.955003711899614D+02
 0.391518499823236D+02 0.303778625493659D+02 -.172715546191687D+02 -.176563366814093D+02
 0.000000000000000D+00 0.000000000000000D+00 -.000000000000000D+00 -.000000000000000D+00
 0.177787474184497D+03 0.000000000000000D+00 0.000000000000000D+00 0.177787474184497D+03
 0.180697541763072D+03 0.000000000000000D+00 0.000000000000000D+00 -.180697541763072D+03
 0.171022641480811D+03 0.150927358483715D+02 -.243210338472425D+02 0.113156707871371D+03
 0.141789351685209D+03 -.486173914120115D+02 0.464007828793042D+02 -.955003711899614D+02
 0.385867800101921D+02 0.299864584387132D+02 -.166735022371128D+02 -.176563366814093D+02
 0.708624277135686D+01 0.353819712492671D+01 -.540624679494890D+01 -.291006757857485D+01
0.169990291616D-05 0.000000000000D+00 0.000000000000D+00 0.142933061237D-06 0.000000000000D+00  6 21 1 25 -24 2 21 2 0.30958113D-01 0.23593504D-01 0.17838531D+05 0.17838531D+05 0.17838531D+05 0.12393321D+01  1  2  2  2  6  2        1 0.583806095708D-02 0.100000000000D+01
-.611301817463D-07 0.897063414281D-07 -.343161422398D-08 0.142933061237D-06 0.000000000000D+00  6 21 1 25 -24 2 21 4 0.30958113D-01 0.23593504D-01 0.17838531D+05 0.17838531D+05 0.17838531D+05 0.12393321D+01  1  2  3  2  6  2        1 -.322459831167D-03 0.100000000000D+01
0.208611243285D-06 0.000000000000D+00 0.000000000000D+00 0.142933061237D-06 0.000000000000D+00  6 21 1 25 -24 2 21 4 0.30958113D-01 0.23593504D-01 0.17838531D+05 0.17838531D+05 0.17838531D+05 0.12393321D+01  1  2 15  2  6  2        1 0.110041790107D-02 0.100000000000D+01
0.952110010731D-05 0.000000000000D+00 0.000000000000D+00 0.142382163324D-06 0.000000000000D+00  6 21 1 25 -24 2 21 4 0.30958113D-01 0.24408060D-01 0.18743094D+05 0.18743094D+05 0.18743094D+05 0.12369415D+01  1  2 12  2  6  2        1 0.477498711128D-01 0.100000000000D+01
-.611546991106D-06 0.000000000000D+00 0.000000000000D+00 0.142933061237D-06 0.000000000000D+00  6 21 1 25 -24 2 21 4 0.30958113D-01 0.23593504D-01 0.17838531D+05 0.17838531D+05 0.17838531D+05 0.12393321D+01  1  2  4  2  6  2        1 -.322589159511D-02 0.100000000000D+01
-.127127036694D-03 0.000000000000D+00 -.183999371247D-04 0.142933061237D-06 0.000000000000D+00  6 21 1 25 -24 2 21 4 0.30958113D-01 0.24538885D-01 0.17838531D+05 0.17838531D+05 0.17838531D+05 0.12393321D+01  1  2  5  2  6  2        1 -.638276760589D+00 0.100000000000D+01
0.127765500720D-03 0.000000000000D+00 0.183857459477D-04 0.142933061237D-06 0.000000000000D+00  6 21 1 25 -24 2 21 4 0.30958113D-01 0.23593504D-01 0.17838531D+05 0.17838531D+05 0.17838531D+05 0.12393321D+01  1  2  6  2  6  2        1 0.673959092127D+00 0.100000000000D+01
0.162116382021D-06 0.000000000000D+00 0.000000000000D+00 0.142933061237D-06 0.148099732792D-06  6 21 1 25 -24 2 21 4 0.31331330D-01 0.24268775D-01 0.18743094D+05 0.18743094D+05 0.18743094D+05 0.12369415D+01  1  2 11  2  6  2        1 0.800089540033D-03 0.100000000000D+01
0.193883384494D-06 0.000000000000D+00 0.000000000000D+00 0.142382163324D-06 0.000000000000D+00  6 21 21 25 -24 2 -1 4 0.30958113D-01 0.24408060D-01 0.18743094D+05 0.18743094D+05 0.18743094D+05 0.12369415D+01  1  2 12 10  6  2        1 0.733656217059D-02 0.100000000000D+01
-.873536772137D-06 0.000000000000D+00 -.127899617752D-06 0.142933061237D-06 0.000000000000D+00  6 21 21 25 -24 2 -1 4 0.30958113D-01 0.24538885D-01 0.17838531D+05 0.17838531D+05 0.17838531D+05 0.12393321D+01  1  2  5 10  6  2        1 -.330104152553D-01 0.100000000000D+01
0.329509750974D-07 0.000000000000D+00 0.000000000000D+00 0.142933061237D-06 0.261934091970D-09  6 21 21 25 -24 2 -1 4 0.31331330D-01 0.24268775D-01 0.18743094D+05 0.18743094D+05 0.18743094D+05 0.12369415D+01  1  2 11 10  6  2        1 0.123144025765D-02 0.100000000000D+01
  </mgrwgt>
  </event>
  <event>
  5     66 0.42050411E-03 0.88678573E+02 0.75467711E-02 0.11488947E+00
       21 -1    0    0  501  502 0.00000000E+00 0.00000000E+00 0.23326973E+02 0.23339026E+02 0.75000000E+00 0.0000E+00 0.9000E+01
        1 -1    0    0  502    0 0.00000000E+00 0.00000000E+00 -.15590122E+04 0.15590122E+04 0.32000000E+00 0.0000E+00 0.9000E+01
       25  1    1    2    0    0 -.10936142E+03 -.61665891E+02 -.61480381E+03 0.63982132E+03 0.12500000E+03 0.0000E+00 0.9000E+01
      -24  1    1    2    0    0 0.25630313E+02 0.16923066E+02 -.23818039E+03 0.25325958E+03 0.80419002E+02 0.0000E+00 0.9000E+01
        2  1    1    2  501    0 0.83731111E+02 0.44742825E+02 -.68270100E+03 0.68927032E+03 0.32000000E+00 0.0000E+00 0.9000E+01
#aMCatNLO 1  0  0  1  2 0.43246891D+02 0.00000000D+00  -5  6  0 0.00000000D+00 0.00000000D+00 0.00000000D+00 0.00000000D+00 0.00000000D+00
  <mgrwgt>
 0.5539754684D-01   23    2    0
 0.190726497437695D+03 0.000000000000000D+00 0.000000000000000D+00 0.190726497437695D+03
 0.190726497437695D+03 0.000000000000000D+00 0.000000000000000D+00 -.190726497437695D+03
 0.178991924210841D+03 -.109361587855623D+03 -.616659781230809D+02 0.255041011706011D+02
 0.916902259563870D+02 0.256302287763526D+02 0.169230210281218D+02 0.315687236630870D+02
 0.110770844708162D+03 0.837313590792700D+02 0.447429570949591D+02 -.570728248336880D+02
 0.000000000000000D+00 0.000000000000000D+00 0.000000000000000D+00 0.000000000000000D+00
 0.214465976302133D+03 0.000000000000000D+00 0.000000000000000D+00 0.214465976302133D+03
 0.212713128141478D+03 0.000000000000000D+00 0.000000000000000D+00 -.212713128141478D+03
 0.193866875096183D+03 -.129795801642889D+03 -.667978739101674D+02 0.255041011706011D+02
 0.889920011217333D+02 0.157280908556819D+02 0.144361751720848D+02 0.315687236630870D+02
 0.101037829735395D+03 0.721233623158269D+02 0.418276978974680D+02 -.570728248336880D+02
 0.432823984902985D+02 0.419443484713807D+02 0.105340008406146D+02 0.175284816065484D+01
0.289920847561D-05 0.000000000000D+00 0.000000000000D+00 0.151426553909D-06 0.000000000000D+00  6 21 1 25 -24 2 21 2 0.35896948D-02 0.23984896D+00 0.32074318D+05 0.32074318D+05 0.32074318D+05 0.12118627D+01  1  2  2  1  6  1       21 0.149096844690D-01 0.100000000000D+01
-.324326390960D-06 0.152995434570D-06 -.585266661326D-08 0.151426553909D-06 0.000000000000D+00  6 21 1 25 -24 2 21 4 0.35896948D-02 0.23984896D+00 0.32074318D+05 0.32074318D+05 0.32074318D+05 0.12118627D+01  1  2  3  1  6  1       21 -.244950391651D-02 0.100000000000D+01
0.305000667923D-06 0.000000000000D+00 0.000000000000D+00 0.151426553909D-06 0.000000000000D+00  6 21 1 25 -24 2 21 4 0.35896948D-02 0.23984896D+00 0.32074318D+05 0.32074318D+05 0.32074318D+05 0.12118627D+01  1  2 15  1  6  1       21 0.230354467425D-02 0.100000000000D+01
0.277117390136D-05 0.000000000000D+00 0.000000000000D+00 0.148862486808D-06 0.000000000000D+00  6 21 1 25 -24 2 21 4 0.42196600D-02 0.23984896D+00 0.40402616D+05 0.40402616D+05 0.40402616D+05 0.12015588D+01  1  2 12  1  6  1       21 0.153573363369D-01 0.100000000000D+01
-.765678944659D-06 0.000000000000D+00 0.000000000000D+00 0.151426553909D-06 0.000000000000D+00  6 21 1 25 -24 2 21 4 0.35896948D-02 0.23984896D+00 0.32074318D+05 0.32074318D+05 0.32074318D+05 0.12118627D+01  1  2  4  1  6  1       21 -.578285833656D-02 0.100000000000D+01
-.146778105389D-04 0.000000000000D+00 -.477808155467D-05 0.151426553909D-06 0.000000000000D+00  6 21 1 25 -24 2 21 4 0.45634643D-02 0.23984896D+00 0.32074318D+05 0.32074318D+05 0.32074318D+05 0.12118627D+01  1  2  5  1  6  1       21 -.741595484902D-01 0.100000000000D+01
0.141238732592D-04 0.000000000000D+00 0.426950260604D-05 0.151426553909D-06 0.000000000000D+00  6 21 1 25 -24 2 21 4 0.35896948D-02 0.23984896D+00 0.32074318D+05 0.32074318D+05 0.32074318D+05 0.12118627D+01  1  2  6  1  6  1       21 0.106671809106D+00 0.100000000000D+01
0.123321796874D-06 0.000000000000D+00 0.000000000000D+00 0.148862486808D-06 0.000000000000D+00  6 -1 1 25 -24 2 -1 4 0.42196600D-02 0.23984896D+00 0.40402616D+05 0.40402616D+05 0.40402616D+05 0.12015588D+01  1  2 12  4  6  1       21 0.382718767845D-04 0.100000000000D+01
-.855241316638D-06 0.000000000000D+00 -.342088245837D-06 0.151426553909D-06 0.000000000000D+00  6 -1 1 25 -24 2 -1 4 0.45634643D-02 0.23984896D+00 0.32074318D+05 0.32074318D+05 0.32074318D+05 0.12118627D+01  1  2  5  4  6  1       21 -.244701412191D-03 0.100000000000D+01
0.123321796874D-06 0.000000000000D+00 0.000000000000D+00 0.148862486808D-06 0.000000000000D+00  6 1 1 25 -24 2 1 4 0.42196600D-02 0.23984896D+00 0.40402616D+05 0.40402616D+05 0.40402616D+05 0.12015588D+01  1  2 12  5  6  1       21 0.423358368134D-04 0.100000000000D+01
-.855241316638D-06 0.000000000000D+00 -.342088245837D-06 0.151426553909D-06 0.000000000000D+00  6 1 1 25 -24 2 1 4 0.45634643D-02 0.23984896D+00 0.32074318D+05 0.32074318D+05 0.32074318D+05 0.12118627D+01  1  2  5  5  6  1       21 -.272901112581D-03 0.100000000000D+01
0.123321796874D-06 0.000000000000D+00 0.000000000000D+00 0.148862486808D-06 0.000000000000D+00  6 -2 1 25 -24 2 -2 4 0.42196600D-02 0.23984896D+00 0.40402616D+05 0.40402616D+05 0.40402616D+05 0.12015588D+01  1  2 12  6  6  1       21 0.375525544085D-04 0.100000000000D+01
-.855241316638D-06 0.000000000000D+00 -.342088245837D-06 0.151426553909D-06 0.000000000000D+00  6 -2 1 25 -24 2 -2 4 0.45634643D-02 0.23984896D+00 0.32074318D+05 0.32074318D+05 0.32074318D+05 0.12118627D+01  1  2  5  6  6  1       21 -.239719469783D-03 0.100000000000D+01
0.123321796874D-06 0.000000000000D+00 0.000000000000D+00 0.148862486808D-06 0.000000000000D+00  6 2 1 25 -24 2 2 4 0.42196600D-02 0.23984896D+00 0.40402616D+05 0.40402616D+05 0.40402616D+05 0.12015588D+01  1  2 12  7  6  1       21 0.450815313732D-04 0.100000000000D+01
-.855241316638D-06 0.000000000000D+00 -.342088245837D-06 0.151426553909D-06 0.000000000000D+00  6 2 1 25 -24 2 2 4 0.45634643D-02 0.23984896D+00 0.32074318D+05 0.32074318D+05 0.32074318D+05 0.12118627D+01  1  2  5  7  6  1       21 -.291910878831D-03 0.100000000000D+01
0.123321796874D-06 0.000000000000D+00 0.000000000000D+00 0.148862486808D-06 0.000000000000D+00  6 -3 1 25 -24 2 -3 4 0.42196600D-02 0.23984896D+00 0.40402616D+05 0.40402616D+05 0.40402616D+05 0.12015588D+01  1  2 12  8  6  1       21 0.281149916444D-04 0.100000000000D+01
0.123321796874D-06 0.000000000000D+00 0.000000000000D+00 0.148862486808D-06 0.000000000000D+00  6 -4 1 25 -24 2 -4 4 0.42196600D-02 0.23984896D+00 0.40402616D+05 0.40402616D+05 0.40402616D+05 0.12015588D+01  1  2 12  8  6  1       21 0.253270315538D-04 0.100000000000D+01
-.855241316638D-06 0.000000000000D+00 -.342088245837D-06 0.151426553909D-06 0.000000000000D+00  6 -3 1 25 -24 2 -3 4 0.45634643D-02 0.23984896D+00 0.32074318D+05 0.32074318D+05 0.32074318D+05 0.12118627D+01  1  2  5  8  6  1       21 -.177572460973D-03 0.100000000000D+01
-.855241316638D-06 0.000000000000D+00 -.342088245837D-06 0.151426553909D-06 0.000000000000D+00  6 -4 1 25 -24 2 -4 4 0.45634643D-02 0.23984896D+00 0.32074318D+05 0.32074318D+05 0.32074318D+05 0.12118627D+01  1  2  5  8  6  1       21 -.159339373173D-03 0.100000000000D+01
0.123321796874D-06 0.000000000000D+00 0.000000000000D+00 0.148862486808D-06 0.000000000000D+00  6 3 1 25 -24 2 3 4 0.42196600D-02 0.23984896D+00 0.40402616D+05 0.40402616D+05 0.40402616D+05 0.12015588D+01  1  2 12  9  6  1       21 0.281125920217D-04 0.100000000000D+01
0.123321796874D-06 0.000000000000D+00 0.000000000000D+00 0.148862486808D-06 0.000000000000D+00  6 4 1 25 -24 2 4 4 0.42196600D-02 0.23984896D+00 0.40402616D+05 0.40402616D+05 0.40402616D+05 0.12015588D+01  1  2 12  9  6  1       21 0.253270315538D-04 0.100000000000D+01
-.855241316638D-06 0.000000000000D+00 -.342088245837D-06 0.151426553909D-06 0.000000000000D+00  6 3 1 25 -24 2 3 4 0.45634643D-02 0.23984896D+00 0.32074318D+05 0.32074318D+05 0.32074318D+05 0.12118627D+01  1  2  5  9  6  1       21 -.177556369025D-03 0.100000000000D+01
-.855241316638D-06 0.000000000000D+00 -.342088245837D-06 0.151426553909D-06 0.000000000000D+00  6 4 1 25 -24 2 4 4 0.45634643D-02 0.23984896D+00 0.32074318D+05 0.32074318D+05 0.32074318D+05 0.12118627D+01  1  2  5  9  6  1       21 -.159339373173D-03 0.100000000000D+01
  </mgrwgt>
  </event>
  <event>
  5     66 0.42050411E-03 0.23579648E+02 0.75467711E-02 0.12176375E+00
       21 -1    0    0  501  502 0.00000000E+00 0.00000000E+00 0.96394284E+02 0.96397202E+02 0.75000000E+00 0.0000E+00 0.9000E+01
        1 -1    0    0  502    0 -.00000000E+00 -.00000000E+00 -.19774435E+03 0.19774461E+03 0.32000000E+00 0.0000E+00 0.9000E+01
       25  1    1    2    0    0 -.24100300E+02 -.58396088E+02 -.33360369E+02 0.14397514E+03 0.12500000E+03 0.0000E+00 0.9000E+01
      -24  1    1    2    0    0 0.47675673E+02 0.58067536E+02 -.59470832E+02 0.12509518E+03 0.80419002E+02 0.0000E+00 0.9000E+01
        2  1    1    2  501    0 -.23575373E+02 0.32855202E+00 -.85188675E+01 0.25071491E+02 0.32000000E+00 0.0000E+00 0.9000E+01
#aMCatNLO 1  0  0  5  1 0.12472304D-01 0.00000000D+00  -5  6  0 0.00000000D+00 0.00000000D+00 0.00000000D+00 0.00000000D+00 0.00000000D+00
  <mgrwgt>
 0.3902728342D-01    7    2    0
 0.138064813277692D+03 0.000000000000000D+00 0.000000000000000D+00 0.138064813277692D+03
 0.138064813277692D+03 -.000000000000000D+00 -.000000000000000D+00 -.138064813277692D+03
 0.141122065810698D+03 -.240991904667255D+02 -.583961033738135D+02 0.173078475924202D+02
 0.111427567461591D+03 0.476765488151054D+02 0.580675236845188D+02 -.174354874398653D+02
 0.235799932830947D+02 -.235773583483799D+02 0.328579689294625D+00 0.127639847445055D+00
 0.000000000000000D+00 0.000000000000000D+00 0.000000000000000D+00 0.000000000000000D+00
 0.138064813277692D+03 0.000000000000000D+00 0.000000000000000D+00 0.138064813277692D+03
 0.138064813277692D+03 -.000000000000000D+00 -.000000000000000D+00 -.138064813277692D+03
 0.141122068215977D+03 -.240992049855996D+02 -.583961031714750D+02 0.173078476710205D+02
 0.111427562630094D+03 0.476765373512513D+02 0.580675238442818D+02 -.174354873778039D+02
 0.204185636999590D+02 -.204163534814863D+02 0.275702315248298D+00 0.119341198458274D+00
 0.316143200935462D+01 -.316097888416537D+01 0.528770119448306D-01 0.829850832507416D-02
0.178394415841D-07 0.000000000000D+00 0.000000000000D+00 0.652938002367D-06 0.000000000000D+00  6 21 1 25 -24 2 21 2 0.14830134D-01 0.30422453D-01 0.18726739D+05 0.18726739D+05 0.18726739D+05 0.12369836D+01  1  2  2  3  6  5        2 0.175360656749D-03 0.100000000000D+01
0.772187845951D-09 0.941413196262D-09 -.360126927874D-10 0.652938002367D-06 0.000000000000D+00  6 21 1 25 -24 2 21 4 0.14830134D-01 0.30422453D-01 0.18726739D+05 0.18726739D+05 0.18726739D+05 0.12369836D+01  1  2  3  3  6  5        2 0.116145323676D-04 0.100000000000D+01
0.208467612119D-08 0.000000000000D+00 0.000000000000D+00 0.652938002367D-06 0.000000000000D+00  6 21 1 25 -24 2 21 4 0.14830134D-01 0.30422453D-01 0.18726739D+05 0.18726739D+05 0.18726739D+05 0.12369836D+01  1  2 15  3  6  5        2 0.313557619595D-04 0.100000000000D+01
-.274245210503D-02 0.000000000000D+00 0.000000000000D+00 0.652938002367D-06 0.000000000000D+00  6 21 1 25 -24 2 21 4 0.14830134D-01 0.30422453D-01 0.18726739D+05 0.18726739D+05 0.18726739D+05 0.12369836D+01  1  2  4  3  6  5        2 -.412494173634D+02 0.100000000000D+01
-.210579724650D-02 0.000000000000D+00 0.000000000000D+00 0.652938002367D-06 0.000000000000D+00  6 21 1 25 -24 2 21 4 0.14830134D-01 0.30422453D-01 0.18726739D+05 0.18726739D+05 0.18726739D+05 0.12369836D+01  1  2  5  3  6  5        2 -.316734463089D+02 0.100000000000D+01
0.275348952967D-02 0.000000000000D+00 -.000000000000D+00 0.652938002367D-06 0.000000000000D+00  6 21 1 25 -24 2 21 4 0.14830134D-01 0.30422453D-01 0.18726739D+05 0.18726739D+05 0.18726739D+05 0.12369836D+01  1  2  6  3  6  5        2 0.414154320532D+02 0.100000000000D+01
0.209733998906D-02 0.000000000000D+00 0.000000000000D+00 0.652938002367D-06 0.258466066457D-01  6 21 1 25 -24 2 21 4 0.14830134D-01 0.30422453D-01 0.18726737D+05 0.18726737D+05 0.18726737D+05 0.12369836D+01  1  2 11  3  6  5        2 0.315462405716D+02 0.100000000000D+01
  </mgrwgt>
  </event>
  <event>
  5     66 0.42050411E-03 0.36132270E+03 0.75467711E-02 0.98797211E-01
       21 -1    0    0  501  502 0.00000000E+00 0.00000000E+00 0.66704000E+03 0.66704042E+03 0.75000000E+00 0.0000E+00 0.9000E+01
        1 -1    0    0  502    0 0.00000000E+00 0.00000000E+00 -.63897316E+03 0.63897324E+03 0.32000000E+00 0.0000E+00 0.9000E+01
       25  1    1    2    0    0 -.87966784E+02 0.25056823E+03 -.16307784E+03 0.33577072E+03 0.12500000E+03 0.0000E+00 0.9000E+01
      -24  1    1    2    0    0 -.22224746E+03 0.25946778E+03 0.32034147E+02 0.35243562E+03 0.80419002E+02 0.0000E+00 0.9000E+01
        2  1    1    2  501    0 0.31021425E+03 -.51003601E+03 0.15911054E+03 0.61780732E+03 0.32000000E+00 0.0000E+00 0.9000E+01
#aMCatNLO 1  0  0  5  1 0.83287669D+02 0.00000000D+00  -5  6  0 0.00000000D+00 0.00000000D+00 0.00000000D+00 0.00000000D+00 0.00000000D+00
  <mgrwgt>
 0.6397408169D-02    7    2    0
 0.652856019234799D+03 0.000000000000000D+00 0.000000000000000D+00 0.652856019234799D+03
 0.652856019234799D+03 -.000000000000000D+00 -.000000000000000D+00 -.652856019234799D+03
 0.339353732351423D+03 -.879667952873023D+02 0.250568250662541D+03 -.170333057119389D+03
 0.351828465268747D+03 -.222247473404836D+03 0.259467799276637D+03 0.244657867786272D+02
 0.614529840849428D+03 0.310214268692138D+03 -.510036049939178D+03 0.145867270340762D+03
 0.000000000000000D+00 0.000000000000000D+00 0.000000000000000D+00 0.000000000000000D+00
 0.652856019234799D+03 0.000000000000000D+00 0.000000000000000D+00 0.652856019234799D+03
 0.652856019234799D+03 -.000000000000000D+00 -.000000000000000D+00 -.652856019234799D+03
 0.332971488476125D+03 -.842204143961803D+02 0.244408671609871D+03 -.168571454222950D+03
 0.344810428183054D+03 -.218365610048248D+03 0.253085467925005D+03 0.262910955049103D+02
 0.450350426442213D+03 0.169712195777544D+03 -.382292333939580D+03 0.166930670076160D+03
 0.177579695368207D+03 0.132873828666885D+03 -.115201805595295D+03 -.246503113581205D+02
0.126049456701D-03 0.000000000000D+00 0.000000000000D+00 0.820583152673D-07 0.000000000000D+00  6 21 1 25 -24 2 21 2 0.10262158D+00 0.98303601D-01 0.38530136D+06 0.38530136D+06 0.38530136D+06 0.11133107D+01  1  2  2  3  6  5        2 0.366593026765D-02 0.100000000000D+01
-.119241732229D-04 0.665181257834D-05 -.254457536621D-06 0.820583152673D-07 0.000000000000D+00  6 21 1 25 -24 2 21 4 0.10262158D+00 0.98303601D-01 0.38530136D+06 0.38530136D+06 0.38530136D+06 0.11133107D+01  1  2  3  3  6  5        2 -.429837428776D-03 0.100000000000D+01
0.147040205068D-04 0.000000000000D+00 0.000000000000D+00 0.820583152673D-07 0.000000000000D+00  6 21 1 25 -24 2 21 4 0.10262158D+00 0.98303601D-01 0.38530136D+06 0.38530136D+06 0.38530136D+06 0.11133107D+01  1  2 15  3  6  5        2 0.530044158965D-03 0.100000000000D+01
0.283601498769D-03 0.000000000000D+00 0.000000000000D+00 0.821948130833D-07 0.000000000000D+00  6 21 1 25 -24 2 21 4 0.10262158D+00 0.98303601D-01 0.37520798D+06 0.37520798D+06 0.37520798D+06 0.11142362D+01  1  2 12  3  6  5        2 0.102752646756D-01 0.100000000000D+01
-.304585638996D-03 0.000000000000D+00 0.000000000000D+00 0.820583152673D-07 0.000000000000D+00  6 21 1 25 -24 2 21 4 0.10262158D+00 0.98303601D-01 0.38530136D+06 0.38530136D+06 0.38530136D+06 0.11133107D+01  1  2  4  3  6  5        2 -.109795711166D-01 0.100000000000D+01
-.281764658584D-03 0.000000000000D+00 0.000000000000D+00 0.820583152673D-07 0.000000000000D+00  6 21 1 25 -24 2 21 4 0.10262158D+00 0.98303601D-01 0.38530136D+06 0.38530136D+06 0.38530136D+06 0.11133107D+01  1  2  5  3  6  5        2 -.101569303046D-01 0.100000000000D+01
0.374297329260D-03 0.000000000000D+00 -.000000000000D+00 0.820583152673D-07 0.000000000000D+00  6 21 1 25 -24 2 21 4 0.10262158D+00 0.98303601D-01 0.38530136D+06 0.38530136D+06 0.38530136D+06 0.11133107D+01  1  2  6  3  6  5        2 0.134925079164D-01 0.100000000000D+01
  </mgrwgt>
  </event>
  <event>
  5     66 -.42050411E-03 0.19142767E+03 0.75467711E-02 0.10634548E+00
       21 -1    0    0  501  502 0.00000000E+00 0.00000000E+00 0.10202237E+04 0.10202240E+04 0.75000000E+00 0.0000E+00 0.9000E+01
        3 -1    0    0  502    0 0.00000000E+00 0.00000000E+00 -.11814100E+03 0.11814205E+03 0.50000000E+00 0.0000E+00 0.9000E+01
       25  1    1    2    0    0 0.18652805E+03 0.20512840E+03 0.42265976E+03 0.52070783E+03 0.12500000E+03 0.0000E+00 0.9000E+01
      -24  1    1    2    0    0 0.22064167E+02 -.65605542E+02 0.27238335E+03 0.29231972E+03 0.80419002E+02 0.0000E+00 0.9000E+01
        4  1    1    2  501    0 -.20859221E+03 -.13952285E+03 0.20703963E+03 0.32533851E+03 0.15500000E+01 0.0000E+00 0.9000E+01
#aMCatNLO 1  0  0  2  1 0.33246442D+02 0.00000000D+00  -5  6  0 0.00000000D+00 0.00000000D+00 0.00000000D+00 0.00000000D+00 0.00000000D+00
  <mgrwgt>
 -.6233138282D-03    9    2    0
 0.347175758156914D+03 0.000000000000000D+00 0.000000000000000D+00 0.347175758156914D+03
 0.347175758156914D+03 0.000000000000000D+00 0.000000000000000D+00 -.347175758156914D+03
 0.304576611431903D+03 0.186529618301483D+03 0.205129446995652D+03 0.164476047770427D+02
 0.125375329543962D+03 0.220648141668258D+02 -.656051095648584D+02 0.667897512995279D+02
 0.264399575337964D+03 -.208594432468309D+03 -.139524337430794D+03 -.832373560765705D+02
 0.000000000000000D+00 -.000000000000000D+00 0.000000000000000D+00 -.000000000000000D+00
 0.350055638165304D+03 0.000000000000000D+00 0.000000000000000D+00 0.350055638165304D+03
 0.458901539284980D+03 0.000000000000000D+00 0.000000000000000D+00 -.458901539284980D+03
 0.300160259734558D+03 0.193027165459597D+03 0.192200861641276D+03 0.164476047770427D+02
 0.128800116824066D+03 0.247957820107832D+02 -.710390910368613D+02 0.667897512995279D+02
 0.266186625233203D+03 -.202893591285918D+03 -.150867665924567D+03 -.832373560765705D+02
 0.113810175658457D+03 -.149293561844620D+02 0.297058953201522D+02 -.108845901119676D+03
0.171968242678D-04 0.000000000000D+00 0.000000000000D+00 0.506428954778D-07 0.000000000000D+00  6 21 3 25 -24 4 21 2 0.15695760D+00 0.18175640D-01 0.10929369D+06 0.10929369D+06 0.10929369D+06 0.11600428D+01  1  2  2  2  6  2        3 0.771324008092D-03 0.100000000000D+01
-.201346381649D-05 0.907501348803D-06 -.347154335720D-07 0.506428954778D-07 0.000000000000D+00  6 21 3 25 -24 4 21 4 0.15695760D+00 0.18175640D-01 0.10929369D+06 0.10929369D+06 0.10929369D+06 0.11600428D+01  1  2  3  2  6  2        3 -.121529145563D-03 0.100000000000D+01
0.198214024346D-05 0.000000000000D+00 0.000000000000D+00 0.506428954778D-07 0.000000000000D+00  6 21 3 25 -24 4 21 4 0.15695760D+00 0.18175640D-01 0.10929369D+06 0.10929369D+06 0.10929369D+06 0.11600428D+01  1  2 15  2  6  2        3 0.119638509617D-03 0.100000000000D+01
0.539160005308D-03 0.000000000000D+00 0.000000000000D+00 0.502920567554D-07 0.000000000000D+00  6 21 3 25 -24 4 21 4 0.15695760D+00 0.24082888D-01 0.12107730D+06 0.12107730D+06 0.12107730D+06 0.11560176D+01  1  2 12  2  6  2        3 0.192403564702D-01 0.100000000000D+01
-.544584995228D-03 0.000000000000D+00 0.000000000000D+00 0.506428954778D-07 0.000000000000D+00  6 21 3 25 -24 4 21 4 0.15695760D+00 0.18175640D-01 0.10929369D+06 0.10929369D+06 0.10929369D+06 0.11600428D+01  1  2  4  2  6  2        3 -.328701954385D-01 0.100000000000D+01
-.584772525853D-03 0.000000000000D+00 -.303197769132D-04 0.506428954778D-07 0.000000000000D+00  6 21 3 25 -24 4 21 4 0.15695760D+00 0.24147361D-01 0.10929369D+06 0.10929369D+06 0.10929369D+06 0.11600428D+01  1  2  5  2  6  2        3 -.211507855263D-01 0.100000000000D+01
0.571357587833D-03 0.000000000000D+00 0.291360795823D-04 0.506428954778D-07 0.000000000000D+00  6 21 3 25 -24 4 21 4 0.15695760D+00 0.18175640D-01 0.10929369D+06 0.10929369D+06 0.10929369D+06 0.11600428D+01  1  2  6  2  6  2        3 0.344861421852D-01 0.100000000000D+01
0.198981103271D-04 0.000000000000D+00 0.000000000000D+00 0.502920567554D-07 0.000000000000D+00  6 21 21 25 -24 4 -3 4 0.15695760D+00 0.24082888D-01 0.12107730D+06 0.12107730D+06 0.12107730D+06 0.11560176D+01  1  2 12 10  6  2        3 0.138368869149D-01 0.100000000000D+01
-.211059286054D-04 0.000000000000D+00 -.112668390435D-05 0.506428954778D-07 0.000000000000D+00  6 21 21 25 -24 4 -3 4 0.15695760D+00 0.24147361D-01 0.10929369D+06 0.10929369D+06 0.10929369D+06 0.11600428D+01  1  2  5 10  6  2        3 -.149351518058D-01 0.100000000000D+01
  </mgrwgt>
  </event>
  <event>
  6     66 -.42050411E-03 0.26899784E+02 0.75467711E-02 0.11901066E+00
       21 -1    0    0  503  502 0.00000000E+00 0.00000000E+00 0.22665742E+02 0.22678147E+02 0.75000000E+00 0.0000E+00 0.9000E+01
        1 -1    0    0  502    0 0.00000000E+00 0.00000000E+00 -.19719542E+04 0.19719542E+04 0.32000000E+00 0.0000E+00 0.9000E+01
       25  1    1    2    0    0 0.84859931E+02 -.17787053E+02 -.87101728E+03 0.88420229E+03 0.12500000E+03 0.0000E+00 0.9000E+01
      -24  1    1    2    0    0 -.10369963E+03 -.86997130E+01 -.10654928E+04 0.10735788E+04 0.80419002E+02 0.0000E+00 0.9000E+01
        2  1    1    2  501    0 0.60565564E+01 0.16724441E+02 -.10308197E+02 0.20560888E+02 0.32000000E+00 0.0000E+00 0.9000E+01
       21  1    1    2  503  501 0.12783139E+02 0.97623250E+01 -.24701322E+01 0.16290356E+02 0.75000000E+00 0.0000E+00 0.9000E+01
#aMCatNLO 2  0  0  1  2 0.16084516D+02 0.00000000D+00  -5  6  0 0.00000000D+00 0.00000000D+00 0.00000000D+00 0.00000000D+00 0.00000000D+00
  <mgrwgt>
 -.6725579716D-01    2    2    0
 0.175696351652864D+03 0.000000000000000D+00 0.000000000000000D+00 0.175696351652864D+03
 0.175696351652864D+03 0.000000000000000D+00 0.000000000000000D+00 -.175696351652864D+03
 0.154964142675779D+03 0.904442556368217D+02 -.135224506568066D+02 -.508581023778758D+01
 0.137096303273184D+03 -.986446378518504D+02 -.483934958315620D+01 -.507345694324059D+02
 0.593322573567651D+02 0.820038221502872D+01 0.183618002399628D+02 0.558203796701935D+02
 0.000000000000000D+00 0.000000000000000D+00 0.000000000000000D+00 0.000000000000000D+00
 0.252985000507239D+03 0.000000000000000D+00 0.000000000000000D+00 0.252985000507239D+03
 0.176719149401602D+03 0.000000000000000D+00 0.000000000000000D+00 -.176719149401602D+03
 0.152211851857782D+03 0.848598783367294D+02 -.177871703448317D+02 -.508581023778758D+01
 0.140962841669689D+03 -.103699678625658D+03 -.869982153075736D+01 -.507345694324059D+02
 0.585859403931606D+02 0.605666096564402D+01 0.167246669077043D+02 0.558203796701935D+02
 0.779435159882097D+02 0.127831393232845D+02 0.976232496788478D+01 0.762658511056371D+02
-.175777221727D-04 0.000000000000D+00 0.000000000000D+00 0.248459217574D-05 0.000000000000D+00  6 21 1 25 -24 2 21 4 0.34926163D-02 0.30161959D+00 0.25203977D+05 0.25203977D+05 0.25203977D+05 0.12229195D+01  1  2 13  1  6  1       21 -.799689628888D-01 0.100000000000D+01
0.283546002973D-05 0.000000000000D+00 0.000000000000D+00 0.250323068501D-05 0.285078655895D-06  6 21 1 25 -24 2 21 4 0.34879580D-02 0.30337544D+00 0.25203977D+05 0.25203977D+05 0.25203977D+05 0.12229195D+01  1  2  1  1  6  1       21 0.127131657331D-01 0.100000000000D+01
  </mgrwgt>
  </event>
  <event>
  5     66 -.42050411E-03 0.25223255E+02 0.75467711E-02 0.12066710E+00
       21 -1    0    0  501  502 0.00000000E+00 0.00000000E+00 0.53608181E+01 0.54130278E+01 0.75000000E+00 0.0000E+00 0.9000E+01
        1 -1    0    0  502    0 0.00000000E+00 0.00000000E+00 -.30830032E+04 0.30830032E+04 0.32000000E+00 0.0000E+00 0.9000E+01
       25  1    1    2    0    0 -.16117432E+02 -.27539056E+02 -.15553646E+04 0.15607057E+04 0.12500000E+03 0.0000E+00 0.9000E+01
      -24  1    1    2    0    0 0.82686945E+01 0.35686883E+01 -.14222858E+04 0.14245860E+04 0.80419002E+02 0.0000E+00 0.9000E+01
        2  1    1    2  501    0 0.78487374E+01 0.23970368E+02 -.99991966E+02 0.10312457E+03 0.32000000E+00 0.0000E+00 0.9000E+01
#aMCatNLO 1  0  0  1  2 0.51300338D+02 0.00000000D+00  -5  6  0 0.00000000D+00 0.00000000D+00 0.00000000D+00 0.00000000D+00 0.00000000D+00
  <mgrwgt>
 -.1397356856D+01   12    2    0
 0.128872288703236D+03 0.000000000000000D+00 0.000000000000000D+00 0.128872288703236D+03
 0.128872288703236D+03 0.000000000000000D+00 0.000000000000000D+00 -.128872288703236D+03
 0.129014459860351D+03 -.161175474526446D+02 -.275394089942682D+02 -.123954403559759D+01
 0.870142741881109D+02 0.826861650146191D+01 0.356845019858861D+01 -.319869364341939D+02
 0.417158433580101D+02 0.784893095118268D+01 0.239709587956796D+02 0.332264804697915D+02
 0.000000000000000D+00 0.000000000000000D+00 0.000000000000000D+00 0.000000000000000D+00
 0.363665111444456D+04 0.000000000000000D+00 0.000000000000000D+00 0.363665111444456D+04
 0.131587843177926D+03 0.000000000000000D+00 0.000000000000000D+00 -.131587843177926D+03
 0.136021235725853D+03 -.414081676897730D+02 -.340676348980598D+02 -.123954403559759D+01
 0.869500433561877D+02 -.833165871842092D+01 -.716551342868765D+00 -.319869364341939D+02
 0.398290098085436D+02 0.676397965467741D-01 0.219623870009055D+02 0.332264804697915D+02
 0.350543866873190D+04 0.496721866116472D+02 0.128217992400230D+02 0.350506327126663D+04
0.312384530878D-06 0.000000000000D+00 0.000000000000D+00 0.196265976466D-05 0.000000000000D+00  6 21 1 25 -24 2 21 2 0.82875866D-03 0.47431220D+00 0.13824286D+05 0.13824286D+05 0.13824286D+05 0.12518841D+01  1  2  2  1  6  1       21 0.186469794201D-02 0.100000000000D+01
0.195940227962D-07 0.164849845938D-07 -.630614365870D-09 0.196265976466D-05 0.000000000000D+00  6 21 1 25 -24 2 21 4 0.82875866D-03 0.47431220D+00 0.13824286D+05 0.13824286D+05 0.13824286D+05 0.12518841D+01  1  2  3  1  6  1       21 0.183303520463D-03 0.100000000000D+01
0.316485410757D-07 0.000000000000D+00 0.000000000000D+00 0.196265976466D-05 0.000000000000D+00  6 21 1 25 -24 2 21 4 0.82875866D-03 0.47431220D+00 0.13824286D+05 0.13824286D+05 0.13824286D+05 0.12518841D+01  1  2 15  1  6  1       21 0.296074423157D-03 0.100000000000D+01
-.329027855281D-01 0.000000000000D+00 -.773297406385D-04 0.196265976466D-05 0.000000000000D+00  6 21 1 25 -24 2 21 4 0.23617235D-01 0.47431220D+00 0.13824286D+05 0.13824286D+05 0.13824286D+05 0.12518841D+01  1  2  5  1  6  1       21 -.109847274847D+01 0.100000000000D+01
-.146014877379D-01 0.000000000000D+00 -.343030942950D-04 0.196265976466D-05 0.000000000000D+00  6 -1 1 25 -24 2 -1 4 0.23617235D-01 0.47431220D+00 0.13824286D+05 0.13824286D+05 0.13824286D+05 0.12518841D+01  1  2  5  4  6  1       21 -.394447285942D-01 0.100000000000D+01
-.146014877379D-01 0.000000000000D+00 -.343030942950D-04 0.196265976466D-05 0.000000000000D+00  6 1 1 25 -24 2 1 4 0.23617235D-01 0.47431220D+00 0.13824286D+05 0.13824286D+05 0.13824286D+05 0.12518841D+01  1  2  5  5  6  1       21 -.629368595356D-01 0.100000000000D+01
-.146014877379D-01 0.000000000000D+00 -.343030942950D-04 0.196265976466D-05 0.000000000000D+00  6 -2 1 25 -24 2 -2 4 0.23617235D-01 0.47431220D+00 0.13824286D+05 0.13824286D+05 0.13824286D+05 0.12518841D+01  1  2  5  6  6  1       21 -.355047448107D-01 0.100000000000D+01
-.146014877379D-01 0.000000000000D+00 -.343030942950D-04 0.196265976466D-05 0.000000000000D+00  6 2 1 25 -24 2 2 4 0.23617235D-01 0.47431220D+00 0.13824286D+05 0.13824286D+05 0.13824286D+05 0.12518841D+01  1  2  5  7  6  1       21 -.795965695423D-01 0.100000000000D+01
-.146014877379D-01 0.000000000000D+00 -.343030942950D-04 0.196265976466D-05 0.000000000000D+00  6 -3 1 25 -24 2 -3 4 0.23617235D-01 0.47431220D+00 0.13824286D+05 0.13824286D+05 0.13824286D+05 0.12518841D+01  1  2  5  8  6  1       21 -.227159160045D-01 0.100000000000D+01
-.146014877379D-01 0.000000000000D+00 -.343030942950D-04 0.196265976466D-05 0.000000000000D+00  6 -4 1 25 -24 2 -4 4 0.23617235D-01 0.47431220D+00 0.13824286D+05 0.13824286D+05 0.13824286D+05 0.12518841D+01  1  2  5  8  6  1       21 -.191574872947D-01 0.100000000000D+01
-.146014877379D-01 0.000000000000D+00 -.343030942950D-04 0.196265976466D-05 0.000000000000D+00  6 3 1 25 -24 2 3 4 0.23617235D-01 0.47431220D+00 0.13824286D+05 0.13824286D+05 0.13824286D+05 0.12518841D+01  1  2  5  9  6  1       21 -.227143902594D-01 0.100000000000D+01
-.146014877379D-01 0.000000000000D+00 -.343030942950D-04 0.196265976466D-05 0.000000000000D+00  6 4 1 25 -24 2 4 4 0.23617235D-01 0.47431220D+00 0.13824286D+05 0.13824286D+05 0.13824286D+05 0.12518841D+01  1  2  5  9  6  1       21 -.191574872947D-01 0.100000000000D+01
  </mgrwgt>
  </event>
  <event>
  5     66 0.42050411E-03 0.69546717E+02 0.75467711E-02 0.11158799E+00
       21 -1    0    0  501  502 0.00000000E+00 0.00000000E+00 0.32776825E+02 0.32785405E+02 0.75000000E+00 0.0000E+00 0.9000E+01
        1 -1    0    0  502    0 0.00000000E+00 0.00000000E+00 -.21888582E+04 0.21888582E+04 0.32000000E+00 0.0000E+00 0.9000E+01
       25  1    1    2    0    0 -.15016722E+03 0.60374384E+02 -.81027454E+03 0.83568241E+03 0.12500000E+03 0.0000E+00 0.9000E+01
      -24  1    1    2    0    0 0.16665639E+03 0.71891152E+01 -.12686171E+04 0.12820619E+04 0.80419002E+02 0.0000E+00 0.9000E+01
        2  1    1    2  501    0 -.16489173E+02 -.67563499E+02 -.77189714E+02 0.10389934E+03 0.32000000E+00 0.0000E+00 0.9000E+01
#aMCatNLO 1  0  0  1  2 0.33227119D+02 0.00000000D+00  -5  6  0 0.00000000D+00 0.00000000D+00 0.00000000D+00 0.00000000D+00 0.00000000D+00
  <mgrwgt>
 0.8989851486D-01   23    2    0
 0.267868210386203D+03 0.000000000000000D+00 0.000000000000000D+00 0.267868210386203D+03
 0.267868210386203D+03 0.000000000000000D+00 0.000000000000000D+00 -.267868210386203D+03
 0.204523447926906D+03 -.150167194746075D+03 0.603744753176413D+02 0.309468966512576D+01
 0.211004684641399D+03 0.166656413198357D+03 0.718920947471566D+01 -.101142059467033D+03
 0.120208288204100D+03 -.164892184522818D+02 -.675636847923570D+02 0.980473698019077D+02
 0.000000000000000D+00 0.000000000000000D+00 -.000000000000000D+00 0.000000000000000D+00
 0.291778139766167D+03 0.000000000000000D+00 0.000000000000000D+00 0.291778139766167D+03
 0.280180635734446D+03 0.000000000000000D+00 0.000000000000000D+00 -.280180635734446D+03
 0.214952175993335D+03 -.162327854809193D+03 0.649578972349901D+02 0.309468966512576D+01
 0.201895312202408D+03 0.154686381531786D+03 0.117007824655863D+02 -.101142059467033D+03
 0.119918339705926D+03 -.234505247299307D+02 -.649399288777316D+02 0.980473698019077D+02
 0.351929475989445D+02 0.310919980073383D+02 -.117187508228448D+02 0.115975040317217D+02
0.145096437128D-04 0.000000000000D+00 0.000000000000D+00 0.243525990168D-06 0.000000000000D+00  6 21 1 25 -24 2 21 2 0.50432502D-02 0.33674807D+00 0.52723312D+05 0.52723312D+05 0.52723312D+05 0.11900074D+01  1  2  2  1  6  1       21 0.156581299299D-01 0.100000000000D+01
0.449186373231D-06 0.765694935003D-06 -.292907902424D-07 0.243525990168D-06 0.000000000000D+00  6 21 1 25 -24 2 21 4 0.50432502D-02 0.33674807D+00 0.52723312D+05 0.52723312D+05 0.52723312D+05 0.11900074D+01  1  2  3  1  6  1       21 0.686450221606D-03 0.100000000000D+01
0.160561475411D-05 0.000000000000D+00 0.000000000000D+00 0.243525990168D-06 0.000000000000D+00  6 21 1 25 -24 2 21 4 0.50432502D-02 0.33674807D+00 0.52723312D+05 0.52723312D+05 0.52723312D+05 0.11900074D+01  1  2 15  1  6  1       21 0.245371335699D-02 0.100000000000D+01
0.304786342243D-04 0.000000000000D+00 0.000000000000D+00 0.241142255818D-06 0.000000000000D+00  6 21 1 25 -24 2 21 4 0.56012915D-02 0.33674807D+00 0.60500121D+05 0.60500121D+05 0.60500121D+05 0.11841689D+01  1  2 12  1  6  1       21 0.379438040394D-01 0.100000000000D+01
-.873324941864D-05 0.000000000000D+00 0.000000000000D+00 0.243525990168D-06 0.000000000000D+00  6 21 1 25 -24 2 21 4 0.50432502D-02 0.33674807D+00 0.52723312D+05 0.52723312D+05 0.52723312D+05 0.11900074D+01  1  2  4  1  6  1       21 -.133462218714D-01 0.100000000000D+01
-.160632091211D-03 0.000000000000D+00 -.363731127991D-04 0.243525990168D-06 0.000000000000D+00  6 21 1 25 -24 2 21 4 0.57974242D-02 0.33674807D+00 0.52723312D+05 0.52723312D+05 0.52723312D+05 0.11900074D+01  1  2  5  1  6  1       21 -.193458976705D+00 0.100000000000D+01
0.158537326839D-03 0.000000000000D+00 0.349981942788D-04 0.243525990168D-06 0.000000000000D+00  6 21 1 25 -24 2 21 4 0.50432502D-02 0.33674807D+00 0.52723312D+05 0.52723312D+05 0.52723312D+05 0.11900074D+01  1  2  6  1  6  1       21 0.242278015602D+00 0.100000000000D+01
0.822399749815D-06 0.000000000000D+00 0.000000000000D+00 0.241142255818D-06 0.000000000000D+00  6 -1 1 25 -24 2 -1 4 0.56012915D-02 0.33674807D+00 0.60500121D+05 0.60500121D+05 0.60500121D+05 0.11841689D+01  1  2 12  4  6  1       21 0.612299925333D-04 0.100000000000D+01
-.537336580892D-05 0.000000000000D+00 -.135958603921D-05 0.243525990168D-06 0.000000000000D+00  6 -1 1 25 -24 2 -1 4 0.57974242D-02 0.33674807D+00 0.52723312D+05 0.52723312D+05 0.52723312D+05 0.11900074D+01  1  2  5  4  6  1       21 -.388685461707D-03 0.100000000000D+01
0.822399749815D-06 0.000000000000D+00 0.000000000000D+00 0.241142255818D-06 0.000000000000D+00  6 1 1 25 -24 2 1 4 0.56012915D-02 0.33674807D+00 0.60500121D+05 0.60500121D+05 0.60500121D+05 0.11841689D+01  1  2 12  5  6  1       21 0.698332766134D-04 0.100000000000D+01
-.537336580892D-05 0.000000000000D+00 -.135958603921D-05 0.243525990168D-06 0.000000000000D+00  6 1 1 25 -24 2 1 4 0.57974242D-02 0.33674807D+00 0.52723312D+05 0.52723312D+05 0.52723312D+05 0.11900074D+01  1  2  5  5  6  1       21 -.445301511271D-03 0.100000000000D+01
0.822399749815D-06 0.000000000000D+00 0.000000000000D+00 0.241142255818D-06 0.000000000000D+00  6 -2 1 25 -24 2 -2 4 0.56012915D-02 0.33674807D+00 0.60500121D+05 0.60500121D+05 0.60500121D+05 0.11841689D+01  1  2 12  6  6  1       21 0.597227871982D-04 0.100000000000D+01
-.537336580892D-05 0.000000000000D+00 -.135958603921D-05 0.243525990168D-06 0.000000000000D+00  6 -2 1 25 -24 2 -2 4 0.57974242D-02 0.33674807D+00 0.52723312D+05 0.52723312D+05 0.52723312D+05 0.11900074D+01  1  2  5  6  6  1       21 -.378772976308D-03 0.100000000000D+01
0.822399749815D-06 0.000000000000D+00 0.000000000000D+00 0.241142255818D-06 0.000000000000D+00  6 2 1 25 -24 2 2 4 0.56012915D-02 0.33674807D+00 0.60500121D+05 0.60500121D+05 0.60500121D+05 0.11841689D+01  1  2 12  7  6  1       21 0.756374416777D-04 0.100000000000D+01
-.537336580892D-05 0.000000000000D+00 -.135958603921D-05 0.243525990168D-06 0.000000000000D+00  6 2 1 25 -24 2 2 4 0.57974242D-02 0.33674807D+00 0.52723312D+05 0.52723312D+05 0.52723312D+05 0.11900074D+01  1  2  5  7  6  1       21 -.483470653230D-03 0.100000000000D+01
0.822399749815D-06 0.000000000000D+00 0.000000000000D+00 0.241142255818D-06 0.000000000000D+00  6 -3 1 25 -24 2 -3 4 0.56012915D-02 0.33674807D+00 0.60500121D+05 0.60500121D+05 0.60500121D+05 0.11841689D+01  1  2 12  8  6  1       21 0.440573107364D-04 0.100000000000D+01
0.822399749815D-06 0.000000000000D+00 0.000000000000D+00 0.241142255818D-06 0.000000000000D+00  6 -4 1 25 -24 2 -4 4 0.56012915D-02 0.33674807D+00 0.60500121D+05 0.60500121D+05 0.60500121D+05 0.11841689D+01  1  2 12  8  6  1       21 0.395395120054D-04 0.100000000000D+01
-.537336580892D-05 0.000000000000D+00 -.135958603921D-05 0.243525990168D-06 0.000000000000D+00  6 -3 1 25 -24 2 -3 4 0.57974242D-02 0.33674807D+00 0.52723312D+05 0.52723312D+05 0.52723312D+05 0.11900074D+01  1  2  5  8  6  1       21 -.277954311260D-03 0.100000000000D+01
-.537336580892D-05 0.000000000000D+00 -.135958603921D-05 0.243525990168D-06 0.000000000000D+00  6 -4 1 25 -24 2 -4 4 0.57974242D-02 0.33674807D+00 0.52723312D+05 0.52723312D+05 0.52723312D+05 0.11900074D+01  1  2  5  8  6  1       21 -.248950325028D-03 0.100000000000D+01
0.822399749815D-06 0.000000000000D+00 0.000000000000D+00 0.241142255818D-06 0.000000000000D+00  6 3 1 25 -24 2 3 4 0.56012915D-02 0.33674807D+00 0.60500121D+05 0.60500121D+05 0.60500121D+05 0.11841689D+01  1  2 12  9  6  1       21 0.440531056612D-04 0.100000000000D+01
0.822399749815D-06 0.000000000000D+00 0.000000000000D+00 0.241142255818D-06 0.000000000000D+00  6 4 1 25 -24 2 4 4 0.56012915D-02 0.33674807D+00 0.60500121D+05 0.60500121D+05 0.60500121D+05 0.11841689D+01  1  2 12  9  6  1       21 0.395395120054D-04 0.100000000000D+01
-.537336580892D-05 0.000000000000D+00 -.135958603921D-05 0.243525990168D-06 0.000000000000D+00  6 3 1 25 -24 2 3 4 0.57974242D-02 0.33674807D+00 0.52723312D+05 0.52723312D+05 0.52723312D+05 0.11900074D+01  1  2  5  9  6  1       21 -.277927085404D-03 0.100000000000D+01
-.537336580892D-05 0.000000000000D+00 -.135958603921D-05 0.243525990168D-06 0.000000000000D+00  6 4 1 25 -24 2 4 4 0.57974242D-02 0.33674807D+00 0.52723312D+05 0.52723312D+05 0.52723312D+05 0.11900074D+01  1  2  5  9  6  1       21 -.248950325028D-03 0.100000000000D+01
  </mgrwgt>
  </event>
  <event>
  5     66 0.42050411E-03 0.41200058E+02 0.75467711E-02 0.11836269E+00
       21 -1    0    0  501  502 0.00000000E+00 0.00000000E+00 0.28822319E+02 0.28832075E+02 0.75000000E+00 0.0000E+00 0.9000E+01
        1 -1    0    0  502    0 -.00000000E+00 -.00000000E+00 -.15725085E+04 0.15725085E+04 0.32000000E+00 0.0000E+00 0.9000E+01
       25  1    1    2    0    0 0.27902305E+02 -.69489761E+02 -.73848489E+03 0.75272326E+03 0.12500000E+03 0.0000E+00 0.9000E+01
      -24  1    1    2    0    0 -.36096131E+02 0.10986670E+03 -.79333315E+03 0.80574085E+03 0.80419002E+02 0.0000E+00 0.9000E+01
        2  1    1    2  501    0 0.81938259E+01 -.40376936E+02 -.11868090E+02 0.42876447E+02 0.32000000E+00 0.0000E+00 0.9000E+01
#aMCatNLO 1  0  0  5  2 0.21163209D+01 0.00000000D+00  -5  6  0 0.00000000D+00 0.00000000D+00 0.00000000D+00 0.00000000D+00 0.00000000D+00
  <mgrwgt>
 0.2351987267D-01    7    2    0
 0.212911196207738D+03 0.000000000000000D+00 0.000000000000000D+00 0.212911196207738D+03
 0.212911196207738D+03 -.000000000000000D+00 -.000000000000000D+00 -.212911196207738D+03
 0.153532091159631D+03 0.279022946405180D+02 -.694897076922794D+02 -.483709157912520D+02
 0.154074027349265D+03 -.360961422377369D+02 0.109866750954112D+03 -.624336087343345D+02
 0.118216273906580D+03 0.819384759721898D+01 -.403770432618322D+02 0.110804524525586D+03
 0.000000000000000D+00 0.000000000000000D+00 0.000000000000000D+00 0.000000000000000D+00
 0.212911196207738D+03 0.000000000000000D+00 0.000000000000000D+00 0.212911196207738D+03
 0.212911196207738D+03 -.000000000000000D+00 -.000000000000000D+00 -.212911196207738D+03
 0.153460104552713D+03 0.279418036958017D+02 -.696843975269994D+02 -.478366390631066D+02
 0.153709132005904D+03 -.360565313875975D+02 0.109671559502142D+03 -.618979554452436D+02
 0.116437279054118D+03 0.597368976820176D+01 -.400548453309186D+02 0.109167597525988D+03
 0.221587680274082D+01 0.214103792359405D+01 0.676833557761184D-01 0.566996982362189D+00
0.503015541349D-05 0.000000000000D+00 0.000000000000D+00 0.130570683739D-05 0.000000000000D+00  6 21 1 25 -24 2 21 2 0.44349559D-02 0.24192513D+00 0.26858438D+05 0.26858438D+05 0.26858438D+05 0.12199730D+01  1  2  2  3  6  5        2 0.181041057550D-01 0.100000000000D+01
0.528903310894D-06 0.265448593958D-06 -.101544345278D-07 0.130570683739D-05 0.000000000000D+00  6 21 1 25 -24 2 21 4 0.44349559D-02 0.24192513D+00 0.26858438D+05 0.26858438D+05 0.26858438D+05 0.12199730D+01  1  2  3  3  6  5        2 0.283316839884D-02 0.100000000000D+01
0.543439954756D-06 0.000000000000D+00 0.000000000000D+00 0.130570683739D-05 0.000000000000D+00  6 21 1 25 -24 2 21 4 0.44349559D-02 0.24192513D+00 0.26858438D+05 0.26858438D+05 0.26858438D+05 0.12199730D+01  1  2 15  3  6  5        2 0.291103662006D-02 0.100000000000D+01
-.721060251503D-04 0.000000000000D+00 0.000000000000D+00 0.130570683739D-05 0.000000000000D+00  6 21 1 25 -24 2 21 4 0.44349559D-02 0.24192513D+00 0.26858438D+05 0.26858438D+05 0.26858438D+05 0.12199730D+01  1  2  4  3  6  5        2 -.386249258824D+00 0.100000000000D+01
-.685743313952D-04 0.000000000000D+00 0.000000000000D+00 0.130570683739D-05 0.000000000000D+00  6 21 1 25 -24 2 21 4 0.44349559D-02 0.24192513D+00 0.26858438D+05 0.26858438D+05 0.26858438D+05 0.12199730D+01  1  2  5  3  6  5        2 -.367331088082D+00 0.100000000000D+01
0.698717511733D-04 0.000000000000D+00 -.000000000000D+00 0.130570683739D-05 0.000000000000D+00  6 21 1 25 -24 2 21 4 0.44349559D-02 0.24192513D+00 0.26858438D+05 0.26858438D+05 0.26858438D+05 0.12199730D+01  1  2  6  3  6  5        2 0.374280957065D+00 0.100000000000D+01
0.708501051647D-04 0.000000000000D+00 0.000000000000D+00 0.130570683739D-05 0.240826990345D-05  6 21 1 25 -24 2 21 4 0.44349559D-02 0.24192513D+00 0.27084757D+05 0.27084757D+05 0.27084757D+05 0.12195857D+01  1  2 11  3  6  5        2 0.378970951735D+00 0.100000000000D+01
  </mgrwgt>
  </event>
  <event>
  6     66 0.42050411E-03 0.33659410E+02 0.75467711E-02 0.11987017E+00
       21 -1    0    0  501  502 0.00000000E+00 0.00000000E+00 0.39536076E+03 0.39536147E+03 0.75000000E+00 0.0000E+00 0.9000E+01
        1 -1    0    0  502    0 0.00000000E+00 0.00000000E+00 -.61907667E+02 0.61908494E+02 0.32000000E+00 0.0000E+00 0.9000E+01
       25  1    1    2    0    0 -.85642862E+01 0.67978521E+02 0.10055978E+03 0.17444683E+03 0.12500000E+03 0.0000E+00 0.9000E+01
      -24  1    1    2    0    0 -.20156116E+02 -.15214501E+02 0.11748863E+03 0.14459787E+03 0.80419002E+02 0.0000E+00 0.9000E+01
        2  1    1    2  503    0 0.28234810E+02 -.54517656E+01 0.43603809E+02 0.52233330E+02 0.32000000E+00 0.0000E+00 0.9000E+01
       21  1    1    2  501  503 0.48559201E+00 -.47312255E+02 0.71800868E+02 0.85991932E+02 0.75000000E+00 0.0000E+00 0.9000E+01
#aMCatNLO 2  0  0  5  1 0.22025021D+02 0.00000000D+00  -5  6  0 0.00000000D+00 0.00000000D+00 0.00000000D+00 0.00000000D+00 0.00000000D+00
  <mgrwgt>
 0.4101900095D-01    2    2    0
 0.156448757920414D+03 0.000000000000000D+00 0.000000000000000D+00 0.156448757920414D+03
 0.156448757920414D+03 -.000000000000000D+00 -.000000000000000D+00 -.156448757920414D+03
 0.151616408784628D+03 -.119359148562675D+02 0.741727479400963D+02 -.414544667352792D+02
 0.857462335501099D+02 -.220915058143949D+02 -.116588767301785D+02 0.161628146652280D+02
 0.755348735060895D+02 0.340274206706624D+02 -.625138712099178D+02 0.252916520700512D+02
 0.000000000000000D+00 0.000000000000000D+00 -.000000000000000D+00 0.000000000000000D+00
 0.156448757920414D+03 0.000000000000000D+00 0.000000000000000D+00 0.156448757920414D+03
 0.156448757920414D+03 -.000000000000000D+00 -.000000000000000D+00 -.156448757920414D+03
 0.147807409944392D+03 -.859697944757523D+01 0.680385839628312D+02 -.389727272740856D+02
 0.861044684254218D+02 -.201751639673423D+02 -.151795064182263D+02 0.175871792008780D+02
 0.293215943709538D+02 0.277892214033787D+02 -.508450750438356D+01 0.785256987785617D+01
 0.496640431000602D+02 0.982922011538790D+00 -.477745700402213D+02 0.135329781953514D+02
-.658287640036D-05 0.000000000000D+00 0.000000000000D+00 0.363757729434D-06 0.000000000000D+00  6 21 1 25 -24 2 21 4 0.60824850D-01 0.95243748D-02 0.22937296D+05 0.22937296D+05 0.22937296D+05 0.12273276D+01  1  2 13  3  6  5        2 -.274526357643D-01 0.100000000000D+01
0.164188358913D-04 0.000000000000D+00 0.000000000000D+00 0.364067813387D-06 0.393201968440D-08  6 21 1 25 -24 2 21 4 0.60824850D-01 0.95243748D-02 0.22937296D+05 0.22937296D+05 0.22937296D+05 0.12273276D+01  1  2  1  3  6  5        2 0.684716367110D-01 0.100000000000D+01
  </mgrwgt>
  </event>
  <event>
  6     66 0.42050411E-03 0.46628362E+02 0.75467711E-02 0.11897989E+00
       21 -1    0    0  501  502 0.00000000E+00 0.00000000E+00 0.25820657E+03 0.25820766E+03 0.75000000E+00 0.0000E+00 0.9000E+01
        1 -1    0    0  502    0 -.00000000E+00 -.00000000E+00 -.72791598E+03 0.72791605E+03 0.32000000E+00 0.0000E+00 0.9000E+01
       25  1    1    2    0    0 0.50795508E+02 -.76437848E+01 -.55158053E+03 0.56789497E+03 0.12500000E+03 0.0000E+00 0.9000E+01
      -24  1    1    2    0    0 0.29340758E+02 0.23015813E+02 -.14636578E+03 0.17111623E+03 0.80419002E+02 0.0000E+00 0.9000E+01
        2  1    1    2  503    0 -.53436831E+02 -.32500390E+02 0.13971478E+03 0.15307545E+03 0.32000000E+00 0.0000E+00 0.9000E+01
       21  1    1    2  501  503 -.26699435E+02 0.17128362E+02 0.88522126E+02 0.94037066E+02 0.75000000E+00 0.0000E+00 0.9000E+01
#aMCatNLO 2  0  0  5  1 0.23377490D+02 0.00000000D+00  -5  6  0 0.00000000D+00 0.00000000D+00 0.00000000D+00 0.00000000D+00 0.00000000D+00
  <mgrwgt>
 0.1781934701D+00    1    2    0
 0.433535768074582D+03 0.000000000000000D+00 0.000000000000000D+00 0.433535768074582D+03
 0.433535768074582D+03 -.000000000000000D+00 -.000000000000000D+00 -.433535768074582D+03
 0.348139448815036D+03 0.510253284336563D+02 -.759969978489694D+01 -.320803267194482D+03
 0.115584359363839D+03 0.294170905330984D+02 0.230304557523247D+02 -.741401447772145D+02
 0.403347727970289D+03 -.804424189667547D+02 -.154307559674278D+02 0.394943411971697D+03
 0.000000000000000D+00 0.000000000000000D+00 0.000000000000000D+00 0.000000000000000D+00
 0.433535768074582D+03 0.000000000000000D+00 0.000000000000000D+00 0.433535768074582D+03
 0.433535768074582D+03 -.000000000000000D+00 -.000000000000000D+00 -.433535768074582D+03
 0.347067520090062D+03 0.507955669012395D+02 -.764377347366668D+01 -.319675220515652D+03
 0.115322028607711D+03 0.293407774235956D+02 0.230158170954447D+02 -.737654747929906D+02
 0.249552034590286D+03 -.533930434336838D+02 -.325033132913768D+02 0.241596638027359D+03
 0.155129952861106D+03 -.267433008911513D+02 0.171312696695988D+02 0.151844057281283D+03
0.432519115152D-03 0.000000000000D+00 0.000000000000D+00 0.659751705039D-05 0.110907826660D-06  6 21 1 25 -24 2 21 4 0.39724177D-01 0.11198716D+00 0.25289806D+05 0.25289806D+05 0.25289806D+05 0.12227614D+01  1  2  1  3  6  5        2 0.178193470103D+00 0.100000000000D+01
  </mgrwgt>
  </event>
  <event>
  6     66 0.42050411E-03 0.13135789E+02 0.75467711E-02 0.11981921E+00
       21 -1    0    0  501  502 0.00000000E+00 0.00000000E+00 0.18132878E+02 0.18148382E+02 0.75000000E+00 0.0000E+00 0.9000E+01
        1 -1    0    0  502    0 -.00000000E+00 -.00000000E+00 -.16947183E+04 0.16947183E+04 0.32000000E+00 0.0000E+00 0.9000E+01
       25  1    1    2    0    0 -.63288077E+02 -.44132187E+02 -.40121166E+03 0.42725733E+03 0.12500000E+03 0.0000E+00 0.9000E+01
      -24  1    1    2    0    0 0.50700915E+02 0.48964658E+02 -.70952899E+03 0.71754214E+03 0.80419002E+02 0.0000E+00 0.9000E+01
        2  1    1    2  503    0 -.63149743E+00 -.25487076E+02 -.26500009E+03 0.26622385E+03 0.32000000E+00 0.0000E+00 0.9000E+01
       21  1    1    2  501  503 0.13218659E+02 0.20654605E+02 -.30084470E+03 0.30184341E+03 0.75000000E+00 0.0000E+00 0.9000E+01
#aMCatNLO 2  0  0  5  1 0.23377490D+02 0.00000000D+00  -5  6  0 0.00000000D+00 0.00000000D+00 0.00000000D+00 0.00000000D+00 0.00000000D+00
  <mgrwgt>
 0.5817130196D-01    1    2    0
 0.175338030883390D+03 0.000000000000000D+00 0.000000000000000D+00 0.175338030883390D+03
 0.175338030883390D+03 -.000000000000000D+00 -.000000000000000D+00 -.175338030883390D+03
 0.174287492152459D+03 -.657844002276314D+02 -.431737966462463D+02 0.925179219969450D+02
 0.110324108235517D+03 0.490789454041160D+02 0.495873657986669D+02 -.289230561103188D+02
 0.660644613788031D+02 0.167054548235154D+02 -.641356915242059D+01 -.635948658866262D+02
 0.000000000000000D+00 0.000000000000000D+00 0.000000000000000D+00 -.000000000000000D+00
 0.175338030883390D+03 0.000000000000000D+00 0.000000000000000D+00 0.175338030883390D+03
 0.175338030883390D+03 -.000000000000000D+00 -.000000000000000D+00 -.175338030883390D+03
 0.168740823078062D+03 -.632935562132200D+02 -.441300831109425D+02 0.830356964176677D+02
 0.112543191023445D+03 0.506972598514063D+02 0.489660614565997D+02 -.350837079049021D+02
 0.329241025721008D+02 -.780375004935959D+00 -.253823513560081D+02 -.209552805915368D+02
 0.364679450931723D+02 0.133766713667496D+02 0.205463730103508D+02 -.269967079212288D+02
0.588273688517D-05 0.000000000000D+00 0.000000000000D+00 0.107122081775D-06 0.388630802344D-08  6 21 1 25 -24 2 21 4 0.27908685D-02 0.26072709D+00 0.23064930D+05 0.23064930D+05 0.23064930D+05 0.12270666D+01  1  2  1  3  6  5        2 0.581713019634D-01 0.100000000000D+01
  </mgrwgt>
  </event>
  <event>
  5     66 0.42050411E-03 0.57924820E+02 0.75467711E-02 0.11981595E+00
       21 -1    0    0  501  502 0.00000000E+00 0.00000000E+00 0.66203923E+03 0.66203965E+03 0.75000000E+00 0.0000E+00 0.9000E+01
        1 -1    0    0  502    0 0.00000000E+00 0.00000000E+00 -.29141428E+03 0.29141445E+03 0.32000000E+00 0.0000E+00 0.9000E+01
       25  1    1    2    0    0 0.16588046E+02 -.60261181E+02 -.14499833E+03 0.20138543E+03 0.12500000E+03 0.0000E+00 0.9000E+01
      -24  1    1    2    0    0 0.39443791E+02 0.45573875E+02 -.95244122E+02 0.13846100E+03 0.80419002E+02 0.0000E+00 0.9000E+01
        2  1    1    2  501    0 -.56031836E+02 0.14687306E+02 0.61086741E+03 0.61360767E+03 0.32000000E+00 0.0000E+00 0.9000E+01
#aMCatNLO 1  0  0  1  5 0.76910288D+01 0.00000000D+00  -5  6  0 0.00000000D+00 0.00000000D+00 0.00000000D+00 0.00000000D+00 0.00000000D+00
  <mgrwgt>
 0.4742214858D+00   41    2    0
 0.439235663001902D+03 0.000000000000000D+00 0.000000000000000D+00 0.439235663001902D+03
 0.439235663001902D+03 0.000000000000000D+00 0.000000000000000D+00 -.439235663001902D+03
 0.279749361771472D+03 0.165880510402786D+02 -.602611822996179D+02 -.242338878189372D+03
 0.190462767335941D+03 0.394437943446576D+02 0.455738736080848D+02 -.161790169413797D+03
 0.408259196896391D+03 -.560318453849361D+02 0.146873086915331D+02 0.404129047603169D+03
 0.000000000000000D+00 -.000000000000000D+00 -.000000000000000D+00 0.000000000000000D+00
 0.522185434778122D+03 0.000000000000000D+00 0.000000000000000D+00 0.522185434778122D+03
 0.439430808961291D+03 0.000000000000000D+00 0.000000000000000D+00 -.439430808961291D+03
 0.279713089479971D+03 0.188846906686540D+02 -.594108492002610D+02 -.242338878189372D+03
 0.190932452100895D+03 0.410094532607694D+02 0.461535603740119D+02 -.161790169413797D+03
 0.407859451310119D+03 -.526816108433067D+02 0.159277363520849D+02 0.404129047603169D+03
 0.831112508484285D+02 -.721253308611673D+01 -.267044752583581D+01 0.827546258168317D+02
0.276259803212D-04 0.000000000000D+00 0.000000000000D+00 0.146219686078D-04 0.000000000000D+00  6 21 1 25 -24 2 21 2 0.10185223D+00 0.44833012D-01 0.22227681D+05 0.22227681D+05 0.22227681D+05 0.12288085D+01  1  2  2  1  6  1       21 0.334326743646D-02 0.100000000000D+01
0.501450183997D-05 0.145786303407D-05 -.557688948707D-07 0.146219686078D-04 0.000000000000D+00  6 21 1 25 -24 2 21 4 0.10185223D+00 0.44833012D-01 0.22227681D+05 0.22227681D+05 0.22227681D+05 0.12288085D+01  1  2  3  1  6  1       21 0.916325241707D-03 0.100000000000D+01
0.290137727231D-05 0.000000000000D+00 0.000000000000D+00 0.146219686078D-04 0.000000000000D+00  6 21 1 25 -24 2 21 4 0.10185223D+00 0.44833012D-01 0.22227681D+05 0.22227681D+05 0.22227681D+05 0.12288085D+01  1  2 15  1  6  1       21 0.530183319336D-03 0.100000000000D+01
0.506480901682D-02 0.000000000000D+00 0.000000000000D+00 0.145801477662D-04 0.000000000000D+00  6 21 1 25 -24 2 21 4 0.12110699D+00 0.44833012D-01 0.23073106D+05 0.23073106D+05 0.23073106D+05 0.12270500D+01  1  2 12  1  6  1       21 0.605325644426D+00 0.100000000000D+01
0.398357604548D-02 0.000000000000D+00 0.000000000000D+00 0.145801477662D-04 0.000000000000D+00  6 21 1 25 -24 2 21 4 0.12610206D+00 0.44833012D-01 0.23073106D+05 0.23073106D+05 0.23073106D+05 0.12270500D+01  1  2 12  1  6  1       21 0.430766078778D+00 0.100000000000D+01
-.605725777649D-02 0.000000000000D+00 0.000000000000D+00 0.146219686078D-04 0.000000000000D+00  6 21 1 25 -24 2 21 4 0.10185223D+00 0.44833012D-01 0.22227681D+05 0.22227681D+05 0.22227681D+05 0.12288085D+01  1  2  4  1  6  1       21 -.110687329934D+01 0.100000000000D+01
-.102603852091D-01 0.000000000000D+00 -.522167237232D-04 0.146219686078D-04 0.000000000000D+00  6 21 1 25 -24 2 21 4 0.12110881D+00 0.44833012D-01 0.22227681D+05 0.22227681D+05 0.22227681D+05 0.12288085D+01  1  2  5  1  6  1       21 -.123587481562D+01 0.100000000000D+01
0.969597715288D-02 0.000000000000D+00 0.492133841339D-04 0.146219686078D-04 0.000000000000D+00  6 21 1 25 -24 2 21 4 0.10185223D+00 0.44833012D-01 0.22227681D+05 0.22227681D+05 0.22227681D+05 0.12288085D+01  1  2  6  1  6  1       21 0.177179486452D+01 0.100000000000D+01
0.608773598106D-04 0.000000000000D+00 0.000000000000D+00 0.146219686078D-04 0.810797589907D-05  6 21 1 25 -24 2 21 4 0.12108706D+00 0.44852930D-01 0.23073106D+05 0.23073106D+05 0.23073106D+05 0.12270500D+01  1  2 11  1  6  1       21 0.727475852365D-02 0.100000000000D+01
0.240892783643D-03 0.000000000000D+00 0.000000000000D+00 0.145801477662D-04 0.000000000000D+00  6 -1 1 25 -24 2 -1 4 0.12110699D+00 0.44833012D-01 0.23073106D+05 0.23073106D+05 0.23073106D+05 0.12270500D+01  1  2 12  4  6  1       21 0.334911543111D-02 0.100000000000D+01
0.243231409866D-03 0.000000000000D+00 0.000000000000D+00 0.145801477662D-04 0.000000000000D+00  6 -1 1 25 -24 2 -1 4 0.12610206D+00 0.44833012D-01 0.23073106D+05 0.23073106D+05 0.23073106D+05 0.12270500D+01  1  2 12  4  6  1       21 0.307061856143D-02 0.100000000000D+01
-.486340362507D-03 0.000000000000D+00 -.252073806693D-05 0.146219686078D-04 0.000000000000D+00  6 -1 1 25 -24 2 -1 4 0.12110881D+00 0.44833012D-01 0.22227681D+05 0.22227681D+05 0.22227681D+05 0.12288085D+01  1  2  5  4  6  1       21 -.680687270034D-02 0.100000000000D+01
0.471275420911D-05 0.000000000000D+00 0.000000000000D+00 0.146219686078D-04 0.206146016654D-06  6 -1 1 25 -24 2 -1 4 0.12108706D+00 0.44852930D-01 0.23073106D+05 0.23073106D+05 0.23073106D+05 0.12270500D+01  1  2 11  4  6  1       21 0.655105129857D-04 0.100000000000D+01
0.240892783643D-03 0.000000000000D+00 0.000000000000D+00 0.145801477662D-04 0.000000000000D+00  6 1 1 25 -24 2 1 4 0.12110699D+00 0.44833012D-01 0.23073106D+05 0.23073106D+05 0.23073106D+05 0.12270500D+01  1  2 12  5  6  1       21 0.144809629851D-01 0.100000000000D+01
0.243231409866D-03 0.000000000000D+00 0.000000000000D+00 0.145801477662D-04 0.000000000000D+00  6 1 1 25 -24 2 1 4 0.12610206D+00 0.44833012D-01 0.23073106D+05 0.23073106D+05 0.23073106D+05 0.12270500D+01  1  2 12  5  6  1       21 0.137524389612D-01 0.100000000000D+01
-.486340362507D-03 0.000000000000D+00 -.252073806693D-05 0.146219686078D-04 0.000000000000D+00  6 1 1 25 -24 2 1 4 0.12110881D+00 0.44833012D-01 0.22227681D+05 0.22227681D+05 0.22227681D+05 0.12288085D+01  1  2  5  5  6  1       21 -.294293856638D-01 0.100000000000D+01
0.470318743174D-05 0.000000000000D+00 0.000000000000D+00 0.146219686078D-04 0.205754114260D-06  6 1 1 25 -24 2 1 4 0.12108706D+00 0.44852930D-01 0.23073106D+05 0.23073106D+05 0.23073106D+05 0.12270500D+01  1  2 11  5  6  1       21 0.282640200996D-03 0.100000000000D+01
0.240892783643D-03 0.000000000000D+00 0.000000000000D+00 0.145801477662D-04 0.000000000000D+00  6 -2 1 25 -24 2 -2 4 0.12110699D+00 0.44833012D-01 0.23073106D+05 0.23073106D+05 0.23073106D+05 0.12270500D+01  1  2 12  6  6  1       21 0.244920450895D-02 0.100000000000D+01
0.243231409866D-03 0.000000000000D+00 0.000000000000D+00 0.145801477662D-04 0.000000000000D+00  6 -2 1 25 -24 2 -2 4 0.12610206D+00 0.44833012D-01 0.23073106D+05 0.23073106D+05 0.23073106D+05 0.12270500D+01  1  2 12  6  6  1       21 0.224164874458D-02 0.100000000000D+01
-.486340362507D-03 0.000000000000D+00 -.252073806693D-05 0.146219686078D-04 0.000000000000D+00  6 -2 1 25 -24 2 -2 4 0.12110881D+00 0.44833012D-01 0.22227681D+05 0.22227681D+05 0.22227681D+05 0.12288085D+01  1  2  5  6  6  1       21 -.497645091917D-02 0.100000000000D+01
0.339330275810D-05 0.000000000000D+00 0.000000000000D+00 0.146219686078D-04 0.447531841982D-06  6 -2 1 25 -24 2 -2 4 0.12108706D+00 0.44852930D-01 0.23073106D+05 0.23073106D+05 0.23073106D+05 0.12270500D+01  1  2 11  6  6  1       21 0.344950965359D-04 0.100000000000D+01
0.240892783643D-03 0.000000000000D+00 0.000000000000D+00 0.145801477662D-04 0.000000000000D+00  6 2 1 25 -24 2 2 4 0.12110699D+00 0.44833012D-01 0.23073106D+05 0.23073106D+05 0.23073106D+05 0.12270500D+01  1  2 12  7  6  1       21 0.250622598532D-01 0.100000000000D+01
0.243231409866D-03 0.000000000000D+00 0.000000000000D+00 0.145801477662D-04 0.000000000000D+00  6 2 1 25 -24 2 2 4 0.12610206D+00 0.44833012D-01 0.23073106D+05 0.23073106D+05 0.23073106D+05 0.12270500D+01  1  2 12  7  6  1       21 0.240571924559D-01 0.100000000000D+01
-.486340362507D-03 0.000000000000D+00 -.252073806693D-05 0.146219686078D-04 0.000000000000D+00  6 2 1 25 -24 2 2 4 0.12110881D+00 0.44833012D-01 0.22227681D+05 0.22227681D+05 0.22227681D+05 0.12288085D+01  1  2  5  7  6  1       21 -.509231416972D-01 0.100000000000D+01
0.802414404272D-05 0.000000000000D+00 0.000000000000D+00 0.146219686078D-04 0.180684106360D-06  6 2 1 25 -24 2 2 4 0.12108706D+00 0.44852930D-01 0.23073106D+05 0.23073106D+05 0.23073106D+05 0.12270500D+01  1  2 11  7  6  1       21 0.834534869748D-03 0.100000000000D+01
0.240892783643D-03 0.000000000000D+00 0.000000000000D+00 0.145801477662D-04 0.000000000000D+00  6 -3 1 25 -24 2 -3 4 0.12110699D+00 0.44833012D-01 0.23073106D+05 0.23073106D+05 0.23073106D+05 0.12270500D+01  1  2 12  8  6  1       21 0.155341387568D-02 0.100000000000D+01
0.240892783643D-03 0.000000000000D+00 0.000000000000D+00 0.145801477662D-04 0.000000000000D+00  6 -4 1 25 -24 2 -4 4 0.12110699D+00 0.44833012D-01 0.23073106D+05 0.23073106D+05 0.23073106D+05 0.12270500D+01  1  2 12  8  6  1       21 0.123236919612D-02 0.100000000000D+01
0.243231409866D-03 0.000000000000D+00 0.000000000000D+00 0.145801477662D-04 0.000000000000D+00  6 -3 1 25 -24 2 -3 4 0.12610206D+00 0.44833012D-01 0.23073106D+05 0.23073106D+05 0.23073106D+05 0.12270500D+01  1  2 12  8  6  1       21 0.142438429576D-02 0.100000000000D+01
0.243231409866D-03 0.000000000000D+00 0.000000000000D+00 0.145801477662D-04 0.000000000000D+00  6 -4 1 25 -24 2 -4 4 0.12610206D+00 0.44833012D-01 0.23073106D+05 0.23073106D+05 0.23073106D+05 0.12270500D+01  1  2 12  8  6  1       21 0.112787853657D-02 0.100000000000D+01
-.486340362507D-03 0.000000000000D+00 -.252073806693D-05 0.146219686078D-04 0.000000000000D+00  6 -3 1 25 -24 2 -3 4 0.12110881D+00 0.44833012D-01 0.22227681D+05 0.22227681D+05 0.22227681D+05 0.12288085D+01  1  2  5  8  6  1       21 -.315423671336D-02 0.100000000000D+01
-.486340362507D-03 0.000000000000D+00 -.252073806693D-05 0.146219686078D-04 0.000000000000D+00  6 -4 1 25 -24 2 -4 4 0.12110881D+00 0.44833012D-01 0.22227681D+05 0.22227681D+05 0.22227681D+05 0.12288085D+01  1  2  5  8  6  1       21 -.250138339775D-02 0.100000000000D+01
0.471258839155D-05 0.000000000000D+00 0.000000000000D+00 0.146219686078D-04 0.206138763437D-06  6 -3 1 25 -24 2 -3 4 0.12108706D+00 0.44852930D-01 0.23073106D+05 0.23073106D+05 0.23073106D+05 0.12270500D+01  1  2 11  8  6  1       21 0.303845812195D-04 0.100000000000D+01
0.471258839155D-05 0.000000000000D+00 0.000000000000D+00 0.146219686078D-04 0.206138763437D-06  6 -4 1 25 -24 2 -4 4 0.12108706D+00 0.44852930D-01 0.23073106D+05 0.23073106D+05 0.23073106D+05 0.12270500D+01  1  2 11  8  6  1       21 0.241051702902D-04 0.100000000000D+01
0.240892783643D-03 0.000000000000D+00 0.000000000000D+00 0.145801477662D-04 0.000000000000D+00  6 3 1 25 -24 2 3 4 0.12110699D+00 0.44833012D-01 0.23073106D+05 0.23073106D+05 0.23073106D+05 0.12270500D+01  1  2 12  9  6  1       21 0.155767433710D-02 0.100000000000D+01
0.240892783643D-03 0.000000000000D+00 0.000000000000D+00 0.145801477662D-04 0.000000000000D+00  6 4 1 25 -24 2 4 4 0.12110699D+00 0.44833012D-01 0.23073106D+05 0.23073106D+05 0.23073106D+05 0.12270500D+01  1  2 12  9  6  1       21 0.123236919612D-02 0.100000000000D+01
0.243231409866D-03 0.000000000000D+00 0.000000000000D+00 0.145801477662D-04 0.000000000000D+00  6 3 1 25 -24 2 3 4 0.12610206D+00 0.44833012D-01 0.23073106D+05 0.23073106D+05 0.23073106D+05 0.12270500D+01  1  2 12  9  6  1       21 0.142856699047D-02 0.100000000000D+01
0.243231409866D-03 0.000000000000D+00 0.000000000000D+00 0.145801477662D-04 0.000000000000D+00  6 4 1 25 -24 2 4 4 0.12610206D+00 0.44833012D-01 0.23073106D+05 0.23073106D+05 0.23073106D+05 0.12270500D+01  1  2 12  9  6  1       21 0.112787853657D-02 0.100000000000D+01
-.486340362507D-03 0.000000000000D+00 -.252073806693D-05 0.146219686078D-04 0.000000000000D+00  6 3 1 25 -24 2 3 4 0.12110881D+00 0.44833012D-01 0.22227681D+05 0.22227681D+05 0.22227681D+05 0.12288085D+01  1  2  5  9  6  1       21 -.316288692456D-02 0.100000000000D+01
-.486340362507D-03 0.000000000000D+00 -.252073806693D-05 0.146219686078D-04 0.000000000000D+00  6 4 1 25 -24 2 4 4 0.12110881D+00 0.44833012D-01 0.22227681D+05 0.22227681D+05 0.22227681D+05 0.12288085D+01  1  2  5  9  6  1       21 -.250138339775D-02 0.100000000000D+01
0.471258839155D-05 0.000000000000D+00 0.000000000000D+00 0.146219686078D-04 0.206138763437D-06  6 3 1 25 -24 2 3 4 0.12108706D+00 0.44852930D-01 0.23073106D+05 0.23073106D+05 0.23073106D+05 0.12270500D+01  1  2 11  9  6  1       21 0.304678919613D-04 0.100000000000D+01
0.471258839155D-05 0.000000000000D+00 0.000000000000D+00 0.146219686078D-04 0.206138763437D-06  6 4 1 25 -24 2 4 4 0.12108706D+00 0.44852930D-01 0.23073106D+05 0.23073106D+05 0.23073106D+05 0.12270500D+01  1  2 11  9  6  1       21 0.241051702902D-04 0.100000000000D+01
  </mgrwgt>
  </event>
  <event>
  5     66 0.42050411E-03 0.24449185E+02 0.75467711E-02 0.12034187E+00
       21 -1    0    0  501  502 0.00000000E+00 0.00000000E+00 0.50109431E+02 0.50115044E+02 0.75000000E+00 0.0000E+00 0.9000E+01
        1 -1    0    0  502    0 -.00000000E+00 -.00000000E+00 -.59007936E+03 0.59007945E+03 0.32000000E+00 0.0000E+00 0.9000E+01
       25  1    1    2    0    0 -.54312999E+02 0.43869156E+02 -.10028159E+03 0.17480218E+03 0.12500000E+03 0.0000E+00 0.9000E+01
      -24  1    1    2    0    0 0.39249436E+02 -.75555593E+02 -.35058517E+03 0.36963001E+03 0.80419002E+02 0.0000E+00 0.9000E+01
        2  1    1    2  501    0 0.15063563E+02 0.31686437E+02 -.89103175E+02 0.95762307E+02 0.32000000E+00 0.0000E+00 0.9000E+01
#aMCatNLO 1  0  0  5  1 0.27630658D+01 0.00000000D+00  -5  6  0 0.00000000D+00 0.00000000D+00 0.00000000D+00 0.00000000D+00 0.00000000D+00
  <mgrwgt>
 0.4655151656D-02    8    2    0
 0.171960360432797D+03 0.000000000000000D+00 0.000000000000000D+00 0.171960360432797D+03
 0.171960360432797D+03 -.000000000000000D+00 -.000000000000000D+00 -.171960360432797D+03
 0.167940964764289D+03 -.543132545682675D+02 0.438686179165993D+02 0.877768898187336D+02
 0.137617964667931D+03 0.392492264104687D+02 -.755560344511955D+02 -.722652899334321D+02
 0.383617914333734D+02 0.150640281577988D+02 0.316874165345962D+02 -.155115998853015D+02
 0.000000000000000D+00 0.000000000000000D+00 0.000000000000000D+00 -.000000000000000D+00
 0.171960360432797D+03 0.000000000000000D+00 0.000000000000000D+00 0.171960360432797D+03
 0.171960360432797D+03 -.000000000000000D+00 -.000000000000000D+00 -.171960360432797D+03
 0.167899704597785D+03 -.541799840692042D+02 0.441489544754104D+02 0.876396596810619D+02
 0.137582315698172D+03 0.393584331922930D+02 -.753263162942842D+02 -.723777413897540D+02
 0.314896412820135D+02 0.145705365945951D+02 0.256087211473690D+02 -.111126222203290D+02
 0.694905928762339D+01 0.251014282316156D+00 0.556864067150481D+01 -.414929607097887D+01
0.797545915214D-06 0.000000000000D+00 0.000000000000D+00 0.183092853909D-06 0.000000000000D+00  6 21 1 25 -24 2 21 2 0.77095817D-02 0.90781879D-01 0.21812202D+05 0.21812202D+05 0.21812202D+05 0.12297004D+01  1  2  2  3  6  5        2 0.616623638185D-02 0.100000000000D+01
-.219149414859D-07 0.420876542388D-07 -.161001541965D-08 0.183092853909D-06 0.000000000000D+00  6 21 1 25 -24 2 21 4 0.77095817D-02 0.90781879D-01 0.21812202D+05 0.21812202D+05 0.21812202D+05 0.12297004D+01  1  2  3  3  6  5        2 -.256214327916D-03 0.100000000000D+01
0.881253629547D-07 0.000000000000D+00 0.000000000000D+00 0.183092853909D-06 0.000000000000D+00  6 21 1 25 -24 2 21 4 0.77095817D-02 0.90781879D-01 0.21812202D+05 0.21812202D+05 0.21812202D+05 0.12297004D+01  1  2 15  3  6  5        2 0.103030074966D-02 0.100000000000D+01
0.179293299334D-07 0.000000000000D+00 0.000000000000D+00 0.183104650680D-06 0.000000000000D+00  6 21 1 25 -24 2 21 4 0.77095817D-02 0.90781879D-01 0.21793950D+05 0.21793950D+05 0.21793950D+05 0.12297400D+01  1  2 12  3  6  5        2 0.209643824457D-03 0.100000000000D+01
-.930513721782D-05 0.000000000000D+00 0.000000000000D+00 0.183092853909D-06 0.000000000000D+00  6 21 1 25 -24 2 21 4 0.77095817D-02 0.90781879D-01 0.21812202D+05 0.21812202D+05 0.21812202D+05 0.12297004D+01  1  2  4  3  6  5        2 -.108789224008D+00 0.100000000000D+01
-.571152361301D-05 0.000000000000D+00 0.000000000000D+00 0.183092853909D-06 0.000000000000D+00  6 21 1 25 -24 2 21 4 0.77095817D-02 0.90781879D-01 0.21812202D+05 0.21812202D+05 0.21812202D+05 0.12297004D+01  1  2  5  3  6  5        2 -.667751809796D-01 0.100000000000D+01
0.783768369083D-05 0.000000000000D+00 -.000000000000D+00 0.183092853909D-06 0.000000000000D+00  6 21 1 25 -24 2 21 4 0.77095817D-02 0.90781879D-01 0.21812202D+05 0.21812202D+05 0.21812202D+05 0.12297004D+01  1  2  6  3  6  5        2 0.916327730352D-01 0.100000000000D+01
0.696470580112D-05 0.000000000000D+00 0.000000000000D+00 0.183092853909D-06 0.160407458284D-06  6 21 1 25 -24 2 21 4 0.77095817D-02 0.90781879D-01 0.21793950D+05 0.21793950D+05 0.21793950D+05 0.12297400D+01  1  2 11  3  6  5        2 0.814368169799D-01 0.100000000000D+01
  </mgrwgt>
  </event>
  <event>
  5     66 -.42050411E-03 0.39152651E+02 0.75467711E-02 0.12157094E+00
       21 -1    0    0  501  502 0.00000000E+00 0.00000000E+00 0.38625911E+03 0.38625984E+03 0.75000000E+00 0.0000E+00 0.9000E+01
        1 -1    0    0  502    0 0.00000000E+00 0.00000000E+00 -.67219413E+02 0.67220175E+02 0.32000000E+00 0.0000E+00 0.9000E+01
       25  1    1    2    0    0 0.28153627E+02 0.19243292E+02 0.20288396E+03 0.24072771E+03 0.12500000E+03 0.0000E+00 0.9000E+01
      -24  1    1    2    0    0 -.59271007E+02 -.43004316E+02 0.22257686E+02 0.11101821E+03 0.80419002E+02 0.0000E+00 0.9000E+01
        2  1    1    2  501    0 0.31117379E+02 0.23761024E+02 0.93898049E+02 0.10173408E+03 0.32000000E+00 0.0000E+00 0.9000E+01
#aMCatNLO 1  0  0  5  1 0.73081620D+01 0.00000000D+00  -5  6  0 0.00000000D+00 0.00000000D+00 0.00000000D+00 0.00000000D+00 0.00000000D+00
  <mgrwgt>
 -.1675125764D+00    8    2    0
 0.161134875933478D+03 0.000000000000000D+00 0.000000000000000D+00 0.161134875933478D+03
 0.161134875933478D+03 -.000000000000000D+00 -.000000000000000D+00 -.161134875933478D+03
 0.137887940185970D+03 0.281533568880538D+02 0.192430855615909D+02 0.471717733685401D+02
 0.134184371125060D+03 -.592712698152715D+02 -.430045166747592D+02 -.785859886997225D+02
 0.501974405559252D+02 0.311179129272177D+02 0.237614311131683D+02 0.314142153311825D+02
 0.000000000000000D+00 0.000000000000000D+00 0.000000000000000D+00 0.000000000000000D+00
 0.161134875933478D+03 0.000000000000000D+00 0.000000000000000D+00 0.161134875933478D+03
 0.161134875933478D+03 -.000000000000000D+00 -.000000000000000D+00 -.161134875933478D+03
 0.138321354434339D+03 0.288088087779260D+02 0.197435842603828D+02 0.478334664215361D+02
 0.133374611971249D+03 -.586363453411917D+02 -.425196925739849D+02 -.779450185230134D+02
 0.335955658298502D+02 0.256444500125019D+02 0.151714184566258D+02 0.155194165160306D+02
 0.169782196315173D+02 0.418308655076386D+01 0.760468985697623D+01 0.145921355854467D+02
0.420723883420D-05 0.000000000000D+00 0.000000000000D+00 0.506969193336D-06 0.000000000000D+00  6 21 1 25 -24 2 21 2 0.59424593D-01 0.10341563D-01 0.19249506D+05 0.19249506D+05 0.19249506D+05 0.12356589D+01  1  2  2  3  6  5        2 0.111286927790D-01 0.100000000000D+01
0.298947808106D-07 0.222022092993D-06 -.849320304701D-08 0.506969193336D-06 0.000000000000D+00  6 21 1 25 -24 2 21 4 0.59424593D-01 0.10341563D-01 0.19249506D+05 0.19249506D+05 0.19249506D+05 0.12356589D+01  1  2  3  3  6  5        2 0.120736774212D-03 0.100000000000D+01
0.488883091250D-06 0.000000000000D+00 0.000000000000D+00 0.506969193336D-06 0.000000000000D+00  6 21 1 25 -24 2 21 4 0.59424593D-01 0.10341563D-01 0.19249506D+05 0.19249506D+05 0.19249506D+05 0.12356589D+01  1  2 15  3  6  5        2 0.197446396339D-02 0.100000000000D+01
0.791722961701D-05 0.000000000000D+00 0.000000000000D+00 0.507252275905D-06 0.000000000000D+00  6 21 1 25 -24 2 21 4 0.59424593D-01 0.10341563D-01 0.19111822D+05 0.19111822D+05 0.19111822D+05 0.12360038D+01  1  2 12  3  6  5        2 0.320120969112D-01 0.100000000000D+01
-.584482185098D-04 0.000000000000D+00 0.000000000000D+00 0.506969193336D-06 0.000000000000D+00  6 21 1 25 -24 2 21 4 0.59424593D-01 0.10341563D-01 0.19249506D+05 0.19249506D+05 0.19249506D+05 0.12356589D+01  1  2  4  3  6  5        2 -.236056233561D+00 0.100000000000D+01
-.789604716439D-05 0.000000000000D+00 0.000000000000D+00 0.506969193336D-06 0.000000000000D+00  6 21 1 25 -24 2 21 4 0.59424593D-01 0.10341563D-01 0.19249506D+05 0.19249506D+05 0.19249506D+05 0.12356589D+01  1  2  5  3  6  5        2 -.318899566346D-01 0.100000000000D+01
0.127399136194D-04 0.000000000000D+00 -.000000000000D+00 0.506969193336D-06 0.000000000000D+00  6 21 1 25 -24 2 21 4 0.59424593D-01 0.10341563D-01 0.19249506D+05 0.19249506D+05 0.19249506D+05 0.12356589D+01  1  2  6  3  6  5        2 0.514529972265D-01 0.100000000000D+01
0.926120675887D-06 0.000000000000D+00 0.000000000000D+00 0.506969193336D-06 0.209417174446D-06  6 21 1 25 -24 2 21 4 0.59424593D-01 0.10341563D-01 0.19111822D+05 0.19111822D+05 0.19111822D+05 0.12360038D+01  1  2 11  3  6  5        2 0.374462612076D-02 0.100000000000D+01
  </mgrwgt>
  </event>
  <event>
  6     66 0.42050411E-03 0.14393771E+03 0.75467711E-02 0.10417219E+00
       21 -1    0    0  501  503 0.00000000E+00 0.00000000E+00 0.57188178E+03 0.57188227E+03 0.75000000E+00 0.0000E+00 0.9000E+01
        1 -1    0    0  502    0 0.00000000E+00 0.00000000E+00 -.51259553E+03 0.51259563E+03 0.32000000E+00 0.0000E+00 0.9000E+01
       25  1    1    2    0    0 0.35030608E+02 -.56710915E+02 -.49496975E+02 0.15006073E+03 0.12500000E+03 0.0000E+00 0.9000E+01
      -24  1    1    2    0    0 0.17771622E+03 -.66620945E+01 -.21618622E+03 0.29125785E+03 0.80419002E+02 0.0000E+00 0.9000E+01
        2  1    1    2  501    0 -.13126022E+03 -.17756472E+03 -.11806598E+02 0.22112886E+03 0.32000000E+00 0.0000E+00 0.9000E+01
       21  1    1    2  502  503 -.81486608E+02 0.24093773E+03 0.33677603E+03 0.42203047E+03 0.75000000E+00 0.0000E+00 0.9000E+01
#aMCatNLO 2  0  0  1  1 0.75963681D+01 0.00000000D+00  -5  6  0 0.00000000D+00 0.00000000D+00 0.00000000D+00 0.00000000D+00 0.00000000D+00
  <mgrwgt>
 0.5909277743D-02    1    2    0
 0.272555023619669D+03 0.000000000000000D+00 0.000000000000000D+00 0.272555023619669D+03
 0.272555023619669D+03 0.000000000000000D+00 0.000000000000000D+00 -.272555023619669D+03
 0.126862669578857D+03 0.158935693097861D+02 -.126795532184701D+00 0.147144592208581D+02
 0.214391487664532D+03 0.146773042360555D+03 0.848302483333459D+02 -.103720764712619D+03
 0.203855889995949D+03 -.162666611670341D+03 -.847034528011612D+02 0.890063054917606D+02
 0.000000000000000D+00 -.000000000000000D+00 0.000000000000000D+00 0.000000000000000D+00
 0.893612332076155D+03 0.000000000000000D+00 0.000000000000000D+00 0.893612332076155D+03
 0.328043804786832D+03 0.000000000000000D+00 0.000000000000000D+00 -.328043804786832D+03
 0.142424672428387D+03 0.350306550674121D+02 -.567108914734996D+02 0.147144592208581D+02
 0.221026430465752D+03 0.177716309049421D+03 -.666209241465999D+01 -.103720764712619D+03
 0.238076969092656D+03 -.131260356328179D+03 -.177564747772896D+03 0.890063054917606D+02
 0.620128064876192D+03 -.814866077886545D+02 0.240937731661056D+03 0.565568527289323D+03
0.705707518977D-04 0.000000000000D+00 0.000000000000D+00 0.128675934006D-06 0.185822388118D-09  6 21 1 25 -24 2 21 4 0.87981801D-01 0.78860846D-01 0.16483552D+06 0.16483552D+06 0.16483552D+06 0.11441443D+01  1  2  1  1  6  1       21 0.590927774304D-02 0.100000000000D+01
  </mgrwgt>
  </event>
  <event>
  5     66 0.42050411E-03 0.85672191E+02 0.75467711E-02 0.11505793E+00
       21 -1    0    0  501  502 0.00000000E+00 0.00000000E+00 0.26228461E+03 0.26228568E+03 0.75000000E+00 0.0000E+00 0.9000E+01
        3 -1    0    0  502    0 0.00000000E+00 0.00000000E+00 -.26688106E+03 0.26688153E+03 0.50000000E+00 0.0000E+00 0.9000E+01
       25  1    1    2    0    0 -.80625793E+02 -.49195231E+02 0.15508603E+03 0.22044810E+03 0.12500000E+03 0.0000E+00 0.9000E+01
      -24  1    1    2    0    0 0.10092328E+03 -.41540816E+02 -.14542735E+02 0.13634462E+03 0.80419002E+02 0.0000E+00 0.9000E+01
        4  1    1    2  501    0 -.20297483E+02 0.90736047E+02 -.14513974E+03 0.17237449E+03 0.15500000E+01 0.0000E+00 0.9000E+01
#aMCatNLO 1  0  0  1  2 0.11179729D+02 0.00000000D+00  -5  6  0 0.00000000D+00 0.00000000D+00 0.00000000D+00 0.00000000D+00 0.00000000D+00
  <mgrwgt>
 0.1951276900D-01   32    2    0
 0.264573623191629D+03 0.000000000000000D+00 0.000000000000000D+00 0.264573623191629D+03
 0.264573623191629D+03 0.000000000000000D+00 0.000000000000000D+00 -.264573623191629D+03
 0.221805545180704D+03 -.806254441412023D+02 -.491967912552680D+02 0.157009277942830D+03
 0.136223735502416D+03 0.100923490181419D+03 -.415417740502807D+02 -.133574061186397D+02
 0.171117965700138D+03 -.202980460402164D+02 0.907385653055486D+02 -.143651871824190D+03
 0.000000000000000D+00 0.000000000000000D+00 -.000000000000000D+00 0.000000000000000D+00
 0.272474416669971D+03 0.000000000000000D+00 0.000000000000000D+00 0.272474416669971D+03
 0.268617312137220D+03 0.000000000000000D+00 0.000000000000000D+00 -.268617312137220D+03
 0.222922296200355D+03 -.848375623750550D+02 -.471171390617973D+02 0.157009277942830D+03
 0.133953622772484D+03 0.983645791547786D+02 -.402783610514055D+02 -.133574061186397D+02
 0.172389415895417D+03 -.235514823463142D+02 0.923448867748548D+02 -.143651871824190D+03
 0.118263939389344D+02 0.100244655665907D+02 -.494938666165196D+01 0.385710453275029D+01
0.929404376169D-05 0.000000000000D+00 0.000000000000D+00 0.661164187377D-07 0.000000000000D+00  6 21 3 25 -24 4 21 2 0.40351597D-01 0.41058743D-01 0.37098495D+05 0.37098495D+05 0.37098495D+05 0.12053355D+01  1  2  2  1  6  1       21 0.232800395106D-02 0.100000000000D+01
-.117030602751D-05 0.490460163937D-06 -.187619966222D-07 0.661164187377D-07 0.000000000000D+00  6 21 3 25 -24 4 21 4 0.40351597D-01 0.41058743D-01 0.37098495D+05 0.37098495D+05 0.37098495D+05 0.12053355D+01  1  2  3  1  6  1       21 -.425886984526D-03 0.100000000000D+01
0.114322691867D-05 0.000000000000D+00 0.000000000000D+00 0.661164187377D-07 0.000000000000D+00  6 21 3 25 -24 4 21 4 0.40351597D-01 0.41058743D-01 0.37098495D+05 0.37098495D+05 0.37098495D+05 0.12053355D+01  1  2 15  1  6  1       21 0.416032604788D-03 0.100000000000D+01
0.220693352191D-04 0.000000000000D+00 0.000000000000D+00 0.657990764548D-07 0.000000000000D+00  6 21 3 25 -24 4 21 4 0.41857931D-01 0.41058743D-01 0.39603900D+05 0.39603900D+05 0.39603900D+05 0.12024394D+01  1  2 12  1  6  1       21 0.738147931935D-02 0.100000000000D+01
0.193015364523D-04 0.000000000000D+00 0.000000000000D+00 0.657990764548D-07 0.000000000000D+00  6 21 3 25 -24 4 21 4 0.42066883D-01 0.41058743D-01 0.39603900D+05 0.39603900D+05 0.39603900D+05 0.12024394D+01  1  2 12  1  6  1       21 0.639063852102D-02 0.100000000000D+01
-.257602856246D-04 0.000000000000D+00 0.000000000000D+00 0.661164187377D-07 0.000000000000D+00  6 21 3 25 -24 4 21 4 0.40351597D-01 0.41058743D-01 0.37098495D+05 0.37098495D+05 0.37098495D+05 0.12053355D+01  1  2  4  1  6  1       21 -.937444574952D-02 0.100000000000D+01
-.433103455890D-03 0.000000000000D+00 -.672406654987D-04 0.661164187377D-07 0.000000000000D+00  6 21 3 25 -24 4 21 4 0.42120042D-01 0.41058743D-01 0.37098495D+05 0.37098495D+05 0.37098495D+05 0.12053355D+01  1  2  5  1  6  1       21 -.144474716091D+00 0.100000000000D+01
0.434311898006D-03 0.000000000000D+00 0.669938921614D-04 0.661164187377D-07 0.000000000000D+00  6 21 3 25 -24 4 21 4 0.40351597D-01 0.41058743D-01 0.37098495D+05 0.37098495D+05 0.37098495D+05 0.12053355D+01  1  2  6  1  6  1       21 0.158050783503D+00 0.100000000000D+01
0.506644053122D-06 0.000000000000D+00 0.000000000000D+00 0.657990764548D-07 0.000000000000D+00  6 -3 3 25 -24 4 -3 4 0.41857931D-01 0.41058743D-01 0.39603900D+05 0.39603900D+05 0.39603900D+05 0.12024394D+01  1  2 12  4  6  1       21 0.867878198959D-05 0.100000000000D+01
0.506879450462D-06 0.000000000000D+00 0.000000000000D+00 0.657990764548D-07 0.000000000000D+00  6 -3 3 25 -24 4 -3 4 0.42066883D-01 0.41058743D-01 0.39603900D+05 0.39603900D+05 0.39603900D+05 0.12024394D+01  1  2 12  4  6  1       21 0.859863813413D-05 0.100000000000D+01
-.380236271520D-05 0.000000000000D+00 -.682254687567D-06 0.661164187377D-07 0.000000000000D+00  6 -3 3 25 -24 4 -3 4 0.42120042D-01 0.41058743D-01 0.37098495D+05 0.37098495D+05 0.37098495D+05 0.12053355D+01  1  2  5  4  6  1       21 -.647894796581D-04 0.100000000000D+01
0.506644053122D-06 0.000000000000D+00 0.000000000000D+00 0.657990764548D-07 0.000000000000D+00  6 3 3 25 -24 4 3 4 0.41857931D-01 0.41058743D-01 0.39603900D+05 0.39603900D+05 0.39603900D+05 0.12024394D+01  1  2 12  5  6  1       21 0.868089995353D-05 0.100000000000D+01
0.506879450462D-06 0.000000000000D+00 0.000000000000D+00 0.657990764548D-07 0.000000000000D+00  6 3 3 25 -24 4 3 4 0.42066883D-01 0.41058743D-01 0.39603900D+05 0.39603900D+05 0.39603900D+05 0.12024394D+01  1  2 12  5  6  1       21 0.860077395902D-05 0.100000000000D+01
-.380236271520D-05 0.000000000000D+00 -.682254687567D-06 0.661164187377D-07 0.000000000000D+00  6 3 3 25 -24 4 3 4 0.42120042D-01 0.41058743D-01 0.37098495D+05 0.37098495D+05 0.37098495D+05 0.12053355D+01  1  2  5  5  6  1       21 -.648055670593D-04 0.100000000000D+01
0.506644053122D-06 0.000000000000D+00 0.000000000000D+00 0.657990764548D-07 0.000000000000D+00  6 -4 3 25 -24 4 -4 4 0.41857931D-01 0.41058743D-01 0.39603900D+05 0.39603900D+05 0.39603900D+05 0.12024394D+01  1  2 12  6  6  1       21 0.723419319391D-05 0.100000000000D+01
0.506879450462D-06 0.000000000000D+00 0.000000000000D+00 0.657990764548D-07 0.000000000000D+00  6 -4 3 25 -24 4 -4 4 0.42066883D-01 0.41058743D-01 0.39603900D+05 0.39603900D+05 0.39603900D+05 0.12024394D+01  1  2 12  6  6  1       21 0.716592189466D-05 0.100000000000D+01
-.380236271520D-05 0.000000000000D+00 -.682254687567D-06 0.661164187377D-07 0.000000000000D+00  6 -4 3 25 -24 4 -4 4 0.42120042D-01 0.41058743D-01 0.37098495D+05 0.37098495D+05 0.37098495D+05 0.12053355D+01  1  2  5  6  6  1       21 -.539570151915D-04 0.100000000000D+01
0.506644053122D-06 0.000000000000D+00 0.000000000000D+00 0.657990764548D-07 0.000000000000D+00  6 4 3 25 -24 4 4 4 0.41857931D-01 0.41058743D-01 0.39603900D+05 0.39603900D+05 0.39603900D+05 0.12024394D+01  1  2 12  7  6  1       21 0.723419319391D-05 0.100000000000D+01
0.506879450462D-06 0.000000000000D+00 0.000000000000D+00 0.657990764548D-07 0.000000000000D+00  6 4 3 25 -24 4 4 4 0.42066883D-01 0.41058743D-01 0.39603900D+05 0.39603900D+05 0.39603900D+05 0.12024394D+01  1  2 12  7  6  1       21 0.716592189466D-05 0.100000000000D+01
-.380236271520D-05 0.000000000000D+00 -.682254687567D-06 0.661164187377D-07 0.000000000000D+00  6 4 3 25 -24 4 4 4 0.42120042D-01 0.41058743D-01 0.37098495D+05 0.37098495D+05 0.37098495D+05 0.12053355D+01  1  2  5  7  6  1       21 -.539570151915D-04 0.100000000000D+01
0.506644053122D-06 0.000000000000D+00 0.000000000000D+00 0.657990764548D-07 0.000000000000D+00  6 -1 3 25 -24 4 -1 4 0.41857931D-01 0.41058743D-01 0.39603900D+05 0.39603900D+05 0.39603900D+05 0.12024394D+01  1  2 12  8  6  1       21 0.161941609975D-04 0.100000000000D+01
0.506644053122D-06 0.000000000000D+00 0.000000000000D+00 0.657990764548D-07 0.000000000000D+00  6 -2 3 25 -24 4 -2 4 0.41857931D-01 0.41058743D-01 0.39603900D+05 0.39603900D+05 0.39603900D+05 0.12024394D+01  1  2 12  8  6  1       21 0.136266305360D-04 0.100000000000D+01
0.506879450462D-06 0.000000000000D+00 0.000000000000D+00 0.657990764548D-07 0.000000000000D+00  6 -1 3 25 -24 4 -1 4 0.42066883D-01 0.41058743D-01 0.39603900D+05 0.39603900D+05 0.39603900D+05 0.12024394D+01  1  2 12  8  6  1       21 0.160583999392D-04 0.100000000000D+01
0.506879450462D-06 0.000000000000D+00 0.000000000000D+00 0.657990764548D-07 0.000000000000D+00  6 -2 3 25 -24 4 -2 4 0.42066883D-01 0.41058743D-01 0.39603900D+05 0.39603900D+05 0.39603900D+05 0.12024394D+01  1  2 12  8  6  1       21 0.135029737476D-04 0.100000000000D+01
-.380236271520D-05 0.000000000000D+00 -.682254687567D-06 0.661164187377D-07 0.000000000000D+00  6 -1 3 25 -24 4 -1 4 0.42120042D-01 0.41058743D-01 0.37098495D+05 0.37098495D+05 0.37098495D+05 0.12053355D+01  1  2  5  8  6  1       21 -.121196555712D-03 0.100000000000D+01
-.380236271520D-05 0.000000000000D+00 -.682254687567D-06 0.661164187377D-07 0.000000000000D+00  6 -2 3 25 -24 4 -2 4 0.42120042D-01 0.41058743D-01 0.37098495D+05 0.37098495D+05 0.37098495D+05 0.12053355D+01  1  2  5  8  6  1       21 -.101876822702D-03 0.100000000000D+01
0.506644053122D-06 0.000000000000D+00 0.000000000000D+00 0.657990764548D-07 0.000000000000D+00  6 1 3 25 -24 4 1 4 0.41857931D-01 0.41058743D-01 0.39603900D+05 0.39603900D+05 0.39603900D+05 0.12024394D+01  1  2 12  9  6  1       21 0.334407228115D-04 0.100000000000D+01
0.506644053122D-06 0.000000000000D+00 0.000000000000D+00 0.657990764548D-07 0.000000000000D+00  6 2 3 25 -24 4 2 4 0.41857931D-01 0.41058743D-01 0.39603900D+05 0.39603900D+05 0.39603900D+05 0.12024394D+01  1  2 12  9  6  1       21 0.465357858796D-04 0.100000000000D+01
0.506879450462D-06 0.000000000000D+00 0.000000000000D+00 0.657990764548D-07 0.000000000000D+00  6 1 3 25 -24 4 1 4 0.42066883D-01 0.41058743D-01 0.39603900D+05 0.39603900D+05 0.39603900D+05 0.12024394D+01  1  2 12  9  6  1       21 0.332486559226D-04 0.100000000000D+01
0.506879450462D-06 0.000000000000D+00 0.000000000000D+00 0.657990764548D-07 0.000000000000D+00  6 2 3 25 -24 4 2 4 0.42066883D-01 0.41058743D-01 0.39603900D+05 0.39603900D+05 0.39603900D+05 0.12024394D+01  1  2 12  9  6  1       21 0.463091993892D-04 0.100000000000D+01
-.380236271520D-05 0.000000000000D+00 -.682254687567D-06 0.661164187377D-07 0.000000000000D+00  6 1 3 25 -24 4 1 4 0.42120042D-01 0.41058743D-01 0.37098495D+05 0.37098495D+05 0.37098495D+05 0.12053355D+01  1  2  5  9  6  1       21 -.251084985406D-03 0.100000000000D+01
-.380236271520D-05 0.000000000000D+00 -.682254687567D-06 0.661164187377D-07 0.000000000000D+00  6 2 3 25 -24 4 2 4 0.42120042D-01 0.41058743D-01 0.37098495D+05 0.37098495D+05 0.37098495D+05 0.12053355D+01  1  2  5  9  6  1       21 -.349728487763D-03 0.100000000000D+01
  </mgrwgt>
  </event>
  <event>
  5     66 0.42050411E-03 0.46045099E+02 0.75467711E-02 0.12183824E+00
       21 -1    0    0  501  502 0.00000000E+00 0.00000000E+00 0.85207874E+02 0.85211175E+02 0.75000000E+00 0.0000E+00 0.9000E+01
        1 -1    0    0  502    0 -.00000000E+00 -.00000000E+00 -.66100453E+03 0.66100461E+03 0.32000000E+00 0.0000E+00 0.9000E+01
       25  1    1    2    0    0 -.39997860E+01 -.39193362E+02 -.79244297E+02 0.15315605E+03 0.12500000E+03 0.0000E+00 0.9000E+01
      -24  1    1    2    0    0 -.40367091E+02 0.26875833E+02 -.52865263E+03 0.53692889E+03 0.80419002E+02 0.0000E+00 0.9000E+01
        2  1    1    2  501    0 0.44366877E+02 0.12317529E+02 0.32100272E+02 0.56130840E+02 0.32000000E+00 0.0000E+00 0.9000E+01
#aMCatNLO 1  0  0  5  1 0.22691573D+01 0.00000000D+00  -5  6  0 0.00000000D+00 0.00000000D+00 0.00000000D+00 0.00000000D+00 0.00000000D+00
  <mgrwgt>
 0.2742174138D-01    6    2    0
 0.237326886298466D+03 0.000000000000000D+00 0.000000000000000D+00 0.237326886298466D+03
 0.237326886298466D+03 -.000000000000000D+00 -.000000000000000D+00 -.237326886298466D+03
 0.144650365307037D+03 -.399982877670318D+01 -.391933740749744D+02 0.612095497601096D+02
 0.202818289169334D+03 -.403671512296146D+02 0.268758167725881D+02 -.179767143943538D+03
 0.127185118120561D+03 0.443669800063178D+02 0.123175573023864D+02 0.118557594183428D+03
 0.000000000000000D+00 0.000000000000000D+00 0.000000000000000D+00 0.000000000000000D+00
 0.237326886298466D+03 0.000000000000000D+00 0.000000000000000D+00 0.237326886298466D+03
 0.237326886298466D+03 -.000000000000000D+00 -.000000000000000D+00 -.237326886298466D+03
 0.144724043215624D+03 -.392827258738820D+01 -.391735080065131D+02 0.614007624514604D+02
 0.202564646219951D+03 -.402669085778270D+02 0.269036470330061D+02 -.179499275190046D+03
 0.427725623683063D+01 -.572839060193510D+00 0.155778977519792D+01 0.394208921042059D+01
 0.123087826924525D+03 0.447680202254087D+02 0.107120711983091D+02 0.114156423528165D+03
0.378925752496D-05 0.000000000000D+00 0.000000000000D+00 0.528896104182D-06 0.000000000000D+00  6 21 1 25 -24 2 21 2 0.13109164D-01 0.10169326D+00 0.18362460D+05 0.18362460D+05 0.18362460D+05 0.12379314D+01  1  2  2  3  6  5        2 0.100100775412D-01 0.100000000000D+01
0.161808212570D-06 0.199964613309D-06 -.764941920940D-08 0.528896104182D-06 0.000000000000D+00  6 21 1 25 -24 2 21 4 0.13109164D-01 0.10169326D+00 0.18362460D+05 0.18362460D+05 0.18362460D+05 0.12379314D+01  1  2  3  3  6  5        2 0.655053861971D-03 0.100000000000D+01
0.439051680088D-06 0.000000000000D+00 0.000000000000D+00 0.528896104182D-06 0.000000000000D+00  6 21 1 25 -24 2 21 4 0.13109164D-01 0.10169326D+00 0.18362460D+05 0.18362460D+05 0.18362460D+05 0.12379314D+01  1  2 15  3  6  5        2 0.177742831516D-02 0.100000000000D+01
0.635617308403D-08 0.000000000000D+00 0.000000000000D+00 0.528409636387D-06 0.000000000000D+00  6 21 1 25 -24 2 21 4 0.13109164D-01 0.10169326D+00 0.18580359D+05 0.18580359D+05 0.18580359D+05 0.12373619D+01  1  2 12  3  6  5        2 0.256811119944D-04 0.100000000000D+01
-.226753812775D-05 0.000000000000D+00 0.000000000000D+00 0.528896104182D-06 0.000000000000D+00  6 21 1 25 -24 2 21 4 0.13109164D-01 0.10169326D+00 0.18362460D+05 0.18362460D+05 0.18362460D+05 0.12379314D+01  1  2  5  3  6  5        2 -.917975413091D-02 0.100000000000D+01
0.597307249979D-05 0.000000000000D+00 0.000000000000D+00 0.528896104182D-06 0.700992754932D-07  6 21 1 25 -24 2 21 4 0.13109164D-01 0.10169326D+00 0.18580359D+05 0.18580359D+05 0.18580359D+05 0.12373619D+01  1  2 11  3  6  5        2 0.241332546786D-01 0.100000000000D+01
  </mgrwgt>
  </event>
  <event>
  5     66 0.42050411E-03 0.10267164E+03 0.75467711E-02 0.10138750E+00
       21 -1    0    0  501  502 0.00000000E+00 0.00000000E+00 0.36054414E+02 0.36062214E+02 0.75000000E+00 0.0000E+00 0.9000E+01
        1 -1    0    0  502    0 0.00000000E+00 0.00000000E+00 -.16264284E+04 0.16264284E+04 0.32000000E+00 0.0000E+00 0.9000E+01
       25  1    1    2    0    0 0.87265283E+02 0.49452601E+02 -.65747913E+03 0.67673081E+03 0.12500000E+03 0.0000E+00 0.9000E+01
      -24  1    1    2    0    0 -.10823723E+03 -.14995924E+03 -.74303774E+03 0.76991907E+03 0.80419002E+02 0.0000E+00 0.9000E+01
        2  1    1    2  501    0 0.20971945E+02 0.10050663E+03 -.18985708E+03 0.21584072E+03 0.32000000E+00 0.0000E+00 0.9000E+01
#aMCatNLO 1  0  0  1  5 0.39604711D+03 0.00000000D+00  -5  6  0 0.00000000D+00 0.00000000D+00 0.00000000D+00 0.00000000D+00 0.00000000D+00
  <mgrwgt>
 0.3343149757D-01   12    2    0
 0.242170250985777D+03 0.000000000000000D+00 0.000000000000000D+00 0.242170250985777D+03
 0.242170250985777D+03 0.000000000000000D+00 0.000000000000000D+00 -.242170250985777D+03
 0.163977459424766D+03 0.872652565252634D+02 0.494524742883205D+02 -.346819115641539D+02
 0.202905642281293D+03 -.108237260550789D+03 -.149959391661628D+03 -.223687280851727D+02
 0.117457400265496D+03 0.209720040255255D+02 0.100506917373307D+03 0.570506396493265D+02
 0.000000000000000D+00 -.000000000000000D+00 0.000000000000000D+00 0.000000000000000D+00
 0.718157110859975D+03 0.000000000000000D+00 0.000000000000000D+00 0.718157110859975D+03
 0.409569247112798D+03 0.000000000000000D+00 0.000000000000000D+00 -.409569247112798D+03
 0.221415898030538D+03 0.168593508857776D+03 -.614279552154290D+02 -.346819115641539D+02
 0.308635656644841D+03 -.288436232013041D+00 -.297133487521372D+03 -.223687280851727D+02
 0.955993315915778D+02 0.659326431087305D+02 0.392089694975004D+02 0.570506396493265D+02
 0.502075471705816D+03 -.234237715734493D+03 0.319352473239301D+03 0.308587863747176D+03
0.110089909798D-04 0.000000000000D+00 0.000000000000D+00 0.116958546370D-06 0.000000000000D+00  6 21 1 25 -24 2 21 2 0.55474353D-02 0.25022035D+00 0.53965227D+05 0.53965227D+05 0.53965227D+05 0.11890132D+01  1  2  2  1  6  1       21 0.233128958751D-01 0.100000000000D+01
-.388883939621D-06 0.580960414988D-06 -.222239809572D-07 0.116958546370D-06 0.000000000000D+00  6 21 1 25 -24 2 21 4 0.55474353D-02 0.25022035D+00 0.53965227D+05 0.53965227D+05 0.53965227D+05 0.11890132D+01  1  2  3  1  6  1       21 -.116423878969D-02 0.100000000000D+01
0.122038704661D-05 0.000000000000D+00 0.000000000000D+00 0.116958546370D-06 0.000000000000D+00  6 21 1 25 -24 2 21 4 0.55474353D-02 0.25022035D+00 0.53965227D+05 0.53965227D+05 0.53965227D+05 0.11890132D+01  1  2 15  1  6  1       21 0.365358862464D-02 0.100000000000D+01
0.431414077840D-04 0.000000000000D+00 -.931262741419D-04 0.116958546370D-06 0.000000000000D+00  6 21 1 25 -24 2 21 4 0.30611832D-01 0.25022035D+00 0.53965227D+05 0.53965227D+05 0.53965227D+05 0.11890132D+01  1  2  5  1  6  1       21 0.579075172568D-02 0.100000000000D+01
0.190200163533D-04 0.000000000000D+00 -.390261404149D-04 0.116958546370D-06 0.000000000000D+00  6 -1 1 25 -24 2 -1 4 0.30611832D-01 0.25022035D+00 0.53965227D+05 0.53965227D+05 0.53965227D+05 0.11890132D+01  1  2  5  4  6  1       21 0.227123134585D-03 0.100000000000D+01
0.190200163533D-04 0.000000000000D+00 -.390261404149D-04 0.116958546370D-06 0.000000000000D+00  6 1 1 25 -24 2 1 4 0.30611832D-01 0.25022035D+00 0.53965227D+05 0.53965227D+05 0.53965227D+05 0.11890132D+01  1  2  5  5  6  1       21 0.402809282567D-03 0.100000000000D+01
0.190200163533D-04 0.000000000000D+00 -.390261404149D-04 0.116958546370D-06 0.000000000000D+00  6 -2 1 25 -24 2 -2 4 0.30611832D-01 0.25022035D+00 0.53965227D+05 0.53965227D+05 0.53965227D+05 0.11890132D+01  1  2  5  6  6  1       21 0.199131240646D-03 0.100000000000D+01
0.190200163533D-04 0.000000000000D+00 -.390261404149D-04 0.116958546370D-06 0.000000000000D+00  6 2 1 25 -24 2 2 4 0.30611832D-01 0.25022035D+00 0.53965227D+05 0.53965227D+05 0.53965227D+05 0.11890132D+01  1  2  5  7  6  1       21 0.531878575234D-03 0.100000000000D+01
0.190200163533D-04 0.000000000000D+00 -.390261404149D-04 0.116958546370D-06 0.000000000000D+00  6 -3 1 25 -24 2 -3 4 0.30611832D-01 0.25022035D+00 0.53965227D+05 0.53965227D+05 0.53965227D+05 0.11890132D+01  1  2  5  8  6  1       21 0.129295805845D-03 0.100000000000D+01
0.190200163533D-04 0.000000000000D+00 -.390261404149D-04 0.116958546370D-06 0.000000000000D+00  6 -4 1 25 -24 2 -4 4 0.30611832D-01 0.25022035D+00 0.53965227D+05 0.53965227D+05 0.53965227D+05 0.11890132D+01  1  2  5  8  6  1       21 0.109480084727D-03 0.100000000000D+01
0.190200163533D-04 0.000000000000D+00 -.390261404149D-04 0.116958546370D-06 0.000000000000D+00  6 3 1 25 -24 2 3 4 0.30611832D-01 0.25022035D+00 0.53965227D+05 0.53965227D+05 0.53965227D+05 0.11890132D+01  1  2  5  9  6  1       21 0.129301926813D-03 0.100000000000D+01
0.190200163533D-04 0.000000000000D+00 -.390261404149D-04 0.116958546370D-06 0.000000000000D+00  6 4 1 25 -24 2 4 4 0.30611832D-01 0.25022035D+00 0.53965227D+05 0.53965227D+05 0.53965227D+05 0.11890132D+01  1  2  5  9  6  1       21 0.109480084727D-03 0.100000000000D+01
  </mgrwgt>
  </event>
  <event>
  6     66 -.42050411E-03 0.16579606E+03 0.75467711E-02 0.10882480E+00
       21 -1    0    0  501  503 0.00000000E+00 0.00000000E+00 0.19523976E+03 0.19524120E+03 0.75000000E+00 0.0000E+00 0.9000E+01
        3 -1    0    0  502    0 0.00000000E+00 0.00000000E+00 -.69080078E+03 0.69080097E+03 0.50000000E+00 0.0000E+00 0.9000E+01
       25  1    1    2    0    0 -.19289513E+02 -.10945265E+03 -.38938369E+03 0.42378842E+03 0.12500000E+03 0.0000E+00 0.9000E+01
      -24  1    1    2    0    0 -.12406347E+03 0.20130105E+03 0.18218533E+02 0.25042561E+03 0.80419002E+02 0.0000E+00 0.9000E+01
        4  1    1    2  501    0 0.11693172E+03 -.82311491E+02 -.10881423E+03 0.17969738E+03 0.15500000E+01 0.0000E+00 0.9000E+01
       21  1    1    2  502  503 0.26421259E+02 -.95369130E+01 -.15581641E+02 0.32130759E+02 0.75000000E+00 0.0000E+00 0.9000E+01
#aMCatNLO 2  0  0  1  2 0.28089778D+02 0.00000000D+00  -5  6  0 0.00000000D+00 0.00000000D+00 0.00000000D+00 0.00000000D+00 0.00000000D+00
  <mgrwgt>
 -.2363656523D-02    3    2    0
 0.352843964046089D+03 0.000000000000000D+00 0.000000000000000D+00 0.352843964046089D+03
 0.352843964046089D+03 0.000000000000000D+00 0.000000000000000D+00 -.352843964046089D+03
 0.248715136275749D+03 -.100013420534252D+02 -.112804502729922D+03 -.182782210112609D+03
 0.308053800693653D+03 -.112404193154920D+03 0.197093514877770D+03 0.192222194144569D+03
 0.148918991122775D+03 0.122405535208345D+03 -.842890121478479D+02 -.943998403195953D+01
 0.000000000000000D+00 0.000000000000000D+00 -.000000000000000D+00 0.000000000000000D+00
 0.368746570349073D+03 0.000000000000000D+00 0.000000000000000D+00 0.368746570349073D+03
 0.365749413536340D+03 0.000000000000000D+00 0.000000000000000D+00 -.365749413536340D+03
 0.247762068451513D+03 -.192918233830501D+02 -.109451047415177D+03 -.182782210112609D+03
 0.315169799743420D+03 -.124066455125684D+03 0.201303078731378D+03 0.192222194144569D+03
 0.143314892857286D+03 0.116937019399060D+03 -.823151183576588D+02 -.943998403195953D+01
 0.282492228331944D+02 0.264212591096740D+02 -.953691295854297D+01 0.299715681273375D+01
-.309901290100D-04 0.000000000000D+00 0.000000000000D+00 0.162101708668D-07 0.000000000000D+00  6 21 3 25 -24 4 21 4 0.30540953D-01 0.10252579D+00 0.86471569D+05 0.86471569D+05 0.86471569D+05 0.11694155D+01  1  2 13  1  6  1       21 -.248248894846D-02 0.100000000000D+01
-.161370713836D-06 0.000000000000D+00 0.000000000000D+00 0.163291067236D-07 0.000000000000D+00  6 21 3 25 -24 4 21 4 0.28741242D-01 0.10252579D+00 0.77844865D+05 0.77844865D+05 0.77844865D+05 0.11736978D+01  1  2  8  1  6  1       21 -.148117254825D-04 0.100000000000D+01
0.175546851810D-05 0.000000000000D+00 0.000000000000D+00 0.163291067236D-07 0.192636713536D-08  6 21 3 25 -24 4 21 4 0.30036604D-01 0.10627573D+00 0.86471569D+05 0.86471569D+05 0.86471569D+05 0.11694155D+01  1  2  1  1  6  1       21 0.133644151399D-03 0.100000000000D+01
  </mgrwgt>
  </event>
  <event>
  5     66 0.42050411E-03 0.10609382E+03 0.75467711E-02 0.11458468E+00
       21 -1    0    0  501  502 0.00000000E+00 0.00000000E+00 0.12173971E+02 0.12197051E+02 0.75000000E+00 0.0000E+00 0.9000E+01
        1 -1    0    0  502    0 0.00000000E+00 0.00000000E+00 -.35736848E+04 0.35736848E+04 0.32000000E+00 0.0000E+00 0.9000E+01
       25  1    1    2    0    0 -.94147153E+01 -.87491401E+01 -.14820742E+04 0.14873917E+04 0.12500000E+03 0.0000E+00 0.9000E+01
      -24  1    1    2    0    0 -.47355106E+02 0.11167577E+03 -.15131352E+04 0.15201182E+04 0.80419002E+02 0.0000E+00 0.9000E+01
        2  1    1    2  501    0 0.56769821E+02 -.10292663E+03 -.56630148E+03 0.57837201E+03 0.32000000E+00 0.0000E+00 0.9000E+01
#aMCatNLO 1  0  0  1  2 0.20183342D+02 0.00000000D+00  -5  6  0 0.00000000D+00 0.00000000D+00 0.00000000D+00 0.00000000D+00 0.00000000D+00
  <mgrwgt>
 0.3333687122D-01   23    2    0
 0.208679997277846D+03 0.000000000000000D+00 0.000000000000000D+00 0.208679997277846D+03
 0.208679997277846D+03 0.000000000000000D+00 0.000000000000000D+00 -.208679997277846D+03
 0.132230394253530D+03 -.941476455049673D+01 -.874905088619838D+01 -.411666549709046D+02
 0.148353748939682D+03 -.473551610768752D+02 0.111675872620878D+03 -.287681605918120D+02
 0.136775851362480D+03 0.567699256273720D+02 -.102926821734680D+03 0.699348155627167D+02
 0.000000000000000D+00 0.000000000000000D+00 0.000000000000000D+00 0.000000000000000D+00
 0.226918350893614D+03 0.000000000000000D+00 0.000000000000000D+00 0.226918350893614D+03
 0.214583483285390D+03 0.000000000000000D+00 0.000000000000000D+00 -.214583483285390D+03
 0.132964504991709D+03 -.153680210529927D+02 -.111216021827547D+02 -.411666549709046D+02
 0.148655106930470D+03 -.540225966404558D+02 0.109018699545193D+03 -.287681605918120D+02
 0.136228126316715D+03 0.506413661793904D+02 -.105369236513589D+03 0.699348155627167D+02
 0.236540959401105D+02 0.187492515140581D+02 0.747213915115000D+01 0.123348676082233D+02
0.102243814528D-04 0.000000000000D+00 0.000000000000D+00 0.246512619644D-06 0.000000000000D+00  6 21 1 25 -24 2 21 2 0.18746951D-02 0.54979943D+00 0.37779971D+05 0.37779971D+05 0.37779971D+05 0.12045267D+01  1  2  2  1  6  1       21 0.654479822575D-02 0.100000000000D+01
-.556215873350D-06 0.539555432711D-06 -.206400803783D-07 0.246512619644D-06 0.000000000000D+00  6 21 1 25 -24 2 21 4 0.18746951D-02 0.54979943D+00 0.37779971D+05 0.37779971D+05 0.37779971D+05 0.12045267D+01  1  2  3  1  6  1       21 -.516577467424D-03 0.100000000000D+01
0.100071966725D-05 0.000000000000D+00 0.000000000000D+00 0.246512619644D-06 0.000000000000D+00  6 21 1 25 -24 2 21 4 0.18746951D-02 0.54979943D+00 0.37779971D+05 0.37779971D+05 0.37779971D+05 0.12045267D+01  1  2 15  1  6  1       21 0.929403952812D-03 0.100000000000D+01
0.302831206229D-04 0.000000000000D+00 0.000000000000D+00 0.244648598213D-06 0.000000000000D+00  6 21 1 25 -24 2 21 4 0.20634396D-02 0.54979943D+00 0.41895215D+05 0.41895215D+05 0.41895215D+05 0.11999640D+01  1  2 12  1  6  1       21 0.235622072088D-01 0.100000000000D+01
-.214875944350D-04 0.000000000000D+00 0.000000000000D+00 0.246512619644D-06 0.000000000000D+00  6 21 1 25 -24 2 21 4 0.18746951D-02 0.54979943D+00 0.37779971D+05 0.37779971D+05 0.37779971D+05 0.12045267D+01  1  2  4  1  6  1       21 -.199562933137D-01 0.100000000000D+01
-.143684727976D-03 0.000000000000D+00 -.272848929109D-04 0.246512619644D-06 0.000000000000D+00  6 21 1 25 -24 2 21 4 0.21351603D-02 0.54979943D+00 0.37779971D+05 0.37779971D+05 0.37779971D+05 0.12045267D+01  1  2  5  1  6  1       21 -.107970839305D+00 0.100000000000D+01
0.141828423979D-03 0.000000000000D+00 0.263829955946D-04 0.246512619644D-06 0.000000000000D+00  6 21 1 25 -24 2 21 4 0.18746951D-02 0.54979943D+00 0.37779971D+05 0.37779971D+05 0.37779971D+05 0.12045267D+01  1  2  6  1  6  1       21 0.131721102504D+00 0.100000000000D+01
0.738327516548D-06 0.000000000000D+00 0.000000000000D+00 0.244648598213D-06 0.000000000000D+00  6 -1 1 25 -24 2 -1 4 0.20634396D-02 0.54979943D+00 0.41895215D+05 0.41895215D+05 0.41895215D+05 0.11999640D+01  1  2 12  4  6  1       21 0.281940894063D-04 0.100000000000D+01
-.447167804284D-05 0.000000000000D+00 -.941554821930D-06 0.246512619644D-06 0.000000000000D+00  6 -1 1 25 -24 2 -1 4 0.21351603D-02 0.54979943D+00 0.37779971D+05 0.37779971D+05 0.37779971D+05 0.12045267D+01  1  2  5  4  6  1       21 -.165543841559D-03 0.100000000000D+01
0.738327516548D-06 0.000000000000D+00 0.000000000000D+00 0.244648598213D-06 0.000000000000D+00  6 1 1 25 -24 2 1 4 0.20634396D-02 0.54979943D+00 0.41895215D+05 0.41895215D+05 0.41895215D+05 0.11999640D+01  1  2 12  5  6  1       21 0.296525397495D-04 0.100000000000D+01
-.447167804284D-05 0.000000000000D+00 -.941554821930D-06 0.246512619644D-06 0.000000000000D+00  6 1 1 25 -24 2 1 4 0.21351603D-02 0.54979943D+00 0.37779971D+05 0.37779971D+05 0.37779971D+05 0.12045267D+01  1  2  5  5  6  1       21 -.174424448740D-03 0.100000000000D+01
0.738327516548D-06 0.000000000000D+00 0.000000000000D+00 0.244648598213D-06 0.000000000000D+00  6 -2 1 25 -24 2 -2 4 0.20634396D-02 0.54979943D+00 0.41895215D+05 0.41895215D+05 0.41895215D+05 0.11999640D+01  1  2 12  6  6  1       21 0.279327971448D-04 0.100000000000D+01
-.447167804284D-05 0.000000000000D+00 -.941554821930D-06 0.246512619644D-06 0.000000000000D+00  6 -2 1 25 -24 2 -2 4 0.21351603D-02 0.54979943D+00 0.37779971D+05 0.37779971D+05 0.37779971D+05 0.12045267D+01  1  2  5  6  6  1       21 -.163952023186D-03 0.100000000000D+01
0.738327516548D-06 0.000000000000D+00 0.000000000000D+00 0.244648598213D-06 0.000000000000D+00  6 2 1 25 -24 2 2 4 0.20634396D-02 0.54979943D+00 0.41895215D+05 0.41895215D+05 0.41895215D+05 0.11999640D+01  1  2 12  7  6  1       21 0.306561263020D-04 0.100000000000D+01
-.447167804284D-05 0.000000000000D+00 -.941554821930D-06 0.246512619644D-06 0.000000000000D+00  6 2 1 25 -24 2 2 4 0.21351603D-02 0.54979943D+00 0.37779971D+05 0.37779971D+05 0.37779971D+05 0.12045267D+01  1  2  5  7  6  1       21 -.180528450417D-03 0.100000000000D+01
0.738327516548D-06 0.000000000000D+00 0.000000000000D+00 0.244648598213D-06 0.000000000000D+00  6 -3 1 25 -24 2 -3 4 0.20634396D-02 0.54979943D+00 0.41895215D+05 0.41895215D+05 0.41895215D+05 0.11999640D+01  1  2 12  8  6  1       21 0.220621892828D-04 0.100000000000D+01
0.738327516548D-06 0.000000000000D+00 0.000000000000D+00 0.244648598213D-06 0.000000000000D+00  6 -4 1 25 -24 2 -4 4 0.20634396D-02 0.54979943D+00 0.41895215D+05 0.41895215D+05 0.41895215D+05 0.11999640D+01  1  2 12  8  6  1       21 0.201747903089D-04 0.100000000000D+01
-.447167804284D-05 0.000000000000D+00 -.941554821930D-06 0.246512619644D-06 0.000000000000D+00  6 -3 1 25 -24 2 -3 4 0.21351603D-02 0.54979943D+00 0.37779971D+05 0.37779971D+05 0.37779971D+05 0.12045267D+01  1  2  5  8  6  1       21 -.128950326635D-03 0.100000000000D+01
-.447167804284D-05 0.000000000000D+00 -.941554821930D-06 0.246512619644D-06 0.000000000000D+00  6 -4 1 25 -24 2 -4 4 0.21351603D-02 0.54979943D+00 0.37779971D+05 0.37779971D+05 0.37779971D+05 0.12045267D+01  1  2  5  8  6  1       21 -.117748386558D-03 0.100000000000D+01
0.738327516548D-06 0.000000000000D+00 0.000000000000D+00 0.244648598213D-06 0.000000000000D+00  6 3 1 25 -24 2 3 4 0.20634396D-02 0.54979943D+00 0.41895215D+05 0.41895215D+05 0.41895215D+05 0.11999640D+01  1  2 12  9  6  1       21 0.220609770015D-04 0.100000000000D+01
0.738327516548D-06 0.000000000000D+00 0.000000000000D+00 0.244648598213D-06 0.000000000000D+00  6 4 1 25 -24 2 4 4 0.20634396D-02 0.54979943D+00 0.41895215D+05 0.41895215D+05 0.41895215D+05 0.11999640D+01  1  2 12  9  6  1       21 0.201747903089D-04 0.100000000000D+01
-.447167804284D-05 0.000000000000D+00 -.941554821930D-06 0.246512619644D-06 0.000000000000D+00  6 3 1 25 -24 2 3 4 0.21351603D-02 0.54979943D+00 0.37779971D+05 0.37779971D+05 0.37779971D+05 0.12045267D+01  1  2  5  9  6  1       21 -.128943021389D-03 0.100000000000D+01
-.447167804284D-05 0.000000000000D+00 -.941554821930D-06 0.246512619644D-06 0.000000000000D+00  6 4 1 25 -24 2 4 4 0.21351603D-02 0.54979943D+00 0.37779971D+05 0.37779971D+05 0.37779971D+05 0.12045267D+01  1  2  5  9  6  1       21 -.117748386558D-03 0.100000000000D+01
  </mgrwgt>
  </event>
  <event>
  6     66 -.42050411E-03 0.35090744E+02 0.75467711E-02 0.11899454E+00
       21 -1    0    0  501  502 0.00000000E+00 0.00000000E+00 0.23692448E+02 0.23704316E+02 0.75000000E+00 0.0000E+00 0.9000E+01
        1 -1    0    0  503    0 0.00000000E+00 0.00000000E+00 -.27511133E+04 0.27511133E+04 0.32000000E+00 0.0000E+00 0.9000E+01
       25  1    1    2    0    0 0.13524693E+02 -.78703269E+02 -.78659032E+03 0.80045391E+03 0.12500000E+03 0.0000E+00 0.9000E+01
      -24  1    1    2    0    0 -.52912744E+02 0.72873161E+02 -.18856479E+04 0.18895093E+04 0.80419002E+02 0.0000E+00 0.9000E+01
        2  1    1    2  501    0 0.36863844E+02 0.14565356E+02 -.13028906E+02 0.41724661E+02 0.32000000E+00 0.0000E+00 0.9000E+01
       21  1    1    2  503  502 0.25242074E+01 -.87352467E+01 -.42153752E+02 0.43129775E+02 0.75000000E+00 0.0000E+00 0.9000E+01
#aMCatNLO 2  0  0  2  1 0.90926430D+01 0.00000000D+00  -5  6  0 0.00000000D+00 0.00000000D+00 0.00000000D+00 0.00000000D+00 0.00000000D+00
  <mgrwgt>
 -.1378328707D+00    3    2    0
 0.250687303225895D+03 0.000000000000000D+00 0.000000000000000D+00 0.250687303225895D+03
 0.250687303225895D+03 0.000000000000000D+00 0.000000000000000D+00 -.250687303225895D+03
 0.149801641802310D+03 0.142751104781719D+02 -.813002457454853D+02 0.142237450313331D+01
 0.194089068095629D+03 -.519319136993021D+02 0.694787960433341D+02 -.153880224979548D+03
 0.157483896553851D+03 0.376568032211301D+02 0.118214497021512D+02 0.152457850476415D+03
 0.000000000000000D+00 0.000000000000000D+00 -.000000000000000D+00 0.000000000000000D+00
 0.255984909000930D+03 0.000000000000000D+00 0.000000000000000D+00 0.255984909000930D+03
 0.254660702601059D+03 0.000000000000000D+00 0.000000000000000D+00 -.254660702601059D+03
 0.148337943847088D+03 0.135246693152581D+02 -.787032766501336D+02 0.142237450313331D+01
 0.195592938776330D+03 -.529127744520485D+02 0.728731528398554D+02 -.153880224979548D+03
 0.157526166536185D+03 0.368638977182935D+02 0.145653704625820D+02 0.152457850476415D+03
 0.918856244238666D+01 0.252420741849691D+01 -.873524665230388D+01 0.132420639987041D+01
-.839252884206D-04 0.000000000000D+00 0.000000000000D+00 0.160261255426D-05 0.000000000000D+00  6 21 1 25 -24 2 21 4 0.35702407D-02 0.42754568D+00 0.25248899D+05 0.25248899D+05 0.25248899D+05 0.12228366D+01  1  2 13  2  6  2        1 -.107839099149D+00 0.100000000000D+01
-.829287164655D-04 0.000000000000D+00 0.000000000000D+00 0.161064583518D-05 0.000000000000D+00  6 21 1 25 -24 2 21 4 0.35702407D-02 0.41662034D+00 0.23646606D+05 0.23646606D+05 0.23646606D+05 0.12258976D+01  1  2  8  2  6  2        1 -.120425258122D+00 0.100000000000D+01
0.697679157878D-04 0.000000000000D+00 0.000000000000D+00 0.161064583518D-05 0.155647266969D-06  6 21 1 25 -24 2 21 4 0.36456882D-02 0.42322378D+00 0.25248899D+05 0.25248899D+05 0.25248899D+05 0.12228366D+01  1  2  1  2  6  2        1 0.904314866011D-01 0.100000000000D+01
  </mgrwgt>
  </event>
  <event>
  6     66 0.42050411E-03 0.37739743E+02 0.75467711E-02 0.11159289E+00
       21 -1    0    0  501  503 0.00000000E+00 0.00000000E+00 0.29842817E+03 0.29842911E+03 0.75000000E+00 0.0000E+00 0.9000E+01
        1 -1    0    0  502    0 0.00000000E+00 0.00000000E+00 -.98753382E+03 0.98753387E+03 0.32000000E+00 0.0000E+00 0.9000E+01
       25  1    1    2    0    0 0.10842445E+03 0.16317190E+03 0.12182620E+02 0.23271086E+03 0.12500000E+03 0.0000E+00 0.9000E+01
      -24  1    1    2    0    0 -.87684363E+02 -.14222703E+03 -.85892872E+03 0.87871658E+03 0.80419002E+02 0.0000E+00 0.9000E+01
        2  1    1    2  501    0 0.24138636E+02 0.67255868E+00 0.39174140E+02 0.46020014E+02 0.32000000E+00 0.0000E+00 0.9000E+01
       21  1    1    2  502  503 -.44878721E+02 -.21617433E+02 0.11846630E+03 0.12851553E+03 0.75000000E+00 0.0000E+00 0.9000E+01
#aMCatNLO 2  0  0  1  2 0.25388153D+03 0.00000000D+00  -5  6  0 0.00000000D+00 0.00000000D+00 0.00000000D+00 0.00000000D+00 0.00000000D+00
  <mgrwgt>
 0.8499299912D-01    1    2    0
 0.413832920933975D+03 0.000000000000000D+00 0.000000000000000D+00 0.413832920933975D+03
 0.413832920933975D+03 0.000000000000000D+00 0.000000000000000D+00 -.413832920933975D+03
 0.327179752544273D+03 0.904415100387845D+02 0.154509800150240D+03 0.243656818895694D+03
 0.399232926397461D+03 -.109064002210385D+03 -.152525263898903D+03 -.343162936314417D+03
 0.101253162926216D+03 0.186224921716002D+02 -.198453625133620D+01 0.995061174187231D+02
 0.000000000000000D+00 -.000000000000000D+00 -.000000000000000D+00 0.000000000000000D+00
 0.707239810933428D+03 0.000000000000000D+00 0.000000000000000D+00 0.707239810933428D+03
 0.416701485307205D+03 0.000000000000000D+00 0.000000000000000D+00 -.416701485307205D+03
 0.336711398438293D+03 0.108424403386921D+03 0.163171900749155D+03 0.243656818895694D+03
 0.390057808822128D+03 -.876843963953064D+02 -.142227015850040D+03 -.343162936314417D+03
 0.102394322350346D+03 0.241387142253578D+02 0.672548425226992D+00 0.995061174187231D+02
 0.294777766629866D+03 -.448787212169720D+02 -.216174333243416D+02 0.290538325626223D+03
0.532904699210D-03 0.000000000000D+00 0.000000000000D+00 0.614086880899D-06 0.241507459880D-08  6 21 1 25 -24 2 21 4 0.45912050D-01 0.15192818D+00 0.60462784D+05 0.60462784D+05 0.60462784D+05 0.11841949D+01  1  2  1  1  6  1       21 0.849929991169D-01 0.100000000000D+01
  </mgrwgt>
  </event>
  <event>
  5     66 0.42050411E-03 0.73301526E+02 0.75467711E-02 0.12020910E+00
       21 -1    0    0  501  502 0.00000000E+00 0.00000000E+00 0.76986629E+02 0.76990282E+02 0.75000000E+00 0.0000E+00 0.9000E+01
        1 -1    0    0  502    0 0.00000000E+00 0.00000000E+00 -.13753348E+04 0.13753349E+04 0.32000000E+00 0.0000E+00 0.9000E+01
       25  1    1    2    0    0 -.23816206E+02 -.18495954E+01 -.67627667E+03 0.68814662E+03 0.12500000E+03 0.0000E+00 0.9000E+01
      -24  1    1    2    0    0 -.42391061E+02 0.33309219E+02 -.66976486E+03 0.67672645E+03 0.80419002E+02 0.0000E+00 0.9000E+01
        2  1    1    2  501    0 0.66207267E+02 -.31459624E+02 0.47693330E+02 0.87452080E+02 0.32000000E+00 0.0000E+00 0.9000E+01
#aMCatNLO 1  0  0  1  2 0.25388153D+03 0.00000000D+00  -5  6  0 0.00000000D+00 0.00000000D+00 0.00000000D+00 0.00000000D+00 0.00000000D+00
  <mgrwgt>
 0.3234758811D-03    1    2    0
 0.325399865380546D+03 0.000000000000000D+00 0.000000000000000D+00 0.325399865380546D+03
 0.325399865380546D+03 0.000000000000000D+00 0.000000000000000D+00 -.325399865380546D+03
 0.186493724567175D+03 -.238162172684621D+02 -.184958990180676D+01 -.136324158222796D+03
 0.173999565634797D+03 -.423910720281599D+02 0.333092241991663D+02 -.144575673895302D+03
 0.290306440559120D+03 0.662072892966221D+02 -.314596342973595D+02 0.280899832118098D+03
 0.000000000000000D+00 -.000000000000000D+00 0.000000000000000D+00 0.000000000000000D+00
 0.994212356639035D+04 0.000000000000000D+00 0.000000000000000D+00 0.994212356639035D+04
 0.551946285326269D+03 0.000000000000000D+00 0.000000000000000D+00 -.551946285326269D+03
 0.276277424287148D+03 0.195877210596022D+03 -.612540400684586D+02 -.136324158222796D+03
 0.220643805278237D+03 0.144959749548603D+03 -.173498813199263D+02 -.144575673895302D+03
 0.569090970114919D+03 0.474192885452004D+03 -.141777727337785D+03 0.280899832118098D+03
 0.942805765203632D+04 -.815029845596629D+03 0.220381648726169D+03 0.939017728106409D+04
0.235702938022D-06 0.000000000000D+00 0.000000000000D+00 0.555807369209D-05 0.000000000000D+00  6 21 1 25 -24 2 21 4 0.11844381D-01 0.21159026D+00 0.22108951D+05 0.22108951D+05 0.22108951D+05 0.12290615D+01  1  2 14  1  6  1       21 0.323475881119D-03 0.100000000000D+01
  </mgrwgt>
  </event>
  <event>
  6     66 0.42050411E-03 0.35482138E+02 0.75467711E-02 0.11612596E+00
       21 -1    0    0  501  502 0.00000000E+00 0.00000000E+00 0.51301212E+03 0.51301267E+03 0.75000000E+00 0.0000E+00 0.9000E+01
        1 -1    0    0  502    0 0.00000000E+00 0.00000000E+00 -.11085050E+03 0.11085096E+03 0.32000000E+00 0.0000E+00 0.9000E+01
       25  1    1    2    0    0 0.76196557E+02 -.87418023E+02 0.38571100E+02 0.17481578E+03 0.12500000E+03 0.0000E+00 0.9000E+01
      -24  1    1    2    0    0 -.79713299E+02 0.64239563E+02 0.33048864E+03 0.35520542E+03 0.80419002E+02 0.0000E+00 0.9000E+01
        2  1    1    2  503    0 0.12549270E+02 0.46321449E+02 -.51046068E+01 0.48263031E+02 0.32000000E+00 0.0000E+00 0.9000E+01
       21  1    1    2  501  503 -.90325276E+01 -.23142988E+02 0.38206483E+02 0.45579407E+02 0.75000000E+00 0.0000E+00 0.9000E+01
#aMCatNLO 2  0  0  5  1 0.15233668D+02 0.00000000D+00  -5  6  0 0.00000000D+00 0.00000000D+00 0.00000000D+00 0.00000000D+00 0.00000000D+00
  <mgrwgt>
 0.3987011759D-01    1    2    0
 0.238470055038364D+03 0.000000000000000D+00 0.000000000000000D+00 0.238470055038364D+03
 0.238470055038364D+03 -.000000000000000D+00 -.000000000000000D+00 -.238470055038364D+03
 0.192816809988841D+03 0.743538413412982D+02 -.995631575367673D+02 -.781793204970133D+02
 0.196791474771750D+03 -.815265746944995D+02 0.522884652767016D+02 0.151258066251222D+03
 0.873318253161371D+02 0.717273335320127D+01 0.472746922600658D+02 -.730787457542085D+02
 0.000000000000000D+00 -.000000000000000D+00 0.000000000000000D+00 0.000000000000000D+00
 0.238470055038364D+03 0.000000000000000D+00 0.000000000000000D+00 0.238470055038364D+03
 0.238470055038364D+03 -.000000000000000D+00 -.000000000000000D+00 -.238470055038364D+03
 0.196188596375466D+03 0.762140641494821D+02 -.873026347400015D+02 -.971320325178464D+02
 0.185866091085847D+03 -.796967072425654D+02 0.643489192775858D+02 0.132614627035110D+03
 0.672314431494227D+02 0.126438715172982D+02 0.463529958261482D+02 -.470276433488772D+02
 0.276539794659928D+02 -.916122842421481D+01 -.233992803637325D+02 0.115450488316139D+02
0.390637693152D-04 0.000000000000D+00 0.000000000000D+00 0.516752056780D-07 0.141492508502D-08  6 21 1 25 -24 2 21 4 0.78925020D-01 0.17054001D-01 0.34942903D+05 0.34942903D+05 0.34942903D+05 0.12080074D+01  1  2  1  3  6  5        2 0.398701175862D-01 0.100000000000D+01
  </mgrwgt>
  </event>
  <event>
  5     66 0.42050411E-03 0.82009402E+02 0.75467711E-02 0.11389730E+00
       21 -1    0    0  501  502 0.00000000E+00 0.00000000E+00 0.12391735E+03 0.12391961E+03 0.75000000E+00 0.0000E+00 0.9000E+01
        1 -1    0    0  502    0 0.00000000E+00 0.00000000E+00 -.35401120E+03 0.35401134E+03 0.32000000E+00 0.0000E+00 0.9000E+01
       25  1    1    2    0    0 0.23710687E+02 -.13168294E+03 -.59451417E+02 0.19251510E+03 0.12500000E+03 0.0000E+00 0.9000E+01
      -24  1    1    2    0    0 0.55438212E+02 0.10768342E+03 -.97931827E+02 0.17529111E+03 0.80419002E+02 0.0000E+00 0.9000E+01
        2  1    1    2  501    0 -.79148899E+02 0.23999512E+02 -.72710607E+02 0.11012475E+03 0.32000000E+00 0.0000E+00 0.9000E+01
#aMCatNLO 1  0  0  2  1 0.15215423D+02 0.00000000D+00  -5  6  0 0.00000000D+00 0.00000000D+00 0.00000000D+00 0.00000000D+00 0.00000000D+00
  <mgrwgt>
 0.1054603659D+00    9    2    0
 0.209448572257542D+03 0.000000000000000D+00 0.000000000000000D+00 0.209448572257542D+03
 0.209448572257542D+03 0.000000000000000D+00 0.000000000000000D+00 -.209448572257542D+03
 0.186989960157206D+03 0.237109332765367D+02 -.131683009755289D+03 0.379159832331650D+02
 0.146201873240469D+03 0.554384048967876D+02 0.107683364771215D+03 -.154482361032213D+02
 0.857053111174092D+02 -.791493381733243D+02 0.239996449840734D+02 -.224677471299437D+02
 0.000000000000000D+00 -.000000000000000D+00 0.000000000000000D+00 -.000000000000000D+00
 0.213628448895976D+03 0.000000000000000D+00 0.000000000000000D+00 0.213628448895976D+03
 0.223906524350244D+03 0.000000000000000D+00 0.000000000000000D+00 -.223906524350244D+03
 0.188031571533632D+03 0.305190764729357D+02 -.131764320208881D+03 0.379159832331650D+02
 0.148265097414375D+03 0.607841600959336D+02 0.107619519789184D+03 -.154482361032213D+02
 0.828767161416014D+02 -.760888990120210D+02 0.239630937998195D+02 -.224677471299437D+02
 0.183615881566125D+02 -.152143375568482D+02 0.181706619877791D+00 -.102780754542677D+02
0.199328980449D-05 0.000000000000D+00 0.000000000000D+00 0.108380501377D-06 0.000000000000D+00  6 21 1 25 -24 2 21 2 0.19064393D-01 0.54463447D-01 0.42270711D+05 0.42270711D+05 0.42270711D+05 0.11995727D+01  1  2  2  2  6  2        1 0.562210155450D-02 0.100000000000D+01
-.145601202015D-06 0.105188792882D-06 -.402387782301D-08 0.108380501377D-06 0.000000000000D+00  6 21 1 25 -24 2 21 4 0.19064393D-01 0.54463447D-01 0.42270711D+05 0.42270711D+05 0.42270711D+05 0.11995727D+01  1  2  3  2  6  2        1 -.590944065179D-03 0.100000000000D+01
0.238034194360D-06 0.000000000000D+00 0.000000000000D+00 0.108380501377D-06 0.000000000000D+00  6 21 1 25 -24 2 21 4 0.19064393D-01 0.54463447D-01 0.42270711D+05 0.42270711D+05 0.42270711D+05 0.11995727D+01  1  2 15  2  6  2        1 0.966097068703D-03 0.100000000000D+01
0.239094180558D-04 0.000000000000D+00 0.000000000000D+00 0.107800619736D-06 0.000000000000D+00  6 21 1 25 -24 2 21 4 0.19064393D-01 0.58741062D-01 0.45500243D+05 0.45500243D+05 0.45500243D+05 0.11963593D+01  1  2 12  2  6  2        1 0.871231870796D-01 0.100000000000D+01
-.221808982356D-05 0.000000000000D+00 0.000000000000D+00 0.108380501377D-06 0.000000000000D+00  6 21 1 25 -24 2 21 4 0.19064393D-01 0.54463447D-01 0.42270711D+05 0.42270711D+05 0.42270711D+05 0.11995727D+01  1  2  4  2  6  2        1 -.900244640238D-02 0.100000000000D+01
-.657567222992D-04 0.000000000000D+00 -.101989603629D-04 0.108380501377D-06 0.000000000000D+00  6 21 1 25 -24 2 21 4 0.19064393D-01 0.59143523D-01 0.42270711D+05 0.42270711D+05 0.42270711D+05 0.11995727D+01  1  2  5  2  6  2        1 -.240377565440D+00 0.100000000000D+01
0.664062815487D-04 0.000000000000D+00 0.101644026122D-04 0.108380501377D-06 0.000000000000D+00  6 21 1 25 -24 2 21 4 0.19064393D-01 0.54463447D-01 0.42270711D+05 0.42270711D+05 0.42270711D+05 0.11995727D+01  1  2  6  2  6  2        1 0.269519739045D+00 0.100000000000D+01
0.316654213348D-06 0.000000000000D+00 0.000000000000D+00 0.107800619736D-06 0.000000000000D+00  6 21 21 25 -24 2 -1 4 0.19064393D-01 0.58741062D-01 0.45500243D+05 0.45500243D+05 0.45500243D+05 0.11963593D+01  1  2 12 10  6  2        1 0.439878593047D-02 0.100000000000D+01
-.878605873954D-06 0.000000000000D+00 -.139901349990D-06 0.108380501377D-06 0.000000000000D+00  6 21 21 25 -24 2 -1 4 0.19064393D-01 0.59143523D-01 0.42270711D+05 0.42270711D+05 0.42270711D+05 0.11995727D+01  1  2  5 10  6  2        1 -.121985888748D-01 0.100000000000D+01
  </mgrwgt>
  </event>
  <event>
  5     66 0.42050411E-03 0.57361142E+02 0.75467711E-02 0.94261310E-01
       21 -1    0    0  501  502 0.00000000E+00 0.00000000E+00 0.58773729E+02 0.58778514E+02 0.75000000E+00 0.0000E+00 0.9000E+01
        1 -1    0    0  502    0 0.00000000E+00 0.00000000E+00 -.53231268E+03 0.53231277E+03 0.32000000E+00 0.0000E+00 0.9000E+01
       25  1    1    2    0    0 0.54060892E+01 -.31207218E+02 -.32241154E+03 0.34724245E+03 0.12500000E+03 0.0000E+00 0.9000E+01
      -24  1    1    2    0    0 -.27438908E+02 0.84167770E+02 -.14217888E+03 0.18579332E+03 0.80419002E+02 0.0000E+00 0.9000E+01
        2  1    1    2  501    0 0.22032819E+02 -.52960552E+02 -.89485309E+01 0.58055524E+02 0.32000000E+00 0.0000E+00 0.9000E+01
#aMCatNLO 1  0  0  1  2 0.49386970D+02 0.00000000D+00  -5  6  0 0.00000000D+00 0.00000000D+00 0.00000000D+00 0.00000000D+00 0.00000000D+00
  <mgrwgt>
 0.6272530450D-01   12    2    0
 0.176882570084323D+03 0.000000000000000D+00 0.000000000000000D+00 0.176882570084323D+03
 0.176882570084323D+03 0.000000000000000D+00 0.000000000000000D+00 -.176882570084323D+03
 0.148622851826770D+03 0.540602363885085D+01 -.312070607609100D+02 -.738961863170417D+02
 0.120118125109926D+03 -.274389614727444D+02 0.841678978034558D+02 0.111362650021281D+02
 0.850241632319511D+02 0.220329378338936D+02 -.529608370425458D+02 0.627599213149136D+02
 0.000000000000000D+00 -.000000000000000D+00 -.000000000000000D+00 0.000000000000000D+00
 0.929122903371142D+03 0.000000000000000D+00 0.000000000000000D+00 0.929122903371142D+03
 0.886815912200640D+03 0.000000000000000D+00 0.000000000000000D+00 -.886815912200640D+03
 0.384623066359761D+03 0.347110206156581D+03 0.797731885141739D+02 -.738961863170417D+02
 0.319585965508089D+03 0.254323583180759D+03 0.175680027422780D+03 0.111362650021281D+02
 0.237726248512102D+03 0.228851521607252D+03 0.142106497468974D+02 0.627599213149136D+02
 0.874003535191830D+03 -.830285310944592D+03 -.269663865683851D+03 0.423069911705026D+02
0.344550950378D-05 0.000000000000D+00 0.000000000000D+00 0.504322474084D-06 0.000000000000D+00  6 21 1 25 -24 2 21 2 0.90424876D-02 0.81894634D-01 0.23395529D+05 0.23395529D+05 0.23395529D+05 0.12263982D+01  1  2  2  1  6  1       21 0.230755345455D-01 0.100000000000D+01
-.498719467579D-08 0.181824531862D-06 -.695549099285D-08 0.504322474084D-06 0.000000000000D+00  6 21 1 25 -24 2 21 4 0.90424876D-02 0.81894634D-01 0.23395529D+05 0.23395529D+05 0.23395529D+05 0.12263982D+01  1  2  3  1  6  1       21 -.502363028874D-04 0.100000000000D+01
0.353777060129D-06 0.000000000000D+00 0.000000000000D+00 0.504322474084D-06 0.000000000000D+00  6 21 1 25 -24 2 21 4 0.90424876D-02 0.81894634D-01 0.23395529D+05 0.23395529D+05 0.23395529D+05 0.12263982D+01  1  2 15  1  6  1       21 0.356361696356D-02 0.100000000000D+01
0.142438742928D-02 0.000000000000D+00 -.630523398372D-03 0.504322474084D-06 0.000000000000D+00  6 21 1 25 -24 2 21 4 0.22300701D+00 0.81894634D-01 0.23395529D+05 0.23395529D+05 0.23395529D+05 0.12263982D+01  1  2  5  1  6  1       21 0.149987196027D-01 0.100000000000D+01
0.631086466310D-03 0.000000000000D+00 -.279513943698D-03 0.504322474084D-06 0.000000000000D+00  6 -1 1 25 -24 2 -1 4 0.22300701D+00 0.81894634D-01 0.23395529D+05 0.23395529D+05 0.23395529D+05 0.12263982D+01  1  2  5  4  6  1       21 0.759327225603D-03 0.100000000000D+01
0.631086466310D-03 0.000000000000D+00 -.279513943698D-03 0.504322474084D-06 0.000000000000D+00  6 1 1 25 -24 2 1 4 0.22300701D+00 0.81894634D-01 0.23395529D+05 0.23395529D+05 0.23395529D+05 0.12263982D+01  1  2  5  5  6  1       21 0.590615266742D-02 0.100000000000D+01
0.631086466310D-03 0.000000000000D+00 -.279513943698D-03 0.504322474084D-06 0.000000000000D+00  6 -2 1 25 -24 2 -2 4 0.22300701D+00 0.81894634D-01 0.23395529D+05 0.23395529D+05 0.23395529D+05 0.12263982D+01  1  2  5  6  6  1       21 0.581915457322D-03 0.100000000000D+01
0.631086466310D-03 0.000000000000D+00 -.279513943698D-03 0.504322474084D-06 0.000000000000D+00  6 2 1 25 -24 2 2 4 0.22300701D+00 0.81894634D-01 0.23395529D+05 0.23395529D+05 0.23395529D+05 0.12263982D+01  1  2  5  7  6  1       21 0.125258458740D-01 0.100000000000D+01
0.631086466310D-03 0.000000000000D+00 -.279513943698D-03 0.504322474084D-06 0.000000000000D+00  6 -3 1 25 -24 2 -3 4 0.22300701D+00 0.81894634D-01 0.23395529D+05 0.23395529D+05 0.23395529D+05 0.12263982D+01  1  2  5  8  6  1       21 0.387238214504D-03 0.100000000000D+01
0.631086466310D-03 0.000000000000D+00 -.279513943698D-03 0.504322474084D-06 0.000000000000D+00  6 -4 1 25 -24 2 -4 4 0.22300701D+00 0.81894634D-01 0.23395529D+05 0.23395529D+05 0.23395529D+05 0.12263982D+01  1  2  5  8  6  1       21 0.293468020371D-03 0.100000000000D+01
0.631086466310D-03 0.000000000000D+00 -.279513943698D-03 0.504322474084D-06 0.000000000000D+00  6 3 1 25 -24 2 3 4 0.22300701D+00 0.81894634D-01 0.23395529D+05 0.23395529D+05 0.23395529D+05 0.12263982D+01  1  2  5  9  6  1       21 0.390254208041D-03 0.100000000000D+01
0.631086466310D-03 0.000000000000D+00 -.279513943698D-03 0.504322474084D-06 0.000000000000D+00  6 4 1 25 -24 2 4 4 0.22300701D+00 0.81894634D-01 0.23395529D+05 0.23395529D+05 0.23395529D+05 0.12263982D+01  1  2  5  9  6  1       21 0.293468020371D-03 0.100000000000D+01
  </mgrwgt>
  </event>
  <event>
  5     66 0.42050411E-03 0.24396893E+02 0.75467711E-02 0.12086205E+00
       21 -1    0    0  501  502 0.00000000E+00 0.00000000E+00 0.97035934E+03 0.97035962E+03 0.75000000E+00 0.0000E+00 0.9000E+01
        3 -1    0    0  502    0 0.00000000E+00 0.00000000E+00 -.21699529E+02 0.21705289E+02 0.50000000E+00 0.0000E+00 0.9000E+01
       25  1    1    2    0    0 -.86955267E+02 0.23911546E+02 0.42369805E+03 0.45086364E+03 0.12500000E+03 0.0000E+00 0.9000E+01
      -24  1    1    2    0    0 0.62600081E+02 -.24592980E+02 0.37992597E+03 0.39412503E+03 0.80419002E+02 0.0000E+00 0.9000E+01
        4  1    1    2  501    0 0.24355186E+02 0.68143407E+00 0.14503579E+03 0.14707625E+03 0.15500000E+01 0.0000E+00 0.9000E+01
#aMCatNLO 1  0  0  1  2 0.36758041D+01 0.00000000D+00  -5  6  0 0.00000000D+00 0.00000000D+00 0.00000000D+00 0.00000000D+00 0.00000000D+00
  <mgrwgt>
 0.9635260267D-02   41    2    0
 0.145118370530112D+03 0.000000000000000D+00 0.000000000000000D+00 0.145118370530112D+03
 0.145118370530112D+03 0.000000000000000D+00 0.000000000000000D+00 -.145118370530112D+03
 0.156232196612687D+03 -.869744766563529D+02 0.239110082281498D+02 -.254401917109936D+02
 0.105343947165044D+03 0.625871273338394D+02 -.245933421880513D+02 0.103995318192853D+02
 0.286605972824918D+02 0.243873493225135D+02 0.682333959901465D+00 0.150406598917083D+02
 0.000000000000000D+00 -.000000000000000D+00 -.000000000000000D+00 0.000000000000000D+00
 0.158202691042094D+03 0.000000000000000D+00 0.000000000000000D+00 0.158202691042094D+03
 0.145388400993673D+03 0.000000000000000D+00 0.000000000000000D+00 -.145388400993673D+03
 0.155179634896799D+03 -.850127487180535D+02 0.241111652105967D+02 -.254401917109936D+02
 0.106109342241702D+03 0.639191699330682D+02 -.244574326044912D+02 0.103995318192853D+02
 0.289710397372915D+02 0.247503978037598D+02 0.719376144533440D+00 0.150406598917083D+02
 0.133310751599760D+02 -.365681901877449D+01 -.373108750638945D+00 0.128142900484207D+02
0.771165148941D-06 0.000000000000D+00 0.000000000000D+00 0.939207518479D-06 0.000000000000D+00  6 21 3 25 -24 4 21 2 0.14928652D+00 0.33388545D-02 0.20075101D+05 0.20075101D+05 0.20075101D+05 0.12336469D+01  1  2  2  1  6  1       21 0.752872523750D-03 0.100000000000D+01
0.516498606394D-07 0.406955029555D-07 -.155676025318D-08 0.939207518479D-06 0.000000000000D+00  6 21 3 25 -24 4 21 4 0.14928652D+00 0.33388545D-02 0.20075101D+05 0.20075101D+05 0.20075101D+05 0.12336469D+01  1  2  3  1  6  1       21 0.767405559259D-04 0.100000000000D+01
0.745636461424D-07 0.000000000000D+00 0.000000000000D+00 0.939207518479D-06 0.000000000000D+00  6 21 3 25 -24 4 21 4 0.14928652D+00 0.33388545D-02 0.20075101D+05 0.20075101D+05 0.20075101D+05 0.12336469D+01  1  2 15  1  6  1       21 0.110785500406D-03 0.100000000000D+01
0.174291507465D-05 0.000000000000D+00 0.000000000000D+00 0.937302225005D-06 0.000000000000D+00  6 21 3 25 -24 4 21 4 0.16287836D+00 0.33388545D-02 0.20608791D+05 0.20608791D+05 0.20608791D+05 0.12323950D+01  1  2 12  1  6  1       21 0.204990464671D-02 0.100000000000D+01
0.142157223844D-05 0.000000000000D+00 0.000000000000D+00 0.937302225005D-06 0.000000000000D+00  6 21 3 25 -24 4 21 4 0.16576471D+00 0.33388545D-02 0.20608791D+05 0.20608791D+05 0.20608791D+05 0.12323950D+01  1  2 12  1  6  1       21 0.159491714521D-02 0.100000000000D+01
-.420980216072D-04 0.000000000000D+00 0.000000000000D+00 0.939207518479D-06 0.000000000000D+00  6 21 3 25 -24 4 21 4 0.14928652D+00 0.33388545D-02 0.20075101D+05 0.20075101D+05 0.20075101D+05 0.12336469D+01  1  2  4  1  6  1       21 -.625485827362D-01 0.100000000000D+01
-.700102213409D-04 0.000000000000D+00 -.251811905488D-05 0.939207518479D-06 0.000000000000D+00  6 21 3 25 -24 4 21 4 0.16287254D+00 0.33388545D-02 0.20075101D+05 0.20075101D+05 0.20075101D+05 0.12336469D+01  1  2  5  1  6  1       21 -.826820899490D-01 0.100000000000D+01
0.693085571762D-04 0.000000000000D+00 0.248031844191D-05 0.939207518479D-06 0.000000000000D+00  6 21 3 25 -24 4 21 4 0.14928652D+00 0.33388545D-02 0.20075101D+05 0.20075101D+05 0.20075101D+05 0.12336469D+01  1  2  6  1  6  1       21 0.102977571329D+00 0.100000000000D+01
0.404457944283D-04 0.000000000000D+00 0.000000000000D+00 0.939207518479D-06 0.105268841299D-05  6 21 3 25 -24 4 21 4 0.16274665D+00 0.33450673D-02 0.20608791D+05 0.20608791D+05 0.20608791D+05 0.12323950D+01  1  2 11  1  6  1       21 0.475353560641D-01 0.100000000000D+01
0.383304954747D-07 0.000000000000D+00 0.000000000000D+00 0.937302225005D-06 0.000000000000D+00  6 -3 3 25 -24 4 -3 4 0.16287836D+00 0.33388545D-02 0.20608791D+05 0.20608791D+05 0.20608791D+05 0.12323950D+01  1  2 12  4  6  1       21 0.249117134347D-05 0.100000000000D+01
0.382302987231D-07 0.000000000000D+00 0.000000000000D+00 0.937302225005D-06 0.000000000000D+00  6 -3 3 25 -24 4 -3 4 0.16576471D+00 0.33388545D-02 0.20608791D+05 0.20608791D+05 0.20608791D+05 0.12323950D+01  1  2 12  4  6  1       21 0.237513433114D-05 0.100000000000D+01
-.143057939338D-05 0.000000000000D+00 -.551068110045D-07 0.939207518479D-06 0.000000000000D+00  6 -3 3 25 -24 4 -3 4 0.16287254D+00 0.33388545D-02 0.20075101D+05 0.20075101D+05 0.20075101D+05 0.12336469D+01  1  2  5  4  6  1       21 -.932134518459D-04 0.100000000000D+01
0.123212403851D-05 0.000000000000D+00 0.000000000000D+00 0.939207518479D-06 0.275374289434D-07  6 -3 3 25 -24 4 -3 4 0.16274665D+00 0.33450673D-02 0.20608791D+05 0.20608791D+05 0.20608791D+05 0.12323950D+01  1  2 11  4  6  1       21 0.800125354576D-04 0.100000000000D+01
0.383304954747D-07 0.000000000000D+00 0.000000000000D+00 0.937302225005D-06 0.000000000000D+00  6 3 3 25 -24 4 3 4 0.16287836D+00 0.33388545D-02 0.20608791D+05 0.20608791D+05 0.20608791D+05 0.12323950D+01  1  2 12  5  6  1       21 0.250229252253D-05 0.100000000000D+01
0.382302987231D-07 0.000000000000D+00 0.000000000000D+00 0.937302225005D-06 0.000000000000D+00  6 3 3 25 -24 4 3 4 0.16576471D+00 0.33388545D-02 0.20608791D+05 0.20608791D+05 0.20608791D+05 0.12323950D+01  1  2 12  5  6  1       21 0.238604705478D-05 0.100000000000D+01
-.143057939338D-05 0.000000000000D+00 -.551068110045D-07 0.939207518479D-06 0.000000000000D+00  6 3 3 25 -24 4 3 4 0.16287254D+00 0.33388545D-02 0.20075101D+05 0.20075101D+05 0.20075101D+05 0.12336469D+01  1  2  5  5  6  1       21 -.936294784791D-04 0.100000000000D+01
0.123264224315D-05 0.000000000000D+00 0.000000000000D+00 0.939207518479D-06 0.276359076493D-07  6 3 3 25 -24 4 3 4 0.16274665D+00 0.33450673D-02 0.20608791D+05 0.20608791D+05 0.20608791D+05 0.12323950D+01  1  2 11  5  6  1       21 0.804030593080D-04 0.100000000000D+01
0.383304954747D-07 0.000000000000D+00 0.000000000000D+00 0.937302225005D-06 0.000000000000D+00  6 -4 3 25 -24 4 -4 4 0.16287836D+00 0.33388545D-02 0.20608791D+05 0.20608791D+05 0.20608791D+05 0.12323950D+01  1  2 12  6  6  1       21 0.194315805743D-05 0.100000000000D+01
0.382302987231D-07 0.000000000000D+00 0.000000000000D+00 0.937302225005D-06 0.000000000000D+00  6 -4 3 25 -24 4 -4 4 0.16576471D+00 0.33388545D-02 0.20608791D+05 0.20608791D+05 0.20608791D+05 0.12323950D+01  1  2 12  6  6  1       21 0.185048139198D-05 0.100000000000D+01
-.143057939338D-05 0.000000000000D+00 -.551068110045D-07 0.939207518479D-06 0.000000000000D+00  6 -4 3 25 -24 4 -4 4 0.16287254D+00 0.33388545D-02 0.20075101D+05 0.20075101D+05 0.20075101D+05 0.12336469D+01  1  2  5  6  6  1       21 -.726908571614D-04 0.100000000000D+01
0.362836273578D-05 0.000000000000D+00 0.000000000000D+00 0.939207518479D-06 0.936006940539D-07  6 -4 3 25 -24 4 -4 4 0.16274665D+00 0.33450673D-02 0.20608791D+05 0.20608791D+05 0.20608791D+05 0.12323950D+01  1  2 11  6  6  1       21 0.183798454521D-03 0.100000000000D+01
0.383304954747D-07 0.000000000000D+00 0.000000000000D+00 0.937302225005D-06 0.000000000000D+00  6 4 3 25 -24 4 4 4 0.16287836D+00 0.33388545D-02 0.20608791D+05 0.20608791D+05 0.20608791D+05 0.12323950D+01  1  2 12  7  6  1       21 0.194315805743D-05 0.100000000000D+01
0.382302987231D-07 0.000000000000D+00 0.000000000000D+00 0.937302225005D-06 0.000000000000D+00  6 4 3 25 -24 4 4 4 0.16576471D+00 0.33388545D-02 0.20608791D+05 0.20608791D+05 0.20608791D+05 0.12323950D+01  1  2 12  7  6  1       21 0.185048139198D-05 0.100000000000D+01
-.143057939338D-05 0.000000000000D+00 -.551068110045D-07 0.939207518479D-06 0.000000000000D+00  6 4 3 25 -24 4 4 4 0.16287254D+00 0.33388545D-02 0.20075101D+05 0.20075101D+05 0.20075101D+05 0.12336469D+01  1  2  5  7  6  1       21 -.726908571614D-04 0.100000000000D+01
0.122827700420D-05 0.000000000000D+00 0.000000000000D+00 0.939207518479D-06 0.138237991513D-07  6 4 3 25 -24 4 4 4 0.16274665D+00 0.33450673D-02 0.20608791D+05 0.20608791D+05 0.20608791D+05 0.12323950D+01  1  2 11  7  6  1       21 0.622196377636D-04 0.100000000000D+01
0.383304954747D-07 0.000000000000D+00 0.000000000000D+00 0.937302225005D-06 0.000000000000D+00  6 -1 3 25 -24 4 -1 4 0.16287836D+00 0.33388545D-02 0.20608791D+05 0.20608791D+05 0.20608791D+05 0.12323950D+01  1  2 12  8  6  1       21 0.528401280690D-05 0.100000000000D+01
0.383304954747D-07 0.000000000000D+00 0.000000000000D+00 0.937302225005D-06 0.000000000000D+00  6 -2 3 25 -24 4 -2 4 0.16287836D+00 0.33388545D-02 0.20608791D+05 0.20608791D+05 0.20608791D+05 0.12323950D+01  1  2 12  8  6  1       21 0.386981312155D-05 0.100000000000D+01
0.382302987231D-07 0.000000000000D+00 0.000000000000D+00 0.937302225005D-06 0.000000000000D+00  6 -1 3 25 -24 4 -1 4 0.16576471D+00 0.33388545D-02 0.20608791D+05 0.20608791D+05 0.20608791D+05 0.12323950D+01  1  2 12  8  6  1       21 0.502494367070D-05 0.100000000000D+01
0.382302987231D-07 0.000000000000D+00 0.000000000000D+00 0.937302225005D-06 0.000000000000D+00  6 -2 3 25 -24 4 -2 4 0.16576471D+00 0.33388545D-02 0.20608791D+05 0.20608791D+05 0.20608791D+05 0.12323950D+01  1  2 12  8  6  1       21 0.368487810721D-05 0.100000000000D+01
-.143057939338D-05 0.000000000000D+00 -.551068110045D-07 0.939207518479D-06 0.000000000000D+00  6 -1 3 25 -24 4 -1 4 0.16287254D+00 0.33388545D-02 0.20075101D+05 0.20075101D+05 0.20075101D+05 0.12336469D+01  1  2  5  8  6  1       21 -.197841455795D-03 0.100000000000D+01
-.143057939338D-05 0.000000000000D+00 -.551068110045D-07 0.939207518479D-06 0.000000000000D+00  6 -2 3 25 -24 4 -2 4 0.16287254D+00 0.33388545D-02 0.20075101D+05 0.20075101D+05 0.20075101D+05 0.12336469D+01  1  2  5  8  6  1       21 -.144859570957D-03 0.100000000000D+01
0.123122091451D-05 0.000000000000D+00 0.000000000000D+00 0.939207518479D-06 0.275172445202D-07  6 -1 3 25 -24 4 -1 4 0.16274665D+00 0.33450673D-02 0.20608791D+05 0.20608791D+05 0.20608791D+05 0.12323950D+01  1  2 11  8  6  1       21 0.169609177640D-03 0.100000000000D+01
0.123122091451D-05 0.000000000000D+00 0.000000000000D+00 0.939207518479D-06 0.275172445202D-07  6 -2 3 25 -24 4 -2 4 0.16274665D+00 0.33450673D-02 0.20608791D+05 0.20608791D+05 0.20608791D+05 0.12323950D+01  1  2 11  8  6  1       21 0.124208408088D-03 0.100000000000D+01
0.383304954747D-07 0.000000000000D+00 0.000000000000D+00 0.937302225005D-06 0.000000000000D+00  6 1 3 25 -24 4 1 4 0.16287836D+00 0.33388545D-02 0.20608791D+05 0.20608791D+05 0.20608791D+05 0.12323950D+01  1  2 12  9  6  1       21 0.298902753534D-04 0.100000000000D+01
0.383304954747D-07 0.000000000000D+00 0.000000000000D+00 0.937302225005D-06 0.000000000000D+00  6 2 3 25 -24 4 2 4 0.16287836D+00 0.33388545D-02 0.20608791D+05 0.20608791D+05 0.20608791D+05 0.12323950D+01  1  2 12  9  6  1       21 0.563415531497D-04 0.100000000000D+01
0.382302987231D-07 0.000000000000D+00 0.000000000000D+00 0.937302225005D-06 0.000000000000D+00  6 1 3 25 -24 4 1 4 0.16576471D+00 0.33388545D-02 0.20608791D+05 0.20608791D+05 0.20608791D+05 0.12323950D+01  1  2 12  9  6  1       21 0.289066189654D-04 0.100000000000D+01
0.382302987231D-07 0.000000000000D+00 0.000000000000D+00 0.937302225005D-06 0.000000000000D+00  6 2 3 25 -24 4 2 4 0.16576471D+00 0.33388545D-02 0.20608791D+05 0.20608791D+05 0.20608791D+05 0.12323950D+01  1  2 12  9  6  1       21 0.548013315777D-04 0.100000000000D+01
-.143057939338D-05 0.000000000000D+00 -.551068110045D-07 0.939207518479D-06 0.000000000000D+00  6 1 3 25 -24 4 1 4 0.16287254D+00 0.33388545D-02 0.20075101D+05 0.20075101D+05 0.20075101D+05 0.12336469D+01  1  2  5  9  6  1       21 -.111903726677D-02 0.100000000000D+01
-.143057939338D-05 0.000000000000D+00 -.551068110045D-07 0.939207518479D-06 0.000000000000D+00  6 2 3 25 -24 4 2 4 0.16287254D+00 0.33388545D-02 0.20075101D+05 0.20075101D+05 0.20075101D+05 0.12336469D+01  1  2  5  9  6  1       21 -.210895471339D-02 0.100000000000D+01
0.123122091451D-05 0.000000000000D+00 0.000000000000D+00 0.939207518479D-06 0.275172445202D-07  6 1 3 25 -24 4 1 4 0.16274665D+00 0.33450673D-02 0.20608791D+05 0.20608791D+05 0.20608791D+05 0.12323950D+01  1  2 11  9  6  1       21 0.958694111569D-03 0.100000000000D+01
0.123122091451D-05 0.000000000000D+00 0.000000000000D+00 0.939207518479D-06 0.275172445202D-07  6 2 3 25 -24 4 2 4 0.16274665D+00 0.33450673D-02 0.20608791D+05 0.20608791D+05 0.20608791D+05 0.12323950D+01  1  2 11  9  6  1       21 0.180661210338D-02 0.100000000000D+01
  </mgrwgt>
  </event>
  <event>
  5     66 0.42050411E-03 0.82789238E+02 0.75467711E-02 0.11268231E+00
       21 -1    0    0  501  502 0.00000000E+00 0.00000000E+00 0.26746171E+02 0.26756685E+02 0.75000000E+00 0.0000E+00 0.9000E+01
        1 -1    0    0  502    0 0.00000000E+00 0.00000000E+00 -.10130313E+04 0.10130313E+04 0.32000000E+00 0.0000E+00 0.9000E+01
       25  1    1    2    0    0 -.25662442E+02 -.48203619E+02 -.57247113E+03 0.58849838E+03 0.12500000E+03 0.0000E+00 0.9000E+01
      -24  1    1    2    0    0 -.15466093E+02 -.23646588E+02 -.29061507E+03 0.30285755E+03 0.80419002E+02 0.0000E+00 0.9000E+01
        2  1    1    2  501    0 0.41128536E+02 0.71850207E+02 -.12319888E+03 0.14843206E+03 0.32000000E+00 0.0000E+00 0.9000E+01
#aMCatNLO 1  0  0  2  1 0.13483823D+03 0.00000000D+00  -5  6  0 0.00000000D+00 0.00000000D+00 0.00000000D+00 0.00000000D+00 0.00000000D+00
  <mgrwgt>
 0.2558054675D-01    3    2    0
 0.164621382959305D+03 0.000000000000000D+00 0.000000000000000D+00 0.164621382959305D+03
 0.164621382959305D+03 0.000000000000000D+00 0.000000000000000D+00 -.164621382959305D+03
 0.143644306810220D+03 -.256625348750201D+02 -.482037805909866D+02 -.450168492846066D+02
 0.858890563718010D+02 -.154661484644064D+02 -.236466845154653D+02 -.105520904644939D+02
 0.997094027365897D+02 0.411286833394265D+02 0.718504651064519D+02 0.555689397491004D+02
 0.000000000000000D+00 0.000000000000000D+00 0.000000000000000D+00 0.000000000000000D+00
 0.255751241831130D+03 0.000000000000000D+00 0.000000000000000D+00 0.255751241831130D+03
 0.236270767432447D+03 0.000000000000000D+00 0.000000000000000D+00 -.236270767432447D+03
 0.176864668393061D+03 -.684031866801912D+02 -.946076014824884D+02 -.450168492846066D+02
 0.104227141899060D+03 -.408186061535056D+02 -.511720229479971D+02 -.105520904644939D+02
 0.746920378234561D+02 0.178718268330854D+02 0.466003353531887D+02 0.555689397491004D+02
 0.136238161148001D+03 0.913499660006113D+02 0.991792890772967D+02 0.194804743986829D+02
0.237001862543D-05 0.000000000000D+00 0.000000000000D+00 0.543172935047D-06 0.000000000000D+00  6 21 1 25 -24 2 21 2 0.41156082D-02 0.15585177D+00 0.23170279D+05 0.23170279D+05 0.23170279D+05 0.12268525D+01  1  2  2  2  6  2        1 0.234681111087D-01 0.100000000000D+01
-.105168168731D-06 0.125069318949D-06 -.478438477211D-08 0.543172935047D-06 0.000000000000D+00  6 21 1 25 -24 2 21 4 0.41156082D-02 0.15585177D+00 0.23170279D+05 0.23170279D+05 0.23170279D+05 0.12268525D+01  1  2  3  2  6  2        1 -.156745610878D-02 0.100000000000D+01
0.246901635582D-06 0.000000000000D+00 0.000000000000D+00 0.543172935047D-06 0.000000000000D+00  6 21 1 25 -24 2 21 4 0.41156082D-02 0.15585177D+00 0.23170279D+05 0.23170279D+05 0.23170279D+05 0.12268525D+01  1  2 15  2  6  2        1 0.367989175460D-02 0.100000000000D+01
  </mgrwgt>
  </event>
  <event>
  5     66 0.42050411E-03 0.43561641E+02 0.75467711E-02 0.11286810E+00
       21 -1    0    0  501  502 0.00000000E+00 0.00000000E+00 0.47413034E+02 0.47418966E+02 0.75000000E+00 0.0000E+00 0.9000E+01
        1 -1    0    0  502    0 0.00000000E+00 0.00000000E+00 -.13731982E+04 0.13731983E+04 0.32000000E+00 0.0000E+00 0.9000E+01
       25  1    1    2    0    0 -.70493713E+02 -.14791247E+03 -.44337194E+03 0.48892856E+03 0.12500000E+03 0.0000E+00 0.9000E+01
      -24  1    1    2    0    0 0.35442321E+02 0.17377734E+03 -.86174083E+03 0.88346998E+03 0.80419002E+02 0.0000E+00 0.9000E+01
        2  1    1    2  501    0 0.35051391E+02 -.25864867E+02 -.20672430E+02 0.48218701E+02 0.32000000E+00 0.0000E+00 0.9000E+01
#aMCatNLO 1  0  0  1  2 0.10261135D+02 0.00000000D+00  -5  6  0 0.00000000D+00 0.00000000D+00 0.00000000D+00 0.00000000D+00 0.00000000D+00
  <mgrwgt>
 0.1670375602D+00   23    2    0
 0.255170012328522D+03 0.000000000000000D+00 0.000000000000000D+00 0.255170012328522D+03
 0.255170012328522D+03 0.000000000000000D+00 0.000000000000000D+00 -.255170012328522D+03
 0.209202401780523D+03 -.704938259958777D+02 -.147912387394214D+03 0.359609658177626D+02
 0.220616670837754D+03 0.354422016402812D+02 0.173777426080101D+03 -.103681030208172D+03
 0.805209520387671D+02 0.350516243555966D+02 -.258650386858872D+02 0.677200643904090D+02
 0.000000000000000D+00 0.000000000000000D+00 -.000000000000000D+00 0.000000000000000D+00
 0.273881999827934D+03 0.000000000000000D+00 0.000000000000000D+00 0.273881999827934D+03
 0.256632204167944D+03 0.000000000000000D+00 0.000000000000000D+00 -.256632204167944D+03
 0.208211381806718D+03 -.735242502094474D+02 -.145010251646066D+03 0.359609658177626D+02
 0.222563262492442D+03 0.322247151706439D+02 0.176858705084178D+03 -.103681030208172D+03
 0.796685275129076D+02 0.338886486785103D+02 -.247512958403852D+02 0.677200643904090D+02
 0.200710321838103D+02 0.741088636029322D+01 -.709715759772679D+01 0.172497956599896D+02
0.338362398844D-05 0.000000000000D+00 0.000000000000D+00 0.368319775191D-06 0.000000000000D+00  6 21 1 25 -24 2 21 2 0.72947721D-02 0.21126173D+00 0.49369666D+05 0.49369666D+05 0.49369666D+05 0.11928278D+01  1  2  2  1  6  1       21 0.663035485082D-02 0.100000000000D+01
0.261244462795D-06 0.178558743494D-06 -.683056196737D-08 0.368319775191D-06 0.000000000000D+00  6 21 1 25 -24 2 21 4 0.72947721D-02 0.21126173D+00 0.49369666D+05 0.49369666D+05 0.49369666D+05 0.11928278D+01  1  2  3  1  6  1       21 0.728378779728D-03 0.100000000000D+01
0.380785657121D-06 0.000000000000D+00 0.000000000000D+00 0.368319775191D-06 0.000000000000D+00  6 21 1 25 -24 2 21 4 0.72947721D-02 0.21126173D+00 0.49369666D+05 0.49369666D+05 0.49369666D+05 0.11928278D+01  1  2 15  1  6  1       21 0.106167299894D-02 0.100000000000D+01
0.448669426166D-04 0.000000000000D+00 0.000000000000D+00 0.367155963331D-06 0.000000000000D+00  6 21 1 25 -24 2 21 4 0.78497086D-02 0.21126173D+00 0.51585036D+05 0.51585036D+05 0.51585036D+05 0.11909418D+01  1  2 12  1  6  1       21 0.109259278879D+00 0.100000000000D+01
-.954003781571D-06 0.000000000000D+00 0.000000000000D+00 0.368319775191D-06 0.000000000000D+00  6 21 1 25 -24 2 21 4 0.72947721D-02 0.21126173D+00 0.49369666D+05 0.49369666D+05 0.49369666D+05 0.11928278D+01  1  2  4  1  6  1       21 -.265986923835D-02 0.100000000000D+01
-.158490793957D-03 0.000000000000D+00 -.146063631271D-04 0.368319775191D-06 0.000000000000D+00  6 21 1 25 -24 2 21 4 0.78723594D-02 0.21126173D+00 0.49369666D+05 0.49369666D+05 0.49369666D+05 0.11928278D+01  1  2  5  1  6  1       21 -.386996704146D+00 0.100000000000D+01
0.158130345808D-03 0.000000000000D+00 0.144381270873D-04 0.368319775191D-06 0.000000000000D+00  6 21 1 25 -24 2 21 4 0.72947721D-02 0.21126173D+00 0.49369666D+05 0.49369666D+05 0.49369666D+05 0.11928278D+01  1  2  6  1  6  1       21 0.440885089336D+00 0.100000000000D+01
0.915601701827D-06 0.000000000000D+00 0.000000000000D+00 0.367155963331D-06 0.000000000000D+00  6 -1 1 25 -24 2 -1 4 0.78497086D-02 0.21126173D+00 0.51585036D+05 0.51585036D+05 0.51585036D+05 0.11909418D+01  1  2 12  4  6  1       21 0.142816373186D-03 0.100000000000D+01
-.259833544814D-05 0.000000000000D+00 -.275631556185D-06 0.368319775191D-06 0.000000000000D+00  6 -1 1 25 -24 2 -1 4 0.78723594D-02 0.21126173D+00 0.49369666D+05 0.49369666D+05 0.49369666D+05 0.11928278D+01  1  2  5  4  6  1       21 -.406259548735D-03 0.100000000000D+01
0.915601701827D-06 0.000000000000D+00 0.000000000000D+00 0.367155963331D-06 0.000000000000D+00  6 1 1 25 -24 2 1 4 0.78497086D-02 0.21126173D+00 0.51585036D+05 0.51585036D+05 0.51585036D+05 0.11909418D+01  1  2 12  5  6  1       21 0.171015595943D-03 0.100000000000D+01
-.259833544814D-05 0.000000000000D+00 -.275631556185D-06 0.368319775191D-06 0.000000000000D+00  6 1 1 25 -24 2 1 4 0.78723594D-02 0.21126173D+00 0.49369666D+05 0.49369666D+05 0.49369666D+05 0.11928278D+01  1  2  5  5  6  1       21 -.486736483979D-03 0.100000000000D+01
0.915601701827D-06 0.000000000000D+00 0.000000000000D+00 0.367155963331D-06 0.000000000000D+00  6 -2 1 25 -24 2 -2 4 0.78497086D-02 0.21126173D+00 0.51585036D+05 0.51585036D+05 0.51585036D+05 0.11909418D+01  1  2 12  6  6  1       21 0.137914057040D-03 0.100000000000D+01
-.259833544814D-05 0.000000000000D+00 -.275631556185D-06 0.368319775191D-06 0.000000000000D+00  6 -2 1 25 -24 2 -2 4 0.78723594D-02 0.21126173D+00 0.49369666D+05 0.49369666D+05 0.49369666D+05 0.11928278D+01  1  2  5  6  6  1       21 -.392267685414D-03 0.100000000000D+01
0.915601701827D-06 0.000000000000D+00 0.000000000000D+00 0.367155963331D-06 0.000000000000D+00  6 2 1 25 -24 2 2 4 0.78497086D-02 0.21126173D+00 0.51585036D+05 0.51585036D+05 0.51585036D+05 0.11909418D+01  1  2 12  7  6  1       21 0.190075768640D-03 0.100000000000D+01
-.259833544814D-05 0.000000000000D+00 -.275631556185D-06 0.368319775191D-06 0.000000000000D+00  6 2 1 25 -24 2 2 4 0.78723594D-02 0.21126173D+00 0.49369666D+05 0.49369666D+05 0.49369666D+05 0.11928278D+01  1  2  5  7  6  1       21 -.541121150946D-03 0.100000000000D+01
0.915601701827D-06 0.000000000000D+00 0.000000000000D+00 0.367155963331D-06 0.000000000000D+00  6 -3 1 25 -24 2 -3 4 0.78497086D-02 0.21126173D+00 0.51585036D+05 0.51585036D+05 0.51585036D+05 0.11909418D+01  1  2 12  8  6  1       21 0.987218064173D-04 0.100000000000D+01
0.915601701827D-06 0.000000000000D+00 0.000000000000D+00 0.367155963331D-06 0.000000000000D+00  6 -4 1 25 -24 2 -4 4 0.78497086D-02 0.21126173D+00 0.51585036D+05 0.51585036D+05 0.51585036D+05 0.11909418D+01  1  2 12  8  6  1       21 0.876573375300D-04 0.100000000000D+01
-.259833544814D-05 0.000000000000D+00 -.275631556185D-06 0.368319775191D-06 0.000000000000D+00  6 -3 1 25 -24 2 -3 4 0.78723594D-02 0.21126173D+00 0.49369666D+05 0.49369666D+05 0.49369666D+05 0.11928278D+01  1  2  5  8  6  1       21 -.280489709628D-03 0.100000000000D+01
-.259833544814D-05 0.000000000000D+00 -.275631556185D-06 0.368319775191D-06 0.000000000000D+00  6 -4 1 25 -24 2 -4 4 0.78723594D-02 0.21126173D+00 0.49369666D+05 0.49369666D+05 0.49369666D+05 0.11928278D+01  1  2  5  8  6  1       21 -.248938614629D-03 0.100000000000D+01
0.915601701827D-06 0.000000000000D+00 0.000000000000D+00 0.367155963331D-06 0.000000000000D+00  6 3 1 25 -24 2 3 4 0.78497086D-02 0.21126173D+00 0.51585036D+05 0.51585036D+05 0.51585036D+05 0.11909418D+01  1  2 12  9  6  1       21 0.987109451107D-04 0.100000000000D+01
0.915601701827D-06 0.000000000000D+00 0.000000000000D+00 0.367155963331D-06 0.000000000000D+00  6 4 1 25 -24 2 4 4 0.78497086D-02 0.21126173D+00 0.51585036D+05 0.51585036D+05 0.51585036D+05 0.11909418D+01  1  2 12  9  6  1       21 0.876573375300D-04 0.100000000000D+01
-.259833544814D-05 0.000000000000D+00 -.275631556185D-06 0.368319775191D-06 0.000000000000D+00  6 3 1 25 -24 2 3 4 0.78723594D-02 0.21126173D+00 0.49369666D+05 0.49369666D+05 0.49369666D+05 0.11928278D+01  1  2  5  9  6  1       21 -.280458710503D-03 0.100000000000D+01
-.259833544814D-05 0.000000000000D+00 -.275631556185D-06 0.368319775191D-06 0.000000000000D+00  6 4 1 25 -24 2 4 4 0.78723594D-02 0.21126173D+00 0.49369666D+05 0.49369666D+05 0.49369666D+05 0.11928278D+01  1  2  5  9  6  1       21 -.248938614629D-03 0.100000000000D+01
  </mgrwgt>
  </event>
  <event>
  5     66 0.42050411E-03 0.79539477E+02 0.75467711E-02 0.11024862E+00
       21 -1    0    0  501  502 0.00000000E+00 0.00000000E+00 0.27745011E+02 0.27755146E+02 0.75000000E+00 0.0000E+00 0.9000E+01
        1 -1    0    0  502    0 0.00000000E+00 0.00000000E+00 -.15373683E+04 0.15373684E+04 0.32000000E+00 0.0000E+00 0.9000E+01
       25  1    1    2    0    0 -.11616830E+02 0.12491633E+03 -.11222245E+04 0.11361126E+04 0.12500000E+03 0.0000E+00 0.9000E+01
      -24  1    1    2    0    0 0.18888501E+01 -.45974492E+02 -.13025301E+03 0.15984457E+03 0.80419002E+02 0.0000E+00 0.9000E+01
        2  1    1    2  501    0 0.97279799E+01 -.78941836E+02 -.25714583E+03 0.26916636E+03 0.32000000E+00 0.0000E+00 0.9000E+01
#aMCatNLO 1  0  0  2  1 0.15408014D+03 0.00000000D+00  -5  6  0 0.00000000D+00 0.00000000D+00 0.00000000D+00 0.00000000D+00 0.00000000D+00
  <mgrwgt>
 0.1414328210D-01    5    2    0
 0.206548442483616D+03 0.000000000000000D+00 0.000000000000000D+00 0.206548442483616D+03
 0.206548442483616D+03 0.000000000000000D+00 0.000000000000000D+00 -.206548442483616D+03
 0.203391442886584D+03 -.116168682621673D+02 0.124916637538177D+03 -.100019803426231D+03
 0.129614788201339D+03 0.188882573745326D+01 -.459742938166372D+02 0.906398036819504D+02
 0.800906538793076D+02 0.972804252471404D+01 -.789423437215395D+02 0.937999974428089D+01
 0.000000000000000D+00 -.000000000000000D+00 -.000000000000000D+00 -.000000000000000D+00
 0.237185391163471D+03 0.000000000000000D+00 0.000000000000000D+00 0.237185391163471D+03
 0.575059194194887D+03 0.000000000000000D+00 0.000000000000000D+00 -.575059194194887D+03
 0.228479182145376D+03 0.618721612608875D+02 0.150816482047900D+03 -.100019803426231D+03
 0.133301929715470D+03 0.466279057424043D+02 -.302068354196964D+02 0.906398036819504D+02
 0.791153920676413D+02 0.368192525600766D+02 -.693945495534857D+02 0.937999974428089D+01
 0.371348081429870D+03 -.145319319563368D+03 -.512150970747182D+02 -.337873803031416D+03
0.343831141793D-05 0.000000000000D+00 0.000000000000D+00 0.116360559921D-06 0.000000000000D+00  6 21 1 25 -24 2 21 2 0.42692454D-02 0.23651899D+00 0.30501015D+05 0.30501015D+05 0.30501015D+05 0.12141442D+01  1  2  2  2  6  2        1 0.137346019452D-01 0.100000000000D+01
-.215297695772D-06 0.181444678435D-06 -.694096013137D-08 0.116360559921D-06 0.000000000000D+00  6 21 1 25 -24 2 21 4 0.42692454D-02 0.23651899D+00 0.30501015D+05 0.30501015D+05 0.30501015D+05 0.12141442D+01  1  2  3  2  6  2        1 -.126780009582D-02 0.100000000000D+01
0.373225987050D-06 0.000000000000D+00 0.000000000000D+00 0.116360559921D-06 0.000000000000D+00  6 21 1 25 -24 2 21 4 0.42692454D-02 0.23651899D+00 0.30501015D+05 0.30501015D+05 0.30501015D+05 0.12141442D+01  1  2 15  2  6  2        1 0.219777522675D-02 0.100000000000D+01
-.910147178918D-05 0.000000000000D+00 -.275745279006D-05 0.116360559921D-06 0.000000000000D+00  6 21 1 25 -24 2 21 4 0.42692454D-02 0.66931611D+00 0.30501015D+05 0.30501015D+05 0.30501015D+05 0.12141442D+01  1  2  5  2  6  2        1 -.514618245420D-03 0.100000000000D+01
-.913673086294D-06 0.000000000000D+00 -.322765650149D-06 0.116360559921D-06 0.000000000000D+00  6 21 21 25 -24 2 -1 4 0.42692454D-02 0.66931611D+00 0.30501015D+05 0.30501015D+05 0.30501015D+05 0.12141442D+01  1  2  5 10  6  2        1 -.667672698581D-05 0.100000000000D+01
  </mgrwgt>
  </event>
  <event>
  5     66 -.42050411E-03 0.85598177E+02 0.75467711E-02 0.11538189E+00
       21 -1    0    0  501  502 0.00000000E+00 0.00000000E+00 0.26855371E+02 0.26865842E+02 0.75000000E+00 0.0000E+00 0.9000E+01
        1 -1    0    0  502    0 0.00000000E+00 0.00000000E+00 -.16404508E+04 0.16404509E+04 0.32000000E+00 0.0000E+00 0.9000E+01
       25  1    1    2    0    0 -.14480289E+02 -.11215254E+03 -.67707358E+03 0.69774028E+03 0.12500000E+03 0.0000E+00 0.9000E+01
      -24  1    1    2    0    0 0.26234710E+02 -.56386315E+01 -.69969591E+03 0.70481320E+03 0.80419002E+02 0.0000E+00 0.9000E+01
        2  1    1    2  501    0 -.11754421E+02 0.11779117E+03 -.23682598E+03 0.26476324E+03 0.32000000E+00 0.0000E+00 0.9000E+01
#aMCatNLO 1  0  0  1  2 0.18824871D+02 0.00000000D+00  -5  6  0 0.00000000D+00 0.00000000D+00 0.00000000D+00 0.00000000D+00 0.00000000D+00
  <mgrwgt>
 -.2235964575D-01   32    2    0
 0.209913485853785D+03 0.000000000000000D+00 0.000000000000000D+00 0.209913485853785D+03
 0.209913485853785D+03 0.000000000000000D+00 0.000000000000000D+00 -.209913485853785D+03
 0.168715243953116D+03 -.144802770010887D+02 -.112152657115146D+03 -.720670674744121D+01
 0.109856406649884D+03 0.262347183430842D+02 -.563871057234543D+01 -.698652891226720D+02
 0.141255321104569D+03 -.117544413419955D+02 0.117791367687492D+03 0.770719958701132D+02
 0.000000000000000D+00 -.000000000000000D+00 0.000000000000000D+00 0.000000000000000D+00
 0.297360590814944D+03 0.000000000000000D+00 0.000000000000000D+00 0.297360590814944D+03
 0.211139968896987D+03 0.000000000000000D+00 0.000000000000000D+00 -.211139968896987D+03
 0.172060132042193D+03 -.918807746672221D+01 -.117657688438533D+03 -.720670674744121D+01
 0.110964314310261D+03 0.296640368882711D+02 -.920594304091175D+01 -.698652891226720D+02
 0.137224363205099D+03 -.742968621164108D+01 0.113292687638871D+03 0.770719958701132D+02
 0.882517501543790D+02 -.130462732099078D+02 0.135709438405739D+02 0.862206219179574D+02
0.848586430442D-06 0.000000000000D+00 0.000000000000D+00 0.294940236796D-06 0.000000000000D+00  6 21 1 25 -24 2 21 2 0.41324034D-02 0.25237786D+00 0.34543092D+05 0.34543092D+05 0.34543092D+05 0.12085231D+01  1  2  2  1  6  1       21 0.303227584254D-02 0.100000000000D+01
-.479731082414D-07 0.447811362267D-07 -.171305151447D-08 0.294940236796D-06 0.000000000000D+00  6 21 1 25 -24 2 21 4 0.41324034D-02 0.25237786D+00 0.34543092D+05 0.34543092D+05 0.34543092D+05 0.12085231D+01  1  2  3  1  6  1       21 -.250368908172D-03 0.100000000000D+01
0.940350734452D-07 0.000000000000D+00 0.000000000000D+00 0.294940236796D-06 0.000000000000D+00  6 21 1 25 -24 2 21 4 0.41324034D-02 0.25237786D+00 0.34543092D+05 0.34543092D+05 0.34543092D+05 0.12085231D+01  1  2 15  1  6  1       21 0.490763670137D-03 0.100000000000D+01
0.175176156933D-04 0.000000000000D+00 0.000000000000D+00 0.292800367452D-06 0.000000000000D+00  6 21 1 25 -24 2 21 4 0.58621570D-02 0.25237786D+00 0.38118392D+05 0.38118392D+05 0.38118392D+05 0.12041310D+01  1  2 12  1  6  1       21 0.497023548585D-01 0.100000000000D+01
0.168293670169D-04 0.000000000000D+00 0.000000000000D+00 0.292800367452D-06 0.000000000000D+00  6 21 1 25 -24 2 21 4 0.59392337D-02 0.25237786D+00 0.38118392D+05 0.38118392D+05 0.38118392D+05 0.12041310D+01  1  2 12  1  6  1       21 0.466945229339D-01 0.100000000000D+01
-.325403130811D-04 0.000000000000D+00 0.000000000000D+00 0.294940236796D-06 0.000000000000D+00  6 21 1 25 -24 2 21 4 0.41324034D-02 0.25237786D+00 0.34543092D+05 0.34543092D+05 0.34543092D+05 0.12085231D+01  1  2  4  1  6  1       21 -.169826032883D+00 0.100000000000D+01
-.362093124177D-04 0.000000000000D+00 -.113618175533D-05 0.294940236796D-06 0.000000000000D+00  6 21 1 25 -24 2 21 4 0.58805633D-02 0.25237786D+00 0.34543092D+05 0.34543092D+05 0.34543092D+05 0.12085231D+01  1  2  5  1  6  1       21 -.103996166344D+00 0.100000000000D+01
0.291239850095D-04 0.000000000000D+00 0.896513016029D-06 0.294940236796D-06 0.000000000000D+00  6 21 1 25 -24 2 21 4 0.41324034D-02 0.25237786D+00 0.34543092D+05 0.34543092D+05 0.34543092D+05 0.12085231D+01  1  2  6  1  6  1       21 0.151996412068D+00 0.100000000000D+01
0.195089183317D-05 0.000000000000D+00 0.000000000000D+00 0.292800367452D-06 0.000000000000D+00  6 -1 1 25 -24 2 -1 4 0.58621570D-02 0.25237786D+00 0.38118392D+05 0.38118392D+05 0.38118392D+05 0.12041310D+01  1  2 12  4  6  1       21 0.330951145379D-03 0.100000000000D+01
0.195979415374D-05 0.000000000000D+00 0.000000000000D+00 0.292800367452D-06 0.000000000000D+00  6 -1 1 25 -24 2 -1 4 0.59392337D-02 0.25237786D+00 0.38118392D+05 0.38118392D+05 0.38118392D+05 0.12041310D+01  1  2 12  4  6  1       21 0.326001953694D-03 0.100000000000D+01
-.400197588142D-05 0.000000000000D+00 -.130531973417D-06 0.294940236796D-06 0.000000000000D+00  6 -1 1 25 -24 2 -1 4 0.58805633D-02 0.25237786D+00 0.34543092D+05 0.34543092D+05 0.34543092D+05 0.12085231D+01  1  2  5  4  6  1       21 -.686395295242D-03 0.100000000000D+01
0.195089183317D-05 0.000000000000D+00 0.000000000000D+00 0.292800367452D-06 0.000000000000D+00  6 1 1 25 -24 2 1 4 0.58621570D-02 0.25237786D+00 0.38118392D+05 0.38118392D+05 0.38118392D+05 0.12041310D+01  1  2 12  5  6  1       21 0.379867112591D-03 0.100000000000D+01
0.195979415374D-05 0.000000000000D+00 0.000000000000D+00 0.292800367452D-06 0.000000000000D+00  6 1 1 25 -24 2 1 4 0.59392337D-02 0.25237786D+00 0.38118392D+05 0.38118392D+05 0.38118392D+05 0.12041310D+01  1  2 12  5  6  1       21 0.374820859921D-03 0.100000000000D+01
-.400197588142D-05 0.000000000000D+00 -.130531973417D-06 0.294940236796D-06 0.000000000000D+00  6 1 1 25 -24 2 1 4 0.58805633D-02 0.25237786D+00 0.34543092D+05 0.34543092D+05 0.34543092D+05 0.12085231D+01  1  2  5  5  6  1       21 -.788278731492D-03 0.100000000000D+01
0.195089183317D-05 0.000000000000D+00 0.000000000000D+00 0.292800367452D-06 0.000000000000D+00  6 -2 1 25 -24 2 -2 4 0.58621570D-02 0.25237786D+00 0.38118392D+05 0.38118392D+05 0.38118392D+05 0.12041310D+01  1  2 12  6  6  1       21 0.322381138258D-03 0.100000000000D+01
0.195979415374D-05 0.000000000000D+00 0.000000000000D+00 0.292800367452D-06 0.000000000000D+00  6 -2 1 25 -24 2 -2 4 0.59392337D-02 0.25237786D+00 0.38118392D+05 0.38118392D+05 0.38118392D+05 0.12041310D+01  1  2 12  6  6  1       21 0.317452156257D-03 0.100000000000D+01
-.400197588142D-05 0.000000000000D+00 -.130531973417D-06 0.294940236796D-06 0.000000000000D+00  6 -2 1 25 -24 2 -2 4 0.58805633D-02 0.25237786D+00 0.34543092D+05 0.34543092D+05 0.34543092D+05 0.12085231D+01  1  2  5  6  6  1       21 -.668541716556D-03 0.100000000000D+01
0.195089183317D-05 0.000000000000D+00 0.000000000000D+00 0.292800367452D-06 0.000000000000D+00  6 2 1 25 -24 2 2 4 0.58621570D-02 0.25237786D+00 0.38118392D+05 0.38118392D+05 0.38118392D+05 0.12041310D+01  1  2 12  7  6  1       21 0.412793695290D-03 0.100000000000D+01
0.195979415374D-05 0.000000000000D+00 0.000000000000D+00 0.292800367452D-06 0.000000000000D+00  6 2 1 25 -24 2 2 4 0.59392337D-02 0.25237786D+00 0.38118392D+05 0.38118392D+05 0.38118392D+05 0.12041310D+01  1  2 12  7  6  1       21 0.407681774016D-03 0.100000000000D+01
-.400197588142D-05 0.000000000000D+00 -.130531973417D-06 0.294940236796D-06 0.000000000000D+00  6 2 1 25 -24 2 2 4 0.58805633D-02 0.25237786D+00 0.34543092D+05 0.34543092D+05 0.34543092D+05 0.12085231D+01  1  2  5  7  6  1       21 -.856826204877D-03 0.100000000000D+01
0.195089183317D-05 0.000000000000D+00 0.000000000000D+00 0.292800367452D-06 0.000000000000D+00  6 -3 1 25 -24 2 -3 4 0.58621570D-02 0.25237786D+00 0.38118392D+05 0.38118392D+05 0.38118392D+05 0.12041310D+01  1  2 12  8  6  1       21 0.234896510489D-03 0.100000000000D+01
0.195089183317D-05 0.000000000000D+00 0.000000000000D+00 0.292800367452D-06 0.000000000000D+00  6 -4 1 25 -24 2 -4 4 0.58621570D-02 0.25237786D+00 0.38118392D+05 0.38118392D+05 0.38118392D+05 0.12041310D+01  1  2 12  8  6  1       21 0.209745543381D-03 0.100000000000D+01
0.195979415374D-05 0.000000000000D+00 0.000000000000D+00 0.292800367452D-06 0.000000000000D+00  6 -3 1 25 -24 2 -3 4 0.59392337D-02 0.25237786D+00 0.38118392D+05 0.38118392D+05 0.38118392D+05 0.12041310D+01  1  2 12  8  6  1       21 0.231062394113D-03 0.100000000000D+01
0.195979415374D-05 0.000000000000D+00 0.000000000000D+00 0.292800367452D-06 0.000000000000D+00  6 -4 1 25 -24 2 -4 4 0.59392337D-02 0.25237786D+00 0.38118392D+05 0.38118392D+05 0.38118392D+05 0.12041310D+01  1  2 12  8  6  1       21 0.206249351740D-03 0.100000000000D+01
-.400197588142D-05 0.000000000000D+00 -.130531973417D-06 0.294940236796D-06 0.000000000000D+00  6 -3 1 25 -24 2 -3 4 0.58805633D-02 0.25237786D+00 0.34543092D+05 0.34543092D+05 0.34543092D+05 0.12085231D+01  1  2  5  8  6  1       21 -.486036005459D-03 0.100000000000D+01
-.400197588142D-05 0.000000000000D+00 -.130531973417D-06 0.294940236796D-06 0.000000000000D+00  6 -4 1 25 -24 2 -4 4 0.58805633D-02 0.25237786D+00 0.34543092D+05 0.34543092D+05 0.34543092D+05 0.12085231D+01  1  2  5  8  6  1       21 -.433576410590D-03 0.100000000000D+01
0.195089183317D-05 0.000000000000D+00 0.000000000000D+00 0.292800367452D-06 0.000000000000D+00  6 3 1 25 -24 2 3 4 0.58621570D-02 0.25237786D+00 0.38118392D+05 0.38118392D+05 0.38118392D+05 0.12041310D+01  1  2 12  9  6  1       21 0.234872795642D-03 0.100000000000D+01
0.195089183317D-05 0.000000000000D+00 0.000000000000D+00 0.292800367452D-06 0.000000000000D+00  6 4 1 25 -24 2 4 4 0.58621570D-02 0.25237786D+00 0.38118392D+05 0.38118392D+05 0.38118392D+05 0.12041310D+01  1  2 12  9  6  1       21 0.209745543381D-03 0.100000000000D+01
0.195979415374D-05 0.000000000000D+00 0.000000000000D+00 0.292800367452D-06 0.000000000000D+00  6 3 1 25 -24 2 3 4 0.59392337D-02 0.25237786D+00 0.38118392D+05 0.38118392D+05 0.38118392D+05 0.12041310D+01  1  2 12  9  6  1       21 0.231038931614D-03 0.100000000000D+01
0.195979415374D-05 0.000000000000D+00 0.000000000000D+00 0.292800367452D-06 0.000000000000D+00  6 4 1 25 -24 2 4 4 0.59392337D-02 0.25237786D+00 0.38118392D+05 0.38118392D+05 0.38118392D+05 0.12041310D+01  1  2 12  9  6  1       21 0.206249351740D-03 0.100000000000D+01
-.400197588142D-05 0.000000000000D+00 -.130531973417D-06 0.294940236796D-06 0.000000000000D+00  6 3 1 25 -24 2 3 4 0.58805633D-02 0.25237786D+00 0.34543092D+05 0.34543092D+05 0.34543092D+05 0.12085231D+01  1  2  5  9  6  1       21 -.485986474290D-03 0.100000000000D+01
-.400197588142D-05 0.000000000000D+00 -.130531973417D-06 0.294940236796D-06 0.000000000000D+00  6 4 1 25 -24 2 4 4 0.58805633D-02 0.25237786D+00 0.34543092D+05 0.34543092D+05 0.34543092D+05 0.12085231D+01  1  2  5  9  6  1       21 -.433576410590D-03 0.100000000000D+01
  </mgrwgt>
  </event>
  <event>
  5     66 0.42050411E-03 0.53515976E+02 0.75467711E-02 0.12074338E+00
       21 -1    0    0  501  502 0.00000000E+00 0.00000000E+00 0.26047357E+03 0.26047465E+03 0.75000000E+00 0.0000E+00 0.9000E+01
        1 -1    0    0  502    0 0.00000000E+00 0.00000000E+00 -.13288950E+03 0.13288989E+03 0.32000000E+00 0.0000E+00 0.9000E+01
       25  1    1    2    0    0 -.19289256E+02 0.11470419E+02 -.27467016E+02 0.12993492E+03 0.12500000E+03 0.0000E+00 0.9000E+01
      -24  1    1    2    0    0 0.22333889E+02 0.41958760E+02 -.61095448E+01 0.93615611E+02 0.80419002E+02 0.0000E+00 0.9000E+01
        2  1    1    2  501    0 -.30446332E+01 -.53429179E+02 0.16116063E+03 0.16981401E+03 0.32000000E+00 0.0000E+00 0.9000E+01
#aMCatNLO 1  0  0  2  1 0.16079686D+02 0.00000000D+00  -5  6  0 0.00000000D+00 0.00000000D+00 0.00000000D+00 0.00000000D+00 0.00000000D+00
  <mgrwgt>
 0.4173916895D-01    9    2    0
 0.186049701192038D+03 0.000000000000000D+00 0.000000000000000D+00 0.186049701192038D+03
 0.186049701192038D+03 0.000000000000000D+00 0.000000000000000D+00 -.186049701192038D+03
 0.146778445229000D+03 -.192892516896420D+02 0.114704888695996D+02 -.735884816950903D+02
 0.101060533611194D+03 0.223338915909669D+02 0.419588084118551D+02 -.385573752020143D+02
 0.124260423543881D+03 -.304463990132491D+01 -.534292972814547D+02 0.112145856897105D+03
 0.000000000000000D+00 0.000000000000000D+00 -.000000000000000D+00 -.000000000000000D+00
 0.190490108291937D+03 0.000000000000000D+00 0.000000000000000D+00 0.190490108291937D+03
 0.201372738630989D+03 0.000000000000000D+00 0.000000000000000D+00 -.201372738630989D+03
 0.147878962616606D+03 -.243544083479101D+02 0.153227197454730D+02 -.735884816950903D+02
 0.101484269597358D+03 0.188521492988914D+02 0.446067966310297D+02 -.385573752020143D+02
 0.123083437203820D+03 -.729647735658553D+01 -.501956244398430D+02 0.112145856897105D+03
 0.194161775051415D+02 0.127987364056042D+02 -.973389193665970D+01 -.108826303390521D+02
0.286856305926D-05 0.000000000000D+00 0.000000000000D+00 0.182365384944D-05 0.000000000000D+00  6 21 1 25 -24 2 21 2 0.40072970D-01 0.20444652D-01 0.18759500D+05 0.18759500D+05 0.18759500D+05 0.12368993D+01  1  2  2  2  6  2        1 0.707432593182D-02 0.100000000000D+01
0.118652742965D-06 0.151378231519D-06 -.579080234700D-08 0.182365384944D-05 0.000000000000D+00  6 21 1 25 -24 2 21 4 0.40072970D-01 0.20444652D-01 0.18759500D+05 0.18759500D+05 0.18759500D+05 0.12368993D+01  1  2  3  2  6  2        1 0.447679453558D-03 0.100000000000D+01
0.307616218080D-06 0.000000000000D+00 0.000000000000D+00 0.182365384944D-05 0.000000000000D+00  6 21 1 25 -24 2 21 4 0.40072970D-01 0.20444652D-01 0.18759500D+05 0.18759500D+05 0.18759500D+05 0.12368993D+01  1  2 15  2  6  2        1 0.116064287242D-02 0.100000000000D+01
0.305219176297D-04 0.000000000000D+00 0.000000000000D+00 0.180861807397D-05 0.000000000000D+00  6 21 1 25 -24 2 21 4 0.40072970D-01 0.22358733D-01 0.20872463D+05 0.20872463D+05 0.20872463D+05 0.12317898D+01  1  2 12  2  6  2        1 0.101053703825D+00 0.100000000000D+01
-.228368532513D-04 0.000000000000D+00 0.000000000000D+00 0.182365384944D-05 0.000000000000D+00  6 21 1 25 -24 2 21 4 0.40072970D-01 0.20444652D-01 0.18759500D+05 0.18759500D+05 0.18759500D+05 0.12368993D+01  1  2  4  2  6  2        1 -.861639581948D-01 0.100000000000D+01
-.687083361025D-04 0.000000000000D+00 -.125849415414D-04 0.182365384944D-05 0.000000000000D+00  6 21 1 25 -24 2 21 4 0.40072970D-01 0.22609949D-01 0.18759500D+05 0.18759500D+05 0.18759500D+05 0.12368993D+01  1  2  5  2  6  2        1 -.228219402890D+00 0.100000000000D+01
0.696853463172D-04 0.000000000000D+00 0.125214406167D-04 0.182365384944D-05 0.000000000000D+00  6 21 1 25 -24 2 21 4 0.40072970D-01 0.20444652D-01 0.18759500D+05 0.18759500D+05 0.18759500D+05 0.12368993D+01  1  2  6  2  6  2        1 0.262924370568D+00 0.100000000000D+01
0.450368505398D-06 0.000000000000D+00 0.000000000000D+00 0.180861807397D-05 0.000000000000D+00  6 21 21 25 -24 2 -1 4 0.40072970D-01 0.22358733D-01 0.20872463D+05 0.20872463D+05 0.20872463D+05 0.12317898D+01  1  2 12 10  6  2        1 0.118560097004D-01 0.100000000000D+01
-.108039479118D-05 0.000000000000D+00 -.205588110755D-06 0.182365384944D-05 0.000000000000D+00  6 21 21 25 -24 2 -1 4 0.40072970D-01 0.22609949D-01 0.18759500D+05 0.18759500D+05 0.18759500D+05 0.12368993D+01  1  2  5 10  6  2        1 -.283942023143D-01 0.100000000000D+01
  </mgrwgt>
  </event>
  <event>
  6     66 0.42050411E-03 0.65663026E+02 0.75467711E-02 0.11704260E+00
       21 -1    0    0  501  502 0.00000000E+00 0.00000000E+00 0.28270543E+03 0.28270642E+03 0.75000000E+00 0.0000E+00 0.9000E+01
        1 -1    0    0  502    0 0.00000000E+00 0.00000000E+00 -.17292403E+03 0.17292433E+03 0.32000000E+00 0.0000E+00 0.9000E+01
       25  1    1    2    0    0 -.52192229E+02 -.44749405E+02 -.83951062E+02 0.16552740E+03 0.12500000E+03 0.0000E+00 0.9000E+01
      -24  1    1    2    0    0 0.11697186E+03 0.24329901E+02 0.10950809E+03 0.18092429E+03 0.80419002E+02 0.0000E+00 0.9000E+01
        2  1    1    2  503    0 -.58703566E+02 0.19141075E+02 0.68314178E+02 0.92083759E+02 0.32000000E+00 0.0000E+00 0.9000E+01
       21  1    1    2  501  503 -.60760670E+01 0.12784295E+01 0.15910186E+02 0.17095306E+02 0.75000000E+00 0.0000E+00 0.9000E+01
#aMCatNLO 2  0  0  5  1 0.51338211D+01 0.00000000D+00  -5  6  0 0.00000000D+00 0.00000000D+00 0.00000000D+00 0.00000000D+00 0.00000000D+00
  <mgrwgt>
 0.3377172921D-01    3    2    0
 0.221103723854722D+03 0.000000000000000D+00 0.000000000000000D+00 0.221103723854722D+03
 0.221103723854722D+03 -.000000000000000D+00 -.000000000000000D+00 -.221103723854722D+03
 0.191545025720005D+03 -.518287317738697D+02 -.448639849099867D+02 -.127927722948492D+03
 0.159319347828398D+03 0.117274238279018D+03 0.242345869894093D+02 0.676378331085819D+02
 0.913430741610413D+02 -.654455065051486D+02 0.206293979205774D+02 0.602898898399103D+02
 0.000000000000000D+00 0.000000000000000D+00 0.000000000000000D+00 0.000000000000000D+00
 0.221103723854722D+03 0.000000000000000D+00 0.000000000000000D+00 0.221103723854722D+03
 0.221103723854722D+03 -.000000000000000D+00 -.000000000000000D+00 -.221103723854722D+03
 0.191393285407746D+03 -.521927734542903D+02 -.447492335529248D+02 -.127592359468526D+03
 0.159229928084503D+03 0.116971408266115D+03 0.243300435176278D+02 0.679168070075270D+02
 0.779397671758517D+02 -.587452863466031D+02 0.191603888388244D+02 0.475024014027358D+02
 0.136444670413446D+02 -.603334846522145D+01 0.125880119647264D+01 0.121731510582637D+02
-.580373694195D-05 0.000000000000D+00 0.000000000000D+00 0.181792938304D-06 0.000000000000D+00  6 21 1 25 -24 2 21 4 0.43493242D-01 0.26603797D-01 0.31441010D+05 0.31441010D+05 0.31441010D+05 0.12127657D+01  1  2 13  3  6  5        2 -.122220979433D-01 0.100000000000D+01
-.116039114878D-04 0.000000000000D+00 0.000000000000D+00 0.181731795622D-06 0.000000000000D+00  6 21 1 25 -24 2 21 4 0.43493242D-01 0.26603797D-01 0.31582822D+05 0.31582822D+05 0.31582822D+05 0.12125618D+01  1  2  8  3  6  5        2 -.244183897772D-01 0.100000000000D+01
0.334356659944D-04 0.000000000000D+00 0.000000000000D+00 0.181731795622D-06 0.189333829325D-06  6 21 1 25 -24 2 21 4 0.43493242D-01 0.26603797D-01 0.31441010D+05 0.31441010D+05 0.31441010D+05 0.12127657D+01  1  2  1  3  6  5        2 0.704122169337D-01 0.100000000000D+01
  </mgrwgt>
  </event>
  <event>
  5     66 0.42050411E-03 0.35379396E+02 0.75467711E-02 0.11283183E+00
       21 -1    0    0  501  502 0.00000000E+00 0.00000000E+00 0.68825573E+02 0.68829660E+02 0.75000000E+00 0.0000E+00 0.9000E+01
        3 -1    0    0  502    0 -.00000000E+00 -.00000000E+00 -.13204857E+04 0.13204858E+04 0.50000000E+00 0.0000E+00 0.9000E+01
       25  1    1    2    0    0 -.11802932E+03 0.57202116E+02 -.77870367E+03 0.79950448E+03 0.12500000E+03 0.0000E+00 0.9000E+01
      -24  1    1    2    0    0 0.91974964E+02 -.33268151E+02 -.51757971E+03 0.53284344E+03 0.80419002E+02 0.0000E+00 0.9000E+01
        4  1    1    2  501    0 0.26054352E+02 -.23933965E+02 0.44623248E+02 0.56967540E+02 0.15500000E+01 0.0000E+00 0.9000E+01
#aMCatNLO 1  0  0  5  1 0.40422694D+01 0.00000000D+00  -5  6  0 0.00000000D+00 0.00000000D+00 0.00000000D+00 0.00000000D+00 0.00000000D+00
  <mgrwgt>
 0.3613203978D-02    6    2    0
 0.301473200152300D+03 0.000000000000000D+00 0.000000000000000D+00 0.301473200152300D+03
 0.301473200152300D+03 -.000000000000000D+00 -.000000000000000D+00 -.301473200152300D+03
 0.225712285803847D+03 -.118029549310022D+03 0.572023306978708D+02 -.134602952475797D+03
 0.153337225471950D+03 0.919748049959410D+02 -.332680051119838D+02 -.864810027861191D+02
 0.223896889028803D+03 0.260547443140815D+02 -.239343255858870D+02 0.221083955261916D+03
 0.000000000000000D+00 0.000000000000000D+00 0.000000000000000D+00 0.000000000000000D+00
 0.301473200152300D+03 0.000000000000000D+00 0.000000000000000D+00 0.301473200152300D+03
 0.301473200152300D+03 -.000000000000000D+00 -.000000000000000D+00 -.301473200152300D+03
 0.213557666626795D+03 -.115864045732615D+03 0.552130627528745D+02 -.116227869218182D+03
 0.147850727154899D+03 0.934595948962666D+02 -.346319580440348D+02 -.738820219655889D+02
 0.126862646701683D+03 0.126868847536422D+02 -.834556215213590D+02 0.947012846791828D+02
 0.114675359821223D+03 0.971756608270606D+01 0.628745168125193D+02 0.954086065045884D+02
0.377499208129D-04 0.000000000000D+00 0.000000000000D+00 0.490983601489D-05 0.000000000000D+00  6 21 3 25 -24 4 21 2 0.10588871D-01 0.20315197D+00 0.29444404D+05 0.29444404D+05 0.29444404D+05 0.12157514D+01  1  2  2  3  6  5        4 0.313441143861D-02 0.100000000000D+01
0.900384112906D-05 0.199211805165D-05 -.762062138870D-07 0.490983601489D-05 0.000000000000D+00  6 21 3 25 -24 4 21 4 0.10588871D-01 0.20315197D+00 0.29444404D+05 0.29444404D+05 0.29444404D+05 0.12157514D+01  1  2  3  3  6  5        4 0.110498740864D-02 0.100000000000D+01
0.381802459492D-05 0.000000000000D+00 0.000000000000D+00 0.490983601489D-05 0.000000000000D+00  6 21 3 25 -24 4 21 4 0.10588871D-01 0.20315197D+00 0.29444404D+05 0.29444404D+05 0.29444404D+05 0.12157514D+01  1  2 15  3  6  5        4 0.468563254590D-03 0.100000000000D+01
-.161312190005D-04 0.000000000000D+00 0.000000000000D+00 0.490983601489D-05 0.000000000000D+00  6 21 3 25 -24 4 21 4 0.10588871D-01 0.20315197D+00 0.29444404D+05 0.29444404D+05 0.29444404D+05 0.12157514D+01  1  2  4  3  6  5        4 -.197968773837D-02 0.100000000000D+01
-.117143003452D-04 0.000000000000D+00 0.000000000000D+00 0.490983601489D-05 0.000000000000D+00  6 21 3 25 -24 4 21 4 0.10588871D-01 0.20315197D+00 0.29444404D+05 0.29444404D+05 0.29444404D+05 0.12157514D+01  1  2  5  3  6  5        4 -.143762580846D-02 0.100000000000D+01
0.189250301704D-04 0.000000000000D+00 -.000000000000D+00 0.490983601489D-05 0.000000000000D+00  6 21 3 25 -24 4 21 4 0.10588871D-01 0.20315197D+00 0.29444404D+05 0.29444404D+05 0.29444404D+05 0.12157514D+01  1  2  6  3  6  5        4 0.232255542347D-02 0.100000000000D+01
  </mgrwgt>
  </event>
  <event>
  5     66 0.42050411E-03 0.18600426E+03 0.75467711E-02 0.10896892E+00
       21 -1    0    0  501  502 0.00000000E+00 0.00000000E+00 0.15862485E+03 0.15862663E+03 0.75000000E+00 0.0000E+00 0.9000E+01
        1 -1    0    0  502    0 0.00000000E+00 0.00000000E+00 -.55020831E+03 0.55020841E+03 0.32000000E+00 0.0000E+00 0.9000E+01
       25  1    1    2    0    0 0.11422992E+03 0.13403764E+03 -.73556502E+02 0.22814496E+03 0.12500000E+03 0.0000E+00 0.9000E+01
      -24  1    1    2    0    0 0.47880113E+02 0.42963519E+02 -.16980301E+03 0.19859166E+03 0.80419002E+02 0.0000E+00 0.9000E+01
        2  1    1    2  501    0 -.16211004E+03 -.17700116E+03 -.14822395E+03 0.28209841E+03 0.32000000E+00 0.0000E+00 0.9000E+01
#aMCatNLO 1  0  0  1  2 0.22383996D+02 0.00000000D+00  -5  6  0 0.00000000D+00 0.00000000D+00 0.00000000D+00 0.00000000D+00 0.00000000D+00
  <mgrwgt>
 0.4853193829D-01   32    2    0
 0.295427444885720D+03 0.000000000000000D+00 0.000000000000000D+00 0.295427444885720D+03
 0.295427444885720D+03 0.000000000000000D+00 0.000000000000000D+00 -.295427444885720D+03
 0.224951457710163D+03 0.114229976896765D+03 0.134037700259331D+03 0.629568551730600D+02
 0.125710545591686D+03 0.478801437951930D+02 0.429635521872504D+02 -.720940381182370D+02
 0.240192886469590D+03 -.162110120691958D+03 -.177001252446581D+03 0.913718294517690D+01
 0.000000000000000D+00 -.000000000000000D+00 -.000000000000000D+00 0.000000000000000D+00
 0.314407652220267D+03 0.000000000000000D+00 0.000000000000000D+00 0.314407652220267D+03
 0.302313437170023D+03 0.000000000000000D+00 0.000000000000000D+00 -.302313437170023D+03
 0.231548622535350D+03 0.117904245357882D+03 0.141861862074783D+03 0.629568551730600D+02
 0.128045025083942D+03 0.499225664157203D+02 0.473127839452616D+02 -.720940381182370D+02
 0.231685088728853D+03 -.158312078946085D+03 -.168913521918440D+03 0.913718294517690D+01
 0.254423530421453D+02 -.951473282751690D+01 -.202611241016036D+02 0.120942150502440D+02
0.484797271994D-05 0.000000000000D+00 0.000000000000D+00 0.126302487154D-06 0.000000000000D+00  6 21 1 25 -24 2 21 2 0.24403967D-01 0.84647576D-01 0.78110327D+05 0.78110327D+05 0.78110327D+05 0.11735583D+01  1  2  2  1  6  1       21 0.455183430440D-02 0.100000000000D+01
-.500035751444D-06 0.255834549089D-06 -.978666015871D-08 0.126302487154D-06 0.000000000000D+00  6 21 1 25 -24 2 21 4 0.24403967D-01 0.84647576D-01 0.78110327D+05 0.78110327D+05 0.78110327D+05 0.11735583D+01  1  2  3  1  6  1       21 -.646601449373D-03 0.100000000000D+01
0.659169691947D-06 0.000000000000D+00 0.000000000000D+00 0.126302487154D-06 0.000000000000D+00  6 21 1 25 -24 2 21 4 0.24403967D-01 0.84647576D-01 0.78110327D+05 0.78110327D+05 0.78110327D+05 0.11735583D+01  1  2 15  1  6  1       21 0.852379208817D-03 0.100000000000D+01
0.189707184671D-04 0.000000000000D+00 0.000000000000D+00 0.125578442407D-06 0.000000000000D+00  6 21 1 25 -24 2 21 4 0.26243346D-01 0.84647576D-01 0.84836707D+05 0.84836707D+05 0.84836707D+05 0.11701897D+01  1  2 12  1  6  1       21 0.210256785741D-01 0.100000000000D+01
0.151496990435D-04 0.000000000000D+00 0.000000000000D+00 0.125578442407D-06 0.000000000000D+00  6 21 1 25 -24 2 21 4 0.26682906D-01 0.84647576D-01 0.84836707D+05 0.84836707D+05 0.84836707D+05 0.11701897D+01  1  2 12  1  6  1       21 0.162585182335D-01 0.100000000000D+01
-.111087641793D-04 0.000000000000D+00 0.000000000000D+00 0.126302487154D-06 0.000000000000D+00  6 21 1 25 -24 2 21 4 0.24403967D-01 0.84647576D-01 0.78110327D+05 0.78110327D+05 0.78110327D+05 0.11735583D+01  1  2  4  1  6  1       21 -.143648589093D-01 0.100000000000D+01
-.113744534246D-03 0.000000000000D+00 -.189079031106D-04 0.126302487154D-06 0.000000000000D+00  6 21 1 25 -24 2 21 4 0.26525720D-01 0.84647576D-01 0.78110327D+05 0.78110327D+05 0.78110327D+05 0.11735583D+01  1  2  5  1  6  1       21 -.125229849479D+00 0.100000000000D+01
0.113743144187D-03 0.000000000000D+00 0.186476336571D-04 0.126302487154D-06 0.000000000000D+00  6 21 1 25 -24 2 21 4 0.24403967D-01 0.84647576D-01 0.78110327D+05 0.78110327D+05 0.78110327D+05 0.11735583D+01  1  2  6  1  6  1       21 0.147082446955D+00 0.100000000000D+01
0.356662194811D-06 0.000000000000D+00 0.000000000000D+00 0.125578442407D-06 0.000000000000D+00  6 -1 1 25 -24 2 -1 4 0.26243346D-01 0.84647576D-01 0.84836707D+05 0.84836707D+05 0.84836707D+05 0.11701897D+01  1  2 12  4  6  1       21 0.341821282039D-04 0.100000000000D+01
0.357731454720D-06 0.000000000000D+00 0.000000000000D+00 0.125578442407D-06 0.000000000000D+00  6 -1 1 25 -24 2 -1 4 0.26682906D-01 0.84647576D-01 0.84836707D+05 0.84836707D+05 0.84836707D+05 0.11701897D+01  1  2 12  4  6  1       21 0.333391412907D-04 0.100000000000D+01
-.203525519569D-05 0.000000000000D+00 -.394114262616D-06 0.126302487154D-06 0.000000000000D+00  6 -1 1 25 -24 2 -1 4 0.26525720D-01 0.84647576D-01 0.78110327D+05 0.78110327D+05 0.78110327D+05 0.11735583D+01  1  2  5  4  6  1       21 -.193912237315D-03 0.100000000000D+01
0.356662194811D-06 0.000000000000D+00 0.000000000000D+00 0.125578442407D-06 0.000000000000D+00  6 1 1 25 -24 2 1 4 0.26243346D-01 0.84647576D-01 0.84836707D+05 0.84836707D+05 0.84836707D+05 0.11701897D+01  1  2 12  5  6  1       21 0.568026235531D-04 0.100000000000D+01
0.357731454720D-06 0.000000000000D+00 0.000000000000D+00 0.125578442407D-06 0.000000000000D+00  6 1 1 25 -24 2 1 4 0.26682906D-01 0.84647576D-01 0.84836707D+05 0.84836707D+05 0.84836707D+05 0.11701897D+01  1  2 12  5  6  1       21 0.557759346523D-04 0.100000000000D+01
-.203525519569D-05 0.000000000000D+00 -.394114262616D-06 0.126302487154D-06 0.000000000000D+00  6 1 1 25 -24 2 1 4 0.26525720D-01 0.84647576D-01 0.78110327D+05 0.78110327D+05 0.78110327D+05 0.11735583D+01  1  2  5  5  6  1       21 -.323625657592D-03 0.100000000000D+01
0.356662194811D-06 0.000000000000D+00 0.000000000000D+00 0.125578442407D-06 0.000000000000D+00  6 -2 1 25 -24 2 -2 4 0.26243346D-01 0.84647576D-01 0.84836707D+05 0.84836707D+05 0.84836707D+05 0.11701897D+01  1  2 12  6  6  1       21 0.305057349972D-04 0.100000000000D+01
0.357731454720D-06 0.000000000000D+00 0.000000000000D+00 0.125578442407D-06 0.000000000000D+00  6 -2 1 25 -24 2 -2 4 0.26682906D-01 0.84647576D-01 0.84836707D+05 0.84836707D+05 0.84836707D+05 0.11701897D+01  1  2 12  6  6  1       21 0.297012561842D-04 0.100000000000D+01
-.203525519569D-05 0.000000000000D+00 -.394114262616D-06 0.126302487154D-06 0.000000000000D+00  6 -2 1 25 -24 2 -2 4 0.26525720D-01 0.84647576D-01 0.78110327D+05 0.78110327D+05 0.78110327D+05 0.11735583D+01  1  2  5  6  6  1       21 -.172844964105D-03 0.100000000000D+01
0.356662194811D-06 0.000000000000D+00 0.000000000000D+00 0.125578442407D-06 0.000000000000D+00  6 2 1 25 -24 2 2 4 0.26243346D-01 0.84647576D-01 0.84836707D+05 0.84836707D+05 0.84836707D+05 0.11701897D+01  1  2 12  7  6  1       21 0.732329975822D-04 0.100000000000D+01
0.357731454720D-06 0.000000000000D+00 0.000000000000D+00 0.125578442407D-06 0.000000000000D+00  6 2 1 25 -24 2 2 4 0.26682906D-01 0.84647576D-01 0.84836707D+05 0.84836707D+05 0.84836707D+05 0.11701897D+01  1  2 12  7  6  1       21 0.720981973399D-04 0.100000000000D+01
-.203525519569D-05 0.000000000000D+00 -.394114262616D-06 0.126302487154D-06 0.000000000000D+00  6 2 1 25 -24 2 2 4 0.26525720D-01 0.84647576D-01 0.78110327D+05 0.78110327D+05 0.78110327D+05 0.11735583D+01  1  2  5  7  6  1       21 -.417877919055D-03 0.100000000000D+01
0.356662194811D-06 0.000000000000D+00 0.000000000000D+00 0.125578442407D-06 0.000000000000D+00  6 -3 1 25 -24 2 -3 4 0.26243346D-01 0.84647576D-01 0.84836707D+05 0.84836707D+05 0.84836707D+05 0.11701897D+01  1  2 12  8  6  1       21 0.201449502140D-04 0.100000000000D+01
0.356662194811D-06 0.000000000000D+00 0.000000000000D+00 0.125578442407D-06 0.000000000000D+00  6 -4 1 25 -24 2 -4 4 0.26243346D-01 0.84647576D-01 0.84836707D+05 0.84836707D+05 0.84836707D+05 0.11701897D+01  1  2 12  8  6  1       21 0.172296935380D-04 0.100000000000D+01
0.357731454720D-06 0.000000000000D+00 0.000000000000D+00 0.125578442407D-06 0.000000000000D+00  6 -3 1 25 -24 2 -3 4 0.26682906D-01 0.84647576D-01 0.84836707D+05 0.84836707D+05 0.84836707D+05 0.11701897D+01  1  2 12  8  6  1       21 0.195945722974D-04 0.100000000000D+01
0.357731454720D-06 0.000000000000D+00 0.000000000000D+00 0.125578442407D-06 0.000000000000D+00  6 -4 1 25 -24 2 -4 4 0.26682906D-01 0.84647576D-01 0.84836707D+05 0.84836707D+05 0.84836707D+05 0.11701897D+01  1  2 12  8  6  1       21 0.167480815474D-04 0.100000000000D+01
-.203525519569D-05 0.000000000000D+00 -.394114262616D-06 0.126302487154D-06 0.000000000000D+00  6 -3 1 25 -24 2 -3 4 0.26525720D-01 0.84647576D-01 0.78110327D+05 0.78110327D+05 0.78110327D+05 0.11735583D+01  1  2  5  8  6  1       21 -.113900594503D-03 0.100000000000D+01
-.203525519569D-05 0.000000000000D+00 -.394114262616D-06 0.126302487154D-06 0.000000000000D+00  6 -4 1 25 -24 2 -4 4 0.26525720D-01 0.84647576D-01 0.78110327D+05 0.78110327D+05 0.78110327D+05 0.11735583D+01  1  2  5  8  6  1       21 -.973100406644D-04 0.100000000000D+01
0.356662194811D-06 0.000000000000D+00 0.000000000000D+00 0.125578442407D-06 0.000000000000D+00  6 3 1 25 -24 2 3 4 0.26243346D-01 0.84647576D-01 0.84836707D+05 0.84836707D+05 0.84836707D+05 0.11701897D+01  1  2 12  9  6  1       21 0.201448302431D-04 0.100000000000D+01
0.356662194811D-06 0.000000000000D+00 0.000000000000D+00 0.125578442407D-06 0.000000000000D+00  6 4 1 25 -24 2 4 4 0.26243346D-01 0.84647576D-01 0.84836707D+05 0.84836707D+05 0.84836707D+05 0.11701897D+01  1  2 12  9  6  1       21 0.172296935380D-04 0.100000000000D+01
0.357731454720D-06 0.000000000000D+00 0.000000000000D+00 0.125578442407D-06 0.000000000000D+00  6 3 1 25 -24 2 3 4 0.26682906D-01 0.84647576D-01 0.84836707D+05 0.84836707D+05 0.84836707D+05 0.11701897D+01  1  2 12  9  6  1       21 0.195945643094D-04 0.100000000000D+01
0.357731454720D-06 0.000000000000D+00 0.000000000000D+00 0.125578442407D-06 0.000000000000D+00  6 4 1 25 -24 2 4 4 0.26682906D-01 0.84647576D-01 0.84836707D+05 0.84836707D+05 0.84836707D+05 0.11701897D+01  1  2 12  9  6  1       21 0.167480815474D-04 0.100000000000D+01
-.203525519569D-05 0.000000000000D+00 -.394114262616D-06 0.126302487154D-06 0.000000000000D+00  6 3 1 25 -24 2 3 4 0.26525720D-01 0.84647576D-01 0.78110327D+05 0.78110327D+05 0.78110327D+05 0.11735583D+01  1  2  5  9  6  1       21 -.113900175320D-03 0.100000000000D+01
-.203525519569D-05 0.000000000000D+00 -.394114262616D-06 0.126302487154D-06 0.000000000000D+00  6 4 1 25 -24 2 4 4 0.26525720D-01 0.84647576D-01 0.78110327D+05 0.78110327D+05 0.78110327D+05 0.11735583D+01  1  2  5  9  6  1       21 -.973100406644D-04 0.100000000000D+01
  </mgrwgt>
  </event>
  <event>
  5     66 0.42050411E-03 0.30556609E+02 0.75467711E-02 0.11764919E+00
       21 -1    0    0  501  502 0.00000000E+00 0.00000000E+00 0.28799263E+02 0.28809027E+02 0.75000000E+00 0.0000E+00 0.9000E+01
        1 -1    0    0  502    0 0.00000000E+00 0.00000000E+00 -.17247170E+04 0.17247170E+04 0.32000000E+00 0.0000E+00 0.9000E+01
       25  1    1    2    0    0 0.22025239E+02 -.97531993E+02 -.87010451E+03 0.88470586E+03 0.12500000E+03 0.0000E+00 0.9000E+01
      -24  1    1    2    0    0 -.51069376E+02 0.10702618E+03 -.82592551E+03 0.83826180E+03 0.80419002E+02 0.0000E+00 0.9000E+01
        2  1    1    2  501    0 0.29044137E+02 -.94941905E+01 0.11226422E+00 0.30558413E+02 0.32000000E+00 0.0000E+00 0.9000E+01
#aMCatNLO 1  0  0  1  2 0.73097116D+01 0.00000000D+00  -5  6  0 0.00000000D+00 0.00000000D+00 0.00000000D+00 0.00000000D+00 0.00000000D+00
  <mgrwgt>
 0.2407597002D+00   41    2    0
 0.222888234779127D+03 0.000000000000000D+00 0.000000000000000D+00 0.222888234779127D+03
 0.222888234779127D+03 0.000000000000000D+00 0.000000000000000D+00 -.222888234779127D+03
 0.169881385796856D+03 0.220252000027119D+02 -.975319800058663D+02 -.568954188071054D+02
 0.155262174025892D+03 -.510694119824782D+02 0.107026194882084D+03 -.598033067455471D+02
 0.120632909735506D+03 0.290442119797663D+02 -.949421487621795D+01 0.116698725552653D+03
 0.000000000000000D+00 -.000000000000000D+00 0.000000000000000D+00 0.000000000000000D+00
 0.274628078405062D+03 0.000000000000000D+00 0.000000000000000D+00 0.274628078405062D+03
 0.223176523705711D+03 0.000000000000000D+00 0.000000000000000D+00 -.223176523705711D+03
 0.171131811246915D+03 0.242940111020004D+02 -.991655644061466D+02 -.568954188071054D+02
 0.153577993886430D+03 -.490146527915145D+02 0.105546731668182D+03 -.598033067455471D+02
 0.121126591649034D+03 0.306526736019402D+02 -.106523358917827D+02 0.116698725552653D+03
 0.519682053283940D+02 -.593203191242608D+01 0.427116862974751D+01 0.514515546993513D+02
0.150648414145D-05 0.000000000000D+00 0.000000000000D+00 0.223956363214D-05 0.000000000000D+00  6 21 1 25 -24 2 21 2 0.44314092D-02 0.26534183D+00 0.27873942D+05 0.27873942D+05 0.27873942D+05 0.12182632D+01  1  2  2  1  6  1       21 0.431523612451D-02 0.100000000000D+01
0.274432175627D-06 0.794993522656D-07 -.304115744426D-08 0.223956363214D-05 0.000000000000D+00  6 21 1 25 -24 2 21 4 0.44314092D-02 0.26534183D+00 0.27873942D+05 0.27873942D+05 0.27873942D+05 0.12182632D+01  1  2  3  1  6  1       21 0.116669477523D-02 0.100000000000D+01
0.162598779000D-06 0.000000000000D+00 0.000000000000D+00 0.223956363214D-05 0.000000000000D+00  6 21 1 25 -24 2 21 4 0.44314092D-02 0.26534183D+00 0.27873942D+05 0.27873942D+05 0.27873942D+05 0.12182632D+01  1  2 15  1  6  1       21 0.691256939841D-03 0.100000000000D+01
0.105001321974D-03 0.000000000000D+00 0.000000000000D+00 0.223089943249D-05 0.000000000000D+00  6 21 1 25 -24 2 21 4 0.54625164D-02 0.26534183D+00 0.29346003D+05 0.29346003D+05 0.29346003D+05 0.12159043D+01  1  2 12  1  6  1       21 0.310652955096D+00 0.100000000000D+01
0.770520989536D-04 0.000000000000D+00 0.000000000000D+00 0.223089943249D-05 0.000000000000D+00  6 21 1 25 -24 2 21 4 0.57969915D-02 0.26534183D+00 0.29346003D+05 0.29346003D+05 0.29346003D+05 0.12159043D+01  1  2 12  1  6  1       21 0.206043372147D+00 0.100000000000D+01
-.124054009109D-03 0.000000000000D+00 0.000000000000D+00 0.223956363214D-05 0.000000000000D+00  6 21 1 25 -24 2 21 4 0.44314092D-02 0.26534183D+00 0.27873942D+05 0.27873942D+05 0.27873942D+05 0.12182632D+01  1  2  4  1  6  1       21 -.527391381652D+00 0.100000000000D+01
-.219499517905D-03 0.000000000000D+00 -.272738447277D-05 0.223956363214D-05 0.000000000000D+00  6 21 1 25 -24 2 21 4 0.54644465D-02 0.26534183D+00 0.27873942D+05 0.27873942D+05 0.27873942D+05 0.12182632D+01  1  2  5  1  6  1       21 -.655068554016D+00 0.100000000000D+01
0.209907612474D-03 0.000000000000D+00 0.250199851847D-05 0.223956363214D-05 0.000000000000D+00  6 21 1 25 -24 2 21 4 0.44314092D-02 0.26534183D+00 0.27873942D+05 0.27873942D+05 0.27873942D+05 0.12182632D+01  1  2  6  1  6  1       21 0.892381202005D+00 0.100000000000D+01
0.305580638731D-05 0.000000000000D+00 0.000000000000D+00 0.223956363214D-05 0.546950793732D-06  6 21 1 25 -24 2 21 4 0.54600881D-02 0.26568503D+00 0.29346003D+05 0.29346003D+05 0.29346003D+05 0.12159043D+01  1  2 11  1  6  1       21 0.901780411387D-02 0.100000000000D+01
0.475461649615D-05 0.000000000000D+00 0.000000000000D+00 0.223089943249D-05 0.000000000000D+00  6 -1 1 25 -24 2 -1 4 0.54625164D-02 0.26534183D+00 0.29346003D+05 0.29346003D+05 0.29346003D+05 0.12159043D+01  1  2 12  4  6  1       21 0.824848023541D-03 0.100000000000D+01
0.443556233370D-05 0.000000000000D+00 0.000000000000D+00 0.223089943249D-05 0.000000000000D+00  6 -1 1 25 -24 2 -1 4 0.57969915D-02 0.26534183D+00 0.29346003D+05 0.29346003D+05 0.29346003D+05 0.12159043D+01  1  2 12  4  6  1       21 0.704098934560D-03 0.100000000000D+01
-.986143692283D-05 0.000000000000D+00 -.165540121450D-06 0.223956363214D-05 0.000000000000D+00  6 -1 1 25 -24 2 -1 4 0.54644465D-02 0.26534183D+00 0.27873942D+05 0.27873942D+05 0.27873942D+05 0.12182632D+01  1  2  5  4  6  1       21 -.172421617505D-02 0.100000000000D+01
0.234086134083D-06 0.000000000000D+00 0.000000000000D+00 0.223956363214D-05 0.353929773628D-07  6 -1 1 25 -24 2 -1 4 0.54600881D-02 0.26568503D+00 0.29346003D+05 0.29346003D+05 0.29346003D+05 0.12159043D+01  1  2 11  4  6  1       21 0.405031369664D-04 0.100000000000D+01
0.475461649615D-05 0.000000000000D+00 0.000000000000D+00 0.223089943249D-05 0.000000000000D+00  6 1 1 25 -24 2 1 4 0.54625164D-02 0.26534183D+00 0.29346003D+05 0.29346003D+05 0.29346003D+05 0.12159043D+01  1  2 12  5  6  1       21 0.938793490721D-03 0.100000000000D+01
0.443556233370D-05 0.000000000000D+00 0.000000000000D+00 0.223089943249D-05 0.000000000000D+00  6 1 1 25 -24 2 1 4 0.57969915D-02 0.26534183D+00 0.29346003D+05 0.29346003D+05 0.29346003D+05 0.12159043D+01  1  2 12  5  6  1       21 0.807317923772D-03 0.100000000000D+01
-.986143692283D-05 0.000000000000D+00 -.165540121450D-06 0.223956363214D-05 0.000000000000D+00  6 1 1 25 -24 2 1 4 0.54644465D-02 0.26534183D+00 0.27873942D+05 0.27873942D+05 0.27873942D+05 0.12182632D+01  1  2  5  5  6  1       21 -.196263459005D-02 0.100000000000D+01
0.234428309917D-06 0.000000000000D+00 0.000000000000D+00 0.223956363214D-05 0.354617969824D-07  6 1 1 25 -24 2 1 4 0.54600881D-02 0.26568503D+00 0.29346003D+05 0.29346003D+05 0.29346003D+05 0.12159043D+01  1  2 11  5  6  1       21 0.461631806067D-04 0.100000000000D+01
0.475461649615D-05 0.000000000000D+00 0.000000000000D+00 0.223089943249D-05 0.000000000000D+00  6 -2 1 25 -24 2 -2 4 0.54625164D-02 0.26534183D+00 0.29346003D+05 0.29346003D+05 0.29346003D+05 0.12159043D+01  1  2 12  6  6  1       21 0.804827281601D-03 0.100000000000D+01
0.443556233370D-05 0.000000000000D+00 0.000000000000D+00 0.223089943249D-05 0.000000000000D+00  6 -2 1 25 -24 2 -2 4 0.57969915D-02 0.26534183D+00 0.29346003D+05 0.29346003D+05 0.29346003D+05 0.12159043D+01  1  2 12  6  6  1       21 0.685994841172D-03 0.100000000000D+01
-.986143692283D-05 0.000000000000D+00 -.165540121450D-06 0.223956363214D-05 0.000000000000D+00  6 -2 1 25 -24 2 -2 4 0.54644465D-02 0.26534183D+00 0.27873942D+05 0.27873942D+05 0.27873942D+05 0.12182632D+01  1  2  5  6  6  1       21 -.168231888227D-02 0.100000000000D+01
0.392424683105D-06 0.000000000000D+00 0.000000000000D+00 0.223956363214D-05 0.678456316669D-07  6 -2 1 25 -24 2 -2 4 0.54600881D-02 0.26568503D+00 0.29346003D+05 0.29346003D+05 0.29346003D+05 0.12159043D+01  1  2 11  6  6  1       21 0.662525648769D-04 0.100000000000D+01
0.475461649615D-05 0.000000000000D+00 0.000000000000D+00 0.223089943249D-05 0.000000000000D+00  6 2 1 25 -24 2 2 4 0.54625164D-02 0.26534183D+00 0.29346003D+05 0.29346003D+05 0.29346003D+05 0.12159043D+01  1  2 12  7  6  1       21 0.101541929676D-02 0.100000000000D+01
0.443556233370D-05 0.000000000000D+00 0.000000000000D+00 0.223089943249D-05 0.000000000000D+00  6 2 1 25 -24 2 2 4 0.57969915D-02 0.26534183D+00 0.29346003D+05 0.29346003D+05 0.29346003D+05 0.12159043D+01  1  2 12  7  6  1       21 0.876711289537D-03 0.100000000000D+01
-.986143692283D-05 0.000000000000D+00 -.165540121450D-06 0.223956363214D-05 0.000000000000D+00  6 2 1 25 -24 2 2 4 0.54644465D-02 0.26534183D+00 0.27873942D+05 0.27873942D+05 0.27873942D+05 0.12182632D+01  1  2  5  7  6  1       21 -.212292715940D-02 0.100000000000D+01
0.262787345361D-06 0.000000000000D+00 0.000000000000D+00 0.223956363214D-05 0.206580558386D-07  6 2 1 25 -24 2 2 4 0.54600881D-02 0.26568503D+00 0.29346003D+05 0.29346003D+05 0.29346003D+05 0.12159043D+01  1  2 11  7  6  1       21 0.559696703375D-04 0.100000000000D+01
0.475461649615D-05 0.000000000000D+00 0.000000000000D+00 0.223089943249D-05 0.000000000000D+00  6 -3 1 25 -24 2 -3 4 0.54625164D-02 0.26534183D+00 0.29346003D+05 0.29346003D+05 0.29346003D+05 0.12159043D+01  1  2 12  8  6  1       21 0.586641990737D-03 0.100000000000D+01
0.475461649615D-05 0.000000000000D+00 0.000000000000D+00 0.223089943249D-05 0.000000000000D+00  6 -4 1 25 -24 2 -4 4 0.54625164D-02 0.26534183D+00 0.29346003D+05 0.29346003D+05 0.29346003D+05 0.12159043D+01  1  2 12  8  6  1       21 0.523573799114D-03 0.100000000000D+01
0.443556233370D-05 0.000000000000D+00 0.000000000000D+00 0.223089943249D-05 0.000000000000D+00  6 -3 1 25 -24 2 -3 4 0.57969915D-02 0.26534183D+00 0.29346003D+05 0.29346003D+05 0.29346003D+05 0.12159043D+01  1  2 12  8  6  1       21 0.497638942487D-03 0.100000000000D+01
0.443556233370D-05 0.000000000000D+00 0.000000000000D+00 0.223089943249D-05 0.000000000000D+00  6 -4 1 25 -24 2 -4 4 0.57969915D-02 0.26534183D+00 0.29346003D+05 0.29346003D+05 0.29346003D+05 0.12159043D+01  1  2 12  8  6  1       21 0.443436056327D-03 0.100000000000D+01
-.986143692283D-05 0.000000000000D+00 -.165540121450D-06 0.223956363214D-05 0.000000000000D+00  6 -3 1 25 -24 2 -3 4 0.54644465D-02 0.26534183D+00 0.27873942D+05 0.27873942D+05 0.27873942D+05 0.12182632D+01  1  2  5  8  6  1       21 -.122491758273D-02 0.100000000000D+01
-.986143692283D-05 0.000000000000D+00 -.165540121450D-06 0.223956363214D-05 0.000000000000D+00  6 -4 1 25 -24 2 -4 4 0.54644465D-02 0.26534183D+00 0.27873942D+05 0.27873942D+05 0.27873942D+05 0.12182632D+01  1  2  5  8  6  1       21 -.109270041078D-02 0.100000000000D+01
0.233911649619D-06 0.000000000000D+00 0.000000000000D+00 0.223956363214D-05 0.353665959424D-07  6 -3 1 25 -24 2 -3 4 0.54600881D-02 0.26568503D+00 0.29346003D+05 0.29346003D+05 0.29346003D+05 0.12159043D+01  1  2 11  8  6  1       21 0.287861904189D-04 0.100000000000D+01
0.233911649619D-06 0.000000000000D+00 0.000000000000D+00 0.223956363214D-05 0.353665959424D-07  6 -4 1 25 -24 2 -4 4 0.54600881D-02 0.26568503D+00 0.29346003D+05 0.29346003D+05 0.29346003D+05 0.12159043D+01  1  2 11  8  6  1       21 0.256917712716D-04 0.100000000000D+01
0.475461649615D-05 0.000000000000D+00 0.000000000000D+00 0.223089943249D-05 0.000000000000D+00  6 3 1 25 -24 2 3 4 0.54625164D-02 0.26534183D+00 0.29346003D+05 0.29346003D+05 0.29346003D+05 0.12159043D+01  1  2 12  9  6  1       21 0.586583416429D-03 0.100000000000D+01
0.475461649615D-05 0.000000000000D+00 0.000000000000D+00 0.223089943249D-05 0.000000000000D+00  6 4 1 25 -24 2 4 4 0.54625164D-02 0.26534183D+00 0.29346003D+05 0.29346003D+05 0.29346003D+05 0.12159043D+01  1  2 12  9  6  1       21 0.523573799114D-03 0.100000000000D+01
0.443556233370D-05 0.000000000000D+00 0.000000000000D+00 0.223089943249D-05 0.000000000000D+00  6 3 1 25 -24 2 3 4 0.57969915D-02 0.26534183D+00 0.29346003D+05 0.29346003D+05 0.29346003D+05 0.12159043D+01  1  2 12  9  6  1       21 0.497587874613D-03 0.100000000000D+01
0.443556233370D-05 0.000000000000D+00 0.000000000000D+00 0.223089943249D-05 0.000000000000D+00  6 4 1 25 -24 2 4 4 0.57969915D-02 0.26534183D+00 0.29346003D+05 0.29346003D+05 0.29346003D+05 0.12159043D+01  1  2 12  9  6  1       21 0.443436056327D-03 0.100000000000D+01
-.986143692283D-05 0.000000000000D+00 -.165540121450D-06 0.223956363214D-05 0.000000000000D+00  6 3 1 25 -24 2 3 4 0.54644465D-02 0.26534183D+00 0.27873942D+05 0.27873942D+05 0.27873942D+05 0.12182632D+01  1  2  5  9  6  1       21 -.122479474370D-02 0.100000000000D+01
-.986143692283D-05 0.000000000000D+00 -.165540121450D-06 0.223956363214D-05 0.000000000000D+00  6 4 1 25 -24 2 4 4 0.54644465D-02 0.26534183D+00 0.27873942D+05 0.27873942D+05 0.27873942D+05 0.12182632D+01  1  2  5  9  6  1       21 -.109270041078D-02 0.100000000000D+01
0.233911649619D-06 0.000000000000D+00 0.000000000000D+00 0.223956363214D-05 0.353665959424D-07  6 3 1 25 -24 2 3 4 0.54600881D-02 0.26568503D+00 0.29346003D+05 0.29346003D+05 0.29346003D+05 0.12159043D+01  1  2 11  9  6  1       21 0.287833168132D-04 0.100000000000D+01
0.233911649619D-06 0.000000000000D+00 0.000000000000D+00 0.223956363214D-05 0.353665959424D-07  6 4 1 25 -24 2 4 4 0.54600881D-02 0.26568503D+00 0.29346003D+05 0.29346003D+05 0.29346003D+05 0.12159043D+01  1  2 11  9  6  1       21 0.256917712716D-04 0.100000000000D+01
  </mgrwgt>
  </event>
  <event>
  5     66 0.42050411E-03 0.10607403E+03 0.75467711E-02 0.10926151E+00
       21 -1    0    0  501  502 0.00000000E+00 0.00000000E+00 0.95831827E+02 0.95834762E+02 0.75000000E+00 0.0000E+00 0.9000E+01
        1 -1    0    0  502    0 0.00000000E+00 0.00000000E+00 -.45945512E+03 0.45945523E+03 0.32000000E+00 0.0000E+00 0.9000E+01
       25  1    1    2    0    0 0.24208428E+02 -.24713609E+02 -.13282613E+03 0.18564642E+03 0.12500000E+03 0.0000E+00 0.9000E+01
      -24  1    1    2    0    0 0.20073112E+02 -.71675240E+02 -.23933364E+03 0.26322629E+03 0.80419002E+02 0.0000E+00 0.9000E+01
        2  1    1    2  501    0 -.44281540E+02 0.96388849E+02 0.85364839E+01 0.10641729E+03 0.32000000E+00 0.0000E+00 0.9000E+01
#aMCatNLO 1  0  0  2  1 0.43998615D+02 0.00000000D+00  -5  6  0 0.00000000D+00 0.00000000D+00 0.00000000D+00 0.00000000D+00 0.00000000D+00
  <mgrwgt>
 0.5299723671D-01    3    2    0
 0.209836291237376D+03 0.000000000000000D+00 0.000000000000000D+00 0.209836291237376D+03
 0.209836291237376D+03 0.000000000000000D+00 0.000000000000000D+00 -.209836291237376D+03
 0.130551614412032D+03 0.242084605020358D+02 -.247136788109647D+02 -.148965950920939D+02
 0.140918606549586D+03 0.200731467655846D+02 -.716753157314853D+02 -.886033611734095D+02
 0.148202361513133D+03 -.442816072676205D+02 0.963889945424500D+02 0.103499956265503D+03
 0.000000000000000D+00 0.000000000000000D+00 0.000000000000000D+00 0.000000000000000D+00
 0.486509055610026D+03 0.000000000000000D+00 0.000000000000000D+00 0.486509055610026D+03
 0.259508385259757D+03 0.000000000000000D+00 0.000000000000000D+00 -.259508385259757D+03
 0.135360555816407D+03 -.277326626977898D+02 -.413094534613979D+02 -.148965950920939D+02
 0.154443234024862D+03 -.376204358057780D+02 -.901090660269297D+02 -.886033611734095D+02
 0.166712208919641D+03 -.105794461253269D+03 0.767349439566849D+02 0.103499956265503D+03
 0.289501442108872D+03 0.171147559756837D+03 0.546835755316428D+02 0.227000670350269D+03
0.140970395203D-04 0.000000000000D+00 0.000000000000D+00 0.459380661886D-06 0.000000000000D+00  6 21 1 25 -24 2 21 2 0.14743592D-01 0.70685637D-01 0.29816949D+05 0.29816949D+05 0.29816949D+05 0.12151775D+01  1  2  2  2  6  2        1 0.470809165590D-01 0.100000000000D+01
-.549365226652D-06 0.743921213568D-06 -.284578612544D-07 0.459380661886D-06 0.000000000000D+00  6 21 1 25 -24 2 21 4 0.14743592D-01 0.70685637D-01 0.29816949D+05 0.29816949D+05 0.29816949D+05 0.12151775D+01  1  2  3  2  6  2        1 -.270930298712D-02 0.100000000000D+01
0.174901715846D-05 0.000000000000D+00 0.000000000000D+00 0.459380661886D-06 0.000000000000D+00  6 21 1 25 -24 2 21 4 0.14743592D-01 0.70685637D-01 0.29816949D+05 0.29816949D+05 0.29816949D+05 0.12151775D+01  1  2 15  2  6  2        1 0.862562314114D-02 0.100000000000D+01
  </mgrwgt>
  </event>
  <event>
  5     66 -.42050411E-03 0.36014494E+02 0.75467711E-02 0.11577802E+00
       21 -1    0    0  501  502 0.00000000E+00 0.00000000E+00 0.89254651E+03 0.89254682E+03 0.75000000E+00 0.0000E+00 0.9000E+01
        1 -1    0    0  502    0 0.00000000E+00 0.00000000E+00 -.18010780E+03 0.18010808E+03 0.32000000E+00 0.0000E+00 0.9000E+01
       25  1    1    2    0    0 0.40046421E+02 -.68974740E+02 -.97285098E+02 0.17734323E+03 0.12500000E+03 0.0000E+00 0.9000E+01
      -24  1    1    2    0    0 -.71194822E+02 0.87052908E+02 0.70464008E+02 0.15517507E+03 0.80419002E+02 0.0000E+00 0.9000E+01
        2  1    1    2  501    0 0.31148401E+02 -.18078168E+02 0.73925979E+03 0.74013660E+03 0.32000000E+00 0.0000E+00 0.9000E+01
#aMCatNLO 1  0  0  2  1 0.54773315D+02 0.00000000D+00  -5  6  0 0.00000000D+00 0.00000000D+00 0.00000000D+00 0.00000000D+00 0.00000000D+00
  <mgrwgt>
 -.7950894604D+00    7    2    0
 0.400942526505812D+03 0.000000000000000D+00 0.000000000000000D+00 0.400942526505812D+03
 0.400942526505812D+03 0.000000000000000D+00 0.000000000000000D+00 -.400942526505812D+03
 0.323659601077305D+03 0.400464152802136D+02 -.689747361596529D+02 -.287696555009668D+03
 0.144968442209700D+03 -.711948250216163D+02 0.870529091220405D+02 -.436087283220647D+02
 0.333257009724621D+03 0.311484097414027D+02 -.180781729623876D+02 0.331305283331733D+03
 0.000000000000000D+00 -.000000000000000D+00 0.000000000000000D+00 -.000000000000000D+00
 0.407120739923777D+03 0.000000000000000D+00 0.000000000000000D+00 0.407120739923777D+03
 0.472113590833437D+03 0.000000000000000D+00 0.000000000000000D+00 -.472113590833437D+03
 0.327041449246597D+03 0.554766617224739D+02 -.740549914929008D+02 -.287696555009668D+03
 0.140410481638545D+03 -.644275589749217D+02 0.848248540126245D+02 -.436087283220647D+02
 0.335433333353952D+03 0.470052410499213D+02 -.232988771244990D+02 0.331305283331733D+03
 0.763490665181203D+02 -.380543437974735D+02 0.125290146047753D+02 -.649928509096606D+02
0.393804805199D-03 0.000000000000D+00 0.000000000000D+00 0.782052026358D-05 0.000000000000D+00  6 21 1 25 -24 2 21 2 0.13731489D+00 0.27708939D-01 0.26008963D+05 0.26008963D+05 0.26008963D+05 0.12214597D+01  1  2  2  2  6  2        1 0.409111610686D-01 0.100000000000D+01
0.109442677411D-03 0.207816505139D-04 -.794978441502D-06 0.782052026358D-05 0.000000000000D+00  6 21 1 25 -24 2 21 4 0.13731489D+00 0.27708939D-01 0.26008963D+05 0.26008963D+05 0.26008963D+05 0.12214597D+01  1  2  3  2  6  2        1 0.169631217479D-01 0.100000000000D+01
0.397873631364D-04 0.000000000000D+00 0.000000000000D+00 0.782052026358D-05 0.000000000000D+00  6 21 1 25 -24 2 21 4 0.13731489D+00 0.27708939D-01 0.26008963D+05 0.26008963D+05 0.26008963D+05 0.12214597D+01  1  2 15  2  6  2        1 0.616686196719D-02 0.100000000000D+01
-.616690171729D-02 0.000000000000D+00 0.000000000000D+00 0.782052026358D-05 0.000000000000D+00  6 21 1 25 -24 2 21 4 0.13731489D+00 0.27708939D-01 0.26008963D+05 0.26008963D+05 0.26008963D+05 0.12214597D+01  1  2  4  2  6  2        1 -.955841972371D+00 0.100000000000D+01
-.706045876478D-02 0.000000000000D+00 -.103478624417D-02 0.782052026358D-05 0.000000000000D+00  6 21 1 25 -24 2 21 4 0.13731489D+00 0.32999617D-01 0.26008963D+05 0.26008963D+05 0.26008963D+05 0.12214597D+01  1  2  5  2  6  2        1 -.879609876120D+00 0.100000000000D+01
0.714747813086D-02 0.000000000000D+00 0.101918649249D-02 0.782052026358D-05 0.000000000000D+00  6 21 1 25 -24 2 21 4 0.13731489D+00 0.27708939D-01 0.26008963D+05 0.26008963D+05 0.26008963D+05 0.12214597D+01  1  2  6  2  6  2        1 0.110782689708D+01 0.100000000000D+01
-.172506979246D-03 0.000000000000D+00 -.266636610926D-04 0.782052026358D-05 0.000000000000D+00  6 21 21 25 -24 2 -1 4 0.13731489D+00 0.32999617D-01 0.26008963D+05 0.26008963D+05 0.26008963D+05 0.12214597D+01  1  2  5 10  6  2        1 -.131505653791D+00 0.100000000000D+01
  </mgrwgt>
  </event>
  <event>
  5     66 0.42050411E-03 0.24539033E+02 0.75467711E-02 0.11382806E+00
       21 -1    0    0  501  502 0.00000000E+00 0.00000000E+00 0.32710732E+02 0.32719329E+02 0.75000000E+00 0.0000E+00 0.9000E+01
        1 -1    0    0  502    0 0.00000000E+00 0.00000000E+00 -.90973311E+03 0.90973317E+03 0.32000000E+00 0.0000E+00 0.9000E+01
       25  1    1    2    0    0 0.30434737E+02 -.42349450E+02 -.72857465E+03 0.74105720E+03 0.12500000E+03 0.0000E+00 0.9000E+01
      -24  1    1    2    0    0 -.36988971E+02 0.18702087E+02 -.15171016E+03 0.17663845E+03 0.80419002E+02 0.0000E+00 0.9000E+01
        2  1    1    2  501    0 0.65542336E+01 0.23647363E+02 0.32624338E+01 0.24756851E+02 0.32000000E+00 0.0000E+00 0.9000E+01
#aMCatNLO 1  0  0  1  2 0.72428504D+02 0.00000000D+00  -5  6  0 0.00000000D+00 0.00000000D+00 0.00000000D+00 0.00000000D+00 0.00000000D+00
  <mgrwgt>
 0.4580094271D-01    3    2    0
 0.172516995727571D+03 0.000000000000000D+00 0.000000000000000D+00 0.172516995727571D+03
 0.172516995727571D+03 0.000000000000000D+00 0.000000000000000D+00 -.172516995727571D+03
 0.172258414209576D+03 0.304347079806530D+02 -.423495552568641D+02 -.106434040540027D+03
 0.968603556341858D+02 -.369889869764676D+02 0.187020279124049D+02 0.345942413362217D+02
 0.759152216113800D+02 0.655427899581461D+01 0.236475273444592D+02 0.718397992038049D+02
 0.000000000000000D+00 0.000000000000000D+00 0.000000000000000D+00 -.000000000000000D+00
 0.241155906158141D+03 0.000000000000000D+00 0.000000000000000D+00 0.241155906158141D+03
 0.279495325750677D+03 0.000000000000000D+00 0.000000000000000D+00 -.279495325750677D+03
 0.174006631992150D+03 -.381778347815743D+02 -.432152279059872D+02 -.106434040540027D+03
 0.119939288185839D+03 -.799479139476038D+02 0.181600225207164D+02 0.345942413362217D+02
 0.792945771392338D+02 -.242005981444241D+02 0.232594983501147D+02 0.718397992038049D+02
 0.147410734591595D+03 0.142326346873602D+03 0.179570703515600D+01 -.383394195925362D+02
0.393114866720D-05 0.000000000000D+00 0.000000000000D+00 0.214300037866D-05 0.000000000000D+00  6 21 1 25 -24 2 21 2 0.50330860D-02 0.13995961D+00 0.15681772D+05 0.15681772D+05 0.15681772D+05 0.12456279D+01  1  2  2  1  6  1       21 0.342008003324D-01 0.100000000000D+01
0.480273378349D-06 0.207452414601D-06 -.793585654493D-08 0.214300037866D-05 0.000000000000D+00  6 21 1 25 -24 2 21 4 0.50330860D-02 0.13995961D+00 0.15681772D+05 0.15681772D+05 0.15681772D+05 0.12456279D+01  1  2  3  1  6  1       21 0.648308838646D-02 0.100000000000D+01
0.379076245604D-06 0.000000000000D+00 0.000000000000D+00 0.214300037866D-05 0.000000000000D+00  6 21 1 25 -24 2 21 4 0.50330860D-02 0.13995961D+00 0.15681772D+05 0.15681772D+05 0.15681772D+05 0.12456279D+01  1  2 15  1  6  1       21 0.511705398685D-02 0.100000000000D+01
  </mgrwgt>
  </event>
  <event>
  5     66 0.42050411E-03 0.37420189E+02 0.75467711E-02 0.12188268E+00
       21 -1    0    0  501  502 0.00000000E+00 0.00000000E+00 0.43081392E+02 0.43087920E+02 0.75000000E+00 0.0000E+00 0.9000E+01
        1 -1    0    0  502    0 0.00000000E+00 0.00000000E+00 -.89954655E+03 0.89954660E+03 0.32000000E+00 0.0000E+00 0.9000E+01
       25  1    1    2    0    0 -.25840608E+02 0.33089776E+01 -.62427674E+03 0.63720102E+03 0.12500000E+03 0.0000E+00 0.9000E+01
      -24  1    1    2    0    0 -.14862249E+01 -.28872816E+02 -.24984476E+03 0.26405580E+03 0.80419002E+02 0.0000E+00 0.9000E+01
        2  1    1    2  501    0 0.27326833E+02 0.25563838E+02 0.17656343E+02 0.41377705E+02 0.32000000E+00 0.0000E+00 0.9000E+01
#aMCatNLO 1  0  0  1  2 0.27067625D+02 0.00000000D+00  -5  6  0 0.00000000D+00 0.00000000D+00 0.00000000D+00 0.00000000D+00 0.00000000D+00
  <mgrwgt>
 0.5558915574D-01   23    2    0
 0.196867522018670D+03 0.000000000000000D+00 0.000000000000000D+00 0.196867522018670D+03
 0.196867522018670D+03 0.000000000000000D+00 0.000000000000000D+00 -.196867522018670D+03
 0.167565583259370D+03 -.258406396414454D+02 0.330894808800525D+01 -.108510538191112D+03
 0.887012687713728D+02 -.148624154178273D+01 -.288728311787153D+02 -.237665696533106D+02
 0.137468192006598D+03 0.273268811832281D+02 0.255638830907100D+02 0.132277107844423D+03
 0.000000000000000D+00 0.000000000000000D+00 0.000000000000000D+00 0.000000000000000D+00
 0.216630225615843D+03 0.000000000000000D+00 0.000000000000000D+00 0.216630225615843D+03
 0.206823492919770D+03 0.000000000000000D+00 0.000000000000000D+00 -.206823492919770D+03
 0.169107644069012D+03 -.343085478049521D+02 -.455872038648174D+01 -.108510538191112D+03
 0.903365159358845D+02 -.598934839922226D+01 -.330567395508216D+02 -.237665696533106D+02
 0.135220179931042D+03 0.204683016960869D+02 0.191914675461845D+02 0.132277107844423D+03
 0.287893785996748D+02 0.198295945080875D+02 0.184239923911188D+02 0.980673269607345D+01
0.165283315072D-05 0.000000000000D+00 0.000000000000D+00 0.434950466503D-05 0.000000000000D+00  6 21 1 25 -24 2 21 2 0.66284130D-02 0.13839228D+00 0.15695587D+05 0.15695587D+05 0.15695587D+05 0.12455845D+01  1  2  2  1  6  1       21 0.918939442145D-02 0.100000000000D+01
0.191273028883D-06 0.872224016635D-07 -.333659392896D-08 0.434950466503D-05 0.000000000000D+00  6 21 1 25 -24 2 21 4 0.66284130D-02 0.13839228D+00 0.15695587D+05 0.15695587D+05 0.15695587D+05 0.12455845D+01  1  2  3  1  6  1       21 0.164990145383D-02 0.100000000000D+01
0.162223386119D-06 0.000000000000D+00 0.000000000000D+00 0.434950466503D-05 0.000000000000D+00  6 21 1 25 -24 2 21 4 0.66284130D-02 0.13839228D+00 0.15695587D+05 0.15695587D+05 0.15695587D+05 0.12455845D+01  1  2 15  1  6  1       21 0.139932222628D-02 0.100000000000D+01
0.330901696112D-05 0.000000000000D+00 0.000000000000D+00 0.429383423316D-05 0.000000000000D+00  6 21 1 25 -24 2 21 4 0.74484061D-02 0.13839228D+00 0.18493675D+05 0.18493675D+05 0.18493675D+05 0.12375876D+01  1  2 12  1  6  1       21 0.227616390354D-01 0.100000000000D+01
-.798679312188D-06 0.000000000000D+00 0.000000000000D+00 0.434950466503D-05 0.000000000000D+00  6 21 1 25 -24 2 21 4 0.66284130D-02 0.13839228D+00 0.15695587D+05 0.15695587D+05 0.15695587D+05 0.12455845D+01  1  2  4  1  6  1       21 -.688932551557D-02 0.100000000000D+01
-.147620010076D-04 0.000000000000D+00 -.398719923678D-05 0.434950466503D-05 0.000000000000D+00  6 21 1 25 -24 2 21 4 0.76667556D-02 0.13839228D+00 0.15695587D+05 0.15695587D+05 0.15695587D+05 0.12455845D+01  1  2  5  1  6  1       21 -.992651207808D-01 0.100000000000D+01
0.148038406657D-04 0.000000000000D+00 0.382325140809D-05 0.434950466503D-05 0.000000000000D+00  6 21 1 25 -24 2 21 4 0.66284130D-02 0.13839228D+00 0.15695587D+05 0.15695587D+05 0.15695587D+05 0.12455845D+01  1  2  6  1  6  1       21 0.127696405391D+00 0.100000000000D+01
0.100698558966D-06 0.000000000000D+00 0.000000000000D+00 0.429383423316D-05 0.000000000000D+00  6 -1 1 25 -24 2 -1 4 0.74484061D-02 0.13839228D+00 0.18493675D+05 0.18493675D+05 0.18493675D+05 0.12375876D+01  1  2 12  4  6  1       21 0.430360540835D-04 0.100000000000D+01
-.426273307334D-06 0.000000000000D+00 -.156764364963D-06 0.434950466503D-05 0.000000000000D+00  6 -1 1 25 -24 2 -1 4 0.76667556D-02 0.13839228D+00 0.15695587D+05 0.15695587D+05 0.15695587D+05 0.12455845D+01  1  2  5  4  6  1       21 -.178755707166D-03 0.100000000000D+01
0.100698558966D-06 0.000000000000D+00 0.000000000000D+00 0.429383423316D-05 0.000000000000D+00  6 1 1 25 -24 2 1 4 0.74484061D-02 0.13839228D+00 0.18493675D+05 0.18493675D+05 0.18493675D+05 0.12375876D+01  1  2 12  5  6  1       21 0.511765281753D-04 0.100000000000D+01
-.426273307334D-06 0.000000000000D+00 -.156764364963D-06 0.434950466503D-05 0.000000000000D+00  6 1 1 25 -24 2 1 4 0.76667556D-02 0.13839228D+00 0.15695587D+05 0.15695587D+05 0.15695587D+05 0.12455845D+01  1  2  5  5  6  1       21 -.213611239695D-03 0.100000000000D+01
0.100698558966D-06 0.000000000000D+00 0.000000000000D+00 0.429383423316D-05 0.000000000000D+00  6 -2 1 25 -24 2 -2 4 0.74484061D-02 0.13839228D+00 0.18493675D+05 0.18493675D+05 0.18493675D+05 0.12375876D+01  1  2 12  6  6  1       21 0.416143447989D-04 0.100000000000D+01
-.426273307334D-06 0.000000000000D+00 -.156764364963D-06 0.434950466503D-05 0.000000000000D+00  6 -2 1 25 -24 2 -2 4 0.76667556D-02 0.13839228D+00 0.15695587D+05 0.15695587D+05 0.15695587D+05 0.12455845D+01  1  2  5  6  6  1       21 -.172668163790D-03 0.100000000000D+01
0.100698558966D-06 0.000000000000D+00 0.000000000000D+00 0.429383423316D-05 0.000000000000D+00  6 2 1 25 -24 2 2 4 0.74484061D-02 0.13839228D+00 0.18493675D+05 0.18493675D+05 0.18493675D+05 0.12375876D+01  1  2 12  7  6  1       21 0.566419743232D-04 0.100000000000D+01
-.426273307334D-06 0.000000000000D+00 -.156764364963D-06 0.434950466503D-05 0.000000000000D+00  6 2 1 25 -24 2 2 4 0.76667556D-02 0.13839228D+00 0.15695587D+05 0.15695587D+05 0.15695587D+05 0.12455845D+01  1  2  5  7  6  1       21 -.236998894003D-03 0.100000000000D+01
0.100698558966D-06 0.000000000000D+00 0.000000000000D+00 0.429383423316D-05 0.000000000000D+00  6 -3 1 25 -24 2 -3 4 0.74484061D-02 0.13839228D+00 0.18493675D+05 0.18493675D+05 0.18493675D+05 0.12375876D+01  1  2 12  8  6  1       21 0.292828073317D-04 0.100000000000D+01
0.100698558966D-06 0.000000000000D+00 0.000000000000D+00 0.429383423316D-05 0.000000000000D+00  6 -4 1 25 -24 2 -4 4 0.74484061D-02 0.13839228D+00 0.18493675D+05 0.18493675D+05 0.18493675D+05 0.12375876D+01  1  2 12  8  6  1       21 0.257915537855D-04 0.100000000000D+01
-.426273307334D-06 0.000000000000D+00 -.156764364963D-06 0.434950466503D-05 0.000000000000D+00  6 -3 1 25 -24 2 -3 4 0.76667556D-02 0.13839228D+00 0.15695587D+05 0.15695587D+05 0.15695587D+05 0.12455845D+01  1  2  5  8  6  1       21 -.120751184914D-03 0.100000000000D+01
-.426273307334D-06 0.000000000000D+00 -.156764364963D-06 0.434950466503D-05 0.000000000000D+00  6 -4 1 25 -24 2 -4 4 0.76667556D-02 0.13839228D+00 0.15695587D+05 0.15695587D+05 0.15695587D+05 0.12455845D+01  1  2  5  8  6  1       21 -.106076450920D-03 0.100000000000D+01
0.100698558966D-06 0.000000000000D+00 0.000000000000D+00 0.429383423316D-05 0.000000000000D+00  6 3 1 25 -24 2 3 4 0.74484061D-02 0.13839228D+00 0.18493675D+05 0.18493675D+05 0.18493675D+05 0.12375876D+01  1  2 12  9  6  1       21 0.292793491277D-04 0.100000000000D+01
0.100698558966D-06 0.000000000000D+00 0.000000000000D+00 0.429383423316D-05 0.000000000000D+00  6 4 1 25 -24 2 4 4 0.74484061D-02 0.13839228D+00 0.18493675D+05 0.18493675D+05 0.18493675D+05 0.12375876D+01  1  2 12  9  6  1       21 0.257915537855D-04 0.100000000000D+01
-.426273307334D-06 0.000000000000D+00 -.156764364963D-06 0.434950466503D-05 0.000000000000D+00  6 3 1 25 -24 2 3 4 0.76667556D-02 0.13839228D+00 0.15695587D+05 0.15695587D+05 0.15695587D+05 0.12455845D+01  1  2  5  9  6  1       21 -.120736565596D-03 0.100000000000D+01
-.426273307334D-06 0.000000000000D+00 -.156764364963D-06 0.434950466503D-05 0.000000000000D+00  6 4 1 25 -24 2 4 4 0.76667556D-02 0.13839228D+00 0.15695587D+05 0.15695587D+05 0.15695587D+05 0.12455845D+01  1  2  5  9  6  1       21 -.106076450920D-03 0.100000000000D+01
  </mgrwgt>
  </event>
  <event>
  5     66 0.42050411E-03 0.78431982E+02 0.75467711E-02 0.11817589E+00
       21 -1    0    0  501  502 0.00000000E+00 0.00000000E+00 0.71091587E+03 0.71091626E+03 0.75000000E+00 0.0000E+00 0.9000E+01
        1 -1    0    0  502    0 0.00000000E+00 0.00000000E+00 -.35494244E+02 0.35495686E+02 0.32000000E+00 0.0000E+00 0.9000E+01
       25  1    1    2    0    0 -.18946232E+02 0.72481732E+02 0.33805735E+03 0.36813086E+03 0.12500000E+03 0.0000E+00 0.9000E+01
      -24  1    1    2    0    0 -.90902681E+01 0.11666478E+02 0.17840320E+03 0.19624897E+03 0.80419002E+02 0.0000E+00 0.9000E+01
        2  1    1    2  501    0 0.28036500E+02 -.84148210E+02 0.15896108E+03 0.18203212E+03 0.32000000E+00 0.0000E+00 0.9000E+01
#aMCatNLO 1  0  0  1  5 0.15977443D+02 0.00000000D+00  -5  6  0 0.00000000D+00 0.00000000D+00 0.00000000D+00 0.00000000D+00 0.00000000D+00
  <mgrwgt>
 0.4175178662D-01   32    2    0
 0.158852469636877D+03 0.000000000000000D+00 0.000000000000000D+00 0.158852469636877D+03
 0.158852469636877D+03 0.000000000000000D+00 0.000000000000000D+00 -.158852469636877D+03
 0.146192485340241D+03 -.189463138221761D+02 0.724819777877105D+02 0.116035709370040D+02
 0.817903674732963D+02 -.909031399297494D+01 0.116666160214703D+02 0.192471274818084D+01
 0.897220864602169D+02 0.280366278151510D+02 -.841485938091808D+02 -.135282836851849D+02
 0.000000000000000D+00 0.000000000000000D+00 0.000000000000000D+00 0.000000000000000D+00
 0.184861141740975D+03 0.000000000000000D+00 0.000000000000000D+00 0.184861141740975D+03
 0.161526091510117D+03 0.000000000000000D+00 0.000000000000000D+00 -.161526091510117D+03
 0.143152740376310D+03 -.210110920870121D+02 0.655102910088798D+02 0.116035709370040D+02
 0.814609874359950D+02 -.102552817179028D+02 0.773312339228049D+01 0.192471274818084D+01
 0.934927121402063D+02 0.267292002154399D+02 -.885630996505179D+02 -.135282836851849D+02
 0.282807932985810D+02 0.453717358947495D+01 0.153196852493576D+02 0.233350502308577D+02
0.445941567096D-05 0.000000000000D+00 0.000000000000D+00 0.293426536236D-06 0.000000000000D+00  6 21 1 25 -24 2 21 2 0.10937181D+00 0.54607943D-02 0.24994868D+05 0.24994868D+05 0.24994868D+05 0.12233072D+01  1  2  2  1  6  1       21 0.690092318829D-02 0.100000000000D+01
-.406339674231D-06 0.235329830278D-06 -.900227542506D-08 0.293426536236D-06 0.000000000000D+00  6 21 1 25 -24 2 21 4 0.10937181D+00 0.54607943D-02 0.24994868D+05 0.24994868D+05 0.24994868D+05 0.12233072D+01  1  2  3  1  6  1       21 -.940999801434D-03 0.100000000000D+01
0.484887971486D-06 0.000000000000D+00 0.000000000000D+00 0.293426536236D-06 0.000000000000D+00  6 21 1 25 -24 2 21 4 0.10937181D+00 0.54607943D-02 0.24994868D+05 0.24994868D+05 0.24994868D+05 0.12233072D+01  1  2 15  1  6  1       21 0.112290163580D-02 0.100000000000D+01
0.234685856402D-04 0.000000000000D+00 0.000000000000D+00 0.291183702220D-06 0.000000000000D+00  6 21 1 25 -24 2 21 4 0.12810153D+00 0.54607943D-02 0.27656713D+05 0.27656713D+05 0.27656713D+05 0.12186230D+01  1  2 12  1  6  1       21 0.362677869122D-01 0.100000000000D+01
0.211037983958D-04 0.000000000000D+00 0.000000000000D+00 0.291183702220D-06 0.000000000000D+00  6 21 1 25 -24 2 21 4 0.13009702D+00 0.54607943D-02 0.27656713D+05 0.27656713D+05 0.27656713D+05 0.12186230D+01  1  2 12  1  6  1       21 0.313739876653D-01 0.100000000000D+01
-.342376772543D-04 0.000000000000D+00 0.000000000000D+00 0.293426536236D-06 0.000000000000D+00  6 21 1 25 -24 2 21 4 0.10937181D+00 0.54607943D-02 0.24994868D+05 0.24994868D+05 0.24994868D+05 0.12233072D+01  1  2  4  1  6  1       21 -.792874768108D-01 0.100000000000D+01
-.712824902041D-04 0.000000000000D+00 -.890283921155D-05 0.293426536236D-06 0.000000000000D+00  6 21 1 25 -24 2 21 4 0.12837376D+00 0.54607943D-02 0.24994868D+05 0.24994868D+05 0.24994868D+05 0.12233072D+01  1  2  5  1  6  1       21 -.111515876582D+00 0.100000000000D+01
0.691993835080D-04 0.000000000000D+00 0.846201352364D-05 0.293426536236D-06 0.000000000000D+00  6 21 1 25 -24 2 21 4 0.10937181D+00 0.54607943D-02 0.24994868D+05 0.24994868D+05 0.24994868D+05 0.12233072D+01  1  2  6  1  6  1       21 0.160251657099D+00 0.100000000000D+01
0.101684595890D-05 0.000000000000D+00 0.000000000000D+00 0.291183702220D-06 0.000000000000D+00  6 -1 1 25 -24 2 -1 4 0.12810153D+00 0.54607943D-02 0.27656713D+05 0.27656713D+05 0.27656713D+05 0.12186230D+01  1  2 12  4  6  1       21 0.184739066558D-03 0.100000000000D+01
0.102130442665D-05 0.000000000000D+00 0.000000000000D+00 0.291183702220D-06 0.000000000000D+00  6 -1 1 25 -24 2 -1 4 0.13009702D+00 0.54607943D-02 0.27656713D+05 0.27656713D+05 0.27656713D+05 0.12186230D+01  1  2 12  4  6  1       21 0.178702966250D-03 0.100000000000D+01
-.282091566176D-05 0.000000000000D+00 -.391865822053D-06 0.293426536236D-06 0.000000000000D+00  6 -1 1 25 -24 2 -1 4 0.12837376D+00 0.54607943D-02 0.24994868D+05 0.24994868D+05 0.24994868D+05 0.12233072D+01  1  2  5  4  6  1       21 -.517198682860D-03 0.100000000000D+01
0.101684595890D-05 0.000000000000D+00 0.000000000000D+00 0.291183702220D-06 0.000000000000D+00  6 1 1 25 -24 2 1 4 0.12810153D+00 0.54607943D-02 0.27656713D+05 0.27656713D+05 0.27656713D+05 0.12186230D+01  1  2 12  5  6  1       21 0.839264390216D-03 0.100000000000D+01
0.102130442665D-05 0.000000000000D+00 0.000000000000D+00 0.291183702220D-06 0.000000000000D+00  6 1 1 25 -24 2 1 4 0.13009702D+00 0.54607943D-02 0.27656713D+05 0.27656713D+05 0.27656713D+05 0.12186230D+01  1  2 12  5  6  1       21 0.822972461155D-03 0.100000000000D+01
-.282091566176D-05 0.000000000000D+00 -.391865822053D-06 0.293426536236D-06 0.000000000000D+00  6 1 1 25 -24 2 1 4 0.12837376D+00 0.54607943D-02 0.24994868D+05 0.24994868D+05 0.24994868D+05 0.12233072D+01  1  2  5  5  6  1       21 -.235342825780D-02 0.100000000000D+01
0.101684595890D-05 0.000000000000D+00 0.000000000000D+00 0.291183702220D-06 0.000000000000D+00  6 -2 1 25 -24 2 -2 4 0.12810153D+00 0.54607943D-02 0.27656713D+05 0.27656713D+05 0.27656713D+05 0.12186230D+01  1  2 12  6  6  1       21 0.134983711329D-03 0.100000000000D+01
0.102130442665D-05 0.000000000000D+00 0.000000000000D+00 0.291183702220D-06 0.000000000000D+00  6 -2 1 25 -24 2 -2 4 0.13009702D+00 0.54607943D-02 0.27656713D+05 0.27656713D+05 0.27656713D+05 0.12186230D+01  1  2 12  6  6  1       21 0.130523357973D-03 0.100000000000D+01
-.282091566176D-05 0.000000000000D+00 -.391865822053D-06 0.293426536236D-06 0.000000000000D+00  6 -2 1 25 -24 2 -2 4 0.12837376D+00 0.54607943D-02 0.24994868D+05 0.24994868D+05 0.24994868D+05 0.12233072D+01  1  2  5  6  6  1       21 -.377595808449D-03 0.100000000000D+01
0.101684595890D-05 0.000000000000D+00 0.000000000000D+00 0.291183702220D-06 0.000000000000D+00  6 2 1 25 -24 2 2 4 0.12810153D+00 0.54607943D-02 0.27656713D+05 0.27656713D+05 0.27656713D+05 0.12186230D+01  1  2 12  7  6  1       21 0.147587077123D-02 0.100000000000D+01
0.102130442665D-05 0.000000000000D+00 0.000000000000D+00 0.291183702220D-06 0.000000000000D+00  6 2 1 25 -24 2 2 4 0.13009702D+00 0.54607943D-02 0.27656713D+05 0.27656713D+05 0.27656713D+05 0.12186230D+01  1  2 12  7  6  1       21 0.145333280286D-02 0.100000000000D+01
-.282091566176D-05 0.000000000000D+00 -.391865822053D-06 0.293426536236D-06 0.000000000000D+00  6 2 1 25 -24 2 2 4 0.12837376D+00 0.54607943D-02 0.24994868D+05 0.24994868D+05 0.24994868D+05 0.12233072D+01  1  2  5  7  6  1       21 -.413862498136D-02 0.100000000000D+01
0.101684595890D-05 0.000000000000D+00 0.000000000000D+00 0.291183702220D-06 0.000000000000D+00  6 -3 1 25 -24 2 -3 4 0.12810153D+00 0.54607943D-02 0.27656713D+05 0.27656713D+05 0.27656713D+05 0.12186230D+01  1  2 12  8  6  1       21 0.860994396833D-04 0.100000000000D+01
0.101684595890D-05 0.000000000000D+00 0.000000000000D+00 0.291183702220D-06 0.000000000000D+00  6 -4 1 25 -24 2 -4 4 0.12810153D+00 0.54607943D-02 0.27656713D+05 0.27656713D+05 0.27656713D+05 0.12186230D+01  1  2 12  8  6  1       21 0.682468446259D-04 0.100000000000D+01
0.102130442665D-05 0.000000000000D+00 0.000000000000D+00 0.291183702220D-06 0.000000000000D+00  6 -3 1 25 -24 2 -3 4 0.13009702D+00 0.54607943D-02 0.27656713D+05 0.27656713D+05 0.27656713D+05 0.12186230D+01  1  2 12  8  6  1       21 0.833158403576D-04 0.100000000000D+01
0.102130442665D-05 0.000000000000D+00 0.000000000000D+00 0.291183702220D-06 0.000000000000D+00  6 -4 1 25 -24 2 -4 4 0.13009702D+00 0.54607943D-02 0.27656713D+05 0.27656713D+05 0.27656713D+05 0.12186230D+01  1  2 12  8  6  1       21 0.659909763754D-04 0.100000000000D+01
-.282091566176D-05 0.000000000000D+00 -.391865822053D-06 0.293426536236D-06 0.000000000000D+00  6 -3 1 25 -24 2 -3 4 0.12837376D+00 0.54607943D-02 0.24994868D+05 0.24994868D+05 0.24994868D+05 0.12233072D+01  1  2  5  8  6  1       21 -.240470715170D-03 0.100000000000D+01
-.282091566176D-05 0.000000000000D+00 -.391865822053D-06 0.293426536236D-06 0.000000000000D+00  6 -4 1 25 -24 2 -4 4 0.12837376D+00 0.54607943D-02 0.24994868D+05 0.24994868D+05 0.24994868D+05 0.12233072D+01  1  2  5  8  6  1       21 -.190406577280D-03 0.100000000000D+01
0.101684595890D-05 0.000000000000D+00 0.000000000000D+00 0.291183702220D-06 0.000000000000D+00  6 3 1 25 -24 2 3 4 0.12810153D+00 0.54607943D-02 0.27656713D+05 0.27656713D+05 0.27656713D+05 0.12186230D+01  1  2 12  9  6  1       21 0.863591736146D-04 0.100000000000D+01
0.101684595890D-05 0.000000000000D+00 0.000000000000D+00 0.291183702220D-06 0.000000000000D+00  6 4 1 25 -24 2 4 4 0.12810153D+00 0.54607943D-02 0.27656713D+05 0.27656713D+05 0.27656713D+05 0.12186230D+01  1  2 12  9  6  1       21 0.682468446259D-04 0.100000000000D+01
0.102130442665D-05 0.000000000000D+00 0.000000000000D+00 0.291183702220D-06 0.000000000000D+00  6 3 1 25 -24 2 3 4 0.13009702D+00 0.54607943D-02 0.27656713D+05 0.27656713D+05 0.27656713D+05 0.12186230D+01  1  2 12  9  6  1       21 0.835737244074D-04 0.100000000000D+01
0.102130442665D-05 0.000000000000D+00 0.000000000000D+00 0.291183702220D-06 0.000000000000D+00  6 4 1 25 -24 2 4 4 0.13009702D+00 0.54607943D-02 0.27656713D+05 0.27656713D+05 0.27656713D+05 0.12186230D+01  1  2 12  9  6  1       21 0.659909763754D-04 0.100000000000D+01
-.282091566176D-05 0.000000000000D+00 -.391865822053D-06 0.293426536236D-06 0.000000000000D+00  6 3 1 25 -24 2 3 4 0.12837376D+00 0.54607943D-02 0.24994868D+05 0.24994868D+05 0.24994868D+05 0.12233072D+01  1  2  5  9  6  1       21 -.241198428866D-03 0.100000000000D+01
-.282091566176D-05 0.000000000000D+00 -.391865822053D-06 0.293426536236D-06 0.000000000000D+00  6 4 1 25 -24 2 4 4 0.12837376D+00 0.54607943D-02 0.24994868D+05 0.24994868D+05 0.24994868D+05 0.12233072D+01  1  2  5  9  6  1       21 -.190406577280D-03 0.100000000000D+01
  </mgrwgt>
  </event>
  <event>
  5     66 0.42050411E-03 0.21173289E+03 0.75467711E-02 0.11057055E+00
       21 -1    0    0  501  502 0.00000000E+00 0.00000000E+00 0.43276071E+03 0.43276136E+03 0.75000000E+00 0.0000E+00 0.9000E+01
        3 -1    0    0  502    0 0.00000000E+00 0.00000000E+00 -.28942142E+03 0.28942185E+03 0.50000000E+00 0.0000E+00 0.9000E+01
       25  1    1    2    0    0 -.52689081E+02 -.30815222E+02 0.26367633E+03 0.29812065E+03 0.12500000E+03 0.0000E+00 0.9000E+01
      -24  1    1    2    0    0 -.15509952E+03 -.98432661E+01 -.12026269E+03 0.21232777E+03 0.80419002E+02 0.0000E+00 0.9000E+01
        4  1    1    2  501    0 0.20778860E+03 0.40658488E+02 -.74355107E-01 0.21173479E+03 0.15500000E+01 0.0000E+00 0.9000E+01
#aMCatNLO 1  0  0  5  1 0.23749521D+01 0.00000000D+00  -5  6  0 0.00000000D+00 0.00000000D+00 0.00000000D+00 0.00000000D+00 0.00000000D+00
  <mgrwgt>
 0.4689007013D-02    7    2    0
 0.353907629287344D+03 0.000000000000000D+00 0.000000000000000D+00 0.353907629287344D+03
 0.353907629287344D+03 -.000000000000000D+00 -.000000000000000D+00 -.353907629287344D+03
 0.250776026325863D+03 -.526909761087853D+02 -.308155923041777D+02 0.208656837145194D+03
 0.240993069819886D+03 -.155101339381856D+03 -.984362239225322D+01 -.165701905139907D+03
 0.216046162428939D+03 0.207792315490641D+03 0.406592146964310D+02 -.429549320052871D+02
 0.000000000000000D+00 -.000000000000000D+00 0.000000000000000D+00 0.000000000000000D+00
 0.353907629287344D+03 0.000000000000000D+00 0.000000000000000D+00 0.353907629287344D+03
 0.353907629287344D+03 -.000000000000000D+00 -.000000000000000D+00 -.353907629287344D+03
 0.249386388002534D+03 -.492149011259630D+02 -.301354204763902D+02 0.207938261175819D+03
 0.239311623638209D+03 -.151763273423214D+03 -.919045511721323D+01 -.166391951814367D+03
 0.213767844413564D+03 0.206237838868661D+03 0.387391251212607D+02 -.407667181515158D+02
 0.534940252038097D+01 -.525966431948409D+01 0.586750472342787D+00 -.779591209936202D+00
0.602379670101D-04 0.000000000000D+00 0.000000000000D+00 0.285435585790D-07 0.000000000000D+00  6 21 3 25 -24 4 21 2 0.66578654D-01 0.44526456D-01 0.69123719D+05 0.69123719D+05 0.69123719D+05 0.11785979D+01  1  2  2  3  6  5        4 0.424476766704D-02 0.100000000000D+01
-.636572716406D-05 0.317884485295D-05 -.121603100066D-06 0.285435585790D-07 0.000000000000D+00  6 21 3 25 -24 4 21 4 0.66578654D-01 0.44526456D-01 0.69123719D+05 0.69123719D+05 0.69123719D+05 0.11785979D+01  1  2  3  3  6  5        4 -.623107438357D-03 0.100000000000D+01
0.729584253136D-05 0.000000000000D+00 0.000000000000D+00 0.285435585790D-07 0.000000000000D+00  6 21 3 25 -24 4 21 4 0.66578654D-01 0.44526456D-01 0.69123719D+05 0.69123719D+05 0.69123719D+05 0.11785979D+01  1  2 15  3  6  5        4 0.714151523181D-03 0.100000000000D+01
-.361963669551D-03 0.000000000000D+00 0.000000000000D+00 0.285435585790D-07 0.000000000000D+00  6 21 3 25 -24 4 21 4 0.66578654D-01 0.44526456D-01 0.69123719D+05 0.69123719D+05 0.69123719D+05 0.11785979D+01  1  2  4  3  6  5        4 -.354307134283D-01 0.100000000000D+01
0.714746436213D-10 0.000000000000D+00 0.000000000000D+00 0.285435585790D-07 0.000000000000D+00  6 21 3 25 -24 4 21 4 0.66578654D-01 0.44526456D-01 0.69123719D+05 0.69123719D+05 0.69123719D+05 0.11785979D+01  1  2  5  3  6  5        4 0.699627567229D-08 0.100000000000D+01
-.732662916952D-10 0.000000000000D+00 0.000000000000D+00 0.285435585790D-07 0.000000000000D+00  6 21 3 25 -24 4 21 4 0.66578654D-01 0.44526456D-01 0.69123719D+05 0.69123719D+05 0.69123719D+05 0.11785979D+01  1  2  6  3  6  5        4 -.717165064722D-08 0.100000000000D+01
0.365341821215D-03 0.000000000000D+00 0.000000000000D+00 0.285435585790D-07 0.105406779433D-07  6 21 3 25 -24 4 21 4 0.66578654D-01 0.44526456D-01 0.68857517D+05 0.68857517D+05 0.68857517D+05 0.11787580D+01  1  2 11  3  6  5        4 0.357839088653D-01 0.100000000000D+01
  </mgrwgt>
  </event>
  <event>
  5     66 0.42050411E-03 0.27383159E+02 0.75467711E-02 0.11631022E+00
       21 -1    0    0  501  502 0.00000000E+00 0.00000000E+00 0.47076150E+03 0.47076210E+03 0.75000000E+00 0.0000E+00 0.9000E+01
        1 -1    0    0  502    0 0.00000000E+00 0.00000000E+00 -.17473301E+03 0.17473331E+03 0.32000000E+00 0.0000E+00 0.9000E+01
       25  1    1    2    0    0 -.63170097E+01 0.10806693E+03 0.24048231E+02 0.16709782E+03 0.12500000E+03 0.0000E+00 0.9000E+01
      -24  1    1    2    0    0 0.71009895E+00 -.13486989E+03 -.42539820E+02 0.16268756E+03 0.80419002E+02 0.0000E+00 0.9000E+01
        2  1    1    2  501    0 0.56069107E+01 0.26802959E+02 0.31452007E+03 0.31571002E+03 0.32000000E+00 0.0000E+00 0.9000E+01
#aMCatNLO 1  0  0  1  2 0.19514352D+02 0.00000000D+00  -5  6  0 0.00000000D+00 0.00000000D+00 0.00000000D+00 0.00000000D+00 0.00000000D+00
  <mgrwgt>
 0.4194751275D+00   23    2    0
 0.286806316470403D+03 0.000000000000000D+00 0.000000000000000D+00 0.286806316470403D+03
 0.286806316470403D+03 0.000000000000000D+00 0.000000000000000D+00 -.286806316470403D+03
 0.175627108238831D+03 -.631701203584355D+01 0.108066916576149D+03 -.591736262958152D+02
 0.205028802702726D+03 0.710096195905443D+00 -.134869899692348D+03 -.131830193444869D+03
 0.192956721999248D+03 0.560691583993811D+01 0.268029831161997D+02 0.191003819740684D+03
 0.000000000000000D+00 0.000000000000000D+00 -.000000000000000D+00 0.000000000000000D+00
 0.326691492142301D+03 0.000000000000000D+00 0.000000000000000D+00 0.326691492142301D+03
 0.289369123530534D+03 0.000000000000000D+00 0.000000000000000D+00 -.289369123530534D+03
 0.176528440925474D+03 -.122284821759796D+02 0.109024018593397D+03 -.591736262958152D+02
 0.204390246763320D+03 -.616262948303076D+01 -.133757164711815D+03 -.131830193444869D+03
 0.193025789253092D+03 -.872391657267724D+00 0.278520213636987D+02 0.191003819740684D+03
 0.421161387309487D+02 0.192635033162780D+02 -.311887524528112D+01 0.373223686117674D+02
0.613200809717D-04 0.000000000000D+00 0.000000000000D+00 0.480631077043D-05 0.000000000000D+00  6 21 1 25 -24 2 21 2 0.72424915D-01 0.26882071D-01 0.30584565D+05 0.30584565D+05 0.30584565D+05 0.12140198D+01  1  2  2  1  6  1       21 0.294637006969D-01 0.100000000000D+01
0.179414994238D-04 0.323594957557D-05 -.123787576383D-06 0.480631077043D-05 0.000000000000D+00  6 21 1 25 -24 2 21 4 0.72424915D-01 0.26882071D-01 0.30584565D+05 0.30584565D+05 0.30584565D+05 0.12140198D+01  1  2  3  1  6  1       21 0.127055895513D-01 0.100000000000D+01
0.669720464349D-05 0.000000000000D+00 0.000000000000D+00 0.480631077043D-05 0.000000000000D+00  6 21 1 25 -24 2 21 4 0.72424915D-01 0.26882071D-01 0.30584565D+05 0.30584565D+05 0.30584565D+05 0.12140198D+01  1  2 15  1  6  1       21 0.474274369892D-02 0.100000000000D+01
0.593258780514D-03 0.000000000000D+00 0.000000000000D+00 0.476637337031D-05 0.000000000000D+00  6 21 1 25 -24 2 21 4 0.82792392D-01 0.26882071D-01 0.34204294D+05 0.34204294D+05 0.34204294D+05 0.12089654D+01  1  2 12  1  6  1       21 0.304951559183D+00 0.100000000000D+01
-.211387867602D-03 0.000000000000D+00 0.000000000000D+00 0.480631077043D-05 0.000000000000D+00  6 21 1 25 -24 2 21 4 0.72424915D-01 0.26882071D-01 0.30584565D+05 0.30584565D+05 0.30584565D+05 0.12140198D+01  1  2  4  1  6  1       21 -.149698050227D+00 0.100000000000D+01
-.151505300409D-02 0.000000000000D+00 -.147285678048D-03 0.480631077043D-05 0.000000000000D+00  6 21 1 25 -24 2 21 4 0.82892229D-01 0.26882071D-01 0.30584565D+05 0.30584565D+05 0.30584565D+05 0.12140198D+01  1  2  5  1  6  1       21 -.792885540213D+00 0.100000000000D+01
0.146245052989D-02 0.000000000000D+00 0.142053346635D-03 0.480631077043D-05 0.000000000000D+00  6 21 1 25 -24 2 21 4 0.72424915D-01 0.26882071D-01 0.30584565D+05 0.30584565D+05 0.30584565D+05 0.12140198D+01  1  2  6  1  6  1       21 0.103566016045D+01 0.100000000000D+01
0.211467945634D-04 0.000000000000D+00 0.000000000000D+00 0.476637337031D-05 0.000000000000D+00  6 -1 1 25 -24 2 -1 4 0.82792392D-01 0.26882071D-01 0.34204294D+05 0.34204294D+05 0.34204294D+05 0.12089654D+01  1  2 12  4  6  1       21 0.120961624117D-02 0.100000000000D+01
-.581871260570D-04 0.000000000000D+00 -.530496551209D-05 0.480631077043D-05 0.000000000000D+00  6 -1 1 25 -24 2 -1 4 0.82892229D-01 0.26882071D-01 0.30584565D+05 0.30584565D+05 0.30584565D+05 0.12140198D+01  1  2  5  4  6  1       21 -.337874308131D-02 0.100000000000D+01
0.211467945634D-04 0.000000000000D+00 0.000000000000D+00 0.476637337031D-05 0.000000000000D+00  6 1 1 25 -24 2 1 4 0.82792392D-01 0.26882071D-01 0.34204294D+05 0.34204294D+05 0.34204294D+05 0.12089654D+01  1  2 12  5  6  1       21 0.385630538288D-02 0.100000000000D+01
-.581871260570D-04 0.000000000000D+00 -.530496551209D-05 0.480631077043D-05 0.000000000000D+00  6 1 1 25 -24 2 1 4 0.82892229D-01 0.26882071D-01 0.30584565D+05 0.30584565D+05 0.30584565D+05 0.12140198D+01  1  2  5  5  6  1       21 -.107782246064D-01 0.100000000000D+01
0.211467945634D-04 0.000000000000D+00 0.000000000000D+00 0.476637337031D-05 0.000000000000D+00  6 -2 1 25 -24 2 -2 4 0.82792392D-01 0.26882071D-01 0.34204294D+05 0.34204294D+05 0.34204294D+05 0.12089654D+01  1  2 12  6  6  1       21 0.920147893937D-03 0.100000000000D+01
-.581871260570D-04 0.000000000000D+00 -.530496551209D-05 0.480631077043D-05 0.000000000000D+00  6 -2 1 25 -24 2 -2 4 0.82892229D-01 0.26882071D-01 0.30584565D+05 0.30584565D+05 0.30584565D+05 0.12140198D+01  1  2  5  6  6  1       21 -.256825385432D-02 0.100000000000D+01
0.211467945634D-04 0.000000000000D+00 0.000000000000D+00 0.476637337031D-05 0.000000000000D+00  6 2 1 25 -24 2 2 4 0.82792392D-01 0.26882071D-01 0.34204294D+05 0.34204294D+05 0.34204294D+05 0.12089654D+01  1  2 12  7  6  1       21 0.611552807845D-02 0.100000000000D+01
-.581871260570D-04 0.000000000000D+00 -.530496551209D-05 0.480631077043D-05 0.000000000000D+00  6 2 1 25 -24 2 2 4 0.82892229D-01 0.26882071D-01 0.30584565D+05 0.30584565D+05 0.30584565D+05 0.12140198D+01  1  2  5  7  6  1       21 -.170885320716D-01 0.100000000000D+01
0.211467945634D-04 0.000000000000D+00 0.000000000000D+00 0.476637337031D-05 0.000000000000D+00  6 -3 1 25 -24 2 -3 4 0.82792392D-01 0.26882071D-01 0.34204294D+05 0.34204294D+05 0.34204294D+05 0.12089654D+01  1  2 12  8  6  1       21 0.581109834115D-03 0.100000000000D+01
0.211467945634D-04 0.000000000000D+00 0.000000000000D+00 0.476637337031D-05 0.000000000000D+00  6 -4 1 25 -24 2 -4 4 0.82792392D-01 0.26882071D-01 0.34204294D+05 0.34204294D+05 0.34204294D+05 0.12089654D+01  1  2 12  8  6  1       21 0.470345488368D-03 0.100000000000D+01
-.581871260570D-04 0.000000000000D+00 -.530496551209D-05 0.480631077043D-05 0.000000000000D+00  6 -3 1 25 -24 2 -3 4 0.82892229D-01 0.26882071D-01 0.30584565D+05 0.30584565D+05 0.30584565D+05 0.12140198D+01  1  2  5  8  6  1       21 -.161863157577D-02 0.100000000000D+01
-.581871260570D-04 0.000000000000D+00 -.530496551209D-05 0.480631077043D-05 0.000000000000D+00  6 -4 1 25 -24 2 -4 4 0.82892229D-01 0.26882071D-01 0.30584565D+05 0.30584565D+05 0.30584565D+05 0.12140198D+01  1  2  5  8  6  1       21 -.130854953701D-02 0.100000000000D+01
0.211467945634D-04 0.000000000000D+00 0.000000000000D+00 0.476637337031D-05 0.000000000000D+00  6 3 1 25 -24 2 3 4 0.82792392D-01 0.26882071D-01 0.34204294D+05 0.34204294D+05 0.34204294D+05 0.12089654D+01  1  2 12  9  6  1       21 0.581908031039D-03 0.100000000000D+01
0.211467945634D-04 0.000000000000D+00 0.000000000000D+00 0.476637337031D-05 0.000000000000D+00  6 4 1 25 -24 2 4 4 0.82792392D-01 0.26882071D-01 0.34204294D+05 0.34204294D+05 0.34204294D+05 0.12089654D+01  1  2 12  9  6  1       21 0.470345488368D-03 0.100000000000D+01
-.581871260570D-04 0.000000000000D+00 -.530496551209D-05 0.480631077043D-05 0.000000000000D+00  6 3 1 25 -24 2 3 4 0.82892229D-01 0.26882071D-01 0.30584565D+05 0.30584565D+05 0.30584565D+05 0.12140198D+01  1  2  5  9  6  1       21 -.162085781726D-02 0.100000000000D+01
-.581871260570D-04 0.000000000000D+00 -.530496551209D-05 0.480631077043D-05 0.000000000000D+00  6 4 1 25 -24 2 4 4 0.82892229D-01 0.26882071D-01 0.30584565D+05 0.30584565D+05 0.30584565D+05 0.12140198D+01  1  2  5  9  6  1       21 -.130854953701D-02 0.100000000000D+01
  </mgrwgt>
  </event>
  <event>
  5     66 -.42050411E-03 0.35553713E+02 0.75467711E-02 0.12241774E+00
       21 -1    0    0  501  502 0.00000000E+00 0.00000000E+00 0.13362970E+02 0.13384000E+02 0.75000000E+00 0.0000E+00 0.9000E+01
        1 -1    0    0  502    0 -.00000000E+00 -.00000000E+00 -.15711180E+04 0.15711181E+04 0.32000000E+00 0.0000E+00 0.9000E+01
       25  1    1    2    0    0 0.49667125E+02 -.37624345E+02 -.51373415E+03 0.53238162E+03 0.12500000E+03 0.0000E+00 0.9000E+01
      -24  1    1    2    0    0 -.38505243E+02 0.38695008E+01 -.86581417E+03 0.87040164E+03 0.80419002E+02 0.0000E+00 0.9000E+01
        2  1    1    2  501    0 -.11161882E+02 0.33754845E+02 -.17820676E+03 0.18171881E+03 0.32000000E+00 0.0000E+00 0.9000E+01
#aMCatNLO 1  0  0  5  1 0.79815028D+01 0.00000000D+00  -5  6  0 0.00000000D+00 0.00000000D+00 0.00000000D+00 0.00000000D+00 0.00000000D+00
  <mgrwgt>
 -.4028790301D+00    7    2    0
 0.144953407526146D+03 0.000000000000000D+00 0.000000000000000D+00 0.144953407526146D+03
 0.144953407526146D+03 -.000000000000000D+00 -.000000000000000D+00 -.144953407526146D+03
 0.149316515492384D+03 0.496673563754235D+02 -.376250464414546D+02 0.528008654260732D+02
 0.104953645427705D+03 -.385050800605445D+02 0.386900815300223D+01 -.552308004616703D+02
 0.356366541322049D+02 -.111622763148790D+02 0.337560382884524D+02 0.242993503559709D+01
 0.000000000000000D+00 0.000000000000000D+00 0.000000000000000D+00 0.000000000000000D+00
 0.144953407526146D+03 0.000000000000000D+00 0.000000000000000D+00 0.144953407526146D+03
 0.144953407526146D+03 -.000000000000000D+00 -.000000000000000D+00 -.144953407526146D+03
 0.148711174784349D+03 0.490614208467812D+02 -.357926260347032D+02 0.529327725683824D+02
 0.105117756605394D+03 -.389321871052804D+02 0.516063016169174D+01 -.551378227980937D+02
 0.170213030022913D+02 -.543138907381668D+01 0.145734193087152D+02 -.691666236540447D+01
 0.190565806602587D+02 -.469784466768415D+01 0.160585765642963D+02 0.912171259511579D+01
0.350429650531D-05 0.000000000000D+00 0.000000000000D+00 0.381944946671D-06 0.000000000000D+00  6 21 1 25 -24 2 21 2 0.20574618D-02 0.24171209D+00 0.17485937D+05 0.17485937D+05 0.17485937D+05 0.12403011D+01  1  2  2  3  6  5        2 0.464666608929D-01 0.100000000000D+01
-.455382298623D-07 0.184926807163D-06 -.707416501165D-08 0.381944946671D-06 0.000000000000D+00  6 21 1 25 -24 2 21 4 0.20574618D-02 0.24171209D+00 0.17485937D+05 0.17485937D+05 0.17485937D+05 0.12403011D+01  1  2  3  3  6  5        2 -.928904348413D-03 0.100000000000D+01
0.442462540167D-06 0.000000000000D+00 0.000000000000D+00 0.381944946671D-06 0.000000000000D+00  6 21 1 25 -24 2 21 4 0.20574618D-02 0.24171209D+00 0.17485937D+05 0.17485937D+05 0.17485937D+05 0.12403011D+01  1  2 15  3  6  5        2 0.902550184347D-02 0.100000000000D+01
0.210061229266D-05 0.000000000000D+00 0.000000000000D+00 0.382794004971D-06 0.000000000000D+00  6 21 1 25 -24 2 21 4 0.20574618D-02 0.24171209D+00 0.16997920D+05 0.16997920D+05 0.16997920D+05 0.12416789D+01  1  2 12  3  6  5        2 0.430420507155D-01 0.100000000000D+01
-.269420093455D-04 0.000000000000D+00 0.000000000000D+00 0.381944946671D-06 0.000000000000D+00  6 21 1 25 -24 2 21 4 0.20574618D-02 0.24171209D+00 0.17485937D+05 0.17485937D+05 0.17485937D+05 0.12403011D+01  1  2  4  3  6  5        2 -.549572298082D+00 0.100000000000D+01
-.189748857411D-05 0.000000000000D+00 0.000000000000D+00 0.381944946671D-06 0.000000000000D+00  6 21 1 25 -24 2 21 4 0.20574618D-02 0.24171209D+00 0.17485937D+05 0.17485937D+05 0.17485937D+05 0.12403011D+01  1  2  5  3  6  5        2 -.387056192759D-01 0.100000000000D+01
0.430395675108D-05 0.000000000000D+00 -.000000000000D+00 0.381944946671D-06 0.000000000000D+00  6 21 1 25 -24 2 21 4 0.20574618D-02 0.24171209D+00 0.17485937D+05 0.17485937D+05 0.17485937D+05 0.12403011D+01  1  2  6  3  6  5        2 0.877935781331D-01 0.100000000000D+01
  </mgrwgt>
  </event>
  <event>
  5     66 0.42050411E-03 0.24003025E+02 0.75467711E-02 0.11619204E+00
       21 -1    0    0  501  502 0.00000000E+00 0.00000000E+00 0.18460386E+03 0.18460538E+03 0.75000000E+00 0.0000E+00 0.9000E+01
        3 -1    0    0  502    0 0.00000000E+00 0.00000000E+00 -.33135119E+03 0.33135157E+03 0.50000000E+00 0.0000E+00 0.9000E+01
       25  1    1    2    0    0 -.12026683E+03 0.46730722E+01 0.40977987E+02 0.17829791E+03 0.12500000E+03 0.0000E+00 0.9000E+01
      -24  1    1    2    0    0 0.14360861E+03 0.89880767E+00 -.23365910E+03 0.28581119E+03 0.80419002E+02 0.0000E+00 0.9000E+01
        4  1    1    2  501    0 -.23341781E+02 -.55718798E+01 0.45933785E+02 0.51847851E+02 0.15500000E+01 0.0000E+00 0.9000E+01
#aMCatNLO 1  0  0  2  1 0.10162787D+02 0.00000000D+00  -5  6  0 0.00000000D+00 0.00000000D+00 0.00000000D+00 0.00000000D+00 0.00000000D+00
  <mgrwgt>
 0.3284407003D-01    9    2    0
 0.247324074295165D+03 0.000000000000000D+00 0.000000000000000D+00 0.247324074295165D+03
 0.247324074295165D+03 0.000000000000000D+00 0.000000000000000D+00 -.247324074295165D+03
 0.198131013014644D+03 -.120264381766462D+03 0.467365721002622D+01 0.956322839046670D+02
 0.228810993180860D+03 0.143611443947500D+03 0.899483287661699D+00 -.158940865554364D+03
 0.677061423948267D+02 -.233470621810384D+02 -.557314049768792D+01 0.633085816496966D+02
 0.000000000000000D+00 -.000000000000000D+00 0.000000000000000D+00 -.000000000000000D+00
 0.250642545689009D+03 0.000000000000000D+00 0.000000000000000D+00 0.250642545689009D+03
 0.255281464941064D+03 0.000000000000000D+00 0.000000000000000D+00 -.255281464941064D+03
 0.195973509499521D+03 -.116738486024840D+03 0.268488013969846D+01 0.956322839046670D+02
 0.231420141075598D+03 0.147728948070733D+03 -.142298974822507D+01 -.158940865554364D+03
 0.673588867086637D+02 -.221386893160937D+02 -.625472169642820D+01 0.633085816496966D+02
 0.111714733462897D+02 -.885177272980009D+01 0.499283130495481D+01 -.463891925205557D+01
0.142246634671D-04 0.000000000000D+00 0.000000000000D+00 0.807206706653D-06 0.000000000000D+00  6 21 3 25 -24 4 21 2 0.28400740D-01 0.50977252D-01 0.32783395D+05 0.32783395D+05 0.32783395D+05 0.12108749D+01  1  2  2  2  6  2        3 0.468954862080D-02 0.100000000000D+01
0.198197356393D-05 0.750656114272D-06 -.287154972329D-07 0.807206706653D-06 0.000000000000D+00  6 21 3 25 -24 4 21 4 0.28400740D-01 0.50977252D-01 0.32783395D+05 0.32783395D+05 0.32783395D+05 0.12108749D+01  1  2  3  2  6  2        3 0.958044052911D-03 0.100000000000D+01
0.149673784585D-05 0.000000000000D+00 0.000000000000D+00 0.807206706653D-06 0.000000000000D+00  6 21 3 25 -24 4 21 4 0.28400740D-01 0.50977252D-01 0.32783395D+05 0.32783395D+05 0.32783395D+05 0.12108749D+01  1  2 15  2  6  2        3 0.723491381559D-03 0.100000000000D+01
0.102988889475D-03 0.000000000000D+00 0.000000000000D+00 0.803845210568D-06 0.000000000000D+00  6 21 3 25 -24 4 21 4 0.28400740D-01 0.52951469D-01 0.34675903D+05 0.34675903D+05 0.34675903D+05 0.12083510D+01  1  2 12  2  6  2        3 0.457285945548D-01 0.100000000000D+01
-.322366894876D-04 0.000000000000D+00 0.000000000000D+00 0.807206706653D-06 0.000000000000D+00  6 21 3 25 -24 4 21 4 0.28400740D-01 0.50977252D-01 0.32783395D+05 0.32783395D+05 0.32783395D+05 0.12108749D+01  1  2  4  2  6  2        3 -.155825330929D-01 0.100000000000D+01
-.915082901713D-03 0.000000000000D+00 -.137254749849D-03 0.807206706653D-06 0.000000000000D+00  6 21 3 25 -24 4 21 4 0.28400740D-01 0.53212811D-01 0.32783395D+05 0.32783395D+05 0.32783395D+05 0.12108749D+01  1  2  5  2  6  2        3 -.405592191195D+00 0.100000000000D+01
0.920252425647D-03 0.000000000000D+00 0.137128428356D-03 0.807206706653D-06 0.000000000000D+00  6 21 3 25 -24 4 21 4 0.28400740D-01 0.50977252D-01 0.32783395D+05 0.32783395D+05 0.32783395D+05 0.12108749D+01  1  2  6  2  6  2        3 0.444830536397D+00 0.100000000000D+01
0.181742913431D-05 0.000000000000D+00 0.000000000000D+00 0.803845210568D-06 0.000000000000D+00  6 21 21 25 -24 4 -3 4 0.28400740D-01 0.52951469D-01 0.34675903D+05 0.34675903D+05 0.34675903D+05 0.12083510D+01  1  2 12 10  6  2        3 0.155691097195D-01 0.100000000000D+01
-.682255495801D-05 0.000000000000D+00 -.103679619133D-05 0.807206706653D-06 0.000000000000D+00  6 21 21 25 -24 4 -3 4 0.28400740D-01 0.53212811D-01 0.32783395D+05 0.32783395D+05 0.32783395D+05 0.12108749D+01  1  2  5 10  6  2        3 -.584805304049D-01 0.100000000000D+01
  </mgrwgt>
  </event>
  <event>
  5     66 0.42050411E-03 0.20002990E+02 0.75467711E-02 0.11094601E+00
       21 -1    0    0  501  502 0.00000000E+00 0.00000000E+00 0.45267837E+03 0.45267899E+03 0.75000000E+00 0.0000E+00 0.9000E+01
        1 -1    0    0  502    0 0.00000000E+00 0.00000000E+00 -.18119453E+03 0.18119482E+03 0.32000000E+00 0.0000E+00 0.9000E+01
       25  1    1    2    0    0 -.64958441E+02 -.14666479E+03 0.77495952E+02 0.21762533E+03 0.12500000E+03 0.0000E+00 0.9000E+01
      -24  1    1    2    0    0 0.45056531E+02 0.14465673E+03 -.44270424E+02 0.17715176E+03 0.80419002E+02 0.0000E+00 0.9000E+01
        2  1    1    2  501    0 0.19901909E+02 0.20080629E+01 0.23825831E+03 0.23909672E+03 0.32000000E+00 0.0000E+00 0.9000E+01
#aMCatNLO 1  0  0  2  1 0.52009684D+01 0.00000000D+00  -5  6  0 0.00000000D+00 0.00000000D+00 0.00000000D+00 0.00000000D+00 0.00000000D+00
  <mgrwgt>
 0.1817576306D+00    4    2    0
 0.286396810025346D+03 0.000000000000000D+00 0.000000000000000D+00 0.286396810025346D+03
 0.286396810025346D+03 0.000000000000000D+00 0.000000000000000D+00 -.286396810025346D+03
 0.204101618243995D+03 -.649584565599611D+02 -.146664791710965D+03 -.173870170973805D+02
 0.217025125956669D+03 0.450565146148678D+02 0.144656725554047D+03 -.132954998344848D+03
 0.151666875850028D+03 0.199019419450934D+02 0.200806615691753D+01 0.150342015442229D+03
 0.000000000000000D+00 0.000000000000000D+00 0.000000000000000D+00 0.000000000000000D+00
 0.377628888543178D+03 0.000000000000000D+00 0.000000000000000D+00 0.377628888543178D+03
 0.328365156259355D+03 0.000000000000000D+00 0.000000000000000D+00 -.328365156259355D+03
 0.238821132129302D+03 -.890886314375964D+02 -.182130284512359D+03 -.173870170973805D+02
 0.192793934777033D+03 0.227298095735079D+02 0.111841895121256D+03 -.132954998344848D+03
 0.152025272000054D+03 0.335696964369107D+01 -.223090222616377D+02 0.150342015442229D+03
 0.122353705896144D+03 0.630018522203973D+02 0.925974116527414D+02 0.492637322838229D+02
0.272329392425D-03 0.000000000000D+00 0.000000000000D+00 0.410523553097D-05 0.000000000000D+00  6 21 1 25 -24 2 21 2 0.69642896D-01 0.27876152D-01 0.38985248D+05 0.38985248D+05 0.38985248D+05 0.12031352D+01  1  2  2  2  6  2        1 0.132828131021D+00 0.100000000000D+01
0.994562603157D-04 0.143712168652D-04 -.549754581730D-06 0.410523553097D-05 0.000000000000D+00  6 21 1 25 -24 2 21 4 0.69642896D-01 0.27876152D-01 0.38985248D+05 0.38985248D+05 0.38985248D+05 0.12031352D+01  1  2  3  2  6  2        1 0.702193034913D-01 0.100000000000D+01
0.286737641892D-04 0.000000000000D+00 0.000000000000D+00 0.410523553097D-05 0.000000000000D+00  6 21 1 25 -24 2 21 4 0.69642896D-01 0.27876152D-01 0.38985248D+05 0.38985248D+05 0.38985248D+05 0.12031352D+01  1  2 15  2  6  2        1 0.202445953975D-01 0.100000000000D+01
-.588279265915D-04 0.000000000000D+00 0.000000000000D+00 0.410523553097D-05 0.000000000000D+00  6 21 1 25 -24 2 21 4 0.69642896D-01 0.27876152D-01 0.38985248D+05 0.38985248D+05 0.38985248D+05 0.12031352D+01  1  2  4  2  6  2        1 -.415343993227D-01 0.100000000000D+01
  </mgrwgt>
  </event>
  <event>
  6     66 -.42050411E-03 0.21883750E+03 0.75467711E-02 0.10851507E+00
       21 -1    0    0  503  502 0.00000000E+00 0.00000000E+00 0.33276603E+03 0.33276687E+03 0.75000000E+00 0.0000E+00 0.9000E+01
        3 -1    0    0  502    0 0.00000000E+00 0.00000000E+00 -.40673560E+03 0.40673591E+03 0.50000000E+00 0.0000E+00 0.9000E+01
       25  1    1    2    0    0 0.13951918E+03 -.66632715E+02 -.18948258E+03 0.27465281E+03 0.12500000E+03 0.0000E+00 0.9000E+01
      -24  1    1    2    0    0 0.18804978E+02 -.40355187E+02 -.46264783E+02 0.10290682E+03 0.80419002E+02 0.0000E+00 0.9000E+01
        4  1    1    2  501    0 -.19473378E+03 0.15532861E+03 0.82922845E+02 0.26253918E+03 0.15500000E+01 0.0000E+00 0.9000E+01
       21  1    1    2  503  501 0.36409622E+02 -.48340703E+02 0.78854942E+02 0.99403966E+02 0.75000000E+00 0.0000E+00 0.9000E+01
#aMCatNLO 2  0  0  1  5 0.60518461D+02 0.00000000D+00  -5  6  0 0.00000000D+00 0.00000000D+00 0.00000000D+00 0.00000000D+00 0.00000000D+00
  <mgrwgt>
 -.1052531380D-02    3    2    0
 0.309317263373193D+03 0.000000000000000D+00 0.000000000000000D+00 0.309317263373193D+03
 0.309317263373193D+03 0.000000000000000D+00 0.000000000000000D+00 -.309317263373193D+03
 0.250793043309532D+03 0.153818497373177D+03 -.856170843121491D+02 -.127599903260938D+03
 0.993088098901495D+02 0.244979937730647D+02 -.479134730425703D+02 -.223421388752532D+02
 0.268532673546705D+03 -.178316491146242D+03 0.133530557354719D+03 0.149942042136191D+03
 0.000000000000000D+00 0.000000000000000D+00 -.000000000000000D+00 0.000000000000000D+00
 0.424489586197927D+03 0.000000000000000D+00 0.000000000000000D+00 0.424489586197927D+03
 0.318847061490237D+03 0.000000000000000D+00 0.000000000000000D+00 -.318847061490237D+03
 0.236247056395185D+03 0.139520295805746D+03 -.666335005944163D+02 -.127599903260938D+03
 0.945970358590520D+02 0.188054340242754D+02 -.403555166066023D+02 -.223421388752532D+02
 0.290743521733587D+03 -.194735352297166D+03 0.155329720259120D+03 0.149942042136191D+03
 0.121749033700340D+03 0.364096224671449D+02 -.483407030581011D+02 0.105642524707690D+03
-.336128604577D-04 0.000000000000D+00 0.000000000000D+00 0.328550237459D-06 0.000000000000D+00  6 21 3 25 -24 4 21 4 0.51609407D-01 0.60704327D-01 0.90107985D+05 0.90107985D+05 0.90107985D+05 0.11677502D+01  1  2 13  1  6  1       21 -.290452774980D-02 0.100000000000D+01
-.289073092185D-04 0.000000000000D+00 0.000000000000D+00 0.328550237459D-06 0.000000000000D+00  6 21 3 25 -24 4 21 4 0.54218505D-01 0.60704327D-01 0.90107985D+05 0.90107985D+05 0.90107985D+05 0.11677502D+01  1  2 13  1  6  1       21 -.224928188230D-02 0.100000000000D+01
0.497296765682D-04 0.000000000000D+00 0.000000000000D+00 0.333830765618D-06 0.141127263467D-08  6 21 3 25 -24 4 21 4 0.51194681D-01 0.62574575D-01 0.90107985D+05 0.90107985D+05 0.90107985D+05 0.11677502D+01  1  2  1  1  6  1       21 0.410127825235D-02 0.100000000000D+01
  </mgrwgt>
  </event>
  <event>
  5     66 0.42050411E-03 0.66818113E+02 0.75467711E-02 0.11723337E+00
       21 -1    0    0  501  502 0.00000000E+00 0.00000000E+00 0.79985823E+02 0.79989339E+02 0.75000000E+00 0.0000E+00 0.9000E+01
        1 -1    0    0  502    0 0.00000000E+00 0.00000000E+00 -.29619234E+04 0.29619234E+04 0.32000000E+00 0.0000E+00 0.9000E+01
       25  1    1    2    0    0 -.86284974E+02 0.34534927E+02 -.21418985E+04 0.21475549E+04 0.12500000E+03 0.0000E+00 0.9000E+01
      -24  1    1    2    0    0 0.15879984E+02 0.10439689E+02 -.79178555E+03 0.79608588E+03 0.80419002E+02 0.0000E+00 0.9000E+01
        2  1    1    2  501    0 0.70404991E+02 -.44974616E+02 0.51746496E+02 0.98271975E+02 0.32000000E+00 0.0000E+00 0.9000E+01
#aMCatNLO 1  0  0  1  2 0.27043686D+02 0.00000000D+00  -5  6  0 0.00000000D+00 0.00000000D+00 0.00000000D+00 0.00000000D+00 0.00000000D+00
  <mgrwgt>
 0.6993877509D-01   23    2    0
 0.486741465491744D+03 0.000000000000000D+00 0.000000000000000D+00 0.486741465491744D+03
 0.486741465491744D+03 0.000000000000000D+00 0.000000000000000D+00 -.486741465491744D+03
 0.369659113860702D+03 -.862849808882127D+02 0.345349310623035D+02 -.335238871657095D+03
 0.143553916753407D+03 0.158799813045710D+02 0.104396903616840D+02 -.117385476613558D+03
 0.460269900369379D+03 0.704049995836417D+02 -.449746214239874D+02 0.452624348270654D+03
 0.000000000000000D+00 0.000000000000000D+00 0.000000000000000D+00 0.000000000000000D+00
 0.501875960276251D+03 0.000000000000000D+00 0.000000000000000D+00 0.501875960276251D+03
 0.499162058335154D+03 0.000000000000000D+00 0.000000000000000D+00 -.499162058335154D+03
 0.370247057253473D+03 -.916913800326250D+02 0.257967665153424D+02 -.335238871657095D+03
 0.143130559558940D+03 0.137852147409709D+02 0.705399603330122D+01 -.117385476613558D+03
 0.460480883118735D+03 0.636771921366905D+02 -.558485297206936D+02 0.452624348270654D+03
 0.271795186802560D+02 0.142289731549637D+02 0.229977671720500D+02 0.271390194109677D+01
0.160729349972D-03 0.000000000000D+00 0.000000000000D+00 0.897171326042D-05 0.000000000000D+00  6 21 1 25 -24 2 21 2 0.12305783D-01 0.45568079D+00 0.25911817D+05 0.25911817D+05 0.25911817D+05 0.12216332D+01  1  2  2  1  6  1       21 0.123502580051D-01 0.100000000000D+01
0.202349465610D-04 0.848192082566D-05 -.324466249416D-06 0.897171326042D-05 0.000000000000D+00  6 21 1 25 -24 2 21 4 0.12305783D-01 0.45568079D+00 0.25911817D+05 0.25911817D+05 0.25911817D+05 0.12216332D+01  1  2  3  1  6  1       21 0.232040891866D-02 0.100000000000D+01
0.176343109354D-04 0.000000000000D+00 0.000000000000D+00 0.897171326042D-05 0.000000000000D+00  6 21 1 25 -24 2 21 4 0.12305783D-01 0.45568079D+00 0.25911817D+05 0.25911817D+05 0.25911817D+05 0.12216332D+01  1  2 15  1  6  1       21 0.202218534384D-02 0.100000000000D+01
0.313816355558D-03 0.000000000000D+00 0.000000000000D+00 0.885635250476D-05 0.000000000000D+00  6 21 1 25 -24 2 21 4 0.12841007D-01 0.45568079D+00 0.30764077D+05 0.30764077D+05 0.30764077D+05 0.12137537D+01  1  2 12  1  6  1       21 0.320801183576D-01 0.100000000000D+01
-.143821829071D-03 0.000000000000D+00 0.000000000000D+00 0.897171326042D-05 0.000000000000D+00  6 21 1 25 -24 2 21 4 0.12305783D-01 0.45568079D+00 0.25911817D+05 0.25911817D+05 0.25911817D+05 0.12216332D+01  1  2  4  1  6  1       21 -.164925295883D-01 0.100000000000D+01
-.276561176343D-02 0.000000000000D+00 -.771318141506D-03 0.897171326042D-05 0.000000000000D+00  6 21 1 25 -24 2 21 4 0.13168399D-01 0.45568079D+00 0.25911817D+05 0.25911817D+05 0.25911817D+05 0.12216332D+01  1  2  5  1  6  1       21 -.280933884460D+00 0.100000000000D+01
0.279167756449D-02 0.000000000000D+00 0.764282994309D-03 0.897171326042D-05 0.000000000000D+00  6 21 1 25 -24 2 21 4 0.12305783D-01 0.45568079D+00 0.25911817D+05 0.25911817D+05 0.25911817D+05 0.12216332D+01  1  2  6  1  6  1       21 0.320130992151D+00 0.100000000000D+01
0.539882476654D-05 0.000000000000D+00 0.000000000000D+00 0.885635250476D-05 0.000000000000D+00  6 -1 1 25 -24 2 -1 4 0.12841007D-01 0.45568079D+00 0.30764077D+05 0.30764077D+05 0.30764077D+05 0.12137537D+01  1  2 12  4  6  1       21 0.391026988484D-04 0.100000000000D+01
-.349624402621D-04 0.000000000000D+00 -.127947972397D-04 0.897171326042D-05 0.000000000000D+00  6 -1 1 25 -24 2 -1 4 0.13168399D-01 0.45568079D+00 0.25911817D+05 0.25911817D+05 0.25911817D+05 0.12216332D+01  1  2  5  4  6  1       21 -.252255858365D-03 0.100000000000D+01
0.539882476654D-05 0.000000000000D+00 0.000000000000D+00 0.885635250476D-05 0.000000000000D+00  6 1 1 25 -24 2 1 4 0.12841007D-01 0.45568079D+00 0.30764077D+05 0.30764077D+05 0.30764077D+05 0.12137537D+01  1  2 12  5  6  1       21 0.517612866462D-04 0.100000000000D+01
-.349624402621D-04 0.000000000000D+00 -.127947972397D-04 0.897171326042D-05 0.000000000000D+00  6 1 1 25 -24 2 1 4 0.13168399D-01 0.45568079D+00 0.25911817D+05 0.25911817D+05 0.25911817D+05 0.12216332D+01  1  2  5  5  6  1       21 -.336061111317D-03 0.100000000000D+01
0.539882476654D-05 0.000000000000D+00 0.000000000000D+00 0.885635250476D-05 0.000000000000D+00  6 -2 1 25 -24 2 -2 4 0.12841007D-01 0.45568079D+00 0.30764077D+05 0.30764077D+05 0.30764077D+05 0.12137537D+01  1  2 12  6  6  1       21 0.369190298262D-04 0.100000000000D+01
-.349624402621D-04 0.000000000000D+00 -.127947972397D-04 0.897171326042D-05 0.000000000000D+00  6 -2 1 25 -24 2 -2 4 0.13168399D-01 0.45568079D+00 0.25911817D+05 0.25911817D+05 0.25911817D+05 0.12216332D+01  1  2  5  6  6  1       21 -.237794416711D-03 0.100000000000D+01
0.539882476654D-05 0.000000000000D+00 0.000000000000D+00 0.885635250476D-05 0.000000000000D+00  6 2 1 25 -24 2 2 4 0.12841007D-01 0.45568079D+00 0.30764077D+05 0.30764077D+05 0.30764077D+05 0.12137537D+01  1  2 12  7  6  1       21 0.604351238216D-04 0.100000000000D+01
-.349624402621D-04 0.000000000000D+00 -.127947972397D-04 0.897171326042D-05 0.000000000000D+00  6 2 1 25 -24 2 2 4 0.13168399D-01 0.45568079D+00 0.25911817D+05 0.25911817D+05 0.25911817D+05 0.12216332D+01  1  2  5  7  6  1       21 -.393488132446D-03 0.100000000000D+01
0.539882476654D-05 0.000000000000D+00 0.000000000000D+00 0.885635250476D-05 0.000000000000D+00  6 -3 1 25 -24 2 -3 4 0.12841007D-01 0.45568079D+00 0.30764077D+05 0.30764077D+05 0.30764077D+05 0.12137537D+01  1  2 12  8  6  1       21 0.251369261600D-04 0.100000000000D+01
0.539882476654D-05 0.000000000000D+00 0.000000000000D+00 0.885635250476D-05 0.000000000000D+00  6 -4 1 25 -24 2 -4 4 0.12841007D-01 0.45568079D+00 0.30764077D+05 0.30764077D+05 0.30764077D+05 0.12137537D+01  1  2 12  8  6  1       21 0.218703141858D-04 0.100000000000D+01
-.349624402621D-04 0.000000000000D+00 -.127947972397D-04 0.897171326042D-05 0.000000000000D+00  6 -3 1 25 -24 2 -3 4 0.13168399D-01 0.45568079D+00 0.25911817D+05 0.25911817D+05 0.25911817D+05 0.12216332D+01  1  2  5  8  6  1       21 -.160995002995D-03 0.100000000000D+01
-.349624402621D-04 0.000000000000D+00 -.127947972397D-04 0.897171326042D-05 0.000000000000D+00  6 -4 1 25 -24 2 -4 4 0.13168399D-01 0.45568079D+00 0.25911817D+05 0.25911817D+05 0.25911817D+05 0.12216332D+01  1  2  5  8  6  1       21 -.139716758074D-03 0.100000000000D+01
0.539882476654D-05 0.000000000000D+00 0.000000000000D+00 0.885635250476D-05 0.000000000000D+00  6 3 1 25 -24 2 3 4 0.12841007D-01 0.45568079D+00 0.30764077D+05 0.30764077D+05 0.30764077D+05 0.12137537D+01  1  2 12  9  6  1       21 0.251338716634D-04 0.100000000000D+01
0.539882476654D-05 0.000000000000D+00 0.000000000000D+00 0.885635250476D-05 0.000000000000D+00  6 4 1 25 -24 2 4 4 0.12841007D-01 0.45568079D+00 0.30764077D+05 0.30764077D+05 0.30764077D+05 0.12137537D+01  1  2 12  9  6  1       21 0.218703141858D-04 0.100000000000D+01
-.349624402621D-04 0.000000000000D+00 -.127947972397D-04 0.897171326042D-05 0.000000000000D+00  6 3 1 25 -24 2 3 4 0.13168399D-01 0.45568079D+00 0.25911817D+05 0.25911817D+05 0.25911817D+05 0.12216332D+01  1  2  5  9  6  1       21 -.160975166831D-03 0.100000000000D+01
-.349624402621D-04 0.000000000000D+00 -.127947972397D-04 0.897171326042D-05 0.000000000000D+00  6 4 1 25 -24 2 4 4 0.13168399D-01 0.45568079D+00 0.25911817D+05 0.25911817D+05 0.25911817D+05 0.12216332D+01  1  2  5  9  6  1       21 -.139716758074D-03 0.100000000000D+01
  </mgrwgt>
  </event>
  <event>
  5     66 0.42050411E-03 0.92486646E+02 0.75467711E-02 0.11452898E+00
       21 -1    0    0  501  502 0.00000000E+00 0.00000000E+00 0.30124381E+02 0.30133716E+02 0.75000000E+00 0.0000E+00 0.9000E+01
        1 -1    0    0  502    0 0.00000000E+00 0.00000000E+00 -.11724451E+04 0.11724451E+04 0.32000000E+00 0.0000E+00 0.9000E+01
       25  1    1    2    0    0 0.98760813E+02 -.17217470E+02 -.52037734E+03 0.54448849E+03 0.12500000E+03 0.0000E+00 0.9000E+01
      -24  1    1    2    0    0 -.22715305E+02 0.74532661E+02 -.24619520E+03 0.27046330E+03 0.80419002E+02 0.0000E+00 0.9000E+01
        2  1    1    2  501    0 -.76045508E+02 -.57315191E+02 -.37574816E+03 0.38762705E+03 0.32000000E+00 0.0000E+00 0.9000E+01
#aMCatNLO 1  0  0  1  2 0.40775361D+02 0.00000000D+00  -5  6  0 0.00000000D+00 0.00000000D+00 0.00000000D+00 0.00000000D+00 0.00000000D+00
  <mgrwgt>
 0.3895283797D-01   32    2    0
 0.187948986213194D+03 0.000000000000000D+00 0.000000000000000D+00 0.187948986213194D+03
 0.187948986213194D+03 0.000000000000000D+00 0.000000000000000D+00 -.187948986213194D+03
 0.160555701663695D+03 0.987609858215460D+02 -.172173405700711D+02 -.101471276710291D+02
 0.117105135382188D+03 -.227151796629635D+02 0.745327558918601D+02 0.342824399737477D+02
 0.982371353805048D+02 -.760458061585825D+02 -.573154153217890D+02 -.241353123027186D+02
 0.000000000000000D+00 0.000000000000000D+00 0.000000000000000D+00 0.000000000000000D+00
 0.231523915886131D+03 0.000000000000000D+00 0.000000000000000D+00 0.231523915886131D+03
 0.198838058793439D+03 0.000000000000000D+00 0.000000000000000D+00 -.198838058793439D+03
 0.151647888448814D+03 0.824670627357730D+02 -.216402734443436D+02 -.101471276710291D+02
 0.118052081241701D+03 -.349880481439226D+02 0.712013253222968D+02 0.342824399737477D+02
 0.108403079391360D+03 -.868303706945220D+02 -.602428505852075D+02 -.241353123027186D+02
 0.522589255976953D+02 0.393513561026716D+02 0.106817987072543D+02 0.326858570926919D+02
0.171332313108D-05 0.000000000000D+00 0.000000000000D+00 0.158340020800D-06 0.000000000000D+00  6 21 1 25 -24 2 21 2 0.46352416D-02 0.18037689D+00 0.33752223D+05 0.33752223D+05 0.33752223D+05 0.12095632D+01  1  2  2  1  6  1       21 0.103705043324D-01 0.100000000000D+01
-.157118115060D-06 0.904145456267D-07 -.345870577138D-08 0.158340020800D-06 0.000000000000D+00  6 21 1 25 -24 2 21 4 0.46352416D-02 0.18037689D+00 0.33752223D+05 0.33752223D+05 0.33752223D+05 0.12095632D+01  1  2  3  1  6  1       21 -.139137427319D-02 0.100000000000D+01
0.181579491391D-06 0.000000000000D+00 0.000000000000D+00 0.158340020800D-06 0.000000000000D+00  6 21 1 25 -24 2 21 4 0.46352416D-02 0.18037689D+00 0.33752223D+05 0.33752223D+05 0.33752223D+05 0.12095632D+01  1  2 15  1  6  1       21 0.160799429629D-02 0.100000000000D+01
0.319230132294D-05 0.000000000000D+00 0.000000000000D+00 0.155761042501D-06 0.000000000000D+00  6 21 1 25 -24 2 21 4 0.58215528D-02 0.18037689D+00 0.42174815D+05 0.42174815D+05 0.42174815D+05 0.11996723D+01  1  2 12  1  6  1       21 0.185068382513D-01 0.100000000000D+01
0.258841013393D-05 0.000000000000D+00 0.000000000000D+00 0.155761042501D-06 0.000000000000D+00  6 21 1 25 -24 2 21 4 0.61014405D-02 0.18037689D+00 0.42174815D+05 0.42174815D+05 0.42174815D+05 0.11996723D+01  1  2 12  1  6  1       21 0.138458430180D-01 0.100000000000D+01
-.367189715749D-05 0.000000000000D+00 0.000000000000D+00 0.158340020800D-06 0.000000000000D+00  6 21 1 25 -24 2 21 4 0.46352416D-02 0.18037689D+00 0.33752223D+05 0.33752223D+05 0.33752223D+05 0.12095632D+01  1  2  4  1  6  1       21 -.325168312819D-01 0.100000000000D+01
-.111901836454D-04 0.000000000000D+00 -.264116527139D-05 0.158340020800D-06 0.000000000000D+00  6 21 1 25 -24 2 21 4 0.60487857D-02 0.18037689D+00 0.33752223D+05 0.33752223D+05 0.33752223D+05 0.12095632D+01  1  2  5  1  6  1       21 -.630523789332D-01 0.100000000000D+01
0.104311428334D-04 0.000000000000D+00 0.230144971856D-05 0.158340020800D-06 0.000000000000D+00  6 21 1 25 -24 2 21 4 0.46352416D-02 0.18037689D+00 0.33752223D+05 0.33752223D+05 0.33752223D+05 0.12095632D+01  1  2  6  1  6  1       21 0.923739682904D-01 0.100000000000D+01
0.214533814648D-06 0.000000000000D+00 0.000000000000D+00 0.155761042501D-06 0.000000000000D+00  6 -1 1 25 -24 2 -1 4 0.58215528D-02 0.18037689D+00 0.42174815D+05 0.42174815D+05 0.42174815D+05 0.11996723D+01  1  2 12  4  6  1       21 0.744142191478D-04 0.100000000000D+01
0.218800537451D-06 0.000000000000D+00 0.000000000000D+00 0.155761042501D-06 0.000000000000D+00  6 -1 1 25 -24 2 -1 4 0.61014405D-02 0.18037689D+00 0.42174815D+05 0.42174815D+05 0.42174815D+05 0.11996723D+01  1  2 12  4  6  1       21 0.707176539024D-04 0.100000000000D+01
-.761667174932D-06 0.000000000000D+00 -.214641769055D-06 0.158340020800D-06 0.000000000000D+00  6 -1 1 25 -24 2 -1 4 0.60487857D-02 0.18037689D+00 0.33752223D+05 0.33752223D+05 0.33752223D+05 0.12095632D+01  1  2  5  4  6  1       21 -.257694286135D-03 0.100000000000D+01
0.214533814648D-06 0.000000000000D+00 0.000000000000D+00 0.155761042501D-06 0.000000000000D+00  6 1 1 25 -24 2 1 4 0.58215528D-02 0.18037689D+00 0.42174815D+05 0.42174815D+05 0.42174815D+05 0.11996723D+01  1  2 12  5  6  1       21 0.853247332444D-04 0.100000000000D+01
0.218800537451D-06 0.000000000000D+00 0.000000000000D+00 0.155761042501D-06 0.000000000000D+00  6 1 1 25 -24 2 1 4 0.61014405D-02 0.18037689D+00 0.42174815D+05 0.42174815D+05 0.42174815D+05 0.11996723D+01  1  2 12  5  6  1       21 0.815857851546D-04 0.100000000000D+01
-.761667174932D-06 0.000000000000D+00 -.214641769055D-06 0.158340020800D-06 0.000000000000D+00  6 1 1 25 -24 2 1 4 0.60487857D-02 0.18037689D+00 0.33752223D+05 0.33752223D+05 0.33752223D+05 0.12095632D+01  1  2  5  5  6  1       21 -.297049364109D-03 0.100000000000D+01
0.214533814648D-06 0.000000000000D+00 0.000000000000D+00 0.155761042501D-06 0.000000000000D+00  6 -2 1 25 -24 2 -2 4 0.58215528D-02 0.18037689D+00 0.42174815D+05 0.42174815D+05 0.42174815D+05 0.11996723D+01  1  2 12  6  6  1       21 0.725029183415D-04 0.100000000000D+01
0.218800537451D-06 0.000000000000D+00 0.000000000000D+00 0.155761042501D-06 0.000000000000D+00  6 -2 1 25 -24 2 -2 4 0.61014405D-02 0.18037689D+00 0.42174815D+05 0.42174815D+05 0.42174815D+05 0.11996723D+01  1  2 12  6  6  1       21 0.688163246319D-04 0.100000000000D+01
-.761667174932D-06 0.000000000000D+00 -.214641769055D-06 0.158340020800D-06 0.000000000000D+00  6 -2 1 25 -24 2 -2 4 0.60487857D-02 0.18037689D+00 0.33752223D+05 0.33752223D+05 0.33752223D+05 0.12095632D+01  1  2  5  6  6  1       21 -.250802901865D-03 0.100000000000D+01
0.214533814648D-06 0.000000000000D+00 0.000000000000D+00 0.155761042501D-06 0.000000000000D+00  6 2 1 25 -24 2 2 4 0.58215528D-02 0.18037689D+00 0.42174815D+05 0.42174815D+05 0.42174815D+05 0.11996723D+01  1  2 12  7  6  1       21 0.926725122212D-04 0.100000000000D+01
0.218800537451D-06 0.000000000000D+00 0.000000000000D+00 0.155761042501D-06 0.000000000000D+00  6 2 1 25 -24 2 2 4 0.61014405D-02 0.18037689D+00 0.42174815D+05 0.42174815D+05 0.42174815D+05 0.11996723D+01  1  2 12  7  6  1       21 0.889050862074D-04 0.100000000000D+01
-.761667174932D-06 0.000000000000D+00 -.214641769055D-06 0.158340020800D-06 0.000000000000D+00  6 2 1 25 -24 2 2 4 0.60487857D-02 0.18037689D+00 0.33752223D+05 0.33752223D+05 0.33752223D+05 0.12095632D+01  1  2  5  7  6  1       21 -.323524212829D-03 0.100000000000D+01
0.214533814648D-06 0.000000000000D+00 0.000000000000D+00 0.155761042501D-06 0.000000000000D+00  6 -3 1 25 -24 2 -3 4 0.58215528D-02 0.18037689D+00 0.42174815D+05 0.42174815D+05 0.42174815D+05 0.11996723D+01  1  2 12  8  6  1       21 0.529609337191D-04 0.100000000000D+01
0.214533814648D-06 0.000000000000D+00 0.000000000000D+00 0.155761042501D-06 0.000000000000D+00  6 -4 1 25 -24 2 -4 4 0.58215528D-02 0.18037689D+00 0.42174815D+05 0.42174815D+05 0.42174815D+05 0.11996723D+01  1  2 12  8  6  1       21 0.473402036132D-04 0.100000000000D+01
0.218800537451D-06 0.000000000000D+00 0.000000000000D+00 0.155761042501D-06 0.000000000000D+00  6 -3 1 25 -24 2 -3 4 0.61014405D-02 0.18037689D+00 0.42174815D+05 0.42174815D+05 0.42174815D+05 0.11996723D+01  1  2 12  8  6  1       21 0.500788158379D-04 0.100000000000D+01
0.218800537451D-06 0.000000000000D+00 0.000000000000D+00 0.155761042501D-06 0.000000000000D+00  6 -4 1 25 -24 2 -4 4 0.61014405D-02 0.18037689D+00 0.42174815D+05 0.42174815D+05 0.42174815D+05 0.11996723D+01  1  2 12  8  6  1       21 0.447072888888D-04 0.100000000000D+01
-.761667174932D-06 0.000000000000D+00 -.214641769055D-06 0.158340020800D-06 0.000000000000D+00  6 -3 1 25 -24 2 -3 4 0.60487857D-02 0.18037689D+00 0.33752223D+05 0.33752223D+05 0.33752223D+05 0.12095632D+01  1  2  5  8  6  1       21 -.181836460250D-03 0.100000000000D+01
-.761667174932D-06 0.000000000000D+00 -.214641769055D-06 0.158340020800D-06 0.000000000000D+00  6 -4 1 25 -24 2 -4 4 0.60487857D-02 0.18037689D+00 0.33752223D+05 0.33752223D+05 0.33752223D+05 0.12095632D+01  1  2  5  8  6  1       21 -.162052085452D-03 0.100000000000D+01
0.214533814648D-06 0.000000000000D+00 0.000000000000D+00 0.155761042501D-06 0.000000000000D+00  6 3 1 25 -24 2 3 4 0.58215528D-02 0.18037689D+00 0.42174815D+05 0.42174815D+05 0.42174815D+05 0.11996723D+01  1  2 12  9  6  1       21 0.529556454112D-04 0.100000000000D+01
0.214533814648D-06 0.000000000000D+00 0.000000000000D+00 0.155761042501D-06 0.000000000000D+00  6 4 1 25 -24 2 4 4 0.58215528D-02 0.18037689D+00 0.42174815D+05 0.42174815D+05 0.42174815D+05 0.11996723D+01  1  2 12  9  6  1       21 0.473402036132D-04 0.100000000000D+01
0.218800537451D-06 0.000000000000D+00 0.000000000000D+00 0.155761042501D-06 0.000000000000D+00  6 3 1 25 -24 2 3 4 0.61014405D-02 0.18037689D+00 0.42174815D+05 0.42174815D+05 0.42174815D+05 0.11996723D+01  1  2 12  9  6  1       21 0.500737119256D-04 0.100000000000D+01
0.218800537451D-06 0.000000000000D+00 0.000000000000D+00 0.155761042501D-06 0.000000000000D+00  6 4 1 25 -24 2 4 4 0.61014405D-02 0.18037689D+00 0.42174815D+05 0.42174815D+05 0.42174815D+05 0.11996723D+01  1  2 12  9  6  1       21 0.447072888888D-04 0.100000000000D+01
-.761667174932D-06 0.000000000000D+00 -.214641769055D-06 0.158340020800D-06 0.000000000000D+00  6 3 1 25 -24 2 3 4 0.60487857D-02 0.18037689D+00 0.33752223D+05 0.33752223D+05 0.33752223D+05 0.12095632D+01  1  2  5  9  6  1       21 -.181817663532D-03 0.100000000000D+01
-.761667174932D-06 0.000000000000D+00 -.214641769055D-06 0.158340020800D-06 0.000000000000D+00  6 4 1 25 -24 2 4 4 0.60487857D-02 0.18037689D+00 0.33752223D+05 0.33752223D+05 0.33752223D+05 0.12095632D+01  1  2  5  9  6  1       21 -.162052085452D-03 0.100000000000D+01
  </mgrwgt>
  </event>
  <event>
  5     66 0.42050411E-03 0.50735850E+02 0.75467711E-02 0.12160010E+00
       21 -1    0    0  501  502 0.00000000E+00 0.00000000E+00 0.44848405E+02 0.44854675E+02 0.75000000E+00 0.0000E+00 0.9000E+01
        1 -1    0    0  502    0 0.00000000E+00 0.00000000E+00 -.47957981E+03 0.47957991E+03 0.32000000E+00 0.0000E+00 0.9000E+01
       25  1    1    2    0    0 -.22279772E+02 -.41456071E+01 -.17545683E+03 0.21661873E+03 0.12500000E+03 0.0000E+00 0.9000E+01
      -24  1    1    2    0    0 0.15177565E+02 -.46090218E+02 -.86294216E+02 0.12754832E+03 0.80419002E+02 0.0000E+00 0.9000E+01
        2  1    1    2  501    0 0.71022066E+01 0.50235825E+02 -.17298036E+03 0.18026754E+03 0.32000000E+00 0.0000E+00 0.9000E+01
#aMCatNLO 1  0  0  2  1 0.43251836D+01 0.00000000D+00  -5  6  0 0.00000000D+00 0.00000000D+00 0.00000000D+00 0.00000000D+00 0.00000000D+00
  <mgrwgt>
 0.3138146734D-01    6    2    0
 0.146663088488254D+03 0.000000000000000D+00 0.000000000000000D+00 0.146663088488254D+03
 0.146663088488254D+03 0.000000000000000D+00 0.000000000000000D+00 -.146663088488254D+03
 0.127250040934495D+03 -.222798081677036D+02 -.414586380522123D+01 0.734812079033920D+01
 0.100147861800653D+03 0.151775366752220D+02 -.460904204217484D+02 0.347518890808969D+02
 0.659282742413599D+02 0.710227149248156D+01 0.502362842269696D+02 -.421000098712361D+02
 0.000000000000000D+00 0.000000000000000D+00 -.000000000000000D+00 0.000000000000000D+00
 0.237806904368414D+03 0.000000000000000D+00 0.000000000000000D+00 0.237806904368414D+03
 0.146730352984943D+03 0.000000000000000D+00 0.000000000000000D+00 -.146730352984943D+03
 0.127561097780172D+03 -.240795477473214D+02 -.360751549099360D+01 0.734812079033920D+01
 0.997495736937025D+02 0.137656544147446D+02 -.456680901894059D+02 0.347518890808969D+02
 0.660473918428211D+02 0.617012295691814D+01 0.505151137856532D+02 -.421000098712361D+02
 0.911791940366614D+02 0.414377037565867D+01 -.123950810525372D+01 0.910765513834707D+02
0.253756702912D-05 0.000000000000D+00 0.000000000000D+00 0.269661415273D-06 0.000000000000D+00  6 21 1 25 -24 2 21 2 0.69002451D-02 0.73781999D-01 0.18455022D+05 0.18455022D+05 0.18455022D+05 0.12376885D+01  1  2  2  2  6  2        1 0.316124804946D-01 0.100000000000D+01
-.254125228560D-06 0.133911091126D-06 -.512261672633D-08 0.269661415273D-06 0.000000000000D+00  6 21 1 25 -24 2 21 4 0.69002451D-02 0.73781999D-01 0.18455022D+05 0.18455022D+05 0.18455022D+05 0.12376885D+01  1  2  3  2  6  2        1 -.484966318775D-02 0.100000000000D+01
0.275979583299D-06 0.000000000000D+00 0.000000000000D+00 0.269661415273D-06 0.000000000000D+00  6 21 1 25 -24 2 21 4 0.69002451D-02 0.73781999D-01 0.18455022D+05 0.18455022D+05 0.18455022D+05 0.12376885D+01  1  2 15  2  6  2        1 0.526672630371D-02 0.100000000000D+01
-.952899365583D-07 0.000000000000D+00 0.000000000000D+00 0.269661415273D-06 0.000000000000D+00  6 21 1 25 -24 2 21 4 0.69002451D-02 0.73781999D-01 0.18455022D+05 0.18455022D+05 0.18455022D+05 0.12376885D+01  1  2  4  2  6  2        1 -.181848964823D-02 0.100000000000D+01
0.124715186145D-06 0.000000000000D+00 0.000000000000D+00 0.269661415273D-06 0.415413319896D-06  6 21 1 25 -24 2 21 4 0.11188404D-01 0.73815838D-01 0.19052996D+05 0.19052996D+05 0.19052996D+05 0.12361521D+01  1  2 11  2  6  2        1 0.102216672403D-02 0.100000000000D+01
0.567639150934D-08 0.000000000000D+00 0.000000000000D+00 0.268992310877D-06 0.189160984059D-07  6 21 21 25 -24 2 -1 4 0.11188404D-01 0.73815838D-01 0.19052996D+05 0.19052996D+05 0.19052996D+05 0.12361521D+01  1  2 11 10  6  2        1 0.148246653377D-03 0.100000000000D+01
  </mgrwgt>
  </event>
  <event>
  5     66 0.42050411E-03 0.23629789E+02 0.75467711E-02 0.11113048E+00
       21 -1    0    0  501  502 0.00000000E+00 0.00000000E+00 0.11798060E+03 0.11798298E+03 0.75000000E+00 0.0000E+00 0.9000E+01
        1 -1    0    0  502    0 -.00000000E+00 -.00000000E+00 -.11034110E+04 0.11034110E+04 0.32000000E+00 0.0000E+00 0.9000E+01
       25  1    1    2    0    0 0.14511198E+03 0.12340807E+03 -.53829944E+03 0.58453257E+03 0.12500000E+03 0.0000E+00 0.9000E+01
      -24  1    1    2    0    0 -.12276885E+03 -.13109903E+03 -.52225876E+03 0.55810445E+03 0.80419002E+02 0.0000E+00 0.9000E+01
        2  1    1    2  501    0 -.22343128E+02 0.76909600E+01 0.75127837E+02 0.78756972E+02 0.32000000E+00 0.0000E+00 0.9000E+01
#aMCatNLO 1  0  0  5  1 0.35359321D+01 0.00000000D+00  -5  6  0 0.00000000D+00 0.00000000D+00 0.00000000D+00 0.00000000D+00 0.00000000D+00
  <mgrwgt>
 0.4694946684D-01    6    2    0
 0.360808217082323D+03 0.000000000000000D+00 0.000000000000000D+00 0.360808217082323D+03
 0.360808217082323D+03 -.000000000000000D+00 -.000000000000000D+00 -.360808217082323D+03
 0.254273563010868D+03 0.145111982683528D+03 0.123408071527919D+03 -.112884920204859D+03
 0.231446785011284D+03 -.122768840908065D+03 -.131099036335913D+03 -.121824680223566D+03
 0.235896086142495D+03 -.223431417754631D+02 0.769096480799366D+01 0.234709600428425D+03
 0.000000000000000D+00 0.000000000000000D+00 0.000000000000000D+00 0.000000000000000D+00
 0.360808217082323D+03 0.000000000000000D+00 0.000000000000000D+00 0.360808217082323D+03
 0.360808217082323D+03 -.000000000000000D+00 -.000000000000000D+00 -.360808217082323D+03
 0.248680377156228D+03 0.143963246099256D+03 0.123803490074338D+03 -.100817704797034D+03
 0.226221774392326D+03 -.123814146602427D+03 -.130739220809980D+03 -.110843982687172D+03
 0.195630782529945D+03 0.314882292275830D+01 -.343227390382960D+02 0.192570604123238D+03
 0.510835000861477D+02 -.232979224195875D+02 0.412584697739376D+02 0.190910833609676D+02
0.124225728952D-03 0.000000000000D+00 0.000000000000D+00 0.559675511784D-05 0.000000000000D+00  6 21 1 25 -24 2 21 2 0.18151048D-01 0.16975572D+00 0.50234721D+05 0.50234721D+05 0.50234721D+05 0.11920804D+01  1  2  2  3  6  5        2 0.728646928726D-01 0.100000000000D+01
0.526295120333D-04 0.655557182099D-05 -.250775955736D-06 0.559675511784D-05 0.000000000000D+00  6 21 1 25 -24 2 21 4 0.18151048D-01 0.16975572D+00 0.50234721D+05 0.50234721D+05 0.50234721D+05 0.11920804D+01  1  2  3  3  6  5        2 0.438678149824D-01 0.100000000000D+01
0.138243195837D-04 0.000000000000D+00 0.000000000000D+00 0.559675511784D-05 0.000000000000D+00  6 21 1 25 -24 2 21 4 0.18151048D-01 0.16975572D+00 0.50234721D+05 0.50234721D+05 0.50234721D+05 0.11920804D+01  1  2 15  3  6  5        2 0.115228637000D-01 0.100000000000D+01
-.124167195595D-03 0.000000000000D+00 0.000000000000D+00 0.559675511784D-05 0.000000000000D+00  6 21 1 25 -24 2 21 4 0.18151048D-01 0.16975572D+00 0.50234721D+05 0.50234721D+05 0.50234721D+05 0.11920804D+01  1  2  4  3  6  5        2 -.103495992130D+00 0.100000000000D+01
-.111242162190D-03 0.000000000000D+00 0.000000000000D+00 0.559675511784D-05 0.000000000000D+00  6 21 1 25 -24 2 21 4 0.18151048D-01 0.16975572D+00 0.50234721D+05 0.50234721D+05 0.50234721D+05 0.11920804D+01  1  2  5  3  6  5        2 -.927227025418D-01 0.100000000000D+01
0.137864264819D-03 0.000000000000D+00 -.000000000000D+00 0.559675511784D-05 0.000000000000D+00  6 21 1 25 -24 2 21 4 0.18151048D-01 0.16975572D+00 0.50234721D+05 0.50234721D+05 0.50234721D+05 0.11920804D+01  1  2  6  3  6  5        2 0.114912789956D+00 0.100000000000D+01
  </mgrwgt>
  </event>
  <event>
  5     66 0.42050411E-03 0.20002319E+02 0.75467711E-02 0.11944114E+00
       21 -1    0    0  501  502 0.00000000E+00 0.00000000E+00 0.38292929E+03 0.38293002E+03 0.75000000E+00 0.0000E+00 0.9000E+01
        1 -1    0    0  502    0 0.00000000E+00 0.00000000E+00 -.78837628E+02 0.78838278E+02 0.32000000E+00 0.0000E+00 0.9000E+01
       25  1    1    2    0    0 -.70481301E+02 0.72175780E+02 0.16616196E+03 0.23110983E+03 0.12500000E+03 0.0000E+00 0.9000E+01
      -24  1    1    2    0    0 0.83762500E+02 -.57219708E+02 0.47259273E+02 0.13780750E+03 0.80419002E+02 0.0000E+00 0.9000E+01
        2  1    1    2  501    0 -.13281199E+02 -.14956072E+02 0.90670427E+02 0.92850972E+02 0.32000000E+00 0.0000E+00 0.9000E+01
#aMCatNLO 1  0  0  5  1 0.10690287D+01 0.00000000D+00  -5  6  0 0.00000000D+00 0.00000000D+00 0.00000000D+00 0.00000000D+00 0.00000000D+00
  <mgrwgt>
 0.2795205326D-01    7    2    0
 0.173751421516193D+03 0.000000000000000D+00 0.000000000000000D+00 0.173751421516193D+03
 0.173751421516193D+03 -.000000000000000D+00 -.000000000000000D+00 -.173751421516193D+03
 0.161698568782295D+03 -.704811381771217D+02 0.721759639334945D+02 0.185598097450070D+02
 0.141765889990356D+03 0.837626430706417D+02 -.572195473672015D+02 -.577935518488009D+02
 0.440383842597352D+02 -.132815048935200D+02 -.149564165662930D+02 0.392337421037939D+02
 0.000000000000000D+00 -.000000000000000D+00 0.000000000000000D+00 0.000000000000000D+00
 0.173751421516193D+03 0.000000000000000D+00 0.000000000000000D+00 0.173751421516193D+03
 0.173751421516193D+03 -.000000000000000D+00 -.000000000000000D+00 -.173751421516193D+03
 0.161703036391555D+03 -.704975123995948D+02 0.721575247811378D+02 0.186081794159753D+02
 0.141746653034464D+03 0.837482884806237D+02 -.572357121941295D+02 -.577511481989670D+02
 0.566557572108239D+01 -.878733130504856D+00 -.135975914434202D+01 0.542933065911904D+01
 0.383875778852845D+02 -.123720429505240D+02 -.135620534426663D+02 0.337136381238727D+02
0.294724313317D-05 0.000000000000D+00 0.000000000000D+00 0.174672376116D-05 0.000000000000D+00  6 21 1 25 -24 2 21 2 0.58912305D-01 0.12128972D-01 0.24037846D+05 0.24037846D+05 0.24037846D+05 0.12251293D+01  1  2  2  3  6  5        2 0.631675519947D-02 0.100000000000D+01
0.425836291611D-06 0.155530293091D-06 -.594963474749D-08 0.174672376116D-05 0.000000000000D+00  6 21 1 25 -24 2 21 4 0.58912305D-01 0.12128972D-01 0.24037846D+05 0.24037846D+05 0.24037846D+05 0.12251293D+01  1  2  3  3  6  5        2 0.136988645418D-02 0.100000000000D+01
0.315451763337D-06 0.000000000000D+00 0.000000000000D+00 0.174672376116D-05 0.000000000000D+00  6 21 1 25 -24 2 21 4 0.58912305D-01 0.12128972D-01 0.24037846D+05 0.24037846D+05 0.24037846D+05 0.12251293D+01  1  2 15  3  6  5        2 0.101478691708D-02 0.100000000000D+01
0.225497377286D-09 0.000000000000D+00 0.000000000000D+00 0.174674879974D-05 0.000000000000D+00  6 21 1 25 -24 2 21 4 0.58912305D-01 0.12128972D-01 0.24033334D+05 0.24033334D+05 0.24033334D+05 0.12251380D+01  1  2 12  3  6  5        2 0.725431497844D-06 0.100000000000D+01
-.231733104122D-04 0.000000000000D+00 0.000000000000D+00 0.174672376116D-05 0.000000000000D+00  6 21 1 25 -24 2 21 4 0.58912305D-01 0.12128972D-01 0.24037846D+05 0.24037846D+05 0.24037846D+05 0.12251293D+01  1  2  4  3  6  5        2 -.745469671274D-01 0.100000000000D+01
-.136702868095D-04 0.000000000000D+00 0.000000000000D+00 0.174672376116D-05 0.000000000000D+00  6 21 1 25 -24 2 21 4 0.58912305D-01 0.12128972D-01 0.24037846D+05 0.24037846D+05 0.24037846D+05 0.12251293D+01  1  2  5  3  6  5        2 -.439763850431D-01 0.100000000000D+01
0.428275279987D-04 0.000000000000D+00 -.000000000000D+00 0.174672376116D-05 0.000000000000D+00  6 21 1 25 -24 2 21 4 0.58912305D-01 0.12128972D-01 0.24037846D+05 0.24037846D+05 0.24037846D+05 0.12251293D+01  1  2  6  3  6  5        2 0.137773251429D+00 0.100000000000D+01
  </mgrwgt>
  </event>
  <event>
  5     66 0.42050411E-03 0.25521498E+02 0.75467711E-02 0.12135008E+00
       21 -1    0    0  501  502 0.00000000E+00 0.00000000E+00 0.20845700E+03 0.20845835E+03 0.75000000E+00 0.0000E+00 0.9000E+01
        1 -1    0    0  502    0 0.00000000E+00 0.00000000E+00 -.12825191E+03 0.12825231E+03 0.32000000E+00 0.0000E+00 0.9000E+01
       25  1    1    2    0    0 0.71090348E+02 -.46380108E+02 0.43546668E+02 0.15724587E+03 0.12500000E+03 0.0000E+00 0.9000E+01
      -24  1    1    2    0    0 -.47452571E+02 0.36757909E+02 -.32712774E+02 0.10554730E+03 0.80419002E+02 0.0000E+00 0.9000E+01
        2  1    1    2  501    0 -.23637777E+02 0.96221995E+01 0.69371196E+02 0.73917498E+02 0.32000000E+00 0.0000E+00 0.9000E+01
#aMCatNLO 1  0  0  5  1 0.71585522D+01 0.00000000D+00  -5  6  0 0.00000000D+00 0.00000000D+00 0.00000000D+00 0.00000000D+00 0.00000000D+00
  <mgrwgt>
 0.3212367408D-01    8    2    0
 0.163509339613479D+03 0.000000000000000D+00 0.000000000000000D+00 0.163509339613479D+03
 0.163509339613479D+03 -.000000000000000D+00 -.000000000000000D+00 -.163509339613479D+03
 0.151225992152881D+03 0.710905078282688D+02 -.463801733688759D+02 0.627055959346829D+01
 0.116698705653010D+03 -.474524469541938D+02 0.367578582897783D+02 -.595692628687415D+02
 0.590939814210679D+02 -.236380608740750D+02 0.962231507909760D+01 0.532987032752732D+02
 0.000000000000000D+00 -.000000000000000D+00 0.000000000000000D+00 0.000000000000000D+00
 0.163509339613479D+03 0.000000000000000D+00 0.000000000000000D+00 0.163509339613479D+03
 0.163509339613479D+03 -.000000000000000D+00 -.000000000000000D+00 -.163509339613479D+03
 0.151045209616621D+03 0.707246862104770D+02 -.462312588327856D+02 0.709540804284976D+01
 0.116526806779456D+03 -.477347065071016D+02 0.368727573234441D+02 -.589328287620190D+02
 0.201335876965376D+02 -.162776374526317D+01 0.660386661852850D+01 0.189499520951495D+02
 0.393130751343442D+02 -.213622159581123D+02 0.275463489081299D+01 0.328874686240197D+02
0.311145430206D-05 0.000000000000D+00 0.000000000000D+00 0.171014646148D-05 0.000000000000D+00  6 21 1 25 -24 2 21 2 0.32070443D-01 0.19731198D-01 0.19177718D+05 0.19177718D+05 0.19177718D+05 0.12358384D+01  1  2  2  3  6  5        2 0.124397336500D-01 0.100000000000D+01
0.333008813425D-06 0.164195954549D-06 -.628112978614D-08 0.171014646148D-05 0.000000000000D+00  6 21 1 25 -24 2 21 4 0.32070443D-01 0.19731198D-01 0.19177718D+05 0.19177718D+05 0.19177718D+05 0.12358384D+01  1  2  3  3  6  5        2 0.203341845821D-02 0.100000000000D+01
0.342320595185D-06 0.000000000000D+00 0.000000000000D+00 0.171014646148D-05 0.000000000000D+00  6 21 1 25 -24 2 21 4 0.32070443D-01 0.19731198D-01 0.19177718D+05 0.19177718D+05 0.19177718D+05 0.12358384D+01  1  2 15  3  6  5        2 0.209027806116D-02 0.100000000000D+01
0.308211523790D-05 0.000000000000D+00 0.000000000000D+00 0.170749657911D-05 0.000000000000D+00  6 21 1 25 -24 2 21 4 0.32070443D-01 0.19731198D-01 0.19564285D+05 0.19564285D+05 0.19564285D+05 0.12348806D+01  1  2 12  3  6  5        2 0.187620345601D-01 0.100000000000D+01
-.477285119715D-05 0.000000000000D+00 0.000000000000D+00 0.171014646148D-05 0.000000000000D+00  6 21 1 25 -24 2 21 4 0.32070443D-01 0.19731198D-01 0.19177718D+05 0.19177718D+05 0.19177718D+05 0.12358384D+01  1  2  4  3  6  5        2 -.291439845773D-01 0.100000000000D+01
-.335050247656D-05 0.000000000000D+00 0.000000000000D+00 0.171014646148D-05 0.000000000000D+00  6 21 1 25 -24 2 21 4 0.32070443D-01 0.19731198D-01 0.19177718D+05 0.19177718D+05 0.19177718D+05 0.12358384D+01  1  2  5  3  6  5        2 -.204588386416D-01 0.100000000000D+01
0.732703967414D-05 0.000000000000D+00 -.000000000000D+00 0.171014646148D-05 0.000000000000D+00  6 21 1 25 -24 2 21 4 0.32070443D-01 0.19731198D-01 0.19177718D+05 0.19177718D+05 0.19177718D+05 0.12358384D+01  1  2  6  3  6  5        2 0.447403705751D-01 0.100000000000D+01
0.272803656401D-06 0.000000000000D+00 0.000000000000D+00 0.171014646148D-05 0.187779057864D-06  6 21 1 25 -24 2 21 4 0.32070443D-01 0.19731198D-01 0.19564285D+05 0.19564285D+05 0.19564285D+05 0.12348806D+01  1  2 11  3  6  5        2 0.166066199167D-02 0.100000000000D+01
  </mgrwgt>
  </event>
  <event>
  5     66 0.42050411E-03 0.31024139E+02 0.75467711E-02 0.12117275E+00
       21 -1    0    0  501  502 0.00000000E+00 0.00000000E+00 0.20526568E+02 0.20540265E+02 0.75000000E+00 0.0000E+00 0.9000E+01
        1 -1    0    0  502    0 0.00000000E+00 0.00000000E+00 -.13560183E+04 0.13560184E+04 0.32000000E+00 0.0000E+00 0.9000E+01
       25  1    1    2    0    0 0.67351538E+02 -.61169629E+01 -.38762353E+03 0.41285669E+03 0.12500000E+03 0.0000E+00 0.9000E+01
      -24  1    1    2    0    0 -.49399651E+02 -.19185530E+02 -.29976693E+03 0.31485845E+03 0.80419002E+02 0.0000E+00 0.9000E+01
        2  1    1    2  501    0 -.17951887E+02 0.25302493E+02 -.64810131E+03 0.64884351E+03 0.32000000E+00 0.0000E+00 0.9000E+01
#aMCatNLO 1  0  0  1  5 0.13770713D+02 0.00000000D+00  -5  6  0 0.00000000D+00 0.00000000D+00 0.00000000D+00 0.00000000D+00 0.00000000D+00
  <mgrwgt>
 0.4397388356D-01   32    2    0
 0.166864783568101D+03 0.000000000000000D+00 0.000000000000000D+00 0.166864783568101D+03
 0.166864783568101D+03 0.000000000000000D+00 0.000000000000000D+00 -.166864783568101D+03
 0.151779938688714D+03 0.673515994240501D+02 -.611704883381761D+01 0.532775145529208D+02
 0.991367095803484D+02 -.493996113168258D+02 -.191855862469759D+02 0.235045296518390D+02
 0.828129188671394D+02 -.179519881072242D+02 0.253026350807935D+02 -.767820442047598D+02
 0.000000000000000D+00 -.000000000000000D+00 0.000000000000000D+00 0.000000000000000D+00
 0.181382668157865D+03 0.000000000000000D+00 0.000000000000000D+00 0.181382668157865D+03
 0.170304531740651D+03 0.000000000000000D+00 0.000000000000000D+00 -.170304531740651D+03
 0.154697028960717D+03 0.736650070864341D+02 -.641435447195174D+01 0.532775145529208D+02
 0.972221854412187D+02 -.453546295294033D+02 -.193760690980542D+02 0.235045296518390D+02
 0.820943429790137D+02 -.145549081292169D+02 0.251426626721256D+02 -.767820442047598D+02
 0.176736425175668D+02 -.137554694278139D+02 0.647760897880375D+00 0.110781364172138D+02
0.831627585901D-06 0.000000000000D+00 0.000000000000D+00 0.193025988703D-06 0.000000000000D+00  6 21 1 25 -24 2 21 2 0.31589901D-02 0.20861926D+00 0.18151655D+05 0.18151655D+05 0.18151655D+05 0.12384895D+01  1  2  2  1  6  1       21 0.754380318572D-02 0.100000000000D+01
-.106698300365D-06 0.438861934131D-07 -.167881649341D-08 0.193025988703D-06 0.000000000000D+00  6 21 1 25 -24 2 21 4 0.31589901D-02 0.20861926D+00 0.18151655D+05 0.18151655D+05 0.18151655D+05 0.12384895D+01  1  2  3  1  6  1       21 -.148458010192D-02 0.100000000000D+01
0.980347974131D-07 0.000000000000D+00 0.000000000000D+00 0.193025988703D-06 0.000000000000D+00  6 21 1 25 -24 2 21 4 0.31589901D-02 0.20861926D+00 0.18151655D+05 0.18151655D+05 0.18151655D+05 0.12384895D+01  1  2 15  1  6  1       21 0.136403774978D-02 0.100000000000D+01
0.373494487002D-05 0.000000000000D+00 0.000000000000D+00 0.191622252563D-06 0.000000000000D+00  6 21 1 25 -24 2 21 4 0.34645173D-02 0.20861926D+00 0.19936554D+05 0.19936554D+05 0.19936554D+05 0.12339780D+01  1  2 12  1  6  1       21 0.439559360254D-01 0.100000000000D+01
0.332173200934D-05 0.000000000000D+00 0.000000000000D+00 0.191622252563D-06 0.000000000000D+00  6 21 1 25 -24 2 21 4 0.35004595D-02 0.20861926D+00 0.19936554D+05 0.19936554D+05 0.19936554D+05 0.12339780D+01  1  2 12  1  6  1       21 0.384311168943D-01 0.100000000000D+01
-.568298635204D-05 0.000000000000D+00 0.000000000000D+00 0.193025988703D-06 0.000000000000D+00  6 21 1 25 -24 2 21 4 0.31589901D-02 0.20861926D+00 0.18151655D+05 0.18151655D+05 0.18151655D+05 0.12384895D+01  1  2  4  1  6  1       21 -.790720042294D-01 0.100000000000D+01
-.159719188038D-04 0.000000000000D+00 -.268793335118D-05 0.193025988703D-06 0.000000000000D+00  6 21 1 25 -24 2 21 4 0.35076957D-02 0.20861926D+00 0.18151655D+05 0.18151655D+05 0.18151655D+05 0.12384895D+01  1  2  5  1  6  1       21 -.186985500188D+00 0.100000000000D+01
0.158911588710D-04 0.000000000000D+00 0.262989795416D-05 0.193025988703D-06 0.000000000000D+00  6 21 1 25 -24 2 21 4 0.31589901D-02 0.20861926D+00 0.18151655D+05 0.18151655D+05 0.18151655D+05 0.12384895D+01  1  2  6  1  6  1       21 0.221106598471D+00 0.100000000000D+01
0.872449290009D-07 0.000000000000D+00 0.000000000000D+00 0.191622252563D-06 0.000000000000D+00  6 -1 1 25 -24 2 -1 4 0.34645173D-02 0.20861926D+00 0.19936554D+05 0.19936554D+05 0.19936554D+05 0.12339780D+01  1  2 12  4  6  1       21 0.546789666588D-04 0.100000000000D+01
0.874217565784D-07 0.000000000000D+00 0.000000000000D+00 0.191622252563D-06 0.000000000000D+00  6 -1 1 25 -24 2 -1 4 0.35004595D-02 0.20861926D+00 0.19936554D+05 0.19936554D+05 0.19936554D+05 0.12339780D+01  1  2 12  4  6  1       21 0.539683440816D-04 0.100000000000D+01
-.376567556369D-06 0.000000000000D+00 -.723405193021D-07 0.193025988703D-06 0.000000000000D+00  6 -1 1 25 -24 2 -1 4 0.35076957D-02 0.20861926D+00 0.18151655D+05 0.18151655D+05 0.18151655D+05 0.12384895D+01  1  2  5  4  6  1       21 -.234999531459D-03 0.100000000000D+01
0.872449290009D-07 0.000000000000D+00 0.000000000000D+00 0.191622252563D-06 0.000000000000D+00  6 1 1 25 -24 2 1 4 0.34645173D-02 0.20861926D+00 0.19936554D+05 0.19936554D+05 0.19936554D+05 0.12339780D+01  1  2 12  5  6  1       21 0.594975922873D-04 0.100000000000D+01
0.874217565784D-07 0.000000000000D+00 0.000000000000D+00 0.191622252563D-06 0.000000000000D+00  6 1 1 25 -24 2 1 4 0.35004595D-02 0.20861926D+00 0.19936554D+05 0.19936554D+05 0.19936554D+05 0.12339780D+01  1  2 12  5  6  1       21 0.587736004872D-04 0.100000000000D+01
-.376567556369D-06 0.000000000000D+00 -.723405193021D-07 0.193025988703D-06 0.000000000000D+00  6 1 1 25 -24 2 1 4 0.35076957D-02 0.20861926D+00 0.18151655D+05 0.18151655D+05 0.18151655D+05 0.12384895D+01  1  2  5  5  6  1       21 -.256000889366D-03 0.100000000000D+01
0.872449290009D-07 0.000000000000D+00 0.000000000000D+00 0.191622252563D-06 0.000000000000D+00  6 -2 1 25 -24 2 -2 4 0.34645173D-02 0.20861926D+00 0.19936554D+05 0.19936554D+05 0.19936554D+05 0.12339780D+01  1  2 12  6  6  1       21 0.538191006895D-04 0.100000000000D+01
0.874217565784D-07 0.000000000000D+00 0.000000000000D+00 0.191622252563D-06 0.000000000000D+00  6 -2 1 25 -24 2 -2 4 0.35004595D-02 0.20861926D+00 0.19936554D+05 0.19936554D+05 0.19936554D+05 0.12339780D+01  1  2 12  6  6  1       21 0.531111156237D-04 0.100000000000D+01
-.376567556369D-06 0.000000000000D+00 -.723405193021D-07 0.193025988703D-06 0.000000000000D+00  6 -2 1 25 -24 2 -2 4 0.35076957D-02 0.20861926D+00 0.18151655D+05 0.18151655D+05 0.18151655D+05 0.12384895D+01  1  2  5  6  6  1       21 -.231252216101D-03 0.100000000000D+01
0.872449290009D-07 0.000000000000D+00 0.000000000000D+00 0.191622252563D-06 0.000000000000D+00  6 2 1 25 -24 2 2 4 0.34645173D-02 0.20861926D+00 0.19936554D+05 0.19936554D+05 0.19936554D+05 0.12339780D+01  1  2 12  7  6  1       21 0.627599213410D-04 0.100000000000D+01
0.874217565784D-07 0.000000000000D+00 0.000000000000D+00 0.191622252563D-06 0.000000000000D+00  6 2 1 25 -24 2 2 4 0.35004595D-02 0.20861926D+00 0.19936554D+05 0.19936554D+05 0.19936554D+05 0.12339780D+01  1  2 12  7  6  1       21 0.620259816507D-04 0.100000000000D+01
-.376567556369D-06 0.000000000000D+00 -.723405193021D-07 0.193025988703D-06 0.000000000000D+00  6 2 1 25 -24 2 2 4 0.35076957D-02 0.20861926D+00 0.18151655D+05 0.18151655D+05 0.18151655D+05 0.12384895D+01  1  2  5  7  6  1       21 -.270210600339D-03 0.100000000000D+01
0.872449290009D-07 0.000000000000D+00 0.000000000000D+00 0.191622252563D-06 0.000000000000D+00  6 -3 1 25 -24 2 -3 4 0.34645173D-02 0.20861926D+00 0.19936554D+05 0.19936554D+05 0.19936554D+05 0.12339780D+01  1  2 12  8  6  1       21 0.403341702689D-04 0.100000000000D+01
0.872449290009D-07 0.000000000000D+00 0.000000000000D+00 0.191622252563D-06 0.000000000000D+00  6 -4 1 25 -24 2 -4 4 0.34645173D-02 0.20861926D+00 0.19936554D+05 0.19936554D+05 0.19936554D+05 0.12339780D+01  1  2 12  8  6  1       21 0.362650877827D-04 0.100000000000D+01
0.874217565784D-07 0.000000000000D+00 0.000000000000D+00 0.191622252563D-06 0.000000000000D+00  6 -3 1 25 -24 2 -3 4 0.35004595D-02 0.20861926D+00 0.19936554D+05 0.19936554D+05 0.19936554D+05 0.12339780D+01  1  2 12  8  6  1       21 0.397718901928D-04 0.100000000000D+01
0.874217565784D-07 0.000000000000D+00 0.000000000000D+00 0.191622252563D-06 0.000000000000D+00  6 -4 1 25 -24 2 -4 4 0.35004595D-02 0.20861926D+00 0.19936554D+05 0.19936554D+05 0.19936554D+05 0.12339780D+01  1  2 12  8  6  1       21 0.357512904887D-04 0.100000000000D+01
-.376567556369D-06 0.000000000000D+00 -.723405193021D-07 0.193025988703D-06 0.000000000000D+00  6 -3 1 25 -24 2 -3 4 0.35076957D-02 0.20861926D+00 0.18151655D+05 0.18151655D+05 0.18151655D+05 0.12384895D+01  1  2  5  8  6  1       21 -.172796517179D-03 0.100000000000D+01
-.376567556369D-06 0.000000000000D+00 -.723405193021D-07 0.193025988703D-06 0.000000000000D+00  6 -4 1 25 -24 2 -4 4 0.35076957D-02 0.20861926D+00 0.18151655D+05 0.18151655D+05 0.18151655D+05 0.12384895D+01  1  2  5  8  6  1       21 -.155177577170D-03 0.100000000000D+01
0.872449290009D-07 0.000000000000D+00 0.000000000000D+00 0.191622252563D-06 0.000000000000D+00  6 3 1 25 -24 2 3 4 0.34645173D-02 0.20861926D+00 0.19936554D+05 0.19936554D+05 0.19936554D+05 0.12339780D+01  1  2 12  9  6  1       21 0.403309134501D-04 0.100000000000D+01
0.872449290009D-07 0.000000000000D+00 0.000000000000D+00 0.191622252563D-06 0.000000000000D+00  6 4 1 25 -24 2 4 4 0.34645173D-02 0.20861926D+00 0.19936554D+05 0.19936554D+05 0.19936554D+05 0.12339780D+01  1  2 12  9  6  1       21 0.362650877827D-04 0.100000000000D+01
0.874217565784D-07 0.000000000000D+00 0.000000000000D+00 0.191622252563D-06 0.000000000000D+00  6 3 1 25 -24 2 3 4 0.35004595D-02 0.20861926D+00 0.19936554D+05 0.19936554D+05 0.19936554D+05 0.12339780D+01  1  2 12  9  6  1       21 0.397686592524D-04 0.100000000000D+01
0.874217565784D-07 0.000000000000D+00 0.000000000000D+00 0.191622252563D-06 0.000000000000D+00  6 4 1 25 -24 2 4 4 0.35004595D-02 0.20861926D+00 0.19936554D+05 0.19936554D+05 0.19936554D+05 0.12339780D+01  1  2 12  9  6  1       21 0.357512904887D-04 0.100000000000D+01
-.376567556369D-06 0.000000000000D+00 -.723405193021D-07 0.193025988703D-06 0.000000000000D+00  6 3 1 25 -24 2 3 4 0.35076957D-02 0.20861926D+00 0.18151655D+05 0.18151655D+05 0.18151655D+05 0.12384895D+01  1  2  5  9  6  1       21 -.172782353738D-03 0.100000000000D+01
-.376567556369D-06 0.000000000000D+00 -.723405193021D-07 0.193025988703D-06 0.000000000000D+00  6 4 1 25 -24 2 4 4 0.35076957D-02 0.20861926D+00 0.18151655D+05 0.18151655D+05 0.18151655D+05 0.12384895D+01  1  2  5  9  6  1       21 -.155177577170D-03 0.100000000000D+01
  </mgrwgt>
  </event>
  <event>
  5     66 0.42050411E-03 0.31776957E+02 0.75467711E-02 0.10784650E+00
       21 -1    0    0  501  502 0.00000000E+00 0.00000000E+00 0.14982785E+03 0.14982972E+03 0.75000000E+00 0.0000E+00 0.9000E+01
        1 -1    0    0  502    0 0.00000000E+00 0.00000000E+00 -.68047161E+03 0.68047169E+03 0.32000000E+00 0.0000E+00 0.9000E+01
       25  1    1    2    0    0 0.68971350E+02 -.22891227E+03 -.19618997E+03 0.33357664E+03 0.12500000E+03 0.0000E+00 0.9000E+01
      -24  1    1    2    0    0 -.63204802E+02 0.26016136E+03 -.36011273E+03 0.45588065E+03 0.80419002E+02 0.0000E+00 0.9000E+01
        2  1    1    2  501    0 -.57665480E+01 -.31249086E+02 0.25658931E+02 0.40844114E+02 0.32000000E+00 0.0000E+00 0.9000E+01
#aMCatNLO 1  0  0  1  5 0.47140080D+02 0.00000000D+00  -5  6  0 0.00000000D+00 0.00000000D+00 0.00000000D+00 0.00000000D+00 0.00000000D+00
  <mgrwgt>
 0.1168737331D+00    4    2    0
 0.319303002157122D+03 0.000000000000000D+00 0.000000000000000D+00 0.319303002157122D+03
 0.319303002157122D+03 0.000000000000000D+00 0.000000000000000D+00 -.319303002157122D+03
 0.270686617088379D+03 0.689713729980391D+02 -.228912146251255D+03 0.221003094132284D+02
 0.293493801608617D+03 -.632047779279422D+02 0.260161487850773D+03 -.894010733417629D+02
 0.744255856172472D+02 -.576659507009696D+01 -.312493415995182D+02 0.673007639285346D+02
 0.000000000000000D+00 0.000000000000000D+00 -.000000000000000D+00 -.000000000000000D+00
 0.343633903099570D+03 0.000000000000000D+00 0.000000000000000D+00 0.343633903099570D+03
 0.343850186966632D+03 0.000000000000000D+00 0.000000000000000D+00 -.343850186966632D+03
 0.253842843191344D+03 0.650355621221953D+02 -.209983668466752D+03 0.221003094132284D+02
 0.314044364355419D+03 -.677634452710812D+02 0.282085466480219D+03 -.894010733417629D+02
 0.724563064223103D+02 -.686872448689945D+01 -.259488754847384D+02 0.673007639285346D+02
 0.471405760971281D+02 0.959660763578533D+01 -.461529225287279D+02 -.216283867061836D+00
0.120215921264D-03 0.000000000000D+00 0.000000000000D+00 0.502740967594D-06 0.000000000000D+00  6 21 1 25 -24 2 21 2 0.23050588D-01 0.10468809D+00 0.84421057D+05 0.84421057D+05 0.84421057D+05 0.11703891D+01  1  2  2  1  6  1       21 0.926547522603D-01 0.100000000000D+01
0.209799748833D-04 0.634396845580D-05 -.242681309290D-06 0.502740967594D-06 0.000000000000D+00  6 21 1 25 -24 2 21 4 0.23050588D-01 0.10468809D+00 0.84421057D+05 0.84421057D+05 0.84421057D+05 0.11703891D+01  1  2  3  1  6  1       21 0.221498728302D-01 0.100000000000D+01
0.138096085119D-04 0.000000000000D+00 0.000000000000D+00 0.502740967594D-06 0.000000000000D+00  6 21 1 25 -24 2 21 4 0.23050588D-01 0.10468809D+00 0.84421057D+05 0.84421057D+05 0.84421057D+05 0.11703891D+01  1  2 15  1  6  1       21 0.145796681872D-01 0.100000000000D+01
-.118497853853D-04 0.000000000000D+00 0.000000000000D+00 0.502740967594D-06 0.000000000000D+00  6 21 1 25 -24 2 21 4 0.23050588D-01 0.10468809D+00 0.84421057D+05 0.84421057D+05 0.84421057D+05 0.11703891D+01  1  2  4  1  6  1       21 -.125105602275D-01 0.100000000000D+01
  </mgrwgt>
  </event>
  <event>
  5     66 0.42050411E-03 0.27391442E+02 0.75467711E-02 0.11483248E+00
       21 -1    0    0  501  502 0.00000000E+00 0.00000000E+00 0.48323128E+02 0.48328948E+02 0.75000000E+00 0.0000E+00 0.9000E+01
        1 -1    0    0  502    0 0.00000000E+00 0.00000000E+00 -.11148137E+04 0.11148137E+04 0.32000000E+00 0.0000E+00 0.9000E+01
       25  1    1    2    0    0 0.10503741E+03 -.78138472E+02 -.67643350E+03 0.70023264E+03 0.12500000E+03 0.0000E+00 0.9000E+01
      -24  1    1    2    0    0 -.13242857E+03 0.78051941E+02 -.39818522E+03 0.43433641E+03 0.80419002E+02 0.0000E+00 0.9000E+01
        2  1    1    2  501    0 0.27391167E+02 0.86531289E-01 0.81281490E+01 0.28573637E+02 0.32000000E+00 0.0000E+00 0.9000E+01
#aMCatNLO 1  0  0  1  2 0.23991243D+02 0.00000000D+00  -5  6  0 0.00000000D+00 0.00000000D+00 0.00000000D+00 0.00000000D+00 0.00000000D+00
  <mgrwgt>
 0.1765725118D+00   23    2    0
 0.232109233969843D+03 0.000000000000000D+00 0.000000000000000D+00 0.232109233969843D+03
 0.232109233969843D+03 0.000000000000000D+00 0.000000000000000D+00 -.232109233969843D+03
 0.200467172076713D+03 0.105037332511588D+03 -.781384726247235D+02 -.861604605092140D+02
 0.173483970109101D+03 -.132428637862289D+03 0.780519408976842D+02 0.149420507360915D+00
 0.902673257538711D+02 0.273913053507007D+02 0.865317270393164D-01 0.860110400018530D+02
 0.000000000000000D+00 0.000000000000000D+00 0.000000000000000D+00 0.000000000000000D+00
 0.319334543133249D+03 0.000000000000000D+00 0.000000000000000D+00 0.319334543133249D+03
 0.234074571644597D+03 0.000000000000000D+00 0.000000000000000D+00 -.234074571644597D+03
 0.197910973095040D+03 0.960125764201356D+02 -.830765519592229D+02 -.861604605092140D+02
 0.177783238554661D+03 -.140386154908685D+03 0.736978231705635D+02 0.149420507360915D+00
 0.891437877784008D+02 0.233269721051442D+02 -.213735109095832D+01 0.860110400018530D+02
 0.885711153497432D+02 0.210466063834056D+02 0.115160798796177D+02 0.852599714886521D+02
0.270100301531D-05 0.000000000000D+00 0.000000000000D+00 0.136490012701D-05 0.000000000000D+00  6 21 1 25 -24 2 21 2 0.74347786D-02 0.17151025D+00 0.36458494D+05 0.36458494D+05 0.36458494D+05 0.12061104D+01  1  2  2  1  6  1       21 0.794869681336D-02 0.100000000000D+01
0.487556601597D-06 0.142535845069D-06 -.545254689445D-08 0.136490012701D-05 0.000000000000D+00  6 21 1 25 -24 2 21 4 0.74347786D-02 0.17151025D+00 0.36458494D+05 0.36458494D+05 0.36458494D+05 0.12061104D+01  1  2  3  1  6  1       21 0.208722856935D-02 0.100000000000D+01
0.263987516425D-06 0.000000000000D+00 0.000000000000D+00 0.136490012701D-05 0.000000000000D+00  6 21 1 25 -24 2 21 4 0.74347786D-02 0.17151025D+00 0.36458494D+05 0.36458494D+05 0.36458494D+05 0.12061104D+01  1  2 15  1  6  1       21 0.113012988529D-02 0.100000000000D+01
0.359359722576D-04 0.000000000000D+00 0.000000000000D+00 0.135394608885D-05 0.000000000000D+00  6 21 1 25 -24 2 21 4 0.10251443D-01 0.17151025D+00 0.40676987D+05 0.40676987D+05 0.40676987D+05 0.12012608D+01  1  2 12  1  6  1       21 0.859975833099D-01 0.100000000000D+01
-.358680398597D-05 0.000000000000D+00 0.000000000000D+00 0.136490012701D-05 0.000000000000D+00  6 21 1 25 -24 2 21 4 0.74347786D-02 0.17151025D+00 0.36458494D+05 0.36458494D+05 0.36458494D+05 0.12061104D+01  1  2  4  1  6  1       21 -.153550987263D-01 0.100000000000D+01
-.737293938303D-04 0.000000000000D+00 -.372925429449D-05 0.136490012701D-05 0.000000000000D+00  6 21 1 25 -24 2 21 4 0.10293525D-01 0.17151025D+00 0.36458494D+05 0.36458494D+05 0.36458494D+05 0.12061104D+01  1  2  5  1  6  1       21 -.178574691070D+00 0.100000000000D+01
0.645998731538D-04 0.000000000000D+00 0.304434429963D-05 0.136490012701D-05 0.000000000000D+00  6 21 1 25 -24 2 21 4 0.74347786D-02 0.17151025D+00 0.36458494D+05 0.36458494D+05 0.36458494D+05 0.12061104D+01  1  2  6  1  6  1       21 0.276551892399D+00 0.100000000000D+01
0.333887166953D-05 0.000000000000D+00 0.000000000000D+00 0.135394608885D-05 0.000000000000D+00  6 -1 1 25 -24 2 -1 4 0.10251443D-01 0.17151025D+00 0.40676987D+05 0.40676987D+05 0.40676987D+05 0.12012608D+01  1  2 12  4  6  1       21 0.540464727776D-03 0.100000000000D+01
-.605508692701D-05 0.000000000000D+00 -.387929678171D-06 0.136490012701D-05 0.000000000000D+00  6 -1 1 25 -24 2 -1 4 0.10293525D-01 0.17151025D+00 0.36458494D+05 0.36458494D+05 0.36458494D+05 0.12061104D+01  1  2  5  4  6  1       21 -.990584018645D-03 0.100000000000D+01
0.333887166953D-05 0.000000000000D+00 0.000000000000D+00 0.135394608885D-05 0.000000000000D+00  6 1 1 25 -24 2 1 4 0.10251443D-01 0.17151025D+00 0.40676987D+05 0.40676987D+05 0.40676987D+05 0.12012608D+01  1  2 12  5  6  1       21 0.680048497145D-03 0.100000000000D+01
-.605508692701D-05 0.000000000000D+00 -.387929678171D-06 0.136490012701D-05 0.000000000000D+00  6 1 1 25 -24 2 1 4 0.10293525D-01 0.17151025D+00 0.36458494D+05 0.36458494D+05 0.36458494D+05 0.12061104D+01  1  2  5  5  6  1       21 -.124764264023D-02 0.100000000000D+01
0.333887166953D-05 0.000000000000D+00 0.000000000000D+00 0.135394608885D-05 0.000000000000D+00  6 -2 1 25 -24 2 -2 4 0.10251443D-01 0.17151025D+00 0.40676987D+05 0.40676987D+05 0.40676987D+05 0.12012608D+01  1  2 12  6  6  1       21 0.516296300085D-03 0.100000000000D+01
-.605508692701D-05 0.000000000000D+00 -.387929678171D-06 0.136490012701D-05 0.000000000000D+00  6 -2 1 25 -24 2 -2 4 0.10293525D-01 0.17151025D+00 0.36458494D+05 0.36458494D+05 0.36458494D+05 0.12061104D+01  1  2  5  6  6  1       21 -.946057079696D-03 0.100000000000D+01
0.333887166953D-05 0.000000000000D+00 0.000000000000D+00 0.135394608885D-05 0.000000000000D+00  6 2 1 25 -24 2 2 4 0.10251443D-01 0.17151025D+00 0.40676987D+05 0.40676987D+05 0.40676987D+05 0.12012608D+01  1  2 12  7  6  1       21 0.774952013337D-03 0.100000000000D+01
-.605508692701D-05 0.000000000000D+00 -.387929678171D-06 0.136490012701D-05 0.000000000000D+00  6 2 1 25 -24 2 2 4 0.10293525D-01 0.17151025D+00 0.36458494D+05 0.36458494D+05 0.36458494D+05 0.12061104D+01  1  2  5  7  6  1       21 -.142232010538D-02 0.100000000000D+01
0.333887166953D-05 0.000000000000D+00 0.000000000000D+00 0.135394608885D-05 0.000000000000D+00  6 -3 1 25 -24 2 -3 4 0.10251443D-01 0.17151025D+00 0.40676987D+05 0.40676987D+05 0.40676987D+05 0.12012608D+01  1  2 12  8  6  1       21 0.359987027577D-03 0.100000000000D+01
0.333887166953D-05 0.000000000000D+00 0.000000000000D+00 0.135394608885D-05 0.000000000000D+00  6 -4 1 25 -24 2 -4 4 0.10251443D-01 0.17151025D+00 0.40676987D+05 0.40676987D+05 0.40676987D+05 0.12012608D+01  1  2 12  8  6  1       21 0.316375793827D-03 0.100000000000D+01
-.605508692701D-05 0.000000000000D+00 -.387929678171D-06 0.136490012701D-05 0.000000000000D+00  6 -3 1 25 -24 2 -3 4 0.10293525D-01 0.17151025D+00 0.36458494D+05 0.36458494D+05 0.36458494D+05 0.12061104D+01  1  2  5  8  6  1       21 -.657966665552D-03 0.100000000000D+01
-.605508692701D-05 0.000000000000D+00 -.387929678171D-06 0.136490012701D-05 0.000000000000D+00  6 -4 1 25 -24 2 -4 4 0.10293525D-01 0.17151025D+00 0.36458494D+05 0.36458494D+05 0.36458494D+05 0.12061104D+01  1  2  5  8  6  1       21 -.577607793081D-03 0.100000000000D+01
0.333887166953D-05 0.000000000000D+00 0.000000000000D+00 0.135394608885D-05 0.000000000000D+00  6 3 1 25 -24 2 3 4 0.10251443D-01 0.17151025D+00 0.40676987D+05 0.40676987D+05 0.40676987D+05 0.12012608D+01  1  2 12  9  6  1       21 0.359944280629D-03 0.100000000000D+01
0.333887166953D-05 0.000000000000D+00 0.000000000000D+00 0.135394608885D-05 0.000000000000D+00  6 4 1 25 -24 2 4 4 0.10251443D-01 0.17151025D+00 0.40676987D+05 0.40676987D+05 0.40676987D+05 0.12012608D+01  1  2 12  9  6  1       21 0.316375793827D-03 0.100000000000D+01
-.605508692701D-05 0.000000000000D+00 -.387929678171D-06 0.136490012701D-05 0.000000000000D+00  6 3 1 25 -24 2 3 4 0.10293525D-01 0.17151025D+00 0.36458494D+05 0.36458494D+05 0.36458494D+05 0.12061104D+01  1  2  5  9  6  1       21 -.657887705198D-03 0.100000000000D+01
-.605508692701D-05 0.000000000000D+00 -.387929678171D-06 0.136490012701D-05 0.000000000000D+00  6 4 1 25 -24 2 4 4 0.10293525D-01 0.17151025D+00 0.36458494D+05 0.36458494D+05 0.36458494D+05 0.12061104D+01  1  2  5  9  6  1       21 -.577607793081D-03 0.100000000000D+01
  </mgrwgt>
  </event>
  <event>
  6     66 -.42050411E-03 0.16186940E+03 0.75467711E-02 0.10981272E+00
       21 -1    0    0  503  502 0.00000000E+00 0.00000000E+00 0.10904829E+04 0.10904831E+04 0.75000000E+00 0.0000E+00 0.9000E+01
        3 -1    0    0  502    0 0.00000000E+00 0.00000000E+00 -.23673646E+03 0.23673698E+03 0.50000000E+00 0.0000E+00 0.9000E+01
       25  1    1    2    0    0 -.14359407E+01 0.21782504E+02 -.38349006E+02 0.13256012E+03 0.12500000E+03 0.0000E+00 0.9000E+01
      -24  1    1    2    0    0 0.45809302E+02 0.18332205E+03 -.56242549E+02 0.21292230E+03 0.80419002E+02 0.0000E+00 0.9000E+01
        4  1    1    2  501    0 -.15631098E+02 -.18020572E+03 0.90973818E+03 0.92754751E+03 0.15500000E+01 0.0000E+00 0.9000E+01
       21  1    1    2  503  501 -.28742263E+02 -.24898832E+02 0.38599791E+02 0.54190182E+02 0.75000000E+00 0.0000E+00 0.9000E+01
#aMCatNLO 2  0  0  1  2 0.38027221D+02 0.00000000D+00  -5  6  0 0.00000000D+00 0.00000000D+00 0.00000000D+00 0.00000000D+00 0.00000000D+00
  <mgrwgt>
 -.4250306357D-02    3    2    0
 0.488542504349417D+03 0.000000000000000D+00 0.000000000000000D+00 0.488542504349417D+03
 0.488542504349417D+03 0.000000000000000D+00 0.000000000000000D+00 -.488542504349417D+03
 0.204191422287658D+03 -.744544796247619D+01 0.165767934935047D+02 -.160433513200853D+03
 0.318316227006157D+03 0.363643367398150D+02 0.175140382221920D+03 -.250721929534889D+03
 0.454577359405018D+03 -.289188887773388D+02 -.191717175715425D+03 0.411155442735742D+03
 0.000000000000000D+00 -.000000000000000D+00 -.000000000000000D+00 0.000000000000000D+00
 0.510633927795592D+03 0.000000000000000D+00 0.000000000000000D+00 0.510633927795592D+03
 0.505555605558150D+03 0.000000000000000D+00 0.000000000000000D+00 -.505555605558150D+03
 0.204549412167786D+03 -.143589342800154D+01 0.217827470784116D+02 -.160433513200853D+03
 0.324089978971927D+03 0.458093806470468D+02 0.183322429644301D+03 -.250721929534889D+03
 0.449185329218409D+03 -.156312240625035D+02 -.180206344860924D+03 0.411155442735742D+03
 0.383648129956193D+02 -.287422631565418D+02 -.248988318617890D+02 0.507832223744220D+01
-.377500466922D-03 0.000000000000D+00 0.000000000000D+00 0.924356992412D-06 0.000000000000D+00  6 21 3 25 -24 4 21 4 0.17044906D+00 0.35195148D-01 0.75944984D+05 0.75944984D+05 0.75944984D+05 0.11747116D+01  1  2 13  1  6  1       21 -.574451338418D-02 0.100000000000D+01
-.137084241142D-04 0.000000000000D+00 0.000000000000D+00 0.932880718902D-06 0.000000000000D+00  6 21 3 25 -24 4 21 4 0.16050745D+00 0.35195148D-01 0.66647029D+05 0.66647029D+05 0.66647029D+05 0.11801153D+01  1  2  8  1  6  1       21 -.252583304099D-03 0.100000000000D+01
0.117290927720D-03 0.000000000000D+00 0.000000000000D+00 0.932880718902D-06 0.489793103316D-08  6 21 3 25 -24 4 21 4 0.16776544D+00 0.36420791D-01 0.75944984D+05 0.75944984D+05 0.75944984D+05 0.11747116D+01  1  2  1  1  6  1       21 0.174679033142D-02 0.100000000000D+01
  </mgrwgt>
  </event>
  <event>
  5     66 -.42050411E-03 0.22003958E+02 0.75467711E-02 0.11671285E+00
       21 -1    0    0  501  502 0.00000000E+00 0.00000000E+00 0.32708568E+03 0.32708654E+03 0.75000000E+00 0.0000E+00 0.9000E+01
        3 -1    0    0  502    0 0.00000000E+00 0.00000000E+00 -.11129992E+03 0.11130104E+03 0.50000000E+00 0.0000E+00 0.9000E+01
       25  1    1    2    0    0 -.11111142E+03 0.61547970E+02 0.88812339E+02 0.19911437E+03 0.12500000E+03 0.0000E+00 0.9000E+01
      -24  1    1    2    0    0 0.11246658E+03 -.83495307E+02 0.66076559E+02 0.17450939E+03 0.80419002E+02 0.0000E+00 0.9000E+01
        4  1    1    2  501    0 -.13551592E+01 0.21947337E+02 0.60896867E+02 0.64763824E+02 0.15500000E+01 0.0000E+00 0.9000E+01
#aMCatNLO 1  0  0  5  1 0.35510269D+01 0.00000000D+00  -5  6  0 0.00000000D+00 0.00000000D+00 0.00000000D+00 0.00000000D+00 0.00000000D+00
  <mgrwgt>
 -.2765321076D+00    8    2    0
 0.190801059314433D+03 0.000000000000000D+00 0.000000000000000D+00 0.190801059314433D+03
 0.190801059314433D+03 -.000000000000000D+00 -.000000000000000D+00 -.190801059314433D+03
 0.178520928489649D+03 -.111110947528630D+03 0.615402390249011D+02 -.105772505337735D+02
 0.163118680968735D+03 0.112467020189417D+03 -.835023706554153D+02 -.227818258980379D+02
 0.399625091704812D+02 -.135607266078636D+01 0.219621316305142D+02 0.333590764318114D+02
 0.000000000000000D+00 0.000000000000000D+00 0.000000000000000D+00 0.000000000000000D+00
 0.190801059314433D+03 0.000000000000000D+00 0.000000000000000D+00 0.190801059314433D+03
 0.190801059314433D+03 -.000000000000000D+00 -.000000000000000D+00 -.190801059314433D+03
 0.178570292223982D+03 -.111121291335663D+03 0.617077610598041D+02 -.103227952531861D+02
 0.163001588476475D+03 0.112457573513215D+03 -.833493780081826D+02 -.225494398301276D+02
 0.169511636888468D+02 -.439936403354974D+00 0.120756018606922D+02 0.118881557051180D+02
 0.230790742395612D+02 -.896345774197003D+00 0.956601508768625D+01 0.209840793781957D+02
0.592595682294D-05 0.000000000000D+00 0.000000000000D+00 0.116415444238D-05 0.000000000000D+00  6 21 3 25 -24 4 21 2 0.50321027D-01 0.17123217D-01 0.32712367D+05 0.32712367D+05 0.32712367D+05 0.12109728D+01  1  2  2  3  6  5        4 0.474295620747D-02 0.100000000000D+01
0.838606310253D-06 0.312721333080D-06 -.119627994817D-07 0.116415444238D-05 0.000000000000D+00  6 21 3 25 -24 4 21 4 0.50321027D-01 0.17123217D-01 0.32712367D+05 0.32712367D+05 0.32712367D+05 0.12109728D+01  1  2  3  3  6  5        4 0.984277452790D-03 0.100000000000D+01
0.615541643046D-06 0.000000000000D+00 0.000000000000D+00 0.116415444238D-05 0.000000000000D+00  6 21 3 25 -24 4 21 4 0.50321027D-01 0.17123217D-01 0.32712367D+05 0.32712367D+05 0.32712367D+05 0.12109728D+01  1  2 15  3  6  5        4 0.722465062683D-03 0.100000000000D+01
0.820532208921D-06 0.000000000000D+00 0.000000000000D+00 0.116431461301D-05 0.000000000000D+00  6 21 3 25 -24 4 21 4 0.50321027D-01 0.17123217D-01 0.32652043D+05 0.32652043D+05 0.32652043D+05 0.12110561D+01  1  2 12  3  6  5        4 0.963311285526D-03 0.100000000000D+01
-.325590574042D-03 0.000000000000D+00 0.000000000000D+00 0.116415444238D-05 0.000000000000D+00  6 21 3 25 -24 4 21 4 0.50321027D-01 0.17123217D-01 0.32712367D+05 0.32712367D+05 0.32712367D+05 0.12109728D+01  1  2  4  3  6  5        4 -.382147685931D+00 0.100000000000D+01
-.171817190182D-04 0.000000000000D+00 0.000000000000D+00 0.116415444238D-05 0.000000000000D+00  6 21 3 25 -24 4 21 4 0.50321027D-01 0.17123217D-01 0.32712367D+05 0.32712367D+05 0.32712367D+05 0.12109728D+01  1  2  5  3  6  5        4 -.201662906933D-01 0.100000000000D+01
0.438118410037D-04 0.000000000000D+00 -.000000000000D+00 0.116415444238D-05 0.000000000000D+00  6 21 3 25 -24 4 21 4 0.50321027D-01 0.17123217D-01 0.32712367D+05 0.32712367D+05 0.32712367D+05 0.12109728D+01  1  2  6  3  6  5        4 0.514222308346D-01 0.100000000000D+01
0.570240020135D-04 0.000000000000D+00 0.000000000000D+00 0.116415444238D-05 0.637113926177D-06  6 21 3 25 -24 4 21 4 0.50321027D-01 0.17123217D-01 0.32652043D+05 0.32652043D+05 0.32652043D+05 0.12110561D+01  1  2 11  3  6  5        4 0.669466281618D-01 0.100000000000D+01
  </mgrwgt>
  </event>
  <event>
  6     66 0.42050411E-03 0.29269403E+03 0.75467711E-02 0.10535171E+00
       21 -1    0    0  501  502 0.00000000E+00 0.00000000E+00 0.75427583E+03 0.75427620E+03 0.75000000E+00 0.0000E+00 0.9000E+01
        1 -1    0    0  502    0 0.00000000E+00 0.00000000E+00 -.33403902E+03 0.33403918E+03 0.32000000E+00 0.0000E+00 0.9000E+01
       25  1    1    2    0    0 -.30791938E+03 0.67117331E+02 -.45056211E+02 0.34201483E+03 0.12500000E+03 0.0000E+00 0.9000E+01
      -24  1    1    2    0    0 -.75927369E+01 -.21199572E+02 -.74701104E+02 0.11204705E+03 0.80419002E+02 0.0000E+00 0.9000E+01
        2  1    1    2  503    0 0.29773037E+03 -.56352148E+02 0.53176898E+03 0.61204354E+03 0.32000000E+00 0.0000E+00 0.9000E+01
       21  1    1    2  501  503 0.17781749E+02 0.10434389E+02 0.82251394E+01 0.22209964E+02 0.75000000E+00 0.0000E+00 0.9000E+01
#aMCatNLO 2  0  0  5  2 0.17406207D+02 0.00000000D+00  -5  6  0 0.00000000D+00 0.00000000D+00 0.00000000D+00 0.00000000D+00 0.00000000D+00
  <mgrwgt>
 0.7850879950D-02    2    2    0
 0.501954030895132D+03 0.000000000000000D+00 0.000000000000000D+00 0.501954030895132D+03
 0.501954030895132D+03 -.000000000000000D+00 -.000000000000000D+00 -.501954030895132D+03
 0.393192740543660D+03 -.310625214506703D+03 0.675111221018141D+02 -.194755630782405D+03
 0.153672794648400D+03 -.865184584145743D+01 -.210454357327271D+02 -.128958702920873D+03
 0.457042526598205D+03 0.319277060348160D+03 -.464656863690870D+02 0.323714333703278D+03
 0.000000000000000D+00 0.000000000000000D+00 0.000000000000000D+00 0.000000000000000D+00
 0.501954030895132D+03 0.000000000000000D+00 0.000000000000000D+00 0.501954030895132D+03
 0.501954030895132D+03 -.000000000000000D+00 -.000000000000000D+00 -.501954030895132D+03
 0.389627658341878D+03 -.307916403585932D+03 0.671168978548844D+02 -.192009173140289D+03
 0.152736752323655D+03 -.759157003841510D+01 -.211997419734422D+02 -.127883691534997D+03
 0.440909312072014D+03 0.297720190815624D+03 -.563676163461954D+02 0.320291119577132D+03
 0.206343390527179D+02 0.177877828087231D+02 0.104504604647532D+02 -.398254901846422D+00
-.201709997502D-03 0.000000000000D+00 0.000000000000D+00 0.195605485321D-06 0.000000000000D+00  6 21 1 25 -24 2 21 4 0.11604248D+00 0.51390660D-01 0.13979663D+06 0.13979663D+06 0.13979663D+06 0.11504380D+01  1  2  8  3  6  5        2 -.156323753943D-01 0.100000000000D+01
0.302759412399D-03 0.000000000000D+00 0.000000000000D+00 0.195605485321D-06 0.404573681712D-08  6 21 1 25 -24 2 21 4 0.11604248D+00 0.51390660D-01 0.13919733D+06 0.13919733D+06 0.13919733D+06 0.11506036D+01  1  2  1  3  6  5        2 0.234832553440D-01 0.100000000000D+01
  </mgrwgt>
  </event>
  <event>
  6     66 0.42050411E-03 0.46461799E+02 0.75467711E-02 0.11311123E+00
       21 -1    0    0  501  502 0.00000000E+00 0.00000000E+00 0.51761212E+02 0.51766646E+02 0.75000000E+00 0.0000E+00 0.9000E+01
        1 -1    0    0  502    0 -.00000000E+00 -.00000000E+00 -.26516463E+04 0.26516464E+04 0.32000000E+00 0.0000E+00 0.9000E+01
       25  1    1    2    0    0 -.13241823E+03 0.81050821E+02 -.96116640E+03 0.98161585E+03 0.12500000E+03 0.0000E+00 0.9000E+01
      -24  1    1    2    0    0 0.77946904E+02 -.80013987E+02 -.15931075E+04 0.15990425E+04 0.80419002E+02 0.0000E+00 0.9000E+01
        2  1    1    2  503    0 0.51905389E+02 -.43619524E+02 -.12959984E+02 0.69028225E+02 0.32000000E+00 0.0000E+00 0.9000E+01
       21  1    1    2  501  503 0.25659327E+01 0.42582690E+02 -.32651201E+02 0.53726464E+02 0.75000000E+00 0.0000E+00 0.9000E+01
#aMCatNLO 2  0  0  5  1 0.44429224D+02 0.00000000D+00  -5  6  0 0.00000000D+00 0.00000000D+00 0.00000000D+00 0.00000000D+00 0.00000000D+00
  <mgrwgt>
 0.1392421841D-01    1    2    0
 0.370485896538332D+03 0.000000000000000D+00 0.000000000000000D+00 0.370485896538332D+03
 0.370485896538332D+03 -.000000000000000D+00 -.000000000000000D+00 -.370485896538332D+03
 0.211132940233248D+03 -.133458768718475D+03 0.810706276403308D+02 -.675901534077812D+02
 0.248771857235688D+03 0.767255758848183D+02 -.799907400532479D+02 -.207689403940114D+03
 0.281066995607728D+03 0.567331928336572D+02 -.107988758708289D+01 0.275279557347895D+03
 0.000000000000000D+00 0.000000000000000D+00 0.000000000000000D+00 0.000000000000000D+00
 0.370485896538332D+03 0.000000000000000D+00 0.000000000000000D+00 0.370485896538332D+03
 0.370485896538332D+03 -.000000000000000D+00 -.000000000000000D+00 -.370485896538332D+03
 0.208899501541461D+03 -.132416821079266D+03 0.810507946948226D+02 -.625344378632301D+02
 0.244234825714117D+03 0.779485460612251D+02 -.800140186710536D+02 -.201755334800060D+03
 0.206195690052354D+03 0.518830101426480D+02 -.436856104222337D+02 0.194721296464309D+03
 0.816417757687310D+02 0.258526487539326D+01 0.426488343984647D+02 0.695684761989807D+02
0.400022985542D-04 0.000000000000D+00 0.000000000000D+00 0.183981989668D-05 0.482347864281D-08  6 21 1 25 -24 2 21 4 0.79636829D-02 0.40794601D+00 0.50067386D+05 0.50067386D+05 0.50067386D+05 0.11922238D+01  1  2  1  3  6  5        2 0.139242184085D-01 0.100000000000D+01
  </mgrwgt>
  </event>
  <event>
  5     66 -.42050411E-03 0.59572317E+02 0.75467711E-02 0.11359971E+00
       21 -1    0    0  501  502 0.00000000E+00 0.00000000E+00 0.37335883E+02 0.37343416E+02 0.75000000E+00 0.0000E+00 0.9000E+01
        1 -1    0    0  502    0 0.00000000E+00 0.00000000E+00 -.79439910E+03 0.79439917E+03 0.32000000E+00 0.0000E+00 0.9000E+01
       25  1    1    2    0    0 -.33129705E+02 0.46149708E+02 -.24252613E+03 0.27869571E+03 0.12500000E+03 0.0000E+00 0.9000E+01
      -24  1    1    2    0    0 0.71748809E+02 -.91507738E+02 -.32643282E+03 0.35573468E+03 0.80419002E+02 0.0000E+00 0.9000E+01
        2  1    1    2  501    0 -.38619104E+02 0.45358031E+02 -.18810426E+03 0.19731219E+03 0.32000000E+00 0.0000E+00 0.9000E+01
#aMCatNLO 1  0  0  1  2 0.86453835D+02 0.00000000D+00  -5  6  0 0.00000000D+00 0.00000000D+00 0.00000000D+00 0.00000000D+00 0.00000000D+00
  <mgrwgt>
 -.3190402488D-01   12    2    0
 0.172228776669737D+03 0.000000000000000D+00 0.000000000000000D+00 0.172228776669737D+03
 0.172228776669737D+03 0.000000000000000D+00 0.000000000000000D+00 -.172228776669737D+03
 0.139916911992376D+03 -.331295028091639D+02 0.461494701790997D+02 0.269147674574430D+02
 0.141525374553714D+03 0.717490139492160D+02 -.915079787253112D+02 -.637059770522096D+01
 0.630152667933848D+02 -.386195111400521D+02 0.453585085462115D+02 -.205441697522221D+02
 0.000000000000000D+00 -.000000000000000D+00 0.000000000000000D+00 0.000000000000000D+00
 0.383239504249911D+03 0.000000000000000D+00 0.000000000000000D+00 0.383239504249911D+03
 0.186655913067889D+03 0.000000000000000D+00 0.000000000000000D+00 -.186655913067889D+03
 0.131452675236842D+03 -.358102688108514D+01 0.302915395137236D+02 0.269147674574430D+02
 0.172642905117493D+03 0.105957688340534D+03 -.109866921771049D+03 -.637059770522096D+01
 0.510456193376588D+02 -.261998240904062D+02 0.386931720124988D+02 -.205441697522221D+02
 0.214754217625806D+03 -.761768373690423D+02 0.408822102448262D+02 0.196583591182021D+03
0.153286787267D-05 0.000000000000D+00 0.000000000000D+00 0.177403579710D-06 0.000000000000D+00  6 21 1 25 -24 2 21 2 0.57445664D-02 0.12221583D+00 0.28604627D+05 0.28604627D+05 0.28604627D+05 0.12170754D+01  1  2  2  1  6  1       21 0.125663846827D-01 0.100000000000D+01
-.100819739724D-06 0.808916600134D-07 -.309441859610D-08 0.177403579710D-06 0.000000000000D+00  6 21 1 25 -24 2 21 4 0.57445664D-02 0.12221583D+00 0.28604627D+05 0.28604627D+05 0.28604627D+05 0.12170754D+01  1  2  3  1  6  1       21 -.122429520558D-02 0.100000000000D+01
0.177594249956D-06 0.000000000000D+00 0.000000000000D+00 0.177403579710D-06 0.000000000000D+00  6 21 1 25 -24 2 21 4 0.57445664D-02 0.12221583D+00 0.28604627D+05 0.28604627D+05 0.28604627D+05 0.12170754D+01  1  2 15  1  6  1       21 0.215659938573D-02 0.100000000000D+01
-.149416477639D-04 0.000000000000D+00 -.271393348244D-05 0.177403579710D-06 0.000000000000D+00  6 21 1 25 -24 2 21 4 0.13768409D-01 0.12221583D+00 0.28604627D+05 0.28604627D+05 0.28604627D+05 0.12170754D+01  1  2  5  1  6  1       21 -.393317259027D-01 0.100000000000D+01
-.442479237265D-05 0.000000000000D+00 -.821952959006D-06 0.177403579710D-06 0.000000000000D+00  6 -1 1 25 -24 2 -1 4 0.13768409D-01 0.12221583D+00 0.28604627D+05 0.28604627D+05 0.28604627D+05 0.12170754D+01  1  2  5  4  6  1       21 -.837715911931D-03 0.100000000000D+01
-.442479237265D-05 0.000000000000D+00 -.821952959006D-06 0.177403579710D-06 0.000000000000D+00  6 1 1 25 -24 2 1 4 0.13768409D-01 0.12221583D+00 0.28604627D+05 0.28604627D+05 0.28604627D+05 0.12170754D+01  1  2  5  5  6  1       21 -.112851437473D-02 0.100000000000D+01
-.442479237265D-05 0.000000000000D+00 -.821952959006D-06 0.177403579710D-06 0.000000000000D+00  6 -2 1 25 -24 2 -2 4 0.13768409D-01 0.12221583D+00 0.28604627D+05 0.28604627D+05 0.28604627D+05 0.12170754D+01  1  2  5  6  6  1       21 -.787625351965D-03 0.100000000000D+01
-.442479237265D-05 0.000000000000D+00 -.821952959006D-06 0.177403579710D-06 0.000000000000D+00  6 2 1 25 -24 2 2 4 0.13768409D-01 0.12221583D+00 0.28604627D+05 0.28604627D+05 0.28604627D+05 0.12170754D+01  1  2  5  7  6  1       21 -.132838709964D-02 0.100000000000D+01
-.442479237265D-05 0.000000000000D+00 -.821952959006D-06 0.177403579710D-06 0.000000000000D+00  6 -3 1 25 -24 2 -3 4 0.13768409D-01 0.12221583D+00 0.28604627D+05 0.28604627D+05 0.28604627D+05 0.12170754D+01  1  2  5  8  6  1       21 -.532524427610D-03 0.100000000000D+01
-.442479237265D-05 0.000000000000D+00 -.821952959006D-06 0.177403579710D-06 0.000000000000D+00  6 -4 1 25 -24 2 -4 4 0.13768409D-01 0.12221583D+00 0.28604627D+05 0.28604627D+05 0.28604627D+05 0.12170754D+01  1  2  5  8  6  1       21 -.461880230115D-03 0.100000000000D+01
-.442479237265D-05 0.000000000000D+00 -.821952959006D-06 0.177403579710D-06 0.000000000000D+00  6 3 1 25 -24 2 3 4 0.13768409D-01 0.12221583D+00 0.28604627D+05 0.28604627D+05 0.28604627D+05 0.12170754D+01  1  2  5  9  6  1       21 -.532460215639D-03 0.100000000000D+01
-.442479237265D-05 0.000000000000D+00 -.821952959006D-06 0.177403579710D-06 0.000000000000D+00  6 4 1 25 -24 2 4 4 0.13768409D-01 0.12221583D+00 0.28604627D+05 0.28604627D+05 0.28604627D+05 0.12170754D+01  1  2  5  9  6  1       21 -.461880230115D-03 0.100000000000D+01
  </mgrwgt>
  </event>
  <event>
  5     66 0.42050411E-03 0.31580576E+02 0.75467711E-02 0.12003569E+00
       21 -1    0    0  501  502 0.00000000E+00 0.00000000E+00 0.22574442E+02 0.22586897E+02 0.75000000E+00 0.0000E+00 0.9000E+01
        1 -1    0    0  502    0 -.00000000E+00 -.00000000E+00 -.10367315E+04 0.10367316E+04 0.32000000E+00 0.0000E+00 0.9000E+01
       25  1    1    2    0    0 -.54767528E+02 -.15542333E+02 -.48596790E+03 0.50500579E+03 0.12500000E+03 0.0000E+00 0.9000E+01
      -24  1    1    2    0    0 0.69250436E+02 -.12521004E+02 -.50210797E+03 0.51335371E+03 0.80419002E+02 0.0000E+00 0.9000E+01
        2  1    1    2  501    0 -.14482907E+02 0.28063337E+02 -.26081205E+02 0.40958969E+02 0.32000000E+00 0.0000E+00 0.9000E+01
#aMCatNLO 1  0  0  5  5 0.21085054D+02 0.00000000D+00  -5  6  0 0.00000000D+00 0.00000000D+00 0.00000000D+00 0.00000000D+00 0.00000000D+00
  <mgrwgt>
 0.7301009808D-01    4    2    0
 0.153004113597396D+03 0.000000000000000D+00 0.000000000000000D+00 0.153004113597396D+03
 0.153004113597396D+03 -.000000000000000D+00 -.000000000000000D+00 -.153004113597396D+03
 0.137624314085439D+03 -.547674194878929D+02 -.155425443526334D+02 -.862617558198521D+01
 0.113032124878231D+03 0.692505251268609D+02 -.125211769742311D+02 -.368324611850955D+02
 0.553517882311203D+02 -.144831056389680D+02 0.280637213268645D+02 0.454586367670807D+02
 0.000000000000000D+00 0.000000000000000D+00 -.000000000000000D+00 0.000000000000000D+00
 0.153004113597396D+03 0.000000000000000D+00 0.000000000000000D+00 0.153004113597396D+03
 0.153004113597396D+03 -.000000000000000D+00 -.000000000000000D+00 -.153004113597396D+03
 0.139313633477316D+03 -.605953276574202D+02 -.424988414113025D+01 0.966608625705228D+01
 0.105645146787351D+03 0.646486600908640D+02 -.360420424936321D+01 -.223884243647289D+02
 0.359467391731882D+02 -.232786957302497D+01 0.328388121354530D+02 0.144347323483545D+02
 0.251027077569360D+02 -.172546286041884D+01 -.249847237449596D+02 -.171239424067778D+01
0.960478329075D-05 0.000000000000D+00 0.000000000000D+00 0.123466302248D-05 0.000000000000D+00  6 21 1 25 -24 2 21 2 0.34739530D-02 0.15949812D+00 0.19015990D+05 0.19015990D+05 0.19015990D+05 0.12362456D+01  1  2  2  3  6  5        2 0.122968239698D+00 0.100000000000D+01
0.590810698214D-06 0.506858339399D-06 -.193892902033D-07 0.123466302248D-05 0.000000000000D+00  6 21 1 25 -24 2 21 4 0.34739530D-02 0.15949812D+00 0.19015990D+05 0.19015990D+05 0.19015990D+05 0.12362456D+01  1  2  3  3  6  5        2 0.115601438365D-01 0.100000000000D+01
0.101234238559D-05 0.000000000000D+00 0.000000000000D+00 0.123466302248D-05 0.000000000000D+00  6 21 1 25 -24 2 21 4 0.34739530D-02 0.15949812D+00 0.19015990D+05 0.19015990D+05 0.19015990D+05 0.12362456D+01  1  2 15  3  6  5        2 0.198080766386D-01 0.100000000000D+01
-.415639160315D-05 0.000000000000D+00 0.000000000000D+00 0.123466302248D-05 0.000000000000D+00  6 21 1 25 -24 2 21 4 0.34739530D-02 0.15949812D+00 0.19015990D+05 0.19015990D+05 0.19015990D+05 0.12362456D+01  1  2  4  3  6  5        2 -.813263620958D-01 0.100000000000D+01
  </mgrwgt>
  </event>
  <event>
  5     66 0.42050411E-03 0.10631427E+03 0.75467711E-02 0.10966679E+00
       21 -1    0    0  501  502 0.00000000E+00 0.00000000E+00 0.73955182E+02 0.73958985E+02 0.75000000E+00 0.0000E+00 0.9000E+01
        1 -1    0    0  502    0 0.00000000E+00 0.00000000E+00 -.65820270E+03 0.65820278E+03 0.32000000E+00 0.0000E+00 0.9000E+01
       25  1    1    2    0    0 -.14529311E+02 -.43324976E+01 -.13395641E+03 0.18384556E+03 0.12500000E+03 0.0000E+00 0.9000E+01
      -24  1    1    2    0    0 0.11133572E+03 0.93354270E+02 -.33293160E+03 0.37205017E+03 0.80419002E+02 0.0000E+00 0.9000E+01
        2  1    1    2  501    0 -.96806410E+02 -.89021772E+02 -.11735951E+03 0.17626603E+03 0.32000000E+00 0.0000E+00 0.9000E+01
#aMCatNLO 1  0  0  1  2 0.11706536D+03 0.00000000D+00  -5  6  0 0.00000000D+00 0.00000000D+00 0.00000000D+00 0.00000000D+00 0.00000000D+00
  <mgrwgt>
 0.2790644238D-01   22    2    0
 0.220633001078561D+03 0.000000000000000D+00 0.000000000000000D+00 0.220633001078561D+03
 0.220633001078561D+03 0.000000000000000D+00 0.000000000000000D+00 -.220633001078561D+03
 0.127680320591138D+03 -.145292348095025D+02 -.433242743808041D+01 0.211517298252391D+02
 0.176506925131834D+03 0.111335826801936D+03 0.933543667940470D+02 -.598061412894695D+02
 0.137078756434150D+03 -.968065919924338D+02 -.890219393559666D+02 0.386544114642303D+02
 0.000000000000000D+00 -.000000000000000D+00 -.000000000000000D+00 0.000000000000000D+00
 0.391066516104413D+03 0.000000000000000D+00 0.000000000000000D+00 0.391066516104413D+03
 0.249309699215102D+03 0.000000000000000D+00 0.000000000000000D+00 -.249309699215102D+03
 0.128121718276922D+03 0.156107877539091D+02 0.995401051504255D+01 0.211517298252391D+02
 0.219910858476530D+03 0.158043980479540D+03 0.115494135867414D+03 -.598061412894695D+02
 0.108497797645563D+03 -.678713930637611D+02 -.753065904942980D+02 0.386544114642303D+02
 0.183845840920500D+03 -.105783375169688D+03 -.501415558881589D+02 0.141756816889310D+03
0.293354696911D-05 0.000000000000D+00 0.000000000000D+00 0.135434139547D-06 0.000000000000D+00  6 21 1 25 -24 2 21 2 0.11378019D-01 0.10126225D+00 0.44837637D+05 0.44837637D+05 0.44837637D+05 0.11969975D+01  1  2  2  1  6  1       21 0.927385356122D-02 0.100000000000D+01
-.213278803872D-06 0.154807526656D-06 -.592198613828D-08 0.135434139547D-06 0.000000000000D+00  6 21 1 25 -24 2 21 4 0.11378019D-01 0.10126225D+00 0.44837637D+05 0.44837637D+05 0.44837637D+05 0.11969975D+01  1  2  3  1  6  1       21 -.966053912702D-03 0.100000000000D+01
0.341552709709D-06 0.000000000000D+00 0.000000000000D+00 0.135434139547D-06 0.000000000000D+00  6 21 1 25 -24 2 21 4 0.11378019D-01 0.10126225D+00 0.44837637D+05 0.44837637D+05 0.44837637D+05 0.11969975D+01  1  2 15  1  6  1       21 0.154707512241D-02 0.100000000000D+01
0.254871529687D-05 0.000000000000D+00 0.000000000000D+00 0.130264676051D-06 0.000000000000D+00  6 21 1 25 -24 2 21 4 0.20411471D-01 0.10126225D+00 0.77403561D+05 0.77403561D+05 0.77403561D+05 0.11739308D+01  1  2 12  1  6  1       21 0.361011727978D-02 0.100000000000D+01
-.110036543146D-04 0.000000000000D+00 -.408404145895D-05 0.135434139547D-06 0.000000000000D+00  6 21 1 25 -24 2 21 4 0.22577965D-01 0.10126225D+00 0.44837637D+05 0.44837637D+05 0.44837637D+05 0.11969975D+01  1  2  5  1  6  1       21 -.141571130410D-01 0.100000000000D+01
0.662420863796D-05 0.000000000000D+00 0.184379786621D-05 0.135434139547D-06 0.000000000000D+00  6 21 1 25 -24 2 21 4 0.11378019D-01 0.10126225D+00 0.44837637D+05 0.44837637D+05 0.44837637D+05 0.11969975D+01  1  2  6  1  6  1       21 0.300045881591D-01 0.100000000000D+01
0.528246398829D-06 0.000000000000D+00 0.000000000000D+00 0.130264676051D-06 0.000000000000D+00  6 -1 1 25 -24 2 -1 4 0.20411471D-01 0.10126225D+00 0.77403561D+05 0.77403561D+05 0.77403561D+05 0.11739308D+01  1  2 12  4  6  1       21 0.605762492784D-04 0.100000000000D+01
-.230940291580D-05 0.000000000000D+00 -.997266858445D-06 0.135434139547D-06 0.000000000000D+00  6 -1 1 25 -24 2 -1 4 0.22577965D-01 0.10126225D+00 0.44837637D+05 0.44837637D+05 0.44837637D+05 0.11969975D+01  1  2  5  4  6  1       21 -.243546005700D-03 0.100000000000D+01
0.528246398829D-06 0.000000000000D+00 0.000000000000D+00 0.130264676051D-06 0.000000000000D+00  6 1 1 25 -24 2 1 4 0.20411471D-01 0.10126225D+00 0.77403561D+05 0.77403561D+05 0.77403561D+05 0.11739308D+01  1  2 12  5  6  1       21 0.916787189942D-04 0.100000000000D+01
-.230940291580D-05 0.000000000000D+00 -.997266858445D-06 0.135434139547D-06 0.000000000000D+00  6 1 1 25 -24 2 1 4 0.22577965D-01 0.10126225D+00 0.44837637D+05 0.44837637D+05 0.44837637D+05 0.11969975D+01  1  2  5  5  6  1       21 -.382017928090D-03 0.100000000000D+01
0.528246398829D-06 0.000000000000D+00 0.000000000000D+00 0.130264676051D-06 0.000000000000D+00  6 -2 1 25 -24 2 -2 4 0.20411471D-01 0.10126225D+00 0.77403561D+05 0.77403561D+05 0.77403561D+05 0.11739308D+01  1  2 12  6  6  1       21 0.553719359172D-04 0.100000000000D+01
-.230940291580D-05 0.000000000000D+00 -.997266858445D-06 0.135434139547D-06 0.000000000000D+00  6 -2 1 25 -24 2 -2 4 0.22577965D-01 0.10126225D+00 0.44837637D+05 0.44837637D+05 0.44837637D+05 0.11969975D+01  1  2  5  6  6  1       21 -.220484468341D-03 0.100000000000D+01
0.528246398829D-06 0.000000000000D+00 0.000000000000D+00 0.130264676051D-06 0.000000000000D+00  6 2 1 25 -24 2 2 4 0.20411471D-01 0.10126225D+00 0.77403561D+05 0.77403561D+05 0.77403561D+05 0.11739308D+01  1  2 12  7  6  1       21 0.113776989105D-03 0.100000000000D+01
-.230940291580D-05 0.000000000000D+00 -.997266858445D-06 0.135434139547D-06 0.000000000000D+00  6 2 1 25 -24 2 2 4 0.22577965D-01 0.10126225D+00 0.44837637D+05 0.44837637D+05 0.44837637D+05 0.11969975D+01  1  2  5  7  6  1       21 -.480793349022D-03 0.100000000000D+01
0.528246398829D-06 0.000000000000D+00 0.000000000000D+00 0.130264676051D-06 0.000000000000D+00  6 -3 1 25 -24 2 -3 4 0.20411471D-01 0.10126225D+00 0.77403561D+05 0.77403561D+05 0.77403561D+05 0.11739308D+01  1  2 12  8  6  1       21 0.370967854298D-04 0.100000000000D+01
0.528246398829D-06 0.000000000000D+00 0.000000000000D+00 0.130264676051D-06 0.000000000000D+00  6 -4 1 25 -24 2 -4 4 0.20411471D-01 0.10126225D+00 0.77403561D+05 0.77403561D+05 0.77403561D+05 0.11739308D+01  1  2 12  8  6  1       21 0.320103736215D-04 0.100000000000D+01
-.230940291580D-05 0.000000000000D+00 -.997266858445D-06 0.135434139547D-06 0.000000000000D+00  6 -3 1 25 -24 2 -3 4 0.22577965D-01 0.10126225D+00 0.44837637D+05 0.44837637D+05 0.44837637D+05 0.11969975D+01  1  2  5  8  6  1       21 -.145195954357D-03 0.100000000000D+01
-.230940291580D-05 0.000000000000D+00 -.997266858445D-06 0.135434139547D-06 0.000000000000D+00  6 -4 1 25 -24 2 -4 4 0.22577965D-01 0.10126225D+00 0.44837637D+05 0.44837637D+05 0.44837637D+05 0.11969975D+01  1  2  5  8  6  1       21 -.124207537777D-03 0.100000000000D+01
0.528246398829D-06 0.000000000000D+00 0.000000000000D+00 0.130264676051D-06 0.000000000000D+00  6 3 1 25 -24 2 3 4 0.20411471D-01 0.10126225D+00 0.77403561D+05 0.77403561D+05 0.77403561D+05 0.11739308D+01  1  2 12  9  6  1       21 0.370942225844D-04 0.100000000000D+01
0.528246398829D-06 0.000000000000D+00 0.000000000000D+00 0.130264676051D-06 0.000000000000D+00  6 4 1 25 -24 2 4 4 0.20411471D-01 0.10126225D+00 0.77403561D+05 0.77403561D+05 0.77403561D+05 0.11739308D+01  1  2 12  9  6  1       21 0.320103736215D-04 0.100000000000D+01
-.230940291580D-05 0.000000000000D+00 -.997266858445D-06 0.135434139547D-06 0.000000000000D+00  6 3 1 25 -24 2 3 4 0.22577965D-01 0.10126225D+00 0.44837637D+05 0.44837637D+05 0.44837637D+05 0.11969975D+01  1  2  5  9  6  1       21 -.145187656756D-03 0.100000000000D+01
-.230940291580D-05 0.000000000000D+00 -.997266858445D-06 0.135434139547D-06 0.000000000000D+00  6 4 1 25 -24 2 4 4 0.22577965D-01 0.10126225D+00 0.44837637D+05 0.44837637D+05 0.44837637D+05 0.11969975D+01  1  2  5  9  6  1       21 -.124207537777D-03 0.100000000000D+01
  </mgrwgt>
  </event>
  <event>
  5     66 -.42050411E-03 0.25679360E+02 0.75467711E-02 0.10503352E+00
       21 -1    0    0  501  502 0.00000000E+00 0.00000000E+00 0.55389957E+02 0.55395034E+02 0.75000000E+00 0.0000E+00 0.9000E+01
        1 -1    0    0  502    0 0.00000000E+00 0.00000000E+00 -.14806643E+04 0.14806644E+04 0.32000000E+00 0.0000E+00 0.9000E+01
       25  1    1    2    0    0 -.14207341E+03 0.81140971E+02 -.58231412E+03 0.61764347E+03 0.12500000E+03 0.0000E+00 0.9000E+01
      -24  1    1    2    0    0 0.14353378E+03 -.10677872E+03 -.86352197E+03 0.88551739E+03 0.80419002E+02 0.0000E+00 0.9000E+01
        2  1    1    2  501    0 -.14603691E+01 0.25637750E+02 0.20561725E+02 0.32898538E+02 0.32000000E+00 0.0000E+00 0.9000E+01
#aMCatNLO 1  0  0  1  2 0.11706536D+03 0.00000000D+00  -5  6  0 0.00000000D+00 0.00000000D+00 0.00000000D+00 0.00000000D+00 0.00000000D+00
  <mgrwgt>
 -.2133317010D+00   12    2    0
 0.286387603246532D+03 0.000000000000000D+00 0.000000000000000D+00 0.286387603246532D+03
 0.286387603246532D+03 0.000000000000000D+00 0.000000000000000D+00 -.286387603246532D+03
 0.207375692135340D+03 -.142073409888289D+03 0.811409463603354D+02 -.247178218108829D+02
 0.226007731536941D+03 0.143533781915799D+03 -.106778747377383D+03 -.112288161965402D+03
 0.139391782820783D+03 -.146037202750976D+01 0.256378010170481D+02 0.137005983776285D+03
 0.000000000000000D+00 -.000000000000000D+00 -.000000000000000D+00 0.000000000000000D+00
 0.163805932693968D+04 0.000000000000000D+00 0.000000000000000D+00 0.163805932693968D+04
 0.323007659334215D+03 0.000000000000000D+00 0.000000000000000D+00 -.323007659334215D+03
 0.199046082424343D+03 -.762700749903160D+02 0.132537722458081D+03 -.247178218108829D+02
 0.266256752968732D+03 0.223235822406614D+03 -.445261588726926D+02 -.112288161965402D+03
 0.157953353830545D+03 0.466824757038870D+02 0.632405633906413D+02 0.137005983776285D+03
 0.133781079705027D+04 -.193648223120185D+03 -.151252126976029D+03 0.131505166760546D+04
0.236110472283D-04 0.000000000000D+00 0.000000000000D+00 0.208604233190D-05 0.000000000000D+00  6 21 1 25 -24 2 21 2 0.85219251D-02 0.22779490D+00 0.45735370D+05 0.45735370D+05 0.45735370D+05 0.11961353D+01  1  2  2  1  6  1       21 0.301635462348D-01 0.100000000000D+01
0.667357741275D-05 0.124598919386D-05 -.476639017096D-07 0.208604233190D-05 0.000000000000D+00  6 21 1 25 -24 2 21 4 0.85219251D-02 0.22779490D+00 0.45735370D+05 0.45735370D+05 0.45735370D+05 0.11961353D+01  1  2  3  1  6  1       21 0.121979402419D-01 0.100000000000D+01
0.259594074585D-05 0.000000000000D+00 0.000000000000D+00 0.208604233190D-05 0.000000000000D+00  6 21 1 25 -24 2 21 4 0.85219251D-02 0.22779490D+00 0.45735370D+05 0.45735370D+05 0.45735370D+05 0.11961353D+01  1  2 15  1  6  1       21 0.474485094441D-02 0.100000000000D+01
-.325941006598D-02 0.000000000000D+00 -.256531104260D-03 0.208604233190D-05 0.000000000000D+00  6 21 1 25 -24 2 21 4 0.53190982D-01 0.22779490D+00 0.45735370D+05 0.45735370D+05 0.45735370D+05 0.11961353D+01  1  2  5  1  6  1       21 -.183945076357D+00 0.100000000000D+01
-.140061565910D-02 0.000000000000D+00 -.108991683254D-03 0.208604233190D-05 0.000000000000D+00  6 -1 1 25 -24 2 -1 4 0.53190982D-01 0.22779490D+00 0.45735370D+05 0.45735370D+05 0.45735370D+05 0.11961353D+01  1  2  5  4  6  1       21 -.804622945770D-02 0.100000000000D+01
-.140061565910D-02 0.000000000000D+00 -.108991683254D-03 0.208604233190D-05 0.000000000000D+00  6 1 1 25 -24 2 1 4 0.53190982D-01 0.22779490D+00 0.45735370D+05 0.45735370D+05 0.45735370D+05 0.11961353D+01  1  2  5  5  6  1       21 -.190441924856D-01 0.100000000000D+01
-.140061565910D-02 0.000000000000D+00 -.108991683254D-03 0.208604233190D-05 0.000000000000D+00  6 -2 1 25 -24 2 -2 4 0.53190982D-01 0.22779490D+00 0.45735370D+05 0.45735370D+05 0.45735370D+05 0.11961353D+01  1  2  5  6  6  1       21 -.654006111240D-02 0.100000000000D+01
-.140061565910D-02 0.000000000000D+00 -.108991683254D-03 0.208604233190D-05 0.000000000000D+00  6 2 1 25 -24 2 2 4 0.53190982D-01 0.22779490D+00 0.45735370D+05 0.45735370D+05 0.45735370D+05 0.11961353D+01  1  2  5  7  6  1       21 -.276910622774D-01 0.100000000000D+01
-.140061565910D-02 0.000000000000D+00 -.108991683254D-03 0.208604233190D-05 0.000000000000D+00  6 -3 1 25 -24 2 -3 4 0.53190982D-01 0.22779490D+00 0.45735370D+05 0.45735370D+05 0.45735370D+05 0.11961353D+01  1  2  5  8  6  1       21 -.415253775830D-02 0.100000000000D+01
-.140061565910D-02 0.000000000000D+00 -.108991683254D-03 0.208604233190D-05 0.000000000000D+00  6 -4 1 25 -24 2 -4 4 0.53190982D-01 0.22779490D+00 0.45735370D+05 0.45735370D+05 0.45735370D+05 0.11961353D+01  1  2  5  8  6  1       21 -.343211688840D-02 0.100000000000D+01
-.140061565910D-02 0.000000000000D+00 -.108991683254D-03 0.208604233190D-05 0.000000000000D+00  6 3 1 25 -24 2 3 4 0.53190982D-01 0.22779490D+00 0.45735370D+05 0.45735370D+05 0.45735370D+05 0.11961353D+01  1  2  5  9  6  1       21 -.415464518980D-02 0.100000000000D+01
-.140061565910D-02 0.000000000000D+00 -.108991683254D-03 0.208604233190D-05 0.000000000000D+00  6 4 1 25 -24 2 4 4 0.53190982D-01 0.22779490D+00 0.45735370D+05 0.45735370D+05 0.45735370D+05 0.11961353D+01  1  2  5  9  6  1       21 -.343211688840D-02 0.100000000000D+01
  </mgrwgt>
  </event>
  <event>
  5     66 0.42050411E-03 0.38216093E+02 0.75467711E-02 0.11063846E+00
       21 -1    0    0  501  502 0.00000000E+00 0.00000000E+00 0.64546099E+03 0.64546143E+03 0.75000000E+00 0.0000E+00 0.9000E+01
        1 -1    0    0  502    0 0.00000000E+00 0.00000000E+00 -.19058236E+03 0.19058263E+03 0.32000000E+00 0.0000E+00 0.9000E+01
       25  1    1    2    0    0 0.70581024E+02 -.20557489E+03 0.31289739E+03 0.40096445E+03 0.12500000E+03 0.0000E+00 0.9000E+01
      -24  1    1    2    0    0 -.76332082E+02 0.16779411E+03 -.75082917E+02 0.21467676E+03 0.80419002E+02 0.0000E+00 0.9000E+01
        2  1    1    2  501    0 0.57510580E+01 0.37780772E+02 0.21706416E+03 0.22040285E+03 0.32000000E+00 0.0000E+00 0.9000E+01
#aMCatNLO 1  0  0  1  2 0.30748866D+02 0.00000000D+00  -5  6  0 0.00000000D+00 0.00000000D+00 0.00000000D+00 0.00000000D+00 0.00000000D+00
  <mgrwgt>
 0.1722722159D+00   23    2    0
 0.350733194565469D+03 0.000000000000000D+00 0.000000000000000D+00 0.350733194565469D+03
 0.350733194565469D+03 0.000000000000000D+00 0.000000000000000D+00 -.350733194565469D+03
 0.274986218059919D+03 0.705810160220709D+02 -.205574937375444D+03 0.112914504928604D+03
 0.304551892136066D+03 -.763320903670860D+02 0.167794057548669D+03 -.228698940270462D+03
 0.121928278934954D+03 0.575107434501508D+01 0.377808798267750D+02 0.115784435341858D+03
 0.000000000000000D+00 0.000000000000000D+00 0.000000000000000D+00 0.000000000000000D+00
 0.379929822061113D+03 0.000000000000000D+00 0.000000000000000D+00 0.379929822061113D+03
 0.359260393771514D+03 0.000000000000000D+00 0.000000000000000D+00 -.359260393771514D+03
 0.272456518352059D+03 0.585947437966245D+02 -.205972146099083D+03 0.112914504928604D+03
 0.307944933639359D+03 -.897427234847774D+02 0.167349647446539D+03 -.228698940270462D+03
 0.121738553898692D+03 0.415983026060221D+00 0.376040821724718D+02 0.115784435341858D+03
 0.370502099425172D+02 0.307319966620927D+02 0.101841648007185D+01 0.206694282895983D+02
0.995716452145D-04 0.000000000000D+00 0.000000000000D+00 0.367493494988D-06 0.000000000000D+00  6 21 1 25 -24 2 21 2 0.99301745D-01 0.29320417D-01 0.60041901D+05 0.60041901D+05 0.60041901D+05 0.11844893D+01  1  2  2  1  6  1       21 0.192742424355D-01 0.100000000000D+01
0.135492774886D-04 0.525454007830D-05 -.201006463825D-06 0.367493494988D-06 0.000000000000D+00  6 21 1 25 -24 2 21 4 0.99301745D-01 0.29320417D-01 0.60041901D+05 0.60041901D+05 0.60041901D+05 0.11844893D+01  1  2  3  1  6  1       21 0.367976448281D-02 0.100000000000D+01
0.106720954340D-04 0.000000000000D+00 0.000000000000D+00 0.367493494988D-06 0.000000000000D+00  6 21 1 25 -24 2 21 4 0.99301745D-01 0.29320417D-01 0.60041901D+05 0.60041901D+05 0.60041901D+05 0.11844893D+01  1  2 15  1  6  1       21 0.289836840143D-02 0.100000000000D+01
0.378380710102D-03 0.000000000000D+00 0.000000000000D+00 0.364169358123D-06 0.000000000000D+00  6 21 1 25 -24 2 21 4 0.10870651D+00 0.29320417D-01 0.68260210D+05 0.68260210D+05 0.68260210D+05 0.11791200D+01  1  2 12  1  6  1       21 0.806066031331D-01 0.100000000000D+01
-.660969009681D-04 0.000000000000D+00 0.000000000000D+00 0.367493494988D-06 0.000000000000D+00  6 21 1 25 -24 2 21 4 0.99301745D-01 0.29320417D-01 0.60041901D+05 0.60041901D+05 0.60041901D+05 0.11844893D+01  1  2  4  1  6  1       21 -.179508485829D-01 0.100000000000D+01
-.171390056785D-02 0.000000000000D+00 -.314124760600D-03 0.367493494988D-06 0.000000000000D+00  6 21 1 25 -24 2 21 4 0.10932886D+00 0.29320417D-01 0.60041901D+05 0.60041901D+05 0.60041901D+05 0.11844893D+01  1  2  5  1  6  1       21 -.369010931221D+00 0.100000000000D+01
0.170651644400D-02 0.000000000000D+00 0.308386352586D-03 0.367493494988D-06 0.000000000000D+00  6 21 1 25 -24 2 21 4 0.99301745D-01 0.29320417D-01 0.60041901D+05 0.60041901D+05 0.60041901D+05 0.11844893D+01  1  2  6  1  6  1       21 0.463462247729D+00 0.100000000000D+01
0.864221605376D-05 0.000000000000D+00 0.000000000000D+00 0.364169358123D-06 0.000000000000D+00  6 -1 1 25 -24 2 -1 4 0.10870651D+00 0.29320417D-01 0.68260210D+05 0.68260210D+05 0.68260210D+05 0.11791200D+01  1  2 12  4  6  1       21 0.219086911709D-03 0.100000000000D+01
-.380886061540D-04 0.000000000000D+00 -.768276119482D-05 0.367493494988D-06 0.000000000000D+00  6 -1 1 25 -24 2 -1 4 0.10932886D+00 0.29320417D-01 0.60041901D+05 0.60041901D+05 0.60041901D+05 0.11844893D+01  1  2  5  4  6  1       21 -.972605885155D-03 0.100000000000D+01
0.864221605376D-05 0.000000000000D+00 0.000000000000D+00 0.364169358123D-06 0.000000000000D+00  6 1 1 25 -24 2 1 4 0.10870651D+00 0.29320417D-01 0.68260210D+05 0.68260210D+05 0.68260210D+05 0.11791200D+01  1  2 12  5  6  1       21 0.867132926950D-03 0.100000000000D+01
-.380886061540D-04 0.000000000000D+00 -.768276119482D-05 0.367493494988D-06 0.000000000000D+00  6 1 1 25 -24 2 1 4 0.10932886D+00 0.29320417D-01 0.60041901D+05 0.60041901D+05 0.60041901D+05 0.11844893D+01  1  2  5  5  6  1       21 -.386644571343D-02 0.100000000000D+01
0.864221605376D-05 0.000000000000D+00 0.000000000000D+00 0.364169358123D-06 0.000000000000D+00  6 -2 1 25 -24 2 -2 4 0.10870651D+00 0.29320417D-01 0.68260210D+05 0.68260210D+05 0.68260210D+05 0.11791200D+01  1  2 12  6  6  1       21 0.162468667052D-03 0.100000000000D+01
-.380886061540D-04 0.000000000000D+00 -.768276119482D-05 0.367493494988D-06 0.000000000000D+00  6 -2 1 25 -24 2 -2 4 0.10932886D+00 0.29320417D-01 0.60041901D+05 0.60041901D+05 0.60041901D+05 0.11844893D+01  1  2  5  6  6  1       21 -.720386980974D-03 0.100000000000D+01
0.864221605376D-05 0.000000000000D+00 0.000000000000D+00 0.364169358123D-06 0.000000000000D+00  6 2 1 25 -24 2 2 4 0.10870651D+00 0.29320417D-01 0.68260210D+05 0.68260210D+05 0.68260210D+05 0.11791200D+01  1  2 12  7  6  1       21 0.146851046796D-02 0.100000000000D+01
-.380886061540D-04 0.000000000000D+00 -.768276119482D-05 0.367493494988D-06 0.000000000000D+00  6 2 1 25 -24 2 2 4 0.10932886D+00 0.29320417D-01 0.60041901D+05 0.60041901D+05 0.60041901D+05 0.11844893D+01  1  2  5  7  6  1       21 -.655303331701D-02 0.100000000000D+01
0.864221605376D-05 0.000000000000D+00 0.000000000000D+00 0.364169358123D-06 0.000000000000D+00  6 -3 1 25 -24 2 -3 4 0.10870651D+00 0.29320417D-01 0.68260210D+05 0.68260210D+05 0.68260210D+05 0.11791200D+01  1  2 12  8  6  1       21 0.104461288820D-03 0.100000000000D+01
0.864221605376D-05 0.000000000000D+00 0.000000000000D+00 0.364169358123D-06 0.000000000000D+00  6 -4 1 25 -24 2 -4 4 0.10870651D+00 0.29320417D-01 0.68260210D+05 0.68260210D+05 0.68260210D+05 0.11791200D+01  1  2 12  8  6  1       21 0.841070010317D-04 0.100000000000D+01
-.380886061540D-04 0.000000000000D+00 -.768276119482D-05 0.367493494988D-06 0.000000000000D+00  6 -3 1 25 -24 2 -3 4 0.10932886D+00 0.29320417D-01 0.60041901D+05 0.60041901D+05 0.60041901D+05 0.11844893D+01  1  2  5  8  6  1       21 -.462358710347D-03 0.100000000000D+01
-.380886061540D-04 0.000000000000D+00 -.768276119482D-05 0.367493494988D-06 0.000000000000D+00  6 -4 1 25 -24 2 -4 4 0.10932886D+00 0.29320417D-01 0.60041901D+05 0.60041901D+05 0.60041901D+05 0.11844893D+01  1  2  5  8  6  1       21 -.371773985548D-03 0.100000000000D+01
0.864221605376D-05 0.000000000000D+00 0.000000000000D+00 0.364169358123D-06 0.000000000000D+00  6 3 1 25 -24 2 3 4 0.10870651D+00 0.29320417D-01 0.68260210D+05 0.68260210D+05 0.68260210D+05 0.11791200D+01  1  2 12  9  6  1       21 0.104700308861D-03 0.100000000000D+01
0.864221605376D-05 0.000000000000D+00 0.000000000000D+00 0.364169358123D-06 0.000000000000D+00  6 4 1 25 -24 2 4 4 0.10870651D+00 0.29320417D-01 0.68260210D+05 0.68260210D+05 0.68260210D+05 0.11791200D+01  1  2 12  9  6  1       21 0.841070010317D-04 0.100000000000D+01
-.380886061540D-04 0.000000000000D+00 -.768276119482D-05 0.367493494988D-06 0.000000000000D+00  6 3 1 25 -24 2 3 4 0.10932886D+00 0.29320417D-01 0.60041901D+05 0.60041901D+05 0.60041901D+05 0.11844893D+01  1  2  5  9  6  1       21 -.463426497790D-03 0.100000000000D+01
-.380886061540D-04 0.000000000000D+00 -.768276119482D-05 0.367493494988D-06 0.000000000000D+00  6 4 1 25 -24 2 4 4 0.10932886D+00 0.29320417D-01 0.60041901D+05 0.60041901D+05 0.60041901D+05 0.11844893D+01  1  2  5  9  6  1       21 -.371773985548D-03 0.100000000000D+01
  </mgrwgt>
  </event>
  <event>
  5     66 -.42050411E-03 0.26885873E+02 0.75467711E-02 0.12467767E+00
       21 -1    0    0  501  502 0.00000000E+00 0.00000000E+00 0.10295559E+03 0.10295833E+03 0.75000000E+00 0.0000E+00 0.9000E+01
        1 -1    0    0  502    0 -.00000000E+00 -.00000000E+00 -.16078024E+03 0.16078055E+03 0.32000000E+00 0.0000E+00 0.9000E+01
       25  1    1    2    0    0 0.28056915E+02 0.45149531E+01 -.77081183E+02 0.14957969E+03 0.12500000E+03 0.0000E+00 0.9000E+01
      -24  1    1    2    0    0 -.23164615E+01 0.32432156E+01 0.28972123E+02 0.85571516E+02 0.80419002E+02 0.0000E+00 0.9000E+01
        2  1    1    2  501    0 -.25740453E+02 -.77581687E+01 -.97155807E+01 0.28587673E+02 0.32000000E+00 0.0000E+00 0.9000E+01
#aMCatNLO 1  0  0  5  1 0.97055978D+01 0.00000000D+00  -5  6  0 0.00000000D+00 0.00000000D+00 0.00000000D+00 0.00000000D+00 0.00000000D+00
  <mgrwgt>
 -.3671747785D+00    5    2    0
 0.128660898664108D+03 0.000000000000000D+00 0.000000000000000D+00 0.128660898664108D+03
 0.128660898664108D+03 -.000000000000000D+00 -.000000000000000D+00 -.128660898664108D+03
 0.135988596104582D+03 0.280578619687988D+02 0.451523860696302D+01 -.453901671351519D+02
 0.942160676164119D+02 -.231580522307660D+01 0.324341344032359D+01 0.489241122367454D+02
 0.271171336072220D+02 -.257420567457223D+02 -.775865204728662D+01 -.353394510159346D+01
 0.000000000000000D+00 0.000000000000000D+00 0.000000000000000D+00 0.000000000000000D+00
 0.128660898664108D+03 0.000000000000000D+00 0.000000000000000D+00 0.128660898664108D+03
 0.128660898664108D+03 -.000000000000000D+00 -.000000000000000D+00 -.128660898664108D+03
 0.135318880503163D+03 0.236815332446036D+02 0.319621378501600D+01 -.459909623866969D+02
 0.940969335160135D+02 -.535339049827618D+01 0.232788569337496D+01 0.485071036150179D+02
 0.165411783031994D+02 -.101818742476860D+02 -.855101092149143D+01 -.983972706344420D+01
 0.113648050058393D+02 -.814626849864150D+01 0.302691144310046D+01 0.732358583512323D+01
0.968862838440D-05 0.000000000000D+00 0.000000000000D+00 0.553194688500D-06 0.000000000000D+00  6 21 1 25 -24 2 21 2 0.15839557D-01 0.24735655D-01 0.13876061D+05 0.13876061D+05 0.13876061D+05 0.12516972D+01  1  2  2  3  6  5        2 0.111593476687D+00 0.100000000000D+01
-.358725045912D-07 0.511282966551D-06 -.195585492905D-07 0.553194688500D-06 0.000000000000D+00  6 21 1 25 -24 2 21 4 0.15839557D-01 0.24735655D-01 0.13876061D+05 0.13876061D+05 0.13876061D+05 0.12516972D+01  1  2  3  3  6  5        2 -.647346410346D-03 0.100000000000D+01
0.101065674782D-05 0.000000000000D+00 0.000000000000D+00 0.553194688500D-06 0.000000000000D+00  6 21 1 25 -24 2 21 4 0.15839557D-01 0.24735655D-01 0.13876061D+05 0.13876061D+05 0.13876061D+05 0.12516972D+01  1  2 15  3  6  5        2 0.182380635322D-01 0.100000000000D+01
0.431821751536D-05 0.000000000000D+00 0.000000000000D+00 0.555372524168D-06 0.000000000000D+00  6 21 1 25 -24 2 21 4 0.15839557D-01 0.24735655D-01 0.13211310D+05 0.13211310D+05 0.13211310D+05 0.12541586D+01  1  2 12  3  6  5        2 0.784790559606D-01 0.100000000000D+01
-.318544746374D-04 0.000000000000D+00 0.000000000000D+00 0.553194688500D-06 0.000000000000D+00  6 21 1 25 -24 2 21 4 0.15839557D-01 0.24735655D-01 0.13876061D+05 0.13876061D+05 0.13876061D+05 0.12516972D+01  1  2  4  3  6  5        2 -.574838028317D+00 0.100000000000D+01
  </mgrwgt>
  </event>
  <event>
  6     66 0.42050411E-03 0.53758294E+02 0.75467711E-02 0.11182747E+00
       21 -1    0    0  501  502 0.00000000E+00 0.00000000E+00 0.47302398E+03 0.47302458E+03 0.75000000E+00 0.0000E+00 0.9000E+01
        1 -1    0    0  502    0 0.00000000E+00 0.00000000E+00 -.14963917E+03 0.14963951E+03 0.32000000E+00 0.0000E+00 0.9000E+01
       25  1    1    2    0    0 -.56527070E+02 -.11340116E+03 0.59035263E+02 0.18752412E+03 0.12500000E+03 0.0000E+00 0.9000E+01
      -24  1    1    2    0    0 0.90968787E+02 0.17645366E+03 0.80295610E+02 0.22874837E+03 0.80419002E+02 0.0000E+00 0.9000E+01
        2  1    1    2  503    0 -.25885513E+02 0.28022510E+01 0.65801118E+02 0.70765824E+02 0.32000000E+00 0.0000E+00 0.9000E+01
       21  1    1    2  501  503 -.85562037E+01 -.65854748E+02 0.11825283E+03 0.13562577E+03 0.75000000E+00 0.0000E+00 0.9000E+01
#aMCatNLO 2  0  0  5  2 0.27336758D+02 0.00000000D+00  -5  6  0 0.00000000D+00 0.00000000D+00 0.00000000D+00 0.00000000D+00 0.00000000D+00
  <mgrwgt>
 0.1695200203D-01    1    2    0
 0.266051133507500D+03 0.000000000000000D+00 0.000000000000000D+00 0.266051133507500D+03
 0.266051133507500D+03 -.000000000000000D+00 -.000000000000000D+00 -.266051133507500D+03
 0.182413651324910D+03 -.550100170420552D+02 -.110623893314433D+03 -.488466216096428D+02
 0.223373631164143D+03 0.928020362891428D+02 0.179809793232523D+03 -.498476023831634D+02
 0.126314984525948D+03 -.377920192470875D+02 -.691858999180900D+02 0.986942239928061D+02
 0.000000000000000D+00 0.000000000000000D+00 -.000000000000000D+00 0.000000000000000D+00
 0.266051133507500D+03 0.000000000000000D+00 0.000000000000000D+00 0.266051133507500D+03
 0.266051133507500D+03 -.000000000000000D+00 -.000000000000000D+00 -.266051133507500D+03
 0.183551103725659D+03 -.565142216528055D+02 -.113377642696684D+03 -.449183767118568D+02
 0.218918100520535D+03 0.909841091447518D+02 0.176481711590526D+03 -.451000680527518D+02
 0.422493872422734D+02 -.255888101210114D+02 0.293823111826798D+01 0.334901525352460D+02
 0.873836755265325D+02 -.888107737093489D+01 -.660423000121101D+02 0.565282922293626D+02
0.223235620627D-04 0.000000000000D+00 0.000000000000D+00 0.195186189742D-06 0.141219153764D-08  6 21 1 25 -24 2 21 4 0.72772993D-01 0.23021482D-01 0.58705877D+05 0.58705877D+05 0.58705877D+05 0.11854389D+01  1  2  1  3  6  5        2 0.169520020270D-01 0.100000000000D+01
  </mgrwgt>
  </event>
  <event>
  5     66 0.42050411E-03 0.62181774E+02 0.75467711E-02 0.11607506E+00
       21 -1    0    0  501  502 0.00000000E+00 0.00000000E+00 0.15622865E+04 0.15622867E+04 0.75000000E+00 0.0000E+00 0.9000E+01
        1 -1    0    0  502    0 0.00000000E+00 0.00000000E+00 -.27515345E+02 0.27517206E+02 0.32000000E+00 0.0000E+00 0.9000E+01
       25  1    1    2    0    0 0.10607575E+03 0.30235028E+02 0.52851949E+03 0.55418776E+03 0.12500000E+03 0.0000E+00 0.9000E+01
      -24  1    1    2    0    0 -.53830162E+02 -.68327550E+02 0.25044975E+03 0.27705349E+03 0.80419002E+02 0.0000E+00 0.9000E+01
        2  1    1    2  501    0 -.52245592E+02 0.38092523E+02 0.75580189E+03 0.75856262E+03 0.32000000E+00 0.0000E+00 0.9000E+01
#aMCatNLO 1  0  0  1  2 0.25334511D+02 0.00000000D+00  -5  6  0 0.00000000D+00 0.00000000D+00 0.00000000D+00 0.00000000D+00 0.00000000D+00
  <mgrwgt>
 0.4154604456D-01   23    2    0
 0.207336619491342D+03 0.000000000000000D+00 0.000000000000000D+00 0.207336619491342D+03
 0.207336619491342D+03 0.000000000000000D+00 0.000000000000000D+00 -.207336619491342D+03
 0.168550578008659D+03 0.106075842860555D+03 0.302349631929136D+02 -.248608107108206D+02
 0.135233415027287D+03 -.538300913030881D+02 -.683276021267334D+02 -.652266865897994D+02
 0.110889245946738D+03 -.522457515574664D+02 0.380926389338198D+02 0.900874973006199D+02
 0.000000000000000D+00 0.000000000000000D+00 0.000000000000000D+00 0.000000000000000D+00
 0.226532650657663D+03 0.000000000000000D+00 0.000000000000000D+00 0.226532650657663D+03
 0.216254002842522D+03 0.000000000000000D+00 0.000000000000000D+00 -.216254002842522D+03
 0.166941654401173D+03 0.105955586054815D+03 0.199967459548324D+02 -.248608107108206D+02
 0.139698388740845D+03 -.539286402926722D+02 -.767176966228620D+02 -.652266865897994D+02
 0.108806382509135D+03 -.523245012033917D+02 0.313881869283847D+02 0.900874973006199D+02
 0.273402278490317D+02 0.297555441248709D+00 0.253327637396449D+02 0.102786478151402D+02
0.237736148911D-04 0.000000000000D+00 0.000000000000D+00 0.492122390583D-06 0.000000000000D+00  6 21 1 25 -24 2 21 2 0.24035192D+00 0.42332870D-02 0.30594983D+05 0.30594983D+05 0.30594983D+05 0.12140043D+01  1  2  2  1  6  1       21 0.592814087818D-02 0.100000000000D+01
0.360465966582D-06 0.125456812511D-05 -.479920789830D-07 0.492122390583D-06 0.000000000000D+00  6 21 1 25 -24 2 21 4 0.24035192D+00 0.42332870D-02 0.30594983D+05 0.30594983D+05 0.30594983D+05 0.12140043D+01  1  2  3  1  6  1       21 0.132473188289D-03 0.100000000000D+01
0.253476799887D-05 0.000000000000D+00 0.000000000000D+00 0.492122390583D-06 0.000000000000D+00  6 21 1 25 -24 2 21 4 0.24035192D+00 0.42332870D-02 0.30594983D+05 0.30594983D+05 0.30594983D+05 0.12140043D+01  1  2 15  1  6  1       21 0.931540920680D-03 0.100000000000D+01
0.504913042960D-04 0.000000000000D+00 0.000000000000D+00 0.487058873355D-06 0.000000000000D+00  6 21 1 25 -24 2 21 4 0.26741131D+00 0.42332870D-02 0.35150165D+05 0.35150165D+05 0.35150165D+05 0.12077426D+01  1  2 12  1  6  1       21 0.125167538514D-01 0.100000000000D+01
-.109248786141D-04 0.000000000000D+00 0.000000000000D+00 0.492122390583D-06 0.000000000000D+00  6 21 1 25 -24 2 21 4 0.24035192D+00 0.42332870D-02 0.30594983D+05 0.30594983D+05 0.30594983D+05 0.12140043D+01  1  2  4  1  6  1       21 -.401495185637D-02 0.100000000000D+01
-.277613814121D-03 0.000000000000D+00 -.561396122345D-04 0.492122390583D-06 0.000000000000D+00  6 21 1 25 -24 2 21 4 0.26822338D+00 0.42332870D-02 0.30594983D+05 0.30594983D+05 0.30594983D+05 0.12140043D+01  1  2  5  1  6  1       21 -.701931875634D-01 0.100000000000D+01
0.276663450643D-03 0.000000000000D+00 0.548107511345D-04 0.492122390583D-06 0.000000000000D+00  6 21 1 25 -24 2 21 4 0.24035192D+00 0.42332870D-02 0.30594983D+05 0.30594983D+05 0.30594983D+05 0.12140043D+01  1  2  6  1  6  1       21 0.101675311368D+00 0.100000000000D+01
0.138800725226D-05 0.000000000000D+00 0.000000000000D+00 0.487058873355D-06 0.000000000000D+00  6 -1 1 25 -24 2 -1 4 0.26741131D+00 0.42332870D-02 0.35150165D+05 0.35150165D+05 0.35150165D+05 0.12077426D+01  1  2 12  4  6  1       21 0.386369916354D-04 0.100000000000D+01
-.678030358175D-05 0.000000000000D+00 -.159323025611D-05 0.492122390583D-06 0.000000000000D+00  6 -1 1 25 -24 2 -1 4 0.26822338D+00 0.42332870D-02 0.30594983D+05 0.30594983D+05 0.30594983D+05 0.12140043D+01  1  2  5  4  6  1       21 -.190788443911D-03 0.100000000000D+01
0.138800725226D-05 0.000000000000D+00 0.000000000000D+00 0.487058873355D-06 0.000000000000D+00  6 1 1 25 -24 2 1 4 0.26741131D+00 0.42332870D-02 0.35150165D+05 0.35150165D+05 0.35150165D+05 0.12077426D+01  1  2 12  5  6  1       21 0.370931513539D-03 0.100000000000D+01
-.678030358175D-05 0.000000000000D+00 -.159323025611D-05 0.492122390583D-06 0.000000000000D+00  6 1 1 25 -24 2 1 4 0.26822338D+00 0.42332870D-02 0.30594983D+05 0.30594983D+05 0.30594983D+05 0.12140043D+01  1  2  5  5  6  1       21 -.183775574564D-02 0.100000000000D+01
0.138800725226D-05 0.000000000000D+00 0.000000000000D+00 0.487058873355D-06 0.000000000000D+00  6 -2 1 25 -24 2 -2 4 0.26741131D+00 0.42332870D-02 0.35150165D+05 0.35150165D+05 0.35150165D+05 0.12077426D+01  1  2 12  6  6  1       21 0.309949014171D-04 0.100000000000D+01
-.678030358175D-05 0.000000000000D+00 -.159323025611D-05 0.492122390583D-06 0.000000000000D+00  6 -2 1 25 -24 2 -2 4 0.26822338D+00 0.42332870D-02 0.30594983D+05 0.30594983D+05 0.30594983D+05 0.12140043D+01  1  2  5  6  6  1       21 -.153042484499D-03 0.100000000000D+01
0.138800725226D-05 0.000000000000D+00 0.000000000000D+00 0.487058873355D-06 0.000000000000D+00  6 2 1 25 -24 2 2 4 0.26741131D+00 0.42332870D-02 0.35150165D+05 0.35150165D+05 0.35150165D+05 0.12077426D+01  1  2 12  7  6  1       21 0.858124396606D-03 0.100000000000D+01
-.678030358175D-05 0.000000000000D+00 -.159323025611D-05 0.492122390583D-06 0.000000000000D+00  6 2 1 25 -24 2 2 4 0.26822338D+00 0.42332870D-02 0.30594983D+05 0.30594983D+05 0.30594983D+05 0.12140043D+01  1  2  5  7  6  1       21 -.425411969593D-02 0.100000000000D+01
0.138800725226D-05 0.000000000000D+00 0.000000000000D+00 0.487058873355D-06 0.000000000000D+00  6 -3 1 25 -24 2 -3 4 0.26741131D+00 0.42332870D-02 0.35150165D+05 0.35150165D+05 0.35150165D+05 0.12077426D+01  1  2 12  8  6  1       21 0.214315089972D-04 0.100000000000D+01
0.138800725226D-05 0.000000000000D+00 0.000000000000D+00 0.487058873355D-06 0.000000000000D+00  6 -4 1 25 -24 2 -4 4 0.26741131D+00 0.42332870D-02 0.35150165D+05 0.35150165D+05 0.35150165D+05 0.12077426D+01  1  2 12  8  6  1       21 0.157227282604D-04 0.100000000000D+01
-.678030358175D-05 0.000000000000D+00 -.159323025611D-05 0.492122390583D-06 0.000000000000D+00  6 -3 1 25 -24 2 -3 4 0.26822338D+00 0.42332870D-02 0.30594983D+05 0.30594983D+05 0.30594983D+05 0.12140043D+01  1  2  5  8  6  1       21 -.105715912001D-03 0.100000000000D+01
-.678030358175D-05 0.000000000000D+00 -.159323025611D-05 0.492122390583D-06 0.000000000000D+00  6 -4 1 25 -24 2 -4 4 0.26822338D+00 0.42332870D-02 0.30594983D+05 0.30594983D+05 0.30594983D+05 0.12140043D+01  1  2  5  8  6  1       21 -.774453497473D-04 0.100000000000D+01
0.138800725226D-05 0.000000000000D+00 0.000000000000D+00 0.487058873355D-06 0.000000000000D+00  6 3 1 25 -24 2 3 4 0.26741131D+00 0.42332870D-02 0.35150165D+05 0.35150165D+05 0.35150165D+05 0.12077426D+01  1  2 12  9  6  1       21 0.216855221082D-04 0.100000000000D+01
0.138800725226D-05 0.000000000000D+00 0.000000000000D+00 0.487058873355D-06 0.000000000000D+00  6 4 1 25 -24 2 4 4 0.26741131D+00 0.42332870D-02 0.35150165D+05 0.35150165D+05 0.35150165D+05 0.12077426D+01  1  2 12  9  6  1       21 0.157227282604D-04 0.100000000000D+01
-.678030358175D-05 0.000000000000D+00 -.159323025611D-05 0.492122390583D-06 0.000000000000D+00  6 3 1 25 -24 2 3 4 0.26822338D+00 0.42332870D-02 0.30594983D+05 0.30594983D+05 0.30594983D+05 0.12140043D+01  1  2  5  9  6  1       21 -.106973538622D-03 0.100000000000D+01
-.678030358175D-05 0.000000000000D+00 -.159323025611D-05 0.492122390583D-06 0.000000000000D+00  6 4 1 25 -24 2 4 4 0.26822338D+00 0.42332870D-02 0.30594983D+05 0.30594983D+05 0.30594983D+05 0.12140043D+01  1  2  5  9  6  1       21 -.774453497473D-04 0.100000000000D+01
  </mgrwgt>
  </event>
  <event>
  5     66 0.42050411E-03 0.20369399E+02 0.75467711E-02 0.12085060E+00
       21 -1    0    0  501  502 0.00000000E+00 0.00000000E+00 0.14237587E+03 0.14237785E+03 0.75000000E+00 0.0000E+00 0.9000E+01
        3 -1    0    0  502    0 -.00000000E+00 -.00000000E+00 -.22736877E+03 0.22736932E+03 0.50000000E+00 0.0000E+00 0.9000E+01
       25  1    1    2    0    0 0.79232062E+01 0.71656646E+02 -.11893577E+02 0.14478919E+03 0.12500000E+03 0.0000E+00 0.9000E+01
      -24  1    1    2    0    0 -.80276447E+01 -.92021087E+02 -.12144377E+03 0.17247646E+03 0.80419002E+02 0.0000E+00 0.9000E+01
        4  1    1    2  501    0 0.10443856E+00 0.20364440E+02 0.48344453E+02 0.52481520E+02 0.15500000E+01 0.0000E+00 0.9000E+01
#aMCatNLO 1  0  0  5  1 0.19313288D+01 0.00000000D+00  -5  6  0 0.00000000D+00 0.00000000D+00 0.00000000D+00 0.00000000D+00 0.00000000D+00
  <mgrwgt>
 0.1731343587D-01    8    2    0
 0.179923023019232D+03 0.000000000000000D+00 0.000000000000000D+00 0.179923023019232D+03
 0.179923023019232D+03 -.000000000000000D+00 -.000000000000000D+00 -.179923023019232D+03
 0.145961666392632D+03 0.792319424156151D+01 0.716543213576614D+02 0.219701907114489D+02
 0.148543583091144D+03 -.802765685516733D+01 -.920234527761908D+02 -.840548689116156D+02
 0.653407965546887D+02 0.104462613605815D+00 0.203691314185294D+02 0.620846782001667D+02
 0.000000000000000D+00 0.000000000000000D+00 0.000000000000000D+00 0.000000000000000D+00
 0.179923023019232D+03 0.000000000000000D+00 0.000000000000000D+00 0.179923023019232D+03
 0.179923023019232D+03 -.000000000000000D+00 -.000000000000000D+00 -.179923023019232D+03
 0.145979229514464D+03 0.792328899770051D+01 0.716727978267201D+02 0.220265065951367D+02
 0.148499513443293D+03 -.802756044299164D+01 -.920046533970727D+02 -.839975688049528D+02
 0.479055405336385D+02 0.138669948701099D+01 0.135728671104981D+02 0.459216197096048D+02
 0.174617625470690D+02 -.128242804171986D+01 0.675898845985447D+01 0.160494425002113D+02
0.716771457778D-06 0.000000000000D+00 0.000000000000D+00 0.236872510855D-05 0.000000000000D+00  6 21 3 25 -24 4 21 2 0.21904175D-01 0.34980005D-01 0.20612704D+05 0.20612704D+05 0.20612704D+05 0.12323859D+01  1  2  2  3  6  5        4 0.830704855631D-03 0.100000000000D+01
0.121784901650D-06 0.378250690120D-07 -.144695506224D-08 0.236872510855D-05 0.000000000000D+00  6 21 3 25 -24 4 21 4 0.21904175D-01 0.34980005D-01 0.20612704D+05 0.20612704D+05 0.20612704D+05 0.12323859D+01  1  2  3  3  6  5        4 0.214364538202D-03 0.100000000000D+01
0.763665947785D-07 0.000000000000D+00 0.000000000000D+00 0.236872510855D-05 0.000000000000D+00  6 21 3 25 -24 4 21 4 0.21904175D-01 0.34980005D-01 0.20612704D+05 0.20612704D+05 0.20612704D+05 0.12323859D+01  1  2 15  3  6  5        4 0.134419699011D-03 0.100000000000D+01
0.325776967603D-07 0.000000000000D+00 0.000000000000D+00 0.236853543969D-05 0.000000000000D+00  6 21 3 25 -24 4 21 4 0.21904175D-01 0.34980005D-01 0.20634065D+05 0.20634065D+05 0.20634065D+05 0.12323366D+01  1  2 12  3  6  5        4 0.573351318316D-04 0.100000000000D+01
-.286838632824D-04 0.000000000000D+00 0.000000000000D+00 0.236872510855D-05 0.000000000000D+00  6 21 3 25 -24 4 21 4 0.21904175D-01 0.34980005D-01 0.20612704D+05 0.20612704D+05 0.20612704D+05 0.12323859D+01  1  2  4  3  6  5        4 -.504890427557D-01 0.100000000000D+01
-.339351690270D-04 0.000000000000D+00 0.000000000000D+00 0.236872510855D-05 0.000000000000D+00  6 21 3 25 -24 4 21 4 0.21904175D-01 0.34980005D-01 0.20612704D+05 0.20612704D+05 0.20612704D+05 0.12323859D+01  1  2  5  3  6  5        4 -.597323374142D-01 0.100000000000D+01
0.479331648376D-04 0.000000000000D+00 -.000000000000D+00 0.236872510855D-05 0.000000000000D+00  6 21 3 25 -24 4 21 4 0.21904175D-01 0.34980005D-01 0.20612704D+05 0.20612704D+05 0.20612704D+05 0.12323859D+01  1  2  6  3  6  5        4 0.843714664610D-01 0.100000000000D+01
0.238225601899D-04 0.000000000000D+00 0.000000000000D+00 0.236872510855D-05 0.205466181617D-05  6 21 3 25 -24 4 21 4 0.21904175D-01 0.34980005D-01 0.20634065D+05 0.20634065D+05 0.20634065D+05 0.12323366D+01  1  2 11  3  6  5        4 0.419265253497D-01 0.100000000000D+01
  </mgrwgt>
  </event>
  <event>
  6     66 0.42050411E-03 0.24301945E+02 0.75467711E-02 0.12026796E+00
        2 -1    0    0  501    0 0.00000000E+00 0.00000000E+00 0.71906830E+03 0.71906837E+03 0.32000000E+00 0.0000E+00 0.9000E+01
        1 -1    0    0  502    0 0.00000000E+00 0.00000000E+00 -.28690955E+03 0.28690973E+03 0.32000000E+00 0.0000E+00 0.9000E+01
       25  1    1    2    0    0 0.45812018E+02 0.10961650E+02 -.12854656E+03 0.18538640E+03 0.12500000E+03 0.0000E+00 0.9000E+01
      -24  1    1    2    0    0 -.46009095E+02 -.17247508E+01 -.92198633E+02 0.13071961E+03 0.80419002E+02 0.0000E+00 0.9000E+01
        2  1    1    2  501    0 0.85970099E+01 -.38652615E+02 0.35053349E+01 0.39753277E+02 0.32000000E+00 0.0000E+00 0.9000E+01
        2  1    1    2  502    0 -.83999330E+01 0.29415716E+02 0.64939860E+03 0.65011882E+03 0.32000000E+00 0.0000E+00 0.9000E+01
#aMCatNLO 2  0  0  1  5 0.30591555D+02 0.00000000D+00  -5  6  0 0.00000000D+00 0.00000000D+00 0.00000000D+00 0.00000000D+00 0.00000000D+00
  <mgrwgt>
 0.8005406522D-01    3    2    0
 0.140095350647271D+03 0.000000000000000D+00 0.000000000000000D+00 0.140095350647271D+03
 0.140095350647271D+03 0.000000000000000D+00 0.000000000000000D+00 -.140095350647271D+03
 0.135563696721479D+03 0.417685385446496D+02 0.251215952384037D+02 -.194116075922382D+02
 0.957359780985179D+02 -.488444883082219D+02 0.820457236608395D+01 -.156544722781392D+02
 0.488910264745453D+02 0.707594976357228D+01 -.333261676044877D+02 0.350660798703774D+02
 0.000000000000000D+00 -.000000000000000D+00 0.000000000000000D+00 0.000000000000000D+00
 0.146208623143208D+04 0.000000000000000D+00 0.000000000000000D+00 0.146208623143208D+04
 0.141104970174490D+03 0.000000000000000D+00 0.000000000000000D+00 -.141104970174490D+03
 0.134984110822210D+03 0.458119470609924D+02 0.109619875765472D+02 -.194116075922382D+02
 0.939792199736390D+02 -.460091445125020D+02 -.172451483141384D+01 -.156544722781392D+02
 0.528924342873522D+02 0.859713049611632D+01 -.386531886731086D+02 0.350660798703774D+02
 0.132133543652337D+04 -.839993304460666D+01 0.294157159279752D+02 0.132098126125759D+04
-.151942826121D-03 0.000000000000D+00 0.000000000000D+00 0.107614482262D-05 0.000000000000D+00  6 2 1 25 -24 2 2 4 0.11004225D+00 0.43824119D-01 0.21968661D+05 0.21968661D+05 0.21968661D+05 0.12293623D+01  1  2 13  7  6  1       21 -.184306234687D-01 0.100000000000D+01
-.152104752322D-03 0.000000000000D+00 0.000000000000D+00 0.107614482262D-05 0.000000000000D+00  6 2 1 25 -24 2 2 4 0.11137161D+00 0.43824119D-01 0.21968661D+05 0.21968661D+05 0.21968661D+05 0.12293623D+01  1  2 13  7  6  1       21 -.181858682451D-01 0.100000000000D+01
0.976621233024D-03 0.000000000000D+00 0.000000000000D+00 0.109654504230D-05 0.449117552419D-06  6 2 1 25 -24 2 2 4 0.11062590D+00 0.44139945D-01 0.21968661D+05 0.21968661D+05 0.21968661D+05 0.12293623D+01  1  2  1  7  6  1       21 0.116670556930D+00 0.100000000000D+01
  </mgrwgt>
  </event>
  <event>
  5     66 0.42050411E-03 0.51001980E+02 0.75467711E-02 0.11803876E+00
       21 -1    0    0  501  502 0.00000000E+00 0.00000000E+00 0.11703437E+03 0.11703677E+03 0.75000000E+00 0.0000E+00 0.9000E+01
        3 -1    0    0  502    0 0.00000000E+00 0.00000000E+00 -.18186341E+03 0.18186410E+03 0.50000000E+00 0.0000E+00 0.9000E+01
       25  1    1    2    0    0 0.10118851E+02 0.76966524E+02 -.55443419E+02 0.15724252E+03 0.12500000E+03 0.0000E+00 0.9000E+01
      -24  1    1    2    0    0 -.25100306E+02 -.27777692E+02 -.14794437E+02 0.89931734E+02 0.80419002E+02 0.0000E+00 0.9000E+01
        4  1    1    2  501    0 0.14981455E+02 -.49188832E+02 0.54088077E+01 0.51726617E+02 0.15500000E+01 0.0000E+00 0.9000E+01
#aMCatNLO 1  0  0  1  2 0.44434228D+02 0.00000000D+00  -5  6  0 0.00000000D+00 0.00000000D+00 0.00000000D+00 0.00000000D+00 0.00000000D+00
  <mgrwgt>
 0.1411586124D-01   23    2    0
 0.145892875579948D+03 0.000000000000000D+00 0.000000000000000D+00 0.145892875579948D+03
 0.145892875579948D+03 0.000000000000000D+00 0.000000000000000D+00 -.145892875579948D+03
 0.148764021469164D+03 0.101157243140744D+02 0.769767894389020D+02 -.218627558408950D+02
 0.888361590835660D+02 -.251021728307154D+02 -.277715616101232D+02 0.482374245396085D+01
 0.541855706071651D+02 0.149864485166410D+02 -.492052278287788D+02 0.170390133869341D+02
 0.000000000000000D+00 0.000000000000000D+00 0.000000000000000D+00 0.000000000000000D+00
 0.176006703976142D+03 0.000000000000000D+00 0.000000000000000D+00 0.176006703976142D+03
 0.164935636948273D+03 0.000000000000000D+00 0.000000000000000D+00 -.164935636948273D+03
 0.142677427747471D+03 -.821821537223817D+01 0.647018487508034D+02 -.218627558408950D+02
 0.953896279025569D+02 -.366914113427583D+02 -.355307894569215D+02 0.482374245396085D+01
 0.570826100443930D+02 0.798681233395439D+01 -.538916247762332D+02 0.170390133869341D+02
 0.457926752299938D+02 0.369228143810421D+02 0.247205654823513D+02 0.110710670278698D+02
0.167723953236D-05 0.000000000000D+00 0.000000000000D+00 0.444432738429D-06 0.000000000000D+00  6 21 3 25 -24 4 21 2 0.18005525D-01 0.27979225D-01 0.20633984D+05 0.20633984D+05 0.20633984D+05 0.12323368D+01  1  2  2  1  6  1       21 0.423576180984D-02 0.100000000000D+01
-.473381958507D-07 0.885103618078D-07 -.338586338171D-08 0.444432738429D-06 0.000000000000D+00  6 21 3 25 -24 4 21 4 0.18005525D-01 0.27979225D-01 0.20633984D+05 0.20633984D+05 0.20633984D+05 0.12323368D+01  1  2  3  1  6  1       21 -.181554469317D-03 0.100000000000D+01
0.176431526481D-06 0.000000000000D+00 0.000000000000D+00 0.444432738429D-06 0.000000000000D+00  6 21 3 25 -24 4 21 4 0.18005525D-01 0.27979225D-01 0.20633984D+05 0.20633984D+05 0.20633984D+05 0.12323368D+01  1  2 15  1  6  1       21 0.676661448229D-03 0.100000000000D+01
0.147998877048D-05 0.000000000000D+00 0.000000000000D+00 0.434091943963D-06 0.000000000000D+00  6 21 3 25 -24 4 21 4 0.22697282D-01 0.27979225D-01 0.28085485D+05 0.28085485D+05 0.28085485D+05 0.12179157D+01  1  2 12  1  6  1       21 0.355057605663D-02 0.100000000000D+01
-.694553333758D-06 0.000000000000D+00 0.000000000000D+00 0.444432738429D-06 0.000000000000D+00  6 21 3 25 -24 4 21 4 0.18005525D-01 0.27979225D-01 0.20633984D+05 0.20633984D+05 0.20633984D+05 0.12323368D+01  1  2  4  1  6  1       21 -.266379526419D-02 0.100000000000D+01
-.702965147550D-05 0.000000000000D+00 -.236782408535D-05 0.444432738429D-06 0.000000000000D+00  6 21 3 25 -24 4 21 4 0.24401915D-01 0.27979225D-01 0.20633984D+05 0.20633984D+05 0.20633984D+05 0.12323368D+01  1  2  5  1  6  1       21 -.153050128211D-01 0.100000000000D+01
0.638271387100D-05 0.000000000000D+00 0.198159188807D-05 0.444432738429D-06 0.000000000000D+00  6 21 3 25 -24 4 21 4 0.18005525D-01 0.27979225D-01 0.20633984D+05 0.20633984D+05 0.20633984D+05 0.12323368D+01  1  2  6  1  6  1       21 0.244793915109D-01 0.100000000000D+01
0.101425417227D-06 0.000000000000D+00 0.000000000000D+00 0.434091943963D-06 0.000000000000D+00  6 -3 3 25 -24 4 -3 4 0.22697282D-01 0.27979225D-01 0.28085485D+05 0.28085485D+05 0.28085485D+05 0.12179157D+01  1  2 12  4  6  1       21 0.116512135186D-04 0.100000000000D+01
-.600006812121D-06 0.000000000000D+00 -.226573461973D-06 0.444432738429D-06 0.000000000000D+00  6 -3 3 25 -24 4 -3 4 0.24401915D-01 0.27979225D-01 0.20633984D+05 0.20633984D+05 0.20633984D+05 0.12323368D+01  1  2  5  4  6  1       21 -.621237373499D-04 0.100000000000D+01
0.101425417227D-06 0.000000000000D+00 0.000000000000D+00 0.434091943963D-06 0.000000000000D+00  6 3 3 25 -24 4 3 4 0.22697282D-01 0.27979225D-01 0.28085485D+05 0.28085485D+05 0.28085485D+05 0.12179157D+01  1  2 12  5  6  1       21 0.116504724643D-04 0.100000000000D+01
-.600006812121D-06 0.000000000000D+00 -.226573461973D-06 0.444432738429D-06 0.000000000000D+00  6 3 3 25 -24 4 3 4 0.24401915D-01 0.27979225D-01 0.20633984D+05 0.20633984D+05 0.20633984D+05 0.12323368D+01  1  2  5  5  6  1       21 -.621205534299D-04 0.100000000000D+01
0.101425417227D-06 0.000000000000D+00 0.000000000000D+00 0.434091943963D-06 0.000000000000D+00  6 -4 3 25 -24 4 -4 4 0.22697282D-01 0.27979225D-01 0.28085485D+05 0.28085485D+05 0.28085485D+05 0.12179157D+01  1  2 12  6  6  1       21 0.991940508160D-05 0.100000000000D+01
-.600006812121D-06 0.000000000000D+00 -.226573461973D-06 0.444432738429D-06 0.000000000000D+00  6 -4 3 25 -24 4 -4 4 0.24401915D-01 0.27979225D-01 0.20633984D+05 0.20633984D+05 0.20633984D+05 0.12323368D+01  1  2  5  6  6  1       21 -.525667997425D-04 0.100000000000D+01
0.101425417227D-06 0.000000000000D+00 0.000000000000D+00 0.434091943963D-06 0.000000000000D+00  6 4 3 25 -24 4 4 4 0.22697282D-01 0.27979225D-01 0.28085485D+05 0.28085485D+05 0.28085485D+05 0.12179157D+01  1  2 12  7  6  1       21 0.991940508160D-05 0.100000000000D+01
-.600006812121D-06 0.000000000000D+00 -.226573461973D-06 0.444432738429D-06 0.000000000000D+00  6 4 3 25 -24 4 4 4 0.24401915D-01 0.27979225D-01 0.20633984D+05 0.20633984D+05 0.20633984D+05 0.12323368D+01  1  2  5  7  6  1       21 -.525667997425D-04 0.100000000000D+01
0.101425417227D-06 0.000000000000D+00 0.000000000000D+00 0.434091943963D-06 0.000000000000D+00  6 -1 3 25 -24 4 -1 4 0.22697282D-01 0.27979225D-01 0.28085485D+05 0.28085485D+05 0.28085485D+05 0.12179157D+01  1  2 12  8  6  1       21 0.197606066829D-04 0.100000000000D+01
0.101425417227D-06 0.000000000000D+00 0.000000000000D+00 0.434091943963D-06 0.000000000000D+00  6 -2 3 25 -24 4 -2 4 0.22697282D-01 0.27979225D-01 0.28085485D+05 0.28085485D+05 0.28085485D+05 0.12179157D+01  1  2 12  8  6  1       21 0.178713875358D-04 0.100000000000D+01
-.600006812121D-06 0.000000000000D+00 -.226573461973D-06 0.444432738429D-06 0.000000000000D+00  6 -1 3 25 -24 4 -1 4 0.24401915D-01 0.27979225D-01 0.20633984D+05 0.20633984D+05 0.20633984D+05 0.12323368D+01  1  2  5  8  6  1       21 -.107373719030D-03 0.100000000000D+01
-.600006812121D-06 0.000000000000D+00 -.226573461973D-06 0.444432738429D-06 0.000000000000D+00  6 -2 3 25 -24 4 -2 4 0.24401915D-01 0.27979225D-01 0.20633984D+05 0.20633984D+05 0.20633984D+05 0.12323368D+01  1  2  5  8  6  1       21 -.963820387897D-04 0.100000000000D+01
0.101425417227D-06 0.000000000000D+00 0.000000000000D+00 0.434091943963D-06 0.000000000000D+00  6 1 3 25 -24 4 1 4 0.22697282D-01 0.27979225D-01 0.28085485D+05 0.28085485D+05 0.28085485D+05 0.12179157D+01  1  2 12  9  6  1       21 0.310601732437D-04 0.100000000000D+01
0.101425417227D-06 0.000000000000D+00 0.000000000000D+00 0.434091943963D-06 0.000000000000D+00  6 2 3 25 -24 4 2 4 0.22697282D-01 0.27979225D-01 0.28085485D+05 0.28085485D+05 0.28085485D+05 0.12179157D+01  1  2 12  9  6  1       21 0.390942552549D-04 0.100000000000D+01
-.600006812121D-06 0.000000000000D+00 -.226573461973D-06 0.444432738429D-06 0.000000000000D+00  6 1 3 25 -24 4 1 4 0.24401915D-01 0.27979225D-01 0.20633984D+05 0.20633984D+05 0.20633984D+05 0.12323368D+01  1  2  5  9  6  1       21 -.173417297752D-03 0.100000000000D+01
-.600006812121D-06 0.000000000000D+00 -.226573461973D-06 0.444432738429D-06 0.000000000000D+00  6 2 3 25 -24 4 2 4 0.24401915D-01 0.27979225D-01 0.20633984D+05 0.20633984D+05 0.20633984D+05 0.12323368D+01  1  2  5  9  6  1       21 -.220543004104D-03 0.100000000000D+01
  </mgrwgt>
  </event>
  <event>
  5     66 0.42050411E-03 0.20738882E+02 0.75467711E-02 0.12142912E+00
       21 -1    0    0  501  502 0.00000000E+00 0.00000000E+00 0.13492402E+03 0.13492610E+03 0.75000000E+00 0.0000E+00 0.9000E+01
        1 -1    0    0  502    0 0.00000000E+00 0.00000000E+00 -.26946883E+03 0.26946902E+03 0.32000000E+00 0.0000E+00 0.9000E+01
       25  1    1    2    0    0 -.55675770E+02 0.15094102E+02 -.19558045E+03 0.23917428E+03 0.12500000E+03 0.0000E+00 0.9000E+01
      -24  1    1    2    0    0 0.62545987E+02 0.44736515E+01 0.12979700E+01 0.10198487E+03 0.80419002E+02 0.0000E+00 0.9000E+01
        2  1    1    2  501    0 -.68702166E+01 -.19567754E+02 0.59737663E+02 0.63235968E+02 0.32000000E+00 0.0000E+00 0.9000E+01
#aMCatNLO 1  0  0  2  1 0.17580123D+02 0.00000000D+00  -5  6  0 0.00000000D+00 0.00000000D+00 0.00000000D+00 0.00000000D+00 0.00000000D+00
  <mgrwgt>
 0.1148906515D+00    6    2    0
 0.190678463063728D+03 0.000000000000000D+00 0.000000000000000D+00 0.190678463063728D+03
 0.190678463063728D+03 0.000000000000000D+00 0.000000000000000D+00 -.190678463063728D+03
 0.184621384990048D+03 -.556757480514884D+02 0.150941645860182D+02 -.123013954777500D+03
 0.108603777945627D+03 0.625459994879267D+02 0.447368818684305D+01 0.373570434022251D+02
 0.881317631917801D+02 -.687025143643822D+01 -.195678527728613D+02 0.856569113752752D+02
 0.000000000000000D+00 -.000000000000000D+00 0.000000000000000D+00 0.000000000000000D+00
 0.199942707512682D+03 0.000000000000000D+00 0.000000000000000D+00 0.199942707512682D+03
 0.199407483564492D+03 0.000000000000000D+00 0.000000000000000D+00 -.199407483564492D+03
 0.182252099595366D+03 -.483889275438719D+02 0.108123275973467D+02 -.123013954777500D+03
 0.111100521832470D+03 0.669097539278086D+02 0.190948543879456D+01 0.373570434022251D+02
 0.884093015245905D+02 -.336380274264550D+01 -.216282907513002D+02 0.856569113752752D+02
 0.175882681247472D+02 -.151570236412912D+02 0.890647771515900D+01 0.535223948189133D+00
0.421029117290D-05 0.000000000000D+00 0.000000000000D+00 0.299361404258D-05 0.000000000000D+00  6 21 1 25 -24 2 21 2 0.20757716D-01 0.41456918D-01 0.16949961D+05 0.16949961D+05 0.16949961D+05 0.12418167D+01  1  2  2  2  6  2        1 0.153675072203D-01 0.100000000000D+01
0.780575339804D-06 0.222183169332D-06 -.849936483942D-08 0.299361404258D-05 0.000000000000D+00  6 21 1 25 -24 2 21 4 0.20757716D-01 0.41456918D-01 0.16949961D+05 0.16949961D+05 0.16949961D+05 0.12418167D+01  1  2  3  2  6  2        1 0.439360586619D-02 0.100000000000D+01
0.413621510467D-06 0.000000000000D+00 0.000000000000D+00 0.299361404258D-05 0.000000000000D+00  6 21 1 25 -24 2 21 4 0.20757716D-01 0.41456918D-01 0.16949961D+05 0.16949961D+05 0.16949961D+05 0.12418167D+01  1  2 15  2  6  2        1 0.232814156700D-02 0.100000000000D+01
0.253726124677D-04 0.000000000000D+00 0.000000000000D+00 0.296219426738D-05 0.000000000000D+00  6 21 1 25 -24 2 21 4 0.20757716D-01 0.44315555D-01 0.19400948D+05 0.19400948D+05 0.19400948D+05 0.12352827D+01  1  2 12  2  6  2        1 0.128729073937D+00 0.100000000000D+01
-.768519696791D-05 0.000000000000D+00 0.000000000000D+00 0.299361404258D-05 0.000000000000D+00  6 21 1 25 -24 2 21 4 0.20757716D-01 0.41456918D-01 0.16949961D+05 0.16949961D+05 0.16949961D+05 0.12418167D+01  1  2  4  2  6  2        1 -.432574855485D-01 0.100000000000D+01
0.293079781984D-06 0.000000000000D+00 0.000000000000D+00 0.296219426738D-05 0.000000000000D+00  6 21 21 25 -24 2 -1 4 0.20757716D-01 0.44315555D-01 0.19400948D+05 0.19400948D+05 0.19400948D+05 0.12352827D+01  1  2 12 10  6  2        1 0.732980841487D-02 0.100000000000D+01
  </mgrwgt>
  </event>
  <event>
  6     66 -.42050411E-03 0.13640329E+02 0.75467711E-02 0.11995116E+00
       21 -1    0    0  501  503 0.00000000E+00 0.00000000E+00 0.13494764E+03 0.13494972E+03 0.75000000E+00 0.0000E+00 0.9000E+01
        1 -1    0    0  502    0 0.00000000E+00 0.00000000E+00 -.17258560E+04 0.17258560E+04 0.32000000E+00 0.0000E+00 0.9000E+01
       25  1    1    2    0    0 0.23028005E+02 -.46334391E+02 -.10729690E+04 0.10814641E+04 0.12500000E+03 0.0000E+00 0.9000E+01
      -24  1    1    2    0    0 -.54387303E+02 0.64854782E+02 -.57517415E+03 0.58690429E+03 0.80419002E+02 0.0000E+00 0.9000E+01
        2  1    1    2  501    0 0.25186923E+02 0.45970619E+01 -.63963153E+02 0.68897760E+02 0.32000000E+00 0.0000E+00 0.9000E+01
       21  1    1    2  502  503 0.61723752E+01 -.23117452E+02 0.12119797E+03 0.12353957E+03 0.75000000E+00 0.0000E+00 0.9000E+01
#aMCatNLO 2  0  0  1  2 0.23927282D+02 0.00000000D+00  -5  6  0 0.00000000D+00 0.00000000D+00 0.00000000D+00 0.00000000D+00 0.00000000D+00
  <mgrwgt>
 -.4493140291D+00    3    2    0
 0.146810438047328D+03 0.000000000000000D+00 0.000000000000000D+00 0.146810438047328D+03
 0.146810438047328D+03 0.000000000000000D+00 0.000000000000000D+00 -.146810438047328D+03
 0.146336058170726D+03 0.260502940385105D+02 -.576558784351272D+02 -.422661067916965D+02
 0.112439984855381D+03 -.519665050030155D+02 0.557865488817205D+02 0.190493454361787D+02
 0.348448330685488D+02 0.259162109645050D+02 0.186932955340671D+01 0.232167613555178D+02
 0.000000000000000D+00 0.000000000000000D+00 -.000000000000000D+00 0.000000000000000D+00
 0.158009912591835D+04 0.000000000000000D+00 0.000000000000000D+00 0.158009912591835D+04
 0.147396986646378D+03 0.000000000000000D+00 0.000000000000000D+00 -.147396986646378D+03
 0.141734140639123D+03 0.230274585468008D+02 -.463344255630628D+02 -.422661067916965D+02
 0.118297328817211D+03 -.543877236639978D+02 0.648547608431227D+02 0.190493454361787D+02
 0.345627153083563D+02 0.251878898764748D+02 0.459711705506824D+01 0.232167613555178D+02
 0.143290192780004D+04 0.617237524072219D+01 -.231174523351281D+02 0.143270213927197D+04
-.270562745634D-02 0.000000000000D+00 0.000000000000D+00 0.101516441143D-05 0.000000000000D+00  6 21 1 25 -24 2 21 4 0.20699792D-01 0.26445970D+00 0.22736141D+05 0.22736141D+05 0.22736141D+05 0.12277421D+01  1  2 13  1  6  1       21 -.801541226725D+00 0.100000000000D+01
-.270746839148D-02 0.000000000000D+00 0.000000000000D+00 0.101516441143D-05 0.000000000000D+00  6 21 1 25 -24 2 21 4 0.20869576D-01 0.26445970D+00 0.22736141D+05 0.22736141D+05 0.22736141D+05 0.12277421D+01  1  2 13  1  6  1       21 -.789971161066D+00 0.100000000000D+01
0.391634066283D-02 0.000000000000D+00 0.000000000000D+00 0.102863781069D-05 0.317447280657D-05  6 21 1 25 -24 2 21 4 0.20761324D-01 0.26551629D+00 0.22736141D+05 0.22736141D+05 0.22736141D+05 0.12277421D+01  1  2  1  1  6  1       21 0.114219835872D+01 0.100000000000D+01
  </mgrwgt>
  </event>
  <event>
  5     66 0.42050411E-03 0.14206240E+03 0.75467711E-02 0.10615867E+00
       21 -1    0    0  501  502 0.00000000E+00 0.00000000E+00 0.20706729E+03 0.20706865E+03 0.75000000E+00 0.0000E+00 0.9000E+01
        1 -1    0    0  502    0 -.00000000E+00 -.00000000E+00 -.96460929E+03 0.96460935E+03 0.32000000E+00 0.0000E+00 0.9000E+01
       25  1    1    2    0    0 0.19061183E+03 0.14023917E+03 -.65023320E+03 0.70315582E+03 0.12500000E+03 0.0000E+00 0.9000E+01
      -24  1    1    2    0    0 0.65802003E+02 0.54112896E+02 -.87391843E+02 0.14615970E+03 0.80419002E+02 0.0000E+00 0.9000E+01
        2  1    1    2  501    0 -.25641383E+03 -.19435206E+03 -.19916969E+02 0.32236247E+03 0.32000000E+00 0.0000E+00 0.9000E+01
#aMCatNLO 1  0  0  5  1 0.24442281D+02 0.00000000D+00  -5  6  0 0.00000000D+00 0.00000000D+00 0.00000000D+00 0.00000000D+00 0.00000000D+00
  <mgrwgt>
 0.1144779335D-01    7    2    0
 0.446922651311039D+03 0.000000000000000D+00 0.000000000000000D+00 0.446922651311039D+03
 0.446922651311039D+03 -.000000000000000D+00 -.000000000000000D+00 -.446922651311039D+03
 0.370638270482806D+03 0.190611859250474D+03 0.140239190332313D+03 -.256413369687504D+03
 0.117524950659163D+03 0.658020137701400D+02 0.541129036997682D+02 0.931593849497318D+01
 0.405682081480109D+03 -.256413873020614D+03 -.194352094032081D+03 0.247097431192531D+03
 0.000000000000000D+00 0.000000000000000D+00 -.000000000000000D+00 0.000000000000000D+00
 0.446922651311039D+03 0.000000000000000D+00 0.000000000000000D+00 0.446922651311039D+03
 0.446922651311039D+03 -.000000000000000D+00 -.000000000000000D+00 -.446922651311039D+03
 0.369489416289353D+03 0.189828931327064D+03 0.139645760345088D+03 -.255658888362431D+03
 0.117318612419317D+03 0.655535896313685D+02 0.539246075244887D+02 0.955533648781003D+01
 0.227084395594196D+03 -.139571801976505D+03 -.907853868142146D+02 0.154418419744557D+03
 0.179952878319213D+03 -.115810718981927D+03 -.102784981055362D+03 0.916851321300647D+02
0.738844709252D-05 0.000000000000D+00 0.000000000000D+00 0.189296398738D-06 0.000000000000D+00  6 21 1 25 -24 2 21 2 0.31856614D-01 0.14840154D+00 0.12479614D+06 0.12479614D+06 0.12479614D+06 0.11548365D+01  1  2  2  3  6  5        2 0.167923752315D-02 0.100000000000D+01
-.490634965428D-06 0.389899064944D-06 -.149151459738D-07 0.189296398738D-06 0.000000000000D+00  6 21 1 25 -24 2 21 4 0.31856614D-01 0.14840154D+00 0.12479614D+06 0.12479614D+06 0.12479614D+06 0.11548365D+01  1  2  3  3  6  5        2 -.148716267307D-03 0.100000000000D+01
0.758549365259D-06 0.000000000000D+00 0.000000000000D+00 0.189296398738D-06 0.000000000000D+00  6 21 1 25 -24 2 21 4 0.31856614D-01 0.14840154D+00 0.12479614D+06 0.12479614D+06 0.12479614D+06 0.11548365D+01  1  2 15  3  6  5        2 0.229923748038D-03 0.100000000000D+01
0.687585642292D-04 0.000000000000D+00 0.000000000000D+00 0.189350595627D-06 0.000000000000D+00  6 21 1 25 -24 2 21 4 0.31856614D-01 0.14840154D+00 0.12426813D+06 0.12426813D+06 0.12426813D+06 0.11550018D+01  1  2 12  3  6  5        2 0.208576797712D-01 0.100000000000D+01
-.732670598654D-04 0.000000000000D+00 0.000000000000D+00 0.189296398738D-06 0.000000000000D+00  6 21 1 25 -24 2 21 4 0.31856614D-01 0.14840154D+00 0.12479614D+06 0.12479614D+06 0.12479614D+06 0.11548365D+01  1  2  4  3  6  5        2 -.222079640212D-01 0.100000000000D+01
-.690741927184D-04 0.000000000000D+00 0.000000000000D+00 0.189296398738D-06 0.000000000000D+00  6 21 1 25 -24 2 21 4 0.31856614D-01 0.14840154D+00 0.12479614D+06 0.12479614D+06 0.12479614D+06 0.11548365D+01  1  2  5  3  6  5        2 -.209370648898D-01 0.100000000000D+01
0.105488827013D-03 0.000000000000D+00 -.000000000000D+00 0.189296398738D-06 0.000000000000D+00  6 21 1 25 -24 2 21 4 0.31856614D-01 0.14840154D+00 0.12479614D+06 0.12479614D+06 0.12479614D+06 0.11548365D+01  1  2  6  3  6  5        2 0.319746974868D-01 0.100000000000D+01
  </mgrwgt>
  </event>
  <event>
  5     66 0.42050411E-03 0.27225352E+02 0.75467711E-02 0.11962163E+00
       21 -1    0    0  501  502 0.00000000E+00 0.00000000E+00 0.45560236E+03 0.45560298E+03 0.75000000E+00 0.0000E+00 0.9000E+01
        1 -1    0    0  502    0 0.00000000E+00 0.00000000E+00 -.15830323E+03 0.15830356E+03 0.32000000E+00 0.0000E+00 0.9000E+01
       25  1    1    2    0    0 0.44400775E+02 -.31279440E+02 -.92116092E+02 0.16449987E+03 0.12500000E+03 0.0000E+00 0.9000E+01
      -24  1    1    2    0    0 -.69456228E+02 0.41930380E+02 0.81590146E+02 0.14037981E+03 0.80419002E+02 0.0000E+00 0.9000E+01
        2  1    1    2  501    0 0.25055454E+02 -.10650940E+02 0.30782508E+03 0.30902686E+03 0.32000000E+00 0.0000E+00 0.9000E+01
#aMCatNLO 1  0  0  2  1 0.21215090D+02 0.00000000D+00  -5  6  0 0.00000000D+00 0.00000000D+00 0.00000000D+00 0.00000000D+00 0.00000000D+00
  <mgrwgt>
 0.4182288949D-01    9    2    0
 0.268558404319958D+03 0.000000000000000D+00 0.000000000000000D+00 0.268558404319958D+03
 0.268558404319958D+03 0.000000000000000D+00 0.000000000000000D+00 -.268558404319958D+03
 0.239005052039273D+03 0.444007575324226D+02 -.312794331666703D+02 -.196337934927549D+03
 0.115288527048586D+03 -.694562367166539D+02 0.419303836351457D+02 0.155532190890394D+02
 0.182823229552057D+03 0.250554791842313D+02 -.106509504684754D+02 0.180784715838510D+03
 0.000000000000000D+00 -.000000000000000D+00 0.000000000000000D+00 -.000000000000000D+00
 0.272231259711429D+03 0.000000000000000D+00 0.000000000000000D+00 0.272231259711429D+03
 0.301255670385781D+03 0.000000000000000D+00 0.000000000000000D+00 -.301255670385781D+03
 0.241261243282446D+03 0.533141787212636D+02 -.345108847445848D+02 -.196337934927549D+03
 0.112234821421800D+03 -.652335555604560D+02 0.403995023499318D+02 0.155532190890394D+02
 0.184039558467105D+03 0.318642071336635D+02 -.131193713149320D+02 0.180784715838510D+03
 0.359513069258591D+02 -.199448302944711D+02 0.723075370958501D+01 -.290244106743512D+02
0.277660600616D-04 0.000000000000D+00 0.000000000000D+00 0.453118553664D-05 0.000000000000D+00  6 21 1 25 -24 2 21 2 0.70092744D-01 0.24354416D-01 0.19286190D+05 0.19286190D+05 0.19286190D+05 0.12355675D+01  1  2  2  2  6  2        1 0.170322936143D-01 0.100000000000D+01
0.649770412102D-05 0.146525524507D-05 -.560516755079D-07 0.453118553664D-05 0.000000000000D+00  6 21 1 25 -24 2 21 4 0.70092744D-01 0.24354416D-01 0.19286190D+05 0.19286190D+05 0.19286190D+05 0.12355675D+01  1  2  3  2  6  2        1 0.608487610384D-02 0.100000000000D+01
0.301013427935D-05 0.000000000000D+00 0.000000000000D+00 0.453118553664D-05 0.000000000000D+00  6 21 1 25 -24 2 21 4 0.70092744D-01 0.24354416D-01 0.19286190D+05 0.19286190D+05 0.19286190D+05 0.12355675D+01  1  2 15  2  6  2        1 0.281888707221D-02 0.100000000000D+01
0.487575843772D-03 0.000000000000D+00 0.000000000000D+00 0.446168059813D-05 0.000000000000D+00  6 21 1 25 -24 2 21 4 0.70092744D-01 0.27473346D-01 0.23567590D+05 0.23567590D+05 0.23567590D+05 0.12260545D+01  1  2 12  2  6  2        1 0.378556808795D+00 0.100000000000D+01
-.470852236842D-03 0.000000000000D+00 0.000000000000D+00 0.453118553664D-05 0.000000000000D+00  6 21 1 25 -24 2 21 4 0.70092744D-01 0.24354416D-01 0.19286190D+05 0.19286190D+05 0.19286190D+05 0.12355675D+01  1  2  4  2  6  2        1 -.440936901872D+00 0.100000000000D+01
-.676591808469D-03 0.000000000000D+00 -.985822434111D-04 0.453118553664D-05 0.000000000000D+00  6 21 1 25 -24 2 21 4 0.70092744D-01 0.27618944D-01 0.19286190D+05 0.19286190D+05 0.19286190D+05 0.12355675D+01  1  2  5  2  6  2        1 -.541171466716D+00 0.100000000000D+01
0.684345880306D-03 0.000000000000D+00 0.978074285975D-04 0.453118553664D-05 0.000000000000D+00  6 21 1 25 -24 2 21 4 0.70092744D-01 0.24354416D-01 0.19286190D+05 0.19286190D+05 0.19286190D+05 0.12355675D+01  1  2  6  2  6  2        1 0.640866345447D+00 0.100000000000D+01
0.928374003608D-05 0.000000000000D+00 0.000000000000D+00 0.446168059813D-05 0.000000000000D+00  6 21 21 25 -24 2 -1 4 0.70092744D-01 0.27473346D-01 0.23567590D+05 0.23567590D+05 0.23567590D+05 0.12260545D+01  1  2 12 10  6  2        1 0.501583661588D-01 0.100000000000D+01
-.128571039578D-04 0.000000000000D+00 -.194576770740D-05 0.453118553664D-05 0.000000000000D+00  6 21 21 25 -24 2 -1 4 0.70092744D-01 0.27618944D-01 0.19286190D+05 0.19286190D+05 0.19286190D+05 0.12355675D+01  1  2  5 10  6  2        1 -.715863191177D-01 0.100000000000D+01
  </mgrwgt>
  </event>
  <event>
  5     66 0.42050411E-03 0.11305565E+03 0.75467711E-02 0.11422414E+00
       21 -1    0    0  501  502 0.00000000E+00 0.00000000E+00 0.14883891E+04 0.14883893E+04 0.75000000E+00 0.0000E+00 0.9000E+01
        1 -1    0    0  502    0 0.00000000E+00 0.00000000E+00 -.25570119E+02 0.25572121E+02 0.32000000E+00 0.0000E+00 0.9000E+01
       25  1    1    2    0    0 -.56253831E+01 -.61076633E+02 0.42931329E+03 0.45132793E+03 0.12500000E+03 0.0000E+00 0.9000E+01
      -24  1    1    2    0    0 0.10459066E+03 0.64196318E+01 0.48983000E+03 0.50732737E+03 0.80419002E+02 0.0000E+00 0.9000E+01
        2  1    1    2  501    0 -.98965273E+02 0.54657001E+02 0.54367567E+03 0.55530608E+03 0.32000000E+00 0.0000E+00 0.9000E+01
#aMCatNLO 1  0  0  1  1 0.32457004D+02 0.00000000D+00  -5  6  0 0.00000000D+00 0.00000000D+00 0.00000000D+00 0.00000000D+00 0.00000000D+00
  <mgrwgt>
 0.6656582731D-02    4    2    0
 0.195089579577249D+03 0.000000000000000D+00 0.000000000000000D+00 0.195089579577249D+03
 0.195089579577249D+03 0.000000000000000D+00 0.000000000000000D+00 -.195089579577249D+03
 0.141692481869236D+03 -.562524724059244D+01 -.610767076373480D+02 -.262631261644139D+02
 0.132096954401769D+03 0.104590782867580D+03 0.641956184907464D+01 -.139526795454014D+01
 0.116389722883494D+03 -.989655356269879D+02 0.546571457882734D+02 0.276583941189540D+02
 0.000000000000000D+00 0.000000000000000D+00 -.000000000000000D+00 -.000000000000000D+00
 0.206043300244320D+03 0.000000000000000D+00 0.000000000000000D+00 0.206043300244320D+03
 0.221382738135377D+03 0.000000000000000D+00 0.000000000000000D+00 -.221382738135377D+03
 0.137374457973029D+03 -.848883749855008D+01 -.498490676480402D+02 -.262631261644139D+02
 0.130920467269672D+03 0.101891881568855D+03 0.170014850360779D+02 -.139526795454014D+01
 0.123231872513286D+03 -.101424365277545D+03 0.642977897438036D+02 0.276583941189540D+02
 0.358992406237101D+02 0.802132120723995D+01 -.314502071318412D+02 -.153394378910573D+02
0.437204419173D-04 0.000000000000D+00 0.000000000000D+00 0.202169693674D-06 0.000000000000D+00  6 21 1 25 -24 2 21 2 0.22898310D+00 0.39340330D-02 0.36937472D+05 0.36937472D+05 0.36937472D+05 0.12055291D+01  1  2  2  1  6  1       21 0.137657755353D-01 0.100000000000D+01
-.311814799910D-05 0.230719110647D-05 -.882589758133D-07 0.202169693674D-06 0.000000000000D+00  6 21 1 25 -24 2 21 4 0.22898310D+00 0.39340330D-02 0.36937472D+05 0.36937472D+05 0.36937472D+05 0.12055291D+01  1  2  3  1  6  1       21 -.142681690675D-02 0.100000000000D+01
0.452862849144D-05 0.000000000000D+00 0.000000000000D+00 0.202169693674D-06 0.000000000000D+00  6 21 1 25 -24 2 21 4 0.22898310D+00 0.39340330D-02 0.36937472D+05 0.36937472D+05 0.36937472D+05 0.12055291D+01  1  2 15  1  6  1       21 0.207223124042D-02 0.100000000000D+01
-.169468224102D-04 0.000000000000D+00 0.000000000000D+00 0.202169693674D-06 0.000000000000D+00  6 21 1 25 -24 2 21 4 0.22898310D+00 0.39340330D-02 0.36937472D+05 0.36937472D+05 0.36937472D+05 0.12055291D+01  1  2  4  1  6  1       21 -.775460713778D-02 0.100000000000D+01
  </mgrwgt>
  </event>
  <event>
  5     66 -.42050411E-03 0.22672491E+02 0.75467711E-02 0.11852099E+00
       21 -1    0    0  501  502 0.00000000E+00 0.00000000E+00 0.36054572E+02 0.36062372E+02 0.75000000E+00 0.0000E+00 0.9000E+01
        1 -1    0    0  502    0 -.00000000E+00 -.00000000E+00 -.13107748E+04 0.13107748E+04 0.32000000E+00 0.0000E+00 0.9000E+01
       25  1    1    2    0    0 0.93351664E+02 -.78593840E+02 -.38760106E+03 0.42514833E+03 0.12500000E+03 0.0000E+00 0.9000E+01
      -24  1    1    2    0    0 -.81406929E+02 0.59323188E+02 -.88959072E+03 0.89887997E+03 0.80419002E+02 0.0000E+00 0.9000E+01
        2  1    1    2  501    0 -.11944735E+02 0.19270652E+02 0.24715653E+01 0.22808897E+02 0.32000000E+00 0.0000E+00 0.9000E+01
#aMCatNLO 1  0  0  5  1 0.93308715D+01 0.00000000D+00  -5  6  0 0.00000000D+00 0.00000000D+00 0.00000000D+00 0.00000000D+00 0.00000000D+00
  <mgrwgt>
 -.2010646060D-01    6    2    0
 0.217404469162478D+03 0.000000000000000D+00 0.000000000000000D+00 0.217404469162478D+03
 0.217404469162478D+03 -.000000000000000D+00 -.000000000000000D+00 -.217404469162478D+03
 0.180591226324588D+03 0.933517062119495D+02 -.785939076948287D+02 0.457891651593826D+02
 0.176320569973304D+03 -.814068882465467D+02 0.593231220018112D+02 -.120313811274154D+03
 0.778971420270646D+02 -.119448179654028D+02 0.192707856930176D+02 0.745246461147711D+02
 0.000000000000000D+00 0.000000000000000D+00 0.000000000000000D+00 0.000000000000000D+00
 0.217404469162478D+03 0.000000000000000D+00 0.000000000000000D+00 0.217404469162478D+03
 0.217404469162478D+03 -.000000000000000D+00 -.000000000000000D+00 -.217404469162478D+03
 0.180670622263613D+03 0.931465263703100D+02 -.782628874341420D+02 0.470692981117944D+02
 0.175673918659926D+03 -.816068046609647D+02 0.596456506824427D+02 -.119066517252580D+03
 0.188293953130661D+02 -.873910476873668D+01 0.104625363627908D+02 0.129888224467824D+02
 0.596350020883519D+02 -.280061694060861D+01 0.815470038890856D+01 0.590083966940032D+02
0.413595629615D-05 0.000000000000D+00 0.000000000000D+00 0.153807350230D-05 0.000000000000D+00  6 21 1 25 -24 2 21 2 0.55474603D-02 0.20165826D+00 0.26610716D+05 0.26610716D+05 0.26610716D+05 0.12204010D+01  1  2  2  3  6  5        2 0.151806474643D-01 0.100000000000D+01
0.708475520121D-06 0.218260410114D-06 -.834930414010D-08 0.153807350230D-05 0.000000000000D+00  6 21 1 25 -24 2 21 4 0.55474603D-02 0.20165826D+00 0.26610716D+05 0.26610716D+05 0.26610716D+05 0.12204010D+01  1  2  3  3  6  5        2 0.387297190511D-02 0.100000000000D+01
0.442746839511D-06 0.000000000000D+00 0.000000000000D+00 0.153807350230D-05 0.000000000000D+00  6 21 1 25 -24 2 21 4 0.55474603D-02 0.20165826D+00 0.26610716D+05 0.26610716D+05 0.26610716D+05 0.12204010D+01  1  2 15  3  6  5        2 0.242033213824D-02 0.100000000000D+01
-.109659689468D-04 0.000000000000D+00 0.000000000000D+00 0.153807350230D-05 0.000000000000D+00  6 21 1 25 -24 2 21 4 0.55474603D-02 0.20165826D+00 0.26610716D+05 0.26610716D+05 0.26610716D+05 0.12204010D+01  1  2  4  3  6  5        2 -.599468696333D-01 0.100000000000D+01
-.243560562121D-05 0.000000000000D+00 0.000000000000D+00 0.153807350230D-05 0.000000000000D+00  6 21 1 25 -24 2 21 4 0.55474603D-02 0.20165826D+00 0.26610716D+05 0.26610716D+05 0.26610716D+05 0.12204010D+01  1  2  5  3  6  5        2 -.133145491622D-01 0.100000000000D+01
0.579534740713D-05 0.000000000000D+00 -.000000000000D+00 0.153807350230D-05 0.000000000000D+00  6 21 1 25 -24 2 21 4 0.55474603D-02 0.20165826D+00 0.26610716D+05 0.26610716D+05 0.26610716D+05 0.12204010D+01  1  2  6  3  6  5        2 0.316810066837D-01 0.100000000000D+01
  </mgrwgt>
  </event>
  <event>
  5     66 0.42050411E-03 0.22138314E+02 0.75467711E-02 0.11544555E+00
       21 -1    0    0  501  502 0.00000000E+00 0.00000000E+00 0.12457104E+03 0.12457329E+03 0.75000000E+00 0.0000E+00 0.9000E+01
        3 -1    0    0  502    0 0.00000000E+00 0.00000000E+00 -.39792448E+03 0.39792479E+03 0.50000000E+00 0.0000E+00 0.9000E+01
       25  1    1    2    0    0 0.11966198E+03 -.15341857E+01 -.14886875E+03 0.22827231E+03 0.12500000E+03 0.0000E+00 0.9000E+01
      -24  1    1    2    0    0 -.14126806E+03 -.32805767E+01 -.17510912E+03 0.23895155E+03 0.80419002E+02 0.0000E+00 0.9000E+01
        4  1    1    2  501    0 0.21606079E+02 0.48147624E+01 0.50624428E+02 0.55274224E+02 0.15500000E+01 0.0000E+00 0.9000E+01
#aMCatNLO 1  0  0  1  2 0.20632824D+02 0.00000000D+00  -5  6  0 0.00000000D+00 0.00000000D+00 0.00000000D+00 0.00000000D+00 0.00000000D+00
  <mgrwgt>
 0.3682605769D-01    4    2    0
 0.222644418684896D+03 0.000000000000000D+00 0.000000000000000D+00 0.222644418684896D+03
 0.222644418684896D+03 0.000000000000000D+00 0.000000000000000D+00 -.222644418684896D+03
 0.176465562182397D+03 0.119660859738137D+03 -.153443477660388D+01 -.345545770194861D+02
 0.172890403347224D+03 -.141269151392009D+03 -.328082071288000D+01 -.587889334452212D+02
 0.959328718401714D+02 0.216082916538723D+02 0.481525548948388D+01 0.933435104647074D+02
 0.000000000000000D+00 -.000000000000000D+00 -.000000000000000D+00 -.000000000000000D+00
 0.224378098556376D+03 0.000000000000000D+00 0.000000000000000D+00 0.224378098556376D+03
 0.365618262311514D+03 0.000000000000000D+00 0.000000000000000D+00 -.365618262311514D+03
 0.180296055346495D+03 0.124992442482868D+03 0.803356102098823D+01 -.345545770194861D+02
 0.168814154339689D+03 -.136162587137205D+03 0.588335954454828D+01 -.587889334452212D+02
 0.970188731199653D+02 0.244918366975367D+02 0.999003157022958D+01 0.933435104647074D+02
 0.143867278061740D+03 -.133216920431996D+02 -.239069521357661D+02 -.141240163755138D+03
0.518867273626D-04 0.000000000000D+00 0.000000000000D+00 0.258716621605D-05 0.000000000000D+00  6 21 3 25 -24 4 21 2 0.19164973D-01 0.61219349D-01 0.32000908D+05 0.32000908D+05 0.32000908D+05 0.12119664D+01  1  2  2  1  6  1       21 0.248172459187D-01 0.100000000000D+01
0.126499892624D-04 0.273813782901D-05 -.104744353316D-06 0.258716621605D-05 0.000000000000D+00  6 21 3 25 -24 4 21 4 0.19164973D-01 0.61219349D-01 0.32000908D+05 0.32000908D+05 0.32000908D+05 0.12119664D+01  1  2  3  1  6  1       21 0.888727445428D-02 0.100000000000D+01
0.553403932021D-05 0.000000000000D+00 0.000000000000D+00 0.258716621605D-05 0.000000000000D+00  6 21 3 25 -24 4 21 4 0.19164973D-01 0.61219349D-01 0.32000908D+05 0.32000908D+05 0.32000908D+05 0.12119664D+01  1  2 15  1  6  1       21 0.388795004166D-02 0.100000000000D+01
-.109089831671D-05 0.000000000000D+00 0.000000000000D+00 0.258716621605D-05 0.000000000000D+00  6 21 3 25 -24 4 21 4 0.19164973D-01 0.61219349D-01 0.32000908D+05 0.32000908D+05 0.32000908D+05 0.12119664D+01  1  2  4  1  6  1       21 -.766412725044D-03 0.100000000000D+01
  </mgrwgt>
  </event>
  <event>
  5     66 0.42050411E-03 0.37321773E+02 0.75467711E-02 0.11961711E+00
       21 -1    0    0  501  502 0.00000000E+00 0.00000000E+00 0.23138185E+03 0.23138306E+03 0.75000000E+00 0.0000E+00 0.9000E+01
        1 -1    0    0  502    0 0.00000000E+00 0.00000000E+00 -.77786961E+03 0.77786968E+03 0.32000000E+00 0.0000E+00 0.9000E+01
       25  1    1    2    0    0 0.10867580E+02 -.81301483E+02 -.74276526E+03 0.75766303E+03 0.12500000E+03 0.0000E+00 0.9000E+01
      -24  1    1    2    0    0 -.24169757E+02 0.46430791E+02 0.66996085E+02 0.11702857E+03 0.80419002E+02 0.0000E+00 0.9000E+01
        2  1    1    2  501    0 0.13302177E+02 0.34870692E+02 0.12928141E+03 0.13456114E+03 0.32000000E+00 0.0000E+00 0.9000E+01
#aMCatNLO 1  0  0  1  2 0.22367406D+02 0.00000000D+00  -5  6  0 0.00000000D+00 0.00000000D+00 0.00000000D+00 0.00000000D+00 0.00000000D+00
  <mgrwgt>
 0.1125464325D+00   23    2    0
 0.424247045158823D+03 0.000000000000000D+00 0.000000000000000D+00 0.424247045158823D+03
 0.424247045158823D+03 0.000000000000000D+00 0.000000000000000D+00 -.424247045158823D+03
 0.422821389557563D+03 0.108675743748178D+02 -.813014981850922D+02 -.395505865553793D+03
 0.182351199683712D+03 -.241697591167951D+02 0.464307849142988D+02 0.155063693455937D+03
 0.243321501076372D+03 0.133021847419773D+02 0.348707132707934D+02 0.240442172097857D+03
 0.000000000000000D+00 0.000000000000000D+00 -.000000000000000D+00 0.000000000000000D+00
 0.658231957647839D+03 0.000000000000000D+00 0.000000000000000D+00 0.658231957647839D+03
 0.424929308883058D+03 0.000000000000000D+00 0.000000000000000D+00 -.424929308883058D+03
 0.420895913608350D+03 0.631069772222232D+01 -.711593669098504D+02 -.395505865553793D+03
 0.183792134446904D+03 -.261472816880907D+02 0.508321095598563D+02 0.155063693455937D+03
 0.244100808005486D+03 0.106696402488457D+02 0.407299045267271D+02 0.240442172097857D+03
 0.234372410470157D+03 0.916694371702271D+01 -.204026471767330D+02 0.233302648764780D+03
0.184190975039D-04 0.000000000000D+00 0.000000000000D+00 0.314801389840D-06 0.000000000000D+00  6 21 1 25 -24 2 21 2 0.35597306D-01 0.11967235D+00 0.19991883D+05 0.19991883D+05 0.19991883D+05 0.12338455D+01  1  2  2  1  6  1       21 0.588551803077D-02 0.100000000000D+01
0.274830129200D-05 0.972002479541D-06 -.371828510832D-07 0.314801389840D-06 0.000000000000D+00  6 21 1 25 -24 2 21 4 0.35597306D-01 0.11967235D+00 0.19991883D+05 0.19991883D+05 0.19991883D+05 0.12338455D+01  1  2  3  1  6  1       21 0.133691015100D-02 0.100000000000D+01
0.181464020488D-05 0.000000000000D+00 0.000000000000D+00 0.314801389840D-06 0.000000000000D+00  6 21 1 25 -24 2 21 4 0.35597306D-01 0.11967235D+00 0.19991883D+05 0.19991883D+05 0.19991883D+05 0.12338455D+01  1  2 15  1  6  1       21 0.882731059141D-03 0.100000000000D+01
0.163607313276D-02 0.000000000000D+00 0.000000000000D+00 0.310826664558D-06 0.000000000000D+00  6 21 1 25 -24 2 21 4 0.55245897D-01 0.11967235D+00 0.23579232D+05 0.23579232D+05 0.23579232D+05 0.12260314D+01  1  2 12  1  6  1       21 0.314644501316D+00 0.100000000000D+01
-.121314803728D-02 0.000000000000D+00 0.000000000000D+00 0.314801389840D-06 0.000000000000D+00  6 21 1 25 -24 2 21 4 0.35597306D-01 0.11967235D+00 0.19991883D+05 0.19991883D+05 0.19991883D+05 0.12338455D+01  1  2  4  1  6  1       21 -.590135415803D+00 0.100000000000D+01
-.325735896139D-02 0.000000000000D+00 -.225404395968D-04 0.314801389840D-06 0.000000000000D+00  6 21 1 25 -24 2 21 4 0.55264421D-01 0.11967235D+00 0.19991883D+05 0.19991883D+05 0.19991883D+05 0.12338455D+01  1  2  5  1  6  1       21 -.647669485608D+00 0.100000000000D+01
0.221624829884D-02 0.000000000000D+00 0.157417446455D-04 0.314801389840D-06 0.000000000000D+00  6 21 1 25 -24 2 21 4 0.35597306D-01 0.11967235D+00 0.19991883D+05 0.19991883D+05 0.19991883D+05 0.12338455D+01  1  2  6  1  6  1       21 0.107809316849D+01 0.100000000000D+01
0.258895628507D-03 0.000000000000D+00 0.000000000000D+00 0.310826664558D-06 0.000000000000D+00  6 -1 1 25 -24 2 -1 4 0.55245897D-01 0.11967235D+00 0.23579232D+05 0.23579232D+05 0.23579232D+05 0.12260314D+01  1  2 12  4  6  1       21 0.502789641145D-02 0.100000000000D+01
-.514912011845D-03 0.000000000000D+00 -.338049036704D-05 0.314801389840D-06 0.000000000000D+00  6 -1 1 25 -24 2 -1 4 0.55264421D-01 0.11967235D+00 0.19991883D+05 0.19991883D+05 0.19991883D+05 0.12338455D+01  1  2  5  4  6  1       21 -.103009965925D-01 0.100000000000D+01
0.258895628507D-03 0.000000000000D+00 0.000000000000D+00 0.310826664558D-06 0.000000000000D+00  6 1 1 25 -24 2 1 4 0.55245897D-01 0.11967235D+00 0.23579232D+05 0.23579232D+05 0.23579232D+05 0.12260314D+01  1  2 12  5  6  1       21 0.121639638063D-01 0.100000000000D+01
-.514912011845D-03 0.000000000000D+00 -.338049036704D-05 0.314801389840D-06 0.000000000000D+00  6 1 1 25 -24 2 1 4 0.55264421D-01 0.11967235D+00 0.19991883D+05 0.19991883D+05 0.19991883D+05 0.12338455D+01  1  2  5  5  6  1       21 -.249191972307D-01 0.100000000000D+01
0.258895628507D-03 0.000000000000D+00 0.000000000000D+00 0.310826664558D-06 0.000000000000D+00  6 -2 1 25 -24 2 -2 4 0.55245897D-01 0.11967235D+00 0.23579232D+05 0.23579232D+05 0.23579232D+05 0.12260314D+01  1  2 12  6  6  1       21 0.405432770171D-02 0.100000000000D+01
-.514912011845D-03 0.000000000000D+00 -.338049036704D-05 0.314801389840D-06 0.000000000000D+00  6 -2 1 25 -24 2 -2 4 0.55264421D-01 0.11967235D+00 0.19991883D+05 0.19991883D+05 0.19991883D+05 0.12338455D+01  1  2  5  6  6  1       21 -.830108406017D-02 0.100000000000D+01
0.258895628507D-03 0.000000000000D+00 0.000000000000D+00 0.310826664558D-06 0.000000000000D+00  6 2 1 25 -24 2 2 4 0.55245897D-01 0.11967235D+00 0.23579232D+05 0.23579232D+05 0.23579232D+05 0.12260314D+01  1  2 12  7  6  1       21 0.177721347291D-01 0.100000000000D+01
-.514912011845D-03 0.000000000000D+00 -.338049036704D-05 0.314801389840D-06 0.000000000000D+00  6 2 1 25 -24 2 2 4 0.55264421D-01 0.11967235D+00 0.19991883D+05 0.19991883D+05 0.19991883D+05 0.12338455D+01  1  2  5  7  6  1       21 -.363890645288D-01 0.100000000000D+01
0.258895628507D-03 0.000000000000D+00 0.000000000000D+00 0.310826664558D-06 0.000000000000D+00  6 -3 1 25 -24 2 -3 4 0.55245897D-01 0.11967235D+00 0.23579232D+05 0.23579232D+05 0.23579232D+05 0.12260314D+01  1  2 12  8  6  1       21 0.253942024366D-02 0.100000000000D+01
0.258895628507D-03 0.000000000000D+00 0.000000000000D+00 0.310826664558D-06 0.000000000000D+00  6 -4 1 25 -24 2 -4 4 0.55245897D-01 0.11967235D+00 0.23579232D+05 0.23579232D+05 0.23579232D+05 0.12260314D+01  1  2 12  8  6  1       21 0.208134220475D-02 0.100000000000D+01
-.514912011845D-03 0.000000000000D+00 -.338049036704D-05 0.314801389840D-06 0.000000000000D+00  6 -3 1 25 -24 2 -3 4 0.55264421D-01 0.11967235D+00 0.19991883D+05 0.19991883D+05 0.19991883D+05 0.12338455D+01  1  2  5  8  6  1       21 -.518118021983D-02 0.100000000000D+01
-.514912011845D-03 0.000000000000D+00 -.338049036704D-05 0.314801389840D-06 0.000000000000D+00  6 -4 1 25 -24 2 -4 4 0.55264421D-01 0.11967235D+00 0.19991883D+05 0.19991883D+05 0.19991883D+05 0.12338455D+01  1  2  5  8  6  1       21 -.423860323158D-02 0.100000000000D+01
0.258895628507D-03 0.000000000000D+00 0.000000000000D+00 0.310826664558D-06 0.000000000000D+00  6 3 1 25 -24 2 3 4 0.55245897D-01 0.11967235D+00 0.23579232D+05 0.23579232D+05 0.23579232D+05 0.12260314D+01  1  2 12  9  6  1       21 0.254081114950D-02 0.100000000000D+01
0.258895628507D-03 0.000000000000D+00 0.000000000000D+00 0.310826664558D-06 0.000000000000D+00  6 4 1 25 -24 2 4 4 0.55245897D-01 0.11967235D+00 0.23579232D+05 0.23579232D+05 0.23579232D+05 0.12260314D+01  1  2 12  9  6  1       21 0.208134220475D-02 0.100000000000D+01
-.514912011845D-03 0.000000000000D+00 -.338049036704D-05 0.314801389840D-06 0.000000000000D+00  6 3 1 25 -24 2 3 4 0.55264421D-01 0.11967235D+00 0.19991883D+05 0.19991883D+05 0.19991883D+05 0.12338455D+01  1  2  5  9  6  1       21 -.518400452412D-02 0.100000000000D+01
-.514912011845D-03 0.000000000000D+00 -.338049036704D-05 0.314801389840D-06 0.000000000000D+00  6 4 1 25 -24 2 4 4 0.55264421D-01 0.11967235D+00 0.19991883D+05 0.19991883D+05 0.19991883D+05 0.12338455D+01  1  2  5  9  6  1       21 -.423860323158D-02 0.100000000000D+01
  </mgrwgt>
  </event>
  <event>
  6     66 0.42050411E-03 0.11327456E+03 0.75467711E-02 0.11356743E+00
       21 -1    0    0  501  502 0.00000000E+00 0.00000000E+00 0.66142021E+02 0.66146274E+02 0.75000000E+00 0.0000E+00 0.9000E+01
        3 -1    0    0  502    0 -.00000000E+00 -.00000000E+00 -.73504902E+03 0.73504919E+03 0.50000000E+00 0.0000E+00 0.9000E+01
       25  1    1    2    0    0 -.54960422E+02 -.97595813E+02 -.26156184E+03 0.31078157E+03 0.12500000E+03 0.0000E+00 0.9000E+01
      -24  1    1    2    0    0 0.11225048E+03 -.57784811E+01 -.24313370E+03 0.27966904E+03 0.80419002E+02 0.0000E+00 0.9000E+01
        4  1    1    2  503    0 -.48124036E+02 0.10848969E+03 -.13533642E+03 0.18001191E+03 0.15500000E+01 0.0000E+00 0.9000E+01
       21  1    1    2  501  503 -.91660256E+01 -.51153999E+01 -.28875038E+02 0.30732941E+02 0.75000000E+00 0.0000E+00 0.9000E+01
#aMCatNLO 2  0  0  5  2 0.12118971D+02 0.00000000D+00  -5  6  0 0.00000000D+00 0.00000000D+00 0.00000000D+00 0.00000000D+00 0.00000000D+00
  <mgrwgt>
 0.2342461464D-02    2    2    0
 0.220498071158124D+03 0.000000000000000D+00 0.000000000000000D+00 0.220498071158124D+03
 0.220498071158124D+03 -.000000000000000D+00 -.000000000000000D+00 -.220498071158124D+03
 0.169813798895856D+03 -.524177727614429D+02 -.102183774796847D+03 -.475179570679515D+01
 0.141326729678894D+03 0.114363508249133D+03 -.959122711050525D+01 -.183036857169752D+02
 0.129855613741499D+03 -.619457354876905D+02 0.111775001907352D+03 0.230554814237703D+02
 0.000000000000000D+00 0.000000000000000D+00 0.000000000000000D+00 -.000000000000000D+00
 0.220498071158124D+03 0.000000000000000D+00 0.000000000000000D+00 0.220498071158124D+03
 0.220498071158124D+03 -.000000000000000D+00 -.000000000000000D+00 -.220498071158124D+03
 0.167864654130752D+03 -.549870759788983D+02 -.975477192270697D+02 -.379553096741131D+01
 0.139290770767597D+03 0.112228366251445D+03 -.573857286424997D+01 -.175090107280150D+02
 0.121674133685093D+03 -.479552066259565D+02 0.108461383209325D+03 0.272217067392852D+02
 0.121665837328069D+02 -.928608364659048D+01 -.517509111800554D+01 -.591716504385887D+01
-.257089644464D-05 0.000000000000D+00 0.000000000000D+00 0.141444003293D-06 0.000000000000D+00  6 21 3 25 -24 4 21 4 0.10176036D-01 0.11308480D+00 0.47890123D+05 0.47890123D+05 0.47890123D+05 0.11941406D+01  1  2  8  3  6  5        4 -.138762733273D-02 0.100000000000D+01
0.689982359453D-05 0.000000000000D+00 0.000000000000D+00 0.141444003293D-06 0.121873449876D-07  6 21 3 25 -24 4 21 4 0.10176036D-01 0.11308480D+00 0.47355933D+05 0.47355933D+05 0.47355933D+05 0.11946257D+01  1  2  1  3  6  5        4 0.373008879701D-02 0.100000000000D+01
  </mgrwgt>
  </event>
  <event>
  6     66 0.42050411E-03 0.62732760E+02 0.75467711E-02 0.11179662E+00
        1 -1    0    0  501    0 0.00000000E+00 0.00000000E+00 0.28809145E+03 0.28809163E+03 0.32000000E+00 0.0000E+00 0.9000E+01
        1 -1    0    0  502    0 0.00000000E+00 0.00000000E+00 -.19774608E+04 0.19774608E+04 0.32000000E+00 0.0000E+00 0.9000E+01
       25  1    1    2    0    0 0.73501428E+02 0.90841608E+02 -.87141430E+03 0.88805548E+03 0.12500000E+03 0.0000E+00 0.9000E+01
      -24  1    1    2    0    0 -.16603383E+02 -.58923849E+02 -.53154302E+03 0.54106643E+03 0.80419002E+02 0.0000E+00 0.9000E+01
        2  1    1    2  501    0 -.95079135E+02 0.60946120E+02 -.54628397E+03 0.55783577E+03 0.32000000E+00 0.0000E+00 0.9000E+01
        1  1    1    2  502    0 0.38181089E+02 -.92863880E+02 0.25987196E+03 0.27859475E+03 0.32000000E+00 0.0000E+00 0.9000E+01
#aMCatNLO 2  0  0  1  2 0.15013581D+02 0.00000000D+00  -5  6  0 0.00000000D+00 0.00000000D+00 0.00000000D+00 0.00000000D+00 0.00000000D+00
  <mgrwgt>
 0.2785994154D-01    1    2    0
 0.185995815690308D+03 0.000000000000000D+00 0.000000000000000D+00 0.185995815690308D+03
 0.185995815690308D+03 0.000000000000000D+00 0.000000000000000D+00 -.185995815690308D+03
 0.162106966409623D+03 0.903020038354092D+02 0.499797693464402D+02 -.111324656606445D+01
 0.117767427696178D+03 -.556630763686473D+01 -.857678501378443D+02 -.385268397719563D+01
 0.921172372748151D+02 -.847356961985445D+02 0.357880807914041D+02 0.496593054326008D+01
 0.000000000000000D+00 0.000000000000000D+00 -.000000000000000D+00 0.000000000000000D+00
 0.294309235658654D+04 0.000000000000000D+00 0.000000000000000D+00 0.294309235658654D+04
 0.193568415939727D+03 0.000000000000000D+00 0.000000000000000D+00 -.193568415939727D+03
 0.171116670608552D+03 0.735016437572261D+02 0.908415323914383D+02 -.111324656606445D+01
 0.101142243513404D+03 -.166032236666752D+02 -.589239107544670D+02 -.385268397719563D+01
 0.113045211957567D+03 -.950795092979675D+02 0.609462582282819D+02 0.496593054326008D+01
 0.275135664644675D+04 0.381810892074166D+02 -.928638798652532D+02 0.274952394064682D+04
0.360100606079D-02 0.000000000000D+00 0.000000000000D+00 0.182585296042D-06 0.373624289504D-07  6 1 1 25 -24 2 1 4 0.44321776D-01 0.30422474D+00 0.58933541D+05 0.58933541D+05 0.58933541D+05 0.11852754D+01  1  2  1  5  6  1       21 0.278599415396D-01 0.100000000000D+01
  </mgrwgt>
  </event>
  <event>
  6     66 0.42050411E-03 0.76423175E+02 0.75467711E-02 0.11542806E+00
       21 -1    0    0  501  502 0.00000000E+00 0.00000000E+00 0.22395848E+02 0.22408403E+02 0.75000000E+00 0.0000E+00 0.9000E+01
        1 -1    0    0  502    0 -.00000000E+00 -.00000000E+00 -.26678489E+04 0.26678489E+04 0.32000000E+00 0.0000E+00 0.9000E+01
       25  1    1    2    0    0 -.79381362E+02 0.64491680E+02 -.14484322E+04 0.14574091E+04 0.12500000E+03 0.0000E+00 0.9000E+01
      -24  1    1    2    0    0 0.12111973E+03 0.43835556E+01 -.10792301E+04 0.10889877E+04 0.80419002E+02 0.0000E+00 0.9000E+01
        2  1    1    2  503    0 -.30089753E+02 -.61991364E+02 -.10130639E+03 0.12252106E+03 0.32000000E+00 0.0000E+00 0.9000E+01
       21  1    1    2  501  503 -.11648614E+02 -.68838717E+01 -.16484383E+02 0.21339524E+02 0.75000000E+00 0.0000E+00 0.9000E+01
#aMCatNLO 2  0  0  5  1 0.70453729D+01 0.00000000D+00  -5  6  0 0.00000000D+00 0.00000000D+00 0.00000000D+00 0.00000000D+00 0.00000000D+00
  <mgrwgt>
 0.3855105007D-01    2    2    0
 0.244470147305563D+03 0.000000000000000D+00 0.000000000000000D+00 0.244470147305563D+03
 0.244470147305563D+03 -.000000000000000D+00 -.000000000000000D+00 -.244470147305563D+03
 0.182297680260799D+03 -.792704429888559D+02 0.646747145583279D+02 -.845033868766085D+02
 0.152749859150798D+03 0.121212664003968D+03 0.453691359532914D+01 -.463919175752388D+02
 0.153892755199530D+03 -.419422210151119D+02 -.692116281536571D+02 0.130895304451847D+03
 0.000000000000000D+00 0.000000000000000D+00 0.000000000000000D+00 0.000000000000000D+00
 0.244470147305563D+03 0.000000000000000D+00 0.000000000000000D+00 0.244470147305563D+03
 0.244470147305563D+03 -.000000000000000D+00 -.000000000000000D+00 -.244470147305563D+03
 0.182120960831925D+03 -.793813130146198D+02 0.644917606085647D+02 -.841573783576100D+02
 0.152583832690236D+03 0.121119769869410D+03 0.438362285051268D+01 -.461020090837371D+02
 0.126004818438484D+03 -.300677437635104D+02 -.620135487470413D+02 0.105486799299654D+03
 0.282306826504816D+02 -.116707130912799D+02 -.686183471203608D+01 0.247725881416926D+02
-.359424005098D-04 0.000000000000D+00 0.000000000000D+00 0.477429523202D-06 0.000000000000D+00  6 21 1 25 -24 2 21 4 0.34464823D-02 0.41043926D+00 0.37911928D+05 0.37911928D+05 0.37911928D+05 0.12043720D+01  1  2 13  3  6  5        2 -.537315434521D-01 0.100000000000D+01
0.617301816278D-04 0.000000000000D+00 0.000000000000D+00 0.477688103367D-06 0.878383044013D-07  6 21 1 25 -24 2 21 4 0.34464823D-02 0.41043926D+00 0.37911928D+05 0.37911928D+05 0.37911928D+05 0.12043720D+01  1  2  1  3  6  5        2 0.922825935218D-01 0.100000000000D+01
  </mgrwgt>
  </event>
  <event>
  5     66 -.42050411E-03 0.23900517E+02 0.75467711E-02 0.11570313E+00
       21 -1    0    0  501  502 0.00000000E+00 0.00000000E+00 0.11386011E+04 0.11386014E+04 0.75000000E+00 0.0000E+00 0.9000E+01
        3 -1    0    0  502    0 0.00000000E+00 0.00000000E+00 -.40634927E+02 0.40638003E+02 0.50000000E+00 0.0000E+00 0.9000E+01
       25  1    1    2    0    0 0.67528711E+02 -.13450660E+03 0.39789371E+03 0.44339211E+03 0.12500000E+03 0.0000E+00 0.9000E+01
      -24  1    1    2    0    0 -.82799122E+02 0.11612789E+03 0.36643616E+03 0.40135279E+03 0.80419002E+02 0.0000E+00 0.9000E+01
        4  1    1    2  501    0 0.15270411E+02 0.18378710E+02 0.33363634E+03 0.33449450E+03 0.15500000E+01 0.0000E+00 0.9000E+01
#aMCatNLO 1  0  0  5  1 0.29186174D+01 0.00000000D+00  -5  6  0 0.00000000D+00 0.00000000D+00 0.00000000D+00 0.00000000D+00 0.00000000D+00
  <mgrwgt>
 -.1986548378D+00    8    2    0
 0.215102146203108D+03 0.000000000000000D+00 0.000000000000000D+00 0.215102146203108D+03
 0.215102146203108D+03 -.000000000000000D+00 -.000000000000000D+00 -.215102146203108D+03
 0.199888026559554D+03 0.675267161765519D+02 -.134508997936485D+03 -.409596782019463D+02
 0.164936948670197D+03 -.828007679942036D+02 0.116125906812969D+03 -.198944130021545D+02
 0.653793171764650D+02 0.152740518176517D+02 0.183830911235158D+02 0.608540912041008D+02
 0.000000000000000D+00 0.000000000000000D+00 0.000000000000000D+00 0.000000000000000D+00
 0.215102146203108D+03 0.000000000000000D+00 0.000000000000000D+00 0.215102146203108D+03
 0.215102146203108D+03 -.000000000000000D+00 -.000000000000000D+00 -.215102146203108D+03
 0.199849410941084D+03 0.675567152682548D+02 -.134472892517767D+03 -.408401573646255D+02
 0.164933635661400D+03 -.827760121995717D+02 0.116155701659418D+03 -.197957822391884D+02
 0.250366041434735D+02 0.758157071432493D+01 0.905058565296789D+01 0.220780033490118D+02
 0.403846416602588D+02 0.763772621699200D+01 0.926660520538142D+01 0.385579362548021D+02
0.894372121392D-05 0.000000000000D+00 0.000000000000D+00 0.141496343398D-05 0.000000000000D+00  6 21 3 25 -24 4 21 2 0.17516966D+00 0.62517828D-02 0.36725830D+05 0.36725830D+05 0.36725830D+05 0.12057849D+01  1  2  2  3  6  5        4 0.200280309624D-02 0.100000000000D+01
0.158800842150D-05 0.471973135188D-06 -.180547963306D-07 0.141496343398D-05 0.000000000000D+00  6 21 3 25 -24 4 21 4 0.17516966D+00 0.62517828D-02 0.36725830D+05 0.36725830D+05 0.36725830D+05 0.12057849D+01  1  2  3  3  6  5        4 0.517026110530D-03 0.100000000000D+01
0.802278606143D-06 0.000000000000D+00 0.000000000000D+00 0.141496343398D-05 0.000000000000D+00  6 21 3 25 -24 4 21 4 0.17516966D+00 0.62517828D-02 0.36725830D+05 0.36725830D+05 0.36725830D+05 0.12057849D+01  1  2 15  3  6  5        4 0.261207045050D-03 0.100000000000D+01
0.116200847262D-05 0.000000000000D+00 0.000000000000D+00 0.141501325507D-05 0.000000000000D+00  6 21 3 25 -24 4 21 4 0.17516966D+00 0.62517828D-02 0.36708329D+05 0.36708329D+05 0.36708329D+05 0.12058061D+01  1  2 12  3  6  5        4 0.378358917714D-03 0.100000000000D+01
-.949760624266D-03 0.000000000000D+00 0.000000000000D+00 0.141496343398D-05 0.000000000000D+00  6 21 3 25 -24 4 21 4 0.17516966D+00 0.62517828D-02 0.36725830D+05 0.36725830D+05 0.36725830D+05 0.12057849D+01  1  2  4  3  6  5        4 -.309224456779D+00 0.100000000000D+01
-.873183682089D-04 0.000000000000D+00 0.000000000000D+00 0.141496343398D-05 0.000000000000D+00  6 21 3 25 -24 4 21 4 0.17516966D+00 0.62517828D-02 0.36725830D+05 0.36725830D+05 0.36725830D+05 0.12057849D+01  1  2  5  3  6  5        4 -.284292423652D-01 0.100000000000D+01
0.199215105381D-03 0.000000000000D+00 -.000000000000D+00 0.141496343398D-05 0.000000000000D+00  6 21 3 25 -24 4 21 4 0.17516966D+00 0.62517828D-02 0.36725830D+05 0.36725830D+05 0.36725830D+05 0.12057849D+01  1  2  6  3  6  5        4 0.648607461394D-01 0.100000000000D+01
0.217988450081D-03 0.000000000000D+00 0.000000000000D+00 0.141496343398D-05 0.723301427988D-06  6 21 3 25 -24 4 21 4 0.17516966D+00 0.62517828D-02 0.36708329D+05 0.36708329D+05 0.36708329D+05 0.12058061D+01  1  2 11  3  6  5        4 0.709787200267D-01 0.100000000000D+01
  </mgrwgt>
  </event>
  <event>
  5     66 0.42050411E-03 0.11547860E+03 0.75467711E-02 0.11116263E+00
       21 -1    0    0  501  502 0.00000000E+00 0.00000000E+00 0.35119834E+03 0.35119914E+03 0.75000000E+00 0.0000E+00 0.9000E+01
        1 -1    0    0  502    0 0.00000000E+00 0.00000000E+00 -.13981847E+03 0.13981883E+03 0.32000000E+00 0.0000E+00 0.9000E+01
       25  1    1    2    0    0 -.59664689E+00 -.98320878E+02 0.30469669E+02 0.16192823E+03 0.12500000E+03 0.0000E+00 0.9000E+01
      -24  1    1    2    0    0 0.36923280E+02 -.62961001E+02 0.85420884E+02 0.13817149E+03 0.80419002E+02 0.0000E+00 0.9000E+01
        2  1    1    2  501    0 -.36326633E+02 0.16128188E+03 0.95489321E+02 0.19091826E+03 0.32000000E+00 0.0000E+00 0.9000E+01
#aMCatNLO 1  0  0  1  2 0.67836903D+02 0.00000000D+00  -5  6  0 0.00000000D+00 0.00000000D+00 0.00000000D+00 0.00000000D+00 0.00000000D+00
  <mgrwgt>
 0.2828848735D-01   23    2    0
 0.221594901665707D+03 0.000000000000000D+00 0.000000000000000D+00 0.221594901665707D+03
 0.221594901665707D+03 0.000000000000000D+00 0.000000000000000D+00 -.221594901665707D+03
 0.164870733434710D+03 -.596621770967918D+00 -.983209899091620D+02 -.434739661066708D+02
 0.112341141576624D+03 0.369232971088786D+02 -.629610768891630D+02 0.287382856819059D+02
 0.165977928320082D+03 -.363266753379107D+02 0.161282066798325D+03 0.147356804247650D+02
 0.000000000000000D+00 0.000000000000000D+00 -.000000000000000D+00 0.000000000000000D+00
 0.275292362678770D+03 0.000000000000000D+00 0.000000000000000D+00 0.275292362678770D+03
 0.246682337651081D+03 0.000000000000000D+00 0.000000000000000D+00 -.246682337651081D+03
 0.156271903727217D+03 -.179683154642537D+02 -.811360696907471D+02 -.434739661066708D+02
 0.102854104020545D+03 0.252826569129756D+02 -.514455921822697D+02 0.287382856819059D+02
 0.189225469568584D+03 -.555408310210907D+02 0.180289639595172D+03 0.147356804247650D+02
 0.736232230135057D+02 0.482264895723688D+02 -.477079777221548D+02 0.286100250276887D+02
0.931332396085D-05 0.000000000000D+00 0.000000000000D+00 0.225916760355D-06 0.000000000000D+00  6 21 1 25 -24 2 21 2 0.54030604D-01 0.21510623D-01 0.46863897D+05 0.46863897D+05 0.46863897D+05 0.11950779D+01  1  2  2  1  6  1       21 0.107252193448D-01 0.100000000000D+01
-.882352506806D-06 0.491477607999D-06 -.188009177894D-07 0.225916760355D-06 0.000000000000D+00  6 21 1 25 -24 2 21 4 0.54030604D-01 0.21510623D-01 0.46863897D+05 0.46863897D+05 0.46863897D+05 0.11950779D+01  1  2  3  1  6  1       21 -.145122922511D-02 0.100000000000D+01
0.111352385868D-05 0.000000000000D+00 0.000000000000D+00 0.225916760355D-06 0.000000000000D+00  6 21 1 25 -24 2 21 4 0.54030604D-01 0.21510623D-01 0.46863897D+05 0.46863897D+05 0.46863897D+05 0.11950779D+01  1  2 15  1  6  1       21 0.183144305038D-02 0.100000000000D+01
0.932093302884D-05 0.000000000000D+00 0.000000000000D+00 0.220965626552D-06 0.000000000000D+00  6 21 1 25 -24 2 21 4 0.69600271D-01 0.21510623D-01 0.63844264D+05 0.63844264D+05 0.63844264D+05 0.11819098D+01  1  2 12  1  6  1       21 0.840539671617D-02 0.100000000000D+01
-.930777824227D-05 0.000000000000D+00 0.000000000000D+00 0.225916760355D-06 0.000000000000D+00  6 21 1 25 -24 2 21 4 0.54030604D-01 0.21510623D-01 0.46863897D+05 0.46863897D+05 0.46863897D+05 0.11950779D+01  1  2  4  1  6  1       21 -.153087566498D-01 0.100000000000D+01
-.393204276631D-04 0.000000000000D+00 -.126260127462D-04 0.225916760355D-06 0.000000000000D+00  6 21 1 25 -24 2 21 4 0.73362089D-01 0.21510623D-01 0.46863897D+05 0.46863897D+05 0.46863897D+05 0.11950779D+01  1  2  5  1  6  1       21 -.332837685725D-01 0.100000000000D+01
0.363251816833D-04 0.000000000000D+00 0.105440975197D-04 0.225916760355D-06 0.000000000000D+00  6 21 1 25 -24 2 21 4 0.54030604D-01 0.21510623D-01 0.46863897D+05 0.46863897D+05 0.46863897D+05 0.11950779D+01  1  2  6  1  6  1       21 0.597450167134D-01 0.100000000000D+01
0.712530468551D-06 0.000000000000D+00 0.000000000000D+00 0.220965626552D-06 0.000000000000D+00  6 -1 1 25 -24 2 -1 4 0.69600271D-01 0.21510623D-01 0.63844264D+05 0.63844264D+05 0.63844264D+05 0.11819098D+01  1  2 12  4  6  1       21 0.702669185486D-04 0.100000000000D+01
-.306387794673D-05 0.000000000000D+00 -.121733219117D-05 0.225916760355D-06 0.000000000000D+00  6 -1 1 25 -24 2 -1 4 0.73362089D-01 0.21510623D-01 0.46863897D+05 0.46863897D+05 0.46863897D+05 0.11950779D+01  1  2  5  4  6  1       21 -.284286731485D-03 0.100000000000D+01
0.712530468551D-06 0.000000000000D+00 0.000000000000D+00 0.220965626552D-06 0.000000000000D+00  6 1 1 25 -24 2 1 4 0.69600271D-01 0.21510623D-01 0.63844264D+05 0.63844264D+05 0.63844264D+05 0.11819098D+01  1  2 12  5  6  1       21 0.198108291407D-03 0.100000000000D+01
-.306387794673D-05 0.000000000000D+00 -.121733219117D-05 0.225916760355D-06 0.000000000000D+00  6 1 1 25 -24 2 1 4 0.73362089D-01 0.21510623D-01 0.46863897D+05 0.46863897D+05 0.46863897D+05 0.11950779D+01  1  2  5  5  6  1       21 -.830904029597D-03 0.100000000000D+01
0.712530468551D-06 0.000000000000D+00 0.000000000000D+00 0.220965626552D-06 0.000000000000D+00  6 -2 1 25 -24 2 -2 4 0.69600271D-01 0.21510623D-01 0.63844264D+05 0.63844264D+05 0.63844264D+05 0.11819098D+01  1  2 12  6  6  1       21 0.549327130392D-04 0.100000000000D+01
-.306387794673D-05 0.000000000000D+00 -.121733219117D-05 0.225916760355D-06 0.000000000000D+00  6 -2 1 25 -24 2 -2 4 0.73362089D-01 0.21510623D-01 0.46863897D+05 0.46863897D+05 0.46863897D+05 0.11950779D+01  1  2  5  6  6  1       21 -.220274381234D-03 0.100000000000D+01
0.712530468551D-06 0.000000000000D+00 0.000000000000D+00 0.220965626552D-06 0.000000000000D+00  6 2 1 25 -24 2 2 4 0.69600271D-01 0.21510623D-01 0.63844264D+05 0.63844264D+05 0.63844264D+05 0.11819098D+01  1  2 12  7  6  1       21 0.303845277561D-03 0.100000000000D+01
-.306387794673D-05 0.000000000000D+00 -.121733219117D-05 0.225916760355D-06 0.000000000000D+00  6 2 1 25 -24 2 2 4 0.73362089D-01 0.21510623D-01 0.46863897D+05 0.46863897D+05 0.46863897D+05 0.11950779D+01  1  2  5  7  6  1       21 -.128651925532D-02 0.100000000000D+01
0.712530468551D-06 0.000000000000D+00 0.000000000000D+00 0.220965626552D-06 0.000000000000D+00  6 -3 1 25 -24 2 -3 4 0.69600271D-01 0.21510623D-01 0.63844264D+05 0.63844264D+05 0.63844264D+05 0.11819098D+01  1  2 12  8  6  1       21 0.350191190487D-04 0.100000000000D+01
0.712530468551D-06 0.000000000000D+00 0.000000000000D+00 0.220965626552D-06 0.000000000000D+00  6 -4 1 25 -24 2 -4 4 0.69600271D-01 0.21510623D-01 0.63844264D+05 0.63844264D+05 0.63844264D+05 0.11819098D+01  1  2 12  8  6  1       21 0.287145255601D-04 0.100000000000D+01
-.306387794673D-05 0.000000000000D+00 -.121733219117D-05 0.225916760355D-06 0.000000000000D+00  6 -3 1 25 -24 2 -3 4 0.73362089D-01 0.21510623D-01 0.46863897D+05 0.46863897D+05 0.46863897D+05 0.11950779D+01  1  2  5  8  6  1       21 -.139699288883D-03 0.100000000000D+01
-.306387794673D-05 0.000000000000D+00 -.121733219117D-05 0.225916760355D-06 0.000000000000D+00  6 -4 1 25 -24 2 -4 4 0.73362089D-01 0.21510623D-01 0.46863897D+05 0.46863897D+05 0.46863897D+05 0.11950779D+01  1  2  5  8  6  1       21 -.113977471106D-03 0.100000000000D+01
0.712530468551D-06 0.000000000000D+00 0.000000000000D+00 0.220965626552D-06 0.000000000000D+00  6 3 1 25 -24 2 3 4 0.69600271D-01 0.21510623D-01 0.63844264D+05 0.63844264D+05 0.63844264D+05 0.11819098D+01  1  2 12  9  6  1       21 0.350530020215D-04 0.100000000000D+01
0.712530468551D-06 0.000000000000D+00 0.000000000000D+00 0.220965626552D-06 0.000000000000D+00  6 4 1 25 -24 2 4 4 0.69600271D-01 0.21510623D-01 0.63844264D+05 0.63844264D+05 0.63844264D+05 0.11819098D+01  1  2 12  9  6  1       21 0.287145255601D-04 0.100000000000D+01
-.306387794673D-05 0.000000000000D+00 -.121733219117D-05 0.225916760355D-06 0.000000000000D+00  6 3 1 25 -24 2 3 4 0.73362089D-01 0.21510623D-01 0.46863897D+05 0.46863897D+05 0.46863897D+05 0.11950779D+01  1  2  5  9  6  1       21 -.139849776202D-03 0.100000000000D+01
-.306387794673D-05 0.000000000000D+00 -.121733219117D-05 0.225916760355D-06 0.000000000000D+00  6 4 1 25 -24 2 4 4 0.73362089D-01 0.21510623D-01 0.46863897D+05 0.46863897D+05 0.46863897D+05 0.11950779D+01  1  2  5  9  6  1       21 -.113977471106D-03 0.100000000000D+01
  </mgrwgt>
  </event>
  <event>
  5     66 0.42050411E-03 0.28803974E+02 0.75467711E-02 0.12112588E+00
       21 -1    0    0  501  502 0.00000000E+00 0.00000000E+00 0.66317357E+02 0.66321597E+02 0.75000000E+00 0.0000E+00 0.9000E+01
        1 -1    0    0  502    0 -.00000000E+00 -.00000000E+00 -.40269309E+03 0.40269321E+03 0.32000000E+00 0.0000E+00 0.9000E+01
       25  1    1    2    0    0 0.17045003E+02 0.66830270E+02 -.19274821E+03 0.23986182E+03 0.12500000E+03 0.0000E+00 0.9000E+01
      -24  1    1    2    0    0 -.44546319E+02 -.58266869E+02 -.16186751E+03 0.19505822E+03 0.80419002E+02 0.0000E+00 0.9000E+01
        2  1    1    2  501    0 0.27501316E+02 -.85634014E+01 0.18239990E+02 0.34094778E+02 0.32000000E+00 0.0000E+00 0.9000E+01
#aMCatNLO 1  0  0  5  1 0.43031843D+01 0.00000000D+00  -5  6  0 0.00000000D+00 0.00000000D+00 0.00000000D+00 0.00000000D+00 0.00000000D+00
  <mgrwgt>
 0.9060273278D-01    5    2    0
 0.163421434853436D+03 0.000000000000000D+00 0.000000000000000D+00 0.163421434853436D+03
 0.163421434853436D+03 -.000000000000000D+00 -.000000000000000D+00 -.163421434853436D+03
 0.145828315056204D+03 0.170448659817787D+02 0.668303125716508D+02 -.297334716669658D+02
 0.113317209759530D+03 -.445464258561831D+02 -.582668353404154D+02 -.315303967017099D+02
 0.676973448911386D+02 0.275015598744045D+02 -.856347723123542D+01 0.612638683686757D+02
 0.000000000000000D+00 0.000000000000000D+00 0.000000000000000D+00 0.000000000000000D+00
 0.163421434853436D+03 0.000000000000000D+00 0.000000000000000D+00 0.163421434853436D+03
 0.163421434853436D+03 -.000000000000000D+00 -.000000000000000D+00 -.163421434853436D+03
 0.145323881059476D+03 0.181464252768396D+02 0.664873073753932D+02 -.272795823617372D+02
 0.112605526186564D+03 -.436916588543635D+02 -.585329939798352D+02 -.296262744146645D+02
 0.451643154793666D+01 -.158369826184199D+01 -.400365004361539D+01 -.136412611986383D+01
 0.643970309128955D+02 0.271289318393659D+02 -.395066335194262D+01 0.582699828962655D+02
0.821407591107D-05 0.000000000000D+00 0.000000000000D+00 0.179061777027D-05 0.000000000000D+00  6 21 1 25 -24 2 21 2 0.10203006D-01 0.61953119D-01 0.19657593D+05 0.19657593D+05 0.19657593D+05 0.12346525D+01  1  2  2  3  6  5        2 0.646702355446D-01 0.100000000000D+01
0.843639580655D-06 0.433468694707D-06 -.165818526843D-07 0.179061777027D-05 0.000000000000D+00  6 21 1 25 -24 2 21 4 0.10203006D-01 0.61953119D-01 0.19657593D+05 0.19657593D+05 0.19657593D+05 0.12346525D+01  1  2  3  3  6  5        2 0.101249337693D-01 0.100000000000D+01
0.892156459158D-06 0.000000000000D+00 0.000000000000D+00 0.179061777027D-05 0.000000000000D+00  6 21 1 25 -24 2 21 4 0.10203006D-01 0.61953119D-01 0.19657593D+05 0.19657593D+05 0.19657593D+05 0.12346525D+01  1  2 15  3  6  5        2 0.107072087037D-01 0.100000000000D+01
-.216567782989D-05 0.000000000000D+00 0.000000000000D+00 0.179061777027D-05 0.000000000000D+00  6 21 1 25 -24 2 21 4 0.10203006D-01 0.61953119D-01 0.19657593D+05 0.19657593D+05 0.19657593D+05 0.12346525D+01  1  2  4  3  6  5        2 -.259913653840D-01 0.100000000000D+01
0.259805013211D-05 0.000000000000D+00 0.000000000000D+00 0.179061777027D-05 0.559289909766D-07  6 21 1 25 -24 2 21 4 0.10203006D-01 0.61953119D-01 0.20036322D+05 0.20036322D+05 0.20036322D+05 0.12337393D+01  1  2 11  3  6  5        2 0.310917201434D-01 0.100000000000D+01
  </mgrwgt>
  </event>
</LesHouchesEvents>
