<event>
 5    0  0.2465569E-003  0.5796362E+03  0.7546771E-02  0.9948579E-01
          2   -1    0    0  503    0  0.00000000000E+00  0.00000000000E+00  0.12719446008E+04  0.12719446008E+04  0.00000000000E+00 0.  1.
         -2   -1    0    0    0  501 -0.00000000000E+00 -0.00000000000E+00 -0.16965954653E+03  0.16965954653E+03  0.00000000000E+00 0. -1.
         25    1    1    2    0    0  0.92520983804E+02 -0.17898363717E+03  0.77202646138E+02  0.24936022816E+03  0.12500000000E+03 0.  0.
         21    1    1    2  502  501  0.21832217073E+03  0.15028738608E+03  0.66391767794E+03  0.71486890528E+03  0.00000000000E+00 0. -1.
         21    1    1    2  503  502 -0.31084315453E+03  0.28696251095E+02  0.36116473015E+03  0.47737501385E+03  0.00000000000E+00 0.  1.
<mgrwt>
<rscale>  4 0.57963623E+03</rscale>
<asrwt>0</asrwt>
<pdfrwt beam="1">  1        2 0.19568378E+00 0.57963623E+03</pdfrwt>
<pdfrwt beam="2">  1       -2 0.26101469E-01 0.57963623E+03</pdfrwt>
<totfact> 0.23302505E+02</totfact>
</mgrwt>
</event>
<event>
 5    0  0.2465569E-003  0.5828090E+03  0.7546771E-02  0.9941728E-01
         -2   -1    0    0    0  501 -0.00000000000E+00  0.00000000000E+00  0.51190850108E+02  0.51190850108E+02  0.00000000000E+00 0. -1.
          2   -1    0    0  503    0  0.00000000000E+00 -0.00000000000E+00 -0.22704843582E+04  0.22704843582E+04  0.00000000000E+00 0.  1.
         25    1    1    2    0    0  0.92689447447E+02  0.24309459195E+03 -0.13789699299E+04  0.14088539249E+04  0.12500000000E+03 0.  0.
         21    1    1    2  502  501 -0.23826919938E+02 -0.21684322224E+03 -0.31987294619E+03  0.38717877893E+03  0.00000000000E+00 0. -1.
         21    1    1    2  503  502 -0.68862527508E+02 -0.26251369702E+02 -0.52045063205E+03  0.52564250447E+03  0.00000000000E+00 0. -1.
<mgrwt>
<rscale>  4 0.58280902E+03</rscale>
<asrwt>0</asrwt>
<pdfrwt beam="1">  1        2 0.34930525E+00 0.58280902E+03</pdfrwt>
<pdfrwt beam="2">  1       -2 0.78755162E-02 0.58280902E+03</pdfrwt>
<totfact> 0.49707142E+02</totfact>
</mgrwt>
</event>
<event>
 5    0  0.2465569E-003  0.5008817E+03  0.7546771E-02  0.1013549E+00
         -2   -1    0    0    0  501 -0.00000000000E+00  0.00000000000E+00  0.96482633813E+02  0.96482633813E+02  0.00000000000E+00 0. -1.
          2   -1    0    0  503    0  0.00000000000E+00 -0.00000000000E+00 -0.99122851116E+03  0.99122851116E+03  0.00000000000E+00 0.  1.
         25    1    1    2    0    0  0.20986227384E+03 -0.28577881504E+02 -0.35362016377E+03  0.43073319992E+03  0.12500000000E+03 0.  0.
         21    1    1    2  502  501 -0.21390854767E+03  0.13569477511E+03 -0.29701547181E+03  0.39036922171E+03  0.00000000000E+00 0.  1.
         21    1    1    2  503  502  0.40462738260E+01 -0.10711689361E+03 -0.24411024176E+03  0.26660872334E+03  0.00000000000E+00 0. -1.
<mgrwt>
<rscale>  4 0.50088168E+03</rscale>
<asrwt>0</asrwt>
<pdfrwt beam="1">  1        2 0.15249669E+00 0.50088168E+03</pdfrwt>
<pdfrwt beam="2">  1       -2 0.14843482E-01 0.50088168E+03</pdfrwt>
<totfact> 0.92043719E+02</totfact>
</mgrwt>
</event>
<event>
 5    0  0.2465569E-003  0.7220204E+03  0.7546771E-02  0.9680298E-01
         -2   -1    0    0    0  501 -0.00000000000E+00  0.00000000000E+00  0.30615707923E+03  0.30615707923E+03  0.00000000000E+00 0.  1.
          2   -1    0    0  503    0  0.00000000000E+00 -0.00000000000E+00 -0.61480459825E+03  0.61480459825E+03  0.00000000000E+00 0. -1.
         25    1    1    2    0    0  0.22081627945E+03 -0.28238745848E+03 -0.23408914738E+03  0.44601035291E+03  0.12500000000E+03 0.  0.
         21    1    1    2  502  501 -0.80340717492E+02  0.31453628976E+03 -0.43514499942E+02  0.32753812018E+03  0.00000000000E+00 0.  1.
         21    1    1    2  503  502 -0.14047556196E+03 -0.32148831278E+02 -0.31043871696E+02  0.14741320439E+03  0.00000000000E+00 0.  1.
<mgrwt>
<rscale>  4 0.72202040E+03</rscale>
<asrwt>0</asrwt>
<pdfrwt beam="1">  1        2 0.94585322E-01 0.72202040E+03</pdfrwt>
<pdfrwt beam="2">  1       -2 0.47101090E-01 0.72202040E+03</pdfrwt>
<totfact> 0.20788331E+02</totfact>
</mgrwt>
</event>
<event>
 5    0  0.2465569E-003  0.1219335E+04  0.7546771E-02  0.9096099E-01
          2   -1    0    0  502    0  0.00000000000E+00  0.00000000000E+00  0.22889561121E+04  0.22889561121E+04  0.00000000000E+00 0. -1.
         -2   -1    0    0    0  501 -0.00000000000E+00 -0.00000000000E+00 -0.23167111739E+03  0.23167111739E+03  0.00000000000E+00 0.  1.
         25    1    1    2    0    0 -0.40906544034E+03 -0.29323896119E+02  0.13292685773E+03  0.44887523308E+03  0.12500000000E+03 0.  0.
         21    1    1    2  502  503  0.27474594335E+03  0.16423126674E+01  0.19146540694E+04  0.19342668471E+04  0.00000000000E+00 0. -1.
         21    1    1    2  503  501  0.13431949699E+03  0.27681583452E+02  0.97040675852E+01  0.13748514924E+03  0.00000000000E+00 0. -1.
<mgrwt>
<rscale>  4 0.12193353E+04</rscale>
<asrwt>0</asrwt>
<pdfrwt beam="1">  1        2 0.35214708E+00 0.12193353E+04</pdfrwt>
<pdfrwt beam="2">  1       -2 0.35641712E-01 0.12193353E+04</pdfrwt>
<totfact> 0.33628911E+01</totfact>
</mgrwt>
</event>
<event>
 5    0  0.2465569E-003  0.8314269E+03  0.7546771E-02  0.9515610E-01
          2   -1    0    0  503    0  0.00000000000E+00  0.00000000000E+00  0.16580131965E+04  0.16580131965E+04  0.00000000000E+00 0.  1.
         -2   -1    0    0    0  501 -0.00000000000E+00 -0.00000000000E+00 -0.14234516920E+03  0.14234516920E+03  0.00000000000E+00 0. -1.
         25    1    1    2    0    0 -0.21966629305E+03  0.27673962956E+03  0.21898393118E+03  0.43407034566E+03  0.12500000000E+03 0.  0.
         21    1    1    2  502  501 -0.44330441483E+02 -0.10904983863E+03  0.34465197625E+03  0.36420054926E+03  0.00000000000E+00 0.  1.
         21    1    1    2  503  502  0.26399673453E+03 -0.16768979092E+03  0.95203211984E+03  0.10020874707E+04  0.00000000000E+00 0. -1.
<mgrwt>
<rscale>  4 0.83142690E+03</rscale>
<asrwt>0</asrwt>
<pdfrwt beam="1">  1        2 0.25507894E+00 0.83142690E+03</pdfrwt>
<pdfrwt beam="2">  1       -2 0.21899258E-01 0.83142690E+03</pdfrwt>
<totfact> 0.19022253E+02</totfact>
</mgrwt>
</event>
<event>
 5    0  0.2465569E-003  0.1242390E+04  0.7546771E-02  0.9076541E-01
         -1   -1    0    0    0  501 -0.00000000000E+00  0.00000000000E+00  0.54193318425E+03  0.54193318425E+03  0.00000000000E+00 0. -1.
          1   -1    0    0  502    0  0.00000000000E+00 -0.00000000000E+00 -0.10894056395E+04  0.10894056395E+04  0.00000000000E+00 0.  1.
         25    1    1    2    0    0  0.23131516557E+03  0.49699356563E+03 -0.36456570607E+03  0.67010630809E+03  0.12500000000E+03 0.  0.
         21    1    1    2  502  503 -0.73135875188E+02  0.35633569473E+02 -0.36700058993E+03  0.37590961749E+03  0.00000000000E+00 0.  1.
         21    1    1    2  503  501 -0.15817929039E+03 -0.53262713510E+03  0.18409384072E+03  0.58532289819E+03  0.00000000000E+00 0.  1.
<mgrwt>
<rscale>  4 0.12423898E+04</rscale>
<asrwt>0</asrwt>
<pdfrwt beam="1">  1        1 0.16760086E+00 0.12423898E+04</pdfrwt>
<pdfrwt beam="2">  1       -1 0.83374338E-01 0.12423898E+04</pdfrwt>
<totfact> 0.18130740E+01</totfact>
</mgrwt>
</event>
<event>
 5    0  0.2465569E-003  0.7877118E+03  0.7546771E-02  0.9577976E-01
         -2   -1    0    0    0  501 -0.00000000000E+00  0.00000000000E+00  0.13512389087E+03  0.13512389087E+03  0.00000000000E+00 0.  1.
          2   -1    0    0  503    0  0.00000000000E+00 -0.00000000000E+00 -0.21354411085E+04  0.21354411085E+04  0.00000000000E+00 0. -1.
         25    1    1    2    0    0  0.16772297520E+03 -0.22700194660E+03 -0.95778308637E+03  0.10062973322E+04  0.12500000000E+03 0.  0.
         21    1    1    2  502  501 -0.70499814061E+02 -0.22014093349E+03 -0.20078697322E+03  0.30618240151E+03  0.00000000000E+00 0.  1.
         21    1    1    2  503  502 -0.97223161140E+02  0.44714288009E+03 -0.84174715806E+03  0.95808526571E+03  0.00000000000E+00 0.  1.
<mgrwt>
<rscale>  4 0.78771181E+03</rscale>
<asrwt>0</asrwt>
<pdfrwt beam="1">  1        2 0.32852942E+00 0.78771181E+03</pdfrwt>
<pdfrwt beam="2">  1       -2 0.20788290E-01 0.78771181E+03</pdfrwt>
<totfact> 0.11466489E+02</totfact>
</mgrwt>
</event>
<event>
 5    0  0.2465569E-003  0.5564865E+03  0.7546771E-02  0.1000004E+00
         -2   -1    0    0    0  501 -0.00000000000E+00  0.00000000000E+00  0.19665746620E+03  0.19665746620E+03  0.00000000000E+00 0. -1.
          2   -1    0    0  502    0  0.00000000000E+00 -0.00000000000E+00 -0.88373817699E+03  0.88373817699E+03  0.00000000000E+00 0.  1.
         25    1    1    2    0    0 -0.23371590117E+03 -0.21737972841E+01 -0.22901139916E+02  0.26604005350E+03  0.12500000000E+03 0.  0.
         21    1    1    2  502  503  0.10450887933E+03 -0.19967953245E+03 -0.38780570565E+03  0.44853905836E+03  0.00000000000E+00 0.  1.
         21    1    1    2  503  501  0.12920702184E+03  0.20185332973E+03 -0.27637386523E+03  0.36581653134E+03  0.00000000000E+00 0.  1.
<mgrwt>
<rscale>  4 0.55648649E+03</rscale>
<asrwt>0</asrwt>
<pdfrwt beam="1">  1        2 0.13595972E+00 0.55648649E+03</pdfrwt>
<pdfrwt beam="2">  1       -2 0.30254995E-01 0.55648649E+03</pdfrwt>
<totfact> 0.30885891E+02</totfact>
</mgrwt>
</event>
<event>
 5    0  0.2465569E-003  0.8413490E+03  0.7546771E-02  0.9502022E-01
          1   -1    0    0  503    0  0.00000000000E+00  0.00000000000E+00  0.27058173243E+04  0.27058173243E+04  0.00000000000E+00 0.  1.
         -1   -1    0    0    0  501 -0.00000000000E+00 -0.00000000000E+00 -0.10378589443E+03  0.10378589443E+03  0.00000000000E+00 0. -1.
         25    1    1    2    0    0  0.14560680649E+03  0.28261735260E+03  0.11686859720E+04  0.12175901656E+04  0.12500000000E+03 0.  0.
         21    1    1    2  502  501 -0.16864196000E+03 -0.37631180804E+03  0.47585447259E+03  0.62967306328E+03  0.00000000000E+00 0. -1.
         21    1    1    2  503  502  0.23035153514E+02  0.93694455443E+02  0.95749098527E+03  0.96233998990E+03  0.00000000000E+00 0. -1.
<mgrwt>
<rscale>  4 0.84134901E+03</rscale>
<asrwt>0</asrwt>
<pdfrwt beam="1">  1        1 0.41627953E+00 0.84134901E+03</pdfrwt>
<pdfrwt beam="2">  1       -1 0.15967063E-01 0.84134901E+03</pdfrwt>
<totfact> 0.29948187E+01</totfact>
</mgrwt>
</event>
<event>
 5    0  0.2465569E-003  0.5192196E+03  0.7546771E-02  0.1008881E+00
          1   -1    0    0  502    0  0.00000000000E+00  0.00000000000E+00  0.19954491975E+04  0.19954491975E+04  0.00000000000E+00 0. -1.
         -1   -1    0    0    0  501 -0.00000000000E+00 -0.00000000000E+00 -0.72240838902E+02  0.72240838902E+02  0.00000000000E+00 0.  1.
         25    1    1    2    0    0 -0.14472608620E+03 -0.16141339665E+03  0.85299306036E+03  0.88894436590E+03  0.12500000000E+03 0.  0.
         21    1    1    2  502  503  0.27076264124E+02  0.90356327043E+02  0.10317069726E+04  0.10360099745E+04  0.00000000000E+00 0.  1.
         21    1    1    2  503  501  0.11764982208E+03  0.71057069607E+02  0.38508325647E+02  0.14273569603E+03  0.00000000000E+00 0.  1.
<mgrwt>
<rscale>  4 0.51921963E+03</rscale>
<asrwt>0</asrwt>
<pdfrwt beam="1">  1        1 0.30699214E+00 0.51921963E+03</pdfrwt>
<pdfrwt beam="2">  1       -1 0.11113977E-01 0.51921963E+03</pdfrwt>
<totfact> 0.16879716E+02</totfact>
</mgrwt>
</event>
<event>
 5    0  0.2465569E-003  0.8438587E+03  0.7546771E-02  0.9498617E-01
         -2   -1    0    0    0  501 -0.00000000000E+00  0.00000000000E+00  0.17588224481E+03  0.17588224481E+03  0.00000000000E+00 0.  1.
          2   -1    0    0  503    0  0.00000000000E+00 -0.00000000000E+00 -0.16599232374E+04  0.16599232374E+04  0.00000000000E+00 0. -1.
         25    1    1    2    0    0  0.15661927390E+03 -0.16359580614E+03 -0.58223657073E+02  0.26515689504E+03  0.12500000000E+03 0.  0.
         21    1    1    2  502  501 -0.14836133835E+03 -0.13146045673E+03 -0.11963192623E+03  0.23152696641E+03  0.00000000000E+00 0. -1.
         21    1    1    2  503  502 -0.82579355455E+01  0.29505626287E+03 -0.13061854093E+04  0.13391216207E+04  0.00000000000E+00 0.  1.
<mgrwt>
<rscale>  4 0.84385867E+03</rscale>
<asrwt>0</asrwt>
<pdfrwt beam="1">  1        2 0.25537281E+00 0.84385867E+03</pdfrwt>
<pdfrwt beam="2">  1       -2 0.27058807E-01 0.84385867E+03</pdfrwt>
<totfact> 0.12951508E+02</totfact>
</mgrwt>
</event>
