<event>
 5    0  0.1911311E+001  0.3148365E+03  0.7546771E-02  0.1078051E+00
         21   -1    0    0  504  501  0.00000000000E+00  0.00000000000E+00  0.75291364548E+03  0.75291364548E+03  0.00000000000E+00 0.  1.
         21   -1    0    0  503  502 -0.00000000000E+00 -0.00000000000E+00 -0.52510622067E+03  0.52510622067E+03  0.00000000000E+00 0.  1.
         25    1    1    2    0    0 -0.93586896226E+02  0.19191780099E+03 -0.10358456511E+03  0.26822697778E+03  0.12500000000E+03 0.  0.
         21    1    1    2  503  501  0.25371485828E+03 -0.33436334008E+03 -0.17894571666E+03  0.45628022312E+03  0.00000000000E+00 0.  1.
         21    1    1    2  504  502 -0.16012796205E+03  0.14244553909E+03  0.51033770658E+03  0.55351266525E+03  0.00000000000E+00 0.  1.
<mgrwt>
<rscale>  4 0.31483653E+03</rscale>
<asrwt>0</asrwt>
<pdfrwt beam="1">  1       21 0.11583287E+00 0.31483653E+03</pdfrwt>
<pdfrwt beam="2">  1       21 0.80785572E-01 0.31483653E+03</pdfrwt>
<totfact> 0.70035958E+02</totfact>
</mgrwt>
</event>
<event>
 5    0  0.1911311E+001  0.1972003E+03  0.7546771E-02  0.1152123E+00
         21   -1    0    0  504  501  0.00000000000E+00  0.00000000000E+00  0.37000953293E+03  0.37000953293E+03  0.00000000000E+00 0. -1.
         21   -1    0    0  503  502 -0.00000000000E+00 -0.00000000000E+00 -0.23629456427E+04  0.23629456427E+04  0.00000000000E+00 0.  1.
         25    1    1    2    0    0 -0.14906117219E+03  0.13917451806E+03  0.19299249237E+03  0.30734326354E+03  0.12500000000E+03 0.  0.
         21    1    1    2  503  501  0.49308071401E+02 -0.65631946556E+02 -0.22727893059E+04  0.22742713267E+04  0.00000000000E+00 0.  1.
         21    1    1    2  504  502  0.99753100793E+02 -0.73542571504E+02  0.86860703751E+02  0.15134058543E+03  0.00000000000E+00 0. -1.
<mgrwt>
<rscale>  4 0.19720026E+03</rscale>
<asrwt>0</asrwt>
<pdfrwt beam="1">  1       21 0.56924542E-01 0.19720026E+03</pdfrwt>
<pdfrwt beam="2">  1       21 0.36353011E+00 0.19720026E+03</pdfrwt>
<totfact> 0.41786858E+01</totfact>
</mgrwt>
</event>
<event>
 5    0  0.1911311E+001  0.2365320E+03  0.7546771E-02  0.1122125E+00
         21   -1    0    0  502  501  0.00000000000E+00  0.00000000000E+00  0.16116351795E+04  0.16116351795E+04  0.00000000000E+00 0.  1.
         21   -1    0    0  504  502 -0.00000000000E+00 -0.00000000000E+00 -0.48789088365E+03  0.48789088365E+03  0.00000000000E+00 0.  1.
         25    1    1    2    0    0  0.37248360399E+00 -0.21818564499E+03 -0.43953509447E+03  0.50638050287E+03  0.12500000000E+03 0.  0.
         21    1    1    2  503  501 -0.13413958097E+02  0.20012512931E+03  0.15571858516E+04  0.15700502469E+04  0.00000000000E+00 0.  1.
         21    1    1    2  504  503  0.13041474493E+02  0.18060515677E+02  0.60935387768E+01  0.23095313340E+02  0.00000000000E+00 0.  1.
<mgrwt>
<rscale>  4 0.23653200E+03</rscale>
<asrwt>0</asrwt>
<pdfrwt beam="1">  1       21 0.24794387E+00 0.23653200E+03</pdfrwt>
<pdfrwt beam="2">  1       21 0.75060137E-01 0.23653200E+03</pdfrwt>
<totfact> 0.10209458E+02</totfact>
</mgrwt>
</event>
<event>
 5    0  0.1911311E+001  0.2398298E+03  0.7546771E-02  0.1119906E+00
         21   -1    0    0  503  501  0.00000000000E+00  0.00000000000E+00  0.17335814977E+03  0.17335814977E+03  0.00000000000E+00 0.  1.
         21   -1    0    0  504  502 -0.00000000000E+00 -0.00000000000E+00 -0.73207869165E+03  0.73207869165E+03  0.00000000000E+00 0.  1.
         25    1    1    2    0    0  0.13293487056E+02  0.24704474501E+03 -0.64383988494E+02  0.28456654900E+03  0.12500000000E+03 0.  0.
         21    1    1    2  503  502  0.17582695799E+02 -0.19718065675E+03 -0.52033204657E+03  0.55671788302E+03  0.00000000000E+00 0.  1.
         21    1    1    2  504  501 -0.30876182855E+02 -0.49864088263E+02  0.25995493179E+02  0.64152409398E+02  0.00000000000E+00 0.  1.
<mgrwt>
<rscale>  4 0.23982978E+03</rscale>
<asrwt>0</asrwt>
<pdfrwt beam="1">  1       21 0.26670484E-01 0.23982978E+03</pdfrwt>
<pdfrwt beam="2">  1       21 0.11262749E+00 0.23982978E+03</pdfrwt>
<totfact> 0.79902559E+03</totfact>
</mgrwt>
</event>
<event>
 5    0  0.2564995E+001  0.2409804E+03  0.7546771E-02  0.1119141E+00
         21   -1    0    0  504  501  0.00000000000E+00  0.00000000000E+00  0.13704615735E+03  0.13704615735E+03  0.00000000000E+00 0.  1.
         21   -1    0    0  501  502 -0.00000000000E+00 -0.00000000000E+00 -0.42431530256E+03  0.42431530256E+03  0.00000000000E+00 0.  1.
         25    1    1    2    0    0  0.20446310203E+03 -0.25325373711E+02 -0.24903278919E+03  0.34653840298E+03  0.12500000000E+03 0.  0.
         21    1    1    2  503  502 -0.14949297713E+02  0.15363190004E+02 -0.12173659489E+01  0.21470703040E+02  0.00000000000E+00 0. -1.
         21    1    1    2  504  503 -0.18951380432E+03  0.99621837078E+01 -0.37018990071E+02  0.19335235390E+03  0.00000000000E+00 0.  1.
<mgrwt>
<rscale>  4 0.24098036E+03</rscale>
<asrwt>0</asrwt>
<pdfrwt beam="1">  1       21 0.21084024E-01 0.24098036E+03</pdfrwt>
<pdfrwt beam="2">  1       21 0.65279277E-01 0.24098036E+03</pdfrwt>
<totfact> 0.44134165E+04</totfact>
</mgrwt>
</event>
