<event>
 5    0  0.1814147E+000  0.3368283E+03  0.7546771E-02  0.1068155E+00
         21   -1    0    0  502  501  0.00000000000E+00  0.00000000000E+00  0.10732650467E+04  0.10732650467E+04  0.00000000000E+00 0.  1.
         21   -1    0    0  503  502 -0.00000000000E+00 -0.00000000000E+00 -0.19688447105E+03  0.19688447105E+03  0.00000000000E+00 0.  1.
         25    1    1    2    0    0 -0.17296857096E+03  0.24196180630E+03  0.12450227420E+02  0.32286785287E+03  0.12500000000E+03 0.  0.
         21    1    1    2  503  504  0.31331973576E+02  0.40808938619E+02  0.41374198940E+02  0.66021862874E+02  0.00000000000E+00 0.  1.
         21    1    1    2  504  501  0.14163659739E+03 -0.28277074492E+03  0.82255614926E+03  0.88125980199E+03  0.00000000000E+00 0.  1.
<mgrwt>
<rscale>  4 0.33682826E+03</rscale>
<asrwt>0</asrwt>
<pdfrwt beam="1">  1       21 0.16511769E+00 0.33682826E+03</pdfrwt>
<pdfrwt beam="2">  1       21 0.30289919E-01 0.33682826E+03</pdfrwt>
<totfact> 0.21758681E+03</totfact>
</mgrwt>
</event>
<event>
 5    0  0.1814147E+000  0.4377511E+03  0.7546771E-02  0.1031439E+00
         21   -1    0    0  503  501  0.00000000000E+00  0.00000000000E+00  0.92401756615E+03  0.92401756615E+03  0.00000000000E+00 0. -1.
         21   -1    0    0  504  502 -0.00000000000E+00 -0.00000000000E+00 -0.66931150603E+03  0.66931150603E+03  0.00000000000E+00 0. -1.
         25    1    1    2    0    0 -0.22343558279E+03  0.17084058244E+03 -0.35813614797E+03  0.47222501495E+03  0.12500000000E+03 0.  0.
         21    1    1    2  503  502 -0.22884292198E+03 -0.20223505638E+03 -0.58564699901E+02  0.31096289978E+03  0.00000000000E+00 0. -1.
         21    1    1    2  504  501  0.45227850477E+03  0.31394473938E+02  0.67140690799E+03  0.81014115744E+03  0.00000000000E+00 0. -1.
<mgrwt>
<rscale>  4 0.43775114E+03</rscale>
<asrwt>0</asrwt>
<pdfrwt beam="1">  1       21 0.14215655E+00 0.43775114E+03</pdfrwt>
<pdfrwt beam="2">  1       21 0.10297100E+00 0.43775114E+03</pdfrwt>
<totfact> 0.21686321E+02</totfact>
</mgrwt>
</event>
<event>
 5    0  0.1814147E+000  0.3359327E+03  0.7546771E-02  0.1068542E+00
         21   -1    0    0  503  501  0.00000000000E+00  0.00000000000E+00  0.82208284358E+03  0.82208284358E+03  0.00000000000E+00 0. -1.
         21   -1    0    0  501  502 -0.00000000000E+00 -0.00000000000E+00 -0.26334182357E+03  0.26334182357E+03  0.00000000000E+00 0. -1.
         25    1    1    2    0    0 -0.23942499770E+03 -0.10700974600E+01  0.14972791098E+03  0.30881859070E+03  0.12500000000E+03 0.  0.
         21    1    1    2  503  504 -0.13791521496E+03  0.30324121832E+02  0.37011737149E+03  0.39614016151E+03  0.00000000000E+00 0. -1.
         21    1    1    2  504  502  0.37734021266E+03 -0.29254024372E+02  0.38895737536E+02  0.38046591494E+03  0.00000000000E+00 0. -1.
<mgrwt>
<rscale>  4 0.33593265E+03</rscale>
<asrwt>0</asrwt>
<pdfrwt beam="1">  1       21 0.12647428E+00 0.33593265E+03</pdfrwt>
<pdfrwt beam="2">  1       21 0.40514127E-01 0.33593265E+03</pdfrwt>
<totfact> 0.24655590E+03</totfact>
</mgrwt>
</event>
<event>
 5    0  0.1814147E+000  0.2222916E+03  0.7546771E-02  0.1132186E+00
         21   -1    0    0  503  501  0.00000000000E+00  0.00000000000E+00  0.36924293346E+03  0.36924293346E+03  0.00000000000E+00 0.  1.
         21   -1    0    0  504  502 -0.00000000000E+00 -0.00000000000E+00 -0.37707503646E+03  0.37707503646E+03  0.00000000000E+00 0. -1.
         25    1    1    2    0    0 -0.10724554715E+03 -0.18033131697E+03  0.29468081208E+01  0.24424306529E+03  0.12500000000E+03 0.  0.
         21    1    1    2  503  502  0.99701340899E+02  0.14673471700E+03 -0.22419829462E+03  0.28589562756E+03  0.00000000000E+00 0. -1.
         21    1    1    2  504  501  0.75442062533E+01  0.33596599971E+02  0.21341938350E+03  0.21617927706E+03  0.00000000000E+00 0.  1.
<mgrwt>
<rscale>  4 0.22229164E+03</rscale>
<asrwt>0</asrwt>
<pdfrwt beam="1">  1       21 0.56806605E-01 0.22229164E+03</pdfrwt>
<pdfrwt beam="2">  1       21 0.58011544E-01 0.22229164E+03</pdfrwt>
<totfact> 0.79473098E+03</totfact>
</mgrwt>
</event>
<event>
 5    0  0.1814147E+000  0.3275036E+03  0.7546771E-02  0.1072247E+00
         21   -1    0    0  503  501  0.00000000000E+00  0.00000000000E+00  0.75571902504E+03  0.75571902504E+03  0.00000000000E+00 0.  1.
         21   -1    0    0  504  502 -0.00000000000E+00 -0.00000000000E+00 -0.10758469382E+04  0.10758469382E+04  0.00000000000E+00 0. -1.
         25    1    1    2    0    0 -0.31735448953E+02  0.27873798191E+03 -0.53816724767E+03  0.61963778754E+03  0.12500000000E+03 0.  0.
         21    1    1    2  503  502  0.22497274809E+03 -0.29633591426E+03 -0.41055885426E+03  0.55406342983E+03  0.00000000000E+00 0. -1.
         21    1    1    2  504  501 -0.19323729914E+03  0.17597932349E+02  0.62859818874E+03  0.65786474590E+03  0.00000000000E+00 0.  1.
<mgrwt>
<rscale>  4 0.32750361E+03</rscale>
<asrwt>0</asrwt>
<pdfrwt beam="1">  1       21 0.11626447E+00 0.32750361E+03</pdfrwt>
<pdfrwt beam="2">  1       21 0.16551491E+00 0.32750361E+03</pdfrwt>
<totfact> 0.11393868E+02</totfact>
</mgrwt>
</event>
<event>
 5    0  0.1814147E+000  0.3152766E+03  0.7546771E-02  0.1077844E+00
         21   -1    0    0  503  501  0.00000000000E+00  0.00000000000E+00  0.91788577300E+03  0.91788577300E+03  0.00000000000E+00 0.  1.
         21   -1    0    0  501  502 -0.00000000000E+00 -0.00000000000E+00 -0.15924265212E+03  0.15924265212E+03  0.00000000000E+00 0.  1.
         25    1    1    2    0    0 -0.24481835062E+02 -0.28195885426E+03  0.11344876398E+03  0.32953873489E+03  0.12500000000E+03 0.  0.
         21    1    1    2  503  504  0.35712159109E+02 -0.22473272265E+02  0.22303050513E+03  0.22698681127E+03  0.00000000000E+00 0. -1.
         21    1    1    2  504  502 -0.11230324046E+02  0.30443212653E+03  0.42216385177E+03  0.52060287896E+03  0.00000000000E+00 0.  1.
<mgrwt>
<rscale>  4 0.31527663E+03</rscale>
<asrwt>0</asrwt>
<pdfrwt beam="1">  1       21 0.14121319E+00 0.31527663E+03</pdfrwt>
<pdfrwt beam="2">  1       21 0.24498870E-01 0.31527663E+03</pdfrwt>
<totfact> 0.50850735E+03</totfact>
</mgrwt>
</event>
<event>
 5    0  0.1814147E+000  0.2319452E+03  0.7546771E-02  0.1125278E+00
         21   -1    0    0  503  501  0.00000000000E+00  0.00000000000E+00  0.18758219278E+03  0.18758219278E+03  0.00000000000E+00 0. -1.
         21   -1    0    0  501  502 -0.00000000000E+00 -0.00000000000E+00 -0.16156669488E+04  0.16156669488E+04  0.00000000000E+00 0.  1.
         25    1    1    2    0    0  0.24000102198E+03 -0.60349111128E+02 -0.11812058844E+04  0.12133074001E+04  0.12500000000E+03 0.  0.
         21    1    1    2  503  504 -0.16402190412E+03  0.10259407796E+03  0.11005229483E+03  0.22257636321E+03  0.00000000000E+00 0. -1.
         21    1    1    2  504  502 -0.75979117857E+02 -0.42244966833E+02 -0.35693116642E+03  0.36736537825E+03  0.00000000000E+00 0. -1.
<mgrwt>
<rscale>  4 0.23194523E+03</rscale>
<asrwt>0</asrwt>
<pdfrwt beam="1">  1       21 0.28858798E-01 0.23194523E+03</pdfrwt>
<pdfrwt beam="2">  1       21 0.24856415E+00 0.23194523E+03</pdfrwt>
<totfact> 0.74397967E+02</totfact>
</mgrwt>
</event>
<event>
 5    0  0.1814147E+000  0.2839103E+03  0.7546771E-02  0.1093572E+00
         21   -1    0    0  503  501  0.00000000000E+00  0.00000000000E+00  0.10566544144E+04  0.10566544144E+04  0.00000000000E+00 0. -1.
         21   -1    0    0  504  502 -0.00000000000E+00 -0.00000000000E+00 -0.34897887327E+03  0.34897887327E+03  0.00000000000E+00 0. -1.
         25    1    1    2    0    0 -0.61938959306E+02  0.24649649230E+03 -0.26634311791E+03  0.38879379092E+03  0.12500000000E+03 0.  0.
         21    1    1    2  503  502  0.83538360075E+02 -0.25279486808E+03  0.84749048854E+03  0.88832653405E+03  0.00000000000E+00 0. -1.
         21    1    1    2  504  501 -0.21599400768E+02  0.62983757789E+01  0.12652817052E+03  0.12851296272E+03  0.00000000000E+00 0. -1.
<mgrwt>
<rscale>  4 0.28391033E+03</rscale>
<asrwt>0</asrwt>
<pdfrwt beam="1">  1       21 0.16256222E+00 0.28391033E+03</pdfrwt>
<pdfrwt beam="2">  1       21 0.53689058E-01 0.28391033E+03</pdfrwt>
<totfact> 0.72796742E+02</totfact>
</mgrwt>
</event>
<event>
 5    0  0.1814147E+000  0.2499640E+03  0.7546771E-02  0.1113328E+00
         21   -1    0    0  503  501  0.00000000000E+00  0.00000000000E+00  0.31364691047E+04  0.31364691047E+04  0.00000000000E+00 0.  1.
         21   -1    0    0  501  502 -0.00000000000E+00 -0.00000000000E+00 -0.10040996836E+04  0.10040996836E+04  0.00000000000E+00 0.  1.
         25    1    1    2    0    0  0.24860405950E+03 -0.60539094489E+02 -0.77068018916E+03  0.82160934410E+03  0.12500000000E+03 0.  0.
         21    1    1    2  503  504 -0.95343181790E+02 -0.39197795330E+01  0.30769132634E+04  0.30783925867E+04  0.00000000000E+00 0.  1.
         21    1    1    2  504  502 -0.15326087771E+03  0.64458874022E+02 -0.17386365310E+03  0.24056685753E+03  0.00000000000E+00 0.  1.
<mgrwt>
<rscale>  4 0.24996403E+03</rscale>
<asrwt>0</asrwt>
<pdfrwt beam="1">  1       21 0.48253370E+00 0.24996403E+03</pdfrwt>
<pdfrwt beam="2">  1       21 0.15447688E+00 0.24996403E+03</pdfrwt>
<totfact> 0.60944131E-01</totfact>
</mgrwt>
</event>
<event>
 5    0  0.1814147E+000  0.2561833E+03  0.7546771E-02  0.1109458E+00
         21   -1    0    0  503  501  0.00000000000E+00  0.00000000000E+00  0.81955700337E+03  0.81955700337E+03  0.00000000000E+00 0. -1.
         21   -1    0    0  501  502 -0.00000000000E+00 -0.00000000000E+00 -0.10324745336E+04  0.10324745336E+04  0.00000000000E+00 0. -1.
         25    1    1    2    0    0  0.16209261345E+03 -0.17067475223E+03 -0.40974546315E+03  0.48879467158E+03  0.12500000000E+03 0.  0.
         21    1    1    2  503  504 -0.48111720570E+02 -0.16629817368E+02  0.75854116117E+03  0.76024731612E+03  0.00000000000E+00 0. -1.
         21    1    1    2  504  502 -0.11398089288E+03  0.18730456960E+03 -0.56171322829E+03  0.60298954931E+03  0.00000000000E+00 0. -1.
<mgrwt>
<rscale>  4 0.25618329E+03</rscale>
<asrwt>0</asrwt>
<pdfrwt beam="1">  1       21 0.12608569E+00 0.25618329E+03</pdfrwt>
<pdfrwt beam="2">  1       21 0.15884224E+00 0.25618329E+03</pdfrwt>
<totfact> 0.11100366E+02</totfact>
</mgrwt>
</event>
<event>
 5    0  0.1814147E+000  0.3152575E+03  0.7546771E-02  0.1077853E+00
         21   -1    0    0  503  501  0.00000000000E+00  0.00000000000E+00  0.31738040383E+03  0.31738040383E+03  0.00000000000E+00 0. -1.
         21   -1    0    0  501  502 -0.00000000000E+00 -0.00000000000E+00 -0.95323734483E+03  0.95323734483E+03  0.00000000000E+00 0. -1.
         25    1    1    2    0    0 -0.26078671883E+03  0.15353926424E+03 -0.70322740787E+03  0.77571760684E+03  0.12500000000E+03 0.  0.
         21    1    1    2  503  504  0.45345855364E+02 -0.70581398245E+01  0.19815064217E+03  0.20339552829E+03  0.00000000000E+00 0. -1.
         21    1    1    2  504  502  0.21544086346E+03 -0.14648112442E+03 -0.13078017530E+03  0.29150461353E+03  0.00000000000E+00 0. -1.
<mgrwt>
<rscale>  4 0.31525750E+03</rscale>
<asrwt>0</asrwt>
<pdfrwt beam="1">  1       21 0.48827755E-01 0.31525750E+03</pdfrwt>
<pdfrwt beam="2">  1       21 0.14665190E+00 0.31525750E+03</pdfrwt>
<totfact> 0.11512104E+03</totfact>
</mgrwt>
</event>
<event>
 5    0  0.1814147E+000  0.2638117E+03  0.7546771E-02  0.1104874E+00
         21   -1    0    0  503  501  0.00000000000E+00  0.00000000000E+00  0.26916964495E+03  0.26916964495E+03  0.00000000000E+00 0. -1.
         21   -1    0    0  501  502 -0.00000000000E+00 -0.00000000000E+00 -0.58791150701E+03  0.58791150701E+03  0.00000000000E+00 0.  1.
         25    1    1    2    0    0  0.78783219672E+02  0.21586900538E+03 -0.35857559928E+03  0.44385547601E+03  0.12500000000E+03 0.  0.
         21    1    1    2  503  504 -0.12588975261E+03  0.50524395185E+02 -0.17249637306E+02  0.13674243785E+03  0.00000000000E+00 0.  1.
         21    1    1    2  504  502  0.47106532937E+02 -0.26639340056E+03  0.57083374526E+02  0.27648323811E+03  0.00000000000E+00 0. -1.
<mgrwt>
<rscale>  4 0.26381175E+03</rscale>
<asrwt>0</asrwt>
<pdfrwt beam="1">  1       21 0.41410715E-01 0.26381175E+03</pdfrwt>
<pdfrwt beam="2">  1       21 0.90447924E-01 0.26381175E+03</pdfrwt>
<totfact> 0.55578477E+03</totfact>
</mgrwt>
</event>
<event>
 5    0  0.1814147E+000  0.2764602E+03  0.7546771E-02  0.1097638E+00
         21   -1    0    0  503  501  0.00000000000E+00  0.00000000000E+00  0.74883969224E+03  0.74883969224E+03  0.00000000000E+00 0. -1.
         21   -1    0    0  504  502 -0.00000000000E+00 -0.00000000000E+00 -0.37396536145E+03  0.37396536145E+03  0.00000000000E+00 0. -1.
         25    1    1    2    0    0  0.16857627509E+03  0.14594984887E+03  0.14992978660E+03  0.29634989424E+03  0.12500000000E+03 0.  0.
         21    1    1    2  503  502 -0.10239642781E+02 -0.27057496783E+03 -0.21291660653E+03  0.34445485166E+03  0.00000000000E+00 0. -1.
         21    1    1    2  504  501 -0.15833663231E+03  0.12462511896E+03  0.43786115071E+03  0.48200030779E+03  0.00000000000E+00 0. -1.
<mgrwt>
<rscale>  4 0.27646024E+03</rscale>
<asrwt>0</asrwt>
<pdfrwt beam="1">  1       21 0.11520611E+00 0.27646024E+03</pdfrwt>
<pdfrwt beam="2">  1       21 0.57533133E-01 0.27646024E+03</pdfrwt>
<totfact> 0.15464654E+03</totfact>
</mgrwt>
</event>
<event>
 5    0  0.1814147E+000  0.3386081E+03  0.7546771E-02  0.1067390E+00
         21   -1    0    0  502  501  0.00000000000E+00  0.00000000000E+00  0.60773163545E+03  0.60773163545E+03  0.00000000000E+00 0.  1.
         21   -1    0    0  504  502 -0.00000000000E+00 -0.00000000000E+00 -0.40984522244E+03  0.40984522244E+03  0.00000000000E+00 0.  1.
         25    1    1    2    0    0 -0.31285139571E+03 -0.37523746474E+02 -0.24073850634E+03  0.41576923381E+03  0.12500000000E+03 0.  0.
         21    1    1    2  503  501  0.31790781301E+03 -0.38115682255E+02  0.41127812508E+03  0.52121768866E+03  0.00000000000E+00 0.  1.
         21    1    1    2  504  503 -0.50564172981E+01  0.75639428729E+02  0.27346794265E+02  0.80589935420E+02  0.00000000000E+00 0. -1.
<mgrwt>
<rscale>  4 0.33860811E+03</rscale>
<asrwt>0</asrwt>
<pdfrwt beam="1">  1       21 0.93497174E-01 0.33860811E+03</pdfrwt>
<pdfrwt beam="2">  1       21 0.63053111E-01 0.33860811E+03</pdfrwt>
<totfact> 0.20268098E+03</totfact>
</mgrwt>
</event>
<event>
 5    0  0.1814147E+000  0.2469701E+03  0.7546771E-02  0.1115235E+00
         21   -1    0    0  503  501  0.00000000000E+00  0.00000000000E+00  0.95650254503E+03  0.95650254503E+03  0.00000000000E+00 0. -1.
         21   -1    0    0  504  502 -0.00000000000E+00 -0.00000000000E+00 -0.10798494515E+03  0.10798494515E+03  0.00000000000E+00 0. -1.
         25    1    1    2    0    0  0.10730231356E+03 -0.17220754980E+03  0.25436189677E+03  0.34856018308E+03  0.12500000000E+03 0.  0.
         21    1    1    2  503  502 -0.16654893031E+03  0.14925341840E+03  0.15477192761E+03  0.27197330507E+03  0.00000000000E+00 0. -1.
         21    1    1    2  504  501  0.59246616753E+02  0.22954131399E+02  0.43938377550E+03  0.44395400203E+03  0.00000000000E+00 0. -1.
<mgrwt>
<rscale>  4 0.24697010E+03</rscale>
<asrwt>0</asrwt>
<pdfrwt beam="1">  1       21 0.14715423E+00 0.24697010E+03</pdfrwt>
<pdfrwt beam="2">  1       21 0.16613069E-01 0.24697010E+03</pdfrwt>
<totfact> 0.98552721E+03</totfact>
</mgrwt>
</event>
<event>
 5    0  0.1814147E+000  0.2423369E+03  0.7546771E-02  0.1118246E+00
         21   -1    0    0  503  501  0.00000000000E+00  0.00000000000E+00  0.55862499981E+03  0.55862499981E+03  0.00000000000E+00 0. -1.
         21   -1    0    0  504  502 -0.00000000000E+00 -0.00000000000E+00 -0.77592702871E+03  0.77592702871E+03  0.00000000000E+00 0. -1.
         25    1    1    2    0    0 -0.12803967704E+03  0.17356335674E+03 -0.59971367358E+03  0.64946122901E+03  0.12500000000E+03 0.  0.
         21    1    1    2  503  502  0.21977616443E+03  0.71852559339E+02  0.35224882075E+03  0.42135921072E+03  0.00000000000E+00 0. -1.
         21    1    1    2  504  501 -0.91736487391E+02 -0.24541591608E+03  0.30162823924E+02  0.26373158880E+03  0.00000000000E+00 0. -1.
<mgrwt>
<rscale>  4 0.24233687E+03</rscale>
<asrwt>0</asrwt>
<pdfrwt beam="1">  1       21 0.85942308E-01 0.24233687E+03</pdfrwt>
<pdfrwt beam="2">  1       21 0.11937339E+00 0.24233687E+03</pdfrwt>
<totfact> 0.59514452E+02</totfact>
</mgrwt>
</event>
<event>
 5    0  0.1814147E+000  0.4345059E+03  0.7546771E-02  0.1032446E+00
         21   -1    0    0  503  501  0.00000000000E+00  0.00000000000E+00  0.25266137383E+03  0.25266137383E+03  0.00000000000E+00 0. -1.
         21   -1    0    0  501  502 -0.00000000000E+00 -0.00000000000E+00 -0.89117389559E+03  0.89117389559E+03  0.00000000000E+00 0.  1.
         25    1    1    2    0    0 -0.87398664770E+01 -0.39717409908E+03 -0.21060769862E+03  0.46669503208E+03  0.12500000000E+03 0.  0.
         21    1    1    2  503  504 -0.25778017212E+02 -0.30341348304E+02  0.29912728736E+02  0.49798342630E+02  0.00000000000E+00 0. -1.
         21    1    1    2  504  502  0.34517883689E+02  0.42751544739E+03 -0.45781755188E+03  0.62734189471E+03  0.00000000000E+00 0. -1.
<mgrwt>
<rscale>  4 0.43450590E+03</rscale>
<asrwt>0</asrwt>
<pdfrwt beam="1">  1       21 0.38870980E-01 0.43450590E+03</pdfrwt>
<pdfrwt beam="2">  1       21 0.13710368E+00 0.43450590E+03</pdfrwt>
<totfact> 0.20824643E+03</totfact>
</mgrwt>
</event>
<event>
 5    0  0.1814147E+000  0.2586483E+03  0.7546771E-02  0.1107958E+00
         21   -1    0    0  503  501  0.00000000000E+00  0.00000000000E+00  0.10006186204E+04  0.10006186204E+04  0.00000000000E+00 0. -1.
         21   -1    0    0  501  502 -0.00000000000E+00 -0.00000000000E+00 -0.19827084828E+03  0.19827084828E+03  0.00000000000E+00 0. -1.
         25    1    1    2    0    0  0.61027749013E+02  0.21501218271E+03 -0.83453165369E+02  0.26934003726E+03  0.12500000000E+03 0.  0.
         21    1    1    2  503  504  0.11354367650E+02  0.26843362489E+02  0.81190833901E+02  0.86263777357E+02  0.00000000000E+00 0. -1.
         21    1    1    2  504  502 -0.72382116663E+02 -0.24185554520E+03  0.80461010354E+03  0.84328565402E+03  0.00000000000E+00 0. -1.
<mgrwt>
<rscale>  4 0.25864833E+03</rscale>
<asrwt>0</asrwt>
<pdfrwt beam="1">  1       21 0.15394132E+00 0.25864833E+03</pdfrwt>
<pdfrwt beam="2">  1       21 0.30503208E-01 0.25864833E+03</pdfrwt>
<totfact> 0.27291941E+03</totfact>
</mgrwt>
</event>
<event>
 5    0  0.1814147E+000  0.3052573E+03  0.7546771E-02  0.1082642E+00
         21   -1    0    0  503  501  0.00000000000E+00  0.00000000000E+00  0.17020274172E+03  0.17020274172E+03  0.00000000000E+00 0.  1.
         21   -1    0    0  504  502 -0.00000000000E+00 -0.00000000000E+00 -0.72992245047E+03  0.72992245047E+03  0.00000000000E+00 0.  1.
         25    1    1    2    0    0 -0.78626508776E+02  0.26765569053E+03 -0.42276378582E+03  0.52170481611E+03  0.12500000000E+03 0.  0.
         21    1    1    2  503  502  0.56005350022E+02 -0.27265134216E+03 -0.17863537669E+03  0.33073547046E+03  0.00000000000E+00 0.  1.
         21    1    1    2  504  501  0.22621158754E+02  0.49956516339E+01  0.41679453750E+02  0.47684905616E+02  0.00000000000E+00 0. -1.
<mgrwt>
<rscale>  4 0.30525734E+03</rscale>
<asrwt>0</asrwt>
<pdfrwt beam="1">  1       21 0.26185037E-01 0.30525734E+03</pdfrwt>
<pdfrwt beam="2">  1       21 0.11229576E+00 0.30525734E+03</pdfrwt>
<totfact> 0.80500203E+03</totfact>
</mgrwt>
</event>
<event>
 5    0  0.1814147E+000  0.2662042E+03  0.7546771E-02  0.1103472E+00
         21   -1    0    0  502  501  0.00000000000E+00  0.00000000000E+00  0.30441126432E+03  0.30441126432E+03  0.00000000000E+00 0.  1.
         21   -1    0    0  503  502 -0.00000000000E+00 -0.00000000000E+00 -0.95422741664E+03  0.95422741664E+03  0.00000000000E+00 0.  1.
         25    1    1    2    0    0 -0.18024743013E+03  0.15083277996E+03 -0.88226805094E+03  0.92155389278E+03  0.12500000000E+03 0.  0.
         21    1    1    2  503  504  0.13293695510E+01 -0.25792435378E+02  0.23800931334E+02  0.35121236859E+02  0.00000000000E+00 0. -1.
         21    1    1    2  504  501  0.17891806058E+03 -0.12504034458E+03  0.20865096729E+03  0.30196355132E+03  0.00000000000E+00 0.  1.
<mgrwt>
<rscale>  4 0.26620418E+03</rscale>
<asrwt>0</asrwt>
<pdfrwt beam="1">  1       21 0.46832503E-01 0.26620418E+03</pdfrwt>
<pdfrwt beam="2">  1       21 0.14680422E+00 0.26620418E+03</pdfrwt>
<totfact> 0.12949723E+03</totfact>
</mgrwt>
</event>
<event>
 5    0  0.1814147E+000  0.2450452E+03  0.7546771E-02  0.1116477E+00
         21   -1    0    0  502  501  0.00000000000E+00  0.00000000000E+00  0.33632073401E+03  0.33632073401E+03  0.00000000000E+00 0. -1.
         21   -1    0    0  504  502 -0.00000000000E+00 -0.00000000000E+00 -0.87582517369E+03  0.87582517369E+03  0.00000000000E+00 0. -1.
         25    1    1    2    0    0  0.24624420506E+03 -0.46797694168E+02 -0.77574578664E+03  0.82476224343E+03  0.12500000000E+03 0.  0.
         21    1    1    2  503  501 -0.20705711865E+03  0.28177975189E+02  0.26338106130E+03  0.33620861399E+03  0.00000000000E+00 0. -1.
         21    1    1    2  504  503 -0.39187086407E+02  0.18619718979E+02 -0.27139714344E+02  0.51175050275E+02  0.00000000000E+00 0. -1.
<mgrwt>
<rscale>  4 0.24504522E+03</rscale>
<asrwt>0</asrwt>
<pdfrwt beam="1">  1       21 0.51741651E-01 0.24504522E+03</pdfrwt>
<pdfrwt beam="2">  1       21 0.13474233E+00 0.24504522E+03</pdfrwt>
<totfact> 0.13360727E+03</totfact>
</mgrwt>
</event>
<event>
 5    0  0.1814147E+000  0.2917575E+03  0.7546771E-02  0.1089435E+00
         21   -1    0    0  503  501  0.00000000000E+00  0.00000000000E+00  0.22710151937E+03  0.22710151937E+03  0.00000000000E+00 0.  1.
         21   -1    0    0  504  502 -0.00000000000E+00 -0.00000000000E+00 -0.43513684941E+03  0.43513684941E+03  0.00000000000E+00 0. -1.
         25    1    1    2    0    0 -0.15581794629E+03  0.21719191051E+03 -0.19452294980E+03  0.35343420374E+03  0.12500000000E+03 0.  0.
         21    1    1    2  503  502  0.18264663537E+03 -0.18534015685E+03 -0.33943161221E+02  0.26241742576E+03  0.00000000000E+00 0.  1.
         21    1    1    2  504  501 -0.26828689080E+02 -0.31851753666E+02  0.20430780977E+02  0.46386739276E+02  0.00000000000E+00 0.  1.
<mgrwt>
<rscale>  4 0.29175749E+03</rscale>
<asrwt>0</asrwt>
<pdfrwt beam="1">  1       21 0.34938695E-01 0.29175749E+03</pdfrwt>
<pdfrwt beam="2">  1       21 0.66944130E-01 0.29175749E+03</pdfrwt>
<totfact> 0.15313545E+04</totfact>
</mgrwt>
</event>
<event>
 5    0  0.1814147E+000  0.2885473E+03  0.7546771E-02  0.1091110E+00
         21   -1    0    0  503  501  0.00000000000E+00  0.00000000000E+00  0.42992507134E+03  0.42992507134E+03  0.00000000000E+00 0.  1.
         21   -1    0    0  501  502 -0.00000000000E+00 -0.00000000000E+00 -0.85156176686E+03  0.85156176686E+03  0.00000000000E+00 0.  1.
         25    1    1    2    0    0 -0.17415384229E+03  0.17575970830E+03 -0.11997153799E+03  0.30205828208E+03  0.12500000000E+03 0.  0.
         21    1    1    2  503  504 -0.31672150081E+02 -0.10088350954E+02  0.31071068555E+03  0.31248364762E+03  0.00000000000E+00 0.  1.
         21    1    1    2  504  502  0.20582599238E+03 -0.16567135734E+03 -0.61237584308E+03  0.66694490849E+03  0.00000000000E+00 0.  1.
<mgrwt>
<rscale>  4 0.28854727E+03</rscale>
<asrwt>0</asrwt>
<pdfrwt beam="1">  1       21 0.66142318E-01 0.28854727E+03</pdfrwt>
<pdfrwt beam="2">  1       21 0.13100950E+00 0.28854727E+03</pdfrwt>
<totfact> 0.81868650E+02</totfact>
</mgrwt>
</event>
<event>
 5    0  0.1814147E+000  0.2632729E+03  0.7546771E-02  0.1105193E+00
         21   -1    0    0  502  501  0.00000000000E+00  0.00000000000E+00  0.86565335849E+02  0.86565335849E+02  0.00000000000E+00 0.  1.
         21   -1    0    0  503  502 -0.00000000000E+00 -0.00000000000E+00 -0.85891208942E+03  0.85891208942E+03  0.00000000000E+00 0.  1.
         25    1    1    2    0    0 -0.23711564144E+03  0.80986592699E+02 -0.39066367498E+03  0.48065139400E+03  0.12500000000E+03 0.  0.
         21    1    1    2  503  504  0.32712474766E+02 -0.34878572378E+01 -0.11702611970E+03  0.12156226325E+03  0.00000000000E+00 0.  1.
         21    1    1    2  504  501  0.20440316667E+03 -0.77498735462E+02 -0.26465695889E+03  0.34326376802E+03  0.00000000000E+00 0.  1.
<mgrwt>
<rscale>  4 0.26327285E+03</rscale>
<asrwt>0</asrwt>
<pdfrwt beam="1">  1       21 0.13317744E-01 0.26327285E+03</pdfrwt>
<pdfrwt beam="2">  1       21 0.13214032E+00 0.26327285E+03</pdfrwt>
<totfact> 0.19378542E+04</totfact>
</mgrwt>
</event>
<event>
 5    0  0.1814147E+000  0.2206850E+03  0.7546771E-02  0.1133373E+00
         21   -1    0    0  503  501  0.00000000000E+00  0.00000000000E+00  0.32059075459E+03  0.32059075459E+03  0.00000000000E+00 0.  1.
         21   -1    0    0  501  502 -0.00000000000E+00 -0.00000000000E+00 -0.32416393865E+03  0.32416393865E+03  0.00000000000E+00 0.  1.
         25    1    1    2    0    0 -0.13292941303E+03  0.14957877711E+03 -0.20726523417E+03  0.31405081867E+03  0.12500000000E+03 0.  0.
         21    1    1    2  503  504 -0.22267865166E+01 -0.79437468477E+02  0.14907237030E+03  0.16893147002E+03  0.00000000000E+00 0.  1.
         21    1    1    2  504  502  0.13515619955E+03 -0.70141308635E+02  0.54619679808E+02  0.16177240456E+03  0.00000000000E+00 0.  1.
<mgrwt>
<rscale>  4 0.22068498E+03</rscale>
<asrwt>0</asrwt>
<pdfrwt beam="1">  1       21 0.49321655E-01 0.22068498E+03</pdfrwt>
<pdfrwt beam="2">  1       21 0.49871375E-01 0.22068498E+03</pdfrwt>
<totfact> 0.14760882E+04</totfact>
</mgrwt>
</event>
<event>
 5    0  0.1814147E+000  0.2529350E+03  0.7546771E-02  0.1111464E+00
         21   -1    0    0  503  501  0.00000000000E+00  0.00000000000E+00  0.41022962639E+03  0.41022962639E+03  0.00000000000E+00 0. -1.
         21   -1    0    0  501  502 -0.00000000000E+00 -0.00000000000E+00 -0.15440339474E+03  0.15440339474E+03  0.00000000000E+00 0. -1.
         25    1    1    2    0    0 -0.20642895872E+03 -0.23783505694E+02  0.11079556038E+03  0.26660687602E+03  0.12500000000E+03 0.  0.
         21    1    1    2  503  504 -0.23076973762E+02 -0.15092475235E+02  0.14666351765E+02  0.31231897170E+02  0.00000000000E+00 0. -1.
         21    1    1    2  504  502  0.22950593248E+03  0.38875980929E+02  0.13036431950E+03  0.26679424795E+03  0.00000000000E+00 0. -1.
<mgrwt>
<rscale>  4 0.25293502E+03</rscale>
<asrwt>0</asrwt>
<pdfrwt beam="1">  1       21 0.63112250E-01 0.25293502E+03</pdfrwt>
<pdfrwt beam="2">  1       21 0.23754369E-01 0.25293502E+03</pdfrwt>
<totfact> 0.37694419E+04</totfact>
</mgrwt>
</event>
<event>
 5    0  0.1814147E+000  0.3468037E+03  0.7546771E-02  0.1063935E+00
         21   -1    0    0  503  501  0.00000000000E+00  0.00000000000E+00  0.17831203088E+04  0.17831203088E+04  0.00000000000E+00 0. -1.
         21   -1    0    0  501  502 -0.00000000000E+00 -0.00000000000E+00 -0.19457396546E+03  0.19457396546E+03  0.00000000000E+00 0. -1.
         25    1    1    2    0    0  0.27551344599E+03  0.15388840567E+03  0.26883819688E+02  0.34049528643E+03  0.12500000000E+03 0.  0.
         21    1    1    2  503  504  0.81048034433E+02 -0.41267008304E+02  0.57327675982E+03  0.58044637410E+03  0.00000000000E+00 0. -1.
         21    1    1    2  504  502 -0.35656148043E+03 -0.11262139736E+03  0.98838576383E+03  0.10567526137E+04  0.00000000000E+00 0. -1.
<mgrwt>
<rscale>  4 0.34680367E+03</rscale>
<asrwt>0</asrwt>
<pdfrwt beam="1">  1       21 0.27432619E+00 0.34680367E+03</pdfrwt>
<pdfrwt beam="2">  1       21 0.29934457E-01 0.34680367E+03</pdfrwt>
<totfact> 0.43952097E+02</totfact>
</mgrwt>
</event>
<event>
 5    0  0.1814147E+000  0.2451025E+03  0.7546771E-02  0.1116440E+00
         21   -1    0    0  503  501  0.00000000000E+00  0.00000000000E+00  0.46981088649E+02  0.46981088649E+02  0.00000000000E+00 0. -1.
         21   -1    0    0  504  502 -0.00000000000E+00 -0.00000000000E+00 -0.12847305889E+04  0.12847305889E+04  0.00000000000E+00 0. -1.
         25    1    1    2    0    0 -0.10355824460E+03  0.17322661233E+03 -0.73317026539E+03  0.77064609731E+03  0.12500000000E+03 0.  0.
         21    1    1    2  503  502  0.10905496069E+03 -0.19458658164E+03 -0.46571146990E+03  0.51637592450E+03  0.00000000000E+00 0. -1.
         21    1    1    2  504  501 -0.54967160926E+01  0.21359969308E+02 -0.38867764913E+02  0.44689655693E+02  0.00000000000E+00 0.  1.
<mgrwt>
<rscale>  4 0.24510248E+03</rscale>
<asrwt>0</asrwt>
<pdfrwt beam="1">  1       21 0.72278607E-02 0.24510248E+03</pdfrwt>
<pdfrwt beam="2">  1       21 0.19765084E+00 0.24510248E+03</pdfrwt>
<totfact> 0.19186136E+04</totfact>
</mgrwt>
</event>
<event>
 5    0  0.1814147E+000  0.2118291E+03  0.7546771E-02  0.1140126E+00
         21   -1    0    0  503  501  0.00000000000E+00  0.00000000000E+00  0.27422658591E+03  0.27422658591E+03  0.00000000000E+00 0.  1.
         21   -1    0    0  504  502 -0.00000000000E+00 -0.00000000000E+00 -0.57298062508E+03  0.57298062508E+03  0.00000000000E+00 0.  1.
         25    1    1    2    0    0  0.57912010469E+02 -0.25522128315E+03 -0.31106099027E+03  0.42529477307E+03  0.12500000000E+03 0.  0.
         21    1    1    2  503  502  0.14313434551E+02  0.10870304535E+03 -0.15384000587E+03  0.18891260911E+03  0.00000000000E+00 0.  1.
         21    1    1    2  504  501 -0.72225445020E+02  0.14651823780E+03  0.16614695697E+03  0.23299982881E+03  0.00000000000E+00 0.  1.
<mgrwt>
<rscale>  4 0.21182912E+03</rscale>
<asrwt>0</asrwt>
<pdfrwt beam="1">  1       21 0.42188706E-01 0.21182912E+03</pdfrwt>
<pdfrwt beam="2">  1       21 0.88150865E-01 0.21182912E+03</pdfrwt>
<totfact> 0.58739575E+03</totfact>
</mgrwt>
</event>
<event>
 5    0  0.1814147E+000  0.2158428E+03  0.7546771E-02  0.1137021E+00
         21   -1    0    0  502  501  0.00000000000E+00  0.00000000000E+00  0.35948566569E+03  0.35948566569E+03  0.00000000000E+00 0. -1.
         21   -1    0    0  504  502 -0.00000000000E+00 -0.00000000000E+00 -0.21578274505E+03  0.21578274505E+03  0.00000000000E+00 0. -1.
         25    1    1    2    0    0  0.20608810609E+03  0.52604752420E+02 -0.37287369261E+02  0.24950934924E+03  0.12500000000E+03 0.  0.
         21    1    1    2  503  501 -0.75412700481E+02  0.17499157331E+02  0.15766148159E+03  0.17564292949E+03  0.00000000000E+00 0. -1.
         21    1    1    2  504  503 -0.13067540561E+03 -0.70103909751E+02  0.23328808307E+02  0.15011613201E+03  0.00000000000E+00 0. -1.
<mgrwt>
<rscale>  4 0.21584283E+03</rscale>
<asrwt>0</asrwt>
<pdfrwt beam="1">  1       21 0.55305487E-01 0.21584283E+03</pdfrwt>
<pdfrwt beam="2">  1       21 0.33197345E-01 0.21584283E+03</pdfrwt>
<totfact> 0.26591664E+04</totfact>
</mgrwt>
</event>
<event>
 5    0  0.1814147E+000  0.2607865E+03  0.7546771E-02  0.1106672E+00
         21   -1    0    0  503  501  0.00000000000E+00  0.00000000000E+00  0.49375846652E+03  0.49375846652E+03  0.00000000000E+00 0. -1.
         21   -1    0    0  504  502 -0.00000000000E+00 -0.00000000000E+00 -0.42977101072E+03  0.42977101072E+03  0.00000000000E+00 0. -1.
         25    1    1    2    0    0 -0.23354737808E+03 -0.18153706735E+02 -0.33930487383E+03  0.43084420883E+03  0.12500000000E+03 0.  0.
         21    1    1    2  503  502  0.20074759871E+03  0.16828964820E+02  0.19011571129E+03  0.27699602185E+03  0.00000000000E+00 0. -1.
         21    1    1    2  504  501  0.32799779375E+02  0.13247419150E+01  0.21317661835E+03  0.21568924656E+03  0.00000000000E+00 0. -1.
<mgrwt>
<rscale>  4 0.26078647E+03</rscale>
<asrwt>0</asrwt>
<pdfrwt beam="1">  1       21 0.75962841E-01 0.26078647E+03</pdfrwt>
<pdfrwt beam="2">  1       21 0.66118617E-01 0.26078647E+03</pdfrwt>
<totfact> 0.30851288E+03</totfact>
</mgrwt>
</event>
<event>
 5    0  0.1814147E+000  0.2359657E+03  0.7546771E-02  0.1122510E+00
         21   -1    0    0  503  501  0.00000000000E+00  0.00000000000E+00  0.61956600962E+03  0.61956600962E+03  0.00000000000E+00 0. -1.
         21   -1    0    0  504  502 -0.00000000000E+00 -0.00000000000E+00 -0.19943365131E+03  0.19943365131E+03  0.00000000000E+00 0. -1.
         25    1    1    2    0    0  0.31961702103E+02  0.20169247700E+03 -0.76641587460E+02  0.25139677526E+03  0.12500000000E+03 0.  0.
         21    1    1    2  503  502 -0.44503710687E+02 -0.18341557484E+03  0.21967450405E+03  0.28961826788E+03  0.00000000000E+00 0. -1.
         21    1    1    2  504  501  0.12542008584E+02 -0.18276902166E+02  0.27709944172E+03  0.27798461780E+03  0.00000000000E+00 0. -1.
<mgrwt>
<rscale>  4 0.23596566E+03</rscale>
<asrwt>0</asrwt>
<pdfrwt beam="1">  1       21 0.95317847E-01 0.23596566E+03</pdfrwt>
<pdfrwt beam="2">  1       21 0.30682100E-01 0.23596566E+03</pdfrwt>
<totfact> 0.91071035E+03</totfact>
</mgrwt>
</event>
<event>
 5    0  0.1814147E+000  0.3585465E+03  0.7546771E-02  0.1059161E+00
         21   -1    0    0  503  501  0.00000000000E+00  0.00000000000E+00  0.75944974561E+03  0.75944974561E+03  0.00000000000E+00 0. -1.
         21   -1    0    0  504  502 -0.00000000000E+00 -0.00000000000E+00 -0.41309090128E+03  0.41309090128E+03  0.00000000000E+00 0. -1.
         25    1    1    2    0    0  0.29128706450E+03 -0.27204172384E+03  0.15118864057E+03  0.44422725996E+03  0.12500000000E+03 0.  0.
         21    1    1    2  503  502 -0.33456678058E+03  0.22481545605E+02 -0.89713533724E+02  0.34711506550E+03  0.00000000000E+00 0. -1.
         21    1    1    2  504  501  0.43279716081E+02  0.24956017824E+03  0.28488373749E+03  0.38119832144E+03  0.00000000000E+00 0. -1.
<mgrwt>
<rscale>  4 0.35854647E+03</rscale>
<asrwt>0</asrwt>
<pdfrwt beam="1">  1       21 0.11683842E+00 0.35854647E+03</pdfrwt>
<pdfrwt beam="2">  1       21 0.63552446E-01 0.35854647E+03</pdfrwt>
<totfact> 0.11456448E+03</totfact>
</mgrwt>
</event>
<event>
 5    0  0.1814147E+000  0.3845660E+03  0.7546771E-02  0.1049259E+00
         21   -1    0    0  503  501  0.00000000000E+00  0.00000000000E+00  0.94834739059E+03  0.94834739059E+03  0.00000000000E+00 0. -1.
         21   -1    0    0  501  502 -0.00000000000E+00 -0.00000000000E+00 -0.10117944127E+04  0.10117944127E+04  0.00000000000E+00 0. -1.
         25    1    1    2    0    0  0.39154298385E+03  0.18428759503E+03 -0.76150545085E+03  0.88475046062E+03  0.12500000000E+03 0.  0.
         21    1    1    2  503  504 -0.21742459726E+03  0.16993922873E+02  0.76951624428E+03  0.79982341746E+03  0.00000000000E+00 0. -1.
         21    1    1    2  504  502 -0.17411838659E+03 -0.20128151791E+03 -0.71457815524E+02  0.27556792520E+03  0.00000000000E+00 0. -1.
<mgrwt>
<rscale>  4 0.38456605E+03</rscale>
<asrwt>0</asrwt>
<pdfrwt beam="1">  1       21 0.14589960E+00 0.38456605E+03</pdfrwt>
<pdfrwt beam="2">  1       21 0.15566068E+00 0.38456605E+03</pdfrwt>
<totfact> 0.72031086E+01</totfact>
</mgrwt>
</event>
<event>
 5    0  0.1814147E+000  0.2703344E+03  0.7546771E-02  0.1101088E+00
         21   -1    0    0  503  501  0.00000000000E+00  0.00000000000E+00  0.25440241814E+03  0.25440241814E+03  0.00000000000E+00 0.  1.
         21   -1    0    0  501  502 -0.00000000000E+00 -0.00000000000E+00 -0.37726864380E+03  0.37726864380E+03  0.00000000000E+00 0.  1.
         25    1    1    2    0    0 -0.18080618495E+02 -0.23901623230E+03 -0.23697203573E+03  0.35949466448E+03  0.12500000000E+03 0.  0.
         21    1    1    2  503  504  0.15214047447E+02  0.13292522172E+02  0.25140842403E+01  0.20358757452E+02  0.00000000000E+00 0.  1.
         21    1    1    2  504  502  0.28665710487E+01  0.22572371013E+03  0.11159172583E+03  0.25181764001E+03  0.00000000000E+00 0.  1.
<mgrwt>
<rscale>  4 0.27033436E+03</rscale>
<asrwt>0</asrwt>
<pdfrwt beam="1">  1       21 0.39138834E-01 0.27033436E+03</pdfrwt>
<pdfrwt beam="2">  1       21 0.58041329E-01 0.27033436E+03</pdfrwt>
<totfact> 0.16788756E+04</totfact>
</mgrwt>
</event>
<event>
 5    0  0.1814147E+000  0.2922773E+03  0.7546771E-02  0.1089166E+00
         21   -1    0    0  503  501  0.00000000000E+00  0.00000000000E+00  0.70125494825E+03  0.70125494825E+03  0.00000000000E+00 0. -1.
         21   -1    0    0  504  502 -0.00000000000E+00 -0.00000000000E+00 -0.17939179340E+03  0.17939179340E+03  0.00000000000E+00 0. -1.
         25    1    1    2    0    0 -0.27145944066E+03  0.58690692788E+02  0.27392046837E+03  0.40962452116E+03  0.12500000000E+03 0.  0.
         21    1    1    2  503  502  0.26058455622E+03  0.18539738050E+02  0.60723857811E+02  0.26820779208E+03  0.00000000000E+00 0. -1.
         21    1    1    2  504  501  0.10874884441E+02 -0.77230430838E+02  0.18721882867E+03  0.20281442840E+03  0.00000000000E+00 0.  1.
<mgrwt>
<rscale>  4 0.29227727E+03</rscale>
<asrwt>0</asrwt>
<pdfrwt beam="1">  1       21 0.10788538E+00 0.29227727E+03</pdfrwt>
<pdfrwt beam="2">  1       21 0.27598738E-01 0.29227727E+03</pdfrwt>
<totfact> 0.80688961E+03</totfact>
</mgrwt>
</event>
<event>
 5    0  0.1814147E+000  0.2617419E+03  0.7546771E-02  0.1106101E+00
         21   -1    0    0  502  501  0.00000000000E+00  0.00000000000E+00  0.14592659119E+04  0.14592659119E+04  0.00000000000E+00 0.  1.
         21   -1    0    0  504  502 -0.00000000000E+00 -0.00000000000E+00 -0.19103856450E+03  0.19103856450E+03  0.00000000000E+00 0. -1.
         25    1    1    2    0    0 -0.22863147783E+03 -0.54081597354E+01 -0.80896865393E+02  0.27289357574E+03  0.12500000000E+03 0.  0.
         21    1    1    2  503  501  0.24673931399E+03 -0.18379364180E+02  0.12250056082E+04  0.12497427056E+04  0.00000000000E+00 0.  1.
         21    1    1    2  504  503 -0.18107836158E+02  0.23787523916E+02  0.12411860466E+03  0.12766819512E+03  0.00000000000E+00 0. -1.
<mgrwt>
<rscale>  4 0.26174194E+03</rscale>
<asrwt>0</asrwt>
<pdfrwt beam="1">  1       21 0.22450244E+00 0.26174194E+03</pdfrwt>
<pdfrwt beam="2">  1       21 0.29390549E-01 0.26174194E+03</pdfrwt>
<totfact> 0.97607368E+02</totfact>
</mgrwt>
</event>
<event>
 5    0  0.1814147E+000  0.2198101E+03  0.7546771E-02  0.1134025E+00
         21   -1    0    0  503  501  0.00000000000E+00  0.00000000000E+00  0.47112233638E+03  0.47112233638E+03  0.00000000000E+00 0. -1.
         21   -1    0    0  504  502 -0.00000000000E+00 -0.00000000000E+00 -0.21527266741E+03  0.21527266741E+03  0.00000000000E+00 0. -1.
         25    1    1    2    0    0  0.79098006573E+01 -0.22415619268E+03  0.79091045756E+01  0.25689709534E+03  0.12500000000E+03 0.  0.
         21    1    1    2  503  502  0.44393725872E+02  0.15306771486E+03 -0.71858267285E+01  0.15953734464E+03  0.00000000000E+00 0. -1.
         21    1    1    2  504  501 -0.52303526529E+02  0.71088477817E+02  0.25512639112E+03  0.26996056381E+03  0.00000000000E+00 0. -1.
<mgrwt>
<rscale>  4 0.21981009E+03</rscale>
<asrwt>0</asrwt>
<pdfrwt beam="1">  1       21 0.72480359E-01 0.21981009E+03</pdfrwt>
<pdfrwt beam="2">  1       21 0.33118872E-01 0.21981009E+03</pdfrwt>
<totfact> 0.14806908E+04</totfact>
</mgrwt>
</event>
<event>
 5    0  0.1814147E+000  0.4750817E+03  0.7546771E-02  0.1020496E+00
         21   -1    0    0  503  501  0.00000000000E+00  0.00000000000E+00  0.10056783762E+04  0.10056783762E+04  0.00000000000E+00 0.  1.
         21   -1    0    0  504  502 -0.00000000000E+00 -0.00000000000E+00 -0.42090055491E+03  0.42090055491E+03  0.00000000000E+00 0.  1.
         25    1    1    2    0    0 -0.43802199765E+03 -0.13408659082E+03 -0.18494223407E+03  0.50957935026E+03  0.12500000000E+03 0.  0.
         21    1    1    2  503  502  0.43171707096E+03  0.15907555298E+03  0.66161798837E+03  0.80586786972E+03  0.00000000000E+00 0.  1.
         21    1    1    2  504  501  0.63049266927E+01 -0.24988962159E+02  0.10810206703E+03  0.11113171117E+03  0.00000000000E+00 0. -1.
<mgrwt>
<rscale>  4 0.47508175E+03</rscale>
<asrwt>0</asrwt>
<pdfrwt beam="1">  1       21 0.15471975E+00 0.47508175E+03</pdfrwt>
<pdfrwt beam="2">  1       21 0.64753932E-01 0.47508175E+03</pdfrwt>
<totfact> 0.49801469E+02</totfact>
</mgrwt>
</event>
<event>
 5    0  0.1814147E+000  0.5690109E+03  0.7546771E-02  0.9971870E-01
         21   -1    0    0  502  501  0.00000000000E+00  0.00000000000E+00  0.94142165240E+03  0.94142165240E+03  0.00000000000E+00 0.  1.
         21   -1    0    0  504  502 -0.00000000000E+00 -0.00000000000E+00 -0.37921987370E+03  0.37921987370E+03  0.00000000000E+00 0.  1.
         25    1    1    2    0    0  0.44759605568E+02  0.51744986825E+03  0.18626389901E+03  0.56575350508E+03  0.12500000000E+03 0.  0.
         21    1    1    2  503  501 -0.54229422493E+02 -0.58403266436E+03  0.34840322358E+03  0.68221682001E+03  0.00000000000E+00 0.  1.
         21    1    1    2  504  503  0.94698169246E+01  0.66582796108E+02  0.27534656109E+02  0.72671201017E+02  0.00000000000E+00 0. -1.
<mgrwt>
<rscale>  4 0.56901093E+03</rscale>
<asrwt>0</asrwt>
<pdfrwt beam="1">  1       21 0.14483410E+00 0.56901093E+03</pdfrwt>
<pdfrwt beam="2">  1       21 0.58341519E-01 0.56901093E+03</pdfrwt>
<totfact> 0.72380968E+02</totfact>
</mgrwt>
</event>
<event>
 5    0  0.1814147E+000  0.2514415E+03  0.7546771E-02  0.1112397E+00
         21   -1    0    0  503  501  0.00000000000E+00  0.00000000000E+00  0.32659094789E+03  0.32659094789E+03  0.00000000000E+00 0. -1.
         21   -1    0    0  501  502 -0.00000000000E+00 -0.00000000000E+00 -0.25121618537E+03  0.25121618537E+03  0.00000000000E+00 0. -1.
         25    1    1    2    0    0 -0.15794699714E+03  0.13438514123E+03 -0.42866790074E+02  0.24590482260E+03  0.12500000000E+03 0.  0.
         21    1    1    2  503  504 -0.29595935021E+02  0.25510718165E+01  0.93815336614E+02  0.98406019740E+02  0.00000000000E+00 0. -1.
         21    1    1    2  504  502  0.18754293216E+03 -0.13693621304E+03  0.24426215988E+02  0.23349629092E+03  0.00000000000E+00 0. -1.
<mgrwt>
<rscale>  4 0.25144152E+03</rscale>
<asrwt>0</asrwt>
<pdfrwt beam="1">  1       21 0.50244761E-01 0.25144152E+03</pdfrwt>
<pdfrwt beam="2">  1       21 0.38648644E-01 0.25144152E+03</pdfrwt>
<totfact> 0.23608861E+04</totfact>
</mgrwt>
</event>
<event>
 5    0  0.1814147E+000  0.2369257E+03  0.7546771E-02  0.1121858E+00
         21   -1    0    0  502  501  0.00000000000E+00  0.00000000000E+00  0.87825748120E+03  0.87825748120E+03  0.00000000000E+00 0. -1.
         21   -1    0    0  503  502 -0.00000000000E+00 -0.00000000000E+00 -0.22302034437E+03  0.22302034437E+03  0.00000000000E+00 0.  1.
         25    1    1    2    0    0 -0.67400848770E+02  0.19956827025E+03 -0.12519440324E+03  0.27508000201E+03  0.12500000000E+03 0.  0.
         21    1    1    2  503  504  0.65124844496E+02 -0.75144026328E+02  0.12842708636E+03  0.16242347914E+03  0.00000000000E+00 0.  1.
         21    1    1    2  504  501  0.22760042747E+01 -0.12442424392E+03  0.65200445370E+03  0.66377434443E+03  0.00000000000E+00 0. -1.
<mgrwt>
<rscale>  4 0.23692574E+03</rscale>
<asrwt>0</asrwt>
<pdfrwt beam="1">  1       21 0.13511653E+00 0.23692574E+03</pdfrwt>
<pdfrwt beam="2">  1       21 0.34310823E-01 0.23692574E+03</pdfrwt>
<totfact> 0.30945029E+03</totfact>
</mgrwt>
</event>
<event>
 5    0  0.1814147E+000  0.2349673E+03  0.7546771E-02  0.1123192E+00
         21   -1    0    0  503  501  0.00000000000E+00  0.00000000000E+00  0.11380072341E+04  0.11380072341E+04  0.00000000000E+00 0.  1.
         21   -1    0    0  504  502 -0.00000000000E+00 -0.00000000000E+00 -0.58119780749E+02  0.58119780749E+02  0.00000000000E+00 0.  1.
         25    1    1    2    0    0  0.19864240881E+03 -0.77332720593E+02  0.37269338355E+03  0.44717391963E+03  0.12500000000E+03 0.  0.
         21    1    1    2  503  502 -0.19240762973E+03  0.29379241004E+02  0.61159614532E+03  0.64182059857E+03  0.00000000000E+00 0.  1.
         21    1    1    2  504  501 -0.62347790739E+01  0.47953479589E+02  0.95597924526E+02  0.10713249670E+03  0.00000000000E+00 0.  1.
<mgrwt>
<rscale>  4 0.23496727E+03</rscale>
<asrwt>0</asrwt>
<pdfrwt beam="1">  1       21 0.17507802E+00 0.23496727E+03</pdfrwt>
<pdfrwt beam="2">  1       21 0.89415056E-02 0.23496727E+03</pdfrwt>
<totfact> 0.18885498E+04</totfact>
</mgrwt>
</event>
<event>
 5    0  0.1814147E+000  0.3646162E+03  0.7546771E-02  0.1056771E+00
         21   -1    0    0  502  501  0.00000000000E+00  0.00000000000E+00  0.10481448359E+04  0.10481448359E+04  0.00000000000E+00 0. -1.
         21   -1    0    0  503  502 -0.00000000000E+00 -0.00000000000E+00 -0.27982343718E+03  0.27982343718E+03  0.00000000000E+00 0. -1.
         25    1    1    2    0    0 -0.83482096954E+02  0.18977820895E+03 -0.54797001103E+02  0.24821913793E+03  0.12500000000E+03 0.  0.
         21    1    1    2  503  504  0.11383230605E+03 -0.36279275601E+03  0.82022200197E+03  0.90406886365E+03  0.00000000000E+00 0. -1.
         21    1    1    2  504  501 -0.30350209095E+02  0.17301454706E+03  0.28963978882E+01  0.17568027154E+03  0.00000000000E+00 0. -1.
<mgrwt>
<rscale>  4 0.36461616E+03</rscale>
<asrwt>0</asrwt>
<pdfrwt beam="1">  1       21 0.16125305E+00 0.36461616E+03</pdfrwt>
<pdfrwt beam="2">  1       21 0.43049760E-01 0.36461616E+03</pdfrwt>
<totfact> 0.11245605E+03</totfact>
</mgrwt>
</event>
<event>
 5    0  0.1814147E+000  0.3193753E+03  0.7546771E-02  0.1075937E+00
         21   -1    0    0  503  501  0.00000000000E+00  0.00000000000E+00  0.23517952026E+03  0.23517952026E+03  0.00000000000E+00 0.  1.
         21   -1    0    0  501  502 -0.00000000000E+00 -0.00000000000E+00 -0.80523240280E+03  0.80523240280E+03  0.00000000000E+00 0.  1.
         25    1    1    2    0    0  0.36421802500E+02  0.29533646678E+03 -0.57198739298E+03  0.65676841736E+03  0.12500000000E+03 0.  0.
         21    1    1    2  503  504 -0.39496298383E+02 -0.91517995685E+01  0.77649376229E+02  0.87596453410E+02  0.00000000000E+00 0.  1.
         21    1    1    2  504  502  0.30744958836E+01 -0.28618466721E+03 -0.75714865784E+02  0.29604705229E+03  0.00000000000E+00 0.  1.
<mgrwt>
<rscale>  4 0.31937529E+03</rscale>
<asrwt>0</asrwt>
<pdfrwt beam="1">  1       21 0.36181465E-01 0.31937529E+03</pdfrwt>
<pdfrwt beam="2">  1       21 0.12388191E+00 0.31937529E+03</pdfrwt>
<totfact> 0.32997094E+03</totfact>
</mgrwt>
</event>
