<event>
 4    0  0.1775285E-001  0.5851590E+03  0.7546771E-02  0.9936684E-01
         21   -1    0    0  503  501  0.00000000000E+00  0.00000000000E+00  0.17187040755E+03  0.17187040755E+03  0.00000000000E+00 0. -1.
         21   -1    0    0  501  502 -0.00000000000E+00 -0.00000000000E+00 -0.49806578701E+03  0.49806578701E+03  0.00000000000E+00 0. -1.
         25    1    1    2    0    0 -0.22076672639E+03  0.17040115396E+03 -0.18648735593E+03  0.35801820439E+03  0.12500000000E+03 0.  0.
         21    1    1    2  503  502  0.22076672639E+03 -0.17040115396E+03 -0.13970802353E+03  0.31191799017E+03  0.00000000000E+00 0. -1.
<mgrwt>
<rscale>  3 0.58515902E+03</rscale>
<asrwt>0</asrwt>
<pdfrwt beam="1">  1       21 0.26441601E-01 0.58515902E+03</pdfrwt>
<pdfrwt beam="2">  1       21 0.76625505E-01 0.58515902E+03</pdfrwt>
<totfact> 0.18032164E+04</totfact>
</mgrwt>
</event>
<event>
 4    0  0.1775285E-001  0.4881347E+03  0.7546771E-02  0.1016923E+00
         21   -1    0    0  503  501  0.00000000000E+00  0.00000000000E+00  0.98535906265E+03  0.98535906265E+03  0.00000000000E+00 0. -1.
         21   -1    0    0  501  502 -0.00000000000E+00 -0.00000000000E+00 -0.60453966280E+02  0.60453966280E+02  0.00000000000E+00 0. -1.
         25    1    1    2    0    0 -0.20084471801E+03  0.10267228430E+03  0.42068411041E+03  0.49343724977E+03  0.12500000000E+03 0.  0.
         21    1    1    2  503  502  0.20084471801E+03 -0.10267228430E+03  0.50422098596E+03  0.55237577915E+03  0.00000000000E+00 0. -1.
<mgrwt>
<rscale>  3 0.48813467E+03</rscale>
<asrwt>0</asrwt>
<pdfrwt beam="1">  1       21 0.15159369E+00 0.48813467E+03</pdfrwt>
<pdfrwt beam="2">  1       21 0.93006109E-02 0.48813467E+03</pdfrwt>
<totfact> 0.23776421E+04</totfact>
</mgrwt>
</event>
<event>
 4    0  0.1775285E-001  0.5591771E+03  0.7546771E-02  0.9993918E-01
         21   -1    0    0  502  501  0.00000000000E+00  0.00000000000E+00  0.16445283347E+04  0.16445283347E+04  0.00000000000E+00 0. -1.
         21   -1    0    0  503  502 -0.00000000000E+00 -0.00000000000E+00 -0.47533234702E+02  0.47533234702E+02  0.00000000000E+00 0. -1.
         25    1    1    2    0    0 -0.23370590947E+03 -0.64320404502E+02  0.11670623187E+04  0.11985053285E+04  0.12500000000E+03 0.  0.
         21    1    1    2  503  501  0.23370590947E+03  0.64320404502E+02  0.42993278125E+03  0.49355624092E+03  0.00000000000E+00 0.  1.
<mgrwt>
<rscale>  3 0.55917708E+03</rscale>
<asrwt>0</asrwt>
<pdfrwt beam="1">  1       21 0.25300432E+00 0.55917708E+03</pdfrwt>
<pdfrwt beam="2">  1       21 0.73128066E-02 0.55917708E+03</pdfrwt>
<totfact> 0.73281892E+03</totfact>
</mgrwt>
</event>
<event>
 4    0  0.1775285E-001  0.4488081E+03  0.7546771E-02  0.1028078E+00
         21   -1    0    0  503  501  0.00000000000E+00  0.00000000000E+00  0.10017692730E+03  0.10017692730E+03  0.00000000000E+00 0. -1.
         21   -1    0    0  501  502 -0.00000000000E+00 -0.00000000000E+00 -0.50268239756E+03  0.50268239756E+03  0.00000000000E+00 0. -1.
         25    1    1    2    0    0  0.15825926075E+03 -0.13173664993E+03 -0.18845990629E+03  0.30584746987E+03  0.12500000000E+03 0.  0.
         21    1    1    2  503  502 -0.15825926075E+03  0.13173664993E+03 -0.21404556397E+03  0.29701185498E+03  0.00000000000E+00 0. -1.
<mgrwt>
<rscale>  3 0.44880810E+03</rscale>
<asrwt>0</asrwt>
<pdfrwt beam="1">  1       21 0.15411835E-01 0.44880810E+03</pdfrwt>
<pdfrwt beam="2">  1       21 0.77335754E-01 0.44880810E+03</pdfrwt>
<totfact> 0.50982251E+04</totfact>
</mgrwt>
</event>
<event>
 4    0  0.1775285E-001  0.4779446E+03  0.7546771E-02  0.1019702E+00
         21   -1    0    0  503  501  0.00000000000E+00  0.00000000000E+00  0.61272348938E+02  0.61272348938E+02  0.00000000000E+00 0.  1.
         21   -1    0    0  501  502 -0.00000000000E+00 -0.00000000000E+00 -0.93203162172E+03  0.93203162172E+03  0.00000000000E+00 0.  1.
         25    1    1    2    0    0 -0.17842886971E+03 -0.94065084751E+02 -0.26934498051E+03  0.35896632188E+03  0.12500000000E+03 0.  0.
         21    1    1    2  503  502  0.17842886971E+03  0.94065084751E+02 -0.60141429227E+03  0.63433764878E+03  0.00000000000E+00 0.  1.
<mgrwt>
<rscale>  3 0.47794463E+03</rscale>
<asrwt>0</asrwt>
<pdfrwt beam="1">  1       21 0.94265161E-02 0.47794463E+03</pdfrwt>
<pdfrwt beam="2">  1       21 0.14338947E+00 0.47794463E+03</pdfrwt>
<totfact> 0.27056498E+04</totfact>
</mgrwt>
</event>
<event>
 4    0  0.1775285E-001  0.4760922E+03  0.7546771E-02  0.1020215E+00
         21   -1    0    0  502  501  0.00000000000E+00  0.00000000000E+00  0.91617328072E+02  0.91617328072E+02  0.00000000000E+00 0.  1.
         21   -1    0    0  503  502 -0.00000000000E+00 -0.00000000000E+00 -0.61850679922E+03  0.61850679922E+03  0.00000000000E+00 0.  1.
         25    1    1    2    0    0  0.77425262504E+02 -0.20545634124E+03 -0.23646864329E+03  0.34604826063E+03  0.12500000000E+03 0.  0.
         21    1    1    2  503  501 -0.77425262504E+02  0.20545634124E+03 -0.29042082786E+03  0.36407586666E+03  0.00000000000E+00 0. -1.
<mgrwt>
<rscale>  3 0.47609218E+03</rscale>
<asrwt>0</asrwt>
<pdfrwt beam="1">  1       21 0.14094974E-01 0.47609218E+03</pdfrwt>
<pdfrwt beam="2">  1       21 0.95154887E-01 0.47609218E+03</pdfrwt>
<totfact> 0.36758499E+04</totfact>
</mgrwt>
</event>
<event>
 4    0  0.1775285E-001  0.5115291E+03  0.7546771E-02  0.1010813E+00
         21   -1    0    0  503  501  0.00000000000E+00  0.00000000000E+00  0.54630052832E+02  0.54630052832E+02  0.00000000000E+00 0.  1.
         21   -1    0    0  501  502 -0.00000000000E+00 -0.00000000000E+00 -0.11974271145E+04  0.11974271145E+04  0.00000000000E+00 0.  1.
         25    1    1    2    0    0 -0.61379038956E+02 -0.21652748748E+03 -0.39804753678E+03  0.47404470337E+03  0.12500000000E+03 0.  0.
         21    1    1    2  503  502  0.61379038956E+02  0.21652748748E+03 -0.74474952487E+03  0.77801246394E+03  0.00000000000E+00 0.  1.
<mgrwt>
<rscale>  3 0.51152911E+03</rscale>
<asrwt>0</asrwt>
<pdfrwt beam="1">  1       21 0.84046242E-02 0.51152911E+03</pdfrwt>
<pdfrwt beam="2">  1       21 0.18421954E+00 0.51152911E+03</pdfrwt>
<totfact> 0.16263334E+04</totfact>
</mgrwt>
</event>
<event>
 4    0  0.1775285E-001  0.5020941E+03  0.7546771E-02  0.1013234E+00
         21   -1    0    0  503  501  0.00000000000E+00  0.00000000000E+00  0.10896069695E+03  0.10896069695E+03  0.00000000000E+00 0. -1.
         21   -1    0    0  501  502 -0.00000000000E+00 -0.00000000000E+00 -0.57841614434E+03  0.57841614434E+03  0.00000000000E+00 0. -1.
         25    1    1    2    0    0 -0.22525896282E+03  0.34325833350E+02 -0.33066511372E+03  0.42057612937E+03  0.12500000000E+03 0.  0.
         21    1    1    2  503  502  0.22525896282E+03 -0.34325833350E+02 -0.13879033366E+03  0.26680071192E+03  0.00000000000E+00 0. -1.
<mgrwt>
<rscale>  3 0.50209412E+03</rscale>
<asrwt>0</asrwt>
<pdfrwt beam="1">  1       21 0.16763184E-01 0.50209412E+03</pdfrwt>
<pdfrwt beam="2">  1       21 0.88987098E-01 0.50209412E+03</pdfrwt>
<totfact> 0.31049373E+04</totfact>
</mgrwt>
</event>
<event>
 4    0  0.1775285E-001  0.4531366E+03  0.7546771E-02  0.1026791E+00
         21   -1    0    0  502  501  0.00000000000E+00  0.00000000000E+00  0.58256468413E+03  0.58256468413E+03  0.00000000000E+00 0. -1.
         21   -1    0    0  503  502 -0.00000000000E+00 -0.00000000000E+00 -0.88115877944E+02  0.88115877944E+02  0.00000000000E+00 0. -1.
         25    1    1    2    0    0 -0.19247464461E+03 -0.78806307202E+02  0.30109444196E+03  0.38670374430E+03  0.12500000000E+03 0.  0.
         21    1    1    2  503  501  0.19247464461E+03  0.78806307202E+02  0.19335436423E+03  0.28397681778E+03  0.00000000000E+00 0. -1.
<mgrwt>
<rscale>  3 0.45313662E+03</rscale>
<asrwt>0</asrwt>
<pdfrwt beam="1">  1       21 0.89625333E-01 0.45313662E+03</pdfrwt>
<pdfrwt beam="2">  1       21 0.13556289E-01 0.45313662E+03</pdfrwt>
<totfact> 0.45795131E+04</totfact>
</mgrwt>
</event>
<event>
 4    0  0.1775285E-001  0.4759844E+03  0.7546771E-02  0.1020245E+00
         21   -1    0    0  503  501  0.00000000000E+00  0.00000000000E+00  0.55753053662E+02  0.55753053662E+02  0.00000000000E+00 0. -1.
         21   -1    0    0  501  502 -0.00000000000E+00 -0.00000000000E+00 -0.10159134811E+04  0.10159134811E+04  0.00000000000E+00 0. -1.
         25    1    1    2    0    0  0.15185182787E+03  0.15218079003E+03 -0.63399953774E+03  0.68102744756E+03  0.12500000000E+03 0.  0.
         21    1    1    2  503  502 -0.15185182787E+03 -0.15218079003E+03 -0.32616088972E+03  0.39063908722E+03  0.00000000000E+00 0. -1.
<mgrwt>
<rscale>  3 0.47598436E+03</rscale>
<asrwt>0</asrwt>
<pdfrwt beam="1">  1       21 0.85773934E-02 0.47598436E+03</pdfrwt>
<pdfrwt beam="2">  1       21 0.15629437E+00 0.47598436E+03</pdfrwt>
<totfact> 0.25350255E+04</totfact>
</mgrwt>
</event>
<event>
 4    0  0.1775285E-001  0.4722273E+03  0.7546771E-02  0.1021293E+00
         21   -1    0    0  502  501  0.00000000000E+00  0.00000000000E+00  0.42025152935E+02  0.42025152935E+02  0.00000000000E+00 0.  1.
         21   -1    0    0  503  502 -0.00000000000E+00 -0.00000000000E+00 -0.13265780389E+04  0.13265780389E+04  0.00000000000E+00 0.  1.
         25    1    1    2    0    0  0.20383459614E+03 -0.30062901145E+02 -0.90720812078E+03  0.93867134558E+03  0.12500000000E+03 0.  0.
         21    1    1    2  503  501 -0.20383459614E+03  0.30062901145E+02 -0.37734476519E+03  0.42993184625E+03  0.00000000000E+00 0.  1.
<mgrwt>
<rscale>  3 0.47222725E+03</rscale>
<asrwt>0</asrwt>
<pdfrwt beam="1">  1       21 0.64654085E-02 0.47222725E+03</pdfrwt>
<pdfrwt beam="2">  1       21 0.20408892E+00 0.47222725E+03</pdfrwt>
<totfact> 0.19165747E+04</totfact>
</mgrwt>
</event>
<event>
 4    0  0.1775285E-001  0.4914582E+03  0.7546771E-02  0.1016033E+00
         21   -1    0    0  503  501  0.00000000000E+00  0.00000000000E+00  0.44083181067E+02  0.44083181067E+02  0.00000000000E+00 0.  1.
         21   -1    0    0  501  502 -0.00000000000E+00 -0.00000000000E+00 -0.13697467845E+04  0.13697467845E+04  0.00000000000E+00 0.  1.
         25    1    1    2    0    0  0.14288158515E+03  0.15859467964E+03 -0.46066594996E+03  0.52288195345E+03  0.12500000000E+03 0.  0.
         21    1    1    2  503  502 -0.14288158515E+03 -0.15859467964E+03 -0.86499765344E+03  0.89094801209E+03  0.00000000000E+00 0.  1.
<mgrwt>
<rscale>  3 0.49145822E+03</rscale>
<asrwt>0</asrwt>
<pdfrwt beam="1">  1       21 0.67820287E-02 0.49145822E+03</pdfrwt>
<pdfrwt beam="2">  1       21 0.21073025E+00 0.49145822E+03</pdfrwt>
<totfact> 0.15841131E+04</totfact>
</mgrwt>
</event>
<event>
 4    0  0.1775285E-001  0.5344183E+03  0.7546771E-02  0.1005166E+00
         21   -1    0    0  502  501  0.00000000000E+00  0.00000000000E+00  0.22056981896E+03  0.22056981896E+03  0.00000000000E+00 0. -1.
         21   -1    0    0  503  502 -0.00000000000E+00 -0.00000000000E+00 -0.32371030583E+03  0.32371030583E+03  0.00000000000E+00 0. -1.
         25    1    1    2    0    0 -0.20454453470E+03  0.21262732557E+02  0.94982440325E+02  0.25872231145E+03  0.12500000000E+03 0.  0.
         21    1    1    2  503  501  0.20454453470E+03 -0.21262732557E+02 -0.19812292720E+03  0.28555781333E+03  0.00000000000E+00 0. -1.
<mgrwt>
<rscale>  3 0.53441828E+03</rscale>
<asrwt>0</asrwt>
<pdfrwt beam="1">  1       21 0.33933818E-01 0.53441828E+03</pdfrwt>
<pdfrwt beam="2">  1       21 0.49801586E-01 0.53441828E+03</pdfrwt>
<totfact> 0.28760208E+04</totfact>
</mgrwt>
</event>
<event>
 4    0  0.1775285E-001  0.5600978E+03  0.7546771E-02  0.9991833E-01
         21   -1    0    0  503  501  0.00000000000E+00  0.00000000000E+00  0.24990887739E+03  0.24990887739E+03  0.00000000000E+00 0. -1.
         21   -1    0    0  501  502 -0.00000000000E+00 -0.00000000000E+00 -0.31382398301E+03  0.31382398301E+03  0.00000000000E+00 0. -1.
         25    1    1    2    0    0 -0.20073338565E+03  0.12339715297E+03 -0.15799925735E+03  0.31001534607E+03  0.12500000000E+03 0.  0.
         21    1    1    2  503  502  0.20073338565E+03 -0.12339715297E+03  0.94084151730E+02  0.25371751434E+03  0.00000000000E+00 0. -1.
<mgrwt>
<rscale>  3 0.56009785E+03</rscale>
<asrwt>0</asrwt>
<pdfrwt beam="1">  1       21 0.38447520E-01 0.56009785E+03</pdfrwt>
<pdfrwt beam="2">  1       21 0.48280613E-01 0.56009785E+03</pdfrwt>
<totfact> 0.23691391E+04</totfact>
</mgrwt>
</event>
<event>
 4    0  0.1775285E-001  0.7095250E+03  0.7546771E-02  0.9701080E-01
         21   -1    0    0  503  501  0.00000000000E+00  0.00000000000E+00  0.11360833030E+04  0.11360833030E+04  0.00000000000E+00 0.  1.
         21   -1    0    0  501  502 -0.00000000000E+00 -0.00000000000E+00 -0.11078098166E+03  0.11078098166E+03  0.00000000000E+00 0.  1.
         25    1    1    2    0    0  0.28424499707E+03  0.19324018499E+03  0.53789050816E+03  0.65045229358E+03  0.12500000000E+03 0.  0.
         21    1    1    2  503  502 -0.28424499707E+03 -0.19324018499E+03  0.48741181314E+03  0.59641199103E+03  0.00000000000E+00 0.  1.
<mgrwt>
<rscale>  3 0.70952498E+03</rscale>
<asrwt>0</asrwt>
<pdfrwt beam="1">  1       21 0.17478204E+00 0.70952498E+03</pdfrwt>
<pdfrwt beam="2">  1       21 0.17043229E-01 0.70952498E+03</pdfrwt>
<totfact> 0.49407207E+03</totfact>
</mgrwt>
</event>
<event>
 4    0  0.1775285E-001  0.5270684E+03  0.7546771E-02  0.1006946E+00
         21   -1    0    0  503  501  0.00000000000E+00  0.00000000000E+00  0.22679985089E+03  0.22679985089E+03  0.00000000000E+00 0.  1.
         21   -1    0    0  501  502 -0.00000000000E+00 -0.00000000000E+00 -0.30621830653E+03  0.30621830653E+03  0.00000000000E+00 0.  1.
         25    1    1    2    0    0 -0.21069194832E+03 -0.12882747016E+03 -0.71769012903E+02  0.28594301070E+03  0.12500000000E+03 0.  0.
         21    1    1    2  503  502  0.21069194832E+03  0.12882747016E+03 -0.76494427299E+01  0.24707514672E+03  0.00000000000E+00 0.  1.
<mgrwt>
<rscale>  3 0.52706837E+03</rscale>
<asrwt>0</asrwt>
<pdfrwt beam="1">  1       21 0.34892285E-01 0.52706837E+03</pdfrwt>
<pdfrwt beam="2">  1       21 0.47110509E-01 0.52706837E+03</pdfrwt>
<totfact> 0.30632769E+04</totfact>
</mgrwt>
</event>
<event>
 4    0  0.1775285E-001  0.4622992E+03  0.7546771E-02  0.1024116E+00
         21   -1    0    0  502  501  0.00000000000E+00  0.00000000000E+00  0.78429648958E+02  0.78429648958E+02  0.00000000000E+00 0. -1.
         21   -1    0    0  503  502 -0.00000000000E+00 -0.00000000000E+00 -0.68124921880E+03  0.68124921880E+03  0.00000000000E+00 0. -1.
         25    1    1    2    0    0  0.10713178283E+03  0.17631059341E+03 -0.41842252247E+03  0.48297520801E+03  0.12500000000E+03 0.  0.
         21    1    1    2  503  501 -0.10713178283E+03 -0.17631059341E+03 -0.18439704737E+03  0.27670365975E+03  0.00000000000E+00 0. -1.
<mgrwt>
<rscale>  3 0.46229920E+03</rscale>
<asrwt>0</asrwt>
<pdfrwt beam="1">  1       21 0.12066100E-01 0.46229920E+03</pdfrwt>
<pdfrwt beam="2">  1       21 0.10480757E+00 0.46229920E+03</pdfrwt>
<totfact> 0.38779288E+04</totfact>
</mgrwt>
</event>
<event>
 4    0  0.1775285E-001  0.4968149E+03  0.7546771E-02  0.1014614E+00
         21   -1    0    0  502  501  0.00000000000E+00  0.00000000000E+00  0.42107299932E+03  0.42107299932E+03  0.00000000000E+00 0. -1.
         21   -1    0    0  503  502 -0.00000000000E+00 -0.00000000000E+00 -0.14654529419E+03  0.14654529419E+03  0.00000000000E+00 0. -1.
         25    1    1    2    0    0 -0.45658166019E+02 -0.22623825038E+03  0.17970350065E+03  0.31809866740E+03  0.12500000000E+03 0.  0.
         21    1    1    2  503  501  0.45658166019E+02  0.22623825038E+03  0.94824204483E+02  0.24951962611E+03  0.00000000000E+00 0. -1.
<mgrwt>
<rscale>  3 0.49681492E+03</rscale>
<asrwt>0</asrwt>
<pdfrwt beam="1">  1       21 0.64780461E-01 0.49681492E+03</pdfrwt>
<pdfrwt beam="2">  1       21 0.22545430E-01 0.49681492E+03</pdfrwt>
<totfact> 0.36644943E+04</totfact>
</mgrwt>
</event>
<event>
 4    0  0.1775285E-001  0.5951705E+03  0.7546771E-02  0.9915477E-01
         21   -1    0    0  503  501  0.00000000000E+00  0.00000000000E+00  0.26018575714E+02  0.26018575714E+02  0.00000000000E+00 0.  1.
         21   -1    0    0  501  502 -0.00000000000E+00 -0.00000000000E+00 -0.34036059574E+04  0.34036059574E+04  0.00000000000E+00 0.  1.
         25    1    1    2    0    0  0.39707831256E+02 -0.28082533074E+03 -0.18891667924E+04  0.19144230848E+04  0.12500000000E+03 0.  0.
         21    1    1    2  503  502 -0.39707831256E+02  0.28082533074E+03 -0.14884205893E+04  0.15152014483E+04  0.00000000000E+00 0.  1.
<mgrwt>
<rscale>  3 0.59517049E+03</rscale>
<asrwt>0</asrwt>
<pdfrwt beam="1">  1       21 0.40028576E-02 0.59517049E+03</pdfrwt>
<pdfrwt beam="2">  1       21 0.52363171E+00 0.59517049E+03</pdfrwt>
<totfact> 0.35747385E+02</totfact>
</mgrwt>
</event>
