<event>
 5    0  0.1283376E+001  0.2488199E+03  0.7546771E-02  0.1114053E+00
         21   -1    0    0  503  501  0.00000000000E+00  0.00000000000E+00  0.39973812689E+03  0.39973812689E+03  0.00000000000E+00 0. -1.
         21   -1    0    0  504  502 -0.00000000000E+00 -0.00000000000E+00 -0.22255217968E+03  0.22255217968E+03  0.00000000000E+00 0. -1.
         25    1    1    2    0    0  0.97008858786E+02 -0.19765215101E+03  0.25365285696E+03  0.35838786715E+03  0.12500000000E+03 0.  0.
         21    1    1    2  503  502 -0.76154007962E+02  0.18985301993E+03 -0.22829245454E+02  0.20582705496E+03  0.00000000000E+00 0. -1.
         21    1    1    2  504  501 -0.20854850825E+02  0.77991310798E+01 -0.53637664291E+02  0.58075384451E+02  0.00000000000E+00 0. -1.
<mgrwt>
<rscale>  4 0.24881994E+03</rscale>
<asrwt>0</asrwt>
<pdfrwt beam="1">  1       21 0.61498173E-01 0.24881994E+03</pdfrwt>
<pdfrwt beam="2">  1       21 0.34238797E-01 0.24881994E+03</pdfrwt>
<totfact> 0.19584024E+04</totfact>
</mgrwt>
</event>
<event>
 5    0  0.1283376E+001  0.3418078E+03  0.7546771E-02  0.1066029E+00
         21   -1    0    0  503  501  0.00000000000E+00  0.00000000000E+00  0.17541992268E+03  0.17541992268E+03  0.00000000000E+00 0.  1.
         21   -1    0    0  504  502 -0.00000000000E+00 -0.00000000000E+00 -0.83813454237E+03  0.83813454237E+03  0.00000000000E+00 0. -1.
         25    1    1    2    0    0  0.30588660546E+02 -0.31761857912E+03 -0.10726232058E+03  0.35909251367E+03  0.12500000000E+03 0.  0.
         21    1    1    2  503  502 -0.42246090098E+01  0.31667345951E+03 -0.48512839516E+03  0.57935264483E+03  0.00000000000E+00 0. -1.
         21    1    1    2  504  501 -0.26364051536E+02  0.94511961382E+00 -0.70323903951E+02  0.75109306557E+02  0.00000000000E+00 0.  1.
<mgrwt>
<rscale>  4 0.34180780E+03</rscale>
<asrwt>0</asrwt>
<pdfrwt beam="1">  1       21 0.26987680E-01 0.34180780E+03</pdfrwt>
<pdfrwt beam="2">  1       21 0.12894378E+00 0.34180780E+03</pdfrwt>
<totfact> 0.52698177E+03</totfact>
</mgrwt>
</event>
<event>
 5    0  0.1283376E+001  0.5781073E+03  0.7546771E-02  0.9951897E-01
         21   -1    0    0  503  501  0.00000000000E+00  0.00000000000E+00  0.44299283538E+03  0.44299283538E+03  0.00000000000E+00 0. -1.
         21   -1    0    0  504  502 -0.00000000000E+00 -0.00000000000E+00 -0.33711786383E+04  0.33711786383E+04  0.00000000000E+00 0. -1.
         25    1    1    2    0    0  0.24660063981E+03 -0.48145758561E+03 -0.15306203502E+04  0.16282005217E+04  0.12500000000E+03 0.  0.
         21    1    1    2  503  502 -0.34961025454E+02 -0.45356909132E+02 -0.15865677268E+04  0.15876009178E+04  0.00000000000E+00 0. -1.
         21    1    1    2  504  501 -0.21163961436E+03  0.52681449474E+03  0.18900227409E+03  0.59837003421E+03  0.00000000000E+00 0. -1.
<mgrwt>
<rscale>  4 0.57810729E+03</rscale>
<asrwt>0</asrwt>
<pdfrwt beam="1">  1       21 0.68152741E-01 0.57810729E+03</pdfrwt>
<pdfrwt beam="2">  1       21 0.51864289E+00 0.57810729E+03</pdfrwt>
<totfact> 0.17319876E+00</totfact>
</mgrwt>
</event>
<event>
 5    0  0.1283376E+001  0.2633693E+03  0.7546771E-02  0.1105136E+00
         21   -1    0    0  503  501  0.00000000000E+00  0.00000000000E+00  0.32937502701E+02  0.32937502701E+02  0.00000000000E+00 0. -1.
         21   -1    0    0  504  502 -0.00000000000E+00 -0.00000000000E+00 -0.20472960994E+04  0.20472960994E+04  0.00000000000E+00 0. -1.
         25    1    1    2    0    0 -0.18776545270E+03 -0.13077770565E+03 -0.10679584835E+04  0.10993266102E+04  0.12500000000E+03 0.  0.
         21    1    1    2  503  502 -0.15793070316E+02  0.13138741916E+02 -0.47155819566E+02  0.51436552451E+02  0.00000000000E+00 0. -1.
         21    1    1    2  504  501  0.20355852302E+03  0.11763896374E+03 -0.89924429363E+03  0.92947043939E+03  0.00000000000E+00 0. -1.
<mgrwt>
<rscale>  4 0.26336931E+03</rscale>
<asrwt>0</asrwt>
<pdfrwt beam="1">  1       21 0.50673086E-02 0.26336931E+03</pdfrwt>
<pdfrwt beam="2">  1       21 0.31496860E+00 0.26336931E+03</pdfrwt>
<totfact> 0.68611353E+03</totfact>
</mgrwt>
</event>
<event>
 5    0  0.1283376E+001  0.2941417E+03  0.7546771E-02  0.1088206E+00
         21   -1    0    0  504  501  0.00000000000E+00  0.00000000000E+00  0.29411170400E+03  0.29411170400E+03  0.00000000000E+00 0. -1.
         21   -1    0    0  501  502 -0.00000000000E+00 -0.00000000000E+00 -0.76517070988E+03  0.76517070988E+03  0.00000000000E+00 0. -1.
         25    1    1    2    0    0 -0.22951503533E+03  0.12627578388E+03  0.16922774231E+03  0.33598475234E+03  0.12500000000E+03 0.  0.
         21    1    1    2  503  502 -0.34975850785E+02  0.52175269898E+01 -0.11900265771E+03  0.12414574204E+03  0.00000000000E+00 0.  1.
         21    1    1    2  504  503  0.26449088611E+03 -0.13149331087E+03 -0.52128409049E+03  0.59915191949E+03  0.00000000000E+00 0. -1.
<mgrwt>
<rscale>  4 0.29414173E+03</rscale>
<asrwt>0</asrwt>
<pdfrwt beam="1">  1       21 0.45247954E-01 0.29414173E+03</pdfrwt>
<pdfrwt beam="2">  1       21 0.11771857E+00 0.29414173E+03</pdfrwt>
<totfact> 0.24081897E+03</totfact>
</mgrwt>
</event>
<event>
 5    0  0.1283376E+001  0.3193849E+03  0.7546771E-02  0.1075933E+00
         21   -1    0    0  503  501  0.00000000000E+00  0.00000000000E+00  0.19770862806E+03  0.19770862806E+03  0.00000000000E+00 0. -1.
         21   -1    0    0  504  502 -0.00000000000E+00 -0.00000000000E+00 -0.12940112927E+04  0.12940112927E+04  0.00000000000E+00 0. -1.
         25    1    1    2    0    0  0.19837707425E+03 -0.21365773829E+03  0.27842248472E+02  0.31843882226E+03  0.12500000000E+03 0.  0.
         21    1    1    2  503  502  0.40282162897E+01 -0.23377542657E+02 -0.63551326665E+02  0.67834409764E+02  0.00000000000E+00 0.  1.
         21    1    1    2  504  501 -0.20240529054E+03  0.23703528095E+03 -0.10605935865E+04  0.11054466888E+04  0.00000000000E+00 0. -1.
<mgrwt>
<rscale>  4 0.31938487E+03</rscale>
<asrwt>0</asrwt>
<pdfrwt beam="1">  1       21 0.30416713E-01 0.31938487E+03</pdfrwt>
<pdfrwt beam="2">  1       21 0.19907865E+00 0.31938487E+03</pdfrwt>
<totfact> 0.12686911E+03</totfact>
</mgrwt>
</event>
<event>
 5    0  0.1283376E+001  0.2342371E+03  0.7546771E-02  0.1123693E+00
         21   -1    0    0  504  501  0.00000000000E+00  0.00000000000E+00  0.51209060465E+03  0.51209060465E+03  0.00000000000E+00 0. -1.
         21   -1    0    0  501  502 -0.00000000000E+00 -0.00000000000E+00 -0.28376742442E+03  0.28376742442E+03  0.00000000000E+00 0. -1.
         25    1    1    2    0    0  0.20531614533E+03 -0.77469484776E+02  0.38249773121E+03  0.45835112631E+03  0.12500000000E+03 0.  0.
         21    1    1    2  503  502 -0.81557861518E+02 -0.23687732227E+02 -0.15604097400E+03  0.17765578797E+03  0.00000000000E+00 0. -1.
         21    1    1    2  504  503 -0.12375828382E+03  0.10115721700E+03  0.18664230282E+01  0.15985111479E+03  0.00000000000E+00 0. -1.
<mgrwt>
<rscale>  4 0.23423711E+03</rscale>
<asrwt>0</asrwt>
<pdfrwt beam="1">  1       21 0.78783170E-01 0.23423711E+03</pdfrwt>
<pdfrwt beam="2">  1       21 0.43656527E-01 0.23423711E+03</pdfrwt>
<totfact> 0.69752889E+03</totfact>
</mgrwt>
</event>
<event>
 5    0  0.1283376E+001  0.3424869E+03  0.7546771E-02  0.1067760E+00
         21   -1    0    0  503  501  0.00000000000E+00  0.00000000000E+00  0.92328224600E+03  0.92328224600E+03  0.00000000000E+00 0. -1.
         21   -1    0    0  504  502 -0.00000000000E+00 -0.00000000000E+00 -0.14573996160E+03  0.14573996160E+03  0.00000000000E+00 0. -1.
         25    1    1    2    0    0 -0.25401466093E+03 -0.15739507315E+03  0.60330568291E+03  0.68476229748E+03  0.12500000000E+03 0.  0.
         21    1    1    2  503  502  0.71416570918E+02  0.14070339175E+03  0.63725461020E+02  0.17017257544E+03  0.00000000000E+00 0. -1.
         21    1    1    2  504  501  0.18259809001E+03  0.16691681407E+02  0.11051114047E+03  0.21408733468E+03  0.00000000000E+00 0. -1.
<mgrwt>
<rscale>  4 0.33774671E+03</rscale>
<asrwt>0</asrwt>
<pdfrwt beam="1">  1       21 0.14204342E+00 0.34248691E+03</pdfrwt>
<pdfrwt beam="2">  1       21 0.22421533E-01 0.34248691E+03</pdfrwt>
<totfact> 0.58573547E+03</totfact>
</mgrwt>
</event>
<event>
 5    0  0.1283376E+001  0.2406952E+03  0.7546771E-02  0.1119331E+00
         21   -1    0    0  504  501  0.00000000000E+00  0.00000000000E+00  0.14861947485E+04  0.14861947485E+04  0.00000000000E+00 0.  1.
         21   -1    0    0  501  502 -0.00000000000E+00 -0.00000000000E+00 -0.10472380097E+03  0.10472380097E+03  0.00000000000E+00 0.  1.
         25    1    1    2    0    0  0.14334640481E+03 -0.17907456375E+03  0.88239652149E+03  0.92025241771E+03  0.12500000000E+03 0.  0.
         21    1    1    2  503  502 -0.19336580873E+02  0.39238176691E+02 -0.63921835008E+02  0.77456690226E+02  0.00000000000E+00 0.  1.
         21    1    1    2  504  503 -0.12400982393E+03  0.13983638706E+03  0.56299626109E+03  0.59320944158E+03  0.00000000000E+00 0.  1.
<mgrwt>
<rscale>  4 0.24069522E+03</rscale>
<asrwt>0</asrwt>
<pdfrwt beam="1">  1       21 0.22864533E+00 0.24069522E+03</pdfrwt>
<pdfrwt beam="2">  1       21 0.16111355E-01 0.24069522E+03</pdfrwt>
<totfact> 0.29302868E+03</totfact>
</mgrwt>
</event>
<event>
 5    0  0.1283376E+001  0.2386356E+03  0.7546771E-02  0.1120705E+00
         21   -1    0    0  502  501  0.00000000000E+00  0.00000000000E+00  0.46524540181E+03  0.46524540181E+03  0.00000000000E+00 0. -1.
         21   -1    0    0  503  502 -0.00000000000E+00 -0.00000000000E+00 -0.12907554203E+03  0.12907554203E+03  0.00000000000E+00 0. -1.
         25    1    1    2    0    0 -0.21085591451E+03  0.75216448348E+01  0.21251344237E+03  0.32450540059E+03  0.12500000000E+03 0.  0.
         21    1    1    2  503  504  0.19790093194E+03  0.28968710532E+02  0.93761129505E+02  0.22089616216E+03  0.00000000000E+00 0. -1.
         21    1    1    2  504  501  0.12954982568E+02 -0.36490355367E+02  0.29895287901E+02  0.48919381096E+02  0.00000000000E+00 0. -1.
<mgrwt>
<rscale>  4 0.23863563E+03</rscale>
<asrwt>0</asrwt>
<pdfrwt beam="1">  1       21 0.71576215E-01 0.23863563E+03</pdfrwt>
<pdfrwt beam="2">  1       21 0.19857776E-01 0.23863563E+03</pdfrwt>
<totfact> 0.40351815E+04</totfact>
</mgrwt>
</event>
<event>
 5    0  0.1283376E+001  0.3329004E+03  0.7546771E-02  0.1069861E+00
         21   -1    0    0  503  501  0.00000000000E+00  0.00000000000E+00  0.14737205567E+04  0.14737205567E+04  0.00000000000E+00 0.  1.
         21   -1    0    0  504  502 -0.00000000000E+00 -0.00000000000E+00 -0.22117613426E+03  0.22117613426E+03  0.00000000000E+00 0.  1.
         25    1    1    2    0    0  0.29542287334E+03 -0.95312597297E+02  0.12971806994E+04  0.13396499290E+04  0.12500000000E+03 0.  0.
         21    1    1    2  503  502 -0.58635309465E+00  0.54779782147E+02 -0.50317022248E+01  0.55013510789E+02  0.00000000000E+00 0. -1.
         21    1    1    2  504  501 -0.29483652024E+03  0.40532815150E+02 -0.39604574764E+02  0.30023325118E+03  0.00000000000E+00 0.  1.
<mgrwt>
<rscale>  4 0.33290044E+03</rscale>
<asrwt>0</asrwt>
<pdfrwt beam="1">  1       21 0.22672623E+00 0.33290044E+03</pdfrwt>
<pdfrwt beam="2">  1       21 0.34027098E-01 0.33290044E+03</pdfrwt>
<totfact> 0.66930121E+02</totfact>
</mgrwt>
</event>
<event>
 5    0  0.1283376E+001  0.2802974E+03  0.7546771E-02  0.1095527E+00
         21   -1    0    0  503  501  0.00000000000E+00  0.00000000000E+00  0.20850468216E+03  0.20850468216E+03  0.00000000000E+00 0.  1.
         21   -1    0    0  504  502 -0.00000000000E+00 -0.00000000000E+00 -0.93359092354E+03  0.93359092354E+03  0.00000000000E+00 0.  1.
         25    1    1    2    0    0  0.11946998191E+03 -0.21057600685E+03 -0.11511165788E+03  0.29578881828E+03  0.12500000000E+03 0.  0.
         21    1    1    2  503  502 -0.15259786137E+03  0.20754288831E+03 -0.23263048878E+02  0.25865290879E+03  0.00000000000E+00 0.  1.
         21    1    1    2  504  501  0.33127879456E+02  0.30331185373E+01 -0.58671153462E+03  0.58765387863E+03  0.00000000000E+00 0.  1.
<mgrwt>
<rscale>  4 0.28029737E+03</rscale>
<asrwt>0</asrwt>
<pdfrwt beam="1">  1       21 0.32077644E-01 0.28029737E+03</pdfrwt>
<pdfrwt beam="2">  1       21 0.14362937E+00 0.28029737E+03</pdfrwt>
<totfact> 0.29288798E+03</totfact>
</mgrwt>
</event>
