<event>
 5    0  0.1911311E+001  0.2920080E+03  0.7546771E-02  0.1089305E+00
         21   -1    0    0  502  501  0.00000000000E+00  0.00000000000E+00  0.15828327307E+04  0.15828327307E+04  0.00000000000E+00 0.  1.
         21   -1    0    0  504  502 -0.00000000000E+00 -0.00000000000E+00 -0.40692547163E+03  0.40692547163E+03  0.00000000000E+00 0. -1.
         25    1    1    2    0    0  0.20569404443E+03 -0.37805245274E+03  0.31697801697E+03  0.54893875813E+03  0.12500000000E+03 0.  0.
         21    1    1    2  503  501 -0.71389367812E+02  0.17452511502E+03  0.10892174464E+04  0.11054185194E+04  0.00000000000E+00 0.  1.
         21    1    1    2  504  503 -0.13430467661E+03  0.20352733771E+03 -0.23028820424E+03  0.33540092482E+03  0.00000000000E+00 0. -1.
<mgrwt>
<rscale>  4 0.29200795E+03</rscale>
<asrwt>0</asrwt>
<pdfrwt beam="1">  1       21 0.24351272E+00 0.29200795E+03</pdfrwt>
<pdfrwt beam="2">  1       21 0.62603919E-01 0.29200795E+03</pdfrwt>
<totfact> 0.15279500E+02</totfact>
</mgrwt>
</event>
<event>
 5    0  0.1911311E+001  0.2736113E+03  0.7546771E-02  0.1099230E+00
         21   -1    0    0  502  501  0.00000000000E+00  0.00000000000E+00  0.25636961363E+03  0.25636961363E+03  0.00000000000E+00 0.  1.
         21   -1    0    0  504  502 -0.00000000000E+00 -0.00000000000E+00 -0.48041622914E+03  0.48041622914E+03  0.00000000000E+00 0.  1.
         25    1    1    2    0    0 -0.23927254138E+03  0.14418354397E+02 -0.33609006952E+03  0.43132444034E+03  0.12500000000E+03 0.  0.
         21    1    1    2  503  501  0.25886277146E+03 -0.82959382219E+01  0.11723019504E+03  0.28429153288E+03  0.00000000000E+00 0.  1.
         21    1    1    2  504  503 -0.19590230076E+02 -0.61224161748E+01 -0.51867410343E+01  0.21169869551E+02  0.00000000000E+00 0. -1.
<mgrwt>
<rscale>  4 0.27361130E+03</rscale>
<asrwt>0</asrwt>
<pdfrwt beam="1">  1       21 0.39441479E-01 0.27361130E+03</pdfrwt>
<pdfrwt beam="2">  1       21 0.73910189E-01 0.27361130E+03</pdfrwt>
<totfact> 0.96980443E+03</totfact>
</mgrwt>
</event>
<event>
 5    0  0.1911311E+001  0.2391381E+03  0.7546771E-02  0.1120368E+00
         21   -1    0    0  504  501  0.00000000000E+00  0.00000000000E+00  0.21289648926E+03  0.21289648926E+03  0.00000000000E+00 0. -1.
         21   -1    0    0  501  502 -0.00000000000E+00 -0.00000000000E+00 -0.12154633245E+04  0.12154633245E+04  0.00000000000E+00 0. -1.
         25    1    1    2    0    0  0.11047705834E+03 -0.17997757856E+03  0.11255113587E+03  0.26998123525E+03  0.12500000000E+03 0.  0.
         21    1    1    2  503  502 -0.77010710980E+02  0.69368309432E+02 -0.12884777593E+03  0.16536130540E+03  0.00000000000E+00 0. -1.
         21    1    1    2  504  503 -0.33466347357E+02  0.11060926913E+03 -0.98627019516E+03  0.99301727310E+03  0.00000000000E+00 0. -1.
<mgrwt>
<rscale>  4 0.23913806E+03</rscale>
<asrwt>0</asrwt>
<pdfrwt beam="1">  1       21 0.32753307E-01 0.23913806E+03</pdfrwt>
<pdfrwt beam="2">  1       21 0.18699435E+00 0.23913806E+03</pdfrwt>
<totfact> 0.14004310E+03</totfact>
</mgrwt>
</event>
