<event>
 5    0  0.4115852E+000  0.2868701E+03  0.7546771E-02  0.1091995E+00
          4   -1    0    0  502    0 -0.00000000000E+00  0.00000000000E+00  0.36991237083E+03  0.36991237083E+03  0.00000000000E+00 0.  1.
         21   -1    0    0  503  502  0.00000000000E+00 -0.00000000000E+00 -0.37110147367E+03  0.37110147367E+03  0.00000000000E+00 0.  1.
         25    1    1    2    0    0 -0.15521854647E+03 -0.22302575166E+03  0.15554182926E+03  0.33712244618E+03  0.12500000000E+03 0.  0.
         21    1    1    2  503  501  0.22889330741E+01  0.36919900436E+02 -0.15875091499E+03  0.16300359282E+03  0.00000000000E+00 0.  1.
          4    1    1    2  501    0  0.15292961339E+03  0.18610585122E+03  0.20199828911E+01  0.24088780551E+03  0.00000000000E+00 0.  1.
<mgrwt>
<rscale>  4 0.28687009E+03</rscale>
<asrwt>0</asrwt>
<pdfrwt beam="1">  1       21 0.57092534E-01 0.28687009E+03</pdfrwt>
<pdfrwt beam="2">  1        4 0.56909595E-01 0.28687009E+03</pdfrwt>
<totfact> 0.35564126E+02</totfact>
</mgrwt>
</event>
<event>
 5    0  0.4115852E+000  0.4168508E+03  0.7546771E-02  0.1038096E+00
         -3   -1    0    0    0  501 -0.00000000000E+00  0.00000000000E+00  0.71645951761E+03  0.71645951761E+03  0.00000000000E+00 0.  1.
         21   -1    0    0  501  502  0.00000000000E+00 -0.00000000000E+00 -0.40637687426E+03  0.40637687426E+03  0.00000000000E+00 0.  1.
         25    1    1    2    0    0  0.37578152724E+03 -0.18296541872E+03 -0.10740462965E+03  0.44927592316E+03  0.12500000000E+03 0.  0.
         21    1    1    2  503  502 -0.17224676165E+02  0.23215839154E+02 -0.53277475501E+02  0.60614800605E+02  0.00000000000E+00 0. -1.
         -3    1    1    2    0  503 -0.35855685108E+03  0.15974957956E+03  0.47076474850E+03  0.61294566811E+03  0.00000000000E+00 0.  1.
<mgrwt>
<rscale>  4 0.41685077E+03</rscale>
<asrwt>0</asrwt>
<pdfrwt beam="1">  1       21 0.62519519E-01 0.41685077E+03</pdfrwt>
<pdfrwt beam="2">  1       -3 0.11022454E+00 0.41685077E+03</pdfrwt>
<totfact> 0.79581767E+01</totfact>
</mgrwt>
</event>
<event>
 5    0  0.4115852E+000  0.2799079E+03  0.7546771E-02  0.1095739E+00
         21   -1    0    0  503  502  0.00000000000E+00  0.00000000000E+00  0.13490076664E+03  0.13490076664E+03  0.00000000000E+00 0.  1.
          2   -1    0    0  502    0 -0.00000000000E+00 -0.00000000000E+00 -0.14451940255E+04  0.14451940255E+04  0.00000000000E+00 0.  1.
         25    1    1    2    0    0  0.28483938826E+03 -0.12367727887E+03 -0.18388606243E+03  0.38192751979E+03  0.12500000000E+03 0.  0.
         21    1    1    2  503  501 -0.91073150408E+02 -0.23056143699E+02 -0.78453268141E+02  0.12239615913E+03  0.00000000000E+00 0.  1.
          2    1    1    2  501    0 -0.19376623785E+03  0.14673342257E+03 -0.10479539283E+04  0.10757711132E+04  0.00000000000E+00 0.  1.
<mgrwt>
<rscale>  4 0.27990792E+03</rscale>
<asrwt>0</asrwt>
<pdfrwt beam="1">  1       21 0.20753964E-01 0.27990792E+03</pdfrwt>
<pdfrwt beam="2">  1        2 0.22233754E+00 0.27990792E+03</pdfrwt>
<totfact> 0.39013433E+03</totfact>
</mgrwt>
</event>
<event>
 5    0  0.4115852E+000  0.2306750E+03  0.7546771E-02  0.1126166E+00
         21   -1    0    0  501  502  0.00000000000E+00  0.00000000000E+00  0.16713606528E+03  0.16713606528E+03  0.00000000000E+00 0. -1.
         -1   -1    0    0    0  501 -0.00000000000E+00 -0.00000000000E+00 -0.69714342199E+03  0.69714342199E+03  0.00000000000E+00 0.  1.
         25    1    1    2    0    0  0.94506038178E+02  0.23231859657E+03 -0.78628502632E+02  0.29105113467E+03  0.12500000000E+03 0.  0.
         21    1    1    2  503  502 -0.93841002028E+01 -0.68520017043E+02  0.15765710271E+02  0.70933854347E+02  0.00000000000E+00 0. -1.
         -1    1    1    2    0  503 -0.85121937975E+02 -0.16379857953E+03 -0.46714456435E+03  0.50229449826E+03  0.00000000000E+00 0.  1.
<mgrwt>
<rscale>  4 0.23067496E+03</rscale>
<asrwt>0</asrwt>
<pdfrwt beam="1">  1       21 0.25713241E-01 0.23067496E+03</pdfrwt>
<pdfrwt beam="2">  1       -1 0.10725283E+00 0.23067496E+03</pdfrwt>
<totfact> 0.11443273E+03</totfact>
</mgrwt>
</event>
<event>
 5    0  0.4115852E+000  0.2485737E+03  0.7546771E-02  0.1114210E+00
         -1   -1    0    0    0  501 -0.00000000000E+00  0.00000000000E+00  0.26868224602E+03  0.26868224602E+03  0.00000000000E+00 0. -1.
         21   -1    0    0  501  502  0.00000000000E+00 -0.00000000000E+00 -0.40028654048E+03  0.40028654048E+03  0.00000000000E+00 0. -1.
         25    1    1    2    0    0  0.91086404438E+02 -0.20982983653E+03 -0.23812357687E+03  0.35306250330E+03  0.12500000000E+03 0.  0.
         21    1    1    2  503  502 -0.39887666274E+02  0.33469510050E+01 -0.40787914636E+02  0.57147895693E+02  0.00000000000E+00 0. -1.
         -1    1    1    2    0  503 -0.51198738164E+02  0.20648288552E+03  0.14730719704E+03  0.25875838751E+03  0.00000000000E+00 0. -1.
<mgrwt>
<rscale>  4 0.24857374E+03</rscale>
<asrwt>0</asrwt>
<pdfrwt beam="1">  1       21 0.61582545E-01 0.24857374E+03</pdfrwt>
<pdfrwt beam="2">  1       -1 0.41335730E-01 0.24857374E+03</pdfrwt>
<totfact> 0.12875181E+03</totfact>
</mgrwt>
</event>
<event>
 5    0  0.4115852E+000  0.1751031E+03  0.7546771E-02  0.1172628E+00
         21   -1    0    0  503  502  0.00000000000E+00  0.00000000000E+00  0.93499401195E+02  0.93499401195E+02  0.00000000000E+00 0. -1.
          2   -1    0    0  502    0 -0.00000000000E+00 -0.00000000000E+00 -0.17406635388E+04  0.17406635388E+04  0.00000000000E+00 0. -1.
         25    1    1    2    0    0 -0.19550319609E+02 -0.20041780459E+03 -0.96226356426E+02  0.25580074876E+03  0.12500000000E+03 0.  0.
         21    1    1    2  503  501  0.36988919194E+01  0.81356574141E+02 -0.13734265008E+03  0.15967334621E+03  0.00000000000E+00 0. -1.
          2    1    1    2  501    0  0.15851427690E+02  0.11906123045E+03 -0.14135951311E+04  0.14186888450E+04  0.00000000000E+00 0. -1.
<mgrwt>
<rscale>  4 0.17510306E+03</rscale>
<asrwt>0</asrwt>
<pdfrwt beam="1">  1       21 0.14384522E-01 0.17510306E+03</pdfrwt>
<pdfrwt beam="2">  1        2 0.26779442E+00 0.17510306E+03</pdfrwt>
<totfact> 0.56069920E+03</totfact>
</mgrwt>
</event>
<event>
 5    0  0.4115852E+000  0.3451378E+03  0.7546771E-02  0.1064629E+00
         21   -1    0    0  503  502  0.00000000000E+00  0.00000000000E+00  0.15047549581E+04  0.15047549581E+04  0.00000000000E+00 0.  1.
          3   -1    0    0  502    0 -0.00000000000E+00 -0.00000000000E+00 -0.48500806373E+03  0.48500806373E+03  0.00000000000E+00 0. -1.
         25    1    1    2    0    0  0.10806506714E+03  0.29781043879E+03  0.10926490148E+04  0.11444981370E+04  0.12500000000E+03 0.  0.
         21    1    1    2  503  501 -0.27944105606E+02  0.14088549156E+02  0.32887566776E+03  0.33036126453E+03  0.00000000000E+00 0.  1.
          3    1    1    2  501    0 -0.80120961537E+02 -0.31189898794E+03 -0.40177778813E+03  0.51490362030E+03  0.00000000000E+00 0. -1.
<mgrwt>
<rscale>  4 0.34513785E+03</rscale>
<asrwt>0</asrwt>
<pdfrwt beam="1">  1       21 0.23150076E+00 0.34513785E+03</pdfrwt>
<pdfrwt beam="2">  1        3 0.74616626E-01 0.34513785E+03</pdfrwt>
<totfact> 0.66166755E+00</totfact>
</mgrwt>
</event>
<event>
 5    0  0.4115852E+000  0.2902905E+03  0.7546771E-02  0.1090198E+00
         21   -1    0    0  503  502  0.00000000000E+00  0.00000000000E+00  0.40296388961E+03  0.40296388961E+03  0.00000000000E+00 0. -1.
          2   -1    0    0  502    0 -0.00000000000E+00 -0.00000000000E+00 -0.17849250099E+04  0.17849250099E+04  0.00000000000E+00 0. -1.
         25    1    1    2    0    0 -0.92290792673E+02 -0.33239399972E+03 -0.53107449933E+02  0.37074082956E+03  0.12500000000E+03 0.  0.
         21    1    1    2  503  501 -0.72009100876E+02  0.13316983556E+03  0.20882920120E+03  0.25793245431E+03  0.00000000000E+00 0. -1.
          2    1    1    2  501    0  0.16429989355E+03  0.19922416416E+03 -0.15376828715E+04  0.15592156156E+04  0.00000000000E+00 0. -1.
<mgrwt>
<rscale>  4 0.29029050E+03</rscale>
<asrwt>0</asrwt>
<pdfrwt beam="1">  1       21 0.61994444E-01 0.29029050E+03</pdfrwt>
<pdfrwt beam="2">  1        2 0.27460385E+00 0.29029050E+03</pdfrwt>
<totfact> 0.28123652E+02</totfact>
</mgrwt>
</event>
<event>
 5    0  0.4115852E+000  0.2395427E+03  0.7546771E-02  0.1120098E+00
         21   -1    0    0  503  502  0.00000000000E+00  0.00000000000E+00  0.68031581189E+02  0.68031581189E+02  0.00000000000E+00 0. -1.
          3   -1    0    0  502    0 -0.00000000000E+00 -0.00000000000E+00 -0.28874682085E+04  0.28874682085E+04  0.00000000000E+00 0. -1.
         25    1    1    2    0    0  0.19424065560E+03  0.97499831976E+02 -0.19283120858E+03  0.31629815764E+03  0.12500000000E+03 0.  0.
         21    1    1    2  503  501 -0.30196268672E+01 -0.27665106950E+02 -0.84642766142E+02  0.89100359983E+02  0.00000000000E+00 0.  1.
          3    1    1    2  501    0 -0.19122102873E+03 -0.69834725026E+02 -0.25419626526E+04  0.25501012720E+04  0.00000000000E+00 0. -1.
<mgrwt>
<rscale>  4 0.23954269E+03</rscale>
<asrwt>0</asrwt>
<pdfrwt beam="1">  1       21 0.10466395E-01 0.23954269E+03</pdfrwt>
<pdfrwt beam="2">  1        3 0.44422597E+00 0.23954269E+03</pdfrwt>
<totfact> 0.29762411E+01</totfact>
</mgrwt>
</event>
<event>
 5    0  0.4115852E+000  0.3460147E+03  0.7546771E-02  0.1064263E+00
         -1   -1    0    0    0  501 -0.00000000000E+00  0.00000000000E+00  0.45295046906E+03  0.45295046906E+03  0.00000000000E+00 0. -1.
         21   -1    0    0  501  502  0.00000000000E+00 -0.00000000000E+00 -0.65216771000E+03  0.65216771000E+03  0.00000000000E+00 0. -1.
         25    1    1    2    0    0  0.30363674913E+03  0.17632280354E+03  0.18114439622E+03  0.41439509982E+03  0.12500000000E+03 0.  0.
         21    1    1    2  503  502 -0.79782181490E+02  0.93837806489E+01 -0.39149620891E+03  0.39965301627E+03  0.00000000000E+00 0. -1.
         -1    1    1    2    0  503 -0.22385456764E+03 -0.18570658419E+03  0.11134571754E+02  0.29107006297E+03  0.00000000000E+00 0. -1.
<mgrwt>
<rscale>  4 0.34601465E+03</rscale>
<asrwt>0</asrwt>
<pdfrwt beam="1">  1       21 0.10033349E+00 0.34601465E+03</pdfrwt>
<pdfrwt beam="2">  1       -1 0.69684688E-01 0.34601465E+03</pdfrwt>
<totfact> 0.15216013E+02</totfact>
</mgrwt>
</event>
<event>
 5    0  0.4115852E+000  0.2849510E+03  0.7546771E-02  0.1093015E+00
         21   -1    0    0  503  502  0.00000000000E+00  0.00000000000E+00  0.11406209727E+04  0.11406209727E+04  0.00000000000E+00 0. -1.
          4   -1    0    0  502    0 -0.00000000000E+00 -0.00000000000E+00 -0.15711036227E+03  0.15711036227E+03  0.00000000000E+00 0. -1.
         25    1    1    2    0    0 -0.13492821975E+03 -0.21763830642E+03  0.99775392809E+03  0.10376463549E+04  0.12500000000E+03 0.  0.
         21    1    1    2  503  501  0.17059941083E+02  0.32551307344E+02  0.12970336883E+02  0.38972539543E+02  0.00000000000E+00 0. -1.
          4    1    1    2  501    0  0.11786827866E+03  0.18508699907E+03 -0.27213654546E+02  0.22111244048E+03  0.00000000000E+00 0. -1.
<mgrwt>
<rscale>  4 0.28495097E+03</rscale>
<asrwt>0</asrwt>
<pdfrwt beam="1">  1       21 0.17548014E+00 0.28495097E+03</pdfrwt>
<pdfrwt beam="2">  1        4 0.24170826E-01 0.28495097E+03</pdfrwt>
<totfact> 0.12709288E+02</totfact>
</mgrwt>
</event>
<event>
 5    0  0.4115852E+000  0.2623992E+03  0.7546771E-02  0.1105710E+00
         21   -1    0    0  503  502  0.00000000000E+00  0.00000000000E+00  0.59696669387E+03  0.59696669387E+03  0.00000000000E+00 0. -1.
          3   -1    0    0  502    0 -0.00000000000E+00 -0.00000000000E+00 -0.21323493594E+03  0.21323493594E+03  0.00000000000E+00 0. -1.
         25    1    1    2    0    0  0.14285244438E+02  0.20046125762E+03  0.12081500153E+03  0.26572551366E+03  0.12500000000E+03 0.  0.
         21    1    1    2  503  501 -0.40814069985E+02  0.47512530587E+02  0.28716001399E+03  0.29391172570E+03  0.00000000000E+00 0. -1.
          3    1    1    2  501    0  0.26528825546E+02 -0.24797378820E+03 -0.24243257591E+02  0.25056439045E+03  0.00000000000E+00 0. -1.
<mgrwt>
<rscale>  4 0.26239924E+03</rscale>
<asrwt>0</asrwt>
<pdfrwt beam="1">  1       21 0.91841029E-01 0.26239924E+03</pdfrwt>
<pdfrwt beam="2">  1        3 0.32805375E-01 0.26239924E+03</pdfrwt>
<totfact> 0.44193559E+02</totfact>
</mgrwt>
</event>
<event>
 5    0  0.4115852E+000  0.2658827E+03  0.7546771E-02  0.1103659E+00
         -1   -1    0    0    0  501 -0.00000000000E+00  0.00000000000E+00  0.41453482487E+03  0.41453482487E+03  0.00000000000E+00 0. -1.
         21   -1    0    0  501  502  0.00000000000E+00 -0.00000000000E+00 -0.37386464099E+03  0.37386464099E+03  0.00000000000E+00 0. -1.
         25    1    1    2    0    0 -0.19651959736E+03  0.10317362760E+03 -0.94737749480E+02  0.27178114496E+03  0.12500000000E+03 0.  0.
         21    1    1    2  503  502 -0.22002718440E+02 -0.93446452105E+01 -0.14613515234E+03  0.14807742827E+03  0.00000000000E+00 0. -1.
         -1    1    1    2    0  503  0.21852231580E+03 -0.93828982389E+02  0.28154308570E+03  0.36854089264E+03  0.00000000000E+00 0. -1.
<mgrwt>
<rscale>  4 0.26588275E+03</rscale>
<asrwt>0</asrwt>
<pdfrwt beam="1">  1       21 0.57517637E-01 0.26588275E+03</pdfrwt>
<pdfrwt beam="2">  1       -1 0.63774589E-01 0.26588275E+03</pdfrwt>
<totfact> 0.66041490E+02</totfact>
</mgrwt>
</event>
<event>
 5    0  0.4115852E+000  0.2351686E+03  0.7546771E-02  0.1123054E+00
         21   -1    0    0  501  502  0.00000000000E+00  0.00000000000E+00  0.51400576554E+03  0.51400576554E+03  0.00000000000E+00 0. -1.
         -4   -1    0    0    0  501 -0.00000000000E+00 -0.00000000000E+00 -0.60390442093E+03  0.60390442093E+03  0.00000000000E+00 0.  1.
         25    1    1    2    0    0 -0.24033696412E+03  0.19735478951E+02  0.11624842243E+03  0.29544888080E+03  0.12500000000E+03 0.  0.
         21    1    1    2  503  502  0.45159788595E+02 -0.10179413466E+02  0.28767793837E+03  0.29137883106E+03  0.00000000000E+00 0. -1.
         -4    1    1    2    0  503  0.19517717552E+03 -0.95560654849E+01 -0.49382501619E+03  0.53108247462E+03  0.00000000000E+00 0.  1.
<mgrwt>
<rscale>  4 0.23516861E+03</rscale>
<asrwt>0</asrwt>
<pdfrwt beam="1">  1       21 0.79077810E-01 0.23516861E+03</pdfrwt>
<pdfrwt beam="2">  1       -4 0.92908372E-01 0.23516861E+03</pdfrwt>
<totfact> 0.59395271E+01</totfact>
</mgrwt>
</event>
<event>
 5    0  0.4115852E+000  0.2882373E+03  0.7546771E-02  0.1091273E+00
          2   -1    0    0  502    0 -0.00000000000E+00  0.00000000000E+00  0.48435247405E+04  0.48435247405E+04  0.00000000000E+00 0.  1.
         21   -1    0    0  503  502  0.00000000000E+00 -0.00000000000E+00 -0.44467255933E+02  0.44467255933E+02  0.00000000000E+00 0.  1.
         25    1    1    2    0    0 -0.10538615331E+03 -0.23238359057E+03  0.29543319539E+04  0.29679640612E+04  0.12500000000E+03 0.  0.
         21    1    1    2  503  501 -0.36302560558E+02  0.55349471535E+01 -0.16087556796E+02  0.40091408390E+02  0.00000000000E+00 0.  1.
          2    1    1    2  501    0  0.14168871387E+03  0.22684864341E+03  0.18608130875E+04  0.18799365269E+04  0.00000000000E+00 0.  1.
<mgrwt>
<rscale>  4 0.28823732E+03</rscale>
<asrwt>0</asrwt>
<pdfrwt beam="1">  1       21 0.68411201E-02 0.28823732E+03</pdfrwt>
<pdfrwt beam="2">  1        2 0.74515723E+00 0.28823732E+03</pdfrwt>
<totfact> 0.15032952E+02</totfact>
</mgrwt>
</event>
<event>
 5    0  0.4115852E+000  0.2310113E+03  0.7546771E-02  0.1125930E+00
         21   -1    0    0  503  502  0.00000000000E+00  0.00000000000E+00  0.22823992014E+03  0.22823992014E+03  0.00000000000E+00 0.  1.
          4   -1    0    0  502    0 -0.00000000000E+00 -0.00000000000E+00 -0.47630449574E+03  0.47630449574E+03  0.00000000000E+00 0. -1.
         25    1    1    2    0    0 -0.20372340577E+03 -0.43620269503E+02  0.10205839515E+03  0.26352774045E+03  0.12500000000E+03 0.  0.
         21    1    1    2  503  501  0.81061193419E+02 -0.60229608837E+02 -0.90132451644E+02  0.13536019244E+03  0.00000000000E+00 0.  1.
          4    1    1    2  501    0  0.12266221235E+03  0.10384987834E+03 -0.25999051910E+03  0.30565648299E+03  0.00000000000E+00 0. -1.
<mgrwt>
<rscale>  4 0.23101135E+03</rscale>
<asrwt>0</asrwt>
<pdfrwt beam="1">  1       21 0.35113835E-01 0.23101135E+03</pdfrwt>
<pdfrwt beam="2">  1        4 0.73277613E-01 0.23101135E+03</pdfrwt>
<totfact> 0.56619671E+02</totfact>
</mgrwt>
</event>
<event>
 5    0  0.4115852E+000  0.2633301E+03  0.7546771E-02  0.1105159E+00
         -4   -1    0    0    0  501 -0.00000000000E+00  0.00000000000E+00  0.56313994232E+03  0.56313994232E+03  0.00000000000E+00 0. -1.
         21   -1    0    0  501  502  0.00000000000E+00 -0.00000000000E+00 -0.26245149929E+03  0.26245149929E+03  0.00000000000E+00 0.  1.
         25    1    1    2    0    0  0.20492004193E+03  0.15012826202E+03  0.12028400234E+03  0.30761007763E+03  0.12500000000E+03 0.  0.
         21    1    1    2  503  502 -0.43946908513E+02  0.53340220323E+01 -0.12885383278E+03  0.13624644135E+03  0.00000000000E+00 0.  1.
         -4    1    1    2    0  503 -0.16097313342E+03 -0.15546228405E+03  0.30925827347E+03  0.38173492263E+03  0.00000000000E+00 0. -1.
<mgrwt>
<rscale>  4 0.26333005E+03</rscale>
<asrwt>0</asrwt>
<pdfrwt beam="1">  1       21 0.40377154E-01 0.26333005E+03</pdfrwt>
<pdfrwt beam="2">  1       -4 0.86636914E-01 0.26333005E+03</pdfrwt>
<totfact> 0.29292833E+02</totfact>
</mgrwt>
</event>
<event>
 5    0  0.4115852E+000  0.2814041E+03  0.7546771E-02  0.1094925E+00
         21   -1    0    0  501  502  0.00000000000E+00  0.00000000000E+00  0.23432003474E+03  0.23432003474E+03  0.00000000000E+00 0. -1.
         -2   -1    0    0    0  501 -0.00000000000E+00 -0.00000000000E+00 -0.35115234982E+03  0.35115234982E+03  0.00000000000E+00 0. -1.
         25    1    1    2    0    0 -0.21793650280E+03  0.93788846574E+02 -0.11335233782E+02  0.26841414739E+03  0.12500000000E+03 0.  0.
         21    1    1    2  503  502 -0.22898073999E+02  0.88848151396E+01  0.15077268080E+02  0.28819884554E+02  0.00000000000E+00 0.  1.
         -2    1    1    2    0  503  0.24083457680E+03 -0.10267366171E+03 -0.12057434938E+03  0.28823835262E+03  0.00000000000E+00 0. -1.
<mgrwt>
<rscale>  4 0.28140407E+03</rscale>
<asrwt>0</asrwt>
<pdfrwt beam="1">  1       21 0.36049236E-01 0.28140407E+03</pdfrwt>
<pdfrwt beam="2">  1       -2 0.54023438E-01 0.28140407E+03</pdfrwt>
<totfact> 0.19378156E+03</totfact>
</mgrwt>
</event>
<event>
 5    0  0.4115852E+000  0.4399002E+03  0.7546771E-02  0.1030777E+00
          2   -1    0    0  502    0 -0.00000000000E+00  0.00000000000E+00  0.13539767423E+04  0.13539767423E+04  0.00000000000E+00 0. -1.
         21   -1    0    0  503  502  0.00000000000E+00 -0.00000000000E+00 -0.40975752355E+03  0.40975752355E+03  0.00000000000E+00 0. -1.
         25    1    1    2    0    0 -0.97132676373E+02  0.51459149895E+03  0.25786072614E+02  0.53900750380E+03  0.12500000000E+03 0.  0.
         21    1    1    2  503  501  0.57016032394E+02 -0.11034237974E+03 -0.79370530854E+02  0.14739725195E+03  0.00000000000E+00 0. -1.
          2    1    1    2  501    0  0.40116643979E+02 -0.40424911921E+03  0.99780367704E+03  0.10773295101E+04  0.00000000000E+00 0. -1.
<mgrwt>
<rscale>  4 0.43990019E+03</rscale>
<asrwt>0</asrwt>
<pdfrwt beam="1">  1       21 0.63039620E-01 0.43990019E+03</pdfrwt>
<pdfrwt beam="2">  1        2 0.20830411E+00 0.43990019E+03</pdfrwt>
<totfact> 0.43514153E+02</totfact>
</mgrwt>
</event>
<event>
 5    0  0.4115852E+000  0.1984330E+03  0.7546771E-02  0.1151068E+00
          2   -1    0    0  502    0 -0.00000000000E+00  0.00000000000E+00  0.73561807603E+03  0.73561807603E+03  0.00000000000E+00 0. -1.
         21   -1    0    0  503  502  0.00000000000E+00 -0.00000000000E+00 -0.11512233711E+03  0.11512233711E+03  0.00000000000E+00 0. -1.
         25    1    1    2    0    0 -0.10721586917E+03  0.17631647539E+03  0.24433237151E+03  0.34337450380E+03  0.12500000000E+03 0.  0.
         21    1    1    2  503  501  0.91834379448E+02 -0.33045756767E+02 -0.71528657957E+01  0.97860813291E+02  0.00000000000E+00 0. -1.
          2    1    1    2  501    0  0.15381489723E+02 -0.14327071862E+03  0.38331623321E+03  0.40950509604E+03  0.00000000000E+00 0. -1.
<mgrwt>
<rscale>  4 0.19843302E+03</rscale>
<asrwt>0</asrwt>
<pdfrwt beam="1">  1       21 0.17711129E-01 0.19843302E+03</pdfrwt>
<pdfrwt beam="2">  1        2 0.11317201E+00 0.19843302E+03</pdfrwt>
<totfact> 0.14387559E+04</totfact>
</mgrwt>
</event>
<event>
 5    0  0.4115852E+000  0.2650110E+03  0.7546771E-02  0.1104169E+00
         21   -1    0    0  503  502  0.00000000000E+00  0.00000000000E+00  0.28091278782E+02  0.28091278782E+02  0.00000000000E+00 0.  1.
          2   -1    0    0  502    0 -0.00000000000E+00 -0.00000000000E+00 -0.26947150928E+04  0.26947150928E+04  0.00000000000E+00 0.  1.
         25    1    1    2    0    0 -0.23147267335E+03  0.32035239537E+02 -0.91163329268E+03  0.94937143174E+03  0.12500000000E+03 0.  0.
         21    1    1    2  503  501  0.56569541786E+02 -0.35520428116E+02 -0.26841327267E+03  0.27659988940E+03  0.00000000000E+00 0.  1.
          2    1    1    2  501    0  0.17490313157E+03  0.34851885794E+01 -0.14865772487E+04  0.14968350505E+04  0.00000000000E+00 0.  1.
<mgrwt>
<rscale>  4 0.26501105E+03</rscale>
<asrwt>0</asrwt>
<pdfrwt beam="1">  1       21 0.43217339E-02 0.26501105E+03</pdfrwt>
<pdfrwt beam="2">  1        2 0.41457168E+00 0.26501105E+03</pdfrwt>
<totfact> 0.13705767E+04</totfact>
</mgrwt>
</event>
<event>
 5    0  0.4115852E+000  0.1870315E+03  0.7546771E-02  0.1161166E+00
         21   -1    0    0  503  502  0.00000000000E+00  0.00000000000E+00  0.39948160193E+02  0.39948160193E+02  0.00000000000E+00 0.  1.
          2   -1    0    0  502    0 -0.00000000000E+00 -0.00000000000E+00 -0.22964895452E+04  0.22964895452E+04  0.00000000000E+00 0.  1.
         25    1    1    2    0    0  0.10853779618E+03  0.17211084718E+03 -0.10611357718E+04  0.10876749161E+04  0.12500000000E+03 0.  0.
         21    1    1    2  503  501 -0.65510034460E+02 -0.56166939928E+02 -0.56457337430E+02  0.10311993360E+03  0.00000000000E+00 0.  1.
          2    1    1    2  501    0 -0.43027761715E+02 -0.11594390726E+03 -0.11389482757E+04  0.11456428557E+04  0.00000000000E+00 0.  1.
<mgrwt>
<rscale>  4 0.18703149E+03</rscale>
<asrwt>0</asrwt>
<pdfrwt beam="1">  1       21 0.61458721E-02 0.18703149E+03</pdfrwt>
<pdfrwt beam="2">  1        2 0.35330601E+00 0.18703149E+03</pdfrwt>
<totfact> 0.12783362E+04</totfact>
</mgrwt>
</event>
<event>
 5    0  0.4115852E+000  0.3006244E+03  0.7546771E-02  0.1084929E+00
          2   -1    0    0  502    0 -0.00000000000E+00  0.00000000000E+00  0.39667653473E+03  0.39667653473E+03  0.00000000000E+00 0.  1.
         21   -1    0    0  503  502  0.00000000000E+00 -0.00000000000E+00 -0.43368164185E+03  0.43368164185E+03  0.00000000000E+00 0.  1.
         25    1    1    2    0    0 -0.38943280160E+02  0.28640680714E+03  0.94206110444E+02  0.32870234178E+03  0.12500000000E+03 0.  0.
         21    1    1    2  503  501  0.24251964139E+01 -0.27895751470E+02 -0.22312211307E+03  0.22487225678E+03  0.00000000000E+00 0.  1.
          2    1    1    2  501    0  0.36518083746E+02 -0.25851105567E+03  0.91910895515E+02  0.27678357802E+03  0.00000000000E+00 0.  1.
<mgrwt>
<rscale>  4 0.30062441E+03</rscale>
<asrwt>0</asrwt>
<pdfrwt beam="1">  1       21 0.66720252E-01 0.30062441E+03</pdfrwt>
<pdfrwt beam="2">  1        2 0.61027159E-01 0.30062441E+03</pdfrwt>
<totfact> 0.19892874E+03</totfact>
</mgrwt>
</event>
<event>
 5    0  0.4115852E+000  0.3407973E+03  0.7546771E-02  0.1066457E+00
          2   -1    0    0  502    0 -0.00000000000E+00  0.00000000000E+00  0.23434425699E+04  0.23434425699E+04  0.00000000000E+00 0.  1.
         21   -1    0    0  503  502  0.00000000000E+00 -0.00000000000E+00 -0.12890478837E+03  0.12890478837E+03  0.00000000000E+00 0. -1.
         25    1    1    2    0    0  0.20605445477E+03 -0.23520872043E+03  0.16471857271E+03  0.37488503397E+03  0.12500000000E+03 0.  0.
         21    1    1    2  503  501 -0.12792583922E+02 -0.16847695983E+02 -0.19598158982E+01  0.21244668548E+02  0.00000000000E+00 0. -1.
          2    1    1    2  501    0 -0.19326187084E+03  0.25205641642E+03  0.20517790247E+04  0.20762176558E+04  0.00000000000E+00 0.  1.
<mgrwt>
<rscale>  4 0.34079730E+03</rscale>
<asrwt>0</asrwt>
<pdfrwt beam="1">  1       21 0.19831508E-01 0.34079730E+03</pdfrwt>
<pdfrwt beam="2">  1        2 0.36052959E+00 0.34079730E+03</pdfrwt>
<totfact> 0.13811814E+03</totfact>
</mgrwt>
</event>
<event>
 5    0  0.4115852E+000  0.2525182E+03  0.7546771E-02  0.1111724E+00
         21   -1    0    0  503  502  0.00000000000E+00  0.00000000000E+00  0.23002915011E+03  0.23002915011E+03  0.00000000000E+00 0. -1.
          1   -1    0    0  502    0 -0.00000000000E+00 -0.00000000000E+00 -0.10870273709E+04  0.10870273709E+04  0.00000000000E+00 0. -1.
         25    1    1    2    0    0 -0.25596512163E+01 -0.20299517847E+03 -0.19586466725E+03  0.30854750392E+03  0.12500000000E+03 0.  0.
         21    1    1    2  503  501  0.78363554098E+01 -0.20750284561E+02  0.15789846254E+03  0.15944876057E+03  0.00000000000E+00 0. -1.
          1    1    1    2  501    0 -0.52767041935E+01  0.22374546304E+03 -0.81903201607E+03  0.84906025651E+03  0.00000000000E+00 0. -1.
<mgrwt>
<rscale>  4 0.25251823E+03</rscale>
<asrwt>0</asrwt>
<pdfrwt beam="1">  1       21 0.35389101E-01 0.25251823E+03</pdfrwt>
<pdfrwt beam="2">  1        1 0.16723498E+00 0.25251823E+03</pdfrwt>
<totfact> 0.11599731E+03</totfact>
</mgrwt>
</event>
<event>
 5    0  0.4115852E+000  0.2574163E+03  0.7546771E-02  0.1108706E+00
         21   -1    0    0  503  502  0.00000000000E+00  0.00000000000E+00  0.77641652137E+02  0.77641652137E+02  0.00000000000E+00 0. -1.
          2   -1    0    0  502    0 -0.00000000000E+00 -0.00000000000E+00 -0.97787152585E+03  0.97787152585E+03  0.00000000000E+00 0.  1.
         25    1    1    2    0    0 -0.10877774638E+03  0.17021811832E+03 -0.33352663680E+03  0.40947750044E+03  0.12500000000E+03 0.  0.
         21    1    1    2  503  501 -0.22977295774E+02  0.30431030248E+02 -0.94550820063E+01  0.39286159125E+02  0.00000000000E+00 0. -1.
          2    1    1    2  501    0  0.13175504216E+03 -0.20064914857E+03 -0.55724815491E+03  0.60674951842E+03  0.00000000000E+00 0.  1.
<mgrwt>
<rscale>  4 0.25741626E+03</rscale>
<asrwt>0</asrwt>
<pdfrwt beam="1">  1       21 0.11944870E-01 0.25741626E+03</pdfrwt>
<pdfrwt beam="2">  1        2 0.15044177E+00 0.25741626E+03</pdfrwt>
<totfact> 0.20108989E+04</totfact>
</mgrwt>
</event>
<event>
 5    0  0.4115852E+000  0.2450011E+03  0.7546771E-02  0.1116505E+00
         21   -1    0    0  501  502  0.00000000000E+00  0.00000000000E+00  0.41583449875E+02  0.41583449875E+02  0.00000000000E+00 0. -1.
         -1   -1    0    0    0  501 -0.00000000000E+00 -0.00000000000E+00 -0.14514623199E+04  0.14514623199E+04  0.00000000000E+00 0. -1.
         25    1    1    2    0    0 -0.20869733911E+03  0.68836824967E+02 -0.68519262197E+03  0.73034718937E+03  0.12500000000E+03 0.  0.
         21    1    1    2  503  502  0.20036055753E+03 -0.37301328367E+02 -0.59347737464E+03  0.62749592534E+03  0.00000000000E+00 0. -1.
         -1    1    1    2    0  503  0.83367815774E+01 -0.31535496601E+02 -0.13120887346E+03  0.13520265511E+03  0.00000000000E+00 0. -1.
<mgrwt>
<rscale>  4 0.24500108E+03</rscale>
<asrwt>0</asrwt>
<pdfrwt beam="1">  1       21 0.63974544E-02 0.24500108E+03</pdfrwt>
<pdfrwt beam="2">  1       -1 0.22330188E+00 0.24500108E+03</pdfrwt>
<totfact> 0.19515047E+03</totfact>
</mgrwt>
</event>
<event>
 5    0  0.4115852E+000  0.2918264E+03  0.7546771E-02  0.1089399E+00
          2   -1    0    0  502    0 -0.00000000000E+00  0.00000000000E+00  0.82666232401E+03  0.82666232401E+03  0.00000000000E+00 0.  1.
         21   -1    0    0  503  502  0.00000000000E+00 -0.00000000000E+00 -0.20794133723E+03  0.20794133723E+03  0.00000000000E+00 0. -1.
         25    1    1    2    0    0 -0.18016158579E+03 -0.13973616779E+03 -0.10882202741E+02  0.26024568377E+03  0.12500000000E+03 0.  0.
         21    1    1    2  503  501 -0.28925588506E+02 -0.32178780303E+02 -0.35700497479E+02  0.56095357138E+02  0.00000000000E+00 0.  1.
          2    1    1    2  501    0  0.20908717429E+03  0.17191494809E+03  0.66530368700E+03  0.71826262033E+03  0.00000000000E+00 0.  1.
<mgrwt>
<rscale>  4 0.29182636E+03</rscale>
<asrwt>0</asrwt>
<pdfrwt beam="1">  1       21 0.31990975E-01 0.29182636E+03</pdfrwt>
<pdfrwt beam="2">  1        2 0.12717882E+00 0.29182636E+03</pdfrwt>
<totfact> 0.39122607E+03</totfact>
</mgrwt>
</event>
<event>
 5    0  0.4115852E+000  0.2253908E+03  0.7546771E-02  0.1129927E+00
          2   -1    0    0  502    0 -0.00000000000E+00  0.00000000000E+00  0.15610050643E+04  0.15610050643E+04  0.00000000000E+00 0.  1.
         21   -1    0    0  503  502  0.00000000000E+00 -0.00000000000E+00 -0.72940041940E+02  0.72940041940E+02  0.00000000000E+00 0.  1.
         25    1    1    2    0    0  0.25764633653E+03 -0.89112603948E+02  0.57787090177E+03  0.65106256998E+03  0.12500000000E+03 0.  0.
         21    1    1    2  503  501 -0.96788569035E+02  0.39931307601E+02  0.69836585209E+02  0.12585581058E+03  0.00000000000E+00 0.  1.
          2    1    1    2  501    0 -0.16085776749E+03  0.49181296347E+02  0.84035753537E+03  0.85702672568E+03  0.00000000000E+00 0.  1.
<mgrwt>
<rscale>  4 0.22539080E+03</rscale>
<asrwt>0</asrwt>
<pdfrwt beam="1">  1       21 0.11221546E-01 0.22539080E+03</pdfrwt>
<pdfrwt beam="2">  1        2 0.24015460E+00 0.22539080E+03</pdfrwt>
<totfact> 0.10655294E+04</totfact>
</mgrwt>
</event>
<event>
 5    0  0.4115852E+000  0.2884325E+03  0.7546771E-02  0.1091170E+00
          2   -1    0    0  502    0 -0.00000000000E+00  0.00000000000E+00  0.14144165596E+04  0.14144165596E+04  0.00000000000E+00 0.  1.
         21   -1    0    0  503  502  0.00000000000E+00 -0.00000000000E+00 -0.13013359925E+03  0.13013359925E+03  0.00000000000E+00 0.  1.
         25    1    1    2    0    0 -0.84374544828E+01  0.20535693772E+03  0.22052219612E+03  0.32633985581E+03  0.12500000000E+03 0.  0.
         21    1    1    2  503  501 -0.20651675141E+02  0.70905691678E+02 -0.37237295857E+02  0.82708675489E+02  0.00000000000E+00 0.  1.
          2    1    1    2  501    0  0.29089129624E+02 -0.27626262940E+03  0.11009980601E+04  0.11355016275E+04  0.00000000000E+00 0.  1.
<mgrwt>
<rscale>  4 0.28843245E+03</rscale>
<asrwt>0</asrwt>
<pdfrwt beam="1">  1       21 0.20020555E-01 0.28843245E+03</pdfrwt>
<pdfrwt beam="2">  1        2 0.21760254E+00 0.28843245E+03</pdfrwt>
<totfact> 0.43272397E+03</totfact>
</mgrwt>
</event>
<event>
 5    0  0.4115852E+000  0.2445297E+03  0.7546771E-02  0.1116812E+00
         21   -1    0    0  503  502  0.00000000000E+00  0.00000000000E+00  0.39790507683E+03  0.39790507683E+03  0.00000000000E+00 0.  1.
          2   -1    0    0  502    0 -0.00000000000E+00 -0.00000000000E+00 -0.30043464838E+04  0.30043464838E+04  0.00000000000E+00 0. -1.
         25    1    1    2    0    0 -0.34910968269E+01 -0.28983792851E+03  0.15211410335E+03  0.35040250142E+03  0.12500000000E+03 0.  0.
         21    1    1    2  503  501 -0.73989681223E+02  0.15920321936E+03  0.91348461592E+02  0.19790068069E+03  0.00000000000E+00 0.  1.
          2    1    1    2  501    0  0.77480778050E+02  0.13063470916E+03 -0.28499039719E+04  0.28539483785E+04  0.00000000000E+00 0. -1.
<mgrwt>
<rscale>  4 0.24452972E+03</rscale>
<asrwt>0</asrwt>
<pdfrwt beam="1">  1       21 0.61216165E-01 0.24452972E+03</pdfrwt>
<pdfrwt beam="2">  1        2 0.46220715E+00 0.24452972E+03</pdfrwt>
<totfact> 0.64282042E+01</totfact>
</mgrwt>
</event>
<event>
 5    0  0.4115852E+000  0.3360944E+03  0.7546771E-02  0.1068472E+00
         21   -1    0    0  503  502  0.00000000000E+00  0.00000000000E+00  0.24242964996E+03  0.24242964996E+03  0.00000000000E+00 0.  1.
          2   -1    0    0  502    0 -0.00000000000E+00 -0.00000000000E+00 -0.22293590364E+04  0.22293590364E+04  0.00000000000E+00 0. -1.
         25    1    1    2    0    0  0.33561561902E+03 -0.14060362410E+02 -0.11119482130E+03  0.37526633982E+03  0.12500000000E+03 0.  0.
         21    1    1    2  503  501 -0.26962367658E+02 -0.12815336177E+02  0.96031052946E+02  0.10056423440E+03  0.00000000000E+00 0.  1.
          2    1    1    2  501    0 -0.30865325136E+03  0.26875698586E+02 -0.19717656181E+04  0.19959581121E+04  0.00000000000E+00 0. -1.
<mgrwt>
<rscale>  4 0.33609440E+03</rscale>
<asrwt>0</asrwt>
<pdfrwt beam="1">  1       21 0.37296869E-01 0.33609440E+03</pdfrwt>
<pdfrwt beam="2">  1        2 0.34297832E+00 0.33609440E+03</pdfrwt>
<totfact> 0.46407157E+02</totfact>
</mgrwt>
</event>
<event>
 5    0  0.4115852E+000  0.2797887E+03  0.7546771E-02  0.1095804E+00
         -3   -1    0    0    0  501 -0.00000000000E+00  0.00000000000E+00  0.91621631893E+02  0.91621631893E+02  0.00000000000E+00 0. -1.
         21   -1    0    0  501  502  0.00000000000E+00 -0.00000000000E+00 -0.17646995742E+04  0.17646995742E+04  0.00000000000E+00 0. -1.
         25    1    1    2    0    0 -0.16857410750E+03  0.16164020211E+03 -0.14235947742E+04  0.14480303401E+04  0.12500000000E+03 0.  0.
         21    1    1    2  503  502 -0.18717845081E+02  0.79993204637E+01 -0.12490756223E+03  0.12655530789E+03  0.00000000000E+00 0. -1.
         -3    1    1    2    0  503  0.18729195258E+03 -0.16963952258E+03 -0.12457560584E+03  0.28173555809E+03  0.00000000000E+00 0. -1.
<mgrwt>
<rscale>  4 0.27978869E+03</rscale>
<asrwt>0</asrwt>
<pdfrwt beam="1">  1       21 0.27149222E+00 0.27978869E+03</pdfrwt>
<pdfrwt beam="2">  1       -3 0.14095637E-01 0.27978869E+03</pdfrwt>
<totfact> 0.95974310E+01</totfact>
</mgrwt>
</event>
<event>
 5    0  0.4115852E+000  0.2843207E+03  0.7546771E-02  0.1093352E+00
          2   -1    0    0  502    0 -0.00000000000E+00  0.00000000000E+00  0.11772118722E+04  0.11772118722E+04  0.00000000000E+00 0. -1.
         21   -1    0    0  503  502  0.00000000000E+00 -0.00000000000E+00 -0.11383884623E+03  0.11383884623E+03  0.00000000000E+00 0. -1.
         25    1    1    2    0    0  0.32884352223E+02  0.25603492051E+03  0.27840868391E+03  0.39971446861E+03  0.12500000000E+03 0.  0.
         21    1    1    2  503  501 -0.28165639278E+02 -0.12271382680E+01 -0.27775359407E+02  0.39576251647E+02  0.00000000000E+00 0. -1.
          2    1    1    2  501    0 -0.47187129444E+01 -0.25480778224E+03  0.81273970142E+03  0.85175999813E+03  0.00000000000E+00 0. -1.
<mgrwt>
<rscale>  4 0.28432068E+03</rscale>
<asrwt>0</asrwt>
<pdfrwt beam="1">  1       21 0.17513669E-01 0.28432068E+03</pdfrwt>
<pdfrwt beam="2">  1        2 0.18110951E+00 0.28432068E+03</pdfrwt>
<totfact> 0.75493491E+03</totfact>
</mgrwt>
</event>
<event>
 5    0  0.4115852E+000  0.3530943E+03  0.7546771E-02  0.1061352E+00
         21   -1    0    0  503  502  0.00000000000E+00  0.00000000000E+00  0.61259954456E+03  0.61259954456E+03  0.00000000000E+00 0.  1.
          1   -1    0    0  502    0 -0.00000000000E+00 -0.00000000000E+00 -0.61691314781E+03  0.61691314781E+03  0.00000000000E+00 0. -1.
         25    1    1    2    0    0  0.26166574449E+03  0.35368714203E+03 -0.21932291406E+03  0.50723869815E+03  0.12500000000E+03 0.  0.
         21    1    1    2  503  501 -0.19622796402E+03 -0.24474275996E+03  0.39345374374E+03  0.50320004062E+03  0.00000000000E+00 0.  1.
          1    1    1    2  501    0 -0.65437780468E+02 -0.10894438207E+03 -0.17844443293E+03  0.21907395359E+03  0.00000000000E+00 0. -1.
<mgrwt>
<rscale>  4 0.35309429E+03</rscale>
<asrwt>0</asrwt>
<pdfrwt beam="1">  1       21 0.94246083E-01 0.35309429E+03</pdfrwt>
<pdfrwt beam="2">  1        1 0.94909715E-01 0.35309429E+03</pdfrwt>
<totfact> 0.32690681E+02</totfact>
</mgrwt>
</event>
<event>
 5    0  0.4115852E+000  0.3377803E+03  0.7546771E-02  0.1067745E+00
          2   -1    0    0  502    0 -0.00000000000E+00  0.00000000000E+00  0.93539926572E+03  0.93539926572E+03  0.00000000000E+00 0.  1.
         21   -1    0    0  503  502  0.00000000000E+00 -0.00000000000E+00 -0.31621046899E+03  0.31621046899E+03  0.00000000000E+00 0. -1.
         25    1    1    2    0    0  0.12186343889E+03 -0.28727288824E+03 -0.17719168896E+03  0.37999776933E+03  0.12500000000E+03 0.  0.
         21    1    1    2  503  501  0.18372577927E+02 -0.92404102929E+01  0.19558328054E+02  0.28380715254E+02  0.00000000000E+00 0. -1.
          2    1    1    2  501    0 -0.14023601682E+03  0.29651329853E+03  0.77682215763E+03  0.84323125014E+03  0.00000000000E+00 0.  1.
<mgrwt>
<rscale>  4 0.33778027E+03</rscale>
<asrwt>0</asrwt>
<pdfrwt beam="1">  1       21 0.48647765E-01 0.33778027E+03</pdfrwt>
<pdfrwt beam="2">  1        2 0.14390758E+00 0.33778027E+03</pdfrwt>
<totfact> 0.13901971E+03</totfact>
</mgrwt>
</event>
<event>
 5    0  0.4115852E+000  0.4403909E+03  0.7546771E-02  0.1030627E+00
         21   -1    0    0  503  502  0.00000000000E+00  0.00000000000E+00  0.59585336062E+03  0.59585336062E+03  0.00000000000E+00 0. -1.
          2   -1    0    0  502    0 -0.00000000000E+00 -0.00000000000E+00 -0.29349268425E+04  0.29349268425E+04  0.00000000000E+00 0. -1.
         25    1    1    2    0    0 -0.15890111385E+03 -0.41764396645E+03  0.44419493619E+03  0.64234740447E+03  0.12500000000E+03 0.  0.
         21    1    1    2  503  501  0.52469392198E+02  0.96593410911E+01  0.17466693703E+02  0.56137557631E+02  0.00000000000E+00 0. -1.
          2    1    1    2  501    0  0.10643172166E+03  0.40798462536E+03 -0.28007351118E+04  0.28322952410E+04  0.00000000000E+00 0. -1.
<mgrwt>
<rscale>  4 0.44039092E+03</rscale>
<asrwt>0</asrwt>
<pdfrwt beam="1">  1       21 0.91669745E-01 0.44039092E+03</pdfrwt>
<pdfrwt beam="2">  1        2 0.45152722E+00 0.44039092E+03</pdfrwt>
<totfact> 0.24806386E+01</totfact>
</mgrwt>
</event>
<event>
 5    0  0.4115852E+000  0.2420594E+03  0.7546771E-02  0.1118428E+00
         -4   -1    0    0    0  501 -0.00000000000E+00  0.00000000000E+00  0.65734791293E+03  0.65734791293E+03  0.00000000000E+00 0.  1.
         21   -1    0    0  501  502  0.00000000000E+00 -0.00000000000E+00 -0.90033800008E+02  0.90033800008E+02  0.00000000000E+00 0.  1.
         25    1    1    2    0    0  0.15568016612E+03  0.12720744614E+03  0.22595451527E+03  0.32725905862E+03  0.12500000000E+03 0.  0.
         21    1    1    2  503  502  0.23850586682E+02 -0.14838635498E+02  0.17303310362E+02  0.32991516152E+02  0.00000000000E+00 0. -1.
         -4    1    1    2    0  503 -0.17953075280E+03 -0.11236881065E+03  0.32405628730E+03  0.38713113817E+03  0.00000000000E+00 0.  1.
<mgrwt>
<rscale>  4 0.24205941E+03</rscale>
<asrwt>0</asrwt>
<pdfrwt beam="1">  1       21 0.13851354E-01 0.24205941E+03</pdfrwt>
<pdfrwt beam="2">  1       -4 0.10113044E+00 0.24205941E+03</pdfrwt>
<totfact> 0.15933042E+03</totfact>
</mgrwt>
</event>
<event>
 5    0  0.5249240E+000  0.3242677E+03  0.7546771E-02  0.1073702E+00
         -1   -1    0    0    0  501 -0.00000000000E+00  0.00000000000E+00  0.11597386518E+04  0.11597386518E+04  0.00000000000E+00 0.  1.
         21   -1    0    0  501  502  0.00000000000E+00 -0.00000000000E+00 -0.58286344548E+03  0.58286344548E+03  0.00000000000E+00 0. -1.
         25    1    1    2    0    0  0.29685537123E+03 -0.61775294267E+02 -0.48849591642E+03  0.58838130389E+03  0.12500000000E+03 0.  0.
         21    1    1    2  503  502 -0.12492528060E+02 -0.31024259198E+02 -0.12431341094E+02  0.35680613188E+02  0.00000000000E+00 0.  1.
         -1    1    1    2    0  503 -0.28436284317E+03  0.92799553465E+02  0.10778024639E+04  0.11185401802E+04  0.00000000000E+00 0.  1.
<mgrwt>
<rscale>  4 0.32426773E+03</rscale>
<asrwt>0</asrwt>
<pdfrwt beam="1">  1       21 0.89671300E-01 0.32426773E+03</pdfrwt>
<pdfrwt beam="2">  1       -1 0.17842133E+00 0.32426773E+03</pdfrwt>
<totfact> 0.21613204E+01</totfact>
</mgrwt>
</event>
<event>
 5    0  0.4115852E+000  0.2346890E+03  0.7546771E-02  0.1123382E+00
         21   -1    0    0  503  502  0.00000000000E+00  0.00000000000E+00  0.16565285067E+03  0.16565285067E+03  0.00000000000E+00 0.  1.
          2   -1    0    0  502    0 -0.00000000000E+00 -0.00000000000E+00 -0.66765911134E+03  0.66765911134E+03  0.00000000000E+00 0. -1.
         25    1    1    2    0    0 -0.12493897375E+03  0.17563449413E+03 -0.33000643973E+02  0.25133894484E+03  0.12500000000E+03 0.  0.
         21    1    1    2  503  501  0.31820328768E+01 -0.22258751459E+02  0.34808108360E+02  0.41438891845E+02  0.00000000000E+00 0. -1.
          2    1    1    2  501    0  0.12175694087E+03 -0.15337574267E+03 -0.50381372505E+03  0.54053412533E+03  0.00000000000E+00 0. -1.
<mgrwt>
<rscale>  4 0.23468896E+03</rscale>
<asrwt>0</asrwt>
<pdfrwt beam="1">  1       21 0.25485054E-01 0.23468896E+03</pdfrwt>
<pdfrwt beam="2">  1        2 0.10271679E+00 0.23468896E+03</pdfrwt>
<totfact> 0.80774380E+03</totfact>
</mgrwt>
</event>
<event>
 5    0  0.4115852E+000  0.2352126E+03  0.7546771E-02  0.1123024E+00
         21   -1    0    0  501  502  0.00000000000E+00  0.00000000000E+00  0.32607028693E+03  0.32607028693E+03  0.00000000000E+00 0. -1.
         -2   -1    0    0    0  501 -0.00000000000E+00 -0.00000000000E+00 -0.23455141083E+03  0.23455141083E+03  0.00000000000E+00 0.  1.
         25    1    1    2    0    0  0.21493858011E+03 -0.80370368440E+02  0.12233264385E+02  0.26159633426E+03  0.12500000000E+03 0.  0.
         21    1    1    2  503  502 -0.63564174982E+02 -0.22229218860E+02  0.93926942088E+02  0.11557167889E+03  0.00000000000E+00 0. -1.
         -2    1    1    2    0  503 -0.15137440513E+03  0.10259958730E+03 -0.14641330375E+02  0.18345368461E+03  0.00000000000E+00 0.  1.
<mgrwt>
<rscale>  4 0.23521261E+03</rscale>
<asrwt>0</asrwt>
<pdfrwt beam="1">  1       21 0.50164660E-01 0.23521261E+03</pdfrwt>
<pdfrwt beam="2">  1       -2 0.36084832E-01 0.23521261E+03</pdfrwt>
<totfact> 0.21858893E+03</totfact>
</mgrwt>
</event>
<event>
 5    0  0.4115852E+000  0.2524057E+03  0.7546771E-02  0.1111794E+00
         21   -1    0    0  501  502  0.00000000000E+00  0.00000000000E+00  0.17673718843E+03  0.17673718843E+03  0.00000000000E+00 0. -1.
         -3   -1    0    0    0  501 -0.00000000000E+00 -0.00000000000E+00 -0.48477396405E+03  0.48477396405E+03  0.00000000000E+00 0. -1.
         25    1    1    2    0    0  0.24296875708E+03  0.22073291074E+02 -0.26158819155E+02  0.27537307587E+03  0.12500000000E+03 0.  0.
         21    1    1    2  503  502 -0.30635084843E+02 -0.23321242473E+02 -0.75530891563E+01  0.39235671647E+02  0.00000000000E+00 0. -1.
         -3    1    1    2    0  503 -0.21233367224E+03  0.12479513983E+01 -0.27432486731E+03  0.34690240497E+03  0.00000000000E+00 0. -1.
<mgrwt>
<rscale>  4 0.25240575E+03</rscale>
<asrwt>0</asrwt>
<pdfrwt beam="1">  1       21 0.27190337E-01 0.25240575E+03</pdfrwt>
<pdfrwt beam="2">  1       -3 0.74580609E-01 0.25240575E+03</pdfrwt>
<totfact> 0.11006039E+03</totfact>
</mgrwt>
</event>
<event>
 5    0  0.4115852E+000  0.2487249E+03  0.7546771E-02  0.1114113E+00
         21   -1    0    0  501  502  0.00000000000E+00  0.00000000000E+00  0.65086788255E+03  0.65086788255E+03  0.00000000000E+00 0.  1.
         -3   -1    0    0    0  501 -0.00000000000E+00 -0.00000000000E+00 -0.77089559982E+03  0.77089559982E+03  0.00000000000E+00 0. -1.
         25    1    1    2    0    0 -0.16796198747E+03 -0.17165525260E+03 -0.35530647005E+03  0.44670397652E+03  0.12500000000E+03 0.  0.
         21    1    1    2  503  502  0.20025664938E+02  0.36712920458E+02  0.57725822172E+03  0.57877104310E+03  0.00000000000E+00 0.  1.
         -3    1    1    2    0  503  0.14793632254E+03  0.13494233214E+03 -0.34197946894E+03  0.39628846275E+03  0.00000000000E+00 0. -1.
<mgrwt>
<rscale>  4 0.24872490E+03</rscale>
<asrwt>0</asrwt>
<pdfrwt beam="1">  1       21 0.10013352E+00 0.24872490E+03</pdfrwt>
<pdfrwt beam="2">  1       -3 0.11859932E+00 0.24872490E+03</pdfrwt>
<totfact> 0.23917041E+01</totfact>
</mgrwt>
</event>
<event>
 5    0  0.4115852E+000  0.2604906E+03  0.7546771E-02  0.1106849E+00
          1   -1    0    0  502    0 -0.00000000000E+00  0.00000000000E+00  0.15014694990E+04  0.15014694990E+04  0.00000000000E+00 0.  1.
         21   -1    0    0  503  502  0.00000000000E+00 -0.00000000000E+00 -0.13534898164E+03  0.13534898164E+03  0.00000000000E+00 0.  1.
         25    1    1    2    0    0 -0.18984676751E+02 -0.21180950375E+03  0.12476442930E+04  0.12717959607E+04  0.12500000000E+03 0.  0.
         21    1    1    2  503  501  0.42726446974E+02  0.22598484923E+03 -0.13303520253E+02  0.23037292593E+03  0.00000000000E+00 0.  1.
          1    1    1    2  501    0 -0.23741770223E+02 -0.14175345481E+02  0.13177974463E+03  0.13464959401E+03  0.00000000000E+00 0.  1.
<mgrwt>
<rscale>  4 0.26049063E+03</rscale>
<asrwt>0</asrwt>
<pdfrwt beam="1">  1       21 0.20822921E-01 0.26049063E+03</pdfrwt>
<pdfrwt beam="2">  1        1 0.23099530E+00 0.26049063E+03</pdfrwt>
<totfact> 0.16793098E+03</totfact>
</mgrwt>
</event>
<event>
 5    0  0.4115852E+000  0.5285210E+03  0.7546771E-02  0.1006591E+00
         -1   -1    0    0    0  501 -0.00000000000E+00  0.00000000000E+00  0.32673880689E+03  0.32673880689E+03  0.00000000000E+00 0. -1.
         21   -1    0    0  501  502  0.00000000000E+00 -0.00000000000E+00 -0.11696447895E+04  0.11696447895E+04  0.00000000000E+00 0. -1.
         25    1    1    2    0    0 -0.15495329930E+03  0.52388265777E+03 -0.65317566624E+03  0.86065499188E+03  0.12500000000E+03 0.  0.
         21    1    1    2  503  502 -0.14330960821E+02 -0.52103877388E+02 -0.11748607608E+03  0.12931809057E+03  0.00000000000E+00 0.  1.
         -1    1    1    2    0  503  0.16928426012E+03 -0.47177878038E+03 -0.72244240252E+02  0.50641051390E+03  0.00000000000E+00 0. -1.
<mgrwt>
<rscale>  4 0.52852099E+03</rscale>
<asrwt>0</asrwt>
<pdfrwt beam="1">  1       21 0.17994536E+00 0.52852099E+03</pdfrwt>
<pdfrwt beam="2">  1       -1 0.50267508E-01 0.52852099E+03</pdfrwt>
<totfact> 0.57922468E+01</totfact>
</mgrwt>
</event>
<event>
 5    0  0.4115852E+000  0.3149921E+03  0.7546771E-02  0.1077977E+00
         21   -1    0    0  503  502  0.00000000000E+00  0.00000000000E+00  0.94758256357E+02  0.94758256357E+02  0.00000000000E+00 0.  1.
          2   -1    0    0  502    0 -0.00000000000E+00 -0.00000000000E+00 -0.15662882094E+04  0.15662882094E+04  0.00000000000E+00 0.  1.
         25    1    1    2    0    0 -0.25510041402E+03 -0.22351892358E+02 -0.45466423000E+03  0.53658213758E+03  0.12500000000E+03 0.  0.
         21    1    1    2  503  501 -0.41974474170E+02 -0.67340713872E+02 -0.22029646951E+02  0.82352495842E+02  0.00000000000E+00 0.  1.
          2    1    1    2  501    0  0.29707488819E+03  0.89692606230E+02 -0.99483607608E+03  0.10421118323E+04  0.00000000000E+00 0.  1.
<mgrwt>
<rscale>  4 0.31499213E+03</rscale>
<asrwt>0</asrwt>
<pdfrwt beam="1">  1       21 0.14578194E-01 0.31499213E+03</pdfrwt>
<pdfrwt beam="2">  1        2 0.24096741E+00 0.31499213E+03</pdfrwt>
<totfact> 0.64143254E+03</totfact>
</mgrwt>
</event>
<event>
 5    0  0.4115852E+000  0.2897029E+03  0.7546771E-02  0.1090504E+00
         21   -1    0    0  503  502  0.00000000000E+00  0.00000000000E+00  0.33756229557E+03  0.33756229557E+03  0.00000000000E+00 0.  1.
          1   -1    0    0  502    0 -0.00000000000E+00 -0.00000000000E+00 -0.47721986549E+03  0.47721986549E+03  0.00000000000E+00 0.  1.
         25    1    1    2    0    0 -0.30375825615E+03 -0.41168236085E+02  0.11513319536E+03  0.35049187511E+03  0.12500000000E+03 0.  0.
         21    1    1    2  503  501  0.60015940024E+02 -0.25517115019E+02  0.39615931236E+02  0.76305034064E+02  0.00000000000E+00 0.  1.
          1    1    1    2  501    0  0.24374231613E+03  0.66685351104E+02 -0.29440669653E+03  0.38798525189E+03  0.00000000000E+00 0.  1.
<mgrwt>
<rscale>  4 0.28970289E+03</rscale>
<asrwt>0</asrwt>
<pdfrwt beam="1">  1       21 0.51932661E-01 0.28970289E+03</pdfrwt>
<pdfrwt beam="2">  1        1 0.73418440E-01 0.28970289E+03</pdfrwt>
<totfact> 0.18015301E+03</totfact>
</mgrwt>
</event>
<event>
 5    0  0.4115852E+000  0.7166701E+03  0.7546771E-02  0.9689141E-01
          2   -1    0    0  502    0 -0.00000000000E+00  0.00000000000E+00  0.16624488399E+04  0.16624488399E+04  0.00000000000E+00 0. -1.
         21   -1    0    0  503  502  0.00000000000E+00 -0.00000000000E+00 -0.31620850271E+03  0.31620850271E+03  0.00000000000E+00 0. -1.
         25    1    1    2    0    0 -0.69905977223E+03 -0.15669889259E+00  0.59365733833E+03  0.92560176375E+03  0.12500000000E+03 0.  0.
         21    1    1    2  503  501 -0.12194054041E+02 -0.20546406242E+02  0.15084850800E+02  0.28256016830E+02  0.00000000000E+00 0. -1.
          2    1    1    2  501    0  0.71125382627E+03  0.20703105135E+02  0.73749814806E+03  0.10247995620E+04  0.00000000000E+00 0. -1.
<mgrwt>
<rscale>  4 0.71667007E+03</rscale>
<asrwt>0</asrwt>
<pdfrwt beam="1">  1       21 0.48647463E-01 0.71667007E+03</pdfrwt>
<pdfrwt beam="2">  1        2 0.25576135E+00 0.71667007E+03</pdfrwt>
<totfact> 0.48287655E+02</totfact>
</mgrwt>
</event>
<event>
 5    0  0.4342626E+000  0.2181313E+03  0.7546771E-02  0.1135284E+00
         21   -1    0    0  503  502  0.00000000000E+00  0.00000000000E+00  0.85286753014E+03  0.85286753014E+03  0.00000000000E+00 0.  1.
          1   -1    0    0  502    0 -0.00000000000E+00 -0.00000000000E+00 -0.13779510081E+04  0.13779510081E+04  0.00000000000E+00 0. -1.
         25    1    1    2    0    0 -0.23416213413E+03  0.33547830915E+02  0.79342615557E+03  0.83732157883E+03  0.12500000000E+03 0.  0.
         21    1    1    2  503  501  0.56069350594E+02 -0.24064217062E+02  0.19514346768E+01  0.61046430822E+02  0.00000000000E+00 0.  1.
          1    1    1    2  501    0  0.17809278354E+03 -0.94836138528E+01 -0.13204610682E+04  0.13324505286E+04  0.00000000000E+00 0. -1.
<mgrwt>
<rscale>  4 0.21813131E+03</rscale>
<asrwt>0</asrwt>
<pdfrwt beam="1">  1       21 0.13121039E+00 0.21813131E+03</pdfrwt>
<pdfrwt beam="2">  1        1 0.21199246E+00 0.21813131E+03</pdfrwt>
<totfact> 0.40282448E+01</totfact>
</mgrwt>
</event>
<event>
 5    0  0.4115852E+000  0.2917968E+03  0.7546771E-02  0.1089415E+00
          2   -1    0    0  502    0 -0.00000000000E+00  0.00000000000E+00  0.15528305314E+04  0.15528305314E+04  0.00000000000E+00 0. -1.
         21   -1    0    0  503  502  0.00000000000E+00 -0.00000000000E+00 -0.48277865615E+03  0.48277865615E+03  0.00000000000E+00 0. -1.
         25    1    1    2    0    0 -0.22605299682E+03  0.14761077041E+03  0.13734127141E+04  0.14052673696E+04  0.12500000000E+03 0.  0.
         21    1    1    2  503  501  0.19159650561E+03 -0.18105463899E+03 -0.42469257411E+03  0.49985376438E+03  0.00000000000E+00 0. -1.
          2    1    1    2  501    0  0.34456491214E+02  0.33443868585E+02  0.12133173526E+03  0.13048805353E+03  0.00000000000E+00 0. -1.
<mgrwt>
<rscale>  4 0.29179683E+03</rscale>
<asrwt>0</asrwt>
<pdfrwt beam="1">  1       21 0.74273640E-01 0.29179683E+03</pdfrwt>
<pdfrwt beam="2">  1        2 0.23889700E+00 0.29179683E+03</pdfrwt>
<totfact> 0.24992600E+02</totfact>
</mgrwt>
</event>
<event>
 5    0  0.4115852E+000  0.3360361E+03  0.7546771E-02  0.1068497E+00
         -2   -1    0    0    0  501 -0.00000000000E+00  0.00000000000E+00  0.41822094149E+03  0.41822094149E+03  0.00000000000E+00 0. -1.
         21   -1    0    0  501  502  0.00000000000E+00 -0.00000000000E+00 -0.19489786480E+04  0.19489786480E+04  0.00000000000E+00 0. -1.
         25    1    1    2    0    0  0.37147498621E+03  0.73198599677E+02  0.15781227971E+03  0.42881396433E+03  0.12500000000E+03 0.  0.
         21    1    1    2  503  502 -0.11988959607E+03 -0.81212744933E+02 -0.16803090103E+04  0.16865371017E+04  0.00000000000E+00 0. -1.
         -2    1    1    2    0  503 -0.25158539014E+03  0.80141452559E+01 -0.82609759017E+01  0.25184852348E+03  0.00000000000E+00 0. -1.
<mgrwt>
<rscale>  4 0.33603610E+03</rscale>
<asrwt>0</asrwt>
<pdfrwt beam="1">  1       21 0.29984287E+00 0.33603610E+03</pdfrwt>
<pdfrwt beam="2">  1       -2 0.64341684E-01 0.33603610E+03</pdfrwt>
<totfact> 0.55129682E+00</totfact>
</mgrwt>
</event>
<event>
 5    0  0.4115852E+000  0.3003449E+03  0.7546771E-02  0.1085068E+00
         21   -1    0    0  503  502  0.00000000000E+00  0.00000000000E+00  0.92850951804E+03  0.92850951804E+03  0.00000000000E+00 0. -1.
          1   -1    0    0  502    0 -0.00000000000E+00 -0.00000000000E+00 -0.10067826676E+03  0.10067826676E+03  0.00000000000E+00 0. -1.
         25    1    1    2    0    0 -0.26925274760E+03 -0.48881145127E+02  0.35906491237E+03  0.46844318731E+03  0.12500000000E+03 0.  0.
         21    1    1    2  503  501 -0.24421351423E+01  0.22254507364E+02  0.96761824989E+02  0.99318064305E+02  0.00000000000E+00 0.  1.
          1    1    1    2  501    0  0.27169488275E+03  0.26626637763E+02  0.37200451392E+03  0.46142653318E+03  0.00000000000E+00 0. -1.
<mgrwt>
<rscale>  4 0.30034494E+03</rscale>
<asrwt>0</asrwt>
<pdfrwt beam="1">  1       21 0.14284761E+00 0.30034494E+03</pdfrwt>
<pdfrwt beam="2">  1        1 0.15488965E-01 0.30034494E+03</pdfrwt>
<totfact> 0.12424699E+03</totfact>
</mgrwt>
</event>
<event>
 5    0  0.4115852E+000  0.2693774E+03  0.7546771E-02  0.1101636E+00
          2   -1    0    0  502    0 -0.00000000000E+00  0.00000000000E+00  0.36395795995E+03  0.36395795995E+03  0.00000000000E+00 0.  1.
         21   -1    0    0  503  502  0.00000000000E+00 -0.00000000000E+00 -0.37717280914E+03  0.37717280914E+03  0.00000000000E+00 0.  1.
         25    1    1    2    0    0  0.16355015803E+03 -0.23355112481E+03 -0.10192379063E+03  0.32757936624E+03  0.12500000000E+03 0.  0.
         21    1    1    2  503  501 -0.30228845978E+02  0.49640763084E+02 -0.10170987297E+03  0.11714472565E+03  0.00000000000E+00 0.  1.
          2    1    1    2  501    0 -0.13332131206E+03  0.18391036172E+03  0.19041881441E+03  0.29640667719E+03  0.00000000000E+00 0.  1.
<mgrwt>
<rscale>  4 0.26937742E+03</rscale>
<asrwt>0</asrwt>
<pdfrwt beam="1">  1       21 0.58026586E-01 0.26937742E+03</pdfrwt>
<pdfrwt beam="2">  1        2 0.55993533E-01 0.26937742E+03</pdfrwt>
<totfact> 0.29902233E+03</totfact>
</mgrwt>
</event>
<event>
 5    0  0.4115852E+000  0.2626713E+03  0.7546771E-02  0.1105549E+00
         21   -1    0    0  501  502  0.00000000000E+00  0.00000000000E+00  0.32167991757E+03  0.32167991757E+03  0.00000000000E+00 0. -1.
         -1   -1    0    0    0  501 -0.00000000000E+00 -0.00000000000E+00 -0.29390739162E+03  0.29390739162E+03  0.00000000000E+00 0. -1.
         25    1    1    2    0    0  0.50385089151E+02  0.24640795777E+03  0.37490838537E+02  0.28334802247E+03  0.12500000000E+03 0.  0.
         21    1    1    2  503  502  0.22752163313E+02 -0.36599138122E+02  0.81389592731E+02  0.92094645075E+02  0.00000000000E+00 0.  1.
         -1    1    1    2    0  503 -0.73137252464E+02 -0.20980881965E+03 -0.91107905320E+02  0.24014464165E+03  0.00000000000E+00 0. -1.
<mgrwt>
<rscale>  4 0.26267132E+03</rscale>
<asrwt>0</asrwt>
<pdfrwt beam="1">  1       21 0.49489218E-01 0.26267132E+03</pdfrwt>
<pdfrwt beam="2">  1       -1 0.45216522E-01 0.26267132E+03</pdfrwt>
<totfact> 0.17386196E+03</totfact>
</mgrwt>
</event>
<event>
 5    0  0.4115852E+000  0.2373639E+03  0.7546771E-02  0.1121561E+00
          2   -1    0    0  502    0 -0.00000000000E+00  0.00000000000E+00  0.15711396906E+04  0.15711396906E+04  0.00000000000E+00 0. -1.
         21   -1    0    0  503  502  0.00000000000E+00 -0.00000000000E+00 -0.71803281261E+02  0.71803281261E+02  0.00000000000E+00 0. -1.
         25    1    1    2    0    0 -0.18873102477E+03  0.11778052281E+03  0.22517136430E+03  0.34032160461E+03  0.12500000000E+03 0.  0.
         21    1    1    2  503  501  0.91015800796E+02 -0.39166617570E+02  0.22326571108E+03  0.24426517900E+03  0.00000000000E+00 0. -1.
          2    1    1    2  501    0  0.97715223975E+02 -0.78613905242E+02  0.10508993339E+04  0.10583561882E+04  0.00000000000E+00 0. -1.
<mgrwt>
<rscale>  4 0.23736387E+03</rscale>
<asrwt>0</asrwt>
<pdfrwt beam="1">  1       21 0.11046660E-01 0.23736387E+03</pdfrwt>
<pdfrwt beam="2">  1        2 0.24171377E+00 0.23736387E+03</pdfrwt>
<totfact> 0.10782270E+04</totfact>
</mgrwt>
</event>
<event>
 5    0  0.4115852E+000  0.2397785E+03  0.7546771E-02  0.1119940E+00
          2   -1    0    0  502    0 -0.00000000000E+00  0.00000000000E+00  0.79210530197E+03  0.79210530197E+03  0.00000000000E+00 0.  1.
         21   -1    0    0  503  502  0.00000000000E+00 -0.00000000000E+00 -0.68014948053E+03  0.68014948053E+03  0.00000000000E+00 0. -1.
         25    1    1    2    0    0  0.56930067636E+02 -0.21683201738E+03 -0.61278354473E+03  0.66436874479E+03  0.12500000000E+03 0.  0.
         21    1    1    2  503  501 -0.16542561297E+01  0.20255293161E+02 -0.24203616987E+02  0.31604248759E+02  0.00000000000E+00 0. -1.
          2    1    1    2  501    0 -0.55275811506E+02  0.19657672422E+03  0.74894298316E+03  0.77628178896E+03  0.00000000000E+00 0.  1.
<mgrwt>
<rscale>  4 0.23977850E+03</rscale>
<asrwt>0</asrwt>
<pdfrwt beam="1">  1       21 0.10463838E+00 0.23977850E+03</pdfrwt>
<pdfrwt beam="2">  1        2 0.12186235E+00 0.23977850E+03</pdfrwt>
<totfact> 0.32430852E+02</totfact>
</mgrwt>
</event>
<event>
 5    0  0.4115852E+000  0.2804682E+03  0.7546771E-02  0.1095433E+00
         21   -1    0    0  503  502  0.00000000000E+00  0.00000000000E+00  0.23955219950E+03  0.23955219950E+03  0.00000000000E+00 0.  1.
          2   -1    0    0  502    0 -0.00000000000E+00 -0.00000000000E+00 -0.10321076494E+04  0.10321076494E+04  0.00000000000E+00 0.  1.
         25    1    1    2    0    0  0.18858259714E+03  0.14771590948E+03 -0.25861031081E+03  0.37401561293E+03  0.12500000000E+03 0.  0.
         21    1    1    2  503  501 -0.13160501296E+02  0.39414299146E+02  0.15606515541E+03  0.16150237925E+03  0.00000000000E+00 0.  1.
          2    1    1    2  501    0 -0.17542209585E+03 -0.18713020863E+03 -0.69001029455E+03  0.73614185676E+03  0.00000000000E+00 0.  1.
<mgrwt>
<rscale>  4 0.28046820E+03</rscale>
<asrwt>0</asrwt>
<pdfrwt beam="1">  1       21 0.36854184E-01 0.28046820E+03</pdfrwt>
<pdfrwt beam="2">  1        2 0.15878579E+00 0.28046820E+03</pdfrwt>
<totfact> 0.21848329E+03</totfact>
</mgrwt>
</event>
<event>
 5    0  0.4115852E+000  0.2610893E+03  0.7546771E-02  0.1106491E+00
          2   -1    0    0  502    0 -0.00000000000E+00  0.00000000000E+00  0.27500622923E+04  0.27500622923E+04  0.00000000000E+00 0.  1.
         21   -1    0    0  503  502  0.00000000000E+00 -0.00000000000E+00 -0.34881775163E+02  0.34881775163E+02  0.00000000000E+00 0.  1.
         25    1    1    2    0    0  0.14075268717E+03  0.15793456424E+03  0.86857957344E+03  0.90266833385E+03  0.12500000000E+03 0.  0.
         21    1    1    2  503  501  0.49300690800E+01  0.29373489105E+02  0.11548916746E+02  0.31945029681E+02  0.00000000000E+00 0.  1.
          2    1    1    2  501    0 -0.14568275625E+03 -0.18730805335E+03  0.18350520270E+04  0.18503307039E+04  0.00000000000E+00 0.  1.
<mgrwt>
<rscale>  4 0.26108931E+03</rscale>
<asrwt>0</asrwt>
<pdfrwt beam="1">  1       21 0.53664291E-02 0.26108931E+03</pdfrwt>
<pdfrwt beam="2">  1        2 0.42308634E+00 0.26108931E+03</pdfrwt>
<totfact> 0.88326126E+03</totfact>
</mgrwt>
</event>
<event>
 5    0  0.4115852E+000  0.2807594E+03  0.7546771E-02  0.1095275E+00
          2   -1    0    0  502    0 -0.00000000000E+00  0.00000000000E+00  0.36078258620E+03  0.36078258620E+03  0.00000000000E+00 0. -1.
         21   -1    0    0  503  502  0.00000000000E+00 -0.00000000000E+00 -0.37987818396E+03  0.37987818396E+03  0.00000000000E+00 0. -1.
         25    1    1    2    0    0 -0.27003931602E+03  0.15661400339E+02 -0.15399162692E+03  0.33541754996E+03  0.12500000000E+03 0.  0.
         21    1    1    2  503  501  0.61704343303E+02 -0.12630782701E+03  0.17214971917E+02  0.14162432137E+03  0.00000000000E+00 0. -1.
          2    1    1    2  501    0  0.20833497271E+03  0.11064642667E+03  0.11768105725E+03  0.26361889884E+03  0.00000000000E+00 0. -1.
<mgrwt>
<rscale>  4 0.28075936E+03</rscale>
<asrwt>0</asrwt>
<pdfrwt beam="1">  1       21 0.58442798E-01 0.28075936E+03</pdfrwt>
<pdfrwt beam="2">  1        2 0.55505013E-01 0.28075936E+03</pdfrwt>
<totfact> 0.29632607E+03</totfact>
</mgrwt>
</event>
<event>
 5    0  0.4115852E+000  0.2634953E+03  0.7546771E-02  0.1105061E+00
          1   -1    0    0  502    0 -0.00000000000E+00  0.00000000000E+00  0.20475889722E+03  0.20475889722E+03  0.00000000000E+00 0. -1.
         21   -1    0    0  503  502  0.00000000000E+00 -0.00000000000E+00 -0.62947773251E+03  0.62947773251E+03  0.00000000000E+00 0. -1.
         25    1    1    2    0    0  0.24719234590E+03 -0.18523368437E+01 -0.17759253062E+03  0.32904649209E+03  0.12500000000E+03 0.  0.
         21    1    1    2  503  501 -0.21316332329E+02 -0.58686377751E+01 -0.27641011671E+03  0.27729294898E+03  0.00000000000E+00 0. -1.
          1    1    1    2  501    0 -0.22587601357E+03  0.77209746188E+01  0.29283812042E+02  0.22789718867E+03  0.00000000000E+00 0. -1.
<mgrwt>
<rscale>  4 0.26349526E+03</rscale>
<asrwt>0</asrwt>
<pdfrwt beam="1">  1       21 0.96842725E-01 0.26349526E+03</pdfrwt>
<pdfrwt beam="2">  1        1 0.31501370E-01 0.26349526E+03</pdfrwt>
<totfact> 0.13282979E+03</totfact>
</mgrwt>
</event>
<event>
 5    0  0.4115852E+000  0.3352925E+03  0.7546771E-02  0.1068819E+00
         -1   -1    0    0    0  501 -0.00000000000E+00  0.00000000000E+00  0.11508239316E+04  0.11508239316E+04  0.00000000000E+00 0.  1.
         21   -1    0    0  501  502  0.00000000000E+00 -0.00000000000E+00 -0.13917924990E+03  0.13917924990E+03  0.00000000000E+00 0.  1.
         25    1    1    2    0    0 -0.26997685511E+03 -0.17794916370E+03  0.42822374156E+03  0.55095733047E+03  0.12500000000E+03 0.  0.
         21    1    1    2  503  502  0.27328044997E+02 -0.57477175363E+01 -0.37966958744E+02  0.47131181361E+02  0.00000000000E+00 0.  1.
         -1    1    1    2    0  503  0.24264881012E+03  0.18369688124E+03  0.62138789885E+03  0.69191466964E+03  0.00000000000E+00 0.  1.
<mgrwt>
<rscale>  4 0.33529246E+03</rscale>
<asrwt>0</asrwt>
<pdfrwt beam="1">  1       21 0.21412193E-01 0.33529246E+03</pdfrwt>
<pdfrwt beam="2">  1       -1 0.17704983E+00 0.33529246E+03</pdfrwt>
<totfact> 0.43857812E+02</totfact>
</mgrwt>
</event>
<event>
 5    0  0.4115852E+000  0.2239736E+03  0.7546771E-02  0.1130955E+00
         21   -1    0    0  503  502  0.00000000000E+00  0.00000000000E+00  0.17505168938E+03  0.17505168938E+03  0.00000000000E+00 0.  1.
          2   -1    0    0  502    0 -0.00000000000E+00 -0.00000000000E+00 -0.40311044562E+03  0.40311044562E+03  0.00000000000E+00 0.  1.
         25    1    1    2    0    0 -0.13778640959E+03  0.17602722482E+03 -0.19666514810E+03  0.32291308276E+03  0.12500000000E+03 0.  0.
         21    1    1    2  503  501  0.69939827356E+02 -0.16076150290E+03  0.76733044441E+01  0.17548424392E+03  0.00000000000E+00 0.  1.
          2    1    1    2  501    0  0.67846582234E+02 -0.15265721920E+02 -0.39066912585E+02  0.79764808315E+02  0.00000000000E+00 0.  1.
<mgrwt>
<rscale>  4 0.22397362E+03</rscale>
<asrwt>0</asrwt>
<pdfrwt beam="1">  1       21 0.26931029E-01 0.22397362E+03</pdfrwt>
<pdfrwt beam="2">  1        2 0.62016991E-01 0.22397362E+03</pdfrwt>
<totfact> 0.12883326E+04</totfact>
</mgrwt>
</event>
<event>
 5    0  0.4115852E+000  0.2206317E+03  0.7546771E-02  0.1133413E+00
         21   -1    0    0  501  502  0.00000000000E+00  0.00000000000E+00  0.15674194838E+03  0.15674194838E+03  0.00000000000E+00 0. -1.
         -3   -1    0    0    0  501 -0.00000000000E+00 -0.00000000000E+00 -0.76031363324E+03  0.76031363324E+03  0.00000000000E+00 0.  1.
         25    1    1    2    0    0  0.20666788884E+03  0.74442574705E+02 -0.43147775263E+02  0.25639821317E+03  0.12500000000E+03 0.  0.
         21    1    1    2  503  502 -0.59936373013E+02  0.25896989283E+02  0.73530448880E+01  0.65704567064E+02  0.00000000000E+00 0.  1.
         -3    1    1    2    0  503 -0.14673151583E+03 -0.10033956399E+03 -0.56777695448E+03  0.59495280139E+03  0.00000000000E+00 0.  1.
<mgrwt>
<rscale>  4 0.22063168E+03</rscale>
<asrwt>0</asrwt>
<pdfrwt beam="1">  1       21 0.24114146E-01 0.22063168E+03</pdfrwt>
<pdfrwt beam="2">  1       -3 0.11697133E+00 0.22063168E+03</pdfrwt>
<totfact> 0.50173963E+02</totfact>
</mgrwt>
</event>
<event>
 5    0  0.4115852E+000  0.2589198E+03  0.7546771E-02  0.1107794E+00
         21   -1    0    0  503  502  0.00000000000E+00  0.00000000000E+00  0.48944381372E+02  0.48944381372E+02  0.00000000000E+00 0. -1.
          2   -1    0    0  502    0 -0.00000000000E+00 -0.00000000000E+00 -0.17356792827E+04  0.17356792827E+04  0.00000000000E+00 0. -1.
         25    1    1    2    0    0  0.23168589677E+03  0.90330547674E+02 -0.66995486045E+03  0.72546707550E+03  0.12500000000E+03 0.  0.
         21    1    1    2  503  501 -0.50702489405E+02  0.32061912625E+02 -0.99237385463E+02  0.11596019725E+03  0.00000000000E+00 0.  1.
          2    1    1    2  501    0 -0.18098340736E+03 -0.12239246030E+03 -0.91754265542E+03  0.94319639132E+03  0.00000000000E+00 0. -1.
<mgrwt>
<rscale>  4 0.25891981E+03</rscale>
<asrwt>0</asrwt>
<pdfrwt beam="1">  1       21 0.75299046E-02 0.25891981E+03</pdfrwt>
<pdfrwt beam="2">  1        2 0.26702759E+00 0.25891981E+03</pdfrwt>
<totfact> 0.17266521E+04</totfact>
</mgrwt>
</event>
<event>
 5    0  0.4115852E+000  0.2475999E+03  0.7546771E-02  0.1114831E+00
         -1   -1    0    0    0  501 -0.00000000000E+00  0.00000000000E+00  0.23662102292E+04  0.23662102292E+04  0.00000000000E+00 0.  1.
         21   -1    0    0  501  502  0.00000000000E+00 -0.00000000000E+00 -0.16825233135E+03  0.16825233135E+03  0.00000000000E+00 0. -1.
         25    1    1    2    0    0 -0.42812103102E+02  0.23944967236E+03 -0.37250887548E+02  0.27601023602E+03  0.12500000000E+03 0.  0.
         21    1    1    2  503  502  0.33994239108E+01 -0.30365756845E+02  0.29389716836E+02  0.42395645147E+02  0.00000000000E+00 0.  1.
         -1    1    1    2    0  503  0.39412679191E+02 -0.20908391552E+03  0.22058190686E+04  0.22160566794E+04  0.00000000000E+00 0.  1.
<mgrwt>
<rscale>  4 0.24759989E+03</rscale>
<asrwt>0</asrwt>
<pdfrwt beam="1">  1       21 0.25884976E-01 0.24759989E+03</pdfrwt>
<pdfrwt beam="2">  1       -1 0.36403232E+00 0.24759989E+03</pdfrwt>
<totfact> 0.19976954E+01</totfact>
</mgrwt>
</event>
<event>
 5    0  0.4115852E+000  0.2624216E+03  0.7546771E-02  0.1105697E+00
         21   -1    0    0  501  502  0.00000000000E+00  0.00000000000E+00  0.28541980755E+03  0.28541980755E+03  0.00000000000E+00 0. -1.
         -2   -1    0    0    0  501 -0.00000000000E+00 -0.00000000000E+00 -0.11166354766E+04  0.11166354766E+04  0.00000000000E+00 0.  1.
         25    1    1    2    0    0 -0.22139704927E+03 -0.71504110186E+02  0.70302769865E+02  0.27330746542E+03  0.12500000000E+03 0.  0.
         21    1    1    2  503  502  0.10231662417E+02 -0.21345891914E+02  0.99098021995E+02  0.10188597539E+03  0.00000000000E+00 0. -1.
         -2    1    1    2    0  503  0.21116538686E+03  0.92850002100E+02 -0.10006164610E+04  0.10268618434E+04  0.00000000000E+00 0.  1.
<mgrwt>
<rscale>  4 0.26242163E+03</rscale>
<asrwt>0</asrwt>
<pdfrwt beam="1">  1       21 0.43910739E-01 0.26242163E+03</pdfrwt>
<pdfrwt beam="2">  1       -2 0.17179008E+00 0.26242163E+03</pdfrwt>
<totfact> 0.88219123E+01</totfact>
</mgrwt>
</event>
<event>
 5    0  0.4115852E+000  0.2491091E+03  0.7546771E-02  0.1113869E+00
          2   -1    0    0  502    0 -0.00000000000E+00  0.00000000000E+00  0.27974353435E+04  0.27974353435E+04  0.00000000000E+00 0.  1.
         21   -1    0    0  503  502  0.00000000000E+00 -0.00000000000E+00 -0.51154210280E+02  0.51154210280E+02  0.00000000000E+00 0. -1.
         25    1    1    2    0    0  0.14963270603E+03  0.15434573776E+03  0.30022140687E+03  0.38983387054E+03  0.12500000000E+03 0.  0.
         21    1    1    2  503  501  0.21389830994E+02 -0.15660326444E+02  0.16789128122E+03  0.16997132995E+03  0.00000000000E+00 0.  1.
          2    1    1    2  501    0 -0.17102253703E+03 -0.13868541132E+03  0.22781684451E+04  0.22887843533E+04  0.00000000000E+00 0.  1.
<mgrwt>
<rscale>  4 0.24910913E+03</rscale>
<asrwt>0</asrwt>
<pdfrwt beam="1">  1       21 0.78698807E-02 0.24910913E+03</pdfrwt>
<pdfrwt beam="2">  1        2 0.43037455E+00 0.24910913E+03</pdfrwt>
<totfact> 0.43017898E+03</totfact>
</mgrwt>
</event>
<event>
 5    0  0.4115852E+000  0.3082107E+03  0.7546771E-02  0.1081207E+00
         21   -1    0    0  503  502  0.00000000000E+00  0.00000000000E+00  0.16957378634E+04  0.16957378634E+04  0.00000000000E+00 0.  1.
          2   -1    0    0  502    0 -0.00000000000E+00 -0.00000000000E+00 -0.60145751875E+03  0.60145751875E+03  0.00000000000E+00 0. -1.
         25    1    1    2    0    0 -0.26195917804E+03  0.18387267505E+03  0.78857760682E+02  0.35252704578E+03  0.12500000000E+03 0.  0.
         21    1    1    2  503  501  0.43740713916E+02 -0.17261258368E+02  0.14390688166E+04  0.14398368866E+04  0.00000000000E+00 0.  1.
          2    1    1    2  501    0  0.21821846413E+03 -0.16661141668E+03 -0.42364623263E+03  0.50483144977E+03  0.00000000000E+00 0. -1.
<mgrwt>
<rscale>  4 0.30821066E+03</rscale>
<asrwt>0</asrwt>
<pdfrwt beam="1">  1       21 0.26088275E+00 0.30821066E+03</pdfrwt>
<pdfrwt beam="2">  1        2 0.92531927E-01 0.30821066E+03</pdfrwt>
<totfact> 0.32450545E+01</totfact>
</mgrwt>
</event>
<event>
 5    0  0.4115852E+000  0.2791499E+03  0.7546771E-02  0.1096154E+00
          2   -1    0    0  502    0 -0.00000000000E+00  0.00000000000E+00  0.73588360131E+03  0.73588360131E+03  0.00000000000E+00 0. -1.
         21   -1    0    0  503  502  0.00000000000E+00 -0.00000000000E+00 -0.44009118067E+03  0.44009118067E+03  0.00000000000E+00 0.  1.
         25    1    1    2    0    0 -0.23896310535E+03  0.69087903529E+02 -0.34577875751E+03  0.44391942206E+03  0.12500000000E+03 0.  0.
         21    1    1    2  503  501 -0.70492390494E+01 -0.26162245703E+02 -0.14022425208E+02  0.30508741045E+02  0.00000000000E+00 0.  1.
          2    1    1    2  501    0  0.24601234440E+03 -0.42925657826E+02  0.65559360336E+03  0.70154661888E+03  0.00000000000E+00 0. -1.
<mgrwt>
<rscale>  4 0.27914994E+03</rscale>
<asrwt>0</asrwt>
<pdfrwt beam="1">  1       21 0.67706335E-01 0.27914994E+03</pdfrwt>
<pdfrwt beam="2">  1        2 0.11321286E+00 0.27914994E+03</pdfrwt>
<totfact> 0.95178892E+02</totfact>
</mgrwt>
</event>
<event>
 5    0  0.4115852E+000  0.2833011E+03  0.7546771E-02  0.1093900E+00
          1   -1    0    0  502    0 -0.00000000000E+00  0.00000000000E+00  0.48460978232E+03  0.48460978232E+03  0.00000000000E+00 0.  1.
         21   -1    0    0  503  502  0.00000000000E+00 -0.00000000000E+00 -0.32347949266E+03  0.32347949266E+03  0.00000000000E+00 0.  1.
         25    1    1    2    0    0 -0.22569720117E+03 -0.55470158083E+01 -0.90112745290E+02  0.27334100106E+03  0.12500000000E+03 0.  0.
         21    1    1    2  503  501 -0.32941731168E+02 -0.32950249775E+02 -0.92072952414E+02  0.10319062544E+03  0.00000000000E+00 0.  1.
          1    1    1    2  501    0  0.25863893233E+03  0.38497265584E+02  0.34331598736E+03  0.43155764847E+03  0.00000000000E+00 0.  1.
<mgrwt>
<rscale>  4 0.28330105E+03</rscale>
<asrwt>0</asrwt>
<pdfrwt beam="1">  1       21 0.49766076E-01 0.28330105E+03</pdfrwt>
<pdfrwt beam="2">  1        1 0.74555351E-01 0.28330105E+03</pdfrwt>
<totfact> 0.19350611E+03</totfact>
</mgrwt>
</event>
<event>
 5    0  0.4115852E+000  0.1933953E+03  0.7546771E-02  0.1155434E+00
          1   -1    0    0  502    0 -0.00000000000E+00  0.00000000000E+00  0.21672974963E+04  0.21672974963E+04  0.00000000000E+00 0.  1.
         21   -1    0    0  503  502  0.00000000000E+00 -0.00000000000E+00 -0.44866655539E+02  0.44866655539E+02  0.00000000000E+00 0. -1.
         25    1    1    2    0    0 -0.99978490043E+02 -0.17441454071E+03  0.35166325310E+03  0.42392000904E+03  0.12500000000E+03 0.  0.
         21    1    1    2  503  501  0.51614378713E+02  0.39794522848E+02  0.18703987462E+03  0.19806959090E+03  0.00000000000E+00 0.  1.
          1    1    1    2  501    0  0.48364111330E+02  0.13462001787E+03  0.15837277131E+04  0.15901745519E+04  0.00000000000E+00 0.  1.
<mgrwt>
<rscale>  4 0.19339527E+03</rscale>
<asrwt>0</asrwt>
<pdfrwt beam="1">  1       21 0.69025641E-02 0.19339527E+03</pdfrwt>
<pdfrwt beam="2">  1        1 0.33343030E+00 0.19339527E+03</pdfrwt>
<totfact> 0.46683180E+03</totfact>
</mgrwt>
</event>
<event>
 5    0  0.4115852E+000  0.2119587E+03  0.7546771E-02  0.1140024E+00
         21   -1    0    0  501  502  0.00000000000E+00  0.00000000000E+00  0.13696124776E+03  0.13696124776E+03  0.00000000000E+00 0. -1.
         -2   -1    0    0    0  501 -0.00000000000E+00 -0.00000000000E+00 -0.73960711581E+03  0.73960711581E+03  0.00000000000E+00 0.  1.
         25    1    1    2    0    0 -0.11279878678E+03  0.22566778467E+03 -0.36184454890E+03  0.45848227109E+03  0.12500000000E+03 0.  0.
         21    1    1    2  503  502  0.56774202726E+02 -0.95426871646E+02  0.27708111501E+02  0.11444359908E+03  0.00000000000E+00 0. -1.
         -2    1    1    2    0  503  0.56024584055E+02 -0.13024091303E+03 -0.26850943065E+03  0.30364249339E+03  0.00000000000E+00 0.  1.
<mgrwt>
<rscale>  4 0.21195867E+03</rscale>
<asrwt>0</asrwt>
<pdfrwt beam="1">  1       21 0.21070961E-01 0.21195867E+03</pdfrwt>
<pdfrwt beam="2">  1       -2 0.11378571E+00 0.21195867E+03</pdfrwt>
<totfact> 0.10820326E+03</totfact>
</mgrwt>
</event>
<event>
 5    0  0.4115852E+000  0.3470084E+03  0.7546771E-02  0.1063850E+00
         21   -1    0    0  503  502  0.00000000000E+00  0.00000000000E+00  0.55738768112E+03  0.55738768112E+03  0.00000000000E+00 0. -1.
          1   -1    0    0  502    0 -0.00000000000E+00 -0.00000000000E+00 -0.23096563590E+04  0.23096563590E+04  0.00000000000E+00 0.  1.
         25    1    1    2    0    0  0.18580739810E+03 -0.24274776874E+03  0.11182671925E+02  0.33045562571E+03  0.12500000000E+03 0.  0.
         21    1    1    2  503  501 -0.36826485851E+02 -0.46473435500E+02  0.37189902783E+03  0.37659641152E+03  0.00000000000E+00 0. -1.
          1    1    1    2  501    0 -0.14898091225E+03  0.28922120424E+03 -0.21353503777E+04  0.21599920029E+04  0.00000000000E+00 0.  1.
<mgrwt>
<rscale>  4 0.34700839E+03</rscale>
<asrwt>0</asrwt>
<pdfrwt beam="1">  1       21 0.85751951E-01 0.34700839E+03</pdfrwt>
<pdfrwt beam="2">  1        1 0.35533175E+00 0.34700839E+03</pdfrwt>
<totfact> 0.25169001E+01</totfact>
</mgrwt>
</event>
<event>
 5    0  0.4115852E+000  0.3433735E+03  0.7546771E-02  0.1065368E+00
          2   -1    0    0  502    0 -0.00000000000E+00  0.00000000000E+00  0.20817025463E+04  0.20817025463E+04  0.00000000000E+00 0. -1.
         21   -1    0    0  503  502  0.00000000000E+00 -0.00000000000E+00 -0.10136962216E+03  0.10136962216E+03  0.00000000000E+00 0.  1.
         25    1    1    2    0    0  0.15095176519E+03  0.28237315879E+03  0.45670455239E+03  0.57159870923E+03  0.12500000000E+03 0.  0.
         21    1    1    2  503  501  0.95502676030E+02 -0.70494844412E+02  0.11300123735E+03  0.16388887656E+03  0.00000000000E+00 0.  1.
          2    1    1    2  501    0 -0.24645444122E+03 -0.21187831437E+03  0.14106271344E+04  0.14475845826E+04  0.00000000000E+00 0. -1.
<mgrwt>
<rscale>  4 0.34337349E+03</rscale>
<asrwt>0</asrwt>
<pdfrwt beam="1">  1       21 0.15595328E-01 0.34337349E+03</pdfrwt>
<pdfrwt beam="2">  1        2 0.32026190E+00 0.34337349E+03</pdfrwt>
<totfact> 0.29901543E+03</totfact>
</mgrwt>
</event>
<event>
 5    0  0.4115852E+000  0.2217574E+03  0.7546771E-02  0.1132580E+00
          1   -1    0    0  502    0 -0.00000000000E+00  0.00000000000E+00  0.21839276484E+03  0.21839276484E+03  0.00000000000E+00 0.  1.
         21   -1    0    0  503  502  0.00000000000E+00 -0.00000000000E+00 -0.54458422583E+03  0.54458422583E+03  0.00000000000E+00 0.  1.
         25    1    1    2    0    0  0.19175763896E+03  0.59931690157E+02 -0.43612977119E+02  0.24060318235E+03  0.12500000000E+03 0.  0.
         21    1    1    2  503  501 -0.27802090382E+02  0.19393183785E+01 -0.33756109734E+03  0.33870962729E+03  0.00000000000E+00 0.  1.
          1    1    1    2  501    0 -0.16395554858E+03 -0.61871008535E+02  0.54982613465E+02  0.18366418102E+03  0.00000000000E+00 0.  1.
<mgrwt>
<rscale>  4 0.22175737E+03</rscale>
<asrwt>0</asrwt>
<pdfrwt beam="1">  1       21 0.83782187E-01 0.22175737E+03</pdfrwt>
<pdfrwt beam="2">  1        1 0.33598887E-01 0.22175737E+03</pdfrwt>
<totfact> 0.17430548E+03</totfact>
</mgrwt>
</event>
<event>
 5    0  0.4115852E+000  0.3756211E+03  0.7546771E-02  0.1052564E+00
          2   -1    0    0  502    0 -0.00000000000E+00  0.00000000000E+00  0.31095445529E+04  0.31095445529E+04  0.00000000000E+00 0.  1.
         21   -1    0    0  503  502  0.00000000000E+00 -0.00000000000E+00 -0.26013828982E+03  0.26013828982E+03  0.00000000000E+00 0. -1.
         25    1    1    2    0    0  0.19116028240E+03 -0.28255356376E+03  0.65334877262E+02  0.36915093952E+03  0.12500000000E+03 0.  0.
         21    1    1    2  503  501  0.88223115217E+02  0.61508766630E+02 -0.67379909746E+02  0.12691216911E+03  0.00000000000E+00 0. -1.
          2    1    1    2  501    0 -0.27938339761E+03  0.22104479713E+03  0.28514512956E+04  0.28736197341E+04  0.00000000000E+00 0.  1.
<mgrwt>
<rscale>  4 0.37562111E+03</rscale>
<asrwt>0</asrwt>
<pdfrwt beam="1">  1       21 0.40021278E-01 0.37562111E+03</pdfrwt>
<pdfrwt beam="2">  1        2 0.47839144E+00 0.37562111E+03</pdfrwt>
<totfact> 0.12442532E+02</totfact>
</mgrwt>
</event>
<event>
 5    0  0.4115852E+000  0.3334550E+03  0.7546771E-02  0.1069618E+00
         21   -1    0    0  503  502  0.00000000000E+00  0.00000000000E+00  0.42504711343E+03  0.42504711343E+03  0.00000000000E+00 0. -1.
          1   -1    0    0  502    0 -0.00000000000E+00 -0.00000000000E+00 -0.48284378336E+03  0.48284378336E+03  0.00000000000E+00 0.  1.
         25    1    1    2    0    0  0.10411729652E+03  0.26713947034E+03  0.22816949587E+03  0.38715659222E+03  0.12500000000E+03 0.  0.
         21    1    1    2  503  501 -0.48807087526E+01  0.30443183072E+02  0.51477756736E+02  0.60004734414E+02  0.00000000000E+00 0.  1.
          1    1    1    2  501    0 -0.99236587767E+02 -0.29758265341E+03 -0.33744392254E+03  0.46072957016E+03  0.00000000000E+00 0.  1.
<mgrwt>
<rscale>  4 0.33345497E+03</rscale>
<asrwt>0</asrwt>
<pdfrwt beam="1">  1       21 0.65391863E-01 0.33345497E+03</pdfrwt>
<pdfrwt beam="2">  1        1 0.74283659E-01 0.33345497E+03</pdfrwt>
<totfact> 0.10633831E+03</totfact>
</mgrwt>
</event>
<event>
 5    0  0.4115852E+000  0.5090931E+03  0.7546771E-02  0.1011432E+00
         21   -1    0    0  503  502  0.00000000000E+00  0.00000000000E+00  0.10655433457E+04  0.10655433457E+04  0.00000000000E+00 0.  1.
          2   -1    0    0  502    0 -0.00000000000E+00 -0.00000000000E+00 -0.38180356863E+03  0.38180356863E+03  0.00000000000E+00 0.  1.
         25    1    1    2    0    0 -0.44284474889E+03 -0.25322057310E+03  0.54144578905E+03  0.75433458939E+03  0.12500000000E+03 0.  0.
         21    1    1    2  503  501  0.21929440892E+02  0.63750529860E+01  0.20031943333E+03  0.20161700585E+03  0.00000000000E+00 0. -1.
          2    1    1    2  501    0  0.42091530800E+03  0.24684552011E+03 -0.58025445322E+02  0.49139531908E+03  0.00000000000E+00 0.  1.
<mgrwt>
<rscale>  4 0.50909305E+03</rscale>
<asrwt>0</asrwt>
<pdfrwt beam="1">  1       21 0.16392974E+00 0.50909305E+03</pdfrwt>
<pdfrwt beam="2">  1        2 0.58739011E-01 0.50909305E+03</pdfrwt>
<totfact> 0.21297934E+02</totfact>
</mgrwt>
</event>
<event>
 5    0  0.4115852E+000  0.2879054E+03  0.7546771E-02  0.1091448E+00
         21   -1    0    0  503  502  0.00000000000E+00  0.00000000000E+00  0.33499491857E+03  0.33499491857E+03  0.00000000000E+00 0.  1.
          2   -1    0    0  502    0 -0.00000000000E+00 -0.00000000000E+00 -0.34490449713E+03  0.34490449713E+03  0.00000000000E+00 0.  1.
         25    1    1    2    0    0  0.20426926636E+03 -0.12044511697E+03  0.17757455606E+03  0.32154421522E+03  0.12500000000E+03 0.  0.
         21    1    1    2  503  501  0.15105177833E+02 -0.29252051007E+02  0.58264761283E+00  0.32927015713E+02  0.00000000000E+00 0.  1.
          2    1    1    2  501    0 -0.21937444419E+03  0.14969716798E+03 -0.18806678223E+03  0.32542818477E+03  0.00000000000E+00 0.  1.
<mgrwt>
<rscale>  4 0.28790538E+03</rscale>
<asrwt>0</asrwt>
<pdfrwt beam="1">  1       21 0.51537680E-01 0.28790538E+03</pdfrwt>
<pdfrwt beam="2">  1        2 0.53062230E-01 0.28790538E+03</pdfrwt>
<totfact> 0.40633499E+03</totfact>
</mgrwt>
</event>
<event>
 5    0  0.4115852E+000  0.3111576E+03  0.7546771E-02  0.1079792E+00
         21   -1    0    0  503  502  0.00000000000E+00  0.00000000000E+00  0.46443368685E+03  0.46443368685E+03  0.00000000000E+00 0. -1.
          2   -1    0    0  502    0 -0.00000000000E+00 -0.00000000000E+00 -0.15024224373E+04  0.15024224373E+04  0.00000000000E+00 0. -1.
         25    1    1    2    0    0  0.21892002443E+03 -0.65434640026E+02 -0.65354685858E+03  0.70353121152E+03  0.12500000000E+03 0.  0.
         21    1    1    2  503  501  0.15462914316E+03 -0.57990173974E+02  0.37404545873E+03  0.40888022377E+03  0.00000000000E+00 0. -1.
          2    1    1    2  501    0 -0.37354916760E+03  0.12342481400E+03 -0.75848735063E+03  0.85444468890E+03  0.00000000000E+00 0. -1.
<mgrwt>
<rscale>  4 0.31115756E+03</rscale>
<asrwt>0</asrwt>
<pdfrwt beam="1">  1       21 0.71451336E-01 0.31115756E+03</pdfrwt>
<pdfrwt beam="2">  1        2 0.23114192E+00 0.31115756E+03</pdfrwt>
<totfact> 0.28725855E+02</totfact>
</mgrwt>
</event>
<event>
 5    0  0.4115852E+000  0.2298404E+03  0.7546771E-02  0.1126752E+00
          2   -1    0    0  502    0 -0.00000000000E+00  0.00000000000E+00  0.86146651881E+03  0.86146651881E+03  0.00000000000E+00 0. -1.
         21   -1    0    0  503  502  0.00000000000E+00 -0.00000000000E+00 -0.37539129324E+03  0.37539129324E+03  0.00000000000E+00 0. -1.
         25    1    1    2    0    0  0.19308267782E+03  0.10251376080E+03  0.63087635655E+02  0.25960554963E+03  0.12500000000E+03 0.  0.
         21    1    1    2  503  501 -0.24510854505E+02 -0.15910013033E+02 -0.26348460528E+03  0.26510007115E+03  0.00000000000E+00 0. -1.
          2    1    1    2  501    0 -0.16857182331E+03 -0.86603747766E+02  0.68647219521E+03  0.71215219127E+03  0.00000000000E+00 0. -1.
<mgrwt>
<rscale>  4 0.22984042E+03</rscale>
<asrwt>0</asrwt>
<pdfrwt beam="1">  1       21 0.57752507E-01 0.22984042E+03</pdfrwt>
<pdfrwt beam="2">  1        2 0.13253331E+00 0.22984042E+03</pdfrwt>
<totfact> 0.11251418E+03</totfact>
</mgrwt>
</event>
<event>
 5    0  0.4115852E+000  0.2684397E+03  0.7546771E-02  0.1102176E+00
          2   -1    0    0  502    0 -0.00000000000E+00  0.00000000000E+00  0.76826058117E+03  0.76826058117E+03  0.00000000000E+00 0. -1.
         21   -1    0    0  503  502  0.00000000000E+00 -0.00000000000E+00 -0.44252431704E+03  0.44252431704E+03  0.00000000000E+00 0.  1.
         25    1    1    2    0    0  0.15758565753E+03  0.13716916064E+03  0.15338981559E+03  0.28775345979E+03  0.12500000000E+03 0.  0.
         21    1    1    2  503  501  0.52735816735E+02 -0.11395695895E+01 -0.34459212431E+03  0.34860593386E+03  0.00000000000E+00 0.  1.
          2    1    1    2  501    0 -0.21032147427E+03 -0.13602959105E+03  0.51693857286E+03  0.57442550456E+03  0.00000000000E+00 0. -1.
<mgrwt>
<rscale>  4 0.26843974E+03</rscale>
<asrwt>0</asrwt>
<pdfrwt beam="1">  1       21 0.68080664E-01 0.26843974E+03</pdfrwt>
<pdfrwt beam="2">  1        2 0.11819394E+00 0.26843974E+03</pdfrwt>
<totfact> 0.89497535E+02</totfact>
</mgrwt>
</event>
<event>
 5    0  0.4115852E+000  0.1950678E+03  0.7546771E-02  0.1153968E+00
         21   -1    0    0  503  502  0.00000000000E+00  0.00000000000E+00  0.59537468509E+02  0.59537468509E+02  0.00000000000E+00 0. -1.
          2   -1    0    0  502    0 -0.00000000000E+00 -0.00000000000E+00 -0.22454916047E+04  0.22454916047E+04  0.00000000000E+00 0.  1.
         25    1    1    2    0    0  0.18584761508E+03 -0.97022499848E+02 -0.39286372498E+03  0.46251444076E+03  0.12500000000E+03 0.  0.
         21    1    1    2  503  501 -0.95119128461E+02 -0.17162571965E+02 -0.86515907415E+02  0.12971971597E+03  0.00000000000E+00 0. -1.
          2    1    1    2  501    0 -0.90728486615E+02  0.11418507181E+03 -0.17065745038E+04  0.17127949164E+04  0.00000000000E+00 0.  1.
<mgrwt>
<rscale>  4 0.19506777E+03</rscale>
<asrwt>0</asrwt>
<pdfrwt beam="1">  1       21 0.91596096E-02 0.19506777E+03</pdfrwt>
<pdfrwt beam="2">  1        2 0.34546028E+00 0.19506777E+03</pdfrwt>
<totfact> 0.67833191E+03</totfact>
</mgrwt>
</event>
<event>
 5    0  0.4115852E+000  0.2411064E+03  0.7546771E-02  0.1119058E+00
          2   -1    0    0  502    0 -0.00000000000E+00  0.00000000000E+00  0.10136797883E+04  0.10136797883E+04  0.00000000000E+00 0.  1.
         21   -1    0    0  503  502  0.00000000000E+00 -0.00000000000E+00 -0.10368059512E+03  0.10368059512E+03  0.00000000000E+00 0. -1.
         25    1    1    2    0    0  0.74616007654E+02  0.20890610964E+03  0.11967487616E+03  0.28134744930E+03  0.12500000000E+03 0.  0.
         21    1    1    2  503  501 -0.83647852785E+02 -0.41238751219E+02  0.17634064605E+03  0.19948338609E+03  0.00000000000E+00 0.  1.
          2    1    1    2  501    0  0.90318451304E+01 -0.16766735842E+03  0.61398367099E+03  0.63652954806E+03  0.00000000000E+00 0.  1.
<mgrwt>
<rscale>  4 0.24110637E+03</rscale>
<asrwt>0</asrwt>
<pdfrwt beam="1">  1       21 0.15950861E-01 0.24110637E+03</pdfrwt>
<pdfrwt beam="2">  1        2 0.15595073E+00 0.24110637E+03</pdfrwt>
<totfact> 0.11333760E+04</totfact>
</mgrwt>
</event>
<event>
 5    0  0.4115852E+000  0.2832520E+03  0.7546771E-02  0.1093926E+00
          2   -1    0    0  502    0 -0.00000000000E+00  0.00000000000E+00  0.46642725175E+03  0.46642725175E+03  0.00000000000E+00 0. -1.
         21   -1    0    0  503  502  0.00000000000E+00 -0.00000000000E+00 -0.37987561244E+03  0.37987561244E+03  0.00000000000E+00 0. -1.
         25    1    1    2    0    0  0.55948004729E+02 -0.26439783326E+03  0.63570769230E+02  0.30447107608E+03  0.12500000000E+03 0.  0.
         21    1    1    2  503  501 -0.18080937682E+02  0.20250993052E+02 -0.20431821994E+03  0.20611394428E+03  0.00000000000E+00 0. -1.
          2    1    1    2  501    0 -0.37867067047E+02  0.24414684021E+03  0.22729909002E+03  0.33571784384E+03  0.00000000000E+00 0. -1.
<mgrwt>
<rscale>  4 0.28325199E+03</rscale>
<asrwt>0</asrwt>
<pdfrwt beam="1">  1       21 0.58442402E-01 0.28325199E+03</pdfrwt>
<pdfrwt beam="2">  1        2 0.71758039E-01 0.28325199E+03</pdfrwt>
<totfact> 0.22328896E+03</totfact>
</mgrwt>
</event>
<event>
 5    0  0.4115852E+000  0.2402343E+03  0.7546771E-02  0.1119637E+00
         21   -1    0    0  503  502  0.00000000000E+00  0.00000000000E+00  0.33450305961E+03  0.33450305961E+03  0.00000000000E+00 0.  1.
          1   -1    0    0  502    0 -0.00000000000E+00 -0.00000000000E+00 -0.50621144240E+03  0.50621144240E+03  0.00000000000E+00 0.  1.
         25    1    1    2    0    0 -0.12649380982E+03 -0.18373384015E+03 -0.18049920453E+03  0.31299164650E+03  0.12500000000E+03 0.  0.
         21    1    1    2  503  501  0.11590823033E+03  0.16589672497E+03  0.22953231185E+03  0.30600902503E+03  0.00000000000E+00 0.  1.
          1    1    1    2  501    0  0.10585579493E+02  0.17837115181E+02 -0.22074149011E+03  0.22171383048E+03  0.00000000000E+00 0.  1.
<mgrwt>
<rscale>  4 0.24023434E+03</rscale>
<asrwt>0</asrwt>
<pdfrwt beam="1">  1       21 0.51462009E-01 0.24023434E+03</pdfrwt>
<pdfrwt beam="2">  1        1 0.77878684E-01 0.24023434E+03</pdfrwt>
<totfact> 0.17266981E+03</totfact>
</mgrwt>
</event>
<event>
 5    0  0.4115852E+000  0.2485377E+03  0.7546771E-02  0.1114232E+00
         21   -1    0    0  503  502  0.00000000000E+00  0.00000000000E+00  0.16161511692E+03  0.16161511692E+03  0.00000000000E+00 0. -1.
          3   -1    0    0  502    0 -0.00000000000E+00 -0.00000000000E+00 -0.38513267301E+03  0.38513267301E+03  0.00000000000E+00 0. -1.
         25    1    1    2    0    0 -0.20778283734E+03  0.30265986274E+02 -0.12747367508E+03  0.27561617379E+03  0.12500000000E+03 0.  0.
         21    1    1    2  503  501 -0.11768187089E+02 -0.31166450735E+02 -0.19594168852E+02  0.38649312177E+02  0.00000000000E+00 0. -1.
          3    1    1    2  501    0  0.21955102443E+03  0.90046446100E+00 -0.76449712164E+02  0.23248230396E+03  0.00000000000E+00 0. -1.
<mgrwt>
<rscale>  4 0.24853771E+03</rscale>
<asrwt>0</asrwt>
<pdfrwt beam="1">  1       21 0.24863864E-01 0.24853771E+03</pdfrwt>
<pdfrwt beam="2">  1        3 0.59251180E-01 0.24853771E+03</pdfrwt>
<totfact> 0.21341832E+03</totfact>
</mgrwt>
</event>
<event>
 5    0  0.4115852E+000  0.2936471E+03  0.7546771E-02  0.1088460E+00
          2   -1    0    0  502    0 -0.00000000000E+00  0.00000000000E+00  0.38719307154E+03  0.38719307154E+03  0.00000000000E+00 0. -1.
         21   -1    0    0  503  502  0.00000000000E+00 -0.00000000000E+00 -0.36932721090E+03  0.36932721090E+03  0.00000000000E+00 0. -1.
         25    1    1    2    0    0 -0.22014025254E+03 -0.18957741421E+03 -0.20639510935E+03  0.37765760674E+03  0.12500000000E+03 0.  0.
         21    1    1    2  503  501  0.29500852185E+02  0.11703713761E+02 -0.44305222020E+01  0.32045385353E+02  0.00000000000E+00 0. -1.
          2    1    1    2  501    0  0.19063940036E+03  0.17787370044E+03  0.22869149220E+03  0.34681729035E+03  0.00000000000E+00 0. -1.
<mgrwt>
<rscale>  4 0.29364707E+03</rscale>
<asrwt>0</asrwt>
<pdfrwt beam="1">  1       21 0.56819571E-01 0.29364707E+03</pdfrwt>
<pdfrwt beam="2">  1        2 0.59568165E-01 0.29364707E+03</pdfrwt>
<totfact> 0.29049804E+03</totfact>
</mgrwt>
</event>
<event>
 5    0  0.4115852E+000  0.2734545E+03  0.7546771E-02  0.1099319E+00
          1   -1    0    0  502    0 -0.00000000000E+00  0.00000000000E+00  0.10412999549E+04  0.10412999549E+04  0.00000000000E+00 0. -1.
         21   -1    0    0  503  502  0.00000000000E+00 -0.00000000000E+00 -0.64837704107E+03  0.64837704107E+03  0.00000000000E+00 0. -1.
         25    1    1    2    0    0 -0.29145014487E+03 -0.14572210114E+03 -0.32510799223E+03  0.47696784411E+03  0.12500000000E+03 0.  0.
         21    1    1    2  503  501  0.20354008721E+03  0.12747402950E+02 -0.19720710057E+03  0.28369297471E+03  0.00000000000E+00 0. -1.
          1    1    1    2  501    0  0.87910057664E+02  0.13297469818E+03  0.91523800660E+03  0.92901617710E+03  0.00000000000E+00 0. -1.
<mgrwt>
<rscale>  4 0.27345448E+03</rscale>
<asrwt>0</asrwt>
<pdfrwt beam="1">  1       21 0.99750314E-01 0.27345448E+03</pdfrwt>
<pdfrwt beam="2">  1        1 0.16019999E+00 0.27345448E+03</pdfrwt>
<totfact> 0.13054502E+02</totfact>
</mgrwt>
</event>
<event>
 5    0  0.4115852E+000  0.2720136E+03  0.7546771E-02  0.1100133E+00
         21   -1    0    0  503  502  0.00000000000E+00  0.00000000000E+00  0.85969318325E+02  0.85969318325E+02  0.00000000000E+00 0.  1.
          2   -1    0    0  502    0 -0.00000000000E+00 -0.00000000000E+00 -0.11539091084E+04  0.11539091084E+04  0.00000000000E+00 0.  1.
         25    1    1    2    0    0  0.18931749730E+03  0.87016062798E+02 -0.26614856868E+03  0.36037892638E+03  0.12500000000E+03 0.  0.
         21    1    1    2  503  501  0.51171150976E+02  0.12406534562E+01 -0.16966839299E+02  0.53924943662E+02  0.00000000000E+00 0.  1.
          2    1    1    2  501    0 -0.24048864827E+03 -0.88256716255E+02 -0.78482438211E+03  0.82557455670E+03  0.00000000000E+00 0.  1.
<mgrwt>
<rscale>  4 0.27201358E+03</rscale>
<asrwt>0</asrwt>
<pdfrwt beam="1">  1       21 0.13226050E-01 0.27201358E+03</pdfrwt>
<pdfrwt beam="2">  1        2 0.17752447E+00 0.27201358E+03</pdfrwt>
<totfact> 0.13087953E+04</totfact>
</mgrwt>
</event>
<event>
 5    0  0.7528874E+000  0.3815214E+03  0.7546771E-02  0.1050373E+00
         21   -1    0    0  503  502  0.00000000000E+00  0.00000000000E+00  0.52358285864E+03  0.52358285864E+03  0.00000000000E+00 0. -1.
          2   -1    0    0  502    0 -0.00000000000E+00 -0.00000000000E+00 -0.10157844089E+04  0.10157844089E+04  0.00000000000E+00 0. -1.
         25    1    1    2    0    0 -0.35074446768E+03 -0.55964269122E+02  0.39571148580E+03  0.54622912868E+03  0.12500000000E+03 0.  0.
         21    1    1    2  503  501 -0.86938210693E+01  0.23387796166E+02  0.88490673958E+01  0.26474091638E+02  0.00000000000E+00 0.  1.
          2    1    1    2  501    0  0.35943828875E+03  0.32576472956E+02 -0.89676210342E+03  0.96666404719E+03  0.00000000000E+00 0. -1.
<mgrwt>
<rscale>  4 0.38152142E+03</rscale>
<asrwt>0</asrwt>
<pdfrwt beam="1">  1       21 0.80551210E-01 0.38152142E+03</pdfrwt>
<pdfrwt beam="2">  1        2 0.15627452E+00 0.38152142E+03</pdfrwt>
<totfact> 0.40235481E+02</totfact>
</mgrwt>
</event>
<event>
 5    0  0.4115852E+000  0.2917048E+03  0.7546771E-02  0.1089462E+00
         21   -1    0    0  503  502  0.00000000000E+00  0.00000000000E+00  0.13396586341E+03  0.13396586341E+03  0.00000000000E+00 0.  1.
          2   -1    0    0  502    0 -0.00000000000E+00 -0.00000000000E+00 -0.29834042002E+04  0.29834042002E+04  0.00000000000E+00 0. -1.
         25    1    1    2    0    0  0.23661154562E+03 -0.15832253232E+03 -0.15314261681E+03  0.34659588694E+03  0.12500000000E+03 0.  0.
         21    1    1    2  503  501 -0.26578642970E+02  0.13463023890E+01  0.25214848044E+02  0.36660951353E+02  0.00000000000E+00 0.  1.
          2    1    1    2  501    0 -0.21003290265E+03  0.15697622993E+03 -0.27215105680E+04  0.27341132253E+04  0.00000000000E+00 0. -1.
<mgrwt>
<rscale>  4 0.29170483E+03</rscale>
<asrwt>0</asrwt>
<pdfrwt beam="1">  1       21 0.20610133E-01 0.29170483E+03</pdfrwt>
<pdfrwt beam="2">  1        2 0.45898526E+00 0.29170483E+03</pdfrwt>
<totfact> 0.57190334E+02</totfact>
</mgrwt>
</event>
<event>
 5    0  0.4115852E+000  0.2289653E+03  0.7546771E-02  0.1127370E+00
          2   -1    0    0  502    0 -0.00000000000E+00  0.00000000000E+00  0.22811506069E+04  0.22811506069E+04  0.00000000000E+00 0. -1.
         21   -1    0    0  503  502  0.00000000000E+00 -0.00000000000E+00 -0.15620919868E+03  0.15620919868E+03  0.00000000000E+00 0.  1.
         25    1    1    2    0    0 -0.84663342956E+02 -0.19802512600E+03  0.58614551283E+02  0.25581731332E+03  0.12500000000E+03 0.  0.
         21    1    1    2  503  501  0.20168727960E+03  0.54715850003E+02  0.15228108188E+03  0.25857515521E+03  0.00000000000E+00 0.  1.
          2    1    1    2  501    0 -0.11702393665E+03  0.14330927600E+03  0.19140457750E+04  0.19229673370E+04  0.00000000000E+00 0. -1.
<mgrwt>
<rscale>  4 0.22896526E+03</rscale>
<asrwt>0</asrwt>
<pdfrwt beam="1">  1       21 0.24032186E-01 0.22896526E+03</pdfrwt>
<pdfrwt beam="2">  1        2 0.35094622E+00 0.22896526E+03</pdfrwt>
<totfact> 0.10940778E+03</totfact>
</mgrwt>
</event>
<event>
 5    0  0.4115852E+000  0.3322201E+03  0.7546771E-02  0.1070159E+00
         21   -1    0    0  503  502  0.00000000000E+00  0.00000000000E+00  0.90975623423E+02  0.90975623423E+02  0.00000000000E+00 0. -1.
          1   -1    0    0  502    0 -0.00000000000E+00 -0.00000000000E+00 -0.23999986399E+04  0.23999986399E+04  0.00000000000E+00 0.  1.
         25    1    1    2    0    0  0.24958916210E+03 -0.12999498658E+03 -0.11069425121E+04  0.11489735294E+04  0.12500000000E+03 0.  0.
         21    1    1    2  503  501  0.38526277193E+02 -0.43773022632E+02  0.29456055716E+02  0.65330014258E+02  0.00000000000E+00 0. -1.
          1    1    1    2  501    0 -0.28811543929E+03  0.17376800921E+03 -0.12315365602E+04  0.12766707196E+04  0.00000000000E+00 0.  1.
<mgrwt>
<rscale>  4 0.33222010E+03</rscale>
<asrwt>0</asrwt>
<pdfrwt beam="1">  1       21 0.13996249E-01 0.33222010E+03</pdfrwt>
<pdfrwt beam="2">  1        1 0.36923057E+00 0.33222010E+03</pdfrwt>
<totfact> 0.87945838E+02</totfact>
</mgrwt>
</event>
<event>
 5    0  0.4115852E+000  0.2411833E+03  0.7546771E-02  0.1119007E+00
         21   -1    0    0  503  502  0.00000000000E+00  0.00000000000E+00  0.85289393244E+03  0.85289393244E+03  0.00000000000E+00 0.  1.
          3   -1    0    0  502    0 -0.00000000000E+00 -0.00000000000E+00 -0.10046474197E+03  0.10046474197E+03  0.00000000000E+00 0.  1.
         25    1    1    2    0    0 -0.19304326977E+03  0.59328805054E+02  0.20589795133E+03  0.31433195427E+03  0.12500000000E+03 0.  0.
         21    1    1    2  503  501 -0.19112501844E+02 -0.42008930271E+02  0.33767280611E+03  0.34081220919E+03  0.00000000000E+00 0.  1.
          3    1    1    2  501    0  0.21215577162E+03 -0.17319874783E+02  0.20885843303E+03  0.29821451095E+03  0.00000000000E+00 0.  1.
<mgrwt>
<rscale>  4 0.24118329E+03</rscale>
<asrwt>0</asrwt>
<pdfrwt beam="1">  1       21 0.13121445E+00 0.24118329E+03</pdfrwt>
<pdfrwt beam="2">  1        3 0.15456115E-01 0.24118329E+03</pdfrwt>
<totfact> 0.72497495E+02</totfact>
</mgrwt>
</event>
<event>
 5    0  0.4115852E+000  0.2302111E+03  0.7546771E-02  0.1126491E+00
         -4   -1    0    0    0  501 -0.00000000000E+00  0.00000000000E+00  0.19165442212E+03  0.19165442212E+03  0.00000000000E+00 0. -1.
         21   -1    0    0  501  502  0.00000000000E+00 -0.00000000000E+00 -0.53050449874E+03  0.53050449874E+03  0.00000000000E+00 0.  1.
         25    1    1    2    0    0  0.19227115351E+03  0.73209934954E+02 -0.36515866827E+03  0.43737140288E+03  0.12500000000E+03 0.  0.
         21    1    1    2  503  502 -0.20807117447E+02  0.12284627244E+02 -0.67329066814E+02  0.71533568631E+02  0.00000000000E+00 0.  1.
         -4    1    1    2    0  503 -0.17146403606E+03 -0.85494562199E+02  0.93637658460E+02  0.21325394934E+03  0.00000000000E+00 0. -1.
<mgrwt>
<rscale>  4 0.23021110E+03</rscale>
<asrwt>0</asrwt>
<pdfrwt beam="1">  1       21 0.81616076E-01 0.23021110E+03</pdfrwt>
<pdfrwt beam="2">  1       -4 0.29485296E-01 0.23021110E+03</pdfrwt>
<totfact> 0.60530280E+02</totfact>
</mgrwt>
</event>
<event>
 5    0  0.4115852E+000  0.3121145E+03  0.7546771E-02  0.1079337E+00
          2   -1    0    0  502    0 -0.00000000000E+00  0.00000000000E+00  0.33027749316E+03  0.33027749316E+03  0.00000000000E+00 0.  1.
         21   -1    0    0  503  502  0.00000000000E+00 -0.00000000000E+00 -0.76855438130E+03  0.76855438130E+03  0.00000000000E+00 0.  1.
         25    1    1    2    0    0 -0.28282740554E+03  0.23329842278E+02  0.11515565810E+03  0.33078912990E+03  0.12500000000E+03 0.  0.
         21    1    1    2  503  501 -0.84381173966E+01 -0.35893746041E+02 -0.46061375884E+03  0.46208721868E+03  0.00000000000E+00 0.  1.
          2    1    1    2  501    0  0.29126552294E+03  0.12563903763E+02 -0.92818787399E+02  0.30595552589E+03  0.00000000000E+00 0.  1.
<mgrwt>
<rscale>  4 0.31211450E+03</rscale>
<asrwt>0</asrwt>
<pdfrwt beam="1">  1       21 0.11823913E+00 0.31211450E+03</pdfrwt>
<pdfrwt beam="2">  1        2 0.50811922E-01 0.31211450E+03</pdfrwt>
<totfact> 0.63296248E+02</totfact>
</mgrwt>
</event>
<event>
 5    0  0.4115852E+000  0.2553129E+03  0.7546771E-02  0.1109992E+00
          2   -1    0    0  502    0 -0.00000000000E+00  0.00000000000E+00  0.79030381848E+03  0.79030381848E+03  0.00000000000E+00 0.  1.
         21   -1    0    0  503  502  0.00000000000E+00 -0.00000000000E+00 -0.17443845573E+03  0.17443845573E+03  0.00000000000E+00 0.  1.
         25    1    1    2    0    0  0.23148118847E+03  0.12251527634E+03  0.80594164633E+02  0.30118757100E+03  0.12500000000E+03 0.  0.
         21    1    1    2  503  501 -0.67516911523E+02  0.18586723037E+02 -0.15589307802E+02  0.71742777563E+02  0.00000000000E+00 0.  1.
          2    1    1    2  501    0 -0.16396427695E+03 -0.14110199938E+03  0.55086050593E+03  0.59181192564E+03  0.00000000000E+00 0.  1.
<mgrwt>
<rscale>  4 0.25531294E+03</rscale>
<asrwt>0</asrwt>
<pdfrwt beam="1">  1       21 0.26836686E-01 0.25531294E+03</pdfrwt>
<pdfrwt beam="2">  1        2 0.12158520E+00 0.25531294E+03</pdfrwt>
<totfact> 0.59080700E+03</totfact>
</mgrwt>
</event>
<event>
 5    0  0.4115852E+000  0.3010702E+03  0.7546771E-02  0.1084707E+00
         -1   -1    0    0    0  501 -0.00000000000E+00  0.00000000000E+00  0.20697867753E+03  0.20697867753E+03  0.00000000000E+00 0. -1.
         21   -1    0    0  501  502  0.00000000000E+00 -0.00000000000E+00 -0.43942955801E+03  0.43942955801E+03  0.00000000000E+00 0. -1.
         25    1    1    2    0    0  0.79149940105E+02  0.26220899325E+03 -0.85987691991E+02  0.31310885061E+03  0.12500000000E+03 0.  0.
         21    1    1    2  503  502 -0.29080706107E+02 -0.75492672127E+02 -0.11005074312E+03  0.13658695792E+03  0.00000000000E+00 0. -1.
         -1    1    1    2    0  503 -0.50069233997E+02 -0.18671632112E+03 -0.36412445371E+02  0.19671242702E+03  0.00000000000E+00 0. -1.
<mgrwt>
<rscale>  4 0.30107021E+03</rscale>
<asrwt>0</asrwt>
<pdfrwt beam="1">  1       21 0.67604547E-01 0.30107021E+03</pdfrwt>
<pdfrwt beam="2">  1       -1 0.31842874E-01 0.30107021E+03</pdfrwt>
<totfact> 0.16347724E+03</totfact>
</mgrwt>
</event>
<event>
 5    0  0.4115852E+000  0.4662134E+03  0.7546771E-02  0.1022994E+00
         21   -1    0    0  503  502  0.00000000000E+00  0.00000000000E+00  0.20731803181E+03  0.20731803181E+03  0.00000000000E+00 0.  1.
          2   -1    0    0  502    0 -0.00000000000E+00 -0.00000000000E+00 -0.29939660597E+04  0.29939660597E+04  0.00000000000E+00 0.  1.
         25    1    1    2    0    0  0.20986554489E+03 -0.36467177166E+03 -0.19572821225E+03  0.48058670503E+03  0.12500000000E+03 0.  0.
         21    1    1    2  503  501  0.15440784636E+02 -0.28328029884E+02  0.39814410817E+02  0.51245316039E+02  0.00000000000E+00 0.  1.
          2    1    1    2  501    0 -0.22530632953E+03  0.39299980154E+03 -0.26307342264E+04  0.26694520704E+04  0.00000000000E+00 0.  1.
<mgrwt>
<rscale>  4 0.46621337E+03</rscale>
<asrwt>0</asrwt>
<pdfrwt beam="1">  1       21 0.31895084E-01 0.46621337E+03</pdfrwt>
<pdfrwt beam="2">  1        2 0.46061013E+00 0.46621337E+03</pdfrwt>
<totfact> 0.22242948E+02</totfact>
</mgrwt>
</event>
<event>
 5    0  0.4115852E+000  0.2406926E+03  0.7546771E-02  0.1119332E+00
         21   -1    0    0  503  502  0.00000000000E+00  0.00000000000E+00  0.64597887194E+02  0.64597887194E+02  0.00000000000E+00 0. -1.
          2   -1    0    0  502    0 -0.00000000000E+00 -0.00000000000E+00 -0.12247362934E+04  0.12247362934E+04  0.00000000000E+00 0. -1.
         25    1    1    2    0    0  0.20318762808E+03  0.14298873953E+02 -0.25160161514E+03  0.34701302964E+03  0.12500000000E+03 0.  0.
         21    1    1    2  503  501 -0.20716950828E+03 -0.44544293944E+02 -0.69412152934E+03  0.72574657890E+03  0.00000000000E+00 0. -1.
          2    1    1    2  501    0  0.39818802011E+01  0.30245419991E+02 -0.21441526177E+03  0.21657457210E+03  0.00000000000E+00 0. -1.
<mgrwt>
<rscale>  4 0.24069259E+03</rscale>
<asrwt>0</asrwt>
<pdfrwt beam="1">  1       21 0.99381373E-02 0.24069259E+03</pdfrwt>
<pdfrwt beam="2">  1        2 0.18842095E+00 0.24069259E+03</pdfrwt>
<totfact> 0.20059109E+04</totfact>
</mgrwt>
</event>
<event>
 5    0  0.4115852E+000  0.2792553E+03  0.7546771E-02  0.1096096E+00
          1   -1    0    0  502    0 -0.00000000000E+00  0.00000000000E+00  0.71363417622E+03  0.71363417622E+03  0.00000000000E+00 0. -1.
         21   -1    0    0  503  502  0.00000000000E+00 -0.00000000000E+00 -0.98171246016E+03  0.98171246016E+03  0.00000000000E+00 0.  1.
         25    1    1    2    0    0 -0.22758629906E+03 -0.24308307858E+03 -0.76385217293E+03  0.84260313831E+03  0.12500000000E+03 0.  0.
         21    1    1    2  503  501  0.54814203854E+02  0.66109619491E+02 -0.14353335235E+03  0.16726297250E+03  0.00000000000E+00 0.  1.
          1    1    1    2  501    0  0.17277209520E+03  0.17697345909E+03  0.63930724134E+03  0.68548052557E+03  0.00000000000E+00 0. -1.
<mgrwt>
<rscale>  4 0.27925528E+03</rscale>
<asrwt>0</asrwt>
<pdfrwt beam="1">  1       21 0.15103269E+00 0.27925528E+03</pdfrwt>
<pdfrwt beam="2">  1        1 0.10978987E+00 0.27925528E+03</pdfrwt>
<totfact> 0.83822324E+01</totfact>
</mgrwt>
</event>
<event>
 5    0  0.4115852E+000  0.1944893E+03  0.7546771E-02  0.1154473E+00
          4   -1    0    0  502    0 -0.00000000000E+00  0.00000000000E+00  0.11272674467E+04  0.11272674467E+04  0.00000000000E+00 0. -1.
         21   -1    0    0  503  502  0.00000000000E+00 -0.00000000000E+00 -0.62166353766E+03  0.62166353766E+03  0.00000000000E+00 0. -1.
         25    1    1    2    0    0 -0.11656685696E+03 -0.22846786819E+03 -0.51693881436E+03  0.59045417835E+03  0.12500000000E+03 0.  0.
         21    1    1    2  503  501  0.12098194516E+03  0.80286739074E+02  0.21814986018E+02  0.14682808022E+03  0.00000000000E+00 0. -1.
          4    1    1    2  501    0 -0.44150881964E+01  0.14818112912E+03  0.10007277374E+04  0.10116487258E+04  0.00000000000E+00 0. -1.
<mgrwt>
<rscale>  4 0.19448928E+03</rscale>
<asrwt>0</asrwt>
<pdfrwt beam="1">  1       21 0.95640544E-01 0.19448928E+03</pdfrwt>
<pdfrwt beam="2">  1        4 0.17342576E+00 0.19448928E+03</pdfrwt>
<totfact> 0.82929426E+00</totfact>
</mgrwt>
</event>
<event>
 5    0  0.4115852E+000  0.2427758E+03  0.7546771E-02  0.1117957E+00
          1   -1    0    0  502    0 -0.00000000000E+00  0.00000000000E+00  0.49928303279E+03  0.49928303279E+03  0.00000000000E+00 0. -1.
         21   -1    0    0  503  502  0.00000000000E+00 -0.00000000000E+00 -0.26721868456E+03  0.26721868456E+03  0.00000000000E+00 0. -1.
         25    1    1    2    0    0  0.23003902819E+02 -0.20099672465E+03 -0.41130157396E+02  0.24134115421E+03  0.12500000000E+03 0.  0.
         21    1    1    2  503  501 -0.83144495748E+02 -0.24555192917E+01 -0.78537335797E+02  0.11439908156E+03  0.00000000000E+00 0.  1.
          1    1    1    2  501    0  0.60140592929E+02  0.20345224395E+03  0.35173184142E+03  0.41076148158E+03  0.00000000000E+00 0. -1.
<mgrwt>
<rscale>  4 0.24277576E+03</rscale>
<asrwt>0</asrwt>
<pdfrwt beam="1">  1       21 0.41110567E-01 0.24277576E+03</pdfrwt>
<pdfrwt beam="2">  1        1 0.76812774E-01 0.24277576E+03</pdfrwt>
<totfact> 0.27982152E+03</totfact>
</mgrwt>
</event>
