<event>
 5    0  0.1531977E+001  0.1782267E+03  0.7546771E-02  0.1169530E+00
         21   -1    0    0  504  501  0.00000000000E+00  0.00000000000E+00  0.82703477558E+03  0.82703477558E+03  0.00000000000E+00 0.  1.
         21   -1    0    0  503  502 -0.00000000000E+00 -0.00000000000E+00 -0.24378878615E+03  0.24378878615E+03  0.00000000000E+00 0.  1.
         25    1    1    2    0    0  0.14211880377E+03  0.15463284811E+03  0.65743788521E+03  0.70139763687E+03  0.12500000000E+03 0.  0.
         21    1    1    2  503  501 -0.78273548422E+02 -0.97155411361E+02 -0.18873664088E+03  0.22624641865E+03  0.00000000000E+00 0.  1.
         21    1    1    2  504  502 -0.63845255350E+02 -0.57477436751E+02  0.11454474510E+03  0.14317950621E+03  0.00000000000E+00 0.  1.
<mgrwt>
<rscale>  4 0.17822669E+03</rscale>
<asrwt>0</asrwt>
<pdfrwt beam="1">  1       21 0.12723612E+00 0.17822669E+03</pdfrwt>
<pdfrwt beam="2">  1       21 0.37505967E-01 0.17822669E+03</pdfrwt>
<totfact> 0.31689974E+03</totfact>
</mgrwt>
</event>
<event>
 5    0  0.1531977E+001  0.4147452E+03  0.7546771E-02  0.1038790E+00
         21   -1    0    0  503  501  0.00000000000E+00  0.00000000000E+00  0.17541496459E+04  0.17541496459E+04  0.00000000000E+00 0.  1.
         21   -1    0    0  504  502 -0.00000000000E+00 -0.00000000000E+00 -0.32526917588E+03  0.32526917588E+03  0.00000000000E+00 0. -1.
         25    1    1    2    0    0 -0.24805661660E+03  0.28897998451E+03  0.15252155661E+04  0.15770063537E+04  0.12500000000E+03 0.  0.
         21    1    1    2  503  502  0.24476501859E+03 -0.31223366385E+03 -0.16512206335E+03  0.42972673989E+03  0.00000000000E+00 0. -1.
         21    1    1    2  504  501  0.32915980091E+01  0.23253679347E+02  0.68786967283E+02  0.72685728232E+02  0.00000000000E+00 0.  1.
<mgrwt>
<rscale>  4 0.41474519E+03</rscale>
<asrwt>0</asrwt>
<pdfrwt beam="1">  1       21 0.26986917E+00 0.41474519E+03</pdfrwt>
<pdfrwt beam="2">  1       21 0.50041413E-01 0.41474519E+03</pdfrwt>
<totfact> 0.15582257E+02</totfact>
</mgrwt>
</event>
<event>
 5    0  0.1531977E+001  0.2421724E+03  0.7546771E-02  0.1118354E+00
         21   -1    0    0  503  501  0.00000000000E+00  0.00000000000E+00  0.27587200397E+03  0.27587200397E+03  0.00000000000E+00 0. -1.
         21   -1    0    0  504  502 -0.00000000000E+00 -0.00000000000E+00 -0.30794909487E+03  0.30794909487E+03  0.00000000000E+00 0. -1.
         25    1    1    2    0    0 -0.18222897830E+03 -0.16192082340E+03 -0.32728470824E+02  0.27590198692E+03  0.12500000000E+03 0.  0.
         21    1    1    2  503  502  0.11811234259E+03  0.14830801654E+03 -0.78455755301E+02  0.20518552283E+03  0.00000000000E+00 0. -1.
         21    1    1    2  504  501  0.64116635711E+02  0.13612806860E+02  0.79107135222E+02  0.10273358910E+03  0.00000000000E+00 0. -1.
<mgrwt>
<rscale>  4 0.24217237E+03</rscale>
<asrwt>0</asrwt>
<pdfrwt beam="1">  1       21 0.42441847E-01 0.24217237E+03</pdfrwt>
<pdfrwt beam="2">  1       21 0.47376784E-01 0.24217237E+03</pdfrwt>
<totfact> 0.22159060E+04</totfact>
</mgrwt>
</event>
<event>
 5    0  0.1531977E+001  0.2467562E+03  0.7546771E-02  0.1115372E+00
         21   -1    0    0  503  501  0.00000000000E+00  0.00000000000E+00  0.58150891740E+02  0.58150891740E+02  0.00000000000E+00 0. -1.
         21   -1    0    0  504  502 -0.00000000000E+00 -0.00000000000E+00 -0.19224648738E+04  0.19224648738E+04  0.00000000000E+00 0. -1.
         25    1    1    2    0    0  0.25819125128E+03  0.92681398626E+02 -0.59668055592E+03  0.66850972296E+03  0.12500000000E+03 0.  0.
         21    1    1    2  503  502 -0.11025934523E+03  0.11062107889E+01 -0.87819804590E+03  0.88509330285E+03  0.00000000000E+00 0. -1.
         21    1    1    2  504  501 -0.14793190605E+03 -0.93787609415E+02 -0.38943538023E+03  0.42701273971E+03  0.00000000000E+00 0. -1.
<mgrwt>
<rscale>  4 0.24675623E+03</rscale>
<asrwt>0</asrwt>
<pdfrwt beam="1">  1       21 0.89462921E-02 0.24675623E+03</pdfrwt>
<pdfrwt beam="2">  1       21 0.29576379E+00 0.24675623E+03</pdfrwt>
<totfact> 0.33651610E+03</totfact>
</mgrwt>
</event>
<event>
 5    0  0.1531977E+001  0.3474632E+03  0.7546771E-02  0.1063661E+00
         21   -1    0    0  502  501  0.00000000000E+00  0.00000000000E+00  0.47552089281E+03  0.47552089281E+03  0.00000000000E+00 0. -1.
         21   -1    0    0  504  502 -0.00000000000E+00 -0.00000000000E+00 -0.61079978802E+03  0.61079978802E+03  0.00000000000E+00 0. -1.
         25    1    1    2    0    0 -0.21815290193E+03  0.30976782585E+03 -0.33347340449E+03  0.51997721686E+03  0.12500000000E+03 0.  0.
         21    1    1    2  503  501  0.38256174683E+02 -0.11481246680E+03  0.26626360137E+03  0.29247520040E+03  0.00000000000E+00 0. -1.
         21    1    1    2  504  503  0.17989672724E+03 -0.19495535905E+03 -0.68069092088E+02  0.27386826357E+03  0.00000000000E+00 0. -1.
<mgrwt>
<rscale>  4 0.34746322E+03</rscale>
<asrwt>0</asrwt>
<pdfrwt beam="1">  1       21 0.73157060E-01 0.34746322E+03</pdfrwt>
<pdfrwt beam="2">  1       21 0.93969198E-01 0.34746322E+03</pdfrwt>
<totfact> 0.14321570E+03</totfact>
</mgrwt>
</event>
<event>
 5    0  0.1531977E+001  0.2910519E+03  0.7546771E-02  0.1089801E+00
         21   -1    0    0  502  501  0.00000000000E+00  0.00000000000E+00  0.31645862076E+04  0.31645862076E+04  0.00000000000E+00 0.  1.
         21   -1    0    0  504  502 -0.00000000000E+00 -0.00000000000E+00 -0.52239365153E+03  0.52239365153E+03  0.00000000000E+00 0. -1.
         25    1    1    2    0    0 -0.22585806516E+03 -0.93346281831E+02 -0.40048218278E+03  0.48552690209E+03  0.12500000000E+03 0.  0.
         21    1    1    2  503  501  0.23808829565E+03  0.11190827614E+03  0.31148460420E+04  0.31259359181E+04  0.00000000000E+00 0.  1.
         21    1    1    2  504  503 -0.12230230498E+02 -0.18561994309E+02 -0.72171303150E+02  0.75517038933E+02  0.00000000000E+00 0. -1.
<mgrwt>
<rscale>  4 0.29105193E+03</rscale>
<asrwt>0</asrwt>
<pdfrwt beam="1">  1       21 0.48685940E+00 0.29105193E+03</pdfrwt>
<pdfrwt beam="2">  1       21 0.80368256E-01 0.29105193E+03</pdfrwt>
<totfact> 0.26548579E+00</totfact>
</mgrwt>
</event>
<event>
 5    0  0.1531977E+001  0.2149659E+03  0.7546771E-02  0.1137693E+00
         21   -1    0    0  504  501  0.00000000000E+00  0.00000000000E+00  0.11094801685E+04  0.11094801685E+04  0.00000000000E+00 0. -1.
         21   -1    0    0  503  502 -0.00000000000E+00 -0.00000000000E+00 -0.25589417342E+03  0.25589417342E+03  0.00000000000E+00 0.  1.
         25    1    1    2    0    0 -0.32605002125E+02  0.22988081822E+03  0.14677172593E+03  0.30178670660E+03  0.12500000000E+03 0.  0.
         21    1    1    2  503  501  0.32441677581E+02 -0.60801617142E+02 -0.16327469247E+03  0.17722280974E+03  0.00000000000E+00 0.  1.
         21    1    1    2  504  502  0.16332454416E+00 -0.16907920107E+03  0.87008896165E+03  0.88636482562E+03  0.00000000000E+00 0. -1.
<mgrwt>
<rscale>  4 0.21496589E+03</rscale>
<asrwt>0</asrwt>
<pdfrwt beam="1">  1       21 0.17068925E+00 0.21496589E+03</pdfrwt>
<pdfrwt beam="2">  1       21 0.39368335E-01 0.21496589E+03</pdfrwt>
<totfact> 0.12833661E+03</totfact>
</mgrwt>
</event>
<event>
 5    0  0.1531977E+001  0.2733747E+03  0.7546771E-02  0.1099364E+00
         21   -1    0    0  503  501  0.00000000000E+00  0.00000000000E+00  0.16128319367E+03  0.16128319367E+03  0.00000000000E+00 0.  1.
         21   -1    0    0  501  502 -0.00000000000E+00 -0.00000000000E+00 -0.44231996818E+03  0.44231996818E+03  0.00000000000E+00 0.  1.
         25    1    1    2    0    0  0.21352179689E+03 -0.11626339915E+03 -0.20866038234E+03  0.34390825941E+03  0.12500000000E+03 0.  0.
         21    1    1    2  503  504 -0.16752244285E+03  0.80090567365E+02 -0.76953269246E+02  0.20099769523E+03  0.00000000000E+00 0.  1.
         21    1    1    2  504  502 -0.45999354039E+02  0.36172831783E+02  0.45768770779E+01  0.58697207216E+02  0.00000000000E+00 0.  1.
<mgrwt>
<rscale>  4 0.27337472E+03</rscale>
<asrwt>0</asrwt>
<pdfrwt beam="1">  1       21 0.24812799E-01 0.27337472E+03</pdfrwt>
<pdfrwt beam="2">  1       21 0.68049227E-01 0.27337472E+03</pdfrwt>
<totfact> 0.29136136E+04</totfact>
</mgrwt>
</event>
<event>
 5    0  0.1531977E+001  0.2225453E+03  0.7546771E-02  0.1132000E+00
         21   -1    0    0  504  501  0.00000000000E+00  0.00000000000E+00  0.22201121649E+03  0.22201121649E+03  0.00000000000E+00 0.  1.
         21   -1    0    0  503  502 -0.00000000000E+00 -0.00000000000E+00 -0.62457729273E+03  0.62457729273E+03  0.00000000000E+00 0. -1.
         25    1    1    2    0    0 -0.75854418928E+02 -0.19352577976E+03 -0.49962759120E+03  0.55539071849E+03  0.12500000000E+03 0.  0.
         21    1    1    2  503  501 -0.19370427368E+01  0.28771645480E+02 -0.49555211606E+02  0.57334794980E+02  0.00000000000E+00 0.  1.
         21    1    1    2  504  502  0.77791461665E+02  0.16475413428E+03  0.14661672656E+03  0.23386299575E+03  0.00000000000E+00 0.  1.
<mgrwt>
<rscale>  4 0.22254525E+03</rscale>
<asrwt>0</asrwt>
<pdfrwt beam="1">  1       21 0.34155572E-01 0.22254525E+03</pdfrwt>
<pdfrwt beam="2">  1       21 0.96088812E-01 0.22254525E+03</pdfrwt>
<totfact> 0.72925073E+03</totfact>
</mgrwt>
</event>
<event>
 5    0  0.1531977E+001  0.2301136E+03  0.7546771E-02  0.1126560E+00
         21   -1    0    0  502  501  0.00000000000E+00  0.00000000000E+00  0.29263784228E+03  0.29263784228E+03  0.00000000000E+00 0.  1.
         21   -1    0    0  504  502 -0.00000000000E+00 -0.00000000000E+00 -0.56199254310E+03  0.56199254310E+03  0.00000000000E+00 0.  1.
         25    1    1    2    0    0  0.16158342338E+03 -0.13417133358E+03 -0.88094599025E+02  0.25980147775E+03  0.12500000000E+03 0.  0.
         21    1    1    2  503  501 -0.18404988064E+03  0.55377758401E+02  0.15613540815E+03  0.24762738210E+03  0.00000000000E+00 0.  1.
         21    1    1    2  504  503  0.22466457255E+02  0.78793575177E+02 -0.33739550995E+03  0.34720152553E+03  0.00000000000E+00 0.  1.
<mgrwt>
<rscale>  4 0.23011360E+03</rscale>
<asrwt>0</asrwt>
<pdfrwt beam="1">  1       21 0.45021206E-01 0.23011360E+03</pdfrwt>
<pdfrwt beam="2">  1       21 0.86460392E-01 0.23011360E+03</pdfrwt>
<totfact> 0.53075123E+03</totfact>
</mgrwt>
</event>
<event>
 5    0  0.1531977E+001  0.3832484E+03  0.7546771E-02  0.1049740E+00
         21   -1    0    0  504  501  0.00000000000E+00  0.00000000000E+00  0.23026886950E+03  0.23026886950E+03  0.00000000000E+00 0. -1.
         21   -1    0    0  501  502 -0.00000000000E+00 -0.00000000000E+00 -0.90285185906E+03  0.90285185906E+03  0.00000000000E+00 0. -1.
         25    1    1    2    0    0  0.25734437482E+03 -0.17041974624E+03 -0.47889469170E+03  0.58329593081E+03  0.12500000000E+03 0.  0.
         21    1    1    2  503  502 -0.26847134483E+03  0.28372254895E+03 -0.10216161239E+03  0.40374787036E+03  0.00000000000E+00 0. -1.
         21    1    1    2  504  503  0.11126970008E+02 -0.11330280271E+03 -0.91526685466E+02  0.14607692739E+03  0.00000000000E+00 0.  1.
<mgrwt>
<rscale>  4 0.38324835E+03</rscale>
<asrwt>0</asrwt>
<pdfrwt beam="1">  1       21 0.35425980E-01 0.38324835E+03</pdfrwt>
<pdfrwt beam="2">  1       21 0.13890029E+00 0.38324835E+03</pdfrwt>
<totfact> 0.24839812E+03</totfact>
</mgrwt>
</event>
<event>
 5    0  0.1531977E+001  0.2740496E+03  0.7546771E-02  0.1098984E+00
         21   -1    0    0  502  501  0.00000000000E+00  0.00000000000E+00  0.37670152233E+03  0.37670152233E+03  0.00000000000E+00 0.  1.
         21   -1    0    0  504  502 -0.00000000000E+00 -0.00000000000E+00 -0.29105009122E+03  0.29105009122E+03  0.00000000000E+00 0.  1.
         25    1    1    2    0    0 -0.25590213270E+03  0.32372042158E+02 -0.12071789135E+03  0.31101713767E+03  0.12500000000E+03 0.  0.
         21    1    1    2  503  501  0.23578051786E+03 -0.47837832234E+02  0.22163945151E+03  0.32711612198E+03  0.00000000000E+00 0.  1.
         21    1    1    2  504  503  0.20121614839E+02  0.15465790076E+02 -0.15270129050E+02  0.29618353897E+02  0.00000000000E+00 0. -1.
<mgrwt>
<rscale>  4 0.27404965E+03</rscale>
<asrwt>0</asrwt>
<pdfrwt beam="1">  1       21 0.57954081E-01 0.27404965E+03</pdfrwt>
<pdfrwt beam="2">  1       21 0.44776937E-01 0.27404965E+03</pdfrwt>
<totfact> 0.12759453E+04</totfact>
</mgrwt>
</event>
<event>
 5    0  0.1531977E+001  0.2463390E+03  0.7546771E-02  0.1115641E+00
         21   -1    0    0  502  501  0.00000000000E+00  0.00000000000E+00  0.47372093331E+03  0.47372093331E+03  0.00000000000E+00 0.  1.
         21   -1    0    0  504  502 -0.00000000000E+00 -0.00000000000E+00 -0.14462433107E+03  0.14462433107E+03  0.00000000000E+00 0.  1.
         25    1    1    2    0    0 -0.22489197574E+03  0.39331719257E+02  0.89151002724E+02  0.27512958071E+03  0.12500000000E+03 0.  0.
         21    1    1    2  503  501  0.20457419572E+03 -0.22837900141E+02  0.24110113080E+03  0.31702038816E+03  0.00000000000E+00 0.  1.
         21    1    1    2  504  503  0.20317780021E+02 -0.16493819116E+02 -0.11555312839E+01  0.26195295504E+02  0.00000000000E+00 0.  1.
<mgrwt>
<rscale>  4 0.24633897E+03</rscale>
<asrwt>0</asrwt>
<pdfrwt beam="1">  1       21 0.72880143E-01 0.24633897E+03</pdfrwt>
<pdfrwt beam="2">  1       21 0.22249897E-01 0.24633897E+03</pdfrwt>
<totfact> 0.31165778E+04</totfact>
</mgrwt>
</event>
<event>
 5    0  0.1531977E+001  0.2547921E+03  0.7546771E-02  0.1110313E+00
         21   -1    0    0  502  501  0.00000000000E+00  0.00000000000E+00  0.73544427570E+02  0.73544427570E+02  0.00000000000E+00 0.  1.
         21   -1    0    0  504  502 -0.00000000000E+00 -0.00000000000E+00 -0.81864623419E+03  0.81864623419E+03  0.00000000000E+00 0.  1.
         25    1    1    2    0    0  0.23605510345E+02  0.22076417032E+03 -0.35841629004E+03  0.43975137974E+03  0.12500000000E+03 0.  0.
         21    1    1    2  503  501  0.18057956816E+02 -0.15846524513E+03 -0.24963055704E+03  0.29623088753E+03  0.00000000000E+00 0.  1.
         21    1    1    2  504  503 -0.41663467162E+02 -0.62298925195E+02 -0.13705495954E+03  0.15620839450E+03  0.00000000000E+00 0.  1.
<mgrwt>
<rscale>  4 0.25479215E+03</rscale>
<asrwt>0</asrwt>
<pdfrwt beam="1">  1       21 0.11314527E-01 0.25479215E+03</pdfrwt>
<pdfrwt beam="2">  1       21 0.12594557E+00 0.25479215E+03</pdfrwt>
<totfact> 0.29506295E+04</totfact>
</mgrwt>
</event>
<event>
 5    0  0.1531977E+001  0.2620547E+03  0.7546771E-02  0.1105915E+00
         21   -1    0    0  502  501  0.00000000000E+00  0.00000000000E+00  0.15843233332E+03  0.15843233332E+03  0.00000000000E+00 0. -1.
         21   -1    0    0  504  502 -0.00000000000E+00 -0.00000000000E+00 -0.47459836353E+03  0.47459836353E+03  0.00000000000E+00 0. -1.
         25    1    1    2    0    0 -0.23264288295E+03 -0.46989404614E+02 -0.59774604828E+02  0.27482488700E+03  0.12500000000E+03 0.  0.
         21    1    1    2  503  501  0.21868745326E+03  0.25526782713E+02 -0.20520027347E+03  0.30097005014E+03  0.00000000000E+00 0. -1.
         21    1    1    2  504  503  0.13955429688E+02  0.21462621901E+02 -0.51191151899E+02  0.57235759709E+02  0.00000000000E+00 0. -1.
<mgrwt>
<rscale>  4 0.26205475E+03</rscale>
<asrwt>0</asrwt>
<pdfrwt beam="1">  1       21 0.24374205E-01 0.26205475E+03</pdfrwt>
<pdfrwt beam="2">  1       21 0.73015133E-01 0.26205475E+03</pdfrwt>
<totfact> 0.25899270E+04</totfact>
</mgrwt>
</event>
<event>
 5    0  0.1531977E+001  0.2140554E+03  0.7546771E-02  0.1138394E+00
         21   -1    0    0  504  501  0.00000000000E+00  0.00000000000E+00  0.24090430665E+03  0.24090430665E+03  0.00000000000E+00 0. -1.
         21   -1    0    0  503  502 -0.00000000000E+00 -0.00000000000E+00 -0.41666878678E+03  0.41666878678E+03  0.00000000000E+00 0.  1.
         25    1    1    2    0    0  0.34730290338E+02 -0.19976968975E+03  0.10684289103E+03  0.26106421695E+03  0.12500000000E+03 0.  0.
         21    1    1    2  503  501 -0.23215889902E+02  0.16874315921E+03 -0.30989105479E+03  0.35361801024E+03  0.00000000000E+00 0.  1.
         21    1    1    2  504  502 -0.11514400435E+02  0.31026530536E+02  0.27283683625E+02  0.42890866238E+02  0.00000000000E+00 0.  1.
<mgrwt>
<rscale>  4 0.21405536E+03</rscale>
<asrwt>0</asrwt>
<pdfrwt beam="1">  1       21 0.37062201E-01 0.21405536E+03</pdfrwt>
<pdfrwt beam="2">  1       21 0.64102890E-01 0.21405536E+03</pdfrwt>
<totfact> 0.15563606E+04</totfact>
</mgrwt>
</event>
<event>
 5    0  0.1531977E+001  0.2525476E+03  0.7546771E-02  0.1111705E+00
         21   -1    0    0  502  501  0.00000000000E+00  0.00000000000E+00  0.17061071787E+04  0.17061071787E+04  0.00000000000E+00 0.  1.
         21   -1    0    0  504  502 -0.00000000000E+00 -0.00000000000E+00 -0.25754430327E+03  0.25754430327E+03  0.00000000000E+00 0. -1.
         25    1    1    2    0    0  0.18888427973E+03 -0.13672203092E+03  0.13255633101E+04  0.13517075401E+04  0.12500000000E+03 0.  0.
         21    1    1    2  503  501  0.27034557304E+02  0.95950740100E+02  0.30860815499E+03  0.32430911973E+03  0.00000000000E+00 0. -1.
         21    1    1    2  504  503 -0.21591883703E+03  0.40771290820E+02 -0.18560858968E+03  0.28763482213E+03  0.00000000000E+00 0. -1.
<mgrwt>
<rscale>  4 0.25254759E+03</rscale>
<asrwt>0</asrwt>
<pdfrwt beam="1">  1       21 0.26247802E+00 0.25254759E+03</pdfrwt>
<pdfrwt beam="2">  1       21 0.39622202E-01 0.25254759E+03</pdfrwt>
<totfact> 0.32061555E+02</totfact>
</mgrwt>
</event>
<event>
 5    0  0.1531977E+001  0.3681315E+03  0.7546771E-02  0.1055410E+00
         21   -1    0    0  502  501  0.00000000000E+00  0.00000000000E+00  0.59832326181E+03  0.59832326181E+03  0.00000000000E+00 0. -1.
         21   -1    0    0  504  502 -0.00000000000E+00 -0.00000000000E+00 -0.28225238762E+03  0.28225238762E+03  0.00000000000E+00 0. -1.
         25    1    1    2    0    0 -0.82029949470E+02  0.33976884350E+03  0.29647798830E+03  0.47507470694E+03  0.12500000000E+03 0.  0.
         21    1    1    2  503  501 -0.23793997371E+02 -0.11179275677E+02  0.52511979053E+02  0.58725109277E+02  0.00000000000E+00 0.  1.
         21    1    1    2  504  503  0.10582394684E+03 -0.32858956783E+03 -0.32919093166E+02  0.34677583322E+03  0.00000000000E+00 0. -1.
<mgrwt>
<rscale>  4 0.36813150E+03</rscale>
<asrwt>0</asrwt>
<pdfrwt beam="1">  1       21 0.92049732E-01 0.36813150E+03</pdfrwt>
<pdfrwt beam="2">  1       21 0.43423444E-01 0.36813150E+03</pdfrwt>
<totfact> 0.45959778E+03</totfact>
</mgrwt>
</event>
<event>
 5    0  0.1531977E+001  0.3499098E+03  0.7546771E-02  0.1062652E+00
         21   -1    0    0  504  501  0.00000000000E+00  0.00000000000E+00  0.58243815183E+02  0.58243815183E+02  0.00000000000E+00 0. -1.
         21   -1    0    0  503  502 -0.00000000000E+00 -0.00000000000E+00 -0.30056093355E+04  0.30056093355E+04  0.00000000000E+00 0. -1.
         25    1    1    2    0    0  0.26289110664E+03  0.23173409319E+03 -0.94255944922E+03  0.10133389064E+04  0.12500000000E+03 0.  0.
         21    1    1    2  503  501 -0.12004544971E+03  0.37467487258E+02 -0.59601715926E+03  0.60913970215E+03  0.00000000000E+00 0. -1.
         21    1    1    2  504  502 -0.14284565693E+03 -0.26920158045E+03 -0.14087889118E+04  0.14413745421E+04  0.00000000000E+00 0. -1.
<mgrwt>
<rscale>  4 0.34990984E+03</rscale>
<asrwt>0</asrwt>
<pdfrwt beam="1">  1       21 0.89605886E-02 0.34990984E+03</pdfrwt>
<pdfrwt beam="2">  1       21 0.46240135E+00 0.34990984E+03</pdfrwt>
<totfact> 0.27857678E+02</totfact>
</mgrwt>
</event>
<event>
 5    0  0.1531977E+001  0.2440445E+03  0.7546771E-02  0.1117127E+00
         21   -1    0    0  504  501  0.00000000000E+00  0.00000000000E+00  0.21548659251E+03  0.21548659251E+03  0.00000000000E+00 0. -1.
         21   -1    0    0  503  502 -0.00000000000E+00 -0.00000000000E+00 -0.32122602579E+03  0.32122602579E+03  0.00000000000E+00 0. -1.
         25    1    1    2    0    0  0.11855440612E+03  0.18531889100E+03 -0.37933836943E+02  0.25585584722E+03  0.12500000000E+03 0.  0.
         21    1    1    2  503  501 -0.60841840858E+02 -0.19672395089E+03 -0.79761262125E+02  0.22082549986E+03  0.00000000000E+00 0. -1.
         21    1    1    2  504  502 -0.57712565258E+02  0.11405059883E+02  0.11955665794E+02  0.60031271219E+02  0.00000000000E+00 0. -1.
<mgrwt>
<rscale>  4 0.24404449E+03</rscale>
<asrwt>0</asrwt>
<pdfrwt beam="1">  1       21 0.33151784E-01 0.24404449E+03</pdfrwt>
<pdfrwt beam="2">  1       21 0.49419388E-01 0.24404449E+03</pdfrwt>
<totfact> 0.33345935E+04</totfact>
</mgrwt>
</event>
<event>
 5    0  0.1531977E+001  0.2564776E+03  0.7546771E-02  0.1109278E+00
         21   -1    0    0  504  501  0.00000000000E+00  0.00000000000E+00  0.10997528734E+03  0.10997528734E+03  0.00000000000E+00 0. -1.
         21   -1    0    0  503  502 -0.00000000000E+00 -0.00000000000E+00 -0.17361540854E+04  0.17361540854E+04  0.00000000000E+00 0. -1.
         25    1    1    2    0    0  0.22438997234E+03  0.48008771247E+02 -0.56236585244E+03  0.62010971110E+03  0.12500000000E+03 0.  0.
         21    1    1    2  503  501 -0.10311476439E+01 -0.77447003528E+02 -0.98394846043E+03  0.98699223624E+03  0.00000000000E+00 0. -1.
         21    1    1    2  504  502 -0.22335882469E+03  0.29438232280E+02 -0.79864485154E+02  0.23902742537E+03  0.00000000000E+00 0. -1.
<mgrwt>
<rscale>  4 0.25647758E+03</rscale>
<asrwt>0</asrwt>
<pdfrwt beam="1">  1       21 0.16919276E-01 0.25647758E+03</pdfrwt>
<pdfrwt beam="2">  1       21 0.26710062E+00 0.25647758E+03</pdfrwt>
<totfact> 0.15540699E+03</totfact>
</mgrwt>
</event>
<event>
 5    0  0.1531977E+001  0.3529799E+03  0.7546771E-02  0.1061399E+00
         21   -1    0    0  502  501  0.00000000000E+00  0.00000000000E+00  0.74013519969E+03  0.74013519969E+03  0.00000000000E+00 0.  1.
         21   -1    0    0  504  502 -0.00000000000E+00 -0.00000000000E+00 -0.73440277002E+03  0.73440277002E+03  0.00000000000E+00 0. -1.
         25    1    1    2    0    0  0.35298786772E+03  0.16727341114E+03  0.12534957064E+03  0.42885702010E+03  0.12500000000E+03 0.  0.
         21    1    1    2  503  501 -0.30081296433E+03 -0.78020476363E+02  0.40527244776E+03  0.51070675652E+03  0.00000000000E+00 0.  1.
         21    1    1    2  504  503 -0.52174903383E+02 -0.89252934782E+02 -0.52488958873E+03  0.53497419308E+03  0.00000000000E+00 0. -1.
<mgrwt>
<rscale>  4 0.35297991E+03</rscale>
<asrwt>0</asrwt>
<pdfrwt beam="1">  1       21 0.11386695E+00 0.35297991E+03</pdfrwt>
<pdfrwt beam="2">  1       21 0.11298504E+00 0.35297991E+03</pdfrwt>
<totfact> 0.32044007E+02</totfact>
</mgrwt>
</event>
<event>
 5    0  0.1531977E+001  0.3688980E+03  0.7546771E-02  0.1055115E+00
         21   -1    0    0  502  501  0.00000000000E+00  0.00000000000E+00  0.26342296102E+04  0.26342296102E+04  0.00000000000E+00 0. -1.
         21   -1    0    0  504  502 -0.00000000000E+00 -0.00000000000E+00 -0.80688677487E+02  0.80688677487E+02  0.00000000000E+00 0.  1.
         25    1    1    2    0    0  0.14808253093E+03 -0.25319276746E+03  0.81181270285E+03  0.87218110388E+03  0.12500000000E+03 0.  0.
         21    1    1    2  503  501 -0.25480352788E+03  0.29506572405E+03  0.16513753221E+04  0.16967701888E+04  0.00000000000E+00 0. -1.
         21    1    1    2  504  503  0.10672099695E+03 -0.41872956584E+02  0.90352907846E+02  0.14596699503E+03  0.00000000000E+00 0.  1.
<mgrwt>
<rscale>  4 0.36889798E+03</rscale>
<asrwt>0</asrwt>
<pdfrwt beam="1">  1       21 0.40526603E+00 0.36889798E+03</pdfrwt>
<pdfrwt beam="2">  1       21 0.12413645E-01 0.36889798E+03</pdfrwt>
<totfact> 0.36428257E+02</totfact>
</mgrwt>
</event>
<event>
 5    0  0.1531977E+001  0.2164046E+03  0.7546771E-02  0.1136592E+00
         21   -1    0    0  504  501  0.00000000000E+00  0.00000000000E+00  0.13107805949E+03  0.13107805949E+03  0.00000000000E+00 0.  1.
         21   -1    0    0  503  502 -0.00000000000E+00 -0.00000000000E+00 -0.61031277367E+03  0.61031277367E+03  0.00000000000E+00 0. -1.
         25    1    1    2    0    0  0.13953879101E+03  0.14641035610E+03 -0.88368331122E+02  0.25365533410E+03  0.12500000000E+03 0.  0.
         21    1    1    2  503  501 -0.11687836001E+03 -0.12534766002E+03 -0.41467594912E+03  0.44869670123E+03  0.00000000000E+00 0. -1.
         21    1    1    2  504  502 -0.22660431004E+02 -0.21062696078E+02  0.23809566068E+02  0.39038797826E+02  0.00000000000E+00 0. -1.
<mgrwt>
<rscale>  4 0.21640464E+03</rscale>
<asrwt>0</asrwt>
<pdfrwt beam="1">  1       21 0.20165855E-01 0.21640464E+03</pdfrwt>
<pdfrwt beam="2">  1       21 0.93894274E-01 0.21640464E+03</pdfrwt>
<totfact> 0.21336098E+04</totfact>
</mgrwt>
</event>
<event>
 5    0  0.1531977E+001  0.3338169E+03  0.7546771E-02  0.1069460E+00
         21   -1    0    0  502  501  0.00000000000E+00  0.00000000000E+00  0.15777689488E+04  0.15777689488E+04  0.00000000000E+00 0. -1.
         21   -1    0    0  504  502 -0.00000000000E+00 -0.00000000000E+00 -0.51770431237E+03  0.51770431237E+03  0.00000000000E+00 0. -1.
         25    1    1    2    0    0 -0.26573501699E+03 -0.24159015878E+03 -0.37126689956E+03  0.53145556238E+03  0.12500000000E+03 0.  0.
         21    1    1    2  503  501  0.21916056062E+03  0.21610299423E+03  0.14677250462E+04  0.14996495146E+04  0.00000000000E+00 0. -1.
         21    1    1    2  504  503  0.46574456375E+02  0.25487164549E+02 -0.36393510234E+02  0.64368184148E+02  0.00000000000E+00 0. -1.
<mgrwt>
<rscale>  4 0.33381686E+03</rscale>
<asrwt>0</asrwt>
<pdfrwt beam="1">  1       21 0.24273368E+00 0.33381686E+03</pdfrwt>
<pdfrwt beam="2">  1       21 0.79646818E-01 0.33381686E+03</pdfrwt>
<totfact> 0.86821667E+01</totfact>
</mgrwt>
</event>
<event>
 5    0  0.1531977E+001  0.2978171E+03  0.7546771E-02  0.1086337E+00
         21   -1    0    0  502  501  0.00000000000E+00  0.00000000000E+00  0.35149906029E+03  0.35149906029E+03  0.00000000000E+00 0. -1.
         21   -1    0    0  504  502 -0.00000000000E+00 -0.00000000000E+00 -0.25509981927E+03  0.25509981927E+03  0.00000000000E+00 0. -1.
         25    1    1    2    0    0  0.26738727790E+03  0.39674892894E+02  0.14742344691E+02  0.29818180736E+03  0.12500000000E+03 0.  0.
         21    1    1    2  503  501 -0.87266675714E+02 -0.60313248361E+02  0.69271661656E+02  0.12669539742E+03  0.00000000000E+00 0. -1.
         21    1    1    2  504  503 -0.18012060219E+03  0.20638355467E+02  0.12385234672E+02  0.18172167479E+03  0.00000000000E+00 0. -1.
<mgrwt>
<rscale>  4 0.29781715E+03</rscale>
<asrwt>0</asrwt>
<pdfrwt beam="1">  1       21 0.54076778E-01 0.29781715E+03</pdfrwt>
<pdfrwt beam="2">  1       21 0.39246126E-01 0.29781715E+03</pdfrwt>
<totfact> 0.19200269E+04</totfact>
</mgrwt>
</event>
<event>
 5    0  0.1531977E+001  0.3043386E+03  0.7546771E-02  0.1083092E+00
         21   -1    0    0  502  501  0.00000000000E+00  0.00000000000E+00  0.16648582932E+04  0.16648582932E+04  0.00000000000E+00 0.  1.
         21   -1    0    0  504  502 -0.00000000000E+00 -0.00000000000E+00 -0.17118851993E+03  0.17118851993E+03  0.00000000000E+00 0. -1.
         25    1    1    2    0    0  0.18439931550E+03 -0.22854695465E+03  0.13957339858E+04  0.14317594691E+04  0.12500000000E+03 0.  0.
         21    1    1    2  503  501 -0.38668278112E+01  0.19691657863E+02  0.12527375521E+03  0.12687090877E+03  0.00000000000E+00 0.  1.
         21    1    1    2  504  503 -0.18053248769E+03  0.20885529679E+03 -0.27337967746E+02  0.27741643532E+03  0.00000000000E+00 0. -1.
<mgrwt>
<rscale>  4 0.30433864E+03</rscale>
<asrwt>0</asrwt>
<pdfrwt beam="1">  1       21 0.25613203E+00 0.30433864E+03</pdfrwt>
<pdfrwt beam="2">  1       21 0.26336696E-01 0.30433864E+03</pdfrwt>
<totfact> 0.74963411E+02</totfact>
</mgrwt>
</event>
<event>
 5    0  0.1531977E+001  0.3112434E+03  0.7546771E-02  0.1079751E+00
         21   -1    0    0  503  501  0.00000000000E+00  0.00000000000E+00  0.97832958966E+03  0.97832958966E+03  0.00000000000E+00 0. -1.
         21   -1    0    0  504  502 -0.00000000000E+00 -0.00000000000E+00 -0.26449143806E+03  0.26449143806E+03  0.00000000000E+00 0. -1.
         25    1    1    2    0    0 -0.29546921279E+03  0.61519380362E+02  0.70142953028E+03  0.77376680972E+03  0.12500000000E+03 0.  0.
         21    1    1    2  503  502  0.38421397958E+02 -0.73357105398E+02 -0.14530653263E+03  0.16724669551E+03  0.00000000000E+00 0. -1.
         21    1    1    2  504  501  0.25704781483E+03  0.11837725036E+02  0.15771515396E+03  0.30180752249E+03  0.00000000000E+00 0. -1.
<mgrwt>
<rscale>  4 0.31124342E+03</rscale>
<asrwt>0</asrwt>
<pdfrwt beam="1">  1       21 0.15051224E+00 0.31124342E+03</pdfrwt>
<pdfrwt beam="2">  1       21 0.40690991E-01 0.31124342E+03</pdfrwt>
<totfact> 0.15716706E+03</totfact>
</mgrwt>
</event>
<event>
 5    0  0.1531977E+001  0.3368276E+03  0.7546771E-02  0.1068155E+00
         21   -1    0    0  504  501  0.00000000000E+00  0.00000000000E+00  0.25683294539E+04  0.25683294539E+04  0.00000000000E+00 0. -1.
         21   -1    0    0  503  502 -0.00000000000E+00 -0.00000000000E+00 -0.83824064468E+02  0.83824064468E+02  0.00000000000E+00 0. -1.
         25    1    1    2    0    0  0.26664429397E+03  0.18872490589E+03  0.82365785070E+03  0.89484832493E+03  0.12500000000E+03 0.  0.
         21    1    1    2  503  501 -0.30391245160E+03 -0.74041077447E+02  0.49710341108E+03  0.58733011219E+03  0.00000000000E+00 0. -1.
         21    1    1    2  504  502  0.37268157628E+02 -0.11468382844E+03  0.11637441276E+04  0.11699750812E+04  0.00000000000E+00 0. -1.
<mgrwt>
<rscale>  4 0.33682762E+03</rscale>
<asrwt>0</asrwt>
<pdfrwt beam="1">  1       21 0.39512755E+00 0.33682762E+03</pdfrwt>
<pdfrwt beam="2">  1       21 0.12896012E-01 0.33682762E+03</pdfrwt>
<totfact> 0.40503567E+02</totfact>
</mgrwt>
</event>
<event>
 5    0  0.1531977E+001  0.2695095E+03  0.7546771E-02  0.1101561E+00
         21   -1    0    0  502  501  0.00000000000E+00  0.00000000000E+00  0.42466229181E+03  0.42466229181E+03  0.00000000000E+00 0. -1.
         21   -1    0    0  504  502 -0.00000000000E+00 -0.00000000000E+00 -0.58101497684E+03  0.58101497684E+03  0.00000000000E+00 0. -1.
         25    1    1    2    0    0 -0.55266501631E+02  0.20937498593E+03 -0.29549920252E+03  0.38708790943E+03  0.12500000000E+03 0.  0.
         21    1    1    2  503  501  0.76560781219E+02  0.84423898088E+02  0.27240086952E+03  0.29528152923E+03  0.00000000000E+00 0. -1.
         21    1    1    2  504  503 -0.21294279588E+02 -0.29379888402E+03 -0.13325435203E+03  0.32330782999E+03  0.00000000000E+00 0. -1.
<mgrwt>
<rscale>  4 0.26950952E+03</rscale>
<asrwt>0</asrwt>
<pdfrwt beam="1">  1       21 0.65332660E-01 0.26950952E+03</pdfrwt>
<pdfrwt beam="2">  1       21 0.89386920E-01 0.26950952E+03</pdfrwt>
<totfact> 0.21684065E+03</totfact>
</mgrwt>
</event>
<event>
 5    0  0.1531977E+001  0.2620298E+03  0.7546771E-02  0.1105930E+00
         21   -1    0    0  504  501  0.00000000000E+00  0.00000000000E+00  0.60602870022E+03  0.60602870022E+03  0.00000000000E+00 0. -1.
         21   -1    0    0  503  502 -0.00000000000E+00 -0.00000000000E+00 -0.25647920307E+03  0.25647920307E+03  0.00000000000E+00 0.  1.
         25    1    1    2    0    0  0.21677424651E+03  0.11093147014E+03  0.46892583302E+03  0.54296712781E+03  0.12500000000E+03 0.  0.
         21    1    1    2  503  501 -0.19695118957E+03 -0.11637408275E+03 -0.15645309210E+03  0.27714665475E+03  0.00000000000E+00 0.  1.
         21    1    1    2  504  502 -0.19823056943E+02  0.54426126198E+01  0.37076756240E+02  0.42394120724E+02  0.00000000000E+00 0. -1.
<mgrwt>
<rscale>  4 0.26202977E+03</rscale>
<asrwt>0</asrwt>
<pdfrwt beam="1">  1       21 0.93235185E-01 0.26202977E+03</pdfrwt>
<pdfrwt beam="2">  1       21 0.39458339E-01 0.26202977E+03</pdfrwt>
<totfact> 0.57175580E+03</totfact>
</mgrwt>
</event>
<event>
 5    0  0.1531977E+001  0.3002771E+03  0.7546771E-02  0.1085102E+00
         21   -1    0    0  503  501  0.00000000000E+00  0.00000000000E+00  0.10866179397E+03  0.10866179397E+03  0.00000000000E+00 0.  1.
         21   -1    0    0  504  502 -0.00000000000E+00 -0.00000000000E+00 -0.11175831046E+04  0.11175831046E+04  0.00000000000E+00 0.  1.
         25    1    1    2    0    0 -0.23601703638E+03 -0.97882683468E+02 -0.33711358510E+03  0.44108460690E+03  0.12500000000E+03 0.  0.
         21    1    1    2  503  502  0.27787438841E+03  0.60037928293E+02 -0.67098541706E+03  0.72872502254E+03  0.00000000000E+00 0.  1.
         21    1    1    2  504  501 -0.41857352033E+02  0.37844755175E+02 -0.82230849084E+00  0.56435269156E+02  0.00000000000E+00 0.  1.
<mgrwt>
<rscale>  4 0.30027713E+03</rscale>
<asrwt>0</asrwt>
<pdfrwt beam="1">  1       21 0.16717199E-01 0.30027713E+03</pdfrwt>
<pdfrwt beam="2">  1       21 0.17193586E+00 0.30027713E+03</pdfrwt>
<totfact> 0.61794386E+03</totfact>
</mgrwt>
</event>
<event>
 5    0  0.1531977E+001  0.2783287E+03  0.7546771E-02  0.1096605E+00
         21   -1    0    0  502  501  0.00000000000E+00  0.00000000000E+00  0.65974983147E+03  0.65974983147E+03  0.00000000000E+00 0.  1.
         21   -1    0    0  504  502 -0.00000000000E+00 -0.00000000000E+00 -0.25692900604E+03  0.25692900604E+03  0.00000000000E+00 0.  1.
         25    1    1    2    0    0  0.82147109779E+02 -0.29766066770E+03  0.17207837731E+03  0.37494798130E+03  0.12500000000E+03 0.  0.
         21    1    1    2  503  501 -0.21981846711E+03  0.90623986337E+02  0.79465727880E+02  0.25069437028E+03  0.00000000000E+00 0.  1.
         21    1    1    2  504  503  0.13767135733E+03  0.20703668137E+03  0.15127672023E+03  0.29103648593E+03  0.00000000000E+00 0. -1.
<mgrwt>
<rscale>  4 0.27832871E+03</rscale>
<asrwt>0</asrwt>
<pdfrwt beam="1">  1       21 0.10149997E+00 0.27832871E+03</pdfrwt>
<pdfrwt beam="2">  1       21 0.39527540E-01 0.27832871E+03</pdfrwt>
<totfact> 0.46114755E+03</totfact>
</mgrwt>
</event>
<event>
 5    0  0.1531977E+001  0.2733477E+03  0.7546771E-02  0.1099379E+00
         21   -1    0    0  502  501  0.00000000000E+00  0.00000000000E+00  0.58982617102E+03  0.58982617102E+03  0.00000000000E+00 0. -1.
         21   -1    0    0  504  502 -0.00000000000E+00 -0.00000000000E+00 -0.17933185599E+03  0.17933185599E+03  0.00000000000E+00 0. -1.
         25    1    1    2    0    0 -0.11540026657E+03  0.17951306099E+03  0.68940046542E+02  0.25674869154E+03  0.12500000000E+03 0.  0.
         21    1    1    2  503  501  0.71726657247E+02 -0.24991000424E+03  0.34194435275E+03  0.42956450500E+03  0.00000000000E+00 0. -1.
         21    1    1    2  504  503  0.43673609318E+02  0.70396943249E+02 -0.39008426140E+00  0.82844830469E+02  0.00000000000E+00 0.  1.
<mgrwt>
<rscale>  4 0.27334769E+03</rscale>
<asrwt>0</asrwt>
<pdfrwt beam="1">  1       21 0.90742487E-01 0.27334769E+03</pdfrwt>
<pdfrwt beam="2">  1       21 0.27589517E-01 0.27334769E+03</pdfrwt>
<totfact> 0.12330286E+04</totfact>
</mgrwt>
</event>
<event>
 5    0  0.1531977E+001  0.2111979E+03  0.7546771E-02  0.1140621E+00
         21   -1    0    0  503  501  0.00000000000E+00  0.00000000000E+00  0.36691987270E+03  0.36691987270E+03  0.00000000000E+00 0. -1.
         21   -1    0    0  504  502 -0.00000000000E+00 -0.00000000000E+00 -0.36972561441E+03  0.36972561441E+03  0.00000000000E+00 0. -1.
         25    1    1    2    0    0  0.13535392447E+03  0.14734724703E+03 -0.28405670894E+03  0.36924938723E+03  0.12500000000E+03 0.  0.
         21    1    1    2  503  502 -0.14288198574E+02 -0.30616869371E+02 -0.62117168089E+01  0.34353030933E+02  0.00000000000E+00 0. -1.
         21    1    1    2  504  501 -0.12106572590E+03 -0.11673037766E+03  0.28746268404E+03  0.33304306894E+03  0.00000000000E+00 0. -1.
<mgrwt>
<rscale>  4 0.21119789E+03</rscale>
<asrwt>0</asrwt>
<pdfrwt beam="1">  1       21 0.56449211E-01 0.21119789E+03</pdfrwt>
<pdfrwt beam="2">  1       21 0.56880863E-01 0.21119789E+03</pdfrwt>
<totfact> 0.84630523E+03</totfact>
</mgrwt>
</event>
<event>
 5    0  0.1531977E+001  0.6502079E+03  0.7546771E-02  0.9806389E-01
         21   -1    0    0  502  501  0.00000000000E+00  0.00000000000E+00  0.95355079423E+03  0.95355079423E+03  0.00000000000E+00 0.  1.
         21   -1    0    0  504  502 -0.00000000000E+00 -0.00000000000E+00 -0.13827513074E+04  0.13827513074E+04  0.00000000000E+00 0. -1.
         25    1    1    2    0    0  0.51498450448E+02  0.71044819209E+03  0.56470374788E+03  0.91755329377E+03  0.12500000000E+03 0.  0.
         21    1    1    2  503  501 -0.24257306301E+02 -0.81257177378E+02  0.11535952555E+03  0.14317459942E+03  0.00000000000E+00 0.  1.
         21    1    1    2  504  503 -0.27241144147E+02 -0.62919101472E+03 -0.11092637866E+04  0.12755742084E+04  0.00000000000E+00 0. -1.
<mgrwt>
<rscale>  4 0.65020792E+03</rscale>
<asrwt>0</asrwt>
<pdfrwt beam="1">  1       21 0.14670012E+00 0.65020792E+03</pdfrwt>
<pdfrwt beam="2">  1       21 0.21273097E+00 0.65020792E+03</pdfrwt>
<totfact> 0.24345098E+01</totfact>
</mgrwt>
</event>
<event>
 5    0  0.1531977E+001  0.1953864E+03  0.7546771E-02  0.1153691E+00
         21   -1    0    0  504  501  0.00000000000E+00  0.00000000000E+00  0.10578936127E+04  0.10578936127E+04  0.00000000000E+00 0. -1.
         21   -1    0    0  503  502 -0.00000000000E+00 -0.00000000000E+00 -0.70417485520E+02  0.70417485520E+02  0.00000000000E+00 0. -1.
         25    1    1    2    0    0 -0.20537911126E+03 -0.11757963246E+02  0.21924913452E+03  0.32559793001E+03  0.12500000000E+03 0.  0.
         21    1    1    2  503  501  0.63040777381E+02  0.17113830490E+02  0.99794199341E+02  0.11927239844E+03  0.00000000000E+00 0. -1.
         21    1    1    2  504  502  0.14233833387E+03 -0.53558672447E+01  0.66843279335E+03  0.68344076980E+03  0.00000000000E+00 0. -1.
<mgrwt>
<rscale>  4 0.19538642E+03</rscale>
<asrwt>0</asrwt>
<pdfrwt beam="1">  1       21 0.16275285E+00 0.19538642E+03</pdfrwt>
<pdfrwt beam="2">  1       21 0.10833460E-01 0.19538642E+03</pdfrwt>
<totfact> 0.16891611E+04</totfact>
</mgrwt>
</event>
<event>
 5    0  0.1531977E+001  0.2490402E+03  0.7546771E-02  0.1113913E+00
         21   -1    0    0  504  501  0.00000000000E+00  0.00000000000E+00  0.27712109632E+04  0.27712109632E+04  0.00000000000E+00 0.  1.
         21   -1    0    0  503  502 -0.00000000000E+00 -0.00000000000E+00 -0.39748413262E+03  0.39748413262E+03  0.00000000000E+00 0. -1.
         25    1    1    2    0    0 -0.18042280386E+03  0.18225595912E+03  0.53600904123E+03  0.60720697877E+03  0.12500000000E+03 0.  0.
         21    1    1    2  503  501  0.43881909346E+02 -0.23091689221E+02 -0.35516054772E+03  0.35860544159E+03  0.00000000000E+00 0. -1.
         21    1    1    2  504  502  0.13654089451E+03 -0.15916426990E+03  0.21928783370E+04  0.22028826754E+04  0.00000000000E+00 0.  1.
<mgrwt>
<rscale>  4 0.24904019E+03</rscale>
<asrwt>0</asrwt>
<pdfrwt beam="1">  1       21 0.42634014E+00 0.24904019E+03</pdfrwt>
<pdfrwt beam="2">  1       21 0.61151407E-01 0.24904019E+03</pdfrwt>
<totfact> 0.13313211E+01</totfact>
</mgrwt>
</event>
<event>
 5    0  0.1531977E+001  0.2089314E+03  0.7546771E-02  0.1142415E+00
         21   -1    0    0  502  501  0.00000000000E+00  0.00000000000E+00  0.98638186607E+03  0.98638186607E+03  0.00000000000E+00 0.  1.
         21   -1    0    0  504  502 -0.00000000000E+00 -0.00000000000E+00 -0.56775251796E+02  0.56775251796E+02  0.00000000000E+00 0.  1.
         25    1    1    2    0    0  0.19474337781E+03 -0.61260315995E+02  0.53410811184E+03  0.58529845776E+03  0.12500000000E+03 0.  0.
         21    1    1    2  503  501 -0.48341293797E+02  0.14476674473E+02  0.21474741077E+03  0.22059670265E+03  0.00000000000E+00 0.  1.
         21    1    1    2  504  503 -0.14640208402E+03  0.46783641522E+02  0.18075109167E+03  0.23726195746E+03  0.00000000000E+00 0.  1.
<mgrwt>
<rscale>  4 0.20893140E+03</rscale>
<asrwt>0</asrwt>
<pdfrwt beam="1">  1       21 0.15175104E+00 0.20893140E+03</pdfrwt>
<pdfrwt beam="2">  1       21 0.87346548E-02 0.20893140E+03</pdfrwt>
<totfact> 0.29540027E+04</totfact>
</mgrwt>
</event>
<event>
 5    0  0.1531977E+001  0.2298200E+03  0.7546771E-02  0.1126767E+00
         21   -1    0    0  502  501  0.00000000000E+00  0.00000000000E+00  0.11596612568E+04  0.11596612568E+04  0.00000000000E+00 0.  1.
         21   -1    0    0  504  502 -0.00000000000E+00 -0.00000000000E+00 -0.54326870190E+03  0.54326870190E+03  0.00000000000E+00 0.  1.
         25    1    1    2    0    0  0.11321666170E+03  0.20164894806E+03  0.10635623995E+04  0.10955684772E+04  0.12500000000E+03 0.  0.
         21    1    1    2  503  501 -0.46405816079E+02 -0.21367902491E+02  0.51724934144E+02  0.72701828278E+02  0.00000000000E+00 0.  1.
         21    1    1    2  504  503 -0.66810845624E+02 -0.18028104557E+03 -0.49889477873E+03  0.53465965317E+03  0.00000000000E+00 0.  1.
<mgrwt>
<rscale>  4 0.22981997E+03</rscale>
<asrwt>0</asrwt>
<pdfrwt beam="1">  1       21 0.17840942E+00 0.22981997E+03</pdfrwt>
<pdfrwt beam="2">  1       21 0.83579801E-01 0.22981997E+03</pdfrwt>
<totfact> 0.22217533E+02</totfact>
</mgrwt>
</event>
