<event>
 5    0  0.3120399E-003  0.2338449E+03  0.7546771E-02  0.1123962E+00
         21   -1    0    0  503  501  0.00000000000E+00  0.00000000000E+00  0.44071052110E+03  0.44071052110E+03  0.00000000000E+00 0. -1.
         21   -1    0    0  501  502 -0.00000000000E+00 -0.00000000000E+00 -0.16715224748E+03  0.16715224748E+03  0.00000000000E+00 0. -1.
         25    1    1    2    0    0  0.57441277056E+02  0.21910180983E+03  0.62661805142E+02  0.26618904036E+03  0.12500000000E+03 0.  0.
         21    1    1    2  503  504 -0.24864269422E+02 -0.16630082061E+03  0.22215727248E+03  0.27861810520E+03  0.00000000000E+00 0. -1.
         21    1    1    2  504  502 -0.32577007634E+02 -0.52800989224E+02 -0.11260803997E+02  0.63055623033E+02  0.00000000000E+00 0. -1.
<mgrwt>
<rscale>  4 0.23384490E+03</rscale>
<asrwt>0</asrwt>
<pdfrwt beam="1">  1       21 0.67801618E-01 0.23384490E+03</pdfrwt>
<pdfrwt beam="2">  1       21 0.25715730E-01 0.23384490E+03</pdfrwt>
<totfact> 0.27906187E+04</totfact>
</mgrwt>
</event>
<event>
 5    0  0.3120399E-003  0.4497216E+03  0.7546771E-02  0.1027805E+00
         21   -1    0    0  502  501  0.00000000000E+00  0.00000000000E+00  0.69445485081E+03  0.69445485081E+03  0.00000000000E+00 0. -1.
         21   -1    0    0  504  502 -0.00000000000E+00 -0.00000000000E+00 -0.30745532650E+03  0.30745532650E+03  0.00000000000E+00 0. -1.
         25    1    1    2    0    0  0.28867647664E+03 -0.63259562388E+02  0.29534473524E+03  0.43610708895E+03  0.12500000000E+03 0.  0.
         21    1    1    2  503  501  0.89027342738E+02  0.14579373874E+03  0.13438063515E+02  0.17135420497E+03  0.00000000000E+00 0.  1.
         21    1    1    2  504  503 -0.37770381938E+03 -0.82534176352E+02  0.78216725559E+02  0.39444888338E+03  0.00000000000E+00 0. -1.
<mgrwt>
<rscale>  4 0.44972165E+03</rscale>
<asrwt>0</asrwt>
<pdfrwt beam="1">  1       21 0.10683921E+00 0.44972165E+03</pdfrwt>
<pdfrwt beam="2">  1       21 0.47300820E-01 0.44972165E+03</pdfrwt>
<totfact> 0.25960781E+03</totfact>
</mgrwt>
</event>
<event>
 5    0  0.3120399E-003  0.2416287E+03  0.7546771E-02  0.1118713E+00
         21   -1    0    0  502  501  0.00000000000E+00  0.00000000000E+00  0.48147792942E+03  0.48147792942E+03  0.00000000000E+00 0.  1.
         21   -1    0    0  503  502 -0.00000000000E+00 -0.00000000000E+00 -0.15803109760E+03  0.15803109760E+03  0.00000000000E+00 0.  1.
         25    1    1    2    0    0 -0.23059436764E+03 -0.14128849989E+02  0.13225556303E+03  0.29409168764E+03  0.12500000000E+03 0.  0.
         21    1    1    2  503  504  0.15173375170E+03  0.32624367255E+02  0.20587447819E+02  0.15656092664E+03  0.00000000000E+00 0.  1.
         21    1    1    2  504  501  0.78860615935E+02 -0.18495517266E+02  0.17060382096E+03  0.18885641273E+03  0.00000000000E+00 0.  1.
<mgrwt>
<rscale>  4 0.24162870E+03</rscale>
<asrwt>0</asrwt>
<pdfrwt beam="1">  1       21 0.74073527E-01 0.24162870E+03</pdfrwt>
<pdfrwt beam="2">  1       21 0.24312477E-01 0.24162870E+03</pdfrwt>
<totfact> 0.25436632E+04</totfact>
</mgrwt>
</event>
<event>
 5    0  0.3120399E-003  0.3933240E+03  0.7546771E-02  0.1046116E+00
         21   -1    0    0  503  501  0.00000000000E+00  0.00000000000E+00  0.14317704173E+04  0.14317704173E+04  0.00000000000E+00 0.  1.
         21   -1    0    0  501  502 -0.00000000000E+00 -0.00000000000E+00 -0.14732510431E+03  0.14732510431E+03  0.00000000000E+00 0.  1.
         25    1    1    2    0    0 -0.46922990730E+01 -0.23772637274E+03  0.58549913693E+03  0.64418171762E+03  0.12500000000E+03 0.  0.
         21    1    1    2  503  504 -0.14540577430E+03 -0.80316351726E+02  0.50856574688E+03  0.53500717234E+03  0.00000000000E+00 0.  1.
         21    1    1    2  504  502  0.15009807338E+03  0.31804272446E+03  0.19038042915E+03  0.39990663163E+03  0.00000000000E+00 0.  1.
<mgrwt>
<rscale>  4 0.39332395E+03</rscale>
<asrwt>0</asrwt>
<pdfrwt beam="1">  1       21 0.22027236E+00 0.39332395E+03</pdfrwt>
<pdfrwt beam="2">  1       21 0.22665402E-01 0.39332395E+03</pdfrwt>
<totfact> 0.15717506E+03</totfact>
</mgrwt>
</event>
<event>
 5    0  0.3120399E-003  0.3508707E+03  0.7546771E-02  0.1062258E+00
         21   -1    0    0  502  501  0.00000000000E+00  0.00000000000E+00  0.13364767678E+03  0.13364767678E+03  0.00000000000E+00 0.  1.
         21   -1    0    0  503  502 -0.00000000000E+00 -0.00000000000E+00 -0.10027580166E+04  0.10027580166E+04  0.00000000000E+00 0.  1.
         25    1    1    2    0    0  0.28856899504E+03 -0.11998427858E+03 -0.43763125229E+03  0.55209999546E+03  0.12500000000E+03 0.  0.
         21    1    1    2  503  504 -0.40640153506E+02 -0.43710072937E+02 -0.19695808176E+03  0.20580252312E+03  0.00000000000E+00 0. -1.
         21    1    1    2  504  501 -0.24792884154E+03  0.16369435152E+03 -0.23452100579E+03  0.37850317481E+03  0.00000000000E+00 0.  1.
<mgrwt>
<rscale>  4 0.35087072E+03</rscale>
<asrwt>0</asrwt>
<pdfrwt beam="1">  1       21 0.20561181E-01 0.35087072E+03</pdfrwt>
<pdfrwt beam="2">  1       21 0.15427047E+00 0.35087072E+03</pdfrwt>
<totfact> 0.55157752E+03</totfact>
</mgrwt>
</event>
<event>
 5    0  0.3120399E-003  0.5621021E+03  0.7546771E-02  0.9987310E-01
         21   -1    0    0  502  501  0.00000000000E+00  0.00000000000E+00  0.35618472998E+03  0.35618472998E+03  0.00000000000E+00 0. -1.
         21   -1    0    0  504  502 -0.00000000000E+00 -0.00000000000E+00 -0.11262424184E+04  0.11262424184E+04  0.00000000000E+00 0. -1.
         25    1    1    2    0    0 -0.73437292734E+02 -0.24124735582E+03  0.65378715043E+02  0.28895103225E+03  0.12500000000E+03 0.  0.
         21    1    1    2  503  501  0.19504816512E+03 -0.24414617747E+03 -0.15491424109E+03  0.34878297662E+03  0.00000000000E+00 0. -1.
         21    1    1    2  504  503 -0.12161087239E+03  0.48539353329E+03 -0.68052216234E+03  0.84469313948E+03  0.00000000000E+00 0. -1.
<mgrwt>
<rscale>  4 0.56210208E+03</rscale>
<asrwt>0</asrwt>
<pdfrwt beam="1">  1       21 0.54797651E-01 0.56210208E+03</pdfrwt>
<pdfrwt beam="2">  1       21 0.17326806E+00 0.56210208E+03</pdfrwt>
<totfact> 0.50391575E+02</totfact>
</mgrwt>
</event>
<event>
 5    0  0.3120399E-003  0.2337503E+03  0.7546771E-02  0.1124028E+00
         21   -1    0    0  504  501  0.00000000000E+00  0.00000000000E+00  0.16827108955E+03  0.16827108955E+03  0.00000000000E+00 0. -1.
         21   -1    0    0  501  502 -0.00000000000E+00 -0.00000000000E+00 -0.67092443865E+03  0.67092443865E+03  0.00000000000E+00 0. -1.
         25    1    1    2    0    0 -0.85668523732E+02  0.24836217867E+03 -0.17932594865E+03  0.34176843566E+03  0.12500000000E+03 0.  0.
         21    1    1    2  503  502  0.17873793953E+01 -0.11813401948E+03 -0.32148931579E+03  0.34251163696E+03  0.00000000000E+00 0. -1.
         21    1    1    2  504  503  0.83881144337E+02 -0.13022815920E+03 -0.18380846522E+01  0.15491545558E+03  0.00000000000E+00 0. -1.
<mgrwt>
<rscale>  4 0.23375025E+03</rscale>
<asrwt>0</asrwt>
<pdfrwt beam="1">  1       21 0.25887860E-01 0.23375025E+03</pdfrwt>
<pdfrwt beam="2">  1       21 0.10321914E+00 0.23375025E+03</pdfrwt>
<totfact> 0.10496712E+04</totfact>
</mgrwt>
</event>
<event>
 5    0  0.3120399E-003  0.4924949E+03  0.7546771E-02  0.1015757E+00
         21   -1    0    0  503  501  0.00000000000E+00  0.00000000000E+00  0.54318910176E+03  0.54318910176E+03  0.00000000000E+00 0. -1.
         21   -1    0    0  501  502 -0.00000000000E+00 -0.00000000000E+00 -0.45536320531E+03  0.45536320531E+03  0.00000000000E+00 0. -1.
         25    1    1    2    0    0 -0.38529346231E+03  0.14475654248E+03  0.88077728504E+02  0.43907652516E+03  0.12500000000E+03 0.  0.
         21    1    1    2  503  504  0.38556878812E+03 -0.21602390531E+03  0.83210062271E+02  0.44972606385E+03  0.00000000000E+00 0. -1.
         21    1    1    2  504  502 -0.27532581362E+00  0.71267362828E+02 -0.83461894326E+02  0.10974971806E+03  0.00000000000E+00 0.  1.
<mgrwt>
<rscale>  4 0.49249495E+03</rscale>
<asrwt>0</asrwt>
<pdfrwt beam="1">  1       21 0.83567554E-01 0.49249495E+03</pdfrwt>
<pdfrwt beam="2">  1       21 0.70055878E-01 0.49249495E+03</pdfrwt>
<totfact> 0.19588619E+03</totfact>
</mgrwt>
</event>
<event>
 5    0  0.3120399E-003  0.2793505E+03  0.7546771E-02  0.1096044E+00
         21   -1    0    0  504  501  0.00000000000E+00  0.00000000000E+00  0.18644384042E+04  0.18644384042E+04  0.00000000000E+00 0.  1.
         21   -1    0    0  501  502 -0.00000000000E+00 -0.00000000000E+00 -0.53539141757E+02  0.53539141757E+02  0.00000000000E+00 0.  1.
         25    1    1    2    0    0 -0.15669662544E+03 -0.23749545797E+03  0.98458663884E+03  0.10324697450E+04  0.12500000000E+03 0.  0.
         21    1    1    2  503  502  0.12895053183E+02  0.14565581150E+03  0.42406725246E+03  0.44856987464E+03  0.00000000000E+00 0.  1.
         21    1    1    2  504  503  0.14380157225E+03  0.91839646473E+02  0.40224537115E+03  0.43693792632E+03  0.00000000000E+00 0.  1.
<mgrwt>
<rscale>  4 0.27935051E+03</rscale>
<asrwt>0</asrwt>
<pdfrwt beam="1">  1       21 0.28683663E+00 0.27935051E+03</pdfrwt>
<pdfrwt beam="2">  1       21 0.82367925E-02 0.27935051E+03</pdfrwt>
<totfact> 0.42681971E+03</totfact>
</mgrwt>
</event>
<event>
 5    0  0.3120399E-003  0.3382413E+03  0.7546771E-02  0.1067547E+00
         21   -1    0    0  502  501  0.00000000000E+00  0.00000000000E+00  0.24472646594E+03  0.24472646594E+03  0.00000000000E+00 0. -1.
         21   -1    0    0  504  502 -0.00000000000E+00 -0.00000000000E+00 -0.55965384695E+03  0.55965384695E+03  0.00000000000E+00 0. -1.
         25    1    1    2    0    0  0.22312245987E+03 -0.21740563425E+03 -0.31934347456E+02  0.33718488171E+03  0.12500000000E+03 0.  0.
         21    1    1    2  503  501 -0.17587337568E+03  0.13451194274E+03 -0.67423229482E+02  0.23145366466E+03  0.00000000000E+00 0. -1.
         21    1    1    2  504  503 -0.47249084194E+02  0.82893691511E+02 -0.21556980408E+03  0.23574176651E+03  0.00000000000E+00 0.  1.
<mgrwt>
<rscale>  4 0.33824125E+03</rscale>
<asrwt>0</asrwt>
<pdfrwt beam="1">  1       21 0.37650226E-01 0.33824125E+03</pdfrwt>
<pdfrwt beam="2">  1       21 0.86100592E-01 0.33824125E+03</pdfrwt>
<totfact> 0.72961973E+03</totfact>
</mgrwt>
</event>
<event>
 5    0  0.3120399E-003  0.6198647E+03  0.7546771E-02  0.9865029E-01
         21   -1    0    0  503  501  0.00000000000E+00  0.00000000000E+00  0.83406614303E+03  0.83406614303E+03  0.00000000000E+00 0.  1.
         21   -1    0    0  501  502 -0.00000000000E+00 -0.00000000000E+00 -0.87577757342E+03  0.87577757342E+03  0.00000000000E+00 0.  1.
         25    1    1    2    0    0  0.12575692301E+03 -0.47856217004E+03 -0.58979755586E+03  0.77995045431E+03  0.12500000000E+03 0.  0.
         21    1    1    2  503  504  0.37047905537E+02  0.52022385791E+03  0.55513360542E+03  0.76169464322E+03  0.00000000000E+00 0.  1.
         21    1    1    2  504  502 -0.16280482855E+03 -0.41661687867E+02 -0.70474799506E+01  0.16819861893E+03  0.00000000000E+00 0. -1.
<mgrwt>
<rscale>  4 0.61986466E+03</rscale>
<asrwt>0</asrwt>
<pdfrwt beam="1">  1       21 0.12831787E+00 0.61986466E+03</pdfrwt>
<pdfrwt beam="2">  1       21 0.13473501E+00 0.61986466E+03</pdfrwt>
<totfact> 0.13245795E+02</totfact>
</mgrwt>
</event>
<event>
 5    0  0.3120399E-003  0.1877232E+03  0.7546771E-02  0.1160531E+00
         21   -1    0    0  503  501  0.00000000000E+00  0.00000000000E+00  0.93389648652E+02  0.93389648652E+02  0.00000000000E+00 0. -1.
         21   -1    0    0  501  502 -0.00000000000E+00 -0.00000000000E+00 -0.73575254802E+03  0.73575254802E+03  0.00000000000E+00 0. -1.
         25    1    1    2    0    0 -0.18088837696E+03 -0.11452254880E+03 -0.28140265045E+03  0.37503129307E+03  0.12500000000E+03 0.  0.
         21    1    1    2  503  504  0.69203552543E+02 -0.40643678919E+02 -0.14465980971E+03  0.16543125722E+03  0.00000000000E+00 0.  1.
         21    1    1    2  504  502  0.11168482442E+03  0.15516622772E+03 -0.21630043920E+03  0.28867964637E+03  0.00000000000E+00 0. -1.
<mgrwt>
<rscale>  4 0.18772319E+03</rscale>
<asrwt>0</asrwt>
<pdfrwt beam="1">  1       21 0.14367638E-01 0.18772319E+03</pdfrwt>
<pdfrwt beam="2">  1       21 0.11319270E+00 0.18772319E+03</pdfrwt>
<totfact> 0.25924588E+04</totfact>
</mgrwt>
</event>
<event>
 5    0  0.3120399E-003  0.3782952E+03  0.7546771E-02  0.1051566E+00
         21   -1    0    0  503  501  0.00000000000E+00  0.00000000000E+00  0.11264972518E+04  0.11264972518E+04  0.00000000000E+00 0.  1.
         21   -1    0    0  501  502 -0.00000000000E+00 -0.00000000000E+00 -0.13680012262E+03  0.13680012262E+03  0.00000000000E+00 0.  1.
         25    1    1    2    0    0 -0.11467769503E+03 -0.17877561445E+03  0.16314107568E+03  0.29555321794E+03  0.12500000000E+03 0.  0.
         21    1    1    2  503  504  0.28242296165E+03  0.17814167085E+03  0.58637876666E+03  0.67478681237E+03  0.00000000000E+00 0.  1.
         21    1    1    2  504  502 -0.16774526663E+03  0.63394359826E+00  0.24017728686E+03  0.29295734413E+03  0.00000000000E+00 0.  1.
<mgrwt>
<rscale>  4 0.37829521E+03</rscale>
<asrwt>0</asrwt>
<pdfrwt beam="1">  1       21 0.17330726E+00 0.37829521E+03</pdfrwt>
<pdfrwt beam="2">  1       21 0.21046173E-01 0.37829521E+03</pdfrwt>
<totfact> 0.37680329E+03</totfact>
</mgrwt>
</event>
<event>
 5    0  0.3120399E-003  0.3959475E+03  0.7546771E-02  0.1045192E+00
         21   -1    0    0  503  501  0.00000000000E+00  0.00000000000E+00  0.60850413142E+03  0.60850413142E+03  0.00000000000E+00 0.  1.
         21   -1    0    0  501  502 -0.00000000000E+00 -0.00000000000E+00 -0.26936776926E+03  0.26936776926E+03  0.00000000000E+00 0.  1.
         25    1    1    2    0    0 -0.24251213436E+03  0.25417997811E+03  0.26496122039E+03  0.45743747649E+03  0.12500000000E+03 0.  0.
         21    1    1    2  503  504  0.64202038051E+02  0.32607787233E+02 -0.92008390266E+01  0.72593559748E+02  0.00000000000E+00 0. -1.
         21    1    1    2  504  502  0.17831009631E+03 -0.28678776535E+03  0.83375980797E+02  0.34784086444E+03  0.00000000000E+00 0.  1.
<mgrwt>
<rscale>  4 0.39594749E+03</rscale>
<asrwt>0</asrwt>
<pdfrwt beam="1">  1       21 0.93616020E-01 0.39594749E+03</pdfrwt>
<pdfrwt beam="2">  1       21 0.41441195E-01 0.39594749E+03</pdfrwt>
<totfact> 0.48100224E+03</totfact>
</mgrwt>
</event>
<event>
 5    0  0.3120399E-003  0.3999997E+03  0.7546771E-02  0.1043780E+00
         21   -1    0    0  502  501  0.00000000000E+00  0.00000000000E+00  0.13756471473E+03  0.13756471473E+03  0.00000000000E+00 0.  1.
         21   -1    0    0  504  502 -0.00000000000E+00 -0.00000000000E+00 -0.18282994152E+04  0.18282994152E+04  0.00000000000E+00 0.  1.
         25    1    1    2    0    0 -0.25249543751E+02  0.34792805347E+03 -0.20065703820E+03  0.42140208452E+03  0.12500000000E+03 0.  0.
         21    1    1    2  503  501 -0.54793553526E+02 -0.30515795597E+03 -0.12479253840E+04  0.12858621527E+04  0.00000000000E+00 0.  1.
         21    1    1    2  504  503  0.80043097277E+02 -0.42770097502E+02 -0.24215227824E+03  0.25859989273E+03  0.00000000000E+00 0. -1.
<mgrwt>
<rscale>  4 0.39999967E+03</rscale>
<asrwt>0</asrwt>
<pdfrwt beam="1">  1       21 0.21163802E-01 0.39999967E+03</pdfrwt>
<pdfrwt beam="2">  1       21 0.28127684E+00 0.39999967E+03</pdfrwt>
<totfact> 0.75524166E+02</totfact>
</mgrwt>
</event>
<event>
 5    0  0.3120399E-003  0.3787304E+03  0.7546771E-02  0.1051404E+00
         21   -1    0    0  502  501  0.00000000000E+00  0.00000000000E+00  0.22378442208E+03  0.22378442208E+03  0.00000000000E+00 0.  1.
         21   -1    0    0  503  502 -0.00000000000E+00 -0.00000000000E+00 -0.66882754143E+03  0.66882754143E+03  0.00000000000E+00 0.  1.
         25    1    1    2    0    0  0.22532195048E+02  0.26652133955E+03 -0.14752818676E+03  0.33004679992E+03  0.12500000000E+03 0.  0.
         21    1    1    2  503  504  0.14474178501E+03 -0.27395065280E+03 -0.20047902613E+03  0.36904062705E+03  0.00000000000E+00 0.  1.
         21    1    1    2  504  501 -0.16727398006E+03  0.74293132560E+01 -0.97035906460E+02  0.19352453654E+03  0.00000000000E+00 0.  1.
<mgrwt>
<rscale>  4 0.37873039E+03</rscale>
<asrwt>0</asrwt>
<pdfrwt beam="1">  1       21 0.34428373E-01 0.37873039E+03</pdfrwt>
<pdfrwt beam="2">  1       21 0.10289654E+00 0.37873039E+03</pdfrwt>
<totfact> 0.56267049E+03</totfact>
</mgrwt>
</event>
<event>
 5    0  0.3120399E-003  0.5842738E+03  0.7546771E-02  0.9938581E-01
         21   -1    0    0  503  501  0.00000000000E+00  0.00000000000E+00  0.95426277720E+03  0.95426277720E+03  0.00000000000E+00 0. -1.
         21   -1    0    0  501  502 -0.00000000000E+00 -0.00000000000E+00 -0.37855791831E+03  0.37855791831E+03  0.00000000000E+00 0. -1.
         25    1    1    2    0    0 -0.26401557962E+03 -0.16350263549E+03 -0.56867035122E+02  0.33955293811E+03  0.12500000000E+03 0.  0.
         21    1    1    2  503  504  0.35952271365E+03  0.38220203986E+03  0.39746119347E+03  0.65826315499E+03  0.00000000000E+00 0.  1.
         21    1    1    2  504  502 -0.95507134036E+02 -0.21869940437E+03  0.23511070054E+03  0.33500460241E+03  0.00000000000E+00 0. -1.
<mgrwt>
<rscale>  4 0.58427379E+03</rscale>
<asrwt>0</asrwt>
<pdfrwt beam="1">  1       21 0.14680966E+00 0.58427379E+03</pdfrwt>
<pdfrwt beam="2">  1       21 0.58239680E-01 0.58427379E+03</pdfrwt>
<totfact> 0.69669619E+02</totfact>
</mgrwt>
</event>
<event>
 5    0  0.3120399E-003  0.4871953E+03  0.7546771E-02  0.1017176E+00
         21   -1    0    0  503  501  0.00000000000E+00  0.00000000000E+00  0.75745637097E+03  0.75745637097E+03  0.00000000000E+00 0.  1.
         21   -1    0    0  501  502 -0.00000000000E+00 -0.00000000000E+00 -0.33825148721E+03  0.33825148721E+03  0.00000000000E+00 0.  1.
         25    1    1    2    0    0 -0.24662577325E+03  0.11165710336E+03  0.23045705668E+03  0.37686474462E+03  0.12500000000E+03 0.  0.
         21    1    1    2  503  504  0.76237598457E+02 -0.36334138627E+03  0.18520702601E+03  0.41488646263E+03  0.00000000000E+00 0.  1.
         21    1    1    2  504  502  0.17038817480E+03  0.25168428290E+03  0.35408010727E+01  0.30395665093E+03  0.00000000000E+00 0.  1.
<mgrwt>
<rscale>  4 0.48719530E+03</rscale>
<asrwt>0</asrwt>
<pdfrwt beam="1">  1       21 0.11653175E+00 0.48719530E+03</pdfrwt>
<pdfrwt beam="2">  1       21 0.52038690E-01 0.48719530E+03</pdfrwt>
<totfact> 0.16837793E+03</totfact>
</mgrwt>
</event>
<event>
 5    0  0.3120399E-003  0.4472982E+03  0.7546771E-02  0.1028531E+00
         21   -1    0    0  503  501  0.00000000000E+00  0.00000000000E+00  0.19062724320E+03  0.19062724320E+03  0.00000000000E+00 0.  1.
         21   -1    0    0  501  502 -0.00000000000E+00 -0.00000000000E+00 -0.11763826130E+04  0.11763826130E+04  0.00000000000E+00 0.  1.
         25    1    1    2    0    0 -0.32081916168E+03  0.25280364873E+03 -0.23354407823E+03  0.48682898002E+03  0.12500000000E+03 0.  0.
         21    1    1    2  503  504  0.62559918649E+02  0.33826903946E+02 -0.12437269062E+03  0.14327096364E+03  0.00000000000E+00 0. -1.
         21    1    1    2  504  502  0.25825924303E+03 -0.28663055268E+03 -0.62783860092E+03  0.73690991250E+03  0.00000000000E+00 0.  1.
<mgrwt>
<rscale>  4 0.44729823E+03</rscale>
<asrwt>0</asrwt>
<pdfrwt beam="1">  1       21 0.29327269E-01 0.44729823E+03</pdfrwt>
<pdfrwt beam="2">  1       21 0.18098194E+00 0.44729823E+03</pdfrwt>
<totfact> 0.16927843E+03</totfact>
</mgrwt>
</event>
<event>
 5    0  0.3120399E-003  0.2589757E+03  0.7546771E-02  0.1107760E+00
         21   -1    0    0  504  501  0.00000000000E+00  0.00000000000E+00  0.52896130072E+03  0.52896130072E+03  0.00000000000E+00 0.  1.
         21   -1    0    0  501  502 -0.00000000000E+00 -0.00000000000E+00 -0.30855141300E+03  0.30855141300E+03  0.00000000000E+00 0.  1.
         25    1    1    2    0    0 -0.24182458838E+03 -0.66577035311E+02  0.40972757908E+03  0.49640036486E+03  0.12500000000E+03 0.  0.
         21    1    1    2  503  502  0.15226125599E+03  0.49855076944E+02 -0.19186921721E+03  0.24996562821E+03  0.00000000000E+00 0.  1.
         21    1    1    2  504  503  0.89563332392E+02  0.16721958367E+02  0.25515258561E+01  0.91146720649E+02  0.00000000000E+00 0. -1.
<mgrwt>
<rscale>  4 0.25897574E+03</rscale>
<asrwt>0</asrwt>
<pdfrwt beam="1">  1       21 0.81378662E-01 0.25897574E+03</pdfrwt>
<pdfrwt beam="2">  1       21 0.47469448E-01 0.25897574E+03</pdfrwt>
<totfact> 0.53673645E+03</totfact>
</mgrwt>
</event>
<event>
 5    0  0.3120399E-003  0.5689169E+03  0.7546771E-02  0.9972078E-01
         21   -1    0    0  503  501  0.00000000000E+00  0.00000000000E+00  0.11648406180E+04  0.11648406180E+04  0.00000000000E+00 0. -1.
         21   -1    0    0  501  502 -0.00000000000E+00 -0.00000000000E+00 -0.30094493464E+03  0.30094493464E+03  0.00000000000E+00 0. -1.
         25    1    1    2    0    0  0.25797340404E+03  0.29653588004E+03  0.42303154321E+03  0.59081680062E+03  0.12500000000E+03 0.  0.
         21    1    1    2  503  504  0.20614518046E+03 -0.92762999759E+02  0.24011288334E+03  0.32978023939E+03  0.00000000000E+00 0. -1.
         21    1    1    2  504  502 -0.46411858450E+03 -0.20377288028E+03  0.20075125686E+03  0.54518851267E+03  0.00000000000E+00 0. -1.
<mgrwt>
<rscale>  4 0.56891694E+03</rscale>
<asrwt>0</asrwt>
<pdfrwt beam="1">  1       21 0.17920625E+00 0.56891694E+03</pdfrwt>
<pdfrwt beam="2">  1       21 0.46299221E-01 0.56891694E+03</pdfrwt>
<totfact> 0.65335741E+02</totfact>
</mgrwt>
</event>
<event>
 5    0  0.3120399E-003  0.3068771E+03  0.7546771E-02  0.1081852E+00
         21   -1    0    0  502  501  0.00000000000E+00  0.00000000000E+00  0.40831031882E+03  0.40831031882E+03  0.00000000000E+00 0. -1.
         21   -1    0    0  504  502 -0.00000000000E+00 -0.00000000000E+00 -0.27422269420E+03  0.27422269420E+03  0.00000000000E+00 0. -1.
         25    1    1    2    0    0 -0.16022720646E+03 -0.16338651684E+03 -0.38295799844E+02  0.26355166450E+03  0.12500000000E+03 0.  0.
         21    1    1    2  503  501  0.23506363669E+03  0.64670517333E+02  0.16598943795E+03  0.29494013396E+03  0.00000000000E+00 0. -1.
         21    1    1    2  504  503 -0.74836430227E+02  0.98715999504E+02  0.63939865108E+01  0.12404121457E+03  0.00000000000E+00 0.  1.
<mgrwt>
<rscale>  4 0.30687706E+03</rscale>
<asrwt>0</asrwt>
<pdfrwt beam="1">  1       21 0.62816972E-01 0.30687706E+03</pdfrwt>
<pdfrwt beam="2">  1       21 0.42188107E-01 0.30687706E+03</pdfrwt>
<totfact> 0.11934745E+04</totfact>
</mgrwt>
</event>
<event>
 5    0  0.3120399E-003  0.4157930E+03  0.7546771E-02  0.1038444E+00
         21   -1    0    0  504  501  0.00000000000E+00  0.00000000000E+00  0.23491231720E+04  0.23491231720E+04  0.00000000000E+00 0.  1.
         21   -1    0    0  501  502 -0.00000000000E+00 -0.00000000000E+00 -0.79501134204E+02  0.79501134204E+02  0.00000000000E+00 0.  1.
         25    1    1    2    0    0 -0.91926201803E+02 -0.24261754977E+03  0.77447527167E+03  0.82628726752E+03  0.12500000000E+03 0.  0.
         21    1    1    2  503  502 -0.19201264659E+03  0.43985739058E+02  0.30761914600E+03  0.36528501293E+03  0.00000000000E+00 0.  1.
         21    1    1    2  504  503  0.28393884839E+03  0.19863181071E+03  0.11875276201E+04  0.12370520257E+04  0.00000000000E+00 0.  1.
<mgrwt>
<rscale>  4 0.41579303E+03</rscale>
<asrwt>0</asrwt>
<pdfrwt beam="1">  1       21 0.36140351E+00 0.41579303E+03</pdfrwt>
<pdfrwt beam="2">  1       21 0.12230946E-01 0.41579303E+03</pdfrwt>
<totfact> 0.68194083E+02</totfact>
</mgrwt>
</event>
<event>
 5    0  0.3120399E-003  0.4841231E+03  0.7546771E-02  0.1018008E+00
         21   -1    0    0  502  501  0.00000000000E+00  0.00000000000E+00  0.23254748475E+03  0.23254748475E+03  0.00000000000E+00 0. -1.
         21   -1    0    0  504  502 -0.00000000000E+00 -0.00000000000E+00 -0.10122920972E+04  0.10122920972E+04  0.00000000000E+00 0. -1.
         25    1    1    2    0    0 -0.35170886801E+03  0.49151596213E+02 -0.30739843022E+03  0.48603888955E+03  0.12500000000E+03 0.  0.
         21    1    1    2  503  501 -0.67120535131E+02  0.12370874128E+03 -0.10969027101E+03  0.17844039470E+03  0.00000000000E+00 0. -1.
         21    1    1    2  504  503  0.41882940314E+03 -0.17286033750E+03 -0.36265591123E+03  0.58036029772E+03  0.00000000000E+00 0. -1.
<mgrwt>
<rscale>  4 0.48412313E+03</rscale>
<asrwt>0</asrwt>
<pdfrwt beam="1">  1       21 0.35776537E-01 0.48412313E+03</pdfrwt>
<pdfrwt beam="2">  1       21 0.15573724E+00 0.48412313E+03</pdfrwt>
<totfact> 0.17155489E+03</totfact>
</mgrwt>
</event>
<event>
 5    0  0.3120399E-003  0.4510965E+03  0.7546771E-02  0.1027396E+00
         21   -1    0    0  503  501  0.00000000000E+00  0.00000000000E+00  0.22636804595E+03  0.22636804595E+03  0.00000000000E+00 0.  1.
         21   -1    0    0  501  502 -0.00000000000E+00 -0.00000000000E+00 -0.98173884021E+03  0.98173884021E+03  0.00000000000E+00 0.  1.
         25    1    1    2    0    0  0.25532620696E+03 -0.16821044109E+03 -0.26709412947E+03  0.42479465445E+03  0.12500000000E+03 0.  0.
         21    1    1    2  503  504  0.42447644322E+02 -0.11606144500E+03  0.24233461621E+02  0.12593380081E+03  0.00000000000E+00 0.  1.
         21    1    1    2  504  502 -0.29777385128E+03  0.28427188609E+03 -0.51251012642E+03  0.65737843090E+03  0.00000000000E+00 0. -1.
<mgrwt>
<rscale>  4 0.45109650E+03</rscale>
<asrwt>0</asrwt>
<pdfrwt beam="1">  1       21 0.34825853E-01 0.45109650E+03</pdfrwt>
<pdfrwt beam="2">  1       21 0.15103674E+00 0.45109650E+03</pdfrwt>
<totfact> 0.19959152E+03</totfact>
</mgrwt>
</event>
<event>
 5    0  0.3120399E-003  0.3086377E+03  0.7546771E-02  0.1081001E+00
         21   -1    0    0  502  501  0.00000000000E+00  0.00000000000E+00  0.21917651701E+03  0.21917651701E+03  0.00000000000E+00 0.  1.
         21   -1    0    0  503  502 -0.00000000000E+00 -0.00000000000E+00 -0.49916040384E+03  0.49916040384E+03  0.00000000000E+00 0.  1.
         25    1    1    2    0    0  0.15713311729E+03 -0.12840774849E+03 -0.17227793137E+03  0.29408170983E+03  0.12500000000E+03 0.  0.
         21    1    1    2  503  504 -0.21199854976E+03 -0.36193748903E+02 -0.12686488265E+03  0.24969595713E+03  0.00000000000E+00 0.  1.
         21    1    1    2  504  501  0.54865432473E+02  0.16460149740E+03  0.19158927191E+02  0.17455925388E+03  0.00000000000E+00 0.  1.
<mgrwt>
<rscale>  4 0.30863767E+03</rscale>
<asrwt>0</asrwt>
<pdfrwt beam="1">  1       21 0.33719465E-01 0.30863767E+03</pdfrwt>
<pdfrwt beam="2">  1       21 0.76793907E-01 0.30863767E+03</pdfrwt>
<totfact> 0.12002026E+04</totfact>
</mgrwt>
</event>
<event>
 5    0  0.3120399E-003  0.3106126E+03  0.7546771E-02  0.1080053E+00
         21   -1    0    0  502  501  0.00000000000E+00  0.00000000000E+00  0.20711719168E+03  0.20711719168E+03  0.00000000000E+00 0.  1.
         21   -1    0    0  503  502 -0.00000000000E+00 -0.00000000000E+00 -0.56320900359E+03  0.56320900359E+03  0.00000000000E+00 0.  1.
         25    1    1    2    0    0  0.15283696680E+03  0.18353276055E+03 -0.40555651557E+02  0.27260442676E+03  0.12500000000E+03 0.  0.
         21    1    1    2  503  504 -0.19969702580E+03 -0.21465506269E+03 -0.32817904770E+03  0.44006497861E+03  0.00000000000E+00 0. -1.
         21    1    1    2  504  501  0.46860059001E+02  0.31122302132E+02  0.12642887345E+02  0.57656789887E+02  0.00000000000E+00 0.  1.
<mgrwt>
<rscale>  4 0.31061263E+03</rscale>
<asrwt>0</asrwt>
<pdfrwt beam="1">  1       21 0.31864184E-01 0.31061263E+03</pdfrwt>
<pdfrwt beam="2">  1       21 0.86647538E-01 0.31061263E+03</pdfrwt>
<totfact> 0.10170311E+04</totfact>
</mgrwt>
</event>
<event>
 5    0  0.3120399E-003  0.3862904E+03  0.7546771E-02  0.1048633E+00
         21   -1    0    0  503  501  0.00000000000E+00  0.00000000000E+00  0.47514947599E+03  0.47514947599E+03  0.00000000000E+00 0.  1.
         21   -1    0    0  501  502 -0.00000000000E+00 -0.00000000000E+00 -0.33910355232E+03  0.33910355232E+03  0.00000000000E+00 0.  1.
         25    1    1    2    0    0 -0.73719788854E+02 -0.24849589560E+03  0.81356740328E+02  0.29904637867E+03  0.12500000000E+03 0.  0.
         21    1    1    2  503  504  0.14141068188E+03 -0.75311847886E+02  0.87887398032E+02  0.18273765380E+03  0.00000000000E+00 0.  1.
         21    1    1    2  504  502 -0.67690893026E+02  0.32380774348E+03 -0.33198214699E+02  0.33246899585E+03  0.00000000000E+00 0.  1.
<mgrwt>
<rscale>  4 0.38629038E+03</rscale>
<asrwt>0</asrwt>
<pdfrwt beam="1">  1       21 0.73099920E-01 0.38629038E+03</pdfrwt>
<pdfrwt beam="2">  1       21 0.52169777E-01 0.38629038E+03</pdfrwt>
<totfact> 0.52857951E+03</totfact>
</mgrwt>
</event>
<event>
 5    0  0.3120399E-003  0.2813554E+03  0.7546771E-02  0.1094951E+00
         21   -1    0    0  502  501  0.00000000000E+00  0.00000000000E+00  0.38849472172E+02  0.38849472172E+02  0.00000000000E+00 0.  1.
         21   -1    0    0  504  502 -0.00000000000E+00 -0.00000000000E+00 -0.22557500108E+04  0.22557500108E+04  0.00000000000E+00 0.  1.
         25    1    1    2    0    0  0.14562587230E+03 -0.18125639968E+03 -0.71738357805E+03  0.76441152213E+03  0.12500000000E+03 0.  0.
         21    1    1    2  503  501 -0.87945406925E+02  0.18475767709E+03 -0.71942588078E+03  0.74795948538E+03  0.00000000000E+00 0.  1.
         21    1    1    2  504  503 -0.57680465376E+02 -0.35012774113E+01 -0.78009107981E+03  0.78222847546E+03  0.00000000000E+00 0. -1.
<mgrwt>
<rscale>  4 0.28135538E+03</rscale>
<asrwt>0</asrwt>
<pdfrwt beam="1">  1       21 0.59768417E-02 0.28135538E+03</pdfrwt>
<pdfrwt beam="2">  1       21 0.34703847E+00 0.28135538E+03</pdfrwt>
<totfact> 0.32828755E+03</totfact>
</mgrwt>
</event>
<event>
 5    0  0.3120399E-003  0.3115839E+03  0.7546771E-02  0.1079589E+00
         21   -1    0    0  503  501  0.00000000000E+00  0.00000000000E+00  0.17723881756E+04  0.17723881756E+04  0.00000000000E+00 0. -1.
         21   -1    0    0  501  502 -0.00000000000E+00 -0.00000000000E+00 -0.73898770118E+02  0.73898770118E+02  0.00000000000E+00 0. -1.
         25    1    1    2    0    0 -0.25341373309E+03  0.12466393516E+03  0.68877158789E+03  0.75484496232E+03  0.12500000000E+03 0.  0.
         21    1    1    2  503  504  0.16844103707E+03 -0.14217951202E+03  0.97227428728E+03  0.99694768484E+03  0.00000000000E+00 0. -1.
         21    1    1    2  504  502  0.84972696021E+02  0.17515576860E+02  0.37443530349E+02  0.94494298595E+02  0.00000000000E+00 0. -1.
<mgrwt>
<rscale>  4 0.31158394E+03</rscale>
<asrwt>0</asrwt>
<pdfrwt beam="1">  1       21 0.27267507E+00 0.31158394E+03</pdfrwt>
<pdfrwt beam="2">  1       21 0.11369043E-01 0.31158394E+03</pdfrwt>
<totfact> 0.28477535E+03</totfact>
</mgrwt>
</event>
<event>
 5    0  0.3120399E-003  0.5444078E+03  0.7546771E-02  0.1002797E+00
         21   -1    0    0  504  501  0.00000000000E+00  0.00000000000E+00  0.43736877688E+03  0.43736877688E+03  0.00000000000E+00 0. -1.
         21   -1    0    0  501  502 -0.00000000000E+00 -0.00000000000E+00 -0.17279092060E+04  0.17279092060E+04  0.00000000000E+00 0. -1.
         25    1    1    2    0    0 -0.21736525026E+02  0.26392970607E+03 -0.42359866759E+02  0.29588971691E+03  0.12500000000E+03 0.  0.
         21    1    1    2  503  502  0.33009294603E+03 -0.32035085446E+03 -0.14333210426E+04  0.15053223024E+04  0.00000000000E+00 0.  1.
         21    1    1    2  504  503 -0.30835642101E+03  0.56421148391E+02  0.18514048027E+03  0.36406596353E+03  0.00000000000E+00 0. -1.
<mgrwt>
<rscale>  4 0.54440783E+03</rscale>
<asrwt>0</asrwt>
<pdfrwt beam="1">  1       21 0.67287504E-01 0.54440783E+03</pdfrwt>
<pdfrwt beam="2">  1       21 0.26583219E+00 0.54440783E+03</pdfrwt>
<totfact> 0.80176708E+01</totfact>
</mgrwt>
</event>
<event>
 5    0  0.3120399E-003  0.3344296E+03  0.7546771E-02  0.1069194E+00
         21   -1    0    0  503  501  0.00000000000E+00  0.00000000000E+00  0.76782952254E+02  0.76782952254E+02  0.00000000000E+00 0. -1.
         21   -1    0    0  501  502 -0.00000000000E+00 -0.00000000000E+00 -0.15005516894E+04  0.15005516894E+04  0.00000000000E+00 0. -1.
         25    1    1    2    0    0  0.25669360862E+03 -0.16033278981E+03 -0.65943818324E+03  0.73626213383E+03  0.12500000000E+03 0.  0.
         21    1    1    2  503  504 -0.53718366458E+02 -0.35878874395E+02 -0.19812807677E+03  0.20839311728E+03  0.00000000000E+00 0.  1.
         21    1    1    2  504  502 -0.20297524217E+03  0.19621166421E+03 -0.56620247709E+03  0.63267939050E+03  0.00000000000E+00 0. -1.
<mgrwt>
<rscale>  4 0.33442957E+03</rscale>
<asrwt>0</asrwt>
<pdfrwt beam="1">  1       21 0.11812762E-01 0.33442957E+03</pdfrwt>
<pdfrwt beam="2">  1       21 0.23085410E+00 0.33442957E+03</pdfrwt>
<totfact> 0.46874899E+03</totfact>
</mgrwt>
</event>
<event>
 5    0  0.3120399E-003  0.4566921E+03  0.7546771E-02  0.1025745E+00
         21   -1    0    0  504  501  0.00000000000E+00  0.00000000000E+00  0.31290160669E+03  0.31290160669E+03  0.00000000000E+00 0. -1.
         21   -1    0    0  501  502 -0.00000000000E+00 -0.00000000000E+00 -0.73865474310E+03  0.73865474310E+03  0.00000000000E+00 0. -1.
         25    1    1    2    0    0  0.24714192502E+03  0.81928188246E+02  0.10374744914E+03  0.30688742616E+03  0.12500000000E+03 0.  0.
         21    1    1    2  503  502  0.32105747714E+02  0.13995604552E+03 -0.26223853152E+03  0.29897745923E+03  0.00000000000E+00 0. -1.
         21    1    1    2  504  503 -0.27924767274E+03 -0.22188423376E+03 -0.26726205402E+03  0.44569146440E+03  0.00000000000E+00 0. -1.
<mgrwt>
<rscale>  4 0.45669207E+03</rscale>
<asrwt>0</asrwt>
<pdfrwt beam="1">  1       21 0.48138709E-01 0.45669207E+03</pdfrwt>
<pdfrwt beam="2">  1       21 0.11363919E+00 0.45669207E+03</pdfrwt>
<totfact> 0.21406979E+03</totfact>
</mgrwt>
</event>
<event>
 5    0  0.3120399E-003  0.5067927E+03  0.7546771E-02  0.1012021E+00
         21   -1    0    0  504  501  0.00000000000E+00  0.00000000000E+00  0.62065178632E+03  0.62065178632E+03  0.00000000000E+00 0. -1.
         21   -1    0    0  501  502 -0.00000000000E+00 -0.00000000000E+00 -0.46170826639E+03  0.46170826639E+03  0.00000000000E+00 0. -1.
         25    1    1    2    0    0  0.45368270678E+03  0.58233179365E+02 -0.66260875344E+02  0.47878450812E+03  0.12500000000E+03 0.  0.
         21    1    1    2  503  502 -0.61751405966E+02  0.10957465761E+03  0.10482842757E+02  0.12621304101E+03  0.00000000000E+00 0. -1.
         21    1    1    2  504  503 -0.39193130082E+03 -0.16780783697E+03  0.21472155251E+03  0.47736250358E+03  0.00000000000E+00 0. -1.
<mgrwt>
<rscale>  4 0.50679265E+03</rscale>
<asrwt>0</asrwt>
<pdfrwt beam="1">  1       21 0.95484891E-01 0.50679265E+03</pdfrwt>
<pdfrwt beam="2">  1       21 0.71032041E-01 0.50679265E+03</pdfrwt>
<totfact> 0.13772336E+03</totfact>
</mgrwt>
</event>
<event>
 5    0  0.3120399E-003  0.2685880E+03  0.7546771E-02  0.1102090E+00
         21   -1    0    0  502  501  0.00000000000E+00  0.00000000000E+00  0.75251619465E+03  0.75251619465E+03  0.00000000000E+00 0.  1.
         21   -1    0    0  504  502 -0.00000000000E+00 -0.00000000000E+00 -0.11365714654E+03  0.11365714654E+03  0.00000000000E+00 0.  1.
         25    1    1    2    0    0  0.71787665521E+02  0.20231332240E+03  0.41775660508E+03  0.48603470085E+03  0.12500000000E+03 0.  0.
         21    1    1    2  503  501 -0.12772942884E+03 -0.12353158178E+03  0.22092090733E+03  0.28351526587E+03  0.00000000000E+00 0.  1.
         21    1    1    2  504  503  0.55941763319E+02 -0.78781740625E+02  0.18153570791E+00  0.96623374472E+02  0.00000000000E+00 0.  1.
<mgrwt>
<rscale>  4 0.26858800E+03</rscale>
<asrwt>0</asrwt>
<pdfrwt beam="1">  1       21 0.11577172E+00 0.26858800E+03</pdfrwt>
<pdfrwt beam="2">  1       21 0.17485715E-01 0.26858800E+03</pdfrwt>
<totfact> 0.16354989E+04</totfact>
</mgrwt>
</event>
<event>
 5    0  0.3120399E-003  0.3289009E+03  0.7546771E-02  0.1071624E+00
         21   -1    0    0  504  501  0.00000000000E+00  0.00000000000E+00  0.47819050907E+03  0.47819050907E+03  0.00000000000E+00 0.  1.
         21   -1    0    0  501  502 -0.00000000000E+00 -0.00000000000E+00 -0.23231873750E+03  0.23231873750E+03  0.00000000000E+00 0.  1.
         25    1    1    2    0    0 -0.19342597979E+03 -0.57149105042E+02  0.13728020610E+02  0.23768274740E+03  0.12500000000E+03 0.  0.
         21    1    1    2  503  502  0.24867610331E+03  0.13530813682E+03  0.81950385907E+02  0.29472692784E+03  0.00000000000E+00 0.  1.
         21    1    1    2  504  503 -0.55250123523E+02 -0.78159031778E+02  0.15019336505E+03  0.17809957132E+03  0.00000000000E+00 0. -1.
<mgrwt>
<rscale>  4 0.32890087E+03</rscale>
<asrwt>0</asrwt>
<pdfrwt beam="1">  1       21 0.73567770E-01 0.32890087E+03</pdfrwt>
<pdfrwt beam="2">  1       21 0.35741344E-01 0.32890087E+03</pdfrwt>
<totfact> 0.11669044E+04</totfact>
</mgrwt>
</event>
<event>
 5    0  0.3120399E-003  0.4728247E+03  0.7546771E-02  0.1021126E+00
         21   -1    0    0  502  501  0.00000000000E+00  0.00000000000E+00  0.86641657985E+03  0.86641657985E+03  0.00000000000E+00 0.  1.
         21   -1    0    0  504  502 -0.00000000000E+00 -0.00000000000E+00 -0.27047650535E+03  0.27047650535E+03  0.00000000000E+00 0.  1.
         25    1    1    2    0    0 -0.12861959698E+03 -0.31265727433E+03  0.30959352728E+03  0.47515336898E+03  0.12500000000E+03 0.  0.
         21    1    1    2  503  501  0.21475910367E+03  0.35313639346E+03  0.35463171614E+03  0.54460117434E+03  0.00000000000E+00 0.  1.
         21    1    1    2  504  503 -0.86139506697E+02 -0.40479119131E+02 -0.68285168918E+02  0.11713854188E+03  0.00000000000E+00 0. -1.
<mgrwt>
<rscale>  4 0.47282469E+03</rscale>
<asrwt>0</asrwt>
<pdfrwt beam="1">  1       21 0.13329486E+00 0.47282469E+03</pdfrwt>
<pdfrwt beam="2">  1       21 0.41611770E-01 0.47282469E+03</pdfrwt>
<totfact> 0.19194874E+03</totfact>
</mgrwt>
</event>
<event>
 5    0  0.3120399E-003  0.7950933E+03  0.7546771E-02  0.9567147E-01
         21   -1    0    0  502  501  0.00000000000E+00  0.00000000000E+00  0.19882075000E+04  0.19882075000E+04  0.00000000000E+00 0. -1.
         21   -1    0    0  503  502 -0.00000000000E+00 -0.00000000000E+00 -0.35090400690E+03  0.35090400690E+03  0.00000000000E+00 0. -1.
         25    1    1    2    0    0  0.48789220005E+03 -0.13729385417E+03  0.33207624001E+03  0.61869865883E+03  0.12500000000E+03 0.  0.
         21    1    1    2  503  504 -0.77122551268E+03  0.57865330317E+02  0.11550120039E+04  0.13900323439E+04  0.00000000000E+00 0. -1.
         21    1    1    2  504  501  0.28333331263E+03  0.79428523853E+02  0.15021524917E+03  0.33038050416E+03  0.00000000000E+00 0. -1.
<mgrwt>
<rscale>  4 0.79509326E+03</rscale>
<asrwt>0</asrwt>
<pdfrwt beam="1">  1       21 0.30587807E+00 0.79509326E+03</pdfrwt>
<pdfrwt beam="2">  1       21 0.53985233E-01 0.79509326E+03</pdfrwt>
<totfact> 0.66717152E+01</totfact>
</mgrwt>
</event>
<event>
 5    0  0.3120399E-003  0.3385768E+03  0.7546771E-02  0.1067404E+00
         21   -1    0    0  502  501  0.00000000000E+00  0.00000000000E+00  0.14028391098E+03  0.14028391098E+03  0.00000000000E+00 0.  1.
         21   -1    0    0  504  502 -0.00000000000E+00 -0.00000000000E+00 -0.97458494600E+03  0.97458494600E+03  0.00000000000E+00 0.  1.
         25    1    1    2    0    0  0.60735310147E+02 -0.24849218416E+03 -0.10542291759E+03  0.30360522894E+03  0.12500000000E+03 0.  0.
         21    1    1    2  503  501 -0.14855910440E+03  0.21141781881E+03 -0.48756123655E+03  0.55180001903E+03  0.00000000000E+00 0.  1.
         21    1    1    2  504  503  0.87823794252E+02  0.37074365349E+02 -0.24131688088E+03  0.25946360901E+03  0.00000000000E+00 0. -1.
<mgrwt>
<rscale>  4 0.33857678E+03</rscale>
<asrwt>0</asrwt>
<pdfrwt beam="1">  1       21 0.21582141E-01 0.33857678E+03</pdfrwt>
<pdfrwt beam="2">  1       21 0.14993614E+00 0.33857678E+03</pdfrwt>
<totfact> 0.54634422E+03</totfact>
</mgrwt>
</event>
<event>
 5    0  0.3120399E-003  0.3249413E+03  0.7546771E-02  0.1073397E+00
         21   -1    0    0  503  501  0.00000000000E+00  0.00000000000E+00  0.43741842430E+03  0.43741842430E+03  0.00000000000E+00 0.  1.
         21   -1    0    0  501  502 -0.00000000000E+00 -0.00000000000E+00 -0.24760282757E+03  0.24760282757E+03  0.00000000000E+00 0.  1.
         25    1    1    2    0    0 -0.21500308596E+03 -0.11501599478E+03  0.82338154921E+02  0.28611112838E+03  0.12500000000E+03 0.  0.
         21    1    1    2  503  504  0.23803110371E+03  0.17937578091E+03  0.13242357472E+03  0.32614487617E+03  0.00000000000E+00 0.  1.
         21    1    1    2  504  502 -0.23028017746E+02 -0.64359786125E+02 -0.24946132901E+02  0.72765247324E+02  0.00000000000E+00 0. -1.
<mgrwt>
<rscale>  4 0.32494132E+03</rscale>
<asrwt>0</asrwt>
<pdfrwt beam="1">  1       21 0.67295142E-01 0.32494132E+03</pdfrwt>
<pdfrwt beam="2">  1       21 0.38092743E-01 0.32494132E+03</pdfrwt>
<totfact> 0.12540940E+04</totfact>
</mgrwt>
</event>
<event>
 5    0  0.3120399E-003  0.2746395E+03  0.7546771E-02  0.1098653E+00
         21   -1    0    0  503  501  0.00000000000E+00  0.00000000000E+00  0.74845582682E+03  0.74845582682E+03  0.00000000000E+00 0.  1.
         21   -1    0    0  501  502 -0.00000000000E+00 -0.00000000000E+00 -0.10430212014E+03  0.10430212014E+03  0.00000000000E+00 0.  1.
         25    1    1    2    0    0  0.21751428317E+03 -0.44400734792E+02  0.34724171615E+03  0.43068050579E+03  0.12500000000E+03 0.  0.
         21    1    1    2  503  504 -0.22716673894E+03 -0.20014893848E+02  0.26478121062E+03  0.34944872693E+03  0.00000000000E+00 0.  1.
         21    1    1    2  504  502  0.96524557692E+01  0.64415628640E+02  0.32130779911E+02  0.72628714247E+02  0.00000000000E+00 0. -1.
<mgrwt>
<rscale>  4 0.27463949E+03</rscale>
<asrwt>0</asrwt>
<pdfrwt beam="1">  1       21 0.11514705E+00 0.27463949E+03</pdfrwt>
<pdfrwt beam="2">  1       21 0.16046480E-01 0.27463949E+03</pdfrwt>
<totfact> 0.19376598E+04</totfact>
</mgrwt>
</event>
<event>
 5    0  0.3120399E-003  0.2368415E+03  0.7546771E-02  0.1121915E+00
         21   -1    0    0  504  501  0.00000000000E+00  0.00000000000E+00  0.10779652644E+03  0.10779652644E+03  0.00000000000E+00 0. -1.
         21   -1    0    0  501  502 -0.00000000000E+00 -0.00000000000E+00 -0.90986544545E+03  0.90986544545E+03  0.00000000000E+00 0. -1.
         25    1    1    2    0    0 -0.45963115841E+02  0.23829792128E+03 -0.40382812243E+03  0.48744298105E+03  0.12500000000E+03 0.  0.
         21    1    1    2  503  502  0.66171264298E+02 -0.10437753478E+03 -0.37235837633E+03  0.39233157713E+03  0.00000000000E+00 0. -1.
         21    1    1    2  504  503 -0.20208148458E+02 -0.13392038650E+03 -0.25882420247E+02  0.13788741372E+03  0.00000000000E+00 0. -1.
<mgrwt>
<rscale>  4 0.23684149E+03</rscale>
<asrwt>0</asrwt>
<pdfrwt beam="1">  1       21 0.16584080E-01 0.23684149E+03</pdfrwt>
<pdfrwt beam="2">  1       21 0.13997930E+00 0.23684149E+03</pdfrwt>
<totfact> 0.11342016E+04</totfact>
</mgrwt>
</event>
<event>
 5    0  0.3120399E-003  0.5400104E+03  0.7546771E-02  0.1003833E+00
         21   -1    0    0  502  501  0.00000000000E+00  0.00000000000E+00  0.11811764036E+04  0.11811764036E+04  0.00000000000E+00 0.  1.
         21   -1    0    0  504  502 -0.00000000000E+00 -0.00000000000E+00 -0.26667423223E+03  0.26667423223E+03  0.00000000000E+00 0.  1.
         25    1    1    2    0    0  0.34493316420E+03 -0.10760210251E+02  0.51650170777E+03  0.63363529259E+03  0.12500000000E+03 0.  0.
         21    1    1    2  503  501  0.17846126988E+03  0.28248382874E+02  0.14972269402E+03  0.23465566494E+03  0.00000000000E+00 0.  1.
         21    1    1    2  504  503 -0.52339443409E+03 -0.17488172623E+02  0.24827776953E+03  0.57955967825E+03  0.00000000000E+00 0.  1.
<mgrwt>
<rscale>  4 0.54001039E+03</rscale>
<asrwt>0</asrwt>
<pdfrwt beam="1">  1       21 0.18171944E+00 0.54001039E+03</pdfrwt>
<pdfrwt beam="2">  1       21 0.41026806E-01 0.54001039E+03</pdfrwt>
<totfact> 0.81645312E+02</totfact>
</mgrwt>
</event>
