<event>
 5    0  0.1911311E+001  0.5152064E+03  0.7546771E-02  0.1009884E+00
         21   -1    0    0  504  501  0.00000000000E+00  0.00000000000E+00  0.70596750065E+03  0.70596750065E+03  0.00000000000E+00 0. -1.
         21   -1    0    0  503  502 -0.00000000000E+00 -0.00000000000E+00 -0.11699471309E+04  0.11699471309E+04  0.00000000000E+00 0. -1.
         25    1    1    2    0    0  0.14870664933E+03  0.47287191252E+03 -0.95302623950E+03  0.10814830218E+04  0.12500000000E+03 0.  0.
         21    1    1    2  503  501  0.57695909030E+02  0.26931278437E+02 -0.24179612171E+01  0.63717801386E+02  0.00000000000E+00 0. -1.
         21    1    1    2  504  502 -0.20640255836E+03 -0.49980319096E+03  0.49146457045E+03  0.73071380841E+03  0.00000000000E+00 0. -1.
<mgrwt>
<rscale>  4 0.51520639E+03</rscale>
<asrwt>0</asrwt>
<pdfrwt beam="1">  1       21 0.10861039E+00 0.51520639E+03</pdfrwt>
<pdfrwt beam="2">  1       21 0.17999187E+00 0.51520639E+03</pdfrwt>
<totfact> 0.94581475E+01</totfact>
</mgrwt>
</event>
<event>
 5    0  0.1911311E+001  0.3328606E+03  0.7546771E-02  0.1069878E+00
         21   -1    0    0  502  501  0.00000000000E+00  0.00000000000E+00  0.59352164180E+03  0.59352164180E+03  0.00000000000E+00 0.  1.
         21   -1    0    0  504  502 -0.00000000000E+00 -0.00000000000E+00 -0.14848068853E+04  0.14848068853E+04  0.00000000000E+00 0. -1.
         25    1    1    2    0    0 -0.10862947287E+03  0.27329489683E+03  0.48056752149E+03  0.57711403181E+03  0.12500000000E+03 0.  0.
         21    1    1    2  503  501 -0.41499256759E+02 -0.31834964955E+01  0.38925282625E+02  0.56986845754E+02  0.00000000000E+00 0. -1.
         21    1    1    2  504  503  0.15012872963E+03 -0.27011140033E+03 -0.14107780476E+04  0.14442276496E+04  0.00000000000E+00 0. -1.
<mgrwt>
<rscale>  4 0.33286058E+03</rscale>
<asrwt>0</asrwt>
<pdfrwt beam="1">  1       21 0.91311021E-01 0.33286058E+03</pdfrwt>
<pdfrwt beam="2">  1       21 0.22843183E+00 0.33286058E+03</pdfrwt>
<totfact> 0.77470949E+01</totfact>
</mgrwt>
</event>
<event>
 5    0  0.1911311E+001  0.3076811E+03  0.7546771E-02  0.1081463E+00
         21   -1    0    0  503  501  0.00000000000E+00  0.00000000000E+00  0.27364458559E+03  0.27364458559E+03  0.00000000000E+00 0. -1.
         21   -1    0    0  504  502 -0.00000000000E+00 -0.00000000000E+00 -0.35286324168E+03  0.35286324168E+03  0.00000000000E+00 0. -1.
         25    1    1    2    0    0  0.54189158399E+02 -0.27587350903E+03  0.42357641705E+02  0.31058304475E+03  0.12500000000E+03 0.  0.
         21    1    1    2  503  502 -0.38616203434E+02  0.25671818200E+03 -0.12934538407E+03  0.29004424579E+03  0.00000000000E+00 0. -1.
         21    1    1    2  504  501 -0.15572954966E+02  0.19155327034E+02  0.77690862715E+01  0.25880536734E+02  0.00000000000E+00 0.  1.
<mgrwt>
<rscale>  4 0.30768110E+03</rscale>
<asrwt>0</asrwt>
<pdfrwt beam="1">  1       21 0.42099167E-01 0.30768110E+03</pdfrwt>
<pdfrwt beam="2">  1       21 0.54286653E-01 0.30768110E+03</pdfrwt>
<totfact> 0.16428838E+04</totfact>
</mgrwt>
</event>
