<event>
 5    0  0.2349231E+000  0.3895945E+03  0.7546771E-02  0.1047444E+00
         21   -1    0    0  502  501  0.00000000000E+00  0.00000000000E+00  0.20601157304E+03  0.20601157304E+03  0.00000000000E+00 0. -1.
         21   -1    0    0  504  502 -0.00000000000E+00 -0.00000000000E+00 -0.39755695949E+03  0.39755695949E+03  0.00000000000E+00 0.  1.
         25    1    1    2    0    0  0.10233211553E+03 -0.23255967550E+03 -0.13548676479E+03  0.31390687786E+03  0.12500000000E+03 0.  0.
         21    1    1    2  503  501 -0.85856026271E+02  0.12994265970E+03  0.25154614440E+02  0.15776281782E+03  0.00000000000E+00 0. -1.
         21    1    1    2  504  503 -0.16476089256E+02  0.10261701579E+03 -0.81213236092E+02  0.13189883686E+03  0.00000000000E+00 0. -1.
<mgrwt>
<rscale>  4 0.38959446E+03</rscale>
<asrwt>0</asrwt>
<pdfrwt beam="1">  1       21 0.31694089E-01 0.38959446E+03</pdfrwt>
<pdfrwt beam="2">  1       21 0.61162608E-01 0.38959446E+03</pdfrwt>
<totfact> 0.21919461E+04</totfact>
</mgrwt>
</event>
<event>
 5    0  0.2349231E+000  0.5082514E+03  0.7546771E-02  0.1011647E+00
         21   -1    0    0  504  501  0.00000000000E+00  0.00000000000E+00  0.70090632240E+03  0.70090632240E+03  0.00000000000E+00 0. -1.
         21   -1    0    0  503  502 -0.00000000000E+00 -0.00000000000E+00 -0.31136294193E+03  0.31136294193E+03  0.00000000000E+00 0. -1.
         25    1    1    2    0    0 -0.23332688194E+02  0.22647456621E+03 -0.44399007005E+01  0.25976885148E+03  0.12500000000E+03 0.  0.
         21    1    1    2  503  501 -0.17468352826E+03  0.14031553207E+03  0.14743161394E+03  0.26821421359E+03  0.00000000000E+00 0. -1.
         21    1    1    2  504  502  0.19801621645E+03 -0.36679009828E+03  0.24655166723E+03  0.48428619926E+03  0.00000000000E+00 0. -1.
<mgrwt>
<rscale>  4 0.50825140E+03</rscale>
<asrwt>0</asrwt>
<pdfrwt beam="1">  1       21 0.10783174E+00 0.50825140E+03</pdfrwt>
<pdfrwt beam="2">  1       21 0.47901991E-01 0.50825140E+03</pdfrwt>
<totfact> 0.24209347E+03</totfact>
</mgrwt>
</event>
<event>
 5    0  0.2349231E+000  0.4017999E+03  0.7546771E-02  0.1043158E+00
         21   -1    0    0  502  501  0.00000000000E+00  0.00000000000E+00  0.84066434459E+03  0.84066434459E+03  0.00000000000E+00 0.  1.
         21   -1    0    0  504  502 -0.00000000000E+00 -0.00000000000E+00 -0.61500074426E+02  0.61500074426E+02  0.00000000000E+00 0. -1.
         25    1    1    2    0    0  0.22163697679E+02 -0.20512665815E+03  0.35644429156E+03  0.43040179875E+03  0.12500000000E+03 0.  0.
         21    1    1    2  503  501 -0.18292869030E+02  0.46902286979E+02  0.12087108905E+03  0.13093614379E+03  0.00000000000E+00 0.  1.
         21    1    1    2  504  503 -0.38708286489E+01  0.15822437117E+03  0.30184888955E+03  0.34082647648E+03  0.00000000000E+00 0. -1.
<mgrwt>
<rscale>  4 0.40179988E+03</rscale>
<asrwt>0</asrwt>
<pdfrwt beam="1">  1       21 0.12933297E+00 0.40179988E+03</pdfrwt>
<pdfrwt beam="2">  1       21 0.94615505E-02 0.40179988E+03</pdfrwt>
<totfact> 0.35995866E+04</totfact>
</mgrwt>
</event>
<event>
 5    0  0.2349231E+000  0.4264444E+03  0.7546771E-02  0.1034989E+00
         21   -1    0    0  503  501  0.00000000000E+00  0.00000000000E+00  0.10886121270E+04  0.10886121270E+04  0.00000000000E+00 0.  1.
         21   -1    0    0  504  502 -0.00000000000E+00 -0.00000000000E+00 -0.52962971616E+03  0.52962971616E+03  0.00000000000E+00 0.  1.
         25    1    1    2    0    0  0.82612582002E+02  0.18364053997E+03 -0.34636261249E+03  0.41969125075E+03  0.12500000000E+03 0.  0.
         21    1    1    2  503  502 -0.61828465650E+02 -0.15807335646E+03 -0.97111971411E+02  0.19555224412E+03  0.00000000000E+00 0.  1.
         21    1    1    2  504  501 -0.20784116351E+02 -0.25567183513E+02  0.10024569948E+04  0.10029983483E+04  0.00000000000E+00 0.  1.
<mgrwt>
<rscale>  4 0.42644443E+03</rscale>
<asrwt>0</asrwt>
<pdfrwt beam="1">  1       21 0.16747879E+00 0.42644443E+03</pdfrwt>
<pdfrwt beam="2">  1       21 0.81481495E-01 0.42644443E+03</pdfrwt>
<totfact> 0.24272021E+02</totfact>
</mgrwt>
</event>
