<LesHouchesEvents version="3.0">
  <!--
  <scalesfunctionalform>
    muR  H_T/2 := sum_i mT(i)/2, i=final state
    muF1 H_T/2 := sum_i mT(i)/2, i=final state
    muF2 H_T/2 := sum_i mT(i)/2, i=final state
    QES  H_T/2 := sum_i mT(i)/2, i=final state
  </scalesfunctionalform>
HERWIG6   
  -->
  <header>
      399
  </header>
  <init>
   2212   2212 0.65000000D+04 0.65000000D+04 -1 -1   247000   247000 -3   1
 0.15935980D+00 0.59792480D-03 0.43907321D-03     66
  </init>
  <event>
  5     66 0.43907321E-03 0.22429916E+03 0.75467711E-02 0.11104892E+00
       -1 -1    0    0    0  501 0.00000000E+00 0.00000000E+00 0.38016165E+03 0.38016179E+03 0.32000000E+00 0.0000E+00 0.9000E+01
        1 -1    0    0  502    0 0.00000000E+00 0.00000000E+00 -.19089112E+03 0.19089139E+03 0.32000000E+00 0.0000E+00 0.9000E+01
       25  1    1    2    0    0 0.40759541E+02 -.16659790E+03 -.11759047E+02 0.21255464E+03 0.12500000E+03 0.0000E+00 0.9000E+01
       23  1    1    2    0    0 -.23136289E+02 0.22068402E+03 0.16481568E+03 0.29106044E+03 0.91188000E+02 0.0000E+00 0.9000E+01
       21  1    1    2  502  501 -.17623251E+02 -.54086118E+02 0.36213900E+02 0.67438092E+02 0.75000000E+00 0.0000E+00 0.9000E+01
#aMCatNLO 2  0  0  2  1 0.56884859D+02 0.00000000D+00  -5  5  0 0.00000000D+00 0.00000000D+00 0.00000000D+00 0.00000000D+00 0.00000000D+00
  <mgrwgt>
 0.6010225461D-01    1    2    0
 0.238204709662890D+03 0.000000000000000D+00 0.000000000000000D+00 0.238204709662890D+03
 0.238204709662890D+03 0.000000000000000D+00 0.000000000000000D+00 -.238204709662890D+03
 0.245876418448943D+03 0.320468121427073D+02 -.193337441512747D+03 -.801489157136573D+02
 0.230533000876837D+03 -.320468121427073D+02 0.193337441512747D+03 0.801489157136573D+02
 0.000000000000000D+00 -.000000000000000D+00 -.000000000000000D+00 0.000000000000000D+00
 0.277760666637769D+03 0.000000000000000D+00 0.000000000000000D+00 0.277760666637769D+03
 0.261262008991483D+03 0.000000000000000D+00 0.000000000000000D+00 -.261262008991483D+03
 0.226859094892785D+03 0.407595408152121D+02 -.166597899380610D+03 -.801489157136573D+02
 0.252934425256339D+03 -.231362894783193D+02 0.220684017443164D+03 0.801489157136573D+02
 0.592291554801286D+02 -.176232513368928D+02 -.540861180625545D+02 0.164986576462866D+02
0.902395261893D-03 0.000000000000D+00 0.000000000000D+00 0.122494074957D-02 0.285592758513D-05  5 -1 1 25 23 21 2 0.58485919D-01 0.29367635D-01 0.64773789D+05 0.64773789D+05 0.64773789D+05 0.11813052D+01  1  2  1  2  5  2        1 0.601022546135D-01 0.100000000000D+01
  </mgrwgt>
  </event>
  <event>
  4     66 0.43907321E-03 0.14670259E+03 0.75467711E-02 0.10778902E+00
       -1 -1    0    0    0  501 0.00000000E+00 0.00000000E+00 0.23874619E+02 0.23876764E+02 0.32000000E+00 0.0000E+00 0.9000E+01
        1 -1    0    0  501    0 0.00000000E+00 0.00000000E+00 -.17737439E+04 0.17737439E+04 0.32000000E+00 0.0000E+00 0.9000E+01
       25  1    1    2    0    0 -.95054674E+02 0.14297806E+03 -.10494191E+04 0.10706930E+04 0.12500000E+03 0.0000E+00 0.9000E+01
       23  1    1    2    0    0 0.95054674E+02 -.14297806E+03 -.70045018E+03 0.72692766E+03 0.91188000E+02 0.0000E+00 0.9000E+01
#aMCatNLO 1  0  0  1  2 0.18419178D+03 0.00000000D+00  -5  5  0 0.00000000D+00 0.00000000D+00 0.00000000D+00 0.00000000D+00 0.00000000D+00
  <mgrwgt>
 0.1323984734D+00    7    2    0
 0.205789729404079D+03 0.000000000000000D+00 0.000000000000000D+00 0.205789729404079D+03
 0.205789729404079D+03 0.000000000000000D+00 0.000000000000000D+00 -.205789729404079D+03
 0.214669847810823D+03 -.950546738686751D+02 0.142978063912779D+03 -.313053633519084D+02
 0.196909610997335D+03 0.950546738686751D+02 -.142978063912779D+03 0.313053633519084D+02
 0.000000000000000D+00 -.000000000000000D+00 0.000000000000000D+00 0.000000000000000D+00
 0.460524146193683D+03 0.000000000000000D+00 0.000000000000000D+00 0.460524146193683D+03
 0.261539360765307D+03 0.000000000000000D+00 0.000000000000000D+00 -.261539360765307D+03
 0.162294006263628D+03 -.739756114058645D+02 0.652834405621513D+02 -.313053633519084D+02
 0.288620911805856D+03 0.122204566642607D+03 -.243048961126645D+03 0.313053633519084D+02
 0.271148588889506D+03 -.482289552367427D+02 0.177765520564494D+03 0.198984785428376D+03
0.116683260918D-02 0.000000000000D+00 0.000000000000D+00 0.141122197046D-02 0.000000000000D+00  5 -1 1 25 23 21 0 0.36731855D-02 0.27288384D+00 0.41367515D+05 0.41367515D+05 0.41367515D+05 0.12005205D+01  1  2  2  1  5  1       -1 0.154812587310D+00 0.100000000000D+01
-.648131905017D-04 0.000000000000D+00 -.448094445332D-05 0.141122197046D-02 0.000000000000D+00  5 -1 1 25 23 21 2 0.36731855D-02 0.27288384D+00 0.41367515D+05 0.41367515D+05 0.41367515D+05 0.12005205D+01  1  2  3  1  5  1       -1 -.123936800639D-01 0.100000000000D+01
0.804732571105D-04 0.000000000000D+00 0.000000000000D+00 0.141122197046D-02 0.000000000000D+00  5 -1 1 25 23 21 2 0.36731855D-02 0.27288384D+00 0.41367515D+05 0.41367515D+05 0.41367515D+05 0.12005205D+01  1  2 15  1  5  1       -1 0.153882225918D-01 0.100000000000D+01
0.913512878314D-05 0.000000000000D+00 0.000000000000D+00 0.141122197046D-02 0.000000000000D+00  5 -1 1 25 23 21 2 0.81651061D-02 0.27288384D+00 0.99337169D+05 0.99337169D+05 0.99337169D+05 0.11638371D+01  1  2 12  1  5  1       -1 0.486033181656D-03 0.100000000000D+01
-.349545840295D-03 0.000000000000D+00 -.352002044979D-03 0.141122197046D-02 0.000000000000D+00  5 -1 1 25 23 21 2 0.10812369D-01 0.27288384D+00 0.41367515D+05 0.41367515D+05 0.41367515D+05 0.12005205D+01  1  2  5  1  5  1       -1 -.130975414593D-01 0.100000000000D+01
0.791571597243D-06 0.000000000000D+00 0.000000000000D+00 0.141122197046D-02 0.000000000000D+00  5 21 1 25 23 1 2 0.81651061D-02 0.27288384D+00 0.99337169D+05 0.99337169D+05 0.99337169D+05 0.11638371D+01  1  2 12  3  5  1       -1 0.642873682769D-03 0.100000000000D+01
-.245687272842D-04 0.000000000000D+00 -.430843649233D-04 0.141122197046D-02 0.000000000000D+00  5 21 1 25 23 1 2 0.10812369D-01 0.27288384D+00 0.41367515D+05 0.41367515D+05 0.41367515D+05 0.12005205D+01  1  2  5  3  5  1       -1 -.134400218726D-01 0.100000000000D+01
  </mgrwgt>
  </event>
  <event>
  4     66 0.43907321E-03 0.22478201E+03 0.75467711E-02 0.10685744E+00
       -1 -1    0    0    0  501 0.00000000E+00 0.00000000E+00 0.92330721E+02 0.92331276E+02 0.32000000E+00 0.0000E+00 0.9000E+01
        1 -1    0    0  501    0 0.00000000E+00 0.00000000E+00 -.55111862E+03 0.55111871E+03 0.32000000E+00 0.0000E+00 0.9000E+01
       25  1    1    2    0    0 0.19647916E+03 0.43428763E+01 -.26461649E+03 0.35251923E+03 0.12500000E+03 0.0000E+00 0.9000E+01
       23  1    1    2    0    0 -.19647916E+03 -.43428763E+01 -.19417141E+03 0.29093076E+03 0.91188000E+02 0.0000E+00 0.9000E+01
#aMCatNLO 1  0  0  2  2 0.18547820D+03 0.00000000D+00  -5  5  0 0.00000000D+00 0.00000000D+00 0.00000000D+00 0.00000000D+00 0.00000000D+00
  <mgrwgt>
 0.1874287573D+00    3    2    0
 0.225577897184209D+03 0.000000000000000D+00 0.000000000000000D+00 0.225577897184209D+03
 0.225577897184209D+03 0.000000000000000D+00 0.000000000000000D+00 -.225577897184209D+03
 0.233679032919629D+03 0.196479156487377D+03 0.434287632241993D+01 -.189201193841354D+02
 0.217476761448788D+03 -.196479156487377D+03 -.434287632241993D+01 0.189201193841354D+02
 0.000000000000000D+00 0.000000000000000D+00 0.000000000000000D+00 0.000000000000000D+00
 0.369619725450313D+03 0.000000000000000D+00 0.000000000000000D+00 0.369619725450313D+03
 0.312306379278254D+03 0.000000000000000D+00 0.000000000000000D+00 -.312306379278254D+03
 0.185738661038743D+03 0.128902103126931D+03 -.435904473068253D+02 -.189201193841354D+02
 0.302056085957959D+03 -.280186876637102D+03 -.637179014334076D+02 0.189201193841354D+02
 0.194131357731865D+03 0.151284773510171D+03 0.107308348740233D+03 0.573133461720592D+02
0.132818349970D-02 0.000000000000D+00 0.000000000000D+00 0.138336848943D-02 0.000000000000D+00  5 -1 1 25 23 21 0 0.14204776D-01 0.84787529D-01 0.50526951D+05 0.50526951D+05 0.50526951D+05 0.11918311D+01  1  2  2  2  5  2        1 0.183966359395D+00 0.100000000000D+01
-.737868514430D-04 0.000000000000D+00 -.510057435758D-05 0.138336848943D-02 0.000000000000D+00  5 -1 1 25 23 21 2 0.14204776D-01 0.84787529D-01 0.50526951D+05 0.50526951D+05 0.50526951D+05 0.11918311D+01  1  2  3  2  5  2        1 -.145173966117D-01 0.100000000000D+01
0.913850094637D-04 0.000000000000D+00 0.000000000000D+00 0.138336848943D-02 0.000000000000D+00  5 -1 1 25 23 21 2 0.14204776D-01 0.84787529D-01 0.50526951D+05 0.50526951D+05 0.50526951D+05 0.11918311D+01  1  2 15  2  5  2        1 0.179797945136D-01 0.100000000000D+01
  </mgrwgt>
  </event>
  <event>
  5     66 0.43907321E-03 0.18189222E+03 0.75467711E-02 0.11302640E+00
       -1 -1    0    0    0  501 0.00000000E+00 0.00000000E+00 0.35008747E+02 0.35010209E+02 0.32000000E+00 0.0000E+00 0.9000E+01
        1 -1    0    0  502    0 0.00000000E+00 0.00000000E+00 -.15799886E+04 0.15799886E+04 0.32000000E+00 0.0000E+00 0.9000E+01
       25  1    1    2    0    0 0.18250468E+03 0.65571153E+01 -.72105739E+03 0.75425441E+03 0.12500000E+03 0.0000E+00 0.9000E+01
       23  1    1    2    0    0 -.11258838E+03 -.41042742E+02 -.68580377E+03 0.70214151E+03 0.91188000E+02 0.0000E+00 0.9000E+01
       21  1    1    2  502  501 -.69916308E+02 0.34485627E+02 -.13811870E+03 0.15860292E+03 0.75000000E+00 0.0000E+00 0.9000E+01
#aMCatNLO 2  0  0  2  2 0.77958634D+02 0.00000000D+00  -5  5  0 0.00000000D+00 0.00000000D+00 0.00000000D+00 0.00000000D+00 0.00000000D+00
  <mgrwgt>
 0.1734656246D-01    1    2    0
 0.184223523491646D+03 0.000000000000000D+00 0.000000000000000D+00 0.184223523491646D+03
 0.184223523491646D+03 0.000000000000000D+00 0.000000000000000D+00 -.184223523491646D+03
 0.194143196774210D+03 0.143338980203535D+03 0.258752664694048D+02 0.291717019225443D+02
 0.174303850209081D+03 -.143338980203535D+03 -.258752664694048D+02 -.291717019225443D+02
 0.000000000000000D+00 -.000000000000000D+00 0.000000000000000D+00 0.000000000000000D+00
 0.266169372194000D+03 0.000000000000000D+00 0.000000000000000D+00 0.266169372194000D+03
 0.207814668425959D+03 0.000000000000000D+00 0.000000000000000D+00 -.207814668425959D+03
 0.223219495970371D+03 0.182504683303185D+03 0.655711526611544D+01 0.291717019225443D+02
 0.153384772471153D+03 -.112588375206644D+03 -.410427418345507D+02 -.291717019225443D+02
 0.973797721784345D+02 -.699163080965406D+02 0.344856265684353D+02 0.583547037680412D+02
0.122063092077D-03 0.000000000000D+00 0.000000000000D+00 0.148311564776D-02 0.197943503437D-05  5 -1 1 25 23 21 2 0.53860406D-02 0.24307369D+00 0.50591018D+05 0.50591018D+05 0.50591018D+05 0.11917767D+01  1  2  1  2  5  2        1 0.173465624583D-01 0.100000000000D+01
  </mgrwgt>
  </event>
  <event>
  5     66 0.43907321E-03 0.10906096E+03 0.75467711E-02 0.12322055E+00
       -1 -1    0    0    0  501 0.00000000E+00 0.00000000E+00 0.25546433E+02 0.25548437E+02 0.32000000E+00 0.0000E+00 0.9000E+01
        1 -1    0    0  502    0 0.00000000E+00 0.00000000E+00 -.63125247E+03 0.63125255E+03 0.32000000E+00 0.0000E+00 0.9000E+01
       25  1    1    2    0    0 0.15539342E+02 0.36037071E+01 -.31152662E+03 0.33604805E+03 0.12500000E+03 0.0000E+00 0.9000E+01
       23  1    1    2    0    0 0.11778805E+02 -.22265552E+02 -.22427706E+03 0.24341312E+03 0.91188000E+02 0.0000E+00 0.9000E+01
       21  1    1    2  502  501 -.27318146E+02 0.18661845E+02 -.69902362E+02 0.77339824E+02 0.75000000E+00 0.0000E+00 0.9000E+01
#aMCatNLO 2  0  0  2  2 0.33083918D+02 0.00000000D+00  -5  5  0 0.00000000D+00 0.00000000D+00 0.00000000D+00 0.00000000D+00 0.00000000D+00
  <mgrwgt>
 0.4908629643D-01    1    2    0
 0.109081526588814D+03 0.000000000000000D+00 0.000000000000000D+00 0.109081526588814D+03
 0.109081526588814D+03 0.000000000000000D+00 0.000000000000000D+00 -.109081526588814D+03
 0.125834474784053D+03 -.140195220621974D+00 0.143148691529647D+02 -.209282359793481D+01
 0.923285783935746D+02 0.140195220621974D+00 -.143148691529647D+02 0.209282359793481D+01
 0.000000000000000D+00 -.000000000000000D+00 0.000000000000000D+00 0.000000000000000D+00
 0.129119897812236D+03 0.000000000000000D+00 0.000000000000000D+00 0.129119897812236D+03
 0.124890595724175D+03 0.000000000000000D+00 0.000000000000000D+00 -.124890595724175D+03
 0.126031098369398D+03 0.155393417111276D+02 0.360370708708720D+01 -.209282359793481D+01
 0.946262454307998D+02 0.117788047694429D+02 -.222655524953063D+02 0.209282359793481D+01
 0.333531497362131D+02 -.273181464805705D+02 0.186618454082191D+02 0.422930208806149D+01
0.401194291684D-04 0.000000000000D+00 0.000000000000D+00 0.243464527008D-02 0.188008168415D-04  5 -1 1 25 23 21 2 0.39302501D-02 0.97112695D-01 0.16091016D+05 0.16091016D+05 0.16091016D+05 0.12443613D+01  1  2  1  2  5  2        1 0.490862964324D-01 0.100000000000D+01
  </mgrwgt>
  </event>
  <event>
  4     66 0.43907321E-03 0.44403770E+02 0.75467711E-02 0.12454203E+00
       -3 -1    0    0    0  501 0.00000000E+00 0.00000000E+00 0.28514833E+02 0.28519217E+02 0.50000000E+00 0.0000E+00 0.9000E+01
        3 -1    0    0  501    0 0.00000000E+00 0.00000000E+00 -.49306120E+03 0.49306145E+03 0.50000000E+00 0.0000E+00 0.9000E+01
       25  1    1    2    0    0 0.98998809E+00 -.40589186E+02 -.20512323E+03 0.24361651E+03 0.12500000E+03 0.0000E+00 0.9000E+01
       23  1    1    2    0    0 -.98998809E+00 0.40589186E+02 -.25942313E+03 0.27796416E+03 0.91188000E+02 0.0000E+00 0.9000E+01
#aMCatNLO 1  0  0  2  1 0.58944226D+01 0.00000000D+00  -5  5  0 0.00000000D+00 0.00000000D+00 0.00000000D+00 0.00000000D+00 0.00000000D+00
  <mgrwgt>
 0.2717734933D-01    8    2    0
 0.118578105742010D+03 0.000000000000000D+00 0.000000000000000D+00 0.118578105742010D+03
 0.118578105742010D+03 0.000000000000000D+00 0.000000000000000D+00 -.118578105742010D+03
 0.133989358540870D+03 0.989988086575041D+00 -.405891857066619D+02 0.260707907331607D+02
 0.103166852943151D+03 -.989988086575041D+00 0.405891857066619D+02 -.260707907331607D+02
 0.000000000000000D+00 0.000000000000000D+00 0.000000000000000D+00 0.000000000000000D+00
 0.122027544177540D+03 0.000000000000000D+00 0.000000000000000D+00 0.122027544177540D+03
 0.121159852584273D+03 0.000000000000000D+00 0.000000000000000D+00 -.121159852584273D+03
 0.134814386597324D+03 -.105048126915149D+01 -.432334268045406D+02 0.260707907331607D+02
 0.102415065333423D+03 -.255054522880967D+01 0.385668621076801D+02 -.260707907331607D+02
 0.595794483106638D+01 0.360102649796116D+01 0.466656469686055D+01 0.867691593267465D+00
0.119578566344D-03 0.000000000000D+00 0.000000000000D+00 0.209816074902D-02 0.000000000000D+00  5 -3 3 25 23 21 0 0.43872541D-02 0.75855926D-01 0.13368787D+05 0.13368787D+05 0.13368787D+05 0.12535631D+01  1  2  2  2  5  2        3 0.126274320323D-01 0.100000000000D+01
-.663811093098D-05 0.000000000000D+00 -.459213180522D-06 0.209816074902D-02 0.000000000000D+00  5 -3 3 25 23 21 2 0.43872541D-02 0.75855926D-01 0.13368787D+05 0.13368787D+05 0.13368787D+05 0.12535631D+01  1  2  3  2  5  2        3 -.110153577977D-02 0.100000000000D+01
0.827356670796D-05 0.000000000000D+00 0.000000000000D+00 0.209816074902D-02 0.000000000000D+00  5 -3 3 25 23 21 2 0.43872541D-02 0.75855926D-01 0.13368787D+05 0.13368787D+05 0.13368787D+05 0.12535631D+01  1  2 15  2  5  2        3 0.137292519662D-02 0.100000000000D+01
0.159143307788D-03 0.000000000000D+00 0.000000000000D+00 0.209816074902D-02 0.000000000000D+00  5 -3 3 25 23 21 2 0.43872541D-02 0.78583342D-01 0.14066573D+05 0.14066573D+05 0.14066573D+05 0.12510161D+01  1  2 12  2  5  2        3 0.244844744593D-01 0.100000000000D+01
-.181108583470D-03 0.000000000000D+00 0.000000000000D+00 0.209816074902D-02 0.000000000000D+00  5 -3 3 25 23 21 2 0.43872541D-02 0.75855926D-01 0.13368787D+05 0.13368787D+05 0.13368787D+05 0.12535631D+01  1  2  4  2  5  2        3 -.300533671084D-01 0.100000000000D+01
0.746064681491D-04 0.000000000000D+00 0.000000000000D+00 0.209816074902D-02 0.504385178847D-03  5 -3 3 25 23 21 2 0.45148794D-02 0.77507502D-01 0.14066573D+05 0.14066573D+05 0.14066573D+05 0.12510161D+01  1  2 11  2  5  2        3 0.113040508883D-01 0.100000000000D+01
0.208632638206D-05 0.000000000000D+00 0.000000000000D+00 0.209816074902D-02 0.000000000000D+00  5 -3 21 25 23 -3 2 0.43872541D-02 0.78583342D-01 0.14066573D+05 0.14066573D+05 0.14066573D+05 0.12510161D+01  1  2 12  4  5  2        3 0.629902495684D-02 0.100000000000D+01
0.754130099179D-06 0.000000000000D+00 0.000000000000D+00 0.209816074902D-02 0.201021750844D-05  5 -3 21 25 23 -3 2 0.45148794D-02 0.77507502D-01 0.14066573D+05 0.14066573D+05 0.14066573D+05 0.12510161D+01  1  2 11  4  5  2        3 0.224434468549D-02 0.100000000000D+01
  </mgrwgt>
  </event>
  <event>
  4     66 0.43907321E-03 0.48618122E+02 0.75467711E-02 0.12053675E+00
       -1 -1    0    0    0  501 0.00000000E+00 0.00000000E+00 0.88812724E+01 0.88870355E+01 0.32000000E+00 0.0000E+00 0.9000E+01
        1 -1    0    0  501    0 0.00000000E+00 0.00000000E+00 -.14900624E+04 0.14900624E+04 0.32000000E+00 0.0000E+00 0.9000E+01
       25  1    1    2    0    0 0.38981480E+02 0.28824900E+00 -.83822452E+03 0.84838964E+03 0.12500000E+03 0.0000E+00 0.9000E+01
       23  1    1    2    0    0 -.38981480E+02 -.28824900E+00 -.64295661E+03 0.65055983E+03 0.91188000E+02 0.0000E+00 0.9000E+01
#aMCatNLO 1  0  0  2  1 0.55470547D+02 0.00000000D+00  -5  5  0 0.00000000D+00 0.00000000D+00 0.00000000D+00 0.00000000D+00 0.00000000D+00
  <mgrwgt>
 0.1828951998D+00    9    2    0
 0.115056486469497D+03 0.000000000000000D+00 0.000000000000000D+00 0.115056486469497D+03
 0.115056486469497D+03 0.000000000000000D+00 0.000000000000000D+00 -.115056486469497D+03
 0.130939442920496D+03 0.389814799270666D+02 0.288249003658208D+00 0.706291397036609D+00
 0.991735300184980D+02 -.389814799270666D+02 -.288249003658208D+00 -.706291397036609D+00
 0.000000000000000D+00 -.000000000000000D+00 0.000000000000000D+00 -.000000000000000D+00
 0.140638769725864D+03 0.000000000000000D+00 0.000000000000000D+00 0.140638769725864D+03
 0.152868266918774D+03 0.000000000000000D+00 0.000000000000000D+00 -.152868266918774D+03
 0.135422113491895D+03 0.416802944480463D+02 -.312474483726006D+02 0.706291397036609D+00
 0.101282263107735D+03 -.369504323067185D+02 -.240210778491227D+02 -.706291397036609D+00
 0.568026600450072D+02 -.472986214132775D+01 0.552685262217233D+02 -.122294971929094D+02
0.138583343312D-03 0.000000000000D+00 0.000000000000D+00 0.226135905419D-02 0.000000000000D+00  5 -1 1 25 23 21 0 0.13667956D-02 0.22924082D+00 0.13237487D+05 0.13237487D+05 0.13237487D+05 0.12540591D+01  1  2  2  2  5  2        1 0.116481207775D+00 0.100000000000D+01
-.769907462499D-05 0.000000000000D+00 -.532196528150D-06 0.226135905419D-02 0.000000000000D+00  5 -1 1 25 23 21 2 0.13667956D-02 0.22924082D+00 0.13237487D+05 0.13237487D+05 0.13237487D+05 0.12540591D+01  1  2  3  2  5  2        1 -.101769899412D-01 0.100000000000D+01
0.959871850839D-05 0.000000000000D+00 0.000000000000D+00 0.226135905419D-02 0.000000000000D+00  5 -1 1 25 23 21 2 0.13667956D-02 0.22924082D+00 0.13237487D+05 0.13237487D+05 0.13237487D+05 0.12540591D+01  1  2 15  2  5  2        1 0.126880263494D-01 0.100000000000D+01
0.472489407168D-04 0.000000000000D+00 0.000000000000D+00 0.226135905419D-02 0.000000000000D+00  5 -1 1 25 23 21 2 0.13667956D-02 0.32312718D+00 0.21340918D+05 0.21340918D+05 0.21340918D+05 0.12307353D+01  1  2 12  2  5  2        1 0.247359982139D-01 0.100000000000D+01
-.660057279769D-04 0.000000000000D+00 0.000000000000D+00 0.226135905419D-02 0.000000000000D+00  5 -1 1 25 23 21 2 0.13667956D-02 0.22924082D+00 0.13237487D+05 0.13237487D+05 0.13237487D+05 0.12540591D+01  1  2  4  2  5  2        1 -.872493984536D-01 0.100000000000D+01
-.128357639084D-03 0.000000000000D+00 -.545920708518D-04 0.226135905419D-02 0.000000000000D+00  5 -1 1 25 23 21 2 0.13667956D-02 0.33658991D+00 0.13237487D+05 0.13237487D+05 0.13237487D+05 0.12540591D+01  1  2  5  2  5  2        1 -.612035105176D-01 0.100000000000D+01
0.142479770094D-03 0.000000000000D+00 0.507986913445D-04 0.226135905419D-02 0.000000000000D+00  5 -1 1 25 23 21 2 0.13667956D-02 0.22924082D+00 0.13237487D+05 0.13237487D+05 0.13237487D+05 0.12540591D+01  1  2  6  2  5  2        1 0.188336294644D+00 0.100000000000D+01
0.201272397606D-05 0.000000000000D+00 0.000000000000D+00 0.226135905419D-02 0.000000000000D+00  5 -1 21 25 23 -1 2 0.13667956D-02 0.32312718D+00 0.21340918D+05 0.21340918D+05 0.21340918D+05 0.12307353D+01  1  2 12  4  5  2        1 0.828037804434D-03 0.100000000000D+01
-.416878683114D-05 0.000000000000D+00 -.252259712789D-05 0.226135905419D-02 0.000000000000D+00  5 -1 21 25 23 -1 2 0.13667956D-02 0.33658991D+00 0.13237487D+05 0.13237487D+05 0.13237487D+05 0.12540591D+01  1  2  5  4  5  2        1 -.154446609587D-02 0.100000000000D+01
  </mgrwgt>
  </event>
  <event>
  4     66 0.43907321E-03 0.63800380E+02 0.75467711E-02 0.12157048E+00
       -1 -1    0    0    0  501 0.00000000E+00 0.00000000E+00 0.17885888E+03 0.17885917E+03 0.32000000E+00 0.0000E+00 0.9000E+01
        1 -1    0    0  501    0 0.00000000E+00 0.00000000E+00 -.92422090E+02 0.92422644E+02 0.32000000E+00 0.0000E+00 0.9000E+01
       25  1    1    2    0    0 -.39460863E+02 -.54543527E+02 0.31983824E+02 0.14553392E+03 0.12500000E+03 0.0000E+00 0.9000E+01
       23  1    1    2    0    0 0.39460863E+02 0.54543527E+02 0.54452967E+02 0.12574789E+03 0.91188000E+02 0.0000E+00 0.9000E+01
#aMCatNLO 1  0  0  1  2 0.20377901D+02 0.00000000D+00  -5  5  0 0.00000000D+00 0.00000000D+00 0.00000000D+00 0.00000000D+00 0.00000000D+00
  <mgrwgt>
 0.1601654181D+00    9    2    0
 0.128571480441329D+03 0.000000000000000D+00 0.000000000000000D+00 0.128571480441329D+03
 0.128571480441329D+03 0.000000000000000D+00 0.000000000000000D+00 -.128571480441329D+03
 0.142784874871628D+03 -.394608627817859D+02 -.545435266735089D+02 -.151777632950206D+02
 0.114358086011031D+03 0.394608627817859D+02 0.545435266735089D+02 0.151777632950206D+02
 0.000000000000000D+00 -.000000000000000D+00 0.000000000000000D+00 0.000000000000000D+00
 0.139298153729061D+03 0.000000000000000D+00 0.000000000000000D+00 0.139298153729061D+03
 0.139030647832456D+03 0.000000000000000D+00 0.000000000000000D+00 -.139030647832456D+03
 0.147121299052365D+03 -.379995768661364D+02 -.659192255279919D+02 -.151777632950206D+02
 0.110827845529838D+03 0.405959232246496D+02 0.457074011477836D+02 0.151777632950206D+02
 0.203796569793132D+02 -.259634635851319D+01 0.202118243802083D+02 0.267505896605115D+00
0.209742803088D-03 0.000000000000D+00 0.000000000000D+00 0.196313994539D-02 0.000000000000D+00  5 -1 1 25 23 21 0 0.27516816D-01 0.14218848D-01 0.16297370D+05 0.16297370D+05 0.16297370D+05 0.12437363D+01  1  2  2  1  5  1       -1 0.946502342642D-01 0.100000000000D+01
-.116516626509D-04 0.000000000000D+00 -.805467590406D-06 0.196313994539D-02 0.000000000000D+00  5 -1 1 25 23 21 2 0.27516816D-01 0.14218848D-01 0.16297370D+05 0.16297370D+05 0.16297370D+05 0.12437363D+01  1  2  3  1  5  1       -1 -.813353142948D-02 0.100000000000D+01
0.145390115110D-04 0.000000000000D+00 0.000000000000D+00 0.196313994539D-02 0.000000000000D+00  5 -1 1 25 23 21 2 0.27516816D-01 0.14218848D-01 0.16297370D+05 0.16297370D+05 0.16297370D+05 0.12437363D+01  1  2 15  1  5  1       -1 0.101490671865D-01 0.100000000000D+01
0.223085680846D-03 0.000000000000D+00 0.000000000000D+00 0.196313994539D-02 0.000000000000D+00  5 -1 1 25 23 21 2 0.30842770D-01 0.14218848D-01 0.19112763D+05 0.19112763D+05 0.19112763D+05 0.12360015D+01  1  2 12  1  5  1       -1 0.127678395426D+00 0.100000000000D+01
-.177493940752D-03 0.000000000000D+00 0.000000000000D+00 0.196313994539D-02 0.000000000000D+00  5 -1 1 25 23 21 2 0.27516816D-01 0.14218848D-01 0.16297370D+05 0.16297370D+05 0.16297370D+05 0.12437363D+01  1  2  4  1  5  1       -1 -.123900990692D+00 0.100000000000D+01
-.711756868215D-03 0.000000000000D+00 -.176351844974D-03 0.196313994539D-02 0.000000000000D+00  5 -1 1 25 23 21 2 0.32090415D-01 0.14218848D-01 0.16297370D+05 0.16297370D+05 0.16297370D+05 0.12437363D+01  1  2  5  1  5  1       -1 -.384017238145D+00 0.100000000000D+01
0.732263854469D-03 0.000000000000D+00 0.174287515422D-03 0.196313994539D-02 0.000000000000D+00  5 -1 1 25 23 21 2 0.27516816D-01 0.14218848D-01 0.16297370D+05 0.16297370D+05 0.16297370D+05 0.12437363D+01  1  2  6  1  5  1       -1 0.511162333948D+00 0.100000000000D+01
0.405656575830D-05 0.000000000000D+00 0.000000000000D+00 0.196313994539D-02 0.000000000000D+00  5 21 1 25 23 1 2 0.30842770D-01 0.14218848D-01 0.19112763D+05 0.19112763D+05 0.19112763D+05 0.12360015D+01  1  2 12  3  5  1       -1 0.266722827502D-01 0.100000000000D+01
-.152842530137D-04 0.000000000000D+00 -.410400912754D-05 0.196313994539D-02 0.000000000000D+00  5 21 1 25 23 1 2 0.32090415D-01 0.14218848D-01 0.16297370D+05 0.16297370D+05 0.16297370D+05 0.12437363D+01  1  2  5  3  5  1       -1 -.940951351759D-01 0.100000000000D+01
  </mgrwgt>
  </event>
  <event>
  4     66 0.43907321E-03 0.11120256E+03 0.75467711E-02 0.10745474E+00
       -1 -1    0    0    0  501 0.00000000E+00 0.00000000E+00 0.81512045E+01 0.81574833E+01 0.32000000E+00 0.0000E+00 0.9000E+01
        1 -1    0    0  501    0 0.00000000E+00 0.00000000E+00 -.15577804E+04 0.15577805E+04 0.32000000E+00 0.0000E+00 0.9000E+01
       25  1    1    2    0    0 -.24350727E+02 -.85429597E+01 -.10123951E+04 0.10204091E+04 0.12500000E+03 0.0000E+00 0.9000E+01
       23  1    1    2    0    0 0.24350727E+02 0.85429597E+01 -.53723417E+03 0.54552887E+03 0.91188000E+02 0.0000E+00 0.9000E+01
#aMCatNLO 1  0  0  1  2 0.28409725D+03 0.00000000D+00  -5  5  0 0.00000000D+00 0.00000000D+00 0.00000000D+00 0.00000000D+00 0.00000000D+00
  <mgrwgt>
 0.1551675557D+00    3    2    0
 0.112706382343050D+03 0.000000000000000D+00 0.000000000000000D+00 0.112706382343050D+03
 0.112706382343050D+03 0.000000000000000D+00 0.000000000000000D+00 -.112706382343050D+03
 0.128920523246248D+03 -.243507273774580D+02 -.854295968191999D+01 -.181538213648881D+02
 0.964922414398508D+02 0.243507273774580D+02 0.854295968191999D+01 0.181538213648881D+02
 0.000000000000000D+00 0.000000000000000D+00 0.000000000000000D+00 -.000000000000000D+00
 0.313900470385096D+03 0.000000000000000D+00 0.000000000000000D+00 0.313900470385096D+03
 0.333534255384232D+03 0.000000000000000D+00 0.000000000000000D+00 -.333534255384232D+03
 0.226757342162934D+03 -.750364773711072D+02 -.172724804409746D+03 -.181538213648881D+02
 0.135902501687760D+03 -.876660433069693D+01 -.987310692707835D+02 0.181538213648881D+02
 0.284774881918633D+03 0.838030817018041D+02 0.271455873680530D+03 -.196337849991362D+02
0.177063854513D-03 0.000000000000D+00 0.000000000000D+00 0.228147383427D-02 0.000000000000D+00  5 -1 1 25 23 21 0 0.12545170D-02 0.23965901D+00 0.12366009D+05 0.12366009D+05 0.12366009D+05 0.12574977D+01  1  2  2  1  5  1       -1 0.151884110417D+00 0.100000000000D+01
-.983472274601D-05 0.000000000000D+00 -.679971823313D-06 0.228147383427D-02 0.000000000000D+00  5 -1 1 25 23 21 2 0.12545170D-02 0.23965901D+00 0.12366009D+05 0.12366009D+05 0.12366009D+05 0.12574977D+01  1  2  3  1  5  1       -1 -.133400964241D-01 0.100000000000D+01
0.122553779872D-04 0.000000000000D+00 0.000000000000D+00 0.228147383427D-02 0.000000000000D+00  5 -1 1 25 23 21 2 0.12545170D-02 0.23965901D+00 0.12366009D+05 0.12366009D+05 0.12366009D+05 0.12574977D+01  1  2 15  1  5  1       -1 0.166235417394D-01 0.100000000000D+01
  </mgrwgt>
  </event>
  <event>
  4     66 0.43907321E-03 0.11575259E+03 0.75467711E-02 0.12472300E+00
       -1 -1    0    0    0  501 0.00000000E+00 0.00000000E+00 0.20637997E+03 0.20638021E+03 0.32000000E+00 0.0000E+00 0.9000E+01
        1 -1    0    0  501    0 0.00000000E+00 0.00000000E+00 -.66975371E+02 0.66976136E+02 0.32000000E+00 0.0000E+00 0.9000E+01
       25  1    1    2    0    0 0.14329874E+00 -.40960459E+02 0.10263452E+03 0.16684312E+03 0.12500000E+03 0.0000E+00 0.9000E+01
       23  1    1    2    0    0 -.14329874E+00 0.40960459E+02 0.36770071E+02 0.10651323E+03 0.91188000E+02 0.0000E+00 0.9000E+01
#aMCatNLO 1  0  0  1  2 0.35262449D+01 0.00000000D+00  -5  5  0 0.00000000D+00 0.00000000D+00 0.00000000D+00 0.00000000D+00 0.00000000D+00
  <mgrwgt>
 0.1332444873D+00    6    2    0
 0.117569185277676D+03 0.000000000000000D+00 0.000000000000000D+00 0.117569185277676D+03
 0.117569185277676D+03 0.000000000000000D+00 0.000000000000000D+00 -.117569185277676D+03
 0.133112689808085D+03 0.143298741292179D+00 -.409604590577404D+02 0.204011873966525D+02
 0.102025680747268D+03 -.143298741292179D+00 0.409604590577404D+02 -.204011873966525D+02
 0.000000000000000D+00 -.000000000000000D+00 0.000000000000000D+00 -.000000000000000D+00
 0.117688967284392D+03 0.000000000000000D+00 0.000000000000000D+00 0.117688967284392D+03
 0.146754039861240D+03 0.000000000000000D+00 0.000000000000000D+00 -.146754039861240D+03
 0.133166449544346D+03 0.213625335280995D+01 -.410795722794923D+02 0.204011873966525D+02
 0.101998360132884D+03 0.138371029937632D+01 0.408691940758753D+02 -.204011873966525D+02
 0.292781974684022D+02 -.351996365218627D+01 0.210378203617049D+00 -.290650725768487D+02
0.206163402766D-03 0.000000000000D+00 0.000000000000D+00 0.215059072817D-02 0.000000000000D+00  5 -1 1 25 23 21 0 0.31750842D-01 0.10303981D-01 0.13398662D+05 0.13398662D+05 0.13398662D+05 0.12534510D+01  1  2  2  1  5  1       -1 0.110829855243D+00 0.100000000000D+01
-.114501455874D-04 0.000000000000D+00 -.791721750691D-06 0.215059072817D-02 0.000000000000D+00  5 -1 1 25 23 21 2 0.31750842D-01 0.10303981D-01 0.13398662D+05 0.13398662D+05 0.13398662D+05 0.12534510D+01  1  2  3  1  5  1       -1 -.967099019493D-02 0.100000000000D+01
0.142988338264D-04 0.000000000000D+00 0.000000000000D+00 0.215059072817D-02 0.000000000000D+00  5 -1 1 25 23 21 2 0.31750842D-01 0.10303981D-01 0.13398662D+05 0.13398662D+05 0.13398662D+05 0.12534510D+01  1  2 15  1  5  1       -1 0.120770413510D-01 0.100000000000D+01
-.424493476431D-05 0.000000000000D+00 0.000000000000D+00 0.215059072817D-02 0.000000000000D+00  5 -1 1 25 23 21 2 0.31750842D-01 0.10303981D-01 0.13398662D+05 0.13398662D+05 0.13398662D+05 0.12534510D+01  1  2  4  1  5  1       -1 -.358534502207D-02 0.100000000000D+01
0.415142863113D-05 0.000000000000D+00 0.000000000000D+00 0.215059072817D-02 0.148140228452D-02  5 -1 1 25 23 21 2 0.31783190D-01 0.12861796D-01 0.13813059D+05 0.13813059D+05 0.13813059D+05 0.12519247D+01  1  2 11  1  5  1       -1 0.261457505181D-02 0.100000000000D+01
0.290263177857D-05 0.000000000000D+00 0.000000000000D+00 0.215059072817D-02 0.318332124407D-06  5 21 1 25 23 1 2 0.31783190D-01 0.12861796D-01 0.13813059D+05 0.13813059D+05 0.13813059D+05 0.12519247D+01  1  2 11  3  5  1       -1 0.209793508534D-01 0.100000000000D+01
  </mgrwgt>
  </event>
  <event>
  4     66 0.43907321E-03 0.69372495E+02 0.75467711E-02 0.12230853E+00
       -1 -1    0    0    0  501 0.00000000E+00 0.00000000E+00 0.79258252E+02 0.79258898E+02 0.32000000E+00 0.0000E+00 0.9000E+01
        1 -1    0    0  501    0 0.00000000E+00 0.00000000E+00 -.21253505E+03 0.21253529E+03 0.32000000E+00 0.0000E+00 0.9000E+01
       25  1    1    2    0    0 0.80256028E+01 -.70774154E+02 -.74009233E+02 0.16178924E+03 0.12500000E+03 0.0000E+00 0.9000E+01
       23  1    1    2    0    0 -.80256028E+01 0.70774154E+02 -.59267563E+02 0.13000495E+03 0.91188000E+02 0.0000E+00 0.9000E+01
#aMCatNLO 1  0  0  1  2 0.63243169D+01 0.00000000D+00  -5  5  0 0.00000000D+00 0.00000000D+00 0.00000000D+00 0.00000000D+00 0.00000000D+00
  <mgrwgt>
 0.6280107198D-01   11    2    0
 0.129789390008752D+03 0.000000000000000D+00 0.000000000000000D+00 0.129789390008752D+03
 0.129789390008752D+03 0.000000000000000D+00 0.000000000000000D+00 -.129789390008752D+03
 0.143869409676590D+03 0.802560278960178D+01 -.707741538914805D+02 -.126021819997380D+00
 0.115709370340913D+03 -.802560278960178D+01 0.707741538914805D+02 0.126021819997380D+00
 0.000000000000000D+00 0.000000000000000D+00 0.000000000000000D+00 0.000000000000000D+00
 0.134886370070308D+03 0.000000000000000D+00 0.000000000000000D+00 0.134886370070308D+03
 0.131804640668301D+03 0.000000000000000D+00 0.000000000000000D+00 -.131804640668301D+03
 0.143737188011365D+03 0.452278263211502D+01 -.708160135363324D+02 -.126021819997380D+00
 0.115918622667219D+03 -.108466479584869D+02 0.707404416414729D+02 0.126021819997380D+00
 0.703520006002491D+01 0.632386532637185D+01 0.755718948595076D-01 0.308172940200687D+01
0.143565304547D-03 0.000000000000D+00 0.000000000000D+00 0.196516562531D-02 0.000000000000D+00  5 -1 1 25 23 21 0 0.12193645D-01 0.32697768D-01 0.16845270D+05 0.16845270D+05 0.16845270D+05 0.12421190D+01  1  2  2  1  5  1       -1 0.827837385945D-01 0.100000000000D+01
-.797585025258D-05 0.000000000000D+00 -.551328571072D-06 0.196516562531D-02 0.000000000000D+00  5 -1 1 25 23 21 2 0.12193645D-01 0.32697768D-01 0.16845270D+05 0.16845270D+05 0.16845270D+05 0.12421190D+01  1  2  3  1  5  1       -1 -.709576024724D-02 0.100000000000D+01
0.992219054335D-05 0.000000000000D+00 0.000000000000D+00 0.196516562531D-02 0.000000000000D+00  5 -1 1 25 23 21 2 0.12193645D-01 0.32697768D-01 0.16845270D+05 0.16845270D+05 0.16845270D+05 0.12421190D+01  1  2 15  1  5  1       -1 0.882733288531D-02 0.100000000000D+01
0.320076316534D-03 0.000000000000D+00 0.000000000000D+00 0.196516562531D-02 0.000000000000D+00  5 -1 1 25 23 21 2 0.12764524D-01 0.32697768D-01 0.17686341D+05 0.17686341D+05 0.17686341D+05 0.12397477D+01  1  2 12  1  5  1       -1 0.264722803784D+00 0.100000000000D+01
-.398077036562D-03 0.000000000000D+00 0.000000000000D+00 0.196516562531D-02 0.000000000000D+00  5 -1 1 25 23 21 2 0.12193645D-01 0.32697768D-01 0.16845270D+05 0.16845270D+05 0.16845270D+05 0.12421190D+01  1  2  4  1  5  1       -1 -.354151485036D+00 0.100000000000D+01
-.230682676708D-02 0.000000000000D+00 -.333355297647D-03 0.196516562531D-02 0.000000000000D+00  5 -1 1 25 23 21 2 0.12860883D-01 0.32697768D-01 0.16845270D+05 0.16845270D+05 0.16845270D+05 0.12421190D+01  1  2  5  1  5  1       -1 -.189009337611D+01 0.100000000000D+01
0.232176325998D-02 0.000000000000D+00 0.332882779664D-03 0.196516562531D-02 0.000000000000D+00  5 -1 1 25 23 21 2 0.12193645D-01 0.32697768D-01 0.16845270D+05 0.16845270D+05 0.16845270D+05 0.12421190D+01  1  2  6  1  5  1       -1 0.206556980408D+01 0.100000000000D+01
0.892036890720D-04 0.000000000000D+00 0.000000000000D+00 0.196516562531D-02 0.403097752740D-03  5 -1 1 25 23 21 2 0.12672504D-01 0.33205469D-01 0.17686341D+05 0.17686341D+05 0.17686341D+05 0.12397477D+01  1  2 11  1  5  1       -1 0.731967080240D-01 0.100000000000D+01
0.466840332744D-05 0.000000000000D+00 0.000000000000D+00 0.196516562531D-02 0.000000000000D+00  5 21 1 25 23 1 2 0.12764524D-01 0.32697768D-01 0.17686341D+05 0.17686341D+05 0.17686341D+05 0.12397477D+01  1  2 12  3  5  1       -1 0.551107680116D-01 0.100000000000D+01
-.209777680903D-04 0.000000000000D+00 -.307938304721D-05 0.196516562531D-02 0.000000000000D+00  5 21 1 25 23 1 2 0.12860883D-01 0.32697768D-01 0.16845270D+05 0.16845270D+05 0.16845270D+05 0.12421190D+01  1  2  5  3  5  1       -1 -.245102936774D+00 0.100000000000D+01
0.769989853164D-06 0.000000000000D+00 0.000000000000D+00 0.196516562531D-02 0.277712717231D-05  5 21 1 25 23 1 2 0.12672504D-01 0.33205469D-01 0.17686341D+05 0.17686341D+05 0.17686341D+05 0.12397477D+01  1  2 11  3  5  1       -1 0.903347476681D-02 0.100000000000D+01
  </mgrwgt>
  </event>
  <event>
  4     66 0.43907321E-03 0.11633230E+03 0.75467711E-02 0.12084049E+00
       -1 -1    0    0    0  501 0.00000000E+00 0.00000000E+00 0.17983591E+03 0.17983620E+03 0.32000000E+00 0.0000E+00 0.9000E+01
        1 -1    0    0  501    0 0.00000000E+00 0.00000000E+00 -.77818054E+02 0.77818712E+02 0.32000000E+00 0.0000E+00 0.9000E+01
       25  1    1    2    0    0 0.17092534E+02 0.38957537E+02 0.80854514E+02 0.15482990E+03 0.12500000E+03 0.0000E+00 0.9000E+01
       23  1    1    2    0    0 -.17092534E+02 -.38957537E+02 0.21163342E+02 0.10282501E+03 0.91188000E+02 0.0000E+00 0.9000E+01
#aMCatNLO 1  0  0  1  2 0.49531010D+02 0.00000000D+00  -5  5  0 0.00000000D+00 0.00000000D+00 0.00000000D+00 0.00000000D+00 0.00000000D+00
  <mgrwgt>
 0.1417585435D+00    4    2    0
 0.118298782975893D+03 0.000000000000000D+00 0.000000000000000D+00 0.118298782975893D+03
 0.118298782975893D+03 0.000000000000000D+00 0.000000000000000D+00 -.118298782975893D+03
 0.133746424262045D+03 0.170925337789542D+02 0.389575373507692D+02 0.212899407106208D+02
 0.102851141689740D+03 -.170925337789542D+02 -.389575373507692D+02 -.212899407106208D+02
 0.000000000000000D+00 -.000000000000000D+00 0.000000000000000D+00 -.000000000000000D+00
 0.128396030385955D+03 0.000000000000000D+00 0.000000000000000D+00 0.128396030385955D+03
 0.202285089776674D+03 0.000000000000000D+00 0.000000000000000D+00 -.202285089776674D+03
 0.131576990639389D+03 0.314971600172071D+02 0.155618701031298D+02 0.212899407106208D+02
 0.110149567970990D+03 -.552855020711125D+01 -.577394972037460D+02 -.212899407106208D+02
 0.889545615522496D+02 -.259686098100959D+02 0.421776271006162D+02 -.738890593907198D+02
0.276158644292D-03 0.000000000000D+00 0.000000000000D+00 0.213018529368D-02 0.000000000000D+00  5 -1 1 25 23 21 0 0.27667136D-01 0.11972081D-01 0.13533205D+05 0.13533205D+05 0.13533205D+05 0.12529497D+01  1  2  2  1  5  1       -1 0.153514554231D+00 0.100000000000D+01
-.153369054007D-04 0.000000000000D+00 -.106052190832D-05 0.213018529368D-02 0.000000000000D+00  5 -1 1 25 23 21 2 0.27667136D-01 0.11972081D-01 0.13533205D+05 0.13533205D+05 0.13533205D+05 0.12529497D+01  1  2  3  1  5  1       -1 -.133843086477D-01 0.100000000000D+01
0.191597561507D-04 0.000000000000D+00 0.000000000000D+00 0.213018529368D-02 0.000000000000D+00  5 -1 1 25 23 21 2 0.27667136D-01 0.11972081D-01 0.13533205D+05 0.13533205D+05 0.13533205D+05 0.12529497D+01  1  2 15  1  5  1       -1 0.167204584782D-01 0.100000000000D+01
-.172939107012D-04 0.000000000000D+00 0.000000000000D+00 0.213018529368D-02 0.000000000000D+00  5 -1 1 25 23 21 2 0.27667136D-01 0.11972081D-01 0.13533205D+05 0.13533205D+05 0.13533205D+05 0.12529497D+01  1  2  4  1  5  1       -1 -.150921605437D-01 0.100000000000D+01
  </mgrwgt>
  </event>
  <event>
  5     66 0.43907321E-03 0.10915930E+03 0.75467711E-02 0.12239405E+00
       21 -1    0    0  502  501 0.00000000E+00 0.00000000E+00 0.14024774E+02 0.14044814E+02 0.75000000E+00 0.0000E+00 0.9000E+01
        1 -1    0    0  501    0 0.00000000E+00 0.00000000E+00 -.21725449E+04 0.21725449E+04 0.32000000E+00 0.0000E+00 0.9000E+01
       25  1    1    2    0    0 0.27695490E+02 -.86900888E+00 -.52527342E+03 0.54065235E+03 0.12500000E+03 0.0000E+00 0.9000E+01
       23  1    1    2    0    0 0.86189630E+01 0.22732453E+02 -.15466089E+04 0.15494856E+04 0.91188000E+02 0.0000E+00 0.9000E+01
        1  1    1    2  502    0 -.36314453E+02 -.21863444E+02 -.86637771E+02 0.96451830E+02 0.32000000E+00 0.0000E+00 0.9000E+01
#aMCatNLO 2  0  0  1  2 0.42388085D+02 0.00000000D+00  -5  5  0 0.00000000D+00 0.00000000D+00 0.00000000D+00 0.00000000D+00 0.00000000D+00
  <mgrwgt>
 0.4123620519D-01    2    2    0
 0.136182992843068D+03 0.000000000000000D+00 0.000000000000000D+00 0.136182992843068D+03
 0.136182992843068D+03 0.000000000000000D+00 0.000000000000000D+00 -.136182992843068D+03
 0.149601975095175D+03 0.774915196609465D+01 -.128778819434028D+02 0.808075599980323D+02
 0.122764010590960D+03 -.774915196609465D+01 0.128778819434028D+02 -.808075599980323D+02
 0.000000000000000D+00 -.000000000000000D+00 -.000000000000000D+00 0.000000000000000D+00
 0.211914208680687D+03 0.000000000000000D+00 0.000000000000000D+00 0.211914208680687D+03
 0.143884904333076D+03 0.000000000000000D+00 0.000000000000000D+00 -.143884904333076D+03
 0.151402302180132D+03 0.276954901776081D+02 -.869008878193641D+00 0.808075599980323D+02
 0.124242360152899D+03 0.861896298513989D+01 0.227324533781070D+02 -.808075599980323D+02
 0.801544506807327D+02 -.363144531627480D+02 -.218634444999133D+02 0.680293043476104D+02
-.243282690682D-04 0.000000000000D+00 0.000000000000D+00 0.135119973425D-02 0.000000000000D+00  5 21 1 25 23 1 2 0.21805384D-02 0.31634729D+00 0.17529183D+05 0.17529183D+05 0.17529183D+05 0.12401811D+01  1  2 13  3  5  1       -1 -.144161996630D+00 0.100000000000D+01
0.365203001082D-04 0.000000000000D+00 0.000000000000D+00 0.135119973425D-02 0.401605069068D-06  5 21 1 25 23 1 2 0.21591963D-02 0.33423850D+00 0.17529183D+05 0.17529183D+05 0.17529183D+05 0.12401811D+01  1  2  1  3  5  1       -1 0.185398201822D+00 0.100000000000D+01
  </mgrwgt>
  </event>
  <event>
  4     66 0.43907321E-03 0.87470980E+02 0.75467711E-02 0.12121452E+00
       -1 -1    0    0    0  501 0.00000000E+00 0.00000000E+00 0.96735576E+01 0.96788489E+01 0.32000000E+00 0.0000E+00 0.9000E+01
        1 -1    0    0  501    0 0.00000000E+00 0.00000000E+00 -.20719624E+04 0.20719625E+04 0.32000000E+00 0.0000E+00 0.9000E+01
       25  1    1    2    0    0 -.43359228E+02 0.76992067E+02 -.12788716E+04 0.12880005E+04 0.12500000E+03 0.0000E+00 0.9000E+01
       23  1    1    2    0    0 0.43359228E+02 -.76992067E+02 -.78341732E+03 0.79364082E+03 0.91188000E+02 0.0000E+00 0.9000E+01
#aMCatNLO 1  0  0  2  1 0.17093966D+01 0.00000000D+00  -5  5  0 0.00000000D+00 0.00000000D+00 0.00000000D+00 0.00000000D+00 0.00000000D+00
  <mgrwgt>
 0.4029178865D+00   11    2    0
 0.141593718166132D+03 0.000000000000000D+00 0.000000000000000D+00 0.141593718166132D+03
 0.141593718166132D+03 0.000000000000000D+00 0.000000000000000D+00 -.141593718166132D+03
 0.154499920416262D+03 -.433592278694676D+02 0.769920669346187D+02 -.209146933118833D+02
 0.128687515916002D+03 0.433592278694676D+02 -.769920669346187D+02 0.209146933118833D+02
 0.000000000000000D+00 0.000000000000000D+00 -.000000000000000D+00 -.000000000000000D+00
 0.142091035486173D+03 0.000000000000000D+00 0.000000000000000D+00 0.142091035486173D+03
 0.143072856183697D+03 0.000000000000000D+00 0.000000000000000D+00 -.143072856183697D+03
 0.155010811580871D+03 -.440435716225987D+02 0.776279016163336D+02 -.209146933118833D+02
 0.128181783896547D+03 0.427912769633273D+02 -.764643747010254D+02 0.209146933118833D+02
 0.197129619245113D+01 0.125229465927138D+01 -.116352691530816D+01 -.981820697523835D+00
0.267330571827D-03 0.000000000000D+00 0.000000000000D+00 0.177829203551D-02 0.000000000000D+00  5 -1 1 25 23 21 0 0.14886486D-02 0.31876386D+00 0.19607609D+05 0.19607609D+05 0.19607609D+05 0.12347745D+01  1  2  2  2  5  2        1 0.851756273888D-01 0.100000000000D+01
-.148494634044D-04 0.000000000000D+00 -.102661978557D-05 0.177829203551D-02 0.000000000000D+00  5 -1 1 25 23 21 2 0.14886486D-02 0.31876386D+00 0.19607609D+05 0.19607609D+05 0.19607609D+05 0.12347745D+01  1  2  3  2  5  2        1 -.721361253187D-02 0.100000000000D+01
0.184736766650D-04 0.000000000000D+00 0.000000000000D+00 0.177829203551D-02 0.000000000000D+00  5 -1 1 25 23 21 2 0.14886486D-02 0.31876386D+00 0.19607609D+05 0.19607609D+05 0.19607609D+05 0.12347745D+01  1  2 15  2  5  2        1 0.897419266082D-02 0.100000000000D+01
0.600919478175D-07 0.000000000000D+00 0.000000000000D+00 0.177829203551D-02 0.000000000000D+00  5 -1 1 25 23 21 2 0.14886486D-02 0.32264964D+00 0.19848131D+05 0.19848131D+05 0.19848131D+05 0.12341907D+01  1  2 12  2  5  2        1 0.281040157822D-04 0.100000000000D+01
-.519757025760D-02 0.000000000000D+00 0.000000000000D+00 0.177829203551D-02 0.000000000000D+00  5 -1 1 25 23 21 2 0.14886486D-02 0.31876386D+00 0.19607609D+05 0.19607609D+05 0.19607609D+05 0.12347745D+01  1  2  4  2  5  2        1 -.252488975019D+01 0.100000000000D+01
-.237875308076D-01 0.000000000000D+00 -.234626750666D-02 0.177829203551D-02 0.000000000000D+00  5 -1 1 25 23 21 2 0.14886486D-02 0.32256166D+00 0.19607609D+05 0.19607609D+05 0.19607609D+05 0.12347745D+01  1  2  5  2  5  2        1 -.111442957068D+02 0.100000000000D+01
0.238138136757D-01 0.000000000000D+00 0.234610295609D-02 0.177829203551D-02 0.000000000000D+00  5 -1 1 25 23 21 2 0.14886486D-02 0.31876386D+00 0.19607609D+05 0.19607609D+05 0.19607609D+05 0.12347745D+01  1  2  6  2  5  2        1 0.115683388743D+02 0.100000000000D+01
0.519780364619D-02 0.000000000000D+00 0.000000000000D+00 0.177829203551D-02 0.494430275551D-02  5 -1 1 25 23 21 2 0.14938771D-02 0.32209378D+00 0.19848131D+05 0.19848131D+05 0.19848131D+05 0.12341907D+01  1  2 11  2  5  2        1 0.243158860698D+01 0.100000000000D+01
0.536325268194D-08 0.000000000000D+00 0.000000000000D+00 0.177829203551D-02 0.000000000000D+00  5 -1 21 25 23 -1 2 0.14886486D-02 0.32264964D+00 0.19848131D+05 0.19848131D+05 0.19848131D+05 0.12341907D+01  1  2 12  4  5  2        1 0.198490327275D-05 0.100000000000D+01
-.517772183473D-04 0.000000000000D+00 -.511900600973D-05 0.177829203551D-02 0.000000000000D+00  5 -1 21 25 23 -1 2 0.14886486D-02 0.32256166D+00 0.19607609D+05 0.19607609D+05 0.19607609D+05 0.12347745D+01  1  2  5  4  5  2        1 -.192184524839D-01 0.100000000000D+01
0.119377682213D-04 0.000000000000D+00 0.000000000000D+00 0.177829203551D-02 0.949490995944D-05  5 -1 21 25 23 -1 2 0.14938771D-02 0.32209378D+00 0.19848131D+05 0.19848131D+05 0.19848131D+05 0.12341907D+01  1  2 11  4  5  2        1 0.442801829617D-02 0.100000000000D+01
  </mgrwgt>
  </event>
  <event>
  4     66 0.43907321E-03 0.69259669E+02 0.75467711E-02 0.11782414E+00
       -1 -1    0    0    0  501 0.00000000E+00 0.00000000E+00 0.48733586E+02 0.48734636E+02 0.32000000E+00 0.0000E+00 0.9000E+01
        1 -1    0    0  501    0 0.00000000E+00 0.00000000E+00 -.44610164E+03 0.44610175E+03 0.32000000E+00 0.0000E+00 0.9000E+01
       25  1    1    2    0    0 -.25144230E+02 0.93992354E+02 -.17950853E+03 0.23940574E+03 0.12500000E+03 0.0000E+00 0.9000E+01
       23  1    1    2    0    0 0.25144230E+02 -.93992354E+02 -.21785952E+03 0.25543065E+03 0.91188000E+02 0.0000E+00 0.9000E+01
#aMCatNLO 1  0  0  1  2 0.44158472D+02 0.00000000D+00  -5  5  0 0.00000000D+00 0.00000000D+00 0.00000000D+00 0.00000000D+00 0.00000000D+00
  <mgrwgt>
 0.1404410571D+00    9    2    0
 0.147446331579824D+03 0.000000000000000D+00 0.000000000000000D+00 0.147446331579824D+03
 0.147446331579824D+03 0.000000000000000D+00 0.000000000000000D+00 -.147446331579824D+03
 0.159840245652964D+03 -.251442297187333D+02 0.939923538830918D+02 0.213801135115554D+02
 0.135052417506684D+03 0.251442297187333D+02 -.939923538830918D+02 -.213801135115554D+02
 0.000000000000000D+00 -.000000000000000D+00 0.000000000000000D+00 0.000000000000000D+00
 0.192458885483704D+03 0.000000000000000D+00 0.000000000000000D+00 0.192458885483704D+03
 0.160330968279591D+03 0.000000000000000D+00 0.000000000000000D+00 -.160330968279591D+03
 0.157766228817846D+03 -.149668958492565D+01 0.938394033544767D+02 0.213801135115554D+02
 0.140414342980860D+03 0.456542375358374D+02 -.941250110863264D+02 -.213801135115554D+02
 0.546092819645883D+02 -.441575479509118D+02 0.285607731849688D+00 0.321279172041130D+02
0.228457117488D-03 0.000000000000D+00 0.000000000000D+00 0.172014388974D-02 0.000000000000D+00  5 -1 1 25 23 21 0 0.74975643D-02 0.68631111D-01 0.21279988D+05 0.21279988D+05 0.21279988D+05 0.12308710D+01  1  2  2  1  5  1       -1 0.110428046132D+00 0.100000000000D+01
-.126902942935D-04 0.000000000000D+00 -.877335485293D-06 0.172014388974D-02 0.000000000000D+00  5 -1 1 25 23 21 2 0.74975643D-02 0.68631111D-01 0.21279988D+05 0.21279988D+05 0.21279988D+05 0.12308710D+01  1  2  3  1  5  1       -1 -.929333257605D-02 0.100000000000D+01
0.157441658573D-04 0.000000000000D+00 0.000000000000D+00 0.172014388974D-02 0.000000000000D+00  5 -1 1 25 23 21 2 0.74975643D-02 0.68631111D-01 0.21279988D+05 0.21279988D+05 0.21279988D+05 0.12308710D+01  1  2 15  1  5  1       -1 0.115297380864D-01 0.100000000000D+01
0.207014890788D-03 0.000000000000D+00 0.000000000000D+00 0.172014388974D-02 0.000000000000D+00  5 -1 1 25 23 21 2 0.10038189D-01 0.68631111D-01 0.28772026D+05 0.28772026D+05 0.28772026D+05 0.12168080D+01  1  2 12  1  5  1       -1 0.956987950060D-01 0.100000000000D+01
-.221353063883D-03 0.000000000000D+00 0.000000000000D+00 0.172014388974D-02 0.000000000000D+00  5 -1 1 25 23 21 2 0.74975643D-02 0.68631111D-01 0.21279988D+05 0.21279988D+05 0.21279988D+05 0.12308710D+01  1  2  4  1  5  1       -1 -.162100861635D+00 0.100000000000D+01
-.343000379240D-03 0.000000000000D+00 -.997694302067D-04 0.172014388974D-02 0.000000000000D+00  5 -1 1 25 23 21 2 0.10614756D-01 0.68631111D-01 0.21279988D+05 0.21279988D+05 0.21279988D+05 0.12308710D+01  1  2  5  1  5  1       -1 -.148084233364D+00 0.100000000000D+01
0.361366663924D-03 0.000000000000D+00 0.940291985473D-04 0.172014388974D-02 0.000000000000D+00  5 -1 1 25 23 21 2 0.74975643D-02 0.68631111D-01 0.21279988D+05 0.21279988D+05 0.21279988D+05 0.12308710D+01  1  2  6  1  5  1       -1 0.264635359281D+00 0.100000000000D+01
0.784376825895D-05 0.000000000000D+00 0.000000000000D+00 0.172014388974D-02 0.000000000000D+00  5 21 1 25 23 1 2 0.10038189D-01 0.68631111D-01 0.28772026D+05 0.28772026D+05 0.28772026D+05 0.12168080D+01  1  2 12  3  5  1       -1 0.542379677434D-01 0.100000000000D+01
-.119517337427D-04 0.000000000000D+00 -.428916393922D-05 0.172014388974D-02 0.000000000000D+00  5 21 1 25 23 1 2 0.10614756D-01 0.68631111D-01 0.21279988D+05 0.21279988D+05 0.21279988D+05 0.12308710D+01  1  2  5  3  5  1       -1 -.766104215392D-01 0.100000000000D+01
  </mgrwgt>
  </event>
  <event>
  4     66 0.43907321E-03 0.11603616E+03 0.75467711E-02 0.11043637E+00
       -1 -1    0    0    0  501 0.00000000E+00 0.00000000E+00 0.22828692E+02 0.22830935E+02 0.32000000E+00 0.0000E+00 0.9000E+01
        1 -1    0    0  501    0 0.00000000E+00 0.00000000E+00 -.60072352E+03 0.60072361E+03 0.32000000E+00 0.0000E+00 0.9000E+01
       25  1    1    2    0    0 -.33081032E+02 -.25454603E+02 -.28573162E+03 0.31465830E+03 0.12500000E+03 0.0000E+00 0.9000E+01
       23  1    1    2    0    0 0.33081032E+02 0.25454603E+02 -.29216321E+03 0.30889624E+03 0.91188000E+02 0.0000E+00 0.9000E+01
#aMCatNLO 1  0  0  2  2 0.21380377D+03 0.00000000D+00  -5  5  0 0.00000000D+00 0.00000000D+00 0.00000000D+00 0.00000000D+00 0.00000000D+00
  <mgrwgt>
 0.2022620664D+00    3    2    0
 0.117108745151144D+03 0.000000000000000D+00 0.000000000000000D+00 0.117108745151144D+03
 0.117108745151144D+03 0.000000000000000D+00 0.000000000000000D+00 -.117108745151144D+03
 0.132713362565850D+03 -.330810324792414D+02 -.254546025286666D+02 0.156698788683842D+02
 0.101504127736437D+03 0.330810324792414D+02 0.254546025286666D+02 -.156698788683842D+02
 0.000000000000000D+00 0.000000000000000D+00 -.000000000000000D+00 0.000000000000000D+00
 0.707456568633345D+03 0.000000000000000D+00 0.000000000000000D+00 0.707456568633345D+03
 0.179383896940895D+03 0.000000000000000D+00 0.000000000000000D+00 -.179383896940895D+03
 0.176072838264110D+03 -.967585346912648D+02 0.759531779126389D+02 0.156698788683842D+02
 0.141054717023311D+03 -.169391476072387D+02 0.105112806189905D+03 -.156698788683842D+02
 0.569712910286819D+03 0.113697682298503D+03 -.181065984102544D+03 0.528072671692451D+03
0.199910428816D-03 0.000000000000D+00 0.000000000000D+00 0.218125185073D-02 0.000000000000D+00  5 -1 1 25 23 21 0 0.35122856D-02 0.92419182D-01 0.13464391D+05 0.13464391D+05 0.13464391D+05 0.12532054D+01  1  2  2  2  5  2        1 0.197998442937D+00 0.100000000000D+01
-.111049917357D-04 0.000000000000D+00 -.767708684279D-06 0.218125185073D-02 0.000000000000D+00  5 -1 1 25 23 21 2 0.35122856D-02 0.92419182D-01 0.13464391D+05 0.13464391D+05 0.13464391D+05 0.12532054D+01  1  2  3  2  5  2        1 -.172738480201D-01 0.100000000000D+01
0.138459851325D-04 0.000000000000D+00 0.000000000000D+00 0.218125185073D-02 0.000000000000D+00  5 -1 1 25 23 21 2 0.35122856D-02 0.92419182D-01 0.13464391D+05 0.13464391D+05 0.13464391D+05 0.12532054D+01  1  2 15  2  5  2        1 0.215374714866D-01 0.100000000000D+01
  </mgrwgt>
  </event>
  <event>
  5     66 0.43907321E-03 0.14975291E+03 0.75467711E-02 0.10849819E+00
       21 -1    0    0  502  501 0.00000000E+00 0.00000000E+00 0.43915612E+03 0.43915676E+03 0.75000000E+00 0.0000E+00 0.9000E+01
        1 -1    0    0  501    0 0.00000000E+00 0.00000000E+00 -.84396324E+03 0.84396330E+03 0.32000000E+00 0.0000E+00 0.9000E+01
       25  1    1    2    0    0 0.59071994E+02 -.18528649E+03 -.59432277E+03 0.63770301E+03 0.12500000E+03 0.0000E+00 0.9000E+01
       23  1    1    2    0    0 -.10443719E+03 -.36585582E+02 -.16883332E+03 0.22150750E+03 0.91188000E+02 0.0000E+00 0.9000E+01
        1  1    1    2  502    0 0.45365196E+02 0.22187207E+03 0.35834896E+03 0.42390954E+03 0.32000000E+00 0.0000E+00 0.9000E+01
#aMCatNLO 2  0  0  1  2 0.22646240D+03 0.00000000D+00  -5  5  0 0.00000000D+00 0.00000000D+00 0.00000000D+00 0.00000000D+00 0.00000000D+00
  <mgrwgt>
 0.7517523866D-01    1    2    0
 0.161671178300321D+03 0.000000000000000D+00 0.000000000000000D+00 0.161671178300321D+03
 0.161671178300321D+03 0.000000000000000D+00 0.000000000000000D+00 -.161671178300321D+03
 0.172974597890703D+03 0.850999513765224D+02 -.579889728757885D+02 -.607493935440922D+02
 0.150367758709939D+03 -.850999513765224D+02 0.579889728757885D+02 0.607493935440922D+02
 0.000000000000000D+00 0.000000000000000D+00 0.000000000000000D+00 0.000000000000000D+00
 0.180482480334759D+04 0.000000000000000D+00 0.000000000000000D+00 0.180482480334759D+04
 0.205356227049572D+03 0.000000000000000D+00 0.000000000000000D+00 -.205356227049572D+03
 0.239031530821786D+03 0.590719938550357D+02 -.185286490206442D+03 -.607493935440922D+02
 0.155728519138061D+03 -.104437190223454D+03 -.365855820124367D+02 0.607493935440922D+02
 0.161542098043731D+04 0.453651963684180D+02 0.221872072218879D+03 0.159946857629802D+04
0.123010468968D-02 0.000000000000D+00 0.000000000000D+00 0.144141925490D-02 0.401874205222D-06  5 21 1 25 23 1 2 0.67562528D-01 0.12984054D+00 0.90311090D+05 0.90311090D+05 0.90311090D+05 0.11676594D+01  1  2  1  3  5  1       -1 0.751752386587D-01 0.100000000000D+01
  </mgrwgt>
  </event>
  <event>
  4     66 0.43907321E-03 0.11344996E+03 0.75467711E-02 0.12312863E+00
       -1 -1    0    0    0  501 0.00000000E+00 0.00000000E+00 0.46759406E+03 0.46759417E+03 0.32000000E+00 0.0000E+00 0.9000E+01
        1 -1    0    0  501    0 0.00000000E+00 0.00000000E+00 -.35165822E+02 0.35167278E+02 0.32000000E+00 0.0000E+00 0.9000E+01
       25  1    1    2    0    0 -.29344355E+02 -.17295644E+02 0.35649031E+03 0.37930275E+03 0.12500000E+03 0.0000E+00 0.9000E+01
       23  1    1    2    0    0 0.29344355E+02 0.17295644E+02 0.75937920E+02 0.12345870E+03 0.91188000E+02 0.0000E+00 0.9000E+01
#aMCatNLO 1  0  0  2  2 0.26413489D+02 0.00000000D+00  -5  5  0 0.00000000D+00 0.00000000D+00 0.00000000D+00 0.00000000D+00 0.00000000D+00
  <mgrwgt>
 0.7909739429D-01    4    2    0
 0.128233080294525D+03 0.000000000000000D+00 0.000000000000000D+00 0.128233080294525D+03
 0.128233080294525D+03 0.000000000000000D+00 0.000000000000000D+00 -.128233080294525D+03
 0.142483983102153D+03 -.293443551334308D+02 -.172956442470395D+02 0.592997044894613D+02
 0.113982177486897D+03 0.293443551334308D+02 0.172956442470395D+02 -.592997044894613D+02
 0.000000000000000D+00 -.000000000000000D+00 0.000000000000000D+00 0.000000000000000D+00
 0.154357003319268D+03 0.000000000000000D+00 0.000000000000000D+00 0.154357003319268D+03
 0.135765908046252D+03 0.000000000000000D+00 0.000000000000000D+00 -.135765908046252D+03
 0.142401872830058D+03 -.191258074861061D+02 -.277676416170855D+02 0.592997044894613D+02
 0.115420864607187D+03 0.375727942337470D+02 0.886311590817576D+01 -.592997044894613D+02
 0.323001739282751D+02 -.184469867476409D+02 0.189045257089098D+02 0.185910952730159D+02
0.470908836361D-03 0.000000000000D+00 0.000000000000D+00 0.166159237468D-02 0.000000000000D+00  5 -1 1 25 23 21 0 0.71937668D-01 0.54102469D-02 0.12870893D+05 0.12870893D+05 0.12870893D+05 0.12554736D+01  1  2  2  2  5  2        1 0.136036471014D+00 0.100000000000D+01
-.256843685191D-04 0.000000000000D+00 -.180841392477D-05 0.166159237468D-02 0.000000000000D+00  5 -1 1 25 23 21 2 0.71937668D-01 0.54102469D-02 0.12870893D+05 0.12870893D+05 0.12870893D+05 0.12554736D+01  1  2  3  2  5  2        1 -.116950635625D-01 0.100000000000D+01
0.323898629864D-04 0.000000000000D+00 0.000000000000D+00 0.166159237468D-02 0.000000000000D+00  5 -1 1 25 23 21 2 0.71937668D-01 0.54102469D-02 0.12870893D+05 0.12870893D+05 0.12870893D+05 0.12554736D+01  1  2 15  2  5  2        1 0.147483285845D-01 0.100000000000D+01
-.131753487742D-03 0.000000000000D+00 0.000000000000D+00 0.166159237468D-02 0.000000000000D+00  5 -1 1 25 23 21 2 0.71937668D-01 0.54102469D-02 0.12870893D+05 0.12870893D+05 0.12870893D+05 0.12554736D+01  1  2  4  2  5  2        1 -.599923417455D-01 0.100000000000D+01
  </mgrwgt>
  </event>
  <event>
  4     66 0.43907321E-03 0.13660800E+03 0.75467711E-02 0.11240638E+00
       -1 -1    0    0    0  501 0.00000000E+00 0.00000000E+00 0.65159624E+03 0.65159632E+03 0.32000000E+00 0.0000E+00 0.9000E+01
        1 -1    0    0  501    0 0.00000000E+00 0.00000000E+00 -.33154102E+02 0.33155646E+02 0.32000000E+00 0.0000E+00 0.9000E+01
       25  1    1    2    0    0 -.10627265E+02 0.82204816E+02 0.46119720E+03 0.48497261E+03 0.12500000E+03 0.0000E+00 0.9000E+01
       23  1    1    2    0    0 0.10627265E+02 -.82204816E+02 0.15724493E+03 0.19977936E+03 0.91188000E+02 0.0000E+00 0.9000E+01
#aMCatNLO 1  0  0  1  1 0.15407242D+03 0.00000000D+00  -5  5  0 0.00000000D+00 0.00000000D+00 0.00000000D+00 0.00000000D+00 0.00000000D+00
  <mgrwgt>
 0.1015724374D+00    3    2    0
 0.146981780640166D+03 0.000000000000000D+00 0.000000000000000D+00 0.146981780640166D+03
 0.146981780640166D+03 0.000000000000000D+00 0.000000000000000D+00 -.146981780640166D+03
 0.159414866945427D+03 -.106272648763766D+02 0.822048155148074D+02 0.540141587979659D+02
 0.134548694334906D+03 0.106272648763766D+02 -.822048155148074D+02 -.540141587979659D+02
 0.000000000000000D+00 -.000000000000000D+00 0.000000000000000D+00 -.000000000000000D+00
 0.239226569333246D+03 0.000000000000000D+00 0.000000000000000D+00 0.239226569333246D+03
 0.246931260969883D+03 0.000000000000000D+00 0.000000000000000D+00 -.246931260969883D+03
 0.140690316585089D+03 0.291929335852345D+02 0.199751960903732D+02 0.540141587979659D+02
 0.191202567718794D+03 0.538503766917033D+02 -.149752389422572D+03 -.540141587979659D+02
 0.154264945999246D+03 -.830433102769377D+02 0.129777193332199D+03 -.770469163663711D+01
0.628146665018D-03 0.000000000000D+00 0.000000000000D+00 0.156091567861D-02 0.000000000000D+00  5 -1 1 25 23 21 0 0.10024570D+00 0.51007559D-02 0.18661746D+05 0.18661746D+05 0.18661746D+05 0.12371511D+01  1  2  2  1  5  1       -1 0.994432146583D-01 0.100000000000D+01
-.346697310829D-04 0.000000000000D+00 -.241224858848D-05 0.156091567861D-02 0.000000000000D+00  5 -1 1 25 23 21 2 0.10024570D+00 0.51007559D-02 0.18661746D+05 0.18661746D+05 0.18661746D+05 0.12371511D+01  1  2  3  1  5  1       -1 -.840059588428D-02 0.100000000000D+01
0.434571530263D-04 0.000000000000D+00 0.000000000000D+00 0.156091567861D-02 0.000000000000D+00  5 -1 1 25 23 21 2 0.10024570D+00 0.51007559D-02 0.18661746D+05 0.18661746D+05 0.18661746D+05 0.12371511D+01  1  2 15  1  5  1       -1 0.105298186474D-01 0.100000000000D+01
  </mgrwgt>
  </event>
  <event>
  5     66 0.43907321E-03 0.13257513E+03 0.75467711E-02 0.11437948E+00
       -1 -1    0    0    0  501 0.00000000E+00 0.00000000E+00 0.25825551E+02 0.25827534E+02 0.32000000E+00 0.0000E+00 0.9000E+01
       21 -1    0    0  501  502 0.00000000E+00 0.00000000E+00 -.25536743E+04 0.25536744E+04 0.75000000E+00 0.0000E+00 0.9000E+01
       25  1    1    2    0    0 -.31256014E+02 -.12622500E+03 -.45709004E+03 0.49139190E+03 0.12500000E+03 0.0000E+00 0.9000E+01
       23  1    1    2    0    0 -.52461169E+02 0.36559219E+02 -.48544096E+03 0.49805314E+03 0.91188000E+02 0.0000E+00 0.9000E+01
       -1  1    1    2    0  502 0.83717183E+02 0.89665782E+02 -.15853178E+04 0.15900569E+04 0.32000000E+00 0.0000E+00 0.9000E+01
#aMCatNLO 2  0  0  2  1 0.12267241D+03 0.00000000D+00  -5  5  0 0.00000000D+00 0.00000000D+00 0.00000000D+00 0.00000000D+00 0.00000000D+00
  <mgrwgt>
 0.1616136949D-02    2    2    0
 0.137466601101475D+03 0.000000000000000D+00 0.000000000000000D+00 0.137466601101475D+03
 0.137466601101475D+03 0.000000000000000D+00 0.000000000000000D+00 -.137466601101475D+03
 0.150760282252805D+03 0.173940402265092D+02 -.741180732395647D+02 0.361610465666916D+02
 0.124172919950146D+03 -.173940402265092D+02 0.741180732395647D+02 -.361610465666916D+02
 0.000000000000000D+00 0.000000000000000D+00 0.000000000000000D+00 -.000000000000000D+00
 0.165735847165995D+03 0.000000000000000D+00 0.000000000000000D+00 0.165735847165995D+03
 0.397938502632960D+03 0.000000000000000D+00 0.000000000000000D+00 -.397938502632960D+03
 0.183962796246050D+03 -.312560140065706D+02 -.126225000306153D+03 0.361610465666916D+02
 0.117096641007025D+03 -.524611687854320D+02 0.365592187005696D+02 -.361610465666916D+02
 0.262614912545880D+03 0.837171827920026D+02 0.896657816055837D+02 -.232202655466966D+03
-.278455283736D-06 0.000000000000D+00 0.000000000000D+00 0.175603444801D-02 0.000000000000D+00  5 -1 21 25 23 -1 2 0.32955989D-02 0.37933094D+00 0.42935862D+05 0.42935862D+05 0.42935862D+05 0.11988891D+01  1  2 13  4  5  2        1 -.132768433595D-04 0.100000000000D+01
0.545747243128D-04 0.000000000000D+00 0.000000000000D+00 0.175603444801D-02 0.225052166036D-06  5 -1 21 25 23 -1 2 0.39733206D-02 0.39287292D+00 0.42935862D+05 0.42935862D+05 0.42935862D+05 0.11988891D+01  1  2  1  4  5  2        1 0.162941379247D-02 0.100000000000D+01
  </mgrwgt>
  </event>
  <event>
  4     66 0.43907321E-03 0.80912584E+02 0.75467711E-02 0.12140205E+00
       -1 -1    0    0    0  501 0.00000000E+00 0.00000000E+00 0.79125061E+01 0.79189742E+01 0.32000000E+00 0.0000E+00 0.9000E+01
        1 -1    0    0  501    0 0.00000000E+00 0.00000000E+00 -.23095958E+04 0.23095959E+04 0.32000000E+00 0.0000E+00 0.9000E+01
       25  1    1    2    0    0 0.49746735E+02 0.28108973E+02 -.17529255E+04 0.17583053E+04 0.12500000E+03 0.0000E+00 0.9000E+01
       23  1    1    2    0    0 -.49746735E+02 -.28108973E+02 -.54875784E+03 0.55920951E+03 0.91188000E+02 0.0000E+00 0.9000E+01
#aMCatNLO 1  0  0  1  2 0.32162183D+02 0.00000000D+00  -5  5  0 0.00000000D+00 0.00000000D+00 0.00000000D+00 0.00000000D+00 0.00000000D+00
  <mgrwgt>
 0.1549781993D+00    9    2    0
 0.135211729710971D+03 0.000000000000000D+00 0.000000000000000D+00 0.135211729710971D+03
 0.135211729710971D+03 0.000000000000000D+00 0.000000000000000D+00 -.135211729710971D+03
 0.148727104212180D+03 0.497467352115046D+02 0.281089728406842D+02 -.568322048576222D+02
 0.121696355209762D+03 -.497467352115046D+02 -.281089728406842D+02 0.568322048576222D+02
 0.000000000000000D+00 -.000000000000000D+00 0.000000000000000D+00 0.000000000000000D+00
 0.154841804484758D+03 0.000000000000000D+00 0.000000000000000D+00 0.154841804484758D+03
 0.150010532301547D+03 0.000000000000000D+00 0.000000000000000D+00 -.150010532301547D+03
 0.155562606094130D+03 0.677655704594683D+02 0.274345104953905D+02 -.568322048576222D+02
 0.116766704563711D+03 -.356258943113698D+02 -.286375295059715D+02 0.568322048576222D+02
 0.325230261284639D+02 -.321396761480986D+02 0.120301901058091D+01 0.483127218321114D+01
0.420808488636D-03 0.000000000000D+00 0.000000000000D+00 0.162370034143D-02 0.000000000000D+00  5 -1 1 25 23 21 0 0.12178079D-02 0.35532294D+00 0.15012528D+05 0.15012528D+05 0.15012528D+05 0.12477812D+01  1  2  2  1  5  1       -1 0.125834991048D+00 0.100000000000D+01
-.231023456010D-04 0.000000000000D+00 -.161601539778D-05 0.162370034143D-02 0.000000000000D+00  5 -1 1 25 23 21 2 0.12178079D-02 0.35532294D+00 0.15012528D+05 0.15012528D+05 0.15012528D+05 0.12477812D+01  1  2  3  1  5  1       -1 -.107559774613D-01 0.100000000000D+01
0.291049320580D-04 0.000000000000D+00 0.000000000000D+00 0.162370034143D-02 0.000000000000D+00  5 -1 1 25 23 21 2 0.12178079D-02 0.35532294D+00 0.15012528D+05 0.15012528D+05 0.15012528D+05 0.12477812D+01  1  2 15  1  5  1       -1 0.135506583892D-01 0.100000000000D+01
0.289440814169D-03 0.000000000000D+00 0.000000000000D+00 0.162370034143D-02 0.000000000000D+00  5 -1 1 25 23 21 2 0.14529097D-02 0.35532294D+00 0.19456702D+05 0.19456702D+05 0.19456702D+05 0.12351450D+01  1  2 12  1  5  1       -1 0.102624716055D+00 0.100000000000D+01
-.263740479994D-03 0.000000000000D+00 0.000000000000D+00 0.162370034143D-02 0.000000000000D+00  5 -1 1 25 23 21 2 0.12178079D-02 0.35532294D+00 0.15012528D+05 0.15012528D+05 0.15012528D+05 0.12477812D+01  1  2  4  1  5  1       -1 -.122792148791D+00 0.100000000000D+01
-.636606276101D-03 0.000000000000D+00 -.224180871557D-03 0.162370034143D-02 0.000000000000D+00  5 -1 1 25 23 21 2 0.15954408D-02 0.35532294D+00 0.15012528D+05 0.15012528D+05 0.15012528D+05 0.12477812D+01  1  2  5  1  5  1       -1 -.201474731479D+00 0.100000000000D+01
0.680132934167D-03 0.000000000000D+00 0.216244969813D-03 0.162370034143D-02 0.000000000000D+00  5 -1 1 25 23 21 2 0.12178079D-02 0.35532294D+00 0.15012528D+05 0.15012528D+05 0.15012528D+05 0.12477812D+01  1  2  6  1  5  1       -1 0.316655920439D+00 0.100000000000D+01
0.751760071298D-05 0.000000000000D+00 0.000000000000D+00 0.162370034143D-02 0.000000000000D+00  5 21 1 25 23 1 2 0.14529097D-02 0.35532294D+00 0.19456702D+05 0.19456702D+05 0.19456702D+05 0.12351450D+01  1  2 12  3  5  1       -1 0.583767062155D-01 0.100000000000D+01
-.185434769801D-04 0.000000000000D+00 -.802984961070D-05 0.162370034143D-02 0.000000000000D+00  5 21 1 25 23 1 2 0.15954408D-02 0.35532294D+00 0.15012528D+05 0.15012528D+05 0.15012528D+05 0.12477812D+01  1  2  5  3  5  1       -1 -.127041935150D+00 0.100000000000D+01
  </mgrwgt>
  </event>
  <event>
  4     66 0.43907321E-03 0.12227844E+03 0.75467711E-02 0.11478524E+00
       -1 -1    0    0    0  501 0.00000000E+00 0.00000000E+00 0.33210974E+03 0.33210989E+03 0.32000000E+00 0.0000E+00 0.9000E+01
        1 -1    0    0  501    0 0.00000000E+00 0.00000000E+00 -.45299943E+02 0.45301073E+02 0.32000000E+00 0.0000E+00 0.9000E+01
       25  1    1    2    0    0 -.28227739E+01 0.56544437E+02 0.17553212E+03 0.22280432E+03 0.12500000E+03 0.0000E+00 0.9000E+01
       23  1    1    2    0    0 0.28227739E+01 -.56544437E+02 0.11127768E+03 0.15460664E+03 0.91188000E+02 0.0000E+00 0.9000E+01
#aMCatNLO 1  0  0  2  2 0.12832282D+03 0.00000000D+00  -5  5  0 0.00000000D+00 0.00000000D+00 0.00000000D+00 0.00000000D+00 0.00000000D+00
  <mgrwgt>
 0.1150705087D+00    3    2    0
 0.122657223840657D+03 0.000000000000000D+00 0.000000000000000D+00 0.122657223840657D+03
 0.122657223840657D+03 0.000000000000000D+00 0.000000000000000D+00 -.122657223840657D+03
 0.137555956314612D+03 -.282277386126608D+01 0.565444373896785D+02 0.956031723534033D+01
 0.107758491366701D+03 0.282277386126608D+01 -.565444373896785D+02 -.956031723534033D+01
 0.000000000000000D+00 -.000000000000000D+00 0.000000000000000D+00 0.000000000000000D+00
 0.277676170052980D+03 0.000000000000000D+00 0.000000000000000D+00 0.277676170052980D+03
 0.167988029782341D+03 0.000000000000000D+00 0.000000000000000D+00 -.167988029782341D+03
 0.152414316849304D+03 0.683637000625108D+02 0.532928590785171D+02 0.956031723534033D+01
 0.124435685048085D+03 0.598254607375872D+02 -.591481441068201D+02 -.956031723534033D+01
 0.168814197937933D+03 -.128189160800098D+03 0.585528502830296D+01 0.109688140270639D+03
0.285426880260D-03 0.000000000000D+00 0.000000000000D+00 0.208045718731D-02 0.000000000000D+00  5 -1 1 25 23 21 0 0.51093905D-01 0.69693208D-02 0.14952018D+05 0.14952018D+05 0.14952018D+05 0.12479812D+01  1  2  2  2  5  2        1 0.112677991784D+00 0.100000000000D+01
-.158568644710D-04 0.000000000000D+00 -.109611437482D-05 0.208045718731D-02 0.000000000000D+00  5 -1 1 25 23 21 2 0.51093905D-01 0.69693208D-02 0.14952018D+05 0.14952018D+05 0.14952018D+05 0.12479812D+01  1  2  3  2  5  2        1 -.974939401790D-02 0.100000000000D+01
0.197481643731D-04 0.000000000000D+00 0.000000000000D+00 0.208045718731D-02 0.000000000000D+00  5 -1 1 25 23 21 2 0.51093905D-01 0.69693208D-02 0.14952018D+05 0.14952018D+05 0.14952018D+05 0.12479812D+01  1  2 15  2  5  2        1 0.121419109027D-01 0.100000000000D+01
  </mgrwgt>
  </event>
  <event>
  4     66 0.43907321E-03 0.53378792E+02 0.75467711E-02 0.11205239E+00
       -1 -1    0    0    0  501 0.00000000E+00 0.00000000E+00 0.19794017E+04 0.19794017E+04 0.32000000E+00 0.0000E+00 0.9000E+01
        1 -1    0    0  501    0 0.00000000E+00 0.00000000E+00 -.23209298E+02 0.23211504E+02 0.32000000E+00 0.0000E+00 0.9000E+01
       25  1    1    2    0    0 -.17884837E+03 0.39818635E+02 0.11186064E+04 0.11403848E+04 0.12500000E+03 0.0000E+00 0.9000E+01
       23  1    1    2    0    0 0.17884837E+03 -.39818635E+02 0.83758603E+03 0.86222844E+03 0.91188000E+02 0.0000E+00 0.9000E+01
#aMCatNLO 1  0  0  2  1 0.48581006D+02 0.00000000D+00  -5  5  0 0.00000000D+00 0.00000000D+00 0.00000000D+00 0.00000000D+00 0.00000000D+00
  <mgrwgt>
 0.1066854995D+00    9    2    0
 0.214342618021187D+03 0.000000000000000D+00 0.000000000000000D+00 0.214342618021187D+03
 0.214342618021187D+03 0.000000000000000D+00 0.000000000000000D+00 -.214342618021187D+03
 0.222868394093491D+03 -.178848373134075D+03 0.398186352578734D+02 0.217498689491860D+02
 0.205816841948883D+03 0.178848373134075D+03 -.398186352578734D+02 -.217498689491860D+02
 0.000000000000000D+00 -.000000000000000D+00 -.000000000000000D+00 -.000000000000000D+00
 0.237427394770383D+03 0.000000000000000D+00 0.000000000000000D+00 0.237427394770383D+03
 0.242888820619101D+03 0.000000000000000D+00 0.000000000000000D+00 -.242888820619101D+03
 0.216624561454688D+03 -.164884675301030D+03 0.603422544905567D+02 0.217498689491860D+02
 0.214804628228625D+03 0.192212480652757D+03 -.201762842576233D+02 -.217498689491860D+02
 0.488870257061710D+02 -.273278053517272D+02 -.401659702329333D+02 -.546142584871837D+01
0.786435707175D-02 0.000000000000D+00 0.000000000000D+00 0.140498431268D-02 0.000000000000D+00  5 -1 1 25 23 21 0 0.30452351D+00 0.35708329D-02 0.45468944D+05 0.45468944D+05 0.45468944D+05 0.11963892D+01  1  2  2  2  5  2        1 0.764778041102D-01 0.100000000000D+01
-.436894453951D-03 0.000000000000D+00 -.302012018883D-04 0.140498431268D-02 0.000000000000D+00  5 -1 1 25 23 21 2 0.30452351D+00 0.35708329D-02 0.45468944D+05 0.45468944D+05 0.45468944D+05 0.11963892D+01  1  2  3  2  5  2        1 -.608126193867D-02 0.100000000000D+01
0.542522281116D-03 0.000000000000D+00 0.000000000000D+00 0.140498431268D-02 0.000000000000D+00  5 -1 1 25 23 21 2 0.30452351D+00 0.35708329D-02 0.45468944D+05 0.45468944D+05 0.45468944D+05 0.11963892D+01  1  2 15  2  5  2        1 0.755152661974D-02 0.100000000000D+01
0.718399343452D-02 0.000000000000D+00 0.000000000000D+00 0.140498431268D-02 0.000000000000D+00  5 -1 1 25 23 21 2 0.30452351D+00 0.42161097D-02 0.57075976D+05 0.57075976D+05 0.57075976D+05 0.11866305D+01  1  2 12  2  5  2        1 0.776833976108D-01 0.100000000000D+01
-.628374876921D-02 0.000000000000D+00 0.000000000000D+00 0.140498431268D-02 0.000000000000D+00  5 -1 1 25 23 21 2 0.30452351D+00 0.35708329D-02 0.45468944D+05 0.45468944D+05 0.45468944D+05 0.11963892D+01  1  2  4  2  5  2        1 -.874653406030D-01 0.100000000000D+01
-.176227688130D-01 0.000000000000D+00 -.557599451833D-02 0.140498431268D-02 0.000000000000D+00  5 -1 1 25 23 21 2 0.30452351D+00 0.45765690D-02 0.45468944D+05 0.45468944D+05 0.45468944D+05 0.11963892D+01  1  2  5  2  5  2        1 -.173631898285D+00 0.100000000000D+01
0.185982662149D-01 0.000000000000D+00 0.540861038683D-02 0.140498431268D-02 0.000000000000D+00  5 -1 1 25 23 21 2 0.30452351D+00 0.35708329D-02 0.45468944D+05 0.45468944D+05 0.45468944D+05 0.11963892D+01  1  2  6  2  5  2        1 0.258874717761D+00 0.100000000000D+01
0.177848319524D-03 0.000000000000D+00 0.000000000000D+00 0.140498431268D-02 0.000000000000D+00  5 -1 21 25 23 -1 2 0.30452351D+00 0.42161097D-02 0.57075976D+05 0.57075976D+05 0.57075976D+05 0.11866305D+01  1  2 12  4  5  2        1 0.308452388841D-01 0.100000000000D+01
-.500835668576D-03 0.000000000000D+00 -.187678340252D-03 0.140498431268D-02 0.000000000000D+00  5 -1 21 25 23 -1 2 0.30452351D+00 0.45765690D-02 0.45468944D+05 0.45468944D+05 0.45468944D+05 0.11963892D+01  1  2  5  4  5  2        1 -.775686846619D-01 0.100000000000D+01
  </mgrwgt>
  </event>
  <event>
  4     66 0.43907321E-03 0.69787438E+02 0.75467711E-02 0.11779193E+00
       -1 -1    0    0    0  501 0.00000000E+00 0.00000000E+00 0.28639347E+03 0.28639365E+03 0.32000000E+00 0.0000E+00 0.9000E+01
        1 -1    0    0  501    0 0.00000000E+00 0.00000000E+00 -.12522286E+03 0.12522327E+03 0.32000000E+00 0.0000E+00 0.9000E+01
       25  1    1    2    0    0 0.95906651E+02 -.80524009E+02 0.18372478E+03 0.25507253E+03 0.12500000E+03 0.0000E+00 0.9000E+01
       23  1    1    2    0    0 -.95906651E+02 0.80524009E+02 -.22554174E+02 0.15654438E+03 0.91188000E+02 0.0000E+00 0.9000E+01
#aMCatNLO 1  0  0  2  1 0.78838008D+01 0.00000000D+00  -5  5  0 0.00000000D+00 0.00000000D+00 0.00000000D+00 0.00000000D+00 0.00000000D+00
  <mgrwgt>
 0.1613489724D+00    8    2    0
 0.189375632306014D+03 0.000000000000000D+00 0.000000000000000D+00 0.189375632306014D+03
 0.189375632306014D+03 0.000000000000000D+00 0.000000000000000D+00 -.189375632306014D+03
 0.199025433295442D+03 0.959066513666627D+02 -.805240088378041D+02 0.911258543046972D+02
 0.179725831316587D+03 -.959066513666627D+02 0.805240088378041D+02 -.911258543046972D+02
 0.000000000000000D+00 -.000000000000000D+00 -.000000000000000D+00 0.000000000000000D+00
 0.194405316917744D+03 0.000000000000000D+00 0.000000000000000D+00 0.194405316917744D+03
 0.192531431693120D+03 0.000000000000000D+00 0.000000000000000D+00 -.192531431693120D+03
 0.197985711255205D+03 0.970087975921019D+02 -.765422349308077D+02 0.911258543046972D+02
 0.180847596097256D+03 -.949056602169870D+02 0.841403351917096D+02 -.911258543046972D+02
 0.810344125840289D+01 -.210313737511482D+01 -.759810026090185D+01 0.187388522462414D+01
0.581008401056D-03 0.000000000000D+00 0.000000000000D+00 0.118996137189D-02 0.000000000000D+00  5 -1 1 25 23 21 0 0.44060579D-01 0.19265101D-01 0.27531027D+05 0.27531027D+05 0.27531027D+05 0.12188326D+01  1  2  2  2  5  2        1 0.797891983976D-01 0.100000000000D+01
-.315923748284D-04 0.000000000000D+00 -.223122524308D-05 0.118996137189D-02 0.000000000000D+00  5 -1 1 25 23 21 2 0.44060579D-01 0.19265101D-01 0.27531027D+05 0.27531027D+05 0.27531027D+05 0.12188326D+01  1  2  3  2  5  2        1 -.644513647938D-02 0.100000000000D+01
0.399968320940D-04 0.000000000000D+00 0.000000000000D+00 0.118996137189D-02 0.000000000000D+00  5 -1 1 25 23 21 2 0.44060579D-01 0.19265101D-01 0.27531027D+05 0.27531027D+05 0.27531027D+05 0.12188326D+01  1  2 15  2  5  2        1 0.815972344559D-02 0.100000000000D+01
0.821137771509D-03 0.000000000000D+00 0.000000000000D+00 0.118996137189D-02 0.000000000000D+00  5 -1 1 25 23 21 2 0.44060579D-01 0.19836561D-01 0.28876726D+05 0.28876726D+05 0.28876726D+05 0.12166417D+01  1  2 12  2  5  2        1 0.160881422116D+00 0.100000000000D+01
-.510151962198D-03 0.000000000000D+00 0.000000000000D+00 0.118996137189D-02 0.000000000000D+00  5 -1 1 25 23 21 2 0.44060579D-01 0.19265101D-01 0.27531027D+05 0.27531027D+05 0.27531027D+05 0.12188326D+01  1  2  4  2  5  2        1 -.104075715721D+00 0.100000000000D+01
0.990227008646D-05 0.000000000000D+00 0.000000000000D+00 0.118996137189D-02 0.151217167496D-03  5 -1 1 25 23 21 2 0.45230797D-01 0.19586139D-01 0.28876726D+05 0.28876726D+05 0.28876726D+05 0.12166417D+01  1  2 11  2  5  2        1 0.188120271146D-02 0.100000000000D+01
0.126374723564D-04 0.000000000000D+00 0.000000000000D+00 0.118996137189D-02 0.000000000000D+00  5 -1 21 25 23 -1 2 0.44060579D-01 0.19836561D-01 0.28876726D+05 0.28876726D+05 0.28876726D+05 0.12166417D+01  1  2 12  4  5  2        1 0.210112276902D-01 0.100000000000D+01
0.905456048784D-07 0.000000000000D+00 0.000000000000D+00 0.118996137189D-02 0.461262831657D-06  5 -1 21 25 23 -1 2 0.45230797D-01 0.19586139D-01 0.28876726D+05 0.28876726D+05 0.28876726D+05 0.12166417D+01  1  2 11  4  5  2        1 0.147050198552D-03 0.100000000000D+01
  </mgrwgt>
  </event>
  <event>
  4     66 0.43907321E-03 0.13169217E+03 0.75467711E-02 0.97964186E-01
       -3 -1    0    0    0  501 0.00000000E+00 0.00000000E+00 0.10355778E+03 0.10355898E+03 0.50000000E+00 0.0000E+00 0.9000E+01
        3 -1    0    0  501    0 0.00000000E+00 0.00000000E+00 -.19729032E+03 0.19729095E+03 0.50000000E+00 0.0000E+00 0.9000E+01
       25  1    1    2    0    0 -.72607021E+02 -.17131294E+02 0.71498938E+01 0.14574423E+03 0.12500000E+03 0.0000E+00 0.9000E+01
       23  1    1    2    0    0 0.72607021E+02 0.17131294E+02 -.10088243E+03 0.15510570E+03 0.91188000E+02 0.0000E+00 0.9000E+01
#aMCatNLO 1  0  0  2  1 0.62939126D+03 0.00000000D+00  -5  5  0 0.00000000D+00 0.00000000D+00 0.00000000D+00 0.00000000D+00 0.00000000D+00
  <mgrwgt>
 0.2803050517D-01    5    2    0
 0.142937829510407D+03 0.000000000000000D+00 0.000000000000000D+00 0.142937829510407D+03
 0.142937829510407D+03 0.000000000000000D+00 0.000000000000000D+00 -.142937829510407D+03
 0.155722668697202D+03 -.726070207379134D+02 -.171312937611960D+02 0.553108385383032D+02
 0.130152990323613D+03 0.726070207379134D+02 0.171312937611960D+02 -.553108385383032D+02
 0.000000000000000D+00 -.000000000000000D+00 -.000000000000000D+00 -.000000000000000D+00
 0.508441099151616D+03 0.000000000000000D+00 0.000000000000000D+00 0.508441099151616D+03
 0.953932024226214D+03 0.000000000000000D+00 0.000000000000000D+00 -.953932024226214D+03
 0.256794418054220D+03 0.741967861832156D+02 0.204337762550336D+03 0.553108385383032D+02
 0.434478502568318D+03 0.273544279644826D+03 0.320266382974846D+03 -.553108385383032D+02
 0.771100202755291D+03 -.347741065828042D+03 -.524604145525183D+03 -.445490925074598D+03
0.334158743353D-03 0.000000000000D+00 0.000000000000D+00 0.157803661382D-02 0.000000000000D+00  5 -3 3 25 23 21 0 0.15932107D-01 0.30352498D-01 0.17342827D+05 0.17342827D+05 0.17342827D+05 0.12407006D+01  1  2  2  2  5  2        3 0.269973525717D-01 0.100000000000D+01
-.184128156067D-04 0.000000000000D+00 -.128325756049D-05 0.157803661382D-02 0.000000000000D+00  5 -3 3 25 23 21 2 0.15932107D-01 0.30352498D-01 0.17342827D+05 0.17342827D+05 0.17342827D+05 0.12407006D+01  1  2  3  2  5  2        3 -.228993172264D-02 0.100000000000D+01
0.230638279905D-04 0.000000000000D+00 0.000000000000D+00 0.157803661382D-02 0.000000000000D+00  5 -3 3 25 23 21 2 0.15932107D-01 0.30352498D-01 0.17342827D+05 0.17342827D+05 0.17342827D+05 0.12407006D+01  1  2 15  2  5  2        3 0.286836041206D-02 0.100000000000D+01
0.104828155649D-02 0.000000000000D+00 -.381830934641D-03 0.157803661382D-02 0.000000000000D+00  5 -3 3 25 23 21 2 0.15932107D-01 0.43675162D+00 0.17342827D+05 0.17342827D+05 0.17342827D+05 0.12407006D+01  1  2  5  2  5  2        3 0.120689051062D-03 0.100000000000D+01
0.234618942389D-03 0.000000000000D+00 -.115446405542D-03 0.157803661382D-02 0.000000000000D+00  5 -3 21 25 23 -3 2 0.15932107D-01 0.43675162D+00 0.17342827D+05 0.17342827D+05 0.17342827D+05 0.12407006D+01  1  2  5  4  5  2        3 0.334034857243D-03 0.100000000000D+01
  </mgrwgt>
  </event>
  <event>
  4     66 0.43907321E-03 0.62554260E+02 0.75467711E-02 0.11967933E+00
       -1 -1    0    0    0  501 0.00000000E+00 0.00000000E+00 0.15132207E+03 0.15132241E+03 0.32000000E+00 0.0000E+00 0.9000E+01
        1 -1    0    0  501    0 0.00000000E+00 0.00000000E+00 -.10119400E+03 0.10119450E+03 0.32000000E+00 0.0000E+00 0.9000E+01
       25  1    1    2    0    0 -.48069100E+02 -.35107395E+02 0.32357820E+02 0.14218015E+03 0.12500000E+03 0.0000E+00 0.9000E+01
       23  1    1    2    0    0 0.48069100E+02 0.35107395E+02 0.17770255E+02 0.11033676E+03 0.91188000E+02 0.0000E+00 0.9000E+01
#aMCatNLO 1  0  0  2  1 0.53090935D+02 0.00000000D+00  -5  5  0 0.00000000D+00 0.00000000D+00 0.00000000D+00 0.00000000D+00 0.00000000D+00
  <mgrwgt>
 0.3301995192D+00    8    2    0
 0.123745675125579D+03 0.000000000000000D+00 0.000000000000000D+00 0.123745675125579D+03
 0.123745675125579D+03 0.000000000000000D+00 0.000000000000000D+00 -.123745675125579D+03
 0.138513360235749D+03 -.480691004710360D+02 -.351073947160943D+02 0.421703449739944D+01
 0.108977990015408D+03 0.480691004710360D+02 0.351073947160943D+02 -.421703449739944D+01
 0.000000000000000D+00 -.000000000000000D+00 0.000000000000000D+00 -.000000000000000D+00
 0.133292878386768D+03 0.000000000000000D+00 0.000000000000000D+00 0.133292878386768D+03
 0.231234225868738D+03 0.000000000000000D+00 0.000000000000000D+00 -.231234225868738D+03
 0.146563935919632D+03 -.409704379832695D+02 -.644951714763265D+02 0.421703449739944D+01
 0.106557805214483D+03 0.534361215737458D+02 0.128884459626208D+02 -.421703449739944D+01
 0.111405363121390D+03 -.124656835904763D+02 0.516067255137057D+02 -.979413474819698D+02
0.183502798582D-03 0.000000000000D+00 0.000000000000D+00 0.206721717696D-02 0.000000000000D+00  5 -1 1 25 23 21 0 0.23280384D-01 0.15568372D-01 0.15294951D+05 0.15294951D+05 0.15294951D+05 0.12468596D+01  1  2  2  2  5  2        1 0.967169662168D-01 0.100000000000D+01
-.101945956151D-04 0.000000000000D+00 -.704699063950D-06 0.206721717696D-02 0.000000000000D+00  5 -1 1 25 23 21 2 0.23280384D-01 0.15568372D-01 0.15294951D+05 0.15294951D+05 0.15294951D+05 0.12468596D+01  1  2  3  2  5  2        1 -.835343467595D-02 0.100000000000D+01
0.127073029047D-04 0.000000000000D+00 0.000000000000D+00 0.206721717696D-02 0.000000000000D+00  5 -1 1 25 23 21 2 0.23280384D-01 0.15568372D-01 0.15294951D+05 0.15294951D+05 0.15294951D+05 0.12468596D+01  1  2 15  2  5  2        1 0.104123428461D-01 0.100000000000D+01
0.253952435072D-03 0.000000000000D+00 0.000000000000D+00 0.206721717696D-02 0.000000000000D+00  5 -1 1 25 23 21 2 0.23280384D-01 0.29214788D-01 0.23419485D+05 0.23419485D+05 0.23419485D+05 0.12263502D+01  1  2 12  2  5  2        1 0.916854946969D-01 0.100000000000D+01
-.330128835478D-03 0.000000000000D+00 -.687010545943D-04 0.206721717696D-02 0.000000000000D+00  5 -1 1 25 23 21 2 0.23280384D-01 0.30914318D-01 0.15294951D+05 0.15294951D+05 0.15294951D+05 0.12468596D+01  1  2  5  2  5  2        1 -.113853818618D+00 0.100000000000D+01
0.313950760131D-03 0.000000000000D+00 0.551968565751D-04 0.206721717696D-02 0.000000000000D+00  5 -1 1 25 23 21 2 0.23280384D-01 0.15568372D-01 0.15294951D+05 0.15294951D+05 0.15294951D+05 0.12468596D+01  1  2  6  2  5  2        1 0.257250730214D+00 0.100000000000D+01
0.173975586123D-04 0.000000000000D+00 0.000000000000D+00 0.206721717696D-02 0.000000000000D+00  5 -1 21 25 23 -1 2 0.23280384D-01 0.29214788D-01 0.23419485D+05 0.23419485D+05 0.23419485D+05 0.12263502D+01  1  2 12  4  5  2        1 0.419400811222D-01 0.100000000000D+01
-.204141663513D-04 0.000000000000D+00 -.510103801427D-05 0.206721717696D-02 0.000000000000D+00  5 -1 21 25 23 -1 2 0.23280384D-01 0.30914318D-01 0.15294951D+05 0.15294951D+05 0.15294951D+05 0.12468596D+01  1  2  5  4  5  2        1 -.455988425805D-01 0.100000000000D+01
  </mgrwgt>
  </event>
  <event>
  5     66 0.43907321E-03 0.10870121E+03 0.75467711E-02 0.12117451E+00
       -1 -1    0    0    0  501 0.00000000E+00 0.00000000E+00 0.19013074E+03 0.19013100E+03 0.32000000E+00 0.0000E+00 0.9000E+01
        1 -1    0    0  502    0 0.00000000E+00 0.00000000E+00 -.11011650E+03 0.11011696E+03 0.32000000E+00 0.0000E+00 0.9000E+01
       25  1    1    2    0    0 0.42536644E+02 -.13625242E+02 0.51994735E+01 0.13284219E+03 0.12500000E+03 0.0000E+00 0.9000E+01
       23  1    1    2    0    0 0.12083562E+02 -.44521552E+01 0.49374999E+02 0.10449390E+03 0.91188000E+02 0.0000E+00 0.9000E+01
       21  1    1    2  502  501 -.54620206E+02 0.18077397E+02 0.25439767E+02 0.62911870E+02 0.75000000E+00 0.0000E+00 0.9000E+01
#aMCatNLO 2  0  0  2  1 0.57533983D+02 0.00000000D+00  -5  5  0 0.00000000D+00 0.00000000D+00 0.00000000D+00 0.00000000D+00 0.00000000D+00
  <mgrwgt>
 0.3181489328D-01    1    2    0
 0.111847988382172D+03 0.000000000000000D+00 0.000000000000000D+00 0.111847988382172D+03
 0.111847988382172D+03 0.000000000000000D+00 0.000000000000000D+00 -.111847988382172D+03
 0.128186567112403D+03 0.108871907082561D+02 -.315036874973094D+01 -.260449657954332D+02
 0.955094096519422D+02 -.108871907082561D+02 0.315036874973094D+01 0.260449657954332D+02
 0.000000000000000D+00 -.000000000000000D+00 0.000000000000000D+00 0.000000000000000D+00
 0.150440065216758D+03 0.000000000000000D+00 0.000000000000000D+00 0.150440065216758D+03
 0.139164668762651D+03 0.000000000000000D+00 0.000000000000000D+00 -.139164668762651D+03
 0.135271406964894D+03 0.425366439242507D+02 -.136252421130121D+02 -.260449657954332D+02
 0.957048888303144D+02 0.120835620853863D+02 -.445215521586603D+01 0.260449657954332D+02
 0.586284381842004D+02 -.546202060096370D+02 0.180773973288781D+02 0.112753964541074D+02
0.639063782906D-04 0.000000000000D+00 0.000000000000D+00 0.225823256006D-02 0.593296880257D-05  5 -1 1 25 23 21 2 0.29250451D-01 0.16940773D-01 0.19932808D+05 0.19932808D+05 0.19932808D+05 0.12339870D+01  1  2  1  2  5  2        1 0.318148932847D-01 0.100000000000D+01
  </mgrwgt>
  </event>
  <event>
  4     66 0.43907321E-03 0.11235125E+03 0.75467711E-02 0.11971335E+00
       -1 -1    0    0    0  501 0.00000000E+00 0.00000000E+00 0.18338933E+02 0.18341725E+02 0.32000000E+00 0.0000E+00 0.9000E+01
        1 -1    0    0  501    0 0.00000000E+00 0.00000000E+00 -.68877034E+03 0.68877041E+03 0.32000000E+00 0.0000E+00 0.9000E+01
       25  1    1    2    0    0 0.29690016E+02 -.59786473E+01 -.37410422E+03 0.39559602E+03 0.12500000E+03 0.0000E+00 0.9000E+01
       23  1    1    2    0    0 -.29690016E+02 0.59786473E+01 -.29632718E+03 0.31151612E+03 0.91188000E+02 0.0000E+00 0.9000E+01
#aMCatNLO 1  0  0  2  2 0.70114760D+02 0.00000000D+00  -5  5  0 0.00000000D+00 0.00000000D+00 0.00000000D+00 0.00000000D+00 0.00000000D+00
  <mgrwgt>
 0.1443167126D+00    3    2    0
 0.112393622950334D+03 0.000000000000000D+00 0.000000000000000D+00 0.112393622950334D+03
 0.112393622950334D+03 0.000000000000000D+00 0.000000000000000D+00 -.112393622950334D+03
 0.128652883182629D+03 0.296900159827157D+02 -.597864734121830D+01 0.305337159853105D+01
 0.961343627180380D+02 -.296900159827157D+02 0.597864734121830D+01 -.305337159853105D+01
 0.000000000000000D+00 -.000000000000000D+00 0.000000000000000D+00 0.000000000000000D+00
 0.275550347484222D+03 0.000000000000000D+00 0.000000000000000D+00 0.275550347484222D+03
 0.125521888913382D+03 0.000000000000000D+00 0.000000000000000D+00 -.125521888913382D+03
 0.141160532332049D+03 0.509926440679098D+02 -.411305611572719D+02 0.305337159853105D+01
 0.943079060270127D+02 -.146539926069408D+02 -.188326104870477D+02 -.305337159853105D+01
 0.165603798038543D+03 -.363386514609690D+02 0.599631716443196D+02 0.150028458570841D+03
0.125647675477D-03 0.000000000000D+00 0.000000000000D+00 0.233260518053D-02 0.000000000000D+00  5 -1 1 25 23 21 0 0.28215948D-02 0.10596489D+00 0.12622804D+05 0.12622804D+05 0.12622804D+05 0.12564568D+01  1  2  2  2  5  2        1 0.141245665794D+00 0.100000000000D+01
-.698042520875D-05 0.000000000000D+00 -.482520157623D-06 0.233260518053D-02 0.000000000000D+00  5 -1 1 25 23 21 2 0.28215948D-02 0.10596489D+00 0.12622804D+05 0.12622804D+05 0.12622804D+05 0.12564568D+01  1  2  3  2  5  2        1 -.123879002171D-01 0.100000000000D+01
0.871092127957D-05 0.000000000000D+00 0.000000000000D+00 0.233260518053D-02 0.000000000000D+00  5 -1 1 25 23 21 2 0.28215948D-02 0.10596489D+00 0.12622804D+05 0.12622804D+05 0.12622804D+05 0.12564568D+01  1  2 15  2  5  2        1 0.154589470388D-01 0.100000000000D+01
  </mgrwgt>
  </event>
  <event>
  4     66 0.43907321E-03 0.11618106E+03 0.75467711E-02 0.12440254E+00
       -1 -1    0    0    0  501 0.00000000E+00 0.00000000E+00 0.12338020E+02 0.12342169E+02 0.32000000E+00 0.0000E+00 0.9000E+01
        1 -1    0    0  501    0 0.00000000E+00 0.00000000E+00 -.12114561E+04 0.12114561E+04 0.32000000E+00 0.0000E+00 0.9000E+01
       25  1    1    2    0    0 0.21814047E+02 -.36048140E+02 -.48376741E+03 0.50142918E+03 0.12500000E+03 0.0000E+00 0.9000E+01
       23  1    1    2    0    0 -.21814047E+02 0.36048140E+02 -.71535066E+03 0.72236911E+03 0.91188000E+02 0.0000E+00 0.9000E+01
#aMCatNLO 1  0  0  1  2 0.64454586D+01 0.00000000D+00  -5  5  0 0.00000000D+00 0.00000000D+00 0.00000000D+00 0.00000000D+00 0.00000000D+00
  <mgrwgt>
 0.1088614373D+00    6    2    0
 0.122268286963949D+03 0.000000000000000D+00 0.000000000000000D+00 0.122268286963949D+03
 0.122268286963949D+03 0.000000000000000D+00 0.000000000000000D+00 -.122268286963949D+03
 0.137214412483307D+03 0.218140471914267D+02 -.360481403074413D+02 0.377819258196868D+02
 0.107322161444592D+03 -.218140471914267D+02 0.360481403074413D+02 -.377819258196868D+02
 0.000000000000000D+00 0.000000000000000D+00 0.000000000000000D+00 -.000000000000000D+00
 0.123351443862043D+03 0.000000000000000D+00 0.000000000000000D+00 0.123351443862043D+03
 0.132290632842382D+03 0.000000000000000D+00 0.000000000000000D+00 -.132290632842382D+03
 0.137921190070072D+03 0.204316579766377D+02 -.393995952266800D+02 0.377819258196868D+02
 0.106700313328071D+03 -.228893800749301D+02 0.334411106491646D+02 -.377819258196868D+02
 0.110205733062819D+02 0.245772209829238D+01 0.595848457751543D+01 -.893918898033878D+01
0.188958284723D-03 0.000000000000D+00 0.000000000000D+00 0.194675754366D-02 0.000000000000D+00  5 -1 1 25 23 21 0 0.18984793D-02 0.18637818D+00 0.13498038D+05 0.13498038D+05 0.13498038D+05 0.12530802D+01  1  2  2  1  5  1       -1 0.151562909898D+00 0.100000000000D+01
-.104643958006D-04 0.000000000000D+00 -.725649567195D-06 0.194675754366D-02 0.000000000000D+00  5 -1 1 25 23 21 2 0.18984793D-02 0.18637818D+00 0.13498038D+05 0.13498038D+05 0.13498038D+05 0.12530802D+01  1  2  3  1  5  1       -1 -.131794988985D-01 0.100000000000D+01
0.131046061061D-04 0.000000000000D+00 0.000000000000D+00 0.194675754366D-02 0.000000000000D+00  5 -1 1 25 23 21 2 0.18984793D-02 0.18637818D+00 0.13498038D+05 0.13498038D+05 0.13498038D+05 0.12530802D+01  1  2 15  1  5  1       -1 0.165047409360D-01 0.100000000000D+01
-.455225803296D-04 0.000000000000D+00 0.000000000000D+00 0.194675754366D-02 0.000000000000D+00  5 -1 1 25 23 21 2 0.18984793D-02 0.18637818D+00 0.13498038D+05 0.13498038D+05 0.13498038D+05 0.12530802D+01  1  2  4  1  5  1       -1 -.573339167154D-01 0.100000000000D+01
0.534126073155D-05 0.000000000000D+00 0.000000000000D+00 0.194675754366D-02 0.391865325835D-03  5 -1 1 25 23 21 2 0.19152977D-02 0.20165562D+00 0.14265671D+05 0.14265671D+05 0.14265671D+05 0.12503153D+01  1  2 11  1  5  1       -1 0.568088201550D-02 0.100000000000D+01
0.251841069492D-06 0.000000000000D+00 0.000000000000D+00 0.194675754366D-02 0.666110054447D-06  5 21 1 25 23 1 2 0.19152977D-02 0.20165562D+00 0.14265671D+05 0.14265671D+05 0.14265671D+05 0.12503153D+01  1  2 11  3  5  1       -1 0.562632007331D-02 0.100000000000D+01
  </mgrwgt>
  </event>
  <event>
  4     66 0.43907321E-03 0.23398519E+03 0.75467711E-02 0.98154175E-01
       -1 -1    0    0    0  501 0.00000000E+00 0.00000000E+00 0.55834646E+02 0.55835563E+02 0.32000000E+00 0.0000E+00 0.9000E+01
        1 -1    0    0  501    0 0.00000000E+00 0.00000000E+00 -.99211167E+03 0.99211172E+03 0.32000000E+00 0.0000E+00 0.9000E+01
       25  1    1    2    0    0 -.15447020E+03 -.13776391E+03 -.54011903E+03 0.59177150E+03 0.12500000E+03 0.0000E+00 0.9000E+01
       23  1    1    2    0    0 0.15447020E+03 0.13776391E+03 -.39615799E+03 0.45617578E+03 0.91188000E+02 0.0000E+00 0.9000E+01
#aMCatNLO 1  0  0  1  2 0.56099288D+03 0.00000000D+00  -5  5  0 0.00000000D+00 0.00000000D+00 0.00000000D+00 0.00000000D+00 0.00000000D+00
  <mgrwgt>
 0.2232800675D+00    5    2    0
 0.235360811576447D+03 0.000000000000000D+00 0.000000000000000D+00 0.235360811576447D+03
 0.235360811576447D+03 0.000000000000000D+00 0.000000000000000D+00 -.235360811576447D+03
 0.243125218708458D+03 -.154470204238408D+03 -.137763914809661D+03 -.253955065099421D+02
 0.227596404444436D+03 0.154470204238408D+03 0.137763914809661D+03 0.253955065099421D+02
 0.000000000000000D+00 0.000000000000000D+00 0.000000000000000D+00 0.000000000000000D+00
 0.918211673119358D+03 0.000000000000000D+00 0.000000000000000D+00 0.918211673119358D+03
 0.508679412827957D+03 0.000000000000000D+00 0.000000000000000D+00 -.508679412827957D+03
 0.562098779503913D+03 -.196731072842330D+03 -.510863965402922D+03 -.253955065099421D+02
 0.170220724774419D+03 0.133591420864302D+03 -.465644104363965D+02 0.253955065099421D+02
 0.694571581668982D+03 0.631396519780283D+02 0.557428375839319D+03 0.409532260291401D+03
0.158655490526D-02 0.000000000000D+00 0.000000000000D+00 0.135830835417D-02 0.000000000000D+00  5 -1 1 25 23 21 0 0.85900201D-02 0.15263264D+00 0.54749069D+05 0.54749069D+05 0.54749069D+05 0.11883987D+01  1  2  2  1  5  1       -1 0.198696243903D+00 0.100000000000D+01
-.881382567164D-04 0.000000000000D+00 -.609278858569D-05 0.135830835417D-02 0.000000000000D+00  5 -1 1 25 23 21 2 0.85900201D-02 0.15263264D+00 0.54749069D+05 0.54749069D+05 0.54749069D+05 0.11883987D+01  1  2  3  1  5  1       -1 -.155891821996D-01 0.100000000000D+01
0.109409402217D-03 0.000000000000D+00 0.000000000000D+00 0.135830835417D-02 0.000000000000D+00  5 -1 1 25 23 21 2 0.85900201D-02 0.15263264D+00 0.54749069D+05 0.54749069D+05 0.54749069D+05 0.11883987D+01  1  2 15  1  5  1       -1 0.193514504264D-01 0.100000000000D+01
0.170404359826D-02 0.000000000000D+00 -.943829180061D-03 0.135830835417D-02 0.000000000000D+00  5 -1 1 25 23 21 2 0.73797233D-01 0.15263264D+00 0.54749069D+05 0.54749069D+05 0.54749069D+05 0.11883987D+01  1  2  5  1  5  1       -1 0.774587576870D-02 0.100000000000D+01
0.317170882674D-03 0.000000000000D+00 -.245086075462D-03 0.135830835417D-02 0.000000000000D+00  5 21 1 25 23 1 2 0.73797233D-01 0.15263264D+00 0.54749069D+05 0.54749069D+05 0.54749069D+05 0.11883987D+01  1  2  5  3  5  1       -1 0.130756795614D-01 0.100000000000D+01
  </mgrwgt>
  </event>
  <event>
  4     66 0.43907321E-03 0.98744999E+02 0.75467711E-02 0.11416069E+00
       -1 -1    0    0    0  501 0.00000000E+00 0.00000000E+00 0.16789100E+02 0.16792149E+02 0.32000000E+00 0.0000E+00 0.9000E+01
        1 -1    0    0  501    0 0.00000000E+00 0.00000000E+00 -.20835527E+04 0.20835528E+04 0.32000000E+00 0.0000E+00 0.9000E+01
       25  1    1    2    0    0 0.14571447E+03 0.33320538E+02 -.12428150E+04 0.12579973E+04 0.12500000E+03 0.0000E+00 0.9000E+01
       23  1    1    2    0    0 -.14571447E+03 -.33320538E+02 -.82394861E+03 0.84234763E+03 0.91188000E+02 0.0000E+00 0.9000E+01
#aMCatNLO 1  0  0  2  1 0.46971790D+02 0.00000000D+00  -5  5  0 0.00000000D+00 0.00000000D+00 0.00000000D+00 0.00000000D+00 0.00000000D+00
  <mgrwgt>
 0.1929900155D+00    9    2    0
 0.187040644343122D+03 0.000000000000000D+00 0.000000000000000D+00 0.187040644343122D+03
 0.187040644343122D+03 0.000000000000000D+00 0.000000000000000D+00 -.187040644343122D+03
 0.196810912032360D+03 0.145714473945288D+03 0.333205378321937D+02 -.276869813528085D+02
 0.177270376653883D+03 -.145714473945288D+03 -.333205378321937D+02 0.276869813528085D+02
 0.000000000000000D+00 -.000000000000000D+00 0.000000000000000D+00 -.000000000000000D+00
 0.194758647123038D+03 0.000000000000000D+00 0.000000000000000D+00 0.194758647123038D+03
 0.276773834304377D+03 0.000000000000000D+00 0.000000000000000D+00 -.276773834304377D+03
 0.195153996851492D+03 0.147021479486842D+03 0.884297009954547D+01 -.276869813528085D+02
 0.181864781983787D+03 -.144516939084724D+03 -.557479413356379D+02 0.276869813528085D+02
 0.945137025921357D+02 -.250454040211725D+01 0.469049712360925D+02 -.820151871813397D+02
0.969755839996D-03 0.000000000000D+00 0.000000000000D+00 0.147587153191D-02 0.000000000000D+00  5 -1 1 25 23 21 0 0.25831749D-02 0.32054681D+00 0.34215489D+05 0.34215489D+05 0.34215489D+05 0.12089507D+01  1  2  2  2  5  2        1 0.136623760497D+00 0.100000000000D+01
-.538672404143D-04 0.000000000000D+00 -.372411776816D-05 0.147587153191D-02 0.000000000000D+00  5 -1 1 25 23 21 2 0.25831749D-02 0.32054681D+00 0.34215489D+05 0.34215489D+05 0.34215489D+05 0.12089507D+01  1  2  3  2  5  2        1 -.110918943784D-01 0.100000000000D+01
0.668385105537D-04 0.000000000000D+00 0.000000000000D+00 0.147587153191D-02 0.000000000000D+00  5 -1 1 25 23 21 2 0.25831749D-02 0.32054681D+00 0.34215489D+05 0.34215489D+05 0.34215489D+05 0.12089507D+01  1  2 15  2  5  2        1 0.137628305027D-01 0.100000000000D+01
0.176551191941D-02 0.000000000000D+00 0.000000000000D+00 0.147587153191D-02 0.000000000000D+00  5 -1 1 25 23 21 2 0.25831749D-02 0.47842909D+00 0.44078309D+05 0.44078309D+05 0.44078309D+05 0.11977418D+01  1  2 12  2  5  2        1 0.732618606405D-01 0.100000000000D+01
-.176362714626D-02 0.000000000000D+00 0.000000000000D+00 0.147587153191D-02 0.000000000000D+00  5 -1 1 25 23 21 2 0.25831749D-02 0.32054681D+00 0.34215489D+05 0.34215489D+05 0.34215489D+05 0.12089507D+01  1  2  4  2  5  2        1 -.363151441930D+00 0.100000000000D+01
-.212260933604D-02 0.000000000000D+00 -.327004530150D-03 0.147587153191D-02 0.000000000000D+00  5 -1 1 25 23 21 2 0.25831749D-02 0.47883488D+00 0.34215489D+05 0.34215489D+05 0.34215489D+05 0.12089507D+01  1  2  5  2  5  2        1 -.900298518052D-01 0.100000000000D+01
0.210658443433D-02 0.000000000000D+00 0.302328870820D-03 0.147587153191D-02 0.000000000000D+00  5 -1 1 25 23 21 2 0.25831749D-02 0.32054681D+00 0.34215489D+05 0.34215489D+05 0.34215489D+05 0.12089507D+01  1  2  6  2  5  2        1 0.433770355880D+00 0.100000000000D+01
0.841119401304D-04 0.000000000000D+00 0.000000000000D+00 0.147587153191D-02 0.000000000000D+00  5 -1 21 25 23 -1 2 0.25831749D-02 0.47842909D+00 0.44078309D+05 0.44078309D+05 0.44078309D+05 0.11977418D+01  1  2 12  4  5  2        1 0.130344674762D-02 0.100000000000D+01
-.900702460330D-04 0.000000000000D+00 -.156032536895D-04 0.147587153191D-02 0.000000000000D+00  5 -1 21 25 23 -1 2 0.25831749D-02 0.47883488D+00 0.34215489D+05 0.34215489D+05 0.34215489D+05 0.12089507D+01  1  2  5  4  5  2        1 -.145905064550D-02 0.100000000000D+01
  </mgrwgt>
  </event>
  <event>
  4     66 0.43907321E-03 0.11889257E+03 0.75467711E-02 0.10150826E+00
       -1 -1    0    0    0  501 0.00000000E+00 0.00000000E+00 0.16258777E+02 0.16261926E+02 0.32000000E+00 0.0000E+00 0.9000E+01
        1 -1    0    0  501    0 0.00000000E+00 0.00000000E+00 -.10136202E+04 0.10136202E+04 0.32000000E+00 0.0000E+00 0.9000E+01
       25  1    1    2    0    0 0.46809141E+02 0.14507750E+02 -.36107641E+03 0.38523077E+03 0.12500000E+03 0.0000E+00 0.9000E+01
       23  1    1    2    0    0 -.46809141E+02 -.14507750E+02 -.63628501E+03 0.64465140E+03 0.91188000E+02 0.0000E+00 0.9000E+01
#aMCatNLO 1  0  0  1  1 0.46666087D+03 0.00000000D+00  -5  5  0 0.00000000D+00 0.00000000D+00 0.00000000D+00 0.00000000D+00 0.00000000D+00
  <mgrwgt>
 0.1725937679D+00    5    2    0
 0.128381745331511D+03 0.000000000000000D+00 0.000000000000000D+00 0.128381745331511D+03
 0.128381745331511D+03 0.000000000000000D+00 0.000000000000000D+00 -.128381745331511D+03
 0.142616145707368D+03 0.468091405968948D+02 0.145077495301919D+02 0.480915229180214D+02
 0.114147344955655D+03 -.468091405968948D+02 -.145077495301919D+02 -.480915229180214D+02
 0.000000000000000D+00 0.000000000000000D+00 0.000000000000000D+00 0.000000000000000D+00
 0.120591129554791D+04 0.000000000000000D+00 0.000000000000000D+00 0.120591129554791D+04
 0.324260632872312D+03 0.000000000000000D+00 0.000000000000000D+00 -.324260632872312D+03
 0.207708784538655D+03 -.157777218163046D+03 -.176491933719714D+02 0.480915229180214D+02
 0.324926045375291D+03 -.303223738590554D+03 -.548110700298663D+02 -.480915229180214D+02
 0.997537098506277D+03 0.461000956753600D+03 0.724602634018377D+02 0.881650662675600D+03
0.207146609062D-03 0.000000000000D+00 0.000000000000D+00 0.177222752879D-02 0.000000000000D+00  5 -1 1 25 23 21 0 0.25015965D-02 0.15594181D+00 0.14135444D+05 0.14135444D+05 0.14135444D+05 0.12507724D+01  1  2  2  1  5  1       -1 0.153732309730D+00 0.100000000000D+01
-.114256415159D-04 0.000000000000D+00 -.795497521751D-06 0.177222752879D-02 0.000000000000D+00  5 -1 1 25 23 21 2 0.25015965D-02 0.15594181D+00 0.14135444D+05 0.14135444D+05 0.14135444D+05 0.12507724D+01  1  2  3  1  5  1       -1 -.132655274998D-01 0.100000000000D+01
0.142986680158D-04 0.000000000000D+00 0.000000000000D+00 0.177222752879D-02 0.000000000000D+00  5 -1 1 25 23 21 2 0.25015965D-02 0.15594181D+00 0.14135444D+05 0.14135444D+05 0.14135444D+05 0.12507724D+01  1  2 15  1  5  1       -1 0.166012012113D-01 0.100000000000D+01
0.755863325368D-03 0.000000000000D+00 -.335712033598D-03 0.177222752879D-02 0.000000000000D+00  5 -1 1 25 23 21 2 0.64043948D-01 0.15594181D+00 0.14135444D+05 0.14135444D+05 0.14135444D+05 0.12507724D+01  1  2  5  1  5  1       -1 0.514043722714D-02 0.100000000000D+01
0.157605700468D-03 0.000000000000D+00 -.111722597422D-03 0.177222752879D-02 0.000000000000D+00  5 21 1 25 23 1 2 0.64043948D-01 0.15594181D+00 0.14135444D+05 0.14135444D+05 0.14135444D+05 0.12507724D+01  1  2  5  3  5  1       -1 0.103853471917D-01 0.100000000000D+01
  </mgrwgt>
  </event>
  <event>
  5     66 0.43907321E-03 0.11402510E+03 0.75467711E-02 0.11924424E+00
       -1 -1    0    0    0  502 0.00000000E+00 0.00000000E+00 0.11939307E+03 0.11939350E+03 0.32000000E+00 0.0000E+00 0.9000E+01
        1 -1    0    0  501    0 0.00000000E+00 0.00000000E+00 -.23948725E+03 0.23948747E+03 0.32000000E+00 0.0000E+00 0.9000E+01
       25  1    1    2    0    0 0.23558338E+01 0.90321988E+01 -.76415455E+02 0.14680413E+03 0.12500000E+03 0.0000E+00 0.9000E+01
       23  1    1    2    0    0 -.51060624E+02 0.46372807E+02 -.69632899E+02 0.13387164E+03 0.91188000E+02 0.0000E+00 0.9000E+01
       21  1    1    2  501  502 0.48704791E+02 -.55405006E+02 0.25954174E+02 0.78205198E+02 0.75000000E+00 0.0000E+00 0.9000E+01
#aMCatNLO 2  0  0  1  2 0.73769040D+02 0.00000000D+00  -5  5  0 0.00000000D+00 0.00000000D+00 0.00000000D+00 0.00000000D+00 0.00000000D+00
  <mgrwgt>
 0.2402561505D-01    2    2    0
 0.114025102047039D+03 0.000000000000000D+00 0.000000000000000D+00 0.114025102047039D+03
 0.114025102047039D+03 0.000000000000000D+00 0.000000000000000D+00 -.114025102047039D+03
 0.130051723652220D+03 0.289503670608849D+02 -.212208883381141D+02 -.311463433967096D-01
 0.979984804418588D+02 -.289503670608849D+02 0.212208883381141D+02 0.311463433967096D-01
 0.000000000000000D+00 0.000000000000000D+00 -.000000000000000D+00 0.000000000000000D+00
 0.212560823638376D+03 0.000000000000000D+00 0.000000000000000D+00 0.212560823638376D+03
 0.134515468130851D+03 0.000000000000000D+00 0.000000000000000D+00 -.134515468130851D+03
 0.125348041618036D+03 0.235583380653041D+01 0.903219876099996D+01 -.311463433967096D-01
 0.114336682353197D+03 -.510606244530420D+02 0.463728072032154D+02 0.311463433967096D-01
 0.107391567797994D+03 0.487047906465116D+02 -.554050059642154D+02 0.780453555075248D+02
-.244587504566D-04 0.000000000000D+00 0.000000000000D+00 0.228859172872D-02 0.000000000000D+00  5 -1 1 25 23 21 2 0.18587625D-01 0.31231580D-01 0.24563314D+05 0.24563314D+05 0.24563314D+05 0.12241190D+01  1  2 13  1  5  1       -1 -.116620443628D-01 0.100000000000D+01
0.902112108699D-04 0.000000000000D+00 0.000000000000D+00 0.228859172872D-02 0.408149852041D-05  5 -1 1 25 23 21 2 0.18368049D-01 0.36843910D-01 0.24563314D+05 0.24563314D+05 0.24563314D+05 0.12241190D+01  1  2  1  1  5  1       -1 0.356876594084D-01 0.100000000000D+01
  </mgrwgt>
  </event>
  <event>
  5     66 0.43907321E-03 0.11773272E+03 0.75467711E-02 0.11880095E+00
       21 -1    0    0  502  501 0.00000000E+00 0.00000000E+00 0.10045518E+03 0.10045798E+03 0.75000000E+00 0.0000E+00 0.9000E+01
        3 -1    0    0  501    0 0.00000000E+00 0.00000000E+00 -.45467045E+03 0.45467072E+03 0.50000000E+00 0.0000E+00 0.9000E+01
       25  1    1    2    0    0 -.79646637E+02 0.29981972E+02 -.24282015E+03 0.28605792E+03 0.12500000E+03 0.0000E+00 0.9000E+01
       23  1    1    2    0    0 0.22827494E+02 0.17906403E+02 -.15555354E+03 0.18263047E+03 0.91188000E+02 0.0000E+00 0.9000E+01
        3  1    1    2  502    0 0.56819143E+02 -.47888375E+02 0.44158429E+02 0.86440316E+02 0.50000000E+00 0.0000E+00 0.9000E+01
#aMCatNLO 2  0  0  1  2 0.74308219D+02 0.00000000D+00  -5  5  0 0.00000000D+00 0.00000000D+00 0.00000000D+00 0.00000000D+00 0.00000000D+00
  <mgrwgt>
 0.1408606813D-01    2    2    0
 0.117734334972953D+03 0.000000000000000D+00 0.000000000000000D+00 0.117734334972953D+03
 0.117734334972953D+03 0.000000000000000D+00 0.000000000000000D+00 -.117734334972953D+03
 0.133256036135319D+03 -.461385679816847D+02 0.174066306680273D+01 0.611394459175144D+00
 0.102212633810588D+03 0.461385679816847D+02 -.174066306680273D+01 -.611394459175144D+00
 0.000000000000000D+00 0.000000000000000D+00 -.000000000000000D+00 0.000000000000000D+00
 0.352760694894324D+03 0.000000000000000D+00 0.000000000000000D+00 0.352760694894324D+03
 0.129477794752882D+03 0.000000000000000D+00 0.000000000000000D+00 -.129477794752882D+03
 0.151221292008939D+03 -.796466366443548D+02 0.299819716648222D+02 0.611394459175144D+00
 0.956940901518258D+02 0.228274938142071D+02 0.179064030157757D+02 -.611394459175144D+00
 0.235323107486442D+03 0.568191428301477D+02 -.478883746805979D+02 0.223282900141442D+03
-.970023531913D-05 0.000000000000D+00 0.000000000000D+00 0.219556406582D-02 0.000000000000D+00  5 21 3 25 23 3 2 0.15123446D-01 0.63605083D-01 0.25795638D+05 0.25795638D+05 0.25795638D+05 0.12218416D+01  1  2 13  3  5  1       -3 -.670887713642D-02 0.100000000000D+01
0.382009417362D-04 0.000000000000D+00 0.000000000000D+00 0.219556406582D-02 0.758329987037D-06  5 21 3 25 23 3 2 0.15454850D-01 0.69949399D-01 0.25795638D+05 0.25795638D+05 0.25795638D+05 0.12218416D+01  1  2  1  3  5  1       -3 0.207949452682D-01 0.100000000000D+01
  </mgrwgt>
  </event>
  <event>
  4     66 0.43907321E-03 0.13705176E+03 0.75467711E-02 0.85227113E-01
       -1 -1    0    0    0  501 0.00000000E+00 0.00000000E+00 0.11230857E+03 0.11230902E+03 0.32000000E+00 0.0000E+00 0.9000E+01
        1 -1    0    0  501    0 0.00000000E+00 0.00000000E+00 -.18039242E+03 0.18039271E+03 0.32000000E+00 0.0000E+00 0.9000E+01
       25  1    1    2    0    0 -.50425525E+02 0.66694219E+02 0.22231762E+01 0.15040211E+03 0.12500000E+03 0.0000E+00 0.9000E+01
       23  1    1    2    0    0 0.50425525E+02 -.66694219E+02 -.70307032E+02 0.14229962E+03 0.91188000E+02 0.0000E+00 0.9000E+01
#aMCatNLO 1  0  0  2  2 0.21811968D+04 0.00000000D+00  -5  5  0 0.00000000D+00 0.00000000D+00 0.00000000D+00 0.00000000D+00 0.00000000D+00
  <mgrwgt>
 0.1401176041D+00    5    2    0
 0.142336654882226D+03 0.000000000000000D+00 0.000000000000000D+00 0.142336654882226D+03
 0.142336654882226D+03 0.000000000000000D+00 0.000000000000000D+00 -.142336654882226D+03
 0.155175492253472D+03 -.504255250610304D+02 0.666942193624524D+02 0.382567761587365D+02
 0.129497817510980D+03 0.504255250610304D+02 -.666942193624524D+02 -.382567761587365D+02
 0.000000000000000D+00 -.000000000000000D+00 -.000000000000000D+00 -.000000000000000D+00
 0.175545568655856D+04 0.000000000000000D+00 0.000000000000000D+00 0.175545568655856D+04
 0.291404844565912D+04 0.000000000000000D+00 0.000000000000000D+00 -.291404844565912D+04
 0.136842396644874D+04 0.765346502121772D+03 0.112682753903124D+04 0.382567761587365D+02
 0.831271115831185D+03 0.564844466292740D+03 0.601816886309808D+03 -.382567761587365D+02
 0.246980904993776D+04 -.133019096841451D+04 -.172864442534105D+04 -.115859275910056D+04
0.333637209302D-03 0.000000000000D+00 0.000000000000D+00 0.169685928259D-02 0.000000000000D+00  5 -1 1 25 23 21 0 0.17278298D-01 0.27752738D-01 0.18783185D+05 0.18783185D+05 0.18783185D+05 0.12368386D+01  1  2  2  2  5  2        1 0.137254687896D+00 0.100000000000D+01
-.185031376380D-04 0.000000000000D+00 -.128125473241D-05 0.169685928259D-02 0.000000000000D+00  5 -1 1 25 23 21 2 0.17278298D-01 0.27752738D-01 0.18783185D+05 0.18783185D+05 0.18783185D+05 0.12368386D+01  1  2  3  2  5  2        1 -.116445876465D-01 0.100000000000D+01
0.230459542503D-04 0.000000000000D+00 0.000000000000D+00 0.169685928259D-02 0.000000000000D+00  5 -1 1 25 23 21 2 0.17278298D-01 0.27752738D-01 0.18783185D+05 0.18783185D+05 0.18783185D+05 0.12368386D+01  1  2 15  2  5  2        1 0.145035203983D-01 0.100000000000D+01
0.318480589276D-02 0.000000000000D+00 -.836428231520D-03 0.169685928259D-02 0.000000000000D+00  5 -1 1 25 23 21 2 0.17278298D-01 0.91412082D+00 0.18783185D+05 0.18783185D+05 0.18783185D+05 0.12368386D+01  1  2  5  2  5  2        1 0.396875640649D-05 0.100000000000D+01
0.838128319689D-03 0.000000000000D+00 -.285967653528D-03 0.169685928259D-02 0.000000000000D+00  5 -1 21 25 23 -1 2 0.17278298D-01 0.91412082D+00 0.18783185D+05 0.18783185D+05 0.18783185D+05 0.12368386D+01  1  2  5  4  5  2        1 0.146919988289D-07 0.100000000000D+01
  </mgrwgt>
  </event>
  <event>
  4     66 0.43907321E-03 0.49765507E+02 0.75467711E-02 0.12175555E+00
       -1 -1    0    0    0  501 0.00000000E+00 0.00000000E+00 0.49016625E+02 0.49017669E+02 0.32000000E+00 0.0000E+00 0.9000E+01
        1 -1    0    0  501    0 0.00000000E+00 0.00000000E+00 -.28331217E+03 0.28331235E+03 0.32000000E+00 0.0000E+00 0.9000E+01
       25  1    1    2    0    0 -.18136073E+02 0.42602641E+02 -.13777427E+03 0.19170460E+03 0.12500000E+03 0.0000E+00 0.9000E+01
       23  1    1    2    0    0 0.18136073E+02 -.42602641E+02 -.96521269E+02 0.14062542E+03 0.91188000E+02 0.0000E+00 0.9000E+01
#aMCatNLO 1  0  0  1  2 0.35569636D+02 0.00000000D+00  -5  5  0 0.00000000D+00 0.00000000D+00 0.00000000D+00 0.00000000D+00 0.00000000D+00
  <mgrwgt>
 0.1414531907D+00    9    2    0
 0.117844006416702D+03 0.000000000000000D+00 0.000000000000000D+00 0.117844006416702D+03
 0.117844006416702D+03 0.000000000000000D+00 0.000000000000000D+00 -.117844006416702D+03
 0.133351262318526D+03 -.181360732256617D+02 0.426026408348082D+02 -.369553836376700D+01
 0.102336750514878D+03 0.181360732256617D+02 -.426026408348082D+02 0.369553836376700D+01
 0.000000000000000D+00 0.000000000000000D+00 0.000000000000000D+00 0.000000000000000D+00
 0.145135526957553D+03 0.000000000000000D+00 0.000000000000000D+00 0.145135526957553D+03
 0.131363983305825D+03 0.000000000000000D+00 0.000000000000000D+00 -.131363983305825D+03
 0.135969572207987D+03 -.377496956105527D+02 0.377362961077995D+02 -.369553836376700D+01
 0.102387383703326D+03 0.322678531747249D+01 -.463017910056284D+02 0.369553836376700D+01
 0.381425543520652D+02 0.345229102930802D+02 0.856549489782886D+01 0.137715436517280D+02
0.126095968476D-03 0.000000000000D+00 0.000000000000D+00 0.219145457253D-02 0.000000000000D+00  5 -1 1 25 23 21 0 0.75411135D-02 0.43586582D-01 0.13873312D+05 0.13873312D+05 0.13873312D+05 0.12517071D+01  1  2  2  1  5  1       -1 0.105142174967D+00 0.100000000000D+01
-.700532944720D-05 0.000000000000D+00 -.484241720778D-06 0.219145457253D-02 0.000000000000D+00  5 -1 1 25 23 21 2 0.75411135D-02 0.43586582D-01 0.13873312D+05 0.13873312D+05 0.13873312D+05 0.12517071D+01  1  2  3  1  5  1       -1 -.915186756736D-02 0.100000000000D+01
0.869828142581D-05 0.000000000000D+00 0.000000000000D+00 0.219145457253D-02 0.000000000000D+00  5 -1 1 25 23 21 2 0.75411135D-02 0.43586582D-01 0.13873312D+05 0.13873312D+05 0.13873312D+05 0.12517071D+01  1  2 15  1  5  1       -1 0.113635654501D-01 0.100000000000D+01
0.891536576363D-04 0.000000000000D+00 0.000000000000D+00 0.219145457253D-02 0.000000000000D+00  5 -1 1 25 23 21 2 0.96409689D-02 0.43586582D-01 0.18742931D+05 0.18742931D+05 0.18742931D+05 0.12369419D+01  1  2 12  1  5  1       -1 0.792867358831D-01 0.100000000000D+01
-.914276832588D-04 0.000000000000D+00 0.000000000000D+00 0.219145457253D-02 0.000000000000D+00  5 -1 1 25 23 21 2 0.75411135D-02 0.43586582D-01 0.13873312D+05 0.13873312D+05 0.13873312D+05 0.12517071D+01  1  2  4  1  5  1       -1 -.119442498098D+00 0.100000000000D+01
-.179545514130D-03 0.000000000000D+00 -.592978225890D-04 0.219145457253D-02 0.000000000000D+00  5 -1 1 25 23 21 2 0.10327836D-01 0.43586582D-01 0.13873312D+05 0.13873312D+05 0.13873312D+05 0.12517071D+01  1  2  5  1  5  1       -1 -.145865954665D+00 0.100000000000D+01
0.191463504734D-03 0.000000000000D+00 0.564818924243D-04 0.219145457253D-02 0.000000000000D+00  5 -1 1 25 23 21 2 0.75411135D-02 0.43586582D-01 0.13873312D+05 0.13873312D+05 0.13873312D+05 0.12517071D+01  1  2  6  1  5  1       -1 0.250130797205D+00 0.100000000000D+01
0.297839337966D-05 0.000000000000D+00 0.000000000000D+00 0.219145457253D-02 0.000000000000D+00  5 21 1 25 23 1 2 0.96409689D-02 0.43586582D-01 0.18742931D+05 0.18742931D+05 0.18742931D+05 0.12369419D+01  1  2 12  3  5  1       -1 0.402734006753D-01 0.100000000000D+01
-.575092218499D-05 0.000000000000D+00 -.237144234746D-05 0.219145457253D-02 0.000000000000D+00  5 21 1 25 23 1 2 0.10327836D-01 0.43586582D-01 0.13873312D+05 0.13873312D+05 0.13873312D+05 0.12517071D+01  1  2  5  3  5  1       -1 -.702831631960D-01 0.100000000000D+01
  </mgrwgt>
  </event>
  <event>
  4     66 0.43907321E-03 0.82061244E+02 0.75467711E-02 0.12292139E+00
       -1 -1    0    0    0  501 0.00000000E+00 0.00000000E+00 0.41495281E+02 0.41496515E+02 0.32000000E+00 0.0000E+00 0.9000E+01
        1 -1    0    0  501    0 0.00000000E+00 0.00000000E+00 -.31687366E+03 0.31687382E+03 0.32000000E+00 0.0000E+00 0.9000E+01
       25  1    1    2    0    0 -.95579870E+01 -.51826199E+00 -.21405307E+03 0.24806318E+03 0.12500000E+03 0.0000E+00 0.9000E+01
       23  1    1    2    0    0 0.95579870E+01 0.51826199E+00 -.61325303E+02 0.11030715E+03 0.91188000E+02 0.0000E+00 0.9000E+01
#aMCatNLO 1  0  0  1  2 0.37439313D+02 0.00000000D+00  -5  5  0 0.00000000D+00 0.00000000D+00 0.00000000D+00 0.00000000D+00 0.00000000D+00
  <mgrwgt>
 0.2106675750D+00    9    2    0
 0.114669139084541D+03 0.000000000000000D+00 0.000000000000000D+00 0.114669139084541D+03
 0.114669139084541D+03 0.000000000000000D+00 0.000000000000000D+00 -.114669139084541D+03
 0.130605747474464D+03 -.955798699960975D+01 -.518261987135702D+00 -.366229103484620D+02
 0.987325306946171D+02 0.955798699960975D+01 0.518261987135702D+00 0.366229103484620D+02
 0.000000000000000D+00 0.000000000000000D+00 0.000000000000000D+00 0.000000000000000D+00
 0.135149402767098D+03 0.000000000000000D+00 0.000000000000000D+00 0.135149402767098D+03
 0.134667170525335D+03 0.000000000000000D+00 0.000000000000000D+00 -.134667170525335D+03
 0.133897243782571D+03 -.309668466459992D+02 -.181348807028388D+01 -.366229103484620D+02
 0.984769113309231D+02 -.640413594350939D+01 -.447439050650891D+00 0.366229103484620D+02
 0.374424181789388D+02 0.373709825895086D+02 0.226092712093477D+01 0.482232241763060D+00
0.157498098059D-03 0.000000000000D+00 0.000000000000D+00 0.210283713582D-02 0.000000000000D+00  5 -1 1 25 23 21 0 0.63839967D-02 0.48749901D-01 0.11778215D+05 0.11778215D+05 0.11778215D+05 0.12599747D+01  1  2  2  1  5  1       -1 0.145787543345D+00 0.100000000000D+01
-.871765701720D-05 0.000000000000D+00 -.604834166748D-06 0.210283713582D-02 0.000000000000D+00  5 -1 1 25 23 21 2 0.63839967D-02 0.48749901D-01 0.11778215D+05 0.11778215D+05 0.11778215D+05 0.12599747D+01  1  2  3  1  5  1       -1 -.128105729695D-01 0.100000000000D+01
0.108072421180D-04 0.000000000000D+00 0.000000000000D+00 0.210283713582D-02 0.000000000000D+00  5 -1 1 25 23 21 2 0.63839967D-02 0.48749901D-01 0.11778215D+05 0.11778215D+05 0.11778215D+05 0.12599747D+01  1  2 15  1  5  1       -1 0.158812125183D-01 0.100000000000D+01
0.752011840162D-04 0.000000000000D+00 0.000000000000D+00 0.210283713582D-02 0.000000000000D+00  5 -1 1 25 23 21 2 0.79894326D-02 0.48749901D-01 0.16595166D+05 0.16595166D+05 0.16595166D+05 0.12428498D+01  1  2 12  1  5  1       -1 0.778405426544D-01 0.100000000000D+01
-.701047445956D-04 0.000000000000D+00 0.000000000000D+00 0.210283713582D-02 0.000000000000D+00  5 -1 1 25 23 21 2 0.63839967D-02 0.48749901D-01 0.11778215D+05 0.11778215D+05 0.11778215D+05 0.12599747D+01  1  2  4  1  5  1       -1 -.103018729044D+00 0.100000000000D+01
-.174654900706D-03 0.000000000000D+00 -.725889142060D-04 0.210283713582D-02 0.000000000000D+00  5 -1 1 25 23 21 2 0.88226111D-02 0.48749901D-01 0.11778215D+05 0.11778215D+05 0.11778215D+05 0.12599747D+01  1  2  5  1  5  1       -1 -.158215552517D+00 0.100000000000D+01
0.191660936323D-03 0.000000000000D+00 0.689489738716D-04 0.210283713582D-02 0.000000000000D+00  5 -1 1 25 23 21 2 0.63839967D-02 0.48749901D-01 0.11778215D+05 0.11778215D+05 0.11778215D+05 0.12599747D+01  1  2  6  1  5  1       -1 0.281645217899D+00 0.100000000000D+01
0.234787352232D-05 0.000000000000D+00 0.000000000000D+00 0.210283713582D-02 0.000000000000D+00  5 21 1 25 23 1 2 0.79894326D-02 0.48749901D-01 0.16595166D+05 0.16595166D+05 0.16595166D+05 0.12428498D+01  1  2 12  3  5  1       -1 0.385907635125D-01 0.100000000000D+01
-.530227540887D-05 0.000000000000D+00 -.296294178959D-05 0.210283713582D-02 0.000000000000D+00  5 21 1 25 23 1 2 0.88226111D-02 0.48749901D-01 0.11778215D+05 0.11778215D+05 0.11778215D+05 0.12599747D+01  1  2  5  3  5  1       -1 -.750328503951D-01 0.100000000000D+01
  </mgrwgt>
  </event>
  <event>
  4     66 0.43907321E-03 0.81950812E+02 0.75467711E-02 0.11963467E+00
       -1 -1    0    0    0  501 0.00000000E+00 0.00000000E+00 0.41762347E+02 0.41763573E+02 0.32000000E+00 0.0000E+00 0.9000E+01
        1 -1    0    0  501    0 0.00000000E+00 0.00000000E+00 -.11341752E+04 0.11341752E+04 0.32000000E+00 0.0000E+00 0.9000E+01
       25  1    1    2    0    0 0.88915419E+01 -.73870802E+02 -.99889582E+02 0.17646213E+03 0.12500000E+03 0.0000E+00 0.9000E+01
       23  1    1    2    0    0 -.88915419E+01 0.73870802E+02 -.99252327E+03 0.99947669E+03 0.91188000E+02 0.0000E+00 0.9000E+01
#aMCatNLO 1  0  0  2  1 0.41392368D+02 0.00000000D+00  -5  5  0 0.00000000D+00 0.00000000D+00 0.00000000D+00 0.00000000D+00 0.00000000D+00
  <mgrwgt>
 0.1309317863D+00    9    2    0
 0.217638612447864D+03 0.000000000000000D+00 0.000000000000000D+00 0.217638612447864D+03
 0.217638612447864D+03 0.000000000000000D+00 0.000000000000000D+00 -.217638612447864D+03
 0.226035271218319D+03 0.889154188224985D+01 -.738708017610700D+02 0.173005748357886D+03
 0.209241953677409D+03 -.889154188224985D+01 0.738708017610700D+02 -.173005748357886D+03
 0.000000000000000D+00 -.000000000000000D+00 0.000000000000000D+00 -.000000000000000D+00
 0.236342593498766D+03 0.000000000000000D+00 0.000000000000000D+00 0.236342593498766D+03
 0.242789744144011D+03 0.000000000000000D+00 0.000000000000000D+00 -.242789744144011D+03
 0.230734515123361D+03 0.286140892846793D+02 -.828472172058247D+02 0.173005748357886D+03
 0.206506368885705D+03 0.905976804326681D+01 0.657005379315032D+02 -.173005748357886D+03
 0.418914536337111D+02 -.376738573279461D+02 0.171466792743215D+02 -.644715064524463D+01
0.448835432619D-03 0.000000000000D+00 0.000000000000D+00 0.599996653414D-03 0.000000000000D+00  5 -1 1 25 23 21 0 0.64250743D-02 0.17448859D+00 0.17313191D+05 0.17313191D+05 0.17313191D+05 0.12407838D+01  1  2  2  2  5  2        1 0.688188829488D-01 0.100000000000D+01
-.172578211889D-04 0.000000000000D+00 -.172364624234D-05 0.599996653414D-03 0.000000000000D+00  5 -1 1 25 23 21 2 0.64250743D-02 0.17448859D+00 0.17313191D+05 0.17313191D+05 0.17313191D+05 0.12407838D+01  1  2  3  2  5  2        1 -.407379032608D-02 0.100000000000D+01
0.307716550886D-04 0.000000000000D+00 0.000000000000D+00 0.599996653414D-03 0.000000000000D+00  5 -1 1 25 23 21 2 0.64250743D-02 0.17448859D+00 0.17313191D+05 0.17313191D+05 0.17313191D+05 0.12407838D+01  1  2 15  2  5  2        1 0.726379474240D-02 0.100000000000D+01
0.485701049128D-03 0.000000000000D+00 0.000000000000D+00 0.599996653414D-03 0.000000000000D+00  5 -1 1 25 23 21 2 0.64250743D-02 0.20140413D+00 0.23534009D+05 0.23534009D+05 0.23534009D+05 0.12261214D+01  1  2 12  2  5  2        1 0.850666713451D-01 0.100000000000D+01
-.462225184949D-03 0.000000000000D+00 0.000000000000D+00 0.599996653414D-03 0.000000000000D+00  5 -1 1 25 23 21 2 0.64250743D-02 0.17448859D+00 0.17313191D+05 0.17313191D+05 0.17313191D+05 0.12407838D+01  1  2  4  2  5  2        1 -.109110441365D+00 0.100000000000D+01
-.117015736927D-02 0.000000000000D+00 -.379591192802D-03 0.599996653414D-03 0.000000000000D+00  5 -1 1 25 23 21 2 0.64250743D-02 0.20528355D+00 0.17313191D+05 0.17313191D+05 0.17313191D+05 0.12407838D+01  1  2  5  2  5  2        1 -.202083201223D+00 0.100000000000D+01
0.122065412726D-02 0.000000000000D+00 0.374631978562D-03 0.599996653414D-03 0.000000000000D+00  5 -1 1 25 23 21 2 0.64250743D-02 0.17448859D+00 0.17313191D+05 0.17313191D+05 0.17313191D+05 0.12407838D+01  1  2  6  2  5  2        1 0.288141180784D+00 0.100000000000D+01
0.106847157727D-04 0.000000000000D+00 0.000000000000D+00 0.599996653414D-03 0.000000000000D+00  5 -1 21 25 23 -1 2 0.64250743D-02 0.20140413D+00 0.23534009D+05 0.23534009D+05 0.23534009D+05 0.12261214D+01  1  2 12  4  5  2        1 0.230898363241D-02 0.100000000000D+01
-.254295973920D-04 0.000000000000D+00 -.923560427003D-05 0.599996653414D-03 0.000000000000D+00  5 -1 21 25 23 -1 2 0.64250743D-02 0.20528355D+00 0.17313191D+05 0.17313191D+05 0.17313191D+05 0.12407838D+01  1  2  5  4  5  2        1 -.540029428290D-02 0.100000000000D+01
  </mgrwgt>
  </event>
  <event>
  4     66 0.43907321E-03 0.80686852E+02 0.75467711E-02 0.11520679E+00
       -1 -1    0    0    0  501 0.00000000E+00 0.00000000E+00 0.17113113E+03 0.17113143E+03 0.32000000E+00 0.0000E+00 0.9000E+01
        1 -1    0    0  501    0 0.00000000E+00 0.00000000E+00 -.17889067E+03 0.17889096E+03 0.32000000E+00 0.0000E+00 0.9000E+01
       25  1    1    2    0    0 -.74744871E+02 -.10953549E+03 0.30073135E+02 0.18470033E+03 0.12500000E+03 0.0000E+00 0.9000E+01
       23  1    1    2    0    0 0.74744871E+02 0.10953549E+03 -.37832673E+02 0.16532206E+03 0.91188000E+02 0.0000E+00 0.9000E+01
#aMCatNLO 1  0  0  1  2 0.47993218D+02 0.00000000D+00  -5  5  0 0.00000000D+00 0.00000000D+00 0.00000000D+00 0.00000000D+00 0.00000000D+00
  <mgrwgt>
 0.1597934417D+00    9    2    0
 0.174968185792518D+03 0.000000000000000D+00 0.000000000000000D+00 0.174968185792518D+03
 0.174968185792518D+03 0.000000000000000D+00 0.000000000000000D+00 -.174968185792518D+03
 0.185412582616561D+03 -.747448706053313D+02 -.109535493879912D+03 0.341760982445238D+02
 0.164523788968475D+03 0.747448706053313D+02 0.109535493879912D+03 -.341760982445238D+02
 0.000000000000000D+00 0.000000000000000D+00 -.000000000000000D+00 0.000000000000000D+00
 0.239743070142726D+03 0.000000000000000D+00 0.000000000000000D+00 0.239743070142726D+03
 0.185726508127284D+03 0.000000000000000D+00 0.000000000000000D+00 -.185726508127284D+03
 0.177258043992159D+03 -.843166934510056D+02 -.867069989919842D+02 0.341760982445238D+02
 0.175954092162792D+03 0.657587721403593D+02 0.130967054636673D+03 -.341760982445238D+02
 0.722574421150594D+02 0.185579213106463D+02 -.442600556446887D+02 0.540165620154419D+02
0.580374238225D-03 0.000000000000D+00 0.000000000000D+00 0.150772671321D-02 0.000000000000D+00  5 -1 1 25 23 21 0 0.26327912D-01 0.27521687D-01 0.29441517D+05 0.29441517D+05 0.29441517D+05 0.12157559D+01  1  2  2  1  5  1       -1 0.123109476828D+00 0.100000000000D+01
-.322280702364D-04 0.000000000000D+00 -.222878989083D-05 0.150772671321D-02 0.000000000000D+00  5 -1 1 25 23 21 2 0.26327912D-01 0.27521687D-01 0.29441517D+05 0.29441517D+05 0.29441517D+05 0.12157559D+01  1  2  3  1  5  1       -1 -.101043971719D-01 0.100000000000D+01
0.399049989636D-04 0.000000000000D+00 0.000000000000D+00 0.150772671321D-02 0.000000000000D+00  5 -1 1 25 23 21 2 0.26327912D-01 0.27521687D-01 0.29441517D+05 0.29441517D+05 0.29441517D+05 0.12157559D+01  1  2 15  1  5  1       -1 0.125113280353D-01 0.100000000000D+01
0.751337593598D-03 0.000000000000D+00 0.000000000000D+00 0.150772671321D-02 0.000000000000D+00  5 -1 1 25 23 21 2 0.36656898D-01 0.27521687D-01 0.38913191D+05 0.38913191D+05 0.38913191D+05 0.12032170D+01  1  2 12  1  5  1       -1 0.131891780969D+00 0.100000000000D+01
-.787320824306D-03 0.000000000000D+00 0.000000000000D+00 0.150772671321D-02 0.000000000000D+00  5 -1 1 25 23 21 2 0.26327912D-01 0.27521687D-01 0.29441517D+05 0.29441517D+05 0.29441517D+05 0.12157559D+01  1  2  4  1  5  1       -1 -.246846995559D+00 0.100000000000D+01
-.105690649609D-02 0.000000000000D+00 -.240500582320D-03 0.150772671321D-02 0.000000000000D+00  5 -1 1 25 23 21 2 0.37900824D-01 0.27521687D-01 0.29441517D+05 0.29441517D+05 0.29441517D+05 0.12157559D+01  1  2  5  1  5  1       -1 -.178216087152D+00 0.100000000000D+01
0.108672563923D-02 0.000000000000D+00 0.225375526565D-03 0.150772671321D-02 0.000000000000D+00  5 -1 1 25 23 21 2 0.26327912D-01 0.27521687D-01 0.29441517D+05 0.29441517D+05 0.29441517D+05 0.12157559D+01  1  2  6  1  5  1       -1 0.340718739754D+00 0.100000000000D+01
0.311751308770D-04 0.000000000000D+00 0.000000000000D+00 0.150772671321D-02 0.000000000000D+00  5 21 1 25 23 1 2 0.36656898D-01 0.27521687D-01 0.38913191D+05 0.38913191D+05 0.38913191D+05 0.12032170D+01  1  2 12  3  5  1       -1 0.592452430276D-01 0.100000000000D+01
-.397940276604D-04 0.000000000000D+00 -.106952360757D-04 0.150772671321D-02 0.000000000000D+00  5 21 1 25 23 1 2 0.37900824D-01 0.27521687D-01 0.29441517D+05 0.29441517D+05 0.29441517D+05 0.12157559D+01  1  2  5  3  5  1       -1 -.725156470080D-01 0.100000000000D+01
  </mgrwgt>
  </event>
  <event>
  4     66 0.43907321E-03 0.20192448E+03 0.75467711E-02 0.11306296E+00
       -1 -1    0    0    0  501 0.00000000E+00 0.00000000E+00 0.23981314E+02 0.23983449E+02 0.32000000E+00 0.0000E+00 0.9000E+01
        1 -1    0    0  501    0 0.00000000E+00 0.00000000E+00 -.17504903E+04 0.17504904E+04 0.32000000E+00 0.0000E+00 0.9000E+01
       25  1    1    2    0    0 -.15965377E+03 -.58274763E+02 -.75050764E+03 0.77959733E+03 0.12500000E+03 0.0000E+00 0.9000E+01
       23  1    1    2    0    0 0.15965377E+03 0.58274763E+02 -.97600138E+03 0.99487649E+03 0.91188000E+02 0.0000E+00 0.9000E+01
#aMCatNLO 1  0  0  2  2 0.42744706D+02 0.00000000D+00  -5  5  0 0.00000000D+00 0.00000000D+00 0.00000000D+00 0.00000000D+00 0.00000000D+00
  <mgrwgt>
 0.1877394835D+00    4    2    0
 0.204892603298607D+03 0.000000000000000D+00 0.000000000000000D+00 0.204892603298607D+03
 0.204892603298607D+03 0.000000000000000D+00 0.000000000000000D+00 -.204892603298607D+03
 0.213811603470305D+03 -.159653773452715D+03 -.582747634634013D+02 0.347149297008767D+02
 0.195973603126908D+03 0.159653773452715D+03 0.582747634634013D+02 -.347149297008767D+02
 0.000000000000000D+00 0.000000000000000D+00 -.000000000000000D+00 0.000000000000000D+00
 0.286003058772251D+03 0.000000000000000D+00 0.000000000000000D+00 0.286003058772251D+03
 0.211714067388356D+03 0.000000000000000D+00 0.000000000000000D+00 -.211714067388356D+03
 0.217787383381661D+03 -.170602835885532D+03 -.386767424159281D+02 0.347149297008767D+02
 0.194221142567992D+03 0.149755078688086D+03 0.759927031984290D+02 -.347149297008767D+02
 0.857086002109546D+02 0.208477571974458D+02 -.373159607825009D+02 0.742889913838951D+02
0.154435688579D-02 0.000000000000D+00 0.000000000000D+00 0.140657722309D-02 0.000000000000D+00  5 -1 1 25 23 21 0 0.36895994D-02 0.26930637D+00 0.40773497D+05 0.40773497D+05 0.40773497D+05 0.12011565D+01  1  2  2  2  5  2        1 0.210731250015D+00 0.100000000000D+01
-.857753923014D-04 0.000000000000D+00 -.593073707994D-05 0.140657722309D-02 0.000000000000D+00  5 -1 1 25 23 21 2 0.36895994D-02 0.26930637D+00 0.40773497D+05 0.40773497D+05 0.40773497D+05 0.12011565D+01  1  2  3  2  5  2        1 -.168866371697D-01 0.100000000000D+01
0.106356851426D-03 0.000000000000D+00 0.000000000000D+00 0.140657722309D-02 0.000000000000D+00  5 -1 1 25 23 21 2 0.36895994D-02 0.26930637D+00 0.40773497D+05 0.40773497D+05 0.40773497D+05 0.12011565D+01  1  2 15  2  5  2        1 0.209385175905D-01 0.100000000000D+01
-.137367754411D-03 0.000000000000D+00 0.000000000000D+00 0.140657722309D-02 0.000000000000D+00  5 -1 1 25 23 21 2 0.36895994D-02 0.26930637D+00 0.40773497D+05 0.40773497D+05 0.40773497D+05 0.12011565D+01  1  2  4  2  5  2        1 -.270436469635D-01 0.100000000000D+01
  </mgrwgt>
  </event>
  <event>
  4     66 0.43907321E-03 0.72061507E+02 0.75467711E-02 0.11455544E+00
       -3 -1    0    0    0  501 0.00000000E+00 0.00000000E+00 0.22775029E+03 0.22775084E+03 0.50000000E+00 0.0000E+00 0.9000E+01
        3 -1    0    0  501    0 0.00000000E+00 0.00000000E+00 -.16862389E+03 0.16862463E+03 0.50000000E+00 0.0000E+00 0.9000E+01
       25  1    1    2    0    0 0.13069414E+03 -.14995768E+02 0.12805296E+03 0.22209996E+03 0.12500000E+03 0.0000E+00 0.9000E+01
       23  1    1    2    0    0 -.13069414E+03 0.14995768E+02 -.68926560E+02 0.17427551E+03 0.91188000E+02 0.0000E+00 0.9000E+01
#aMCatNLO 1  0  0  2  1 0.62720613D+02 0.00000000D+00  -5  5  0 0.00000000D+00 0.00000000D+00 0.00000000D+00 0.00000000D+00 0.00000000D+00
  <mgrwgt>
 0.2363707628D-01    9    2    0
 0.195970392017241D+03 0.000000000000000D+00 0.000000000000000D+00 0.195970392017241D+03
 0.195970392017241D+03 0.000000000000000D+00 0.000000000000000D+00 -.195970392017241D+03
 0.205295459672560D+03 0.130694136201632D+03 -.149957677926453D+02 0.959968513701670D+02
 0.186645324361923D+03 -.130694136201632D+03 0.149957677926453D+02 -.959968513701670D+02
 0.000000000000000D+00 0.000000000000000D+00 -.000000000000000D+00 -.000000000000000D+00
 0.209554076186633D+03 0.000000000000000D+00 0.000000000000000D+00 0.209554076186633D+03
 0.287141904230773D+03 0.000000000000000D+00 0.000000000000000D+00 -.287141904230773D+03
 0.193494581956873D+03 0.111762242443221D+03 0.104383397981596D+02 0.959968513701670D+02
 0.203432934710774D+03 -.149212452576975D+03 0.398742536483879D+02 -.959968513701670D+02
 0.997684637497593D+02 0.374502101337541D+02 -.503125934465475D+02 -.775878280441405D+02
0.746695008944D-03 0.000000000000D+00 0.000000000000D+00 0.115761060346D-02 0.000000000000D+00  5 -3 3 25 23 21 0 0.35038605D-01 0.25942236D-01 0.29161437D+05 0.29161437D+05 0.29161437D+05 0.12161927D+01  1  2  2  2  5  2        3 0.201503385077D-01 0.100000000000D+01
-.405272218017D-04 0.000000000000D+00 -.286750544366D-05 0.115761060346D-02 0.000000000000D+00  5 -3 3 25 23 21 2 0.35038605D-01 0.25942236D-01 0.29161437D+05 0.29161437D+05 0.29161437D+05 0.12161927D+01  1  2  3  2  5  2        3 -.161767305141D-02 0.100000000000D+01
0.512892916874D-04 0.000000000000D+00 0.000000000000D+00 0.115761060346D-02 0.000000000000D+00  5 -3 3 25 23 21 2 0.35038605D-01 0.25942236D-01 0.29161437D+05 0.29161437D+05 0.29161437D+05 0.12161927D+01  1  2 15  2  5  2        3 0.204724877008D-02 0.100000000000D+01
0.102158249711D-02 0.000000000000D+00 0.000000000000D+00 0.115761060346D-02 0.000000000000D+00  5 -3 3 25 23 21 2 0.35038605D-01 0.38580214D-01 0.42041735D+05 0.42041735D+05 0.42041735D+05 0.11998109D+01  1  2 12  2  5  2        3 0.192163191889D-01 0.100000000000D+01
-.116584518809D-02 0.000000000000D+00 0.000000000000D+00 0.115761060346D-02 0.000000000000D+00  5 -3 3 25 23 21 2 0.35038605D-01 0.25942236D-01 0.29161437D+05 0.29161437D+05 0.29161437D+05 0.12161927D+01  1  2  4  2  5  2        3 -.465355447288D-01 0.100000000000D+01
-.136924404382D-02 0.000000000000D+00 -.342063700286D-03 0.115761060346D-02 0.000000000000D+00  5 -3 3 25 23 21 2 0.35038605D-01 0.40141401D-01 0.29161437D+05 0.29161437D+05 0.29161437D+05 0.12161927D+01  1  2  5  2  5  2        3 -.240813413237D-01 0.100000000000D+01
0.141206367205D-02 0.000000000000D+00 0.311872979602D-03 0.115761060346D-02 0.000000000000D+00  5 -3 3 25 23 21 2 0.35038605D-01 0.25942236D-01 0.29161437D+05 0.29161437D+05 0.29161437D+05 0.12161927D+01  1  2  6  2  5  2        3 0.563635316607D-01 0.100000000000D+01
0.483474974791D-04 0.000000000000D+00 0.000000000000D+00 0.115761060346D-02 0.000000000000D+00  5 -3 21 25 23 -3 2 0.35038605D-01 0.38580214D-01 0.42041735D+05 0.42041735D+05 0.42041735D+05 0.11998109D+01  1  2 12  4  5  2        3 0.178186516444D-01 0.100000000000D+01
-.564407257302D-04 0.000000000000D+00 -.173726774689D-04 0.115761060346D-02 0.000000000000D+00  5 -3 21 25 23 -3 2 0.35038605D-01 0.40141401D-01 0.29161437D+05 0.29161437D+05 0.29161437D+05 0.12161927D+01  1  2  5  4  5  2        3 -.197244543903D-01 0.100000000000D+01
  </mgrwgt>
  </event>
  <event>
  4     66 0.43907321E-03 0.11570152E+03 0.75467711E-02 0.12357248E+00
       -3 -1    0    0    0  501 0.00000000E+00 0.00000000E+00 0.16975853E+04 0.16975854E+04 0.50000000E+00 0.0000E+00 0.9000E+01
        3 -1    0    0  501    0 0.00000000E+00 0.00000000E+00 -.78801393E+01 0.78959860E+01 0.50000000E+00 0.0000E+00 0.9000E+01
       25  1    1    2    0    0 0.31492358E+02 0.25969403E+02 0.94565170E+03 0.95475040E+03 0.12500000E+03 0.0000E+00 0.9000E+01
       23  1    1    2    0    0 -.31492358E+02 -.25969403E+02 0.74405349E+03 0.75073100E+03 0.91188000E+02 0.0000E+00 0.9000E+01
#aMCatNLO 1  0  0  2  1 0.17127233D+02 0.00000000D+00  -5  5  0 0.00000000D+00 0.00000000D+00 0.00000000D+00 0.00000000D+00 0.00000000D+00
  <mgrwgt>
 0.4398772219D-01    4    2    0
 0.115718558420521D+03 0.000000000000000D+00 0.000000000000000D+00 0.115718558420521D+03
 0.115718558420521D+03 0.000000000000000D+00 0.000000000000000D+00 -.115718558420521D+03
 0.131510642153185D+03 0.314923576364452D+02 0.259694025472606D+02 -.196736915185202D+01
 0.999264746878578D+02 -.314923576364452D+02 -.259694025472606D+02 0.196736915185202D+01
 0.000000000000000D+00 -.000000000000000D+00 -.000000000000000D+00 0.000000000000000D+00
 0.153765584564274D+03 0.000000000000000D+00 0.000000000000000D+00 0.153765584564274D+03
 0.117978658290519D+03 0.000000000000000D+00 0.000000000000000D+00 -.117978658290519D+03
 0.134840678534193D+03 0.400974492772291D+02 0.307462616856395D+02 -.196736915185202D+01
 0.972293133803970D+02 -.251227867273917D+02 -.224335258506943D+02 0.196736915185202D+01
 0.396742509402039D+02 -.149746625498374D+02 -.831273583494517D+01 0.357869262737551D+02
0.141408791307D-02 0.000000000000D+00 0.000000000000D+00 0.224405777835D-02 0.000000000000D+00  5 -3 3 25 23 21 0 0.26116820D+00 0.12135538D-02 0.13386841D+05 0.13386841D+05 0.13386841D+05 0.12534953D+01  1  2  2  2  5  2        3 0.478192420447D-01 0.100000000000D+01
-.785604375430D-04 0.000000000000D+00 -.543046992409D-05 0.224405777835D-02 0.000000000000D+00  5 -3 3 25 23 21 2 0.26116820D+00 0.12135538D-02 0.13386841D+05 0.13386841D+05 0.13386841D+05 0.12534953D+01  1  2  3  2  5  2        3 -.417422276599D-02 0.100000000000D+01
0.977043717304D-04 0.000000000000D+00 0.000000000000D+00 0.224405777835D-02 0.000000000000D+00  5 -3 3 25 23 21 2 0.26116820D+00 0.12135538D-02 0.13386841D+05 0.13386841D+05 0.13386841D+05 0.12534953D+01  1  2 15  2  5  2        3 0.519141473201D-02 0.100000000000D+01
-.912545744422D-04 0.000000000000D+00 0.000000000000D+00 0.224405777835D-02 0.000000000000D+00  5 -3 3 25 23 21 2 0.26116820D+00 0.12135538D-02 0.13386841D+05 0.13386841D+05 0.13386841D+05 0.12534953D+01  1  2  4  2  5  2        3 -.484871182049D-02 0.100000000000D+01
  </mgrwgt>
  </event>
  <event>
  4     66 0.43907321E-03 0.13214114E+03 0.75467711E-02 0.12239474E+00
       -1 -1    0    0    0  501 0.00000000E+00 0.00000000E+00 0.10772324E+03 0.10772372E+03 0.32000000E+00 0.0000E+00 0.9000E+01
        1 -1    0    0  501    0 0.00000000E+00 0.00000000E+00 -.18419292E+03 0.18419320E+03 0.32000000E+00 0.0000E+00 0.9000E+01
       25  1    1    2    0    0 -.68555572E+02 -.31345516E+02 0.85573034E+01 0.14622119E+03 0.12500000E+03 0.0000E+00 0.9000E+01
       23  1    1    2    0    0 0.68555572E+02 0.31345516E+02 -.85026976E+02 0.14569573E+03 0.91188000E+02 0.0000E+00 0.9000E+01
#aMCatNLO 1  0  0  2  1 0.50698278D+00 0.00000000D+00  -5  5  0 0.00000000D+00 0.00000000D+00 0.00000000D+00 0.00000000D+00 0.00000000D+00
  <mgrwgt>
 0.8751940957D-01    6    2    0
 0.140861523274637D+03 0.000000000000000D+00 0.000000000000000D+00 0.140861523274637D+03
 0.140861523274637D+03 0.000000000000000D+00 0.000000000000000D+00 -.140861523274637D+03
 0.153834811661112D+03 -.685555715013475D+02 -.313455157735789D+02 0.485565807674076D+02
 0.127888234888163D+03 0.685555715013475D+02 0.313455157735789D+02 -.485565807674076D+02
 0.000000000000000D+00 0.000000000000000D+00 0.000000000000000D+00 0.000000000000000D+00
 0.141333254441075D+03 0.000000000000000D+00 0.000000000000000D+00 0.141333254441075D+03
 0.140998034430728D+03 0.000000000000000D+00 0.000000000000000D+00 -.140998034430728D+03
 0.153966883415050D+03 -.688275138737158D+02 -.313979774298506D+02 0.485565807674076D+02
 0.127756619311555D+03 0.683297096258382D+02 0.313019437183135D+02 -.485565807674076D+02
 0.607786145197002D+00 0.497804247877575D+00 0.960337115371214D-01 0.335220010346756D+00
0.190694311870D-03 0.000000000000D+00 0.000000000000D+00 0.164452053365D-02 0.000000000000D+00  5 -1 1 25 23 21 0 0.16572865D-01 0.28337430D-01 0.17461280D+05 0.17461280D+05 0.17461280D+05 0.12403696D+01  1  2  2  2  5  2        1 0.814810225226D-01 0.100000000000D+01
-.105415218743D-04 0.000000000000D+00 -.732316368544D-06 0.164452053365D-02 0.000000000000D+00  5 -1 1 25 23 21 2 0.16572865D-01 0.28337430D-01 0.17461280D+05 0.17461280D+05 0.17461280D+05 0.12403696D+01  1  2  3  2  5  2        1 -.692985742748D-02 0.100000000000D+01
0.131507782206D-04 0.000000000000D+00 0.000000000000D+00 0.164452053365D-02 0.000000000000D+00  5 -1 1 25 23 21 2 0.16572865D-01 0.28337430D-01 0.17461280D+05 0.17461280D+05 0.17461280D+05 0.12403696D+01  1  2 15  2  5  2        1 0.864514813096D-02 0.100000000000D+01
-.260093985808D-02 0.000000000000D+00 0.000000000000D+00 0.164452053365D-02 0.000000000000D+00  5 -1 1 25 23 21 2 0.16572865D-01 0.28337430D-01 0.17461280D+05 0.17461280D+05 0.17461280D+05 0.12403696D+01  1  2  4  2  5  2        1 -.170982355383D+01 0.100000000000D+01
0.260095802259D-02 0.000000000000D+00 0.000000000000D+00 0.164452053365D-02 0.524840401616D-01  5 -1 1 25 23 21 2 0.16628366D-01 0.28364892D-01 0.17527927D+05 0.17527927D+05 0.17527927D+05 0.12401845D+01  1  2 11  2  5  2        1 0.169846951639D+01 0.100000000000D+01
0.350434002959D-05 0.000000000000D+00 0.000000000000D+00 0.164452053365D-02 0.953991335566D-05  5 -1 21 25 23 -1 2 0.16628366D-01 0.28364892D-01 0.17527927D+05 0.17527927D+05 0.17527927D+05 0.12401845D+01  1  2 11  4  5  2        1 0.156771337906D-01 0.100000000000D+01
  </mgrwgt>
  </event>
  <event>
  4     66 0.43907321E-03 0.11396660E+03 0.75467711E-02 0.11493302E+00
       -1 -1    0    0    0  501 0.00000000E+00 0.00000000E+00 0.68741118E+02 0.68741863E+02 0.32000000E+00 0.0000E+00 0.9000E+01
        1 -1    0    0  501    0 0.00000000E+00 0.00000000E+00 -.22643588E+03 0.22643610E+03 0.32000000E+00 0.0000E+00 0.9000E+01
       25  1    1    2    0    0 -.94252841E+01 0.34446213E+02 -.28547735E+02 0.13309903E+03 0.12500000E+03 0.0000E+00 0.9000E+01
       23  1    1    2    0    0 0.94252841E+01 -.34446213E+02 -.12914702E+03 0.16207894E+03 0.91188000E+02 0.0000E+00 0.9000E+01
#aMCatNLO 1  0  0  2  1 0.13549315D+03 0.00000000D+00  -5  5  0 0.00000000D+00 0.00000000D+00 0.00000000D+00 0.00000000D+00 0.00000000D+00
  <mgrwgt>
 0.1016761148D+00    5    2    0
 0.124762167911011D+03 0.000000000000000D+00 0.000000000000000D+00 0.124762167911011D+03
 0.124762167911011D+03 0.000000000000000D+00 0.000000000000000D+00 -.124762167911011D+03
 0.139409534132665D+03 -.942528409850954D+01 0.344462131027751D+02 0.503452145653104D+02
 0.110114801689358D+03 0.942528409850954D+01 -.344462131027751D+02 -.503452145653104D+02
 0.000000000000000D+00 -.000000000000000D+00 0.000000000000000D+00 -.000000000000000D+00
 0.160050009185880D+03 0.000000000000000D+00 0.000000000000000D+00 0.160050009185880D+03
 0.395804333979229D+03 0.000000000000000D+00 0.000000000000000D+00 -.395804333979229D+03
 0.139360753462750D+03 0.166183735226671D+02 -.313944045578073D+02 0.503452145653104D+02
 0.144577248646561D+03 0.332194718327882D+02 -.945999764467881D+02 -.503452145653104D+02
 0.271916341055799D+03 -.498378453554554D+02 0.125994381004595D+03 -.235754324793349D+03
0.183671388479D-03 0.000000000000D+00 0.000000000000D+00 0.179589122042D-02 0.000000000000D+00  5 -1 1 25 23 21 0 0.10575631D-01 0.34836363D-01 0.12988387D+05 0.12988387D+05 0.12988387D+05 0.12550154D+01  1  2  2  2  5  2        1 0.120756669479D+00 0.100000000000D+01
-.101023448538D-04 0.000000000000D+00 -.705346493548D-06 0.179589122042D-02 0.000000000000D+00  5 -1 1 25 23 21 2 0.10575631D-01 0.34836363D-01 0.12988387D+05 0.12988387D+05 0.12988387D+05 0.12550154D+01  1  2  3  2  5  2        1 -.104614020395D-01 0.100000000000D+01
0.126263825548D-04 0.000000000000D+00 0.000000000000D+00 0.179589122042D-02 0.000000000000D+00  5 -1 1 25 23 21 2 0.10575631D-01 0.34836363D-01 0.12988387D+05 0.12988387D+05 0.12988387D+05 0.12550154D+01  1  2 15  2  5  2        1 0.130751489997D-01 0.100000000000D+01
-.930270147399D-04 0.000000000000D+00 -.735743562612D-04 0.179589122042D-02 0.000000000000D+00  5 -1 1 25 23 21 2 0.10575631D-01 0.13041500D+00 0.12988387D+05 0.12988387D+05 0.12988387D+05 0.12550154D+01  1  2  5  2  5  2        1 -.171958135538D-01 0.100000000000D+01
-.128881195809D-04 0.000000000000D+00 -.114840600608D-04 0.179589122042D-02 0.000000000000D+00  5 -1 21 25 23 -1 2 0.10575631D-01 0.13041500D+00 0.12988387D+05 0.12988387D+05 0.12988387D+05 0.12550154D+01  1  2  5  4  5  2        1 -.449848810951D-02 0.100000000000D+01
  </mgrwgt>
  </event>
  <event>
  4     66 0.43907321E-03 0.13753516E+03 0.75467711E-02 0.10987046E+00
       -1 -1    0    0    0  501 0.00000000E+00 0.00000000E+00 0.48838711E+02 0.48839759E+02 0.32000000E+00 0.0000E+00 0.9000E+01
        1 -1    0    0  501    0 0.00000000E+00 0.00000000E+00 -.44630726E+03 0.44630737E+03 0.32000000E+00 0.0000E+00 0.9000E+01
       25  1    1    2    0    0 -.52638951E+02 0.65965754E+02 -.12574755E+03 0.19636646E+03 0.12500000E+03 0.0000E+00 0.9000E+01
       23  1    1    2    0    0 0.52638951E+02 -.65965754E+02 -.27172099E+03 0.29878067E+03 0.91188000E+02 0.0000E+00 0.9000E+01
#aMCatNLO 1  0  0  2  2 0.20556567D+03 0.00000000D+00  -5  5  0 0.00000000D+00 0.00000000D+00 0.00000000D+00 0.00000000D+00 0.00000000D+00
  <mgrwgt>
 0.1470736774D+00    5    2    0
 0.147639287156315D+03 0.000000000000000D+00 0.000000000000000D+00 0.147639287156315D+03
 0.147639287156315D+03 0.000000000000000D+00 0.000000000000000D+00 -.147639287156315D+03
 0.160017003136921D+03 -.526389508016703D+02 0.659657539268352D+02 0.534612145418051D+02
 0.135261571175709D+03 0.526389508016703D+02 -.659657539268352D+02 -.534612145418051D+02
 0.000000000000000D+00 0.000000000000000D+00 0.000000000000000D+00 -.000000000000000D+00
 0.227058078998243D+03 0.000000000000000D+00 0.000000000000000D+00 0.227058078998243D+03
 0.403881730308786D+03 0.000000000000000D+00 0.000000000000000D+00 -.403881730308786D+03
 0.178042406842432D+03 -.112971517045873D+03 -.212939782641770D+02 0.534612145418051D+02
 0.181744587936310D+03 -.393629760101201D+01 -.147791231137204D+03 -.534612145418051D+02
 0.271152814528287D+03 0.116907814646885D+03 0.169085209401381D+03 -.176823651310542D+03
0.297211598562D-03 0.000000000000D+00 0.000000000000D+00 0.156066272135D-02 0.000000000000D+00  5 -1 1 25 23 21 0 0.75137373D-02 0.68662744D-01 0.18915920D+05 0.18915920D+05 0.18915920D+05 0.12364995D+01  1  2  2  2  5  2        1 0.142681645206D+00 0.100000000000D+01
-.164108592367D-04 0.000000000000D+00 -.114137079609D-05 0.156066272135D-02 0.000000000000D+00  5 -1 1 25 23 21 2 0.75137373D-02 0.68662744D-01 0.18915920D+05 0.18915920D+05 0.18915920D+05 0.12364995D+01  1  2  3  2  5  2        1 -.120454086833D-01 0.100000000000D+01
0.205303271751D-04 0.000000000000D+00 0.000000000000D+00 0.156066272135D-02 0.000000000000D+00  5 -1 1 25 23 21 2 0.75137373D-02 0.68662744D-01 0.18915920D+05 0.18915920D+05 0.18915920D+05 0.12364995D+01  1  2 15  2  5  2        1 0.150690574856D-01 0.100000000000D+01
0.973777137600D-05 0.000000000000D+00 -.112064369224D-03 0.156066272135D-02 0.000000000000D+00  5 -1 1 25 23 21 2 0.75137373D-02 0.24414977D+00 0.18915920D+05 0.18915920D+05 0.18915920D+05 0.12364995D+01  1  2  5  2  5  2        1 0.903489321200D-03 0.100000000000D+01
0.478206440291D-05 0.000000000000D+00 -.166751815195D-04 0.156066272135D-02 0.000000000000D+00  5 -1 21 25 23 -1 2 0.75137373D-02 0.24414977D+00 0.18915920D+05 0.18915920D+05 0.18915920D+05 0.12364995D+01  1  2  5  4  5  2        1 0.464894089082D-03 0.100000000000D+01
  </mgrwgt>
  </event>
  <event>
  4     66 0.43907321E-03 0.93750526E+02 0.75467711E-02 0.11940613E+00
       -1 -1    0    0    0  501 0.00000000E+00 0.00000000E+00 0.62711494E+02 0.62712310E+02 0.32000000E+00 0.0000E+00 0.9000E+01
        1 -1    0    0  501    0 0.00000000E+00 0.00000000E+00 -.38016346E+03 0.38016360E+03 0.32000000E+00 0.0000E+00 0.9000E+01
       25  1    1    2    0    0 0.56942680E+02 0.33145690E+02 -.45295418E+02 0.14838390E+03 0.12500000E+03 0.0000E+00 0.9000E+01
       23  1    1    2    0    0 -.56942680E+02 -.33145690E+02 -.27215655E+03 0.29449201E+03 0.91188000E+02 0.0000E+00 0.9000E+01
#aMCatNLO 1  0  0  2  1 0.52890671D+02 0.00000000D+00  -5  5  0 0.00000000D+00 0.00000000D+00 0.00000000D+00 0.00000000D+00 0.00000000D+00
  <mgrwgt>
 0.1373714191D+00    9    2    0
 0.154404757406651D+03 0.000000000000000D+00 0.000000000000000D+00 0.154404757406651D+03
 0.154404757406651D+03 0.000000000000000D+00 0.000000000000000D+00 -.154404757406651D+03
 0.166240125660151D+03 0.569426796662422D+02 0.331456899201565D+02 0.875766741298573D+02
 0.142569389153151D+03 -.569426796662422D+02 -.331456899201565D+02 -.875766741298573D+02
 0.000000000000000D+00 -.000000000000000D+00 -.000000000000000D+00 -.000000000000000D+00
 0.169611111084918D+03 0.000000000000000D+00 0.000000000000000D+00 0.169611111084918D+03
 0.210623872163574D+03 0.000000000000000D+00 0.000000000000000D+00 -.210623872163574D+03
 0.179854821852990D+03 0.840402744118852D+02 0.446129506858573D+02 0.875766741298573D+02
 0.133451321519679D+03 -.353315656844852D+02 -.240002184570134D+02 -.875766741298573D+02
 0.669288398758236D+02 -.487087087274000D+02 -.206127322288439D+02 -.410127610786561D+02
0.294905043909D-03 0.000000000000D+00 0.000000000000D+00 0.123735644391D-02 0.000000000000D+00  5 -1 1 25 23 21 0 0.96479952D-02 0.58486760D-01 0.16103857D+05 0.16103857D+05 0.16103857D+05 0.12443222D+01  1  2  2  2  5  2        1 0.118318435537D+00 0.100000000000D+01
-.156170322970D-04 0.000000000000D+00 -.113251301889D-05 0.123735644391D-02 0.000000000000D+00  5 -1 1 25 23 21 2 0.96479952D-02 0.58486760D-01 0.16103857D+05 0.16103857D+05 0.16103857D+05 0.12443222D+01  1  2  3  2  5  2        1 -.970139953348D-02 0.100000000000D+01
0.201409503189D-04 0.000000000000D+00 0.000000000000D+00 0.123735644391D-02 0.000000000000D+00  5 -1 1 25 23 21 2 0.96479952D-02 0.58486760D-01 0.16103857D+05 0.16103857D+05 0.16103857D+05 0.12443222D+01  1  2 15  2  5  2        1 0.125116861073D-01 0.100000000000D+01
0.254516768595D-03 0.000000000000D+00 0.000000000000D+00 0.123735644391D-02 0.000000000000D+00  5 -1 1 25 23 21 2 0.96479952D-02 0.81853083D-01 0.24130322D+05 0.24130322D+05 0.24130322D+05 0.12249497D+01  1  2 12  2  5  2        1 0.100346856325D+00 0.100000000000D+01
-.323192070669D-03 0.000000000000D+00 0.000000000000D+00 0.123735644391D-02 0.000000000000D+00  5 -1 1 25 23 21 2 0.96479952D-02 0.58486760D-01 0.16103857D+05 0.16103857D+05 0.16103857D+05 0.12443222D+01  1  2  4  2  5  2        1 -.200768964550D+00 0.100000000000D+01
-.419923213584D-03 0.000000000000D+00 -.142737664874D-03 0.123735644391D-02 0.000000000000D+00  5 -1 1 25 23 21 2 0.96479952D-02 0.85594647D-01 0.16103857D+05 0.16103857D+05 0.16103857D+05 0.12443222D+01  1  2  5  2  5  2        1 -.159917599745D+00 0.100000000000D+01
0.450944268124D-03 0.000000000000D+00 0.132977956756D-03 0.123735644391D-02 0.000000000000D+00  5 -1 1 25 23 21 2 0.96479952D-02 0.58486760D-01 0.16103857D+05 0.16103857D+05 0.16103857D+05 0.12443222D+01  1  2  6  2  5  2        1 0.280129440038D+00 0.100000000000D+01
0.106788225649D-04 0.000000000000D+00 0.000000000000D+00 0.123735644391D-02 0.000000000000D+00  5 -1 21 25 23 -1 2 0.96479952D-02 0.81853083D-01 0.24130322D+05 0.24130322D+05 0.24130322D+05 0.12249497D+01  1  2 12  4  5  2        1 0.121209967124D-01 0.100000000000D+01
-.147300147664D-04 0.000000000000D+00 -.655470494132D-05 0.123735644391D-02 0.000000000000D+00  5 -1 21 25 23 -1 2 0.96479952D-02 0.85594647D-01 0.16103857D+05 0.16103857D+05 0.16103857D+05 0.12443222D+01  1  2  5  4  5  2        1 -.156680317956D-01 0.100000000000D+01
  </mgrwgt>
  </event>
  <event>
  4     66 0.43907321E-03 0.12451144E+03 0.75467711E-02 0.11663348E+00
       -1 -1    0    0    0  501 0.00000000E+00 0.00000000E+00 0.18057991E+03 0.18058020E+03 0.32000000E+00 0.0000E+00 0.9000E+01
        1 -1    0    0  501    0 0.00000000E+00 0.00000000E+00 -.97022544E+02 0.97023072E+02 0.32000000E+00 0.0000E+00 0.9000E+01
       25  1    1    2    0    0 -.42587434E+02 0.43985151E+02 0.92944863E+02 0.16736825E+03 0.12500000E+03 0.0000E+00 0.9000E+01
       23  1    1    2    0    0 0.42587434E+02 -.43985151E+02 -.93874949E+01 0.11023502E+03 0.91188000E+02 0.0000E+00 0.9000E+01
#aMCatNLO 1  0  0  1  1 0.95986486D+02 0.00000000D+00  -5  5  0 0.00000000D+00 0.00000000D+00 0.00000000D+00 0.00000000D+00 0.00000000D+00
  <mgrwgt>
 0.1477494639D+00    6    2    0
 0.132364780506465D+03 0.000000000000000D+00 0.000000000000000D+00 0.132364780506465D+03
 0.132364780506465D+03 0.000000000000000D+00 0.000000000000000D+00 -.132364780506465D+03
 0.146170848533078D+03 -.425874342757689D+02 0.439851508714872D+02 0.446378080274977D+02
 0.118558712479852D+03 0.425874342757689D+02 -.439851508714872D+02 -.446378080274977D+02
 0.000000000000000D+00 -.000000000000000D+00 0.000000000000000D+00 0.000000000000000D+00
 0.198261757304506D+03 0.000000000000000D+00 0.000000000000000D+00 0.198261757304506D+03
 0.180879799223499D+03 0.000000000000000D+00 0.000000000000000D+00 -.180879799223499D+03
 0.138892837174204D+03 0.735698413492717D+01 0.402437709122606D+02 0.446378080274977D+02
 0.142701100785582D+03 0.883613089636448D+02 -.474141117616734D+02 -.446378080274977D+02
 0.975476185682192D+02 -.957182930985719D+02 0.717034084941285D+01 0.173819580810075D+02
0.230332981141D-03 0.000000000000D+00 0.000000000000D+00 0.175499816256D-02 0.000000000000D+00  5 -1 1 25 23 21 0 0.27781587D-01 0.14926608D-01 0.15503098D+05 0.15503098D+05 0.15503098D+05 0.12461925D+01  1  2  2  1  5  1       -1 0.959198108396D-01 0.100000000000D+01
-.127380721717D-04 0.000000000000D+00 -.884539295649D-06 0.175499816256D-02 0.000000000000D+00  5 -1 1 25 23 21 2 0.27781587D-01 0.14926608D-01 0.15503098D+05 0.15503098D+05 0.15503098D+05 0.12461925D+01  1  2  3  1  5  1       -1 -.823808306225D-02 0.100000000000D+01
0.159330062351D-04 0.000000000000D+00 0.000000000000D+00 0.175499816256D-02 0.000000000000D+00  5 -1 1 25 23 21 2 0.27781587D-01 0.14926608D-01 0.15503098D+05 0.15503098D+05 0.15503098D+05 0.12461925D+01  1  2 15  1  5  1       -1 0.103043401723D-01 0.100000000000D+01
-.578804861257D-04 0.000000000000D+00 -.683024868608D-04 0.175499816256D-02 0.000000000000D+00  5 -1 1 25 23 21 2 0.55312697D-01 0.14926608D-01 0.15503098D+05 0.15503098D+05 0.15503098D+05 0.12461925D+01  1  2  5  1  5  1       -1 -.112282760666D-01 0.100000000000D+01
0.949990331521D-04 0.000000000000D+00 0.547899608522D-04 0.175499816256D-02 0.000000000000D+00  5 -1 1 25 23 21 2 0.27781587D-01 0.14926608D-01 0.15503098D+05 0.15503098D+05 0.15503098D+05 0.12461925D+01  1  2  6  1  5  1       -1 0.614386474963D-01 0.100000000000D+01
-.230535111486D-06 0.000000000000D+00 -.509035225628D-05 0.175499816256D-02 0.000000000000D+00  5 21 1 25 23 1 2 0.55312697D-01 0.14926608D-01 0.15503098D+05 0.15503098D+05 0.15503098D+05 0.12461925D+01  1  2  5  3  5  1       -1 -.446975508455D-03 0.100000000000D+01
  </mgrwgt>
  </event>
  <event>
  4     66 0.43907321E-03 0.92262257E+02 0.75467711E-02 0.12030579E+00
       -1 -1    0    0    0  501 0.00000000E+00 0.00000000E+00 0.64618860E+02 0.64619653E+02 0.32000000E+00 0.0000E+00 0.9000E+01
        1 -1    0    0  501    0 0.00000000E+00 0.00000000E+00 -.25095196E+03 0.25095217E+03 0.32000000E+00 0.0000E+00 0.9000E+01
       25  1    1    2    0    0 -.37676019E+02 0.50130159E+02 -.13191174E+03 0.19224522E+03 0.12500000E+03 0.0000E+00 0.9000E+01
       23  1    1    2    0    0 0.37676019E+02 -.50130159E+02 -.54421360E+02 0.12332660E+03 0.91188000E+02 0.0000E+00 0.9000E+01
#aMCatNLO 1  0  0  2  1 0.41800542D+02 0.00000000D+00  -5  5  0 0.00000000D+00 0.00000000D+00 0.00000000D+00 0.00000000D+00 0.00000000D+00
  <mgrwgt>
 0.1330766932D+00    9    2    0
 0.127343578473252D+03 0.000000000000000D+00 0.000000000000000D+00 0.127343578473252D+03
 0.127343578473252D+03 0.000000000000000D+00 0.000000000000000D+00 -.127343578473252D+03
 0.141694024612032D+03 -.376760193865429D+02 0.501301588007339D+02 -.227965206238434D+02
 0.112993132334471D+03 0.376760193865429D+02 -.501301588007339D+02 0.227965206238434D+02
 0.000000000000000D+00 -.000000000000000D+00 0.000000000000000D+00 -.000000000000000D+00
 0.135272906965935D+03 0.000000000000000D+00 0.000000000000000D+00 0.135272906965935D+03
 0.199212687063042D+03 0.000000000000000D+00 0.000000000000000D+00 -.199212687063042D+03
 0.133499226695230D+03 -.209294145718036D+02 0.352040023484932D+02 -.227965206238434D+02
 0.124595394014483D+03 0.521342269929488D+02 -.630166794501165D+02 0.227965206238434D+02
 0.763909733192635D+02 -.312048124211452D+02 0.278126771016233D+02 -.639397800971071D+02
0.177443523852D-03 0.000000000000D+00 0.000000000000D+00 0.195536243798D-02 0.000000000000D+00  5 -1 1 25 23 21 0 0.99414398D-02 0.38608071D-01 0.15689794D+05 0.15689794D+05 0.15689794D+05 0.12456027D+01  1  2  2  2  5  2        1 0.113668578008D+00 0.100000000000D+01
-.985470805454D-05 0.000000000000D+00 -.681429853546D-06 0.195536243798D-02 0.000000000000D+00  5 -1 1 25 23 21 2 0.99414398D-02 0.38608071D-01 0.15689794D+05 0.15689794D+05 0.15689794D+05 0.12456027D+01  1  2  3  2  5  2        1 -.979451877738D-02 0.100000000000D+01
0.122639088871D-04 0.000000000000D+00 0.000000000000D+00 0.195536243798D-02 0.000000000000D+00  5 -1 1 25 23 21 2 0.99414398D-02 0.38608071D-01 0.15689794D+05 0.15689794D+05 0.15689794D+05 0.12456027D+01  1  2 15  2  5  2        1 0.121890050130D-01 0.100000000000D+01
0.294702415809D-03 0.000000000000D+00 0.000000000000D+00 0.195536243798D-02 0.000000000000D+00  5 -1 1 25 23 21 2 0.99414398D-02 0.61041478D-01 0.21879018D+05 0.21879018D+05 0.21879018D+05 0.12295557D+01  1  2 12  2  5  2        1 0.163023752951D+00 0.100000000000D+01
-.312361135832D-03 0.000000000000D+00 0.000000000000D+00 0.195536243798D-02 0.000000000000D+00  5 -1 1 25 23 21 2 0.99414398D-02 0.38608071D-01 0.15689794D+05 0.15689794D+05 0.15689794D+05 0.12456027D+01  1  2  4  2  5  2        1 -.310453337967D+00 0.100000000000D+01
-.367758884044D-03 0.000000000000D+00 -.750351297298D-04 0.195536243798D-02 0.000000000000D+00  5 -1 1 25 23 21 2 0.99414398D-02 0.62977060D-01 0.15689794D+05 0.15689794D+05 0.15689794D+05 0.12456027D+01  1  2  5  2  5  2        1 -.199193003202D+00 0.100000000000D+01
0.367732959760D-03 0.000000000000D+00 0.668691155222D-04 0.195536243798D-02 0.000000000000D+00  5 -1 1 25 23 21 2 0.99414398D-02 0.38608071D-01 0.15689794D+05 0.15689794D+05 0.15689794D+05 0.12456027D+01  1  2  6  2  5  2        1 0.365486969223D+00 0.100000000000D+01
0.155233111621D-04 0.000000000000D+00 0.000000000000D+00 0.195536243798D-02 0.000000000000D+00  5 -1 21 25 23 -1 2 0.99414398D-02 0.61041478D-01 0.21879018D+05 0.21879018D+05 0.21879018D+05 0.12295557D+01  1  2 12  4  5  2        1 0.323104589090D-01 0.100000000000D+01
-.170828614454D-04 0.000000000000D+00 -.415919206172D-05 0.195536243798D-02 0.000000000000D+00  5 -1 21 25 23 -1 2 0.99414398D-02 0.62977060D-01 0.15689794D+05 0.15689794D+05 0.15689794D+05 0.12456027D+01  1  2  5  4  5  2        1 -.341612109992D-01 0.100000000000D+01
  </mgrwgt>
  </event>
  <event>
  5     66 0.43907321E-03 0.11602700E+03 0.75467711E-02 0.11750172E+00
       -1 -1    0    0    0  502 0.00000000E+00 0.00000000E+00 0.34650561E+02 0.34652038E+02 0.32000000E+00 0.0000E+00 0.9000E+01
        1 -1    0    0  501    0 0.00000000E+00 0.00000000E+00 -.95904388E+03 0.95904394E+03 0.32000000E+00 0.0000E+00 0.9000E+01
       25  1    1    2    0    0 0.16204177E+02 0.16114669E+02 -.31151211E+03 0.33643284E+03 0.12500000E+03 0.0000E+00 0.9000E+01
       23  1    1    2    0    0 -.31482256E+02 0.77386250E+02 -.46867687E+03 0.48471953E+03 0.91188000E+02 0.0000E+00 0.9000E+01
       21  1    1    2  501  502 0.15278079E+02 -.93500919E+02 -.14420434E+03 0.17254360E+03 0.75000000E+00 0.0000E+00 0.9000E+01
#aMCatNLO 2  0  0  1  2 0.94740918D+02 0.00000000D+00  -5  5  0 0.00000000D+00 0.00000000D+00 0.00000000D+00 0.00000000D+00 0.00000000D+00
  <mgrwgt>
 0.2305791379D-01    2    2    0
 0.118975336347660D+03 0.000000000000000D+00 0.000000000000000D+00 0.118975336347660D+03
 0.118975336347660D+03 0.000000000000000D+00 0.000000000000000D+00 -.118975336347660D+03
 0.134335134605847D+03 0.243696357449511D+02 -.338574474428298D+02 0.260906591692383D+02
 0.103615538089473D+03 -.243696357449511D+02 0.338574474428298D+02 -.260906591692383D+02
 0.000000000000000D+00 0.000000000000000D+00 -.000000000000000D+00 0.000000000000000D+00
 0.216650998252902D+03 0.000000000000000D+00 0.000000000000000D+00 0.216650998252902D+03
 0.153388072006168D+03 0.000000000000000D+00 0.000000000000000D+00 -.153388072006168D+03
 0.129722705768477D+03 0.162041765762157D+02 0.161146690160315D+02 0.260906591692383D+02
 0.126395166034016D+03 -.314822555036752D+02 0.773862503632423D+02 -.260906591692383D+02
 0.113921198456577D+03 0.152780789274595D+02 -.935009193792738D+02 0.632629262467339D+02
-.350146652556D-05 0.000000000000D+00 0.000000000000D+00 0.208979811648D-02 0.000000000000D+00  5 -1 1 25 23 21 2 0.54668937D-02 0.11444257D+00 0.29840109D+05 0.29840109D+05 0.29840109D+05 0.12151421D+01  1  2 13  1  5  1       -1 -.201445003639D-02 0.100000000000D+01
0.624111037685D-04 0.000000000000D+00 0.000000000000D+00 0.208979811648D-02 0.221282359834D-05  5 -1 1 25 23 21 2 0.53309339D-02 0.14754424D+00 0.29840109D+05 0.29840109D+05 0.29840109D+05 0.12151421D+01  1  2  1  1  5  1       -1 0.250723638284D-01 0.100000000000D+01
  </mgrwgt>
  </event>
  <event>
  5     66 0.43907321E-03 0.15039447E+03 0.75467711E-02 0.11890951E+00
       -1 -1    0    0    0  501 0.00000000E+00 0.00000000E+00 0.21715815E+03 0.21715839E+03 0.32000000E+00 0.0000E+00 0.9000E+01
        1 -1    0    0  502    0 0.00000000E+00 0.00000000E+00 -.20141183E+03 0.20141208E+03 0.32000000E+00 0.0000E+00 0.9000E+01
       25  1    1    2    0    0 0.72555389E+02 0.80943966E+02 0.13320157E+03 0.21256497E+03 0.12500000E+03 0.0000E+00 0.9000E+01
       23  1    1    2    0    0 -.77509164E+02 -.63446372E+02 -.12680165E+03 0.18554520E+03 0.91188000E+02 0.0000E+00 0.9000E+01
       21  1    1    2  502  501 0.49537746E+01 -.17497595E+02 0.93464098E+01 0.20460293E+02 0.75000000E+00 0.0000E+00 0.9000E+01
#aMCatNLO 2  0  0  2  2 0.18185316D+02 0.00000000D+00  -5  5  0 0.00000000D+00 0.00000000D+00 0.00000000D+00 0.00000000D+00 0.00000000D+00
  <mgrwgt>
 0.9533914639D-01    2    2    0
 0.198821558251200D+03 0.000000000000000D+00 0.000000000000000D+00 0.198821558251200D+03
 0.198821558251200D+03 0.000000000000000D+00 0.000000000000000D+00 -.198821558251200D+03
 0.208012901383573D+03 0.751606052964370D+02 0.717418899946419D+02 0.129801200970877D+03
 0.189630215118826D+03 -.751606052964370D+02 -.717418899946419D+02 -.129801200970877D+03
 0.000000000000000D+00 0.000000000000000D+00 -.000000000000000D+00 0.000000000000000D+00
 0.213687886728530D+03 0.000000000000000D+00 0.000000000000000D+00 0.213687886728530D+03
 0.204669527433280D+03 0.000000000000000D+00 0.000000000000000D+00 -.204669527433280D+03
 0.210450854137421D+03 0.725553893632723D+02 0.809439664708365D+02 0.129801200970877D+03
 0.187607877472268D+03 -.775091639862842D+02 -.634463716087423D+02 -.129801200970877D+03
 0.202986825521212D+02 0.495377462301191D+01 -.174975948620942D+02 0.901835929524929D+01
-.831243189067D-06 0.000000000000D+00 0.000000000000D+00 0.905957952550D-03 0.000000000000D+00  5 -1 1 25 23 21 2 0.31083673D-01 0.30100098D-01 0.22618495D+05 0.22618495D+05 0.22618495D+05 0.12279865D+01  1  2  8  2  5  2        1 -.179192953131D-03 0.100000000000D+01
0.523366052342D-03 0.000000000000D+00 0.000000000000D+00 0.905957952550D-03 0.219418425143D-04  5 -1 1 25 23 21 2 0.33407868D-01 0.30985437D-01 0.25487378D+05 0.25487378D+05 0.25487378D+05 0.12223997D+01  1  2  1  2  5  2        1 0.955183393429D-01 0.100000000000D+01
  </mgrwgt>
  </event>
  <event>
  4     66 0.43907321E-03 0.13619078E+03 0.75467711E-02 0.11026629E+00
       -1 -1    0    0    0  501 0.00000000E+00 0.00000000E+00 0.14309009E+02 0.14312586E+02 0.32000000E+00 0.0000E+00 0.9000E+01
        1 -1    0    0  501    0 0.00000000E+00 0.00000000E+00 -.13520852E+04 0.13520852E+04 0.32000000E+00 0.0000E+00 0.9000E+01
       25  1    1    2    0    0 -.73856167E+02 0.36098722E+02 -.59365746E+03 0.61221894E+03 0.12500000E+03 0.0000E+00 0.9000E+01
       23  1    1    2    0    0 0.73856167E+02 -.36098722E+02 -.74411874E+03 0.75417889E+03 0.91188000E+02 0.0000E+00 0.9000E+01
#aMCatNLO 1  0  0  1  1 0.19847896D+03 0.00000000D+00  -5  5  0 0.00000000D+00 0.00000000D+00 0.00000000D+00 0.00000000D+00 0.00000000D+00
  <mgrwgt>
 0.1074117059D+00    5    2    0
 0.139102369060593D+03 0.000000000000000D+00 0.000000000000000D+00 0.139102369060593D+03
 0.139102369060593D+03 0.000000000000000D+00 0.000000000000000D+00 -.139102369060593D+03
 0.152239723775264D+03 -.738561674165799D+02 0.360987224783857D+02 0.281794653095336D+02
 0.125965014345923D+03 0.738561674165799D+02 -.360987224783857D+02 -.281794653095336D+02
 0.000000000000000D+00 0.000000000000000D+00 -.000000000000000D+00 0.000000000000000D+00
 0.717751573863980D+03 0.000000000000000D+00 0.000000000000000D+00 0.717751573863980D+03
 0.188882611412121D+03 0.000000000000000D+00 0.000000000000000D+00 -.188882611412121D+03
 0.215382361438474D+03 -.797733007411159D+02 0.153644719540079D+03 0.281794653095336D+02
 0.126365750889057D+03 0.697947281292489D+02 0.445832402813899D+02 -.281794653095336D+02
 0.564886072948571D+03 0.997857261186698D+01 -.198227959821469D+03 0.528868962451859D+03
0.282912649989D-03 0.000000000000D+00 0.000000000000D+00 0.177823582689D-02 0.000000000000D+00  5 -1 1 25 23 21 0 0.22016641D-02 0.20801339D+00 0.18547928D+05 0.18547928D+05 0.18547928D+05 0.12374462D+01  1  2  2  1  5  1       -1 0.148598847019D+00 0.100000000000D+01
-.157088183188D-04 0.000000000000D+00 -.108645906857D-05 0.177823582689D-02 0.000000000000D+00  5 -1 1 25 23 21 2 0.22016641D-02 0.20801339D+00 0.18547928D+05 0.18547928D+05 0.18547928D+05 0.12374462D+01  1  2  3  1  5  1       -1 -.126345343345D-01 0.100000000000D+01
0.195591409194D-04 0.000000000000D+00 0.000000000000D+00 0.177823582689D-02 0.000000000000D+00  5 -1 1 25 23 21 2 0.22016641D-02 0.20801339D+00 0.18547928D+05 0.18547928D+05 0.18547928D+05 0.12374462D+01  1  2 15  1  5  1       -1 0.157313320763D-01 0.100000000000D+01
-.199356355939D-03 0.000000000000D+00 -.145771366520D-03 0.177823582689D-02 0.000000000000D+00  5 -1 1 25 23 21 2 0.15754470D-01 0.20801339D+00 0.18547928D+05 0.18547928D+05 0.18547928D+05 0.12374462D+01  1  2  5  1  5  1       -1 -.845537166518D-02 0.100000000000D+01
-.622524809090D-04 0.000000000000D+00 -.350342169669D-04 0.177823582689D-02 0.000000000000D+00  5 21 1 25 23 1 2 0.15754470D-01 0.20801339D+00 0.18547928D+05 0.18547928D+05 0.18547928D+05 0.12374462D+01  1  2  5  3  5  1       -1 -.358285672412D-01 0.100000000000D+01
  </mgrwgt>
  </event>
  <event>
  4     66 0.43907321E-03 0.70898207E+02 0.75467711E-02 0.12440384E+00
       -1 -1    0    0    0  501 0.00000000E+00 0.00000000E+00 0.83077473E+01 0.83139079E+01 0.32000000E+00 0.0000E+00 0.9000E+01
        1 -1    0    0  501    0 0.00000000E+00 0.00000000E+00 -.16275329E+04 0.16275329E+04 0.32000000E+00 0.0000E+00 0.9000E+01
       25  1    1    2    0    0 -.62035800E+01 -.26192219E+02 -.68804075E+03 0.69982111E+03 0.12500000E+03 0.0000E+00 0.9000E+01
       23  1    1    2    0    0 0.62035800E+01 0.26192219E+02 -.93118440E+03 0.93602572E+03 0.91188000E+02 0.0000E+00 0.9000E+01
#aMCatNLO 1  0  0  1  2 0.15349812D+02 0.00000000D+00  -5  5  0 0.00000000D+00 0.00000000D+00 0.00000000D+00 0.00000000D+00 0.00000000D+00
  <mgrwgt>
 0.2780773448D+00    6    2    0
 0.116302177941056D+03 0.000000000000000D+00 0.000000000000000D+00 0.116302177941056D+03
 0.116302177941056D+03 0.000000000000000D+00 0.000000000000000D+00 -.116302177941056D+03
 0.132015014934755D+03 -.620358000112606D+01 -.261922193464972D+02 0.328397230362583D+02
 0.100589340947357D+03 0.620358000112606D+01 0.261922193464972D+02 -.328397230362583D+02
 0.000000000000000D+00 -.000000000000000D+00 -.000000000000000D+00 -.000000000000000D+00
 0.123144513397195D+03 0.000000000000000D+00 0.000000000000000D+00 0.123144513397195D+03
 0.125494410517219D+03 0.000000000000000D+00 0.000000000000000D+00 -.125494410517219D+03
 0.130552931410087D+03 -.277536726187426D+01 -.182460359319637D+02 0.328397230362583D+02
 0.102557349593375D+03 0.885596039311011D+01 0.323401170071357D+02 -.328397230362583D+02
 0.155286429109518D+02 -.608059313123586D+01 -.140940810751720D+02 -.234989712002474D+01
0.205128677962D-03 0.000000000000D+00 0.000000000000D+00 0.209952420338D-02 0.000000000000D+00  5 -1 1 25 23 21 0 0.12785913D-02 0.25039015D+00 0.12425887D+05 0.12425887D+05 0.12425887D+05 0.12572529D+01  1  2  2  1  5  1       -1 0.154601210372D+00 0.100000000000D+01
-.113711008083D-04 0.000000000000D+00 -.787748134995D-06 0.209952420338D-02 0.000000000000D+00  5 -1 1 25 23 21 2 0.12785913D-02 0.25039015D+00 0.12425887D+05 0.12425887D+05 0.12425887D+05 0.12572529D+01  1  2  3  1  5  1       -1 -.135467240410D-01 0.100000000000D+01
0.141081330917D-04 0.000000000000D+00 0.000000000000D+00 0.209952420338D-02 0.000000000000D+00  5 -1 1 25 23 21 2 0.12785913D-02 0.25039015D+00 0.12425887D+05 0.12425887D+05 0.12425887D+05 0.12572529D+01  1  2 15  1  5  1       -1 0.168074304282D-01 0.100000000000D+01
0.214821505930D-03 0.000000000000D+00 0.000000000000D+00 0.209952420338D-02 0.000000000000D+00  5 -1 1 25 23 21 2 0.14010414D-02 0.25039015D+00 0.14263807D+05 0.14263807D+05 0.14263807D+05 0.12503218D+01  1  2 12  1  5  1       -1 0.222791020540D+00 0.100000000000D+01
-.148302535174D-03 0.000000000000D+00 0.000000000000D+00 0.209952420338D-02 0.000000000000D+00  5 -1 1 25 23 21 2 0.12785913D-02 0.25039015D+00 0.12425887D+05 0.12425887D+05 0.12425887D+05 0.12572529D+01  1  2  4  1  5  1       -1 -.176677135526D+00 0.100000000000D+01
0.322863882504D-05 0.000000000000D+00 0.000000000000D+00 0.209952420338D-02 0.000000000000D+00  5 21 1 25 23 1 2 0.14010414D-02 0.25039015D+00 0.14263807D+05 0.14263807D+05 0.14263807D+05 0.12503218D+01  1  2 12  3  5  1       -1 0.741015430592D-01 0.100000000000D+01
  </mgrwgt>
  </event>
  <event>
  4     66 0.43907321E-03 0.10307367E+03 0.75467711E-02 0.11883118E+00
       -3 -1    0    0    0  501 0.00000000E+00 0.00000000E+00 0.36061586E+02 0.36065052E+02 0.50000000E+00 0.0000E+00 0.9000E+01
        3 -1    0    0  501    0 0.00000000E+00 0.00000000E+00 -.59988266E+03 0.59988287E+03 0.50000000E+00 0.0000E+00 0.9000E+01
       25  1    1    2    0    0 0.69700811E+02 0.56736416E+02 -.39592489E+03 0.42480435E+03 0.12500000E+03 0.0000E+00 0.9000E+01
       23  1    1    2    0    0 -.69700811E+02 -.56736416E+02 -.16789619E+03 0.21114357E+03 0.91188000E+02 0.0000E+00 0.9000E+01
#aMCatNLO 1  0  0  2  1 0.36583079D+02 0.00000000D+00  -5  5  0 0.00000000D+00 0.00000000D+00 0.00000000D+00 0.00000000D+00 0.00000000D+00
  <mgrwgt>
 0.1798778175D-01    9    2    0
 0.147084629650348D+03 0.000000000000000D+00 0.000000000000000D+00 0.147084629650348D+03
 0.147084629650348D+03 0.000000000000000D+00 0.000000000000000D+00 -.147084629650348D+03
 0.159509022113002D+03 0.697008113676494D+02 0.567364159203960D+02 -.417241433542424D+02
 0.134660237187695D+03 -.697008113676494D+02 -.567364159203960D+02 0.417241433542424D+02
 0.000000000000000D+00 -.000000000000000D+00 -.000000000000000D+00 -.000000000000000D+00
 0.163233445277779D+03 0.000000000000000D+00 0.000000000000000D+00 0.163233445277779D+03
 0.170499521729760D+03 0.000000000000000D+00 0.000000000000000D+00 -.170499521729760D+03
 0.171814212884586D+03 0.837431097116349D+02 0.717029370830070D+02 -.417241433542424D+02
 0.124621066333274D+03 -.587118283007497D+02 -.450241702753110D+02 0.417241433542424D+02
 0.372976877896792D+02 -.250312814108852D+02 -.266787668076960D+02 -.726607645198107D+01
0.226016096444D-03 0.000000000000D+00 0.000000000000D+00 0.163827837073D-02 0.000000000000D+00  5 -3 3 25 23 21 0 0.55482189D-02 0.92289923D-01 0.19879360D+05 0.19879360D+05 0.19879360D+05 0.12341154D+01  1  2  2  2  5  2        3 0.110725270577D-01 0.100000000000D+01
-.125291466218D-04 0.000000000000D+00 -.867961321749D-06 0.163827837073D-02 0.000000000000D+00  5 -3 3 25 23 21 2 0.55482189D-02 0.92289923D-01 0.19879360D+05 0.19879360D+05 0.19879360D+05 0.12341154D+01  1  2  3  2  5  2        3 -.934846773519D-03 0.100000000000D+01
0.156309886518D-04 0.000000000000D+00 0.000000000000D+00 0.163827837073D-02 0.000000000000D+00  5 -3 3 25 23 21 2 0.55482189D-02 0.92289923D-01 0.19879360D+05 0.19879360D+05 0.19879360D+05 0.12341154D+01  1  2 15  2  5  2        3 0.116628687884D-02 0.100000000000D+01
0.211945288297D-03 0.000000000000D+00 0.000000000000D+00 0.163827837073D-02 0.000000000000D+00  5 -3 3 25 23 21 2 0.55482189D-02 0.11136968D+00 0.25709364D+05 0.25709364D+05 0.25709364D+05 0.12219970D+01  1  2 12  2  5  2        3 0.102777797208D-01 0.100000000000D+01
-.197215458234D-03 0.000000000000D+00 0.000000000000D+00 0.163827837073D-02 0.000000000000D+00  5 -3 3 25 23 21 2 0.55482189D-02 0.92289923D-01 0.19879360D+05 0.19879360D+05 0.19879360D+05 0.12341154D+01  1  2  4  2  5  2        3 -.147149874116D-01 0.100000000000D+01
-.523221027181D-03 0.000000000000D+00 -.156107040398D-03 0.163827837073D-02 0.000000000000D+00  5 -3 3 25 23 21 2 0.55482189D-02 0.11602658D+00 0.19879360D+05 0.19879360D+05 0.19879360D+05 0.12341154D+01  1  2  5  2  5  2        3 -.231437374645D-01 0.100000000000D+01
0.548522319920D-03 0.000000000000D+00 0.152105364491D-03 0.163827837073D-02 0.000000000000D+00  5 -3 3 25 23 21 2 0.55482189D-02 0.92289923D-01 0.19879360D+05 0.19879360D+05 0.19879360D+05 0.12341154D+01  1  2  6  2  5  2        3 0.409273142425D-01 0.100000000000D+01
0.578057190136D-05 0.000000000000D+00 0.000000000000D+00 0.163827837073D-02 0.000000000000D+00  5 -3 21 25 23 -3 2 0.55482189D-02 0.11136968D+00 0.25709364D+05 0.25709364D+05 0.25709364D+05 0.12219970D+01  1  2 12  4  5  2        3 0.518937257737D-02 0.100000000000D+01
-.143234387058D-04 0.000000000000D+00 -.494792411338D-05 0.163827837073D-02 0.000000000000D+00  5 -3 21 25 23 -3 2 0.55482189D-02 0.11602658D+00 0.19879360D+05 0.19879360D+05 0.19879360D+05 0.12341154D+01  1  2  5  4  5  2        3 -.118519270818D-01 0.100000000000D+01
  </mgrwgt>
  </event>
  <event>
  5     66 0.43907321E-03 0.11269800E+03 0.75467711E-02 0.11570400E+00
       -1 -1    0    0    0  501 0.00000000E+00 0.00000000E+00 0.88528124E+03 0.88528129E+03 0.32000000E+00 0.0000E+00 0.9000E+01
       21 -1    0    0  501  502 0.00000000E+00 0.00000000E+00 -.42034527E+02 0.42041217E+02 0.75000000E+00 0.0000E+00 0.9000E+01
       25  1    1    2    0    0 -.10143205E+03 -.23407224E+02 0.37213844E+03 0.40613837E+03 0.12500000E+03 0.0000E+00 0.9000E+01
       23  1    1    2    0    0 -.15194339E+02 -.22531600E+02 0.16610627E+03 0.19142906E+03 0.91188000E+02 0.0000E+00 0.9000E+01
       -1  1    1    2    0  502 0.11662639E+03 0.45938824E+02 0.30500200E+03 0.32975508E+03 0.32000000E+00 0.0000E+00 0.9000E+01
#aMCatNLO 2  0  0  2  1 0.12534788D+03 0.00000000D+00  -5  5  0 0.00000000D+00 0.00000000D+00 0.00000000D+00 0.00000000D+00 0.00000000D+00
  <mgrwgt>
 0.2393830464D-01    1    2    0
 0.113652297051679D+03 0.000000000000000D+00 0.000000000000000D+00 0.113652297051679D+03
 0.113652297051679D+03 0.000000000000000D+00 0.000000000000000D+00 -.113652297051679D+03
 0.129731489566099D+03 -.312353601708958D+02 0.424306516574546D+01 0.145467542095346D+02
 0.975731045372595D+02 0.312353601708958D+02 -.424306516574546D+01 -.145467542095346D+02
 0.000000000000000D+00 0.000000000000000D+00 0.000000000000000D+00 0.000000000000000D+00
 0.202320430165010D+03 0.000000000000000D+00 0.000000000000000D+00 0.202320430165010D+03
 0.183943006642041D+03 0.000000000000000D+00 0.000000000000000D+00 -.183943006642041D+03
 0.163318604534069D+03 -.101432048218333D+03 -.234072237387692D+02 0.145467542095346D+02
 0.962569497518449D+02 -.151943394916448D+02 -.225316004959527D+02 -.145467542095346D+02
 0.126687882521137D+03 0.116626387709978D+03 0.459388242347220D+02 0.183774235229688D+02
0.207325927546D-04 0.000000000000D+00 0.000000000000D+00 0.227140855456D-02 0.163800159632D-06  5 -1 21 25 23 -1 2 0.13619749D+00 0.64673625D-02 0.36704577D+05 0.36704577D+05 0.36704577D+05 0.12058107D+01  1  2  1  4  5  2        1 0.239383046377D-01 0.100000000000D+01
  </mgrwgt>
  </event>
  <event>
  4     66 0.43907321E-03 0.88784828E+02 0.75467711E-02 0.11953856E+00
       -1 -1    0    0    0  501 0.00000000E+00 0.00000000E+00 0.22153606E+02 0.22155917E+02 0.32000000E+00 0.0000E+00 0.9000E+01
        1 -1    0    0  501    0 0.00000000E+00 0.00000000E+00 -.16231359E+04 0.16231360E+04 0.32000000E+00 0.0000E+00 0.9000E+01
       25  1    1    2    0    0 0.81199350E+01 0.10489585E+03 -.34628428E+03 0.38289278E+03 0.12500000E+03 0.0000E+00 0.9000E+01
       23  1    1    2    0    0 -.81199350E+01 -.10489585E+03 -.12546980E+04 0.12623991E+04 0.91188000E+02 0.0000E+00 0.9000E+01
#aMCatNLO 1  0  0  2  1 0.57283177D+01 0.00000000D+00  -5  5  0 0.00000000D+00 0.00000000D+00 0.00000000D+00 0.00000000D+00 0.00000000D+00
  <mgrwgt>
 0.3166226173D+00   11    2    0
 0.189631857024912D+03 0.000000000000000D+00 0.000000000000000D+00 0.189631857024912D+03
 0.189631857024912D+03 0.000000000000000D+00 0.000000000000000D+00 -.189631857024912D+03
 0.199268619500744D+03 0.811993496216269D+01 0.104895848508290D+03 0.114078527075293D+03
 0.179995094549080D+03 -.811993496216269D+01 -.104895848508290D+03 -.114078527075293D+03
 0.000000000000000D+00 0.000000000000000D+00 0.000000000000000D+00 -.000000000000000D+00
 0.191855903597410D+03 0.000000000000000D+00 0.000000000000000D+00 0.191855903597410D+03
 0.193378212699619D+03 0.000000000000000D+00 0.000000000000000D+00 -.193378212699619D+03
 0.198737785854787D+03 0.523026248400157D+01 0.104069407325800D+03 0.114078527075293D+03
 0.180569185368507D+03 -.107377638771399D+02 -.105644542915840D+03 -.114078527075293D+03
 0.592714507373488D+01 0.550750139313829D+01 0.157513559003997D+01 -.152230910220921D+01
0.432451216899D-03 0.000000000000D+00 0.000000000000D+00 0.101698358951D-02 0.000000000000D+00  5 -1 1 25 23 21 0 0.34084273D-02 0.24971340D+00 0.22893325D+05 0.22893325D+05 0.22893325D+05 0.12274178D+01  1  2  2  2  5  2        1 0.802408322379D-01 0.100000000000D+01
-.225359345691D-04 0.000000000000D+00 -.166072653991D-05 0.101698358951D-02 0.000000000000D+00  5 -1 1 25 23 21 2 0.34084273D-02 0.24971340D+00 0.22893325D+05 0.22893325D+05 0.22893325D+05 0.12274178D+01  1  2  3  2  5  2        1 -.629968365196D-02 0.100000000000D+01
0.297703125350D-04 0.000000000000D+00 0.000000000000D+00 0.101698358951D-02 0.000000000000D+00  5 -1 1 25 23 21 2 0.34084273D-02 0.24971340D+00 0.22893325D+05 0.22893325D+05 0.22893325D+05 0.12274178D+01  1  2 15  2  5  2        1 0.832197797769D-02 0.100000000000D+01
0.359365870535D-03 0.000000000000D+00 0.000000000000D+00 0.101698358951D-02 0.000000000000D+00  5 -1 1 25 23 21 2 0.34084273D-02 0.25608795D+00 0.23782679D+05 0.23782679D+05 0.23782679D+05 0.12256288D+01  1  2 12  2  5  2        1 0.942032226695D-01 0.100000000000D+01
-.119248680734D-02 0.000000000000D+00 0.000000000000D+00 0.101698358951D-02 0.000000000000D+00  5 -1 1 25 23 21 2 0.34084273D-02 0.24971340D+00 0.22893325D+05 0.22893325D+05 0.22893325D+05 0.12274178D+01  1  2  4  2  5  2        1 -.333347153735D+00 0.100000000000D+01
-.144951638030D-01 0.000000000000D+00 -.193098107500D-02 0.101698358951D-02 0.000000000000D+00  5 -1 1 25 23 21 2 0.34084273D-02 0.25624634D+00 0.22893325D+05 0.22893325D+05 0.22893325D+05 0.12274178D+01  1  2  5  2  5  2        1 -.380516496256D+01 0.100000000000D+01
0.145408266351D-01 0.000000000000D+00 0.193033731879D-02 0.101698358951D-02 0.000000000000D+00  5 -1 1 25 23 21 2 0.34084273D-02 0.24971340D+00 0.22893325D+05 0.22893325D+05 0.22893325D+05 0.12274178D+01  1  2  6  2  5  2        1 0.406473525907D+01 0.100000000000D+01
0.871183980841D-03 0.000000000000D+00 0.000000000000D+00 0.101698358951D-02 0.248397017389D-03  5 -1 1 25 23 21 2 0.34484021D-02 0.25464672D+00 0.23782679D+05 0.23782679D+05 0.23782679D+05 0.12256288D+01  1  2 11  2  5  2        1 0.227631840702D+00 0.100000000000D+01
0.994060667043D-05 0.000000000000D+00 0.000000000000D+00 0.101698358951D-02 0.000000000000D+00  5 -1 21 25 23 -1 2 0.34084273D-02 0.25608795D+00 0.23782679D+05 0.23782679D+05 0.23782679D+05 0.12256288D+01  1  2 12  4  5  2        1 0.257942541980D-02 0.100000000000D+01
-.670804306670D-04 0.000000000000D+00 -.899843512098D-05 0.101698358951D-02 0.000000000000D+00  5 -1 21 25 23 -1 2 0.34084273D-02 0.25624634D+00 0.22893325D+05 0.22893325D+05 0.22893325D+05 0.12274178D+01  1  2  5  4  5  2        1 -.174594740028D-01 0.100000000000D+01
0.454323477320D-05 0.000000000000D+00 0.000000000000D+00 0.101698358951D-02 0.887192234892D-06  5 -1 21 25 23 -1 2 0.34484021D-02 0.25464672D+00 0.23782679D+05 0.23782679D+05 0.23782679D+05 0.12256288D+01  1  2 11  4  5  2        1 0.118133320818D-02 0.100000000000D+01
  </mgrwgt>
  </event>
  <event>
  4     66 0.43907321E-03 0.13353081E+03 0.75467711E-02 0.88016434E-01
       -3 -1    0    0    0  501 0.00000000E+00 0.00000000E+00 0.44919839E+02 0.44922622E+02 0.50000000E+00 0.0000E+00 0.9000E+01
        3 -1    0    0  501    0 0.00000000E+00 0.00000000E+00 -.43676457E+03 0.43676485E+03 0.50000000E+00 0.0000E+00 0.9000E+01
       25  1    1    2    0    0 -.56726554E+02 -.53195330E+02 -.28656204E+03 0.32216525E+03 0.12500000E+03 0.0000E+00 0.9000E+01
       23  1    1    2    0    0 0.56726554E+02 0.53195330E+02 -.10528269E+03 0.15952223E+03 0.91188000E+02 0.0000E+00 0.9000E+01
#aMCatNLO 1  0  0  1  2 0.16204766D+04 0.00000000D+00  -5  5  0 0.00000000D+00 0.00000000D+00 0.00000000D+00 0.00000000D+00 0.00000000D+00
  <mgrwgt>
 0.1926555248D-01    5    2    0
 0.140071885975505D+03 0.000000000000000D+00 0.000000000000000D+00 0.140071885975505D+03
 0.140071885975505D+03 0.000000000000000D+00 0.000000000000000D+00 -.140071885975505D+03
 0.153118309612005D+03 -.567265536727067D+02 -.531953302441276D+02 -.421019202302417D+02
 0.127025462339005D+03 0.567265536727067D+02 0.531953302441276D+02 0.421019202302417D+02
 0.000000000000000D+00 -.000000000000000D+00 -.000000000000000D+00 0.000000000000000D+00
 0.171665121341700D+04 0.000000000000000D+00 0.000000000000000D+00 0.171665121341700D+04
 0.155625738842455D+04 0.000000000000000D+00 0.000000000000000D+00 -.155625738842455D+04
 0.450794279506168D+03 0.281714189417381D+03 0.326274464568283D+03 -.421019202302417D+02
 0.119371926783499D+04 0.796889676559576D+03 0.883088167037807D+03 0.421019202302417D+02
 0.162839505450040D+04 -.107860386597696D+04 -.120936263160609D+04 0.160393824992442D+03
0.277633333971D-03 0.000000000000D+00 0.000000000000D+00 0.169481942819D-02 0.000000000000D+00  5 -3 3 25 23 21 0 0.69109805D-02 0.67194785D-01 0.17830478D+05 0.17830478D+05 0.17830478D+05 0.12393540D+01  1  2  2  1  5  1       -3 0.188598299685D-01 0.100000000000D+01
-.153811833647D-04 0.000000000000D+00 -.106618510499D-05 0.169481942819D-02 0.000000000000D+00  5 -3 3 25 23 21 2 0.69109805D-02 0.67194785D-01 0.17830478D+05 0.17830478D+05 0.17830478D+05 0.12393540D+01  1  2  3  1  5  1       -3 -.160489522557D-02 0.100000000000D+01
0.192003508671D-04 0.000000000000D+00 0.000000000000D+00 0.169481942819D-02 0.000000000000D+00  5 -3 3 25 23 21 2 0.69109805D-02 0.67194785D-01 0.17830478D+05 0.17830478D+05 0.17830478D+05 0.12393540D+01  1  2 15  1  5  1       -3 0.200339276279D-02 0.100000000000D+01
0.882845242986D-02 0.000000000000D+00 -.167031394594D-02 0.169481942819D-02 0.000000000000D+00  5 -3 3 25 23 21 2 0.68053489D+00 0.67194785D-01 0.17830478D+05 0.17830478D+05 0.17830478D+05 0.12393540D+01  1  2  5  1  5  1       -3 0.355129370700D-05 0.100000000000D+01
0.262815646649D-02 0.000000000000D+00 -.607479451010D-03 0.169481942819D-02 0.000000000000D+00  5 21 3 25 23 3 2 0.68053489D+00 0.67194785D-01 0.17830478D+05 0.17830478D+05 0.17830478D+05 0.12393540D+01  1  2  5  3  5  1       -3 0.367368276036D-05 0.100000000000D+01
  </mgrwgt>
  </event>
  <event>
  4     66 0.43907321E-03 0.13273990E+03 0.75467711E-02 0.11782236E+00
       -1 -1    0    0    0  501 0.00000000E+00 0.00000000E+00 0.57463695E+01 0.57552726E+01 0.32000000E+00 0.0000E+00 0.9000E+01
        1 -1    0    0  501    0 0.00000000E+00 0.00000000E+00 -.32599595E+04 0.32599595E+04 0.32000000E+00 0.0000E+00 0.9000E+01
       25  1    1    2    0    0 0.72903727E+02 0.22898322E+02 -.13872824E+04 0.13949970E+04 0.12500000E+03 0.0000E+00 0.9000E+01
       23  1    1    2    0    0 -.72903727E+02 -.22898322E+02 -.18669308E+04 0.18707178E+04 0.91188000E+02 0.0000E+00 0.9000E+01
#aMCatNLO 1  0  0  2  2 0.65706972D+02 0.00000000D+00  -5  5  0 0.00000000D+00 0.00000000D+00 0.00000000D+00 0.00000000D+00 0.00000000D+00
  <mgrwgt>
 0.1462806960D+00    4    2    0
 0.136921492777603D+03 0.000000000000000D+00 0.000000000000000D+00 0.136921492777603D+03
 0.136921492777603D+03 0.000000000000000D+00 0.000000000000000D+00 -.136921492777603D+03
 0.150268098390268D+03 0.729037273843488D+02 0.228983219799623D+02 0.334098006249337D+02
 0.123574887164939D+03 -.729037273843488D+02 -.228983219799623D+02 -.334098006249337D+02
 0.000000000000000D+00 0.000000000000000D+00 0.000000000000000D+00 0.000000000000000D+00
 0.220320756818517D+03 0.000000000000000D+00 0.000000000000000D+00 0.220320756818517D+03
 0.154382378674881D+03 0.000000000000000D+00 0.000000000000000D+00 -.154382378674881D+03
 0.140091245187965D+03 0.534340988926139D+02 -.539808077477385D+01 0.334098006249337D+02
 0.141524427037813D+03 -.906795809089337D+02 -.487330579049120D+02 -.334098006249337D+02
 0.930874632676200D+02 0.372454820163198D+02 0.541311386796858D+02 0.659383781436359D+02
0.157316854300D-02 0.000000000000D+00 0.000000000000D+00 0.177696021414D-02 0.000000000000D+00  5 -1 1 25 23 21 0 0.88474291D-03 0.50153292D+00 0.17619881D+05 0.17619881D+05 0.17619881D+05 0.12399304D+01  1  2  2  2  5  2        1 0.170437234533D+00 0.100000000000D+01
-.872960266651D-04 0.000000000000D+00 -.604138142993D-05 0.177696021414D-02 0.000000000000D+00  5 -1 1 25 23 21 2 0.88474291D-03 0.50153292D+00 0.17619881D+05 0.17619881D+05 0.17619881D+05 0.12399304D+01  1  2  3  2  5  2        1 -.145404665145D-01 0.100000000000D+01
0.108958800120D-03 0.000000000000D+00 0.000000000000D+00 0.177696021414D-02 0.000000000000D+00  5 -1 1 25 23 21 2 0.88474291D-03 0.50153292D+00 0.17619881D+05 0.17619881D+05 0.17619881D+05 0.12399304D+01  1  2 15  2  5  2        1 0.181487273262D-01 0.100000000000D+01
-.166690433077D-03 0.000000000000D+00 0.000000000000D+00 0.177696021414D-02 0.000000000000D+00  5 -1 1 25 23 21 2 0.88474291D-03 0.50153292D+00 0.17619881D+05 0.17619881D+05 0.17619881D+05 0.12399304D+01  1  2  4  2  5  2        1 -.277647993045D-01 0.100000000000D+01
  </mgrwgt>
  </event>
  <event>
  4     66 0.43907321E-03 0.11857533E+03 0.75467711E-02 0.11435865E+00
       -1 -1    0    0    0  501 0.00000000E+00 0.00000000E+00 0.26594281E+03 0.26594300E+03 0.32000000E+00 0.0000E+00 0.9000E+01
        1 -1    0    0  501    0 0.00000000E+00 0.00000000E+00 -.15574760E+03 0.15574793E+03 0.32000000E+00 0.0000E+00 0.9000E+01
       25  1    1    2    0    0 -.14219698E+03 -.70850584E+02 -.10333560E+02 0.20241435E+03 0.12500000E+03 0.0000E+00 0.9000E+01
       23  1    1    2    0    0 0.14219698E+03 0.70850584E+02 0.12052877E+03 0.21927659E+03 0.91188000E+02 0.0000E+00 0.9000E+01
#aMCatNLO 1  0  0  1  2 0.28525469D+02 0.00000000D+00  -5  5  0 0.00000000D+00 0.00000000D+00 0.00000000D+00 0.00000000D+00 0.00000000D+00
  <mgrwgt>
 0.1774972485D+00    9    2    0
 0.203519200534939D+03 0.000000000000000D+00 0.000000000000000D+00 0.203519200534939D+03
 0.203519200534939D+03 0.000000000000000D+00 0.000000000000000D+00 -.203519200534939D+03
 0.212498388538806D+03 -.142196977487568D+03 -.708505840296593D+02 -.655040416130617D+02
 0.194540012531072D+03 0.142196977487568D+03 0.708505840296593D+02 0.655040416130617D+02
 0.000000000000000D+00 -.000000000000000D+00 0.000000000000000D+00 0.000000000000000D+00
 0.225305958649419D+03 0.000000000000000D+00 0.000000000000000D+00 0.225305958649419D+03
 0.213574418673370D+03 0.000000000000000D+00 0.000000000000000D+00 -.213574418673370D+03
 0.210111845558685D+03 -.132372678326427D+03 -.819065455816507D+02 -.655040416130617D+02
 0.197924871301508D+03 0.151320496318691D+03 0.605832589247050D+02 0.655040416130617D+02
 0.308436604625956D+02 -.189478179922640D+02 0.213232866569457D+02 0.117315399760491D+02
0.971547628529D-03 0.000000000000D+00 0.000000000000D+00 0.131329514130D-02 0.000000000000D+00  5 -1 1 25 23 21 0 0.40914319D-01 0.23961210D-01 0.37119946D+05 0.37119946D+05 0.37119946D+05 0.12053098D+01  1  2  2  1  5  1       -1 0.115675556592D+00 0.100000000000D+01
-.537777525315D-04 0.000000000000D+00 -.373099870792D-05 0.131329514130D-02 0.000000000000D+00  5 -1 1 25 23 21 2 0.40914319D-01 0.23961210D-01 0.37119946D+05 0.37119946D+05 0.37119946D+05 0.12053098D+01  1  2  3  1  5  1       -1 -.930202598416D-02 0.100000000000D+01
0.670597271585D-04 0.000000000000D+00 0.000000000000D+00 0.131329514130D-02 0.000000000000D+00  5 -1 1 25 23 21 2 0.40914319D-01 0.23961210D-01 0.37119946D+05 0.37119946D+05 0.37119946D+05 0.12053098D+01  1  2 15  1  5  1       -1 0.115994309014D-01 0.100000000000D+01
0.153344385765D-02 0.000000000000D+00 0.000000000000D+00 0.131329514130D-02 0.000000000000D+00  5 -1 1 25 23 21 2 0.46222845D-01 0.23961210D-01 0.43043147D+05 0.43043147D+05 0.43043147D+05 0.11987799D+01  1  2 12  1  5  1       -1 0.211012004551D+00 0.100000000000D+01
-.146425817000D-02 0.000000000000D+00 0.000000000000D+00 0.131329514130D-02 0.000000000000D+00  5 -1 1 25 23 21 2 0.40914319D-01 0.23961210D-01 0.37119946D+05 0.37119946D+05 0.37119946D+05 0.12053098D+01  1  2  4  1  5  1       -1 -.253275135232D+00 0.100000000000D+01
-.395181849097D-02 0.000000000000D+00 -.855602769660D-03 0.131329514130D-02 0.000000000000D+00  5 -1 1 25 23 21 2 0.47245235D-01 0.23961210D-01 0.37119946D+05 0.37119946D+05 0.37119946D+05 0.12053098D+01  1  2  5  1  5  1       -1 -.527792242373D+00 0.100000000000D+01
0.404179200925D-02 0.000000000000D+00 0.846823413889D-03 0.131329514130D-02 0.000000000000D+00  5 -1 1 25 23 21 2 0.40914319D-01 0.23961210D-01 0.37119946D+05 0.37119946D+05 0.37119946D+05 0.12053098D+01  1  2  6  1  5  1       -1 0.699115387365D+00 0.100000000000D+01
0.295006507082D-04 0.000000000000D+00 0.000000000000D+00 0.131329514130D-02 0.000000000000D+00  5 21 1 25 23 1 2 0.46222845D-01 0.23961210D-01 0.43043147D+05 0.43043147D+05 0.43043147D+05 0.11987799D+01  1  2 12  3  5  1       -1 0.413453287966D-01 0.100000000000D+01
-.816320325328D-04 0.000000000000D+00 -.188666964945D-04 0.131329514130D-02 0.000000000000D+00  5 21 1 25 23 1 2 0.47245235D-01 0.23961210D-01 0.37119946D+05 0.37119946D+05 0.37119946D+05 0.12053098D+01  1  2  5  3  5  1       -1 -.110881056076D+00 0.100000000000D+01
  </mgrwgt>
  </event>
  <event>
  4     66 0.43907321E-03 0.65886890E+02 0.75467711E-02 0.12137066E+00
       -1 -1    0    0    0  501 0.00000000E+00 0.00000000E+00 0.22214912E+03 0.22214935E+03 0.32000000E+00 0.0000E+00 0.9000E+01
        1 -1    0    0  501    0 0.00000000E+00 0.00000000E+00 -.59564927E+02 0.59565786E+02 0.32000000E+00 0.0000E+00 0.9000E+01
       25  1    1    2    0    0 -.28500793E+02 0.73858379E+01 0.61351539E+02 0.14232307E+03 0.12500000E+03 0.0000E+00 0.9000E+01
       23  1    1    2    0    0 0.28500793E+02 -.73858379E+01 0.10123266E+03 0.13939206E+03 0.91188000E+02 0.0000E+00 0.9000E+01
#aMCatNLO 1  0  0  1  2 0.49819244D+02 0.00000000D+00  -5  5  0 0.00000000D+00 0.00000000D+00 0.00000000D+00 0.00000000D+00 0.00000000D+00
  <mgrwgt>
 0.1403158139D+00    9    2    0
 0.115032385158627D+03 0.000000000000000D+00 0.000000000000000D+00 0.115032385158627D+03
 0.115032385158627D+03 0.000000000000000D+00 0.000000000000000D+00 -.115032385158627D+03
 0.130918669368765D+03 -.285007932537728D+02 0.738583794326555D+01 -.254529403226737D+02
 0.991461009484895D+02 0.285007932537728D+02 -.738583794326555D+01 0.254529403226737D+02
 0.000000000000000D+00 0.000000000000000D+00 0.000000000000000D+00 0.000000000000000D+00
 0.155687528863715D+03 0.000000000000000D+00 0.000000000000000D+00 0.155687528863715D+03
 0.134031892599949D+03 0.000000000000000D+00 0.000000000000000D+00 -.134031892599949D+03
 0.139277249508004D+03 -.558701752710972D+02 -.195539628265016D+01 -.254529403226737D+02
 0.961197674460170D+02 0.872141920086102D+01 -.141365846628406D+02 0.254529403226737D+02
 0.543224045096426D+02 0.471487560702361D+02 0.160919809454908D+02 0.216556362637667D+02
0.192442063256D-03 0.000000000000D+00 0.000000000000D+00 0.218128050199D-02 0.000000000000D+00  5 -1 1 25 23 21 0 0.34176872D-01 0.91639187D-02 0.12571325D+05 0.12571325D+05 0.12571325D+05 0.12566636D+01  1  2  2  1  5  1       -1 0.106382652341D+00 0.100000000000D+01
-.106826888576D-04 0.000000000000D+00 -.739028194064D-06 0.218128050199D-02 0.000000000000D+00  5 -1 1 25 23 21 2 0.34176872D-01 0.91639187D-02 0.12571325D+05 0.12571325D+05 0.12571325D+05 0.12566636D+01  1  2  3  1  5  1       -1 -.932587194799D-02 0.100000000000D+01
0.132837887161D-04 0.000000000000D+00 0.000000000000D+00 0.218128050199D-02 0.000000000000D+00  5 -1 1 25 23 21 2 0.34176872D-01 0.91639187D-02 0.12571325D+05 0.12571325D+05 0.12571325D+05 0.12566636D+01  1  2 15  1  5  1       -1 0.115966040201D-01 0.100000000000D+01
0.810194519226D-04 0.000000000000D+00 0.000000000000D+00 0.218128050199D-02 0.000000000000D+00  5 -1 1 25 23 21 2 0.48282774D-01 0.91639187D-02 0.19521605D+05 0.19521605D+05 0.19521605D+05 0.12349853D+01  1  2 12  1  5  1       -1 0.377715867326D-01 0.100000000000D+01
-.106319740412D-03 0.000000000000D+00 0.000000000000D+00 0.218128050199D-02 0.000000000000D+00  5 -1 1 25 23 21 2 0.34176872D-01 0.91639187D-02 0.12571325D+05 0.12571325D+05 0.12571325D+05 0.12566636D+01  1  2  4  1  5  1       -1 -.928159846131D-01 0.100000000000D+01
-.161737486440D-03 0.000000000000D+00 -.701127073016D-04 0.218128050199D-02 0.000000000000D+00  5 -1 1 25 23 21 2 0.52921042D-01 0.91639187D-02 0.12571325D+05 0.12571325D+05 0.12571325D+05 0.12566636D+01  1  2  5  1  5  1       -1 -.652663149574D-01 0.100000000000D+01
0.181019447133D-03 0.000000000000D+00 0.639057119205D-04 0.218128050199D-02 0.000000000000D+00  5 -1 1 25 23 21 2 0.34176872D-01 0.91639187D-02 0.12571325D+05 0.12571325D+05 0.12571325D+05 0.12566636D+01  1  2  6  1  5  1       -1 0.158028021463D+00 0.100000000000D+01
0.346760472932D-05 0.000000000000D+00 0.000000000000D+00 0.218128050199D-02 0.000000000000D+00  5 21 1 25 23 1 2 0.48282774D-01 0.91639187D-02 0.19521605D+05 0.19521605D+05 0.19521605D+05 0.12349853D+01  1  2 12  3  5  1       -1 0.166031042684D-01 0.100000000000D+01
-.553364133090D-05 0.000000000000D+00 -.356525761868D-05 0.218128050199D-02 0.000000000000D+00  5 21 1 25 23 1 2 0.52921042D-01 0.91639187D-02 0.12571325D+05 0.12571325D+05 0.12571325D+05 0.12566636D+01  1  2  5  3  5  1       -1 -.226579833842D-01 0.100000000000D+01
  </mgrwgt>
  </event>
  <event>
  4     66 0.43907321E-03 0.12420005E+03 0.75467711E-02 0.12182538E+00
       -1 -1    0    0    0  501 0.00000000E+00 0.00000000E+00 0.17982887E+02 0.17985734E+02 0.32000000E+00 0.0000E+00 0.9000E+01
        1 -1    0    0  501    0 0.00000000E+00 0.00000000E+00 -.13751400E+04 0.13751400E+04 0.32000000E+00 0.0000E+00 0.9000E+01
       25  1    1    2    0    0 0.59780323E+02 0.56305636E+02 -.38130922E+03 0.40959215E+03 0.12500000E+03 0.0000E+00 0.9000E+01
       23  1    1    2    0    0 -.59780323E+02 -.56305636E+02 -.97584785E+03 0.98353357E+03 0.91188000E+02 0.0000E+00 0.9000E+01
#aMCatNLO 1  0  0  2  2 0.53047708D+00 0.00000000D+00  -5  5  0 0.00000000D+00 0.00000000D+00 0.00000000D+00 0.00000000D+00 0.00000000D+00
  <mgrwgt>
 0.3031342858D+00   10    2    0
 0.157260913883721D+03 0.000000000000000D+00 0.000000000000000D+00 0.157260913883721D+03
 0.157260913883721D+03 0.000000000000000D+00 0.000000000000000D+00 -.157260913883721D+03
 0.168881329401281D+03 0.597803234592134D+02 0.563056363741993D+02 0.784339955628437D+02
 0.145640498366162D+03 -.597803234592134D+02 -.563056363741993D+02 -.784339955628437D+02
 0.000000000000000D+00 -.000000000000000D+00 -.000000000000000D+00 -.000000000000000D+00
 0.157409691319222D+03 0.000000000000000D+00 0.000000000000000D+00 0.157409691319222D+03
 0.157734713475834D+03 0.000000000000000D+00 0.000000000000000D+00 -.157734713475834D+03
 0.168980069379611D+03 0.597904802313556D+02 0.565903760483160D+02 0.784339955628437D+02
 0.145542205742677D+03 -.597715699396103D+02 -.560602361344100D+02 -.784339955628437D+02
 0.622129672768334D+00 -.189102917452380D-01 -.530139913905991D+00 -.325022156611964D+00
0.181868007044D-03 0.000000000000D+00 0.000000000000D+00 0.132039633542D-02 0.000000000000D+00  5 -1 1 25 23 21 0 0.27668198D-02 0.21156021D+00 0.18533953D+05 0.18533953D+05 0.18533953D+05 0.12374826D+01  1  2  2  2  5  2        1 0.662328482860D-01 0.100000000000D+01
-.984824027492D-05 0.000000000000D+00 -.698421033997D-06 0.132039633542D-02 0.000000000000D+00  5 -1 1 25 23 21 2 0.27668198D-02 0.21156021D+00 0.18533953D+05 0.18533953D+05 0.18533953D+05 0.12374826D+01  1  2  3  2  5  2        1 -.549229602809D-02 0.100000000000D+01
0.125192309205D-04 0.000000000000D+00 0.000000000000D+00 0.132039633542D-02 0.000000000000D+00  5 -1 1 25 23 21 2 0.27668198D-02 0.21156021D+00 0.18533953D+05 0.18533953D+05 0.18533953D+05 0.12374826D+01  1  2 15  2  5  2        1 0.698188918426D-02 0.100000000000D+01
-.145460553451D-01 0.000000000000D+00 0.000000000000D+00 0.132039633542D-02 0.000000000000D+00  5 -1 1 25 23 21 2 0.27668198D-02 0.21156021D+00 0.18533953D+05 0.18533953D+05 0.18533953D+05 0.12374826D+01  1  2  4  2  5  2        1 -.811223525888D+01 0.100000000000D+01
-.773314416150D-01 0.000000000000D+00 -.622658567140D-02 0.132039633542D-02 0.000000000000D+00  5 -1 1 25 23 21 2 0.27668198D-02 0.21230178D+00 0.18533953D+05 0.18533953D+05 0.18533953D+05 0.12374826D+01  1  2  5  2  5  2        1 -.428128872261D+02 0.100000000000D+01
0.773527936778D-01 0.000000000000D+00 0.622654755321D-02 0.132039633542D-02 0.000000000000D+00  5 -1 1 25 23 21 2 0.27668198D-02 0.21156021D+00 0.18533953D+05 0.18533953D+05 0.18533953D+05 0.12374826D+01  1  2  6  2  5  2        1 0.431391222816D+02 0.100000000000D+01
0.145461126872D-01 0.000000000000D+00 0.000000000000D+00 0.132039633542D-02 0.383106177080D-01  5 -1 1 25 23 21 2 0.27694374D-02 0.21219761D+00 0.18605535D+05 0.18605535D+05 0.18605535D+05 0.12372966D+01  1  2 11  2  5  2        1 0.804829752525D+01 0.100000000000D+01
0.102888543990D-14 0.000000000000D+00 0.000000000000D+00 0.132039633542D-02 0.000000000000D+00  5 -1 21 25 23 -1 2 0.27668198D-02 0.21229748D+00 0.18605535D+05 0.18605535D+05 0.18605535D+05 0.12372966D+01  1  2 12  4  5  2        1 0.677291679507D-12 0.100000000000D+01
-.504420851053D-04 0.000000000000D+00 -.406379592435D-05 0.132039633542D-02 0.000000000000D+00  5 -1 21 25 23 -1 2 0.27668198D-02 0.21230178D+00 0.18533953D+05 0.18533953D+05 0.18533953D+05 0.12374826D+01  1  2  5  4  5  2        1 -.332172328321D-01 0.100000000000D+01
0.961834994228D-05 0.000000000000D+00 0.000000000000D+00 0.132039633542D-02 0.215367312873D-04  5 -1 21 25 23 -1 2 0.27694374D-02 0.21219761D+00 0.18605535D+05 0.18605535D+05 0.18605535D+05 0.12372966D+01  1  2 11  4  5  2        1 0.633175530321D-02 0.100000000000D+01
  </mgrwgt>
  </event>
  <event>
  4     66 0.43907321E-03 0.57991472E+02 0.75467711E-02 0.12051167E+00
       -1 -1    0    0    0  501 0.00000000E+00 0.00000000E+00 0.16942461E+04 0.16942462E+04 0.32000000E+00 0.0000E+00 0.9000E+01
        1 -1    0    0  501    0 0.00000000E+00 0.00000000E+00 -.83183214E+01 0.83244742E+01 0.32000000E+00 0.0000E+00 0.9000E+01
       25  1    1    2    0    0 0.18813702E+02 0.43863084E+02 0.88521477E+03 0.89526986E+03 0.12500000E+03 0.0000E+00 0.9000E+01
       23  1    1    2    0    0 -.18813702E+02 -.43863084E+02 0.80071303E+03 0.80730077E+03 0.91188000E+02 0.0000E+00 0.9000E+01
#aMCatNLO 1  0  0  1  2 0.50529662D+02 0.00000000D+00  -5  5  0 0.00000000D+00 0.00000000D+00 0.00000000D+00 0.00000000D+00 0.00000000D+00
  <mgrwgt>
 0.3008567914D+00    8    2    0
 0.118737303495424D+03 0.000000000000000D+00 0.000000000000000D+00 0.118737303495424D+03
 0.118737303495424D+03 0.000000000000000D+00 0.000000000000000D+00 -.118737303495424D+03
 0.134127893564454D+03 0.188137021337925D+02 0.438630844542788D+02 -.934699236199094D+01
 0.103346713426395D+03 -.188137021337925D+02 -.438630844542788D+02 0.934699236199094D+01
 0.000000000000000D+00 -.000000000000000D+00 -.000000000000000D+00 0.000000000000000D+00
 0.227731337182731D+03 0.000000000000000D+00 0.000000000000000D+00 0.227731337182731D+03
 0.127398252827818D+03 0.000000000000000D+00 0.000000000000000D+00 -.127398252827818D+03
 0.147255232321747D+03 0.325661533108075D+02 0.700798318951571D+02 -.934699236199094D+01
 0.955356976669737D+02 -.909342967639313D+01 -.253330111755545D+02 0.934699236199094D+01
 0.112338660021829D+03 -.234727236344143D+02 -.447468207196026D+02 0.100333084354913D+03
0.140736478226D-02 0.000000000000D+00 0.000000000000D+00 0.216258693811D-02 0.000000000000D+00  5 -1 1 25 23 21 0 0.26065372D+00 0.12802174D-02 0.14009678D+05 0.14009678D+05 0.14009678D+05 0.12512184D+01  1  2  2  1  5  1       -1 0.107156731102D+00 0.100000000000D+01
-.781859820698D-04 0.000000000000D+00 -.540465133153D-05 0.216258693811D-02 0.000000000000D+00  5 -1 1 25 23 21 2 0.26065372D+00 0.12802174D-02 0.14009678D+05 0.14009678D+05 0.14009678D+05 0.12512184D+01  1  2  3  1  5  1       -1 -.931982847726D-02 0.100000000000D+01
0.973972081141D-04 0.000000000000D+00 0.000000000000D+00 0.216258693811D-02 0.000000000000D+00  5 -1 1 25 23 21 2 0.26065372D+00 0.12802174D-02 0.14009678D+05 0.14009678D+05 0.14009678D+05 0.12512184D+01  1  2 15  1  5  1       -1 0.116098212206D-01 0.100000000000D+01
0.133665451247D-02 0.000000000000D+00 0.000000000000D+00 0.216258693811D-02 0.000000000000D+00  5 -1 1 25 23 21 2 0.50129835D+00 0.12802174D-02 0.21398614D+05 0.21398614D+05 0.21398614D+05 0.12306073D+01  1  2 12  1  5  1       -1 0.425824003978D-02 0.100000000000D+01
-.171454194693D-02 0.000000000000D+00 -.320667240025D-03 0.216258693811D-02 0.000000000000D+00  5 -1 1 25 23 21 2 0.50702230D+00 0.12802174D-02 0.14009678D+05 0.14009678D+05 0.14009678D+05 0.12512184D+01  1  2  5  1  5  1       -1 -.521448814217D-02 0.100000000000D+01
0.161655938960D-02 0.000000000000D+00 0.260781164569D-03 0.216258693811D-02 0.000000000000D+00  5 -1 1 25 23 21 2 0.26065372D+00 0.12802174D-02 0.14009678D+05 0.14009678D+05 0.14009678D+05 0.12512184D+01  1  2  6  1  5  1       -1 0.192695107685D+00 0.100000000000D+01
0.948563451679D-04 0.000000000000D+00 0.000000000000D+00 0.216258693811D-02 0.000000000000D+00  5 21 1 25 23 1 2 0.50129835D+00 0.12802174D-02 0.21398614D+05 0.21398614D+05 0.21398614D+05 0.12306073D+01  1  2 12  3  5  1       -1 0.336142371564D-02 0.100000000000D+01
-.104882680510D-03 0.000000000000D+00 -.231266902488D-04 0.216258693811D-02 0.000000000000D+00  5 21 1 25 23 1 2 0.50702230D+00 0.12802174D-02 0.14009678D+05 0.14009678D+05 0.14009678D+05 0.12512184D+01  1  2  5  3  5  1       -1 -.369021571227D-02 0.100000000000D+01
  </mgrwgt>
  </event>
  <event>
  4     66 0.43907321E-03 0.52387196E+02 0.75467711E-02 0.12493623E+00
       -1 -1    0    0    0  501 0.00000000E+00 0.00000000E+00 0.95800676E+02 0.95801211E+02 0.32000000E+00 0.0000E+00 0.9000E+01
        1 -1    0    0  501    0 0.00000000E+00 0.00000000E+00 -.14599710E+03 0.14599745E+03 0.32000000E+00 0.0000E+00 0.9000E+01
       25  1    1    2    0    0 -.32774891E+02 -.19168947E+02 -.57538564E+02 0.14274918E+03 0.12500000E+03 0.0000E+00 0.9000E+01
       23  1    1    2    0    0 0.32774891E+02 0.19168947E+02 0.73421378E+01 0.99049484E+02 0.91188000E+02 0.0000E+00 0.9000E+01
#aMCatNLO 1  0  0  1  2 0.31186238D+01 0.00000000D+00  -5  5  0 0.00000000D+00 0.00000000D+00 0.00000000D+00 0.00000000D+00 0.00000000D+00
  <mgrwgt>
 0.3599854683D-01   11    2    0
 0.118265498846672D+03 0.000000000000000D+00 0.000000000000000D+00 0.118265498846672D+03
 0.118265498846672D+03 0.000000000000000D+00 0.000000000000000D+00 -.118265498846672D+03
 0.133717487650010D+03 -.327748914380220D+02 -.191689466064763D+02 -.285258563526938D+02
 0.102813510043333D+03 0.327748914380220D+02 0.191689466064763D+02 0.285258563526938D+02
 0.000000000000000D+00 -.000000000000000D+00 -.000000000000000D+00 0.000000000000000D+00
 0.125843338703897D+03 0.000000000000000D+00 0.000000000000000D+00 0.125843338703897D+03
 0.118597077558143D+03 0.000000000000000D+00 0.000000000000000D+00 -.118597077558143D+03
 0.133446824247582D+03 -.326519620108663D+02 -.174120589808161D+02 -.285258563526938D+02
 0.103104731833069D+03 0.328696399144744D+02 0.205230766116434D+02 0.285258563526938D+02
 0.788886018138903D+01 -.217677903608078D+00 -.311101763082727D+01 0.724626114575427D+01
0.911921729091D-04 0.000000000000D+00 0.000000000000D+00 0.208923696125D-02 0.000000000000D+00  5 -1 1 25 23 21 0 0.14738634D-01 0.22461161D-01 0.13157965D+05 0.13157965D+05 0.13157965D+05 0.12543621D+01  1  2  2  1  5  1       -1 0.620486999862D-01 0.100000000000D+01
-.506048633152D-05 0.000000000000D+00 -.350201955422D-06 0.208923696125D-02 0.000000000000D+00  5 -1 1 25 23 21 2 0.14738634D-01 0.22461161D-01 0.13157965D+05 0.13157965D+05 0.13157965D+05 0.12543621D+01  1  2  3  1  5  1       -1 -.541767878737D-02 0.100000000000D+01
0.630212874742D-05 0.000000000000D+00 0.000000000000D+00 0.208923696125D-02 0.000000000000D+00  5 -1 1 25 23 21 2 0.14738634D-01 0.22461161D-01 0.13157965D+05 0.13157965D+05 0.13157965D+05 0.12543621D+01  1  2 15  1  5  1       -1 0.674696204939D-02 0.100000000000D+01
0.317595719306D-04 0.000000000000D+00 0.000000000000D+00 0.208923696125D-02 0.000000000000D+00  5 -1 1 25 23 21 2 0.15702921D-01 0.22461161D-01 0.13521155D+05 0.13521155D+05 0.13521155D+05 0.12529944D+01  1  2 12  1  5  1       -1 0.307594541648D-01 0.100000000000D+01
-.210110032756D-02 0.000000000000D+00 0.000000000000D+00 0.208923696125D-02 0.000000000000D+00  5 -1 1 25 23 21 2 0.14738634D-01 0.22461161D-01 0.13157965D+05 0.13157965D+05 0.13157965D+05 0.12543621D+01  1  2  4  1  5  1       -1 -.224940567547D+01 0.100000000000D+01
-.287925786902D-02 0.000000000000D+00 -.176301553110D-03 0.208923696125D-02 0.000000000000D+00  5 -1 1 25 23 21 2 0.15716029D-01 0.22461161D-01 0.13157965D+05 0.13157965D+05 0.13157965D+05 0.12543621D+01  1  2  5  1  5  1       -1 -.278835243907D+01 0.100000000000D+01
0.288499166064D-02 0.000000000000D+00 0.175938749213D-03 0.208923696125D-02 0.000000000000D+00  5 -1 1 25 23 21 2 0.14738634D-01 0.22461161D-01 0.13157965D+05 0.13157965D+05 0.13157965D+05 0.12543621D+01  1  2  6  1  5  1       -1 0.308862767285D+01 0.100000000000D+01
0.207306916725D-02 0.000000000000D+00 0.000000000000D+00 0.208923696125D-02 0.180227851624D-02  5 -1 1 25 23 21 2 0.15683009D-01 0.22524135D-01 0.13521155D+05 0.13521155D+05 0.13521155D+05 0.12529944D+01  1  2 11  1  5  1       -1 0.200471678704D+01 0.100000000000D+01
0.464255423870D-06 0.000000000000D+00 0.000000000000D+00 0.208923696125D-02 0.000000000000D+00  5 21 1 25 23 1 2 0.15702921D-01 0.22461161D-01 0.13521155D+05 0.13521155D+05 0.13521155D+05 0.12529944D+01  1  2 12  3  5  1       -1 0.613966828071D-02 0.100000000000D+01
-.313116023133D-04 0.000000000000D+00 -.193245909112D-05 0.208923696125D-02 0.000000000000D+00  5 21 1 25 23 1 2 0.15716029D-01 0.22461161D-01 0.13157965D+05 0.13157965D+05 0.13157965D+05 0.12543621D+01  1  2  5  3  5  1       -1 -.414166549967D+00 0.100000000000D+01
0.222811818809D-04 0.000000000000D+00 0.000000000000D+00 0.208923696125D-02 0.191872697844D-04  5 21 1 25 23 1 2 0.15683009D-01 0.22524135D-01 0.13521155D+05 0.13521155D+05 0.13521155D+05 0.12529944D+01  1  2 11  3  5  1       -1 0.294301645759D+00 0.100000000000D+01
  </mgrwgt>
  </event>
  <event>
  5     66 0.43907321E-03 0.14951927E+03 0.75467711E-02 0.11948819E+00
       -1 -1    0    0    0  501 0.00000000E+00 0.00000000E+00 0.48971493E+02 0.48972539E+02 0.32000000E+00 0.0000E+00 0.9000E+01
       21 -1    0    0  501  502 0.00000000E+00 0.00000000E+00 -.54629387E+03 0.54629439E+03 0.75000000E+00 0.0000E+00 0.9000E+01
       25  1    1    2    0    0 0.77133021E+02 0.73754263E+02 -.31819241E+03 0.35813489E+03 0.12500000E+03 0.0000E+00 0.9000E+01
       23  1    1    2    0    0 -.67058043E+02 -.73275497E+02 -.18212343E+03 0.22660599E+03 0.91188000E+02 0.0000E+00 0.9000E+01
       -1  1    1    2    0  502 -.10074978E+02 -.47876594E+00 0.29934564E+01 0.10526043E+02 0.32000000E+00 0.0000E+00 0.9000E+01
#aMCatNLO 2  0  0  2  1 0.10086348D+02 0.00000000D+00  -5  5  0 0.00000000D+00 0.00000000D+00 0.00000000D+00 0.00000000D+00 0.00000000D+00
  <mgrwgt>
 0.8867034620D-02    1    2    0
 0.151248330703773D+03 0.000000000000000D+00 0.000000000000000D+00 0.151248330703773D+03
 0.151248330703773D+03 0.000000000000000D+00 0.000000000000000D+00 -.151248330703773D+03
 0.163330693236283D+03 0.716514488223471D+02 0.734937774644459D+02 -.227299341994197D+02
 0.139165968171263D+03 -.716514488223471D+02 -.734937774644459D+02 0.227299341994197D+02
 0.000000000000000D+00 -.000000000000000D+00 -.000000000000000D+00 0.000000000000000D+00
 0.175565008811131D+03 0.000000000000000D+00 0.000000000000000D+00 0.175565008811131D+03
 0.152381946739341D+03 0.000000000000000D+00 0.000000000000000D+00 -.152381946739341D+03
 0.165924212235896D+03 0.771330210045639D+02 0.737542633893277D+02 -.227299341994197D+02
 0.136740560360168D+03 -.670580425387840D+02 -.732754974447075D+02 0.227299341994197D+02
 0.252821829544076D+02 -.100749784657799D+02 -.478765944620189D+00 0.231830620717904D+02
0.569237497817D-05 0.000000000000D+00 0.000000000000D+00 0.168395814085D-02 0.200439945415D-06  5 -1 21 25 23 -1 2 0.75341462D-02 0.84044776D-01 0.23914220D+05 0.23914220D+05 0.23914220D+05 0.12253705D+01  1  2  1  4  5  2        1 0.886703462005D-02 0.100000000000D+01
  </mgrwgt>
  </event>
  <event>
  4     66 0.43907321E-03 0.12525012E+03 0.75467711E-02 0.11745580E+00
       -1 -1    0    0    0  501 0.00000000E+00 0.00000000E+00 0.51811862E+02 0.51812851E+02 0.32000000E+00 0.0000E+00 0.9000E+01
        1 -1    0    0  501    0 0.00000000E+00 0.00000000E+00 -.30289707E+03 0.30289724E+03 0.32000000E+00 0.0000E+00 0.9000E+01
       25  1    1    2    0    0 -.61798906E+02 0.10547003E+02 -.14368308E+03 0.20049981E+03 0.12500000E+03 0.0000E+00 0.9000E+01
       23  1    1    2    0    0 0.61798906E+02 -.10547003E+02 -.10740213E+03 0.15421029E+03 0.91188000E+02 0.0000E+00 0.9000E+01
#aMCatNLO 1  0  0  2  1 0.82616419D+02 0.00000000D+00  -5  5  0 0.00000000D+00 0.00000000D+00 0.00000000D+00 0.00000000D+00 0.00000000D+00
  <mgrwgt>
 0.1329860944D+00    3    2    0
 0.125275163848589D+03 0.000000000000000D+00 0.000000000000000D+00 0.125275163848589D+03
 0.125275163848589D+03 0.000000000000000D+00 0.000000000000000D+00 -.125275163848589D+03
 0.139862549790536D+03 -.617989055734236D+02 0.105470027836612D+02 -.248773714822636D+01
 0.110687777906642D+03 0.617989055734236D+02 -.105470027836612D+02 0.248773714822636D+01
 0.000000000000000D+00 0.000000000000000D+00 -.000000000000000D+00 0.000000000000000D+00
 0.214657908613925D+03 0.000000000000000D+00 0.000000000000000D+00 0.214657908613925D+03
 0.152531221540338D+03 0.000000000000000D+00 0.000000000000000D+00 -.152531221540338D+03
 0.162375544984491D+03 -.911905545158078D+02 0.491824312126924D+02 -.248773714822636D+01
 0.101444354428753D+03 0.411697616276800D+02 0.165700812571265D+02 0.248773714822636D+01
 0.103369230741019D+03 0.500207928881278D+02 -.657525124698189D+02 0.621266870735872D+02
0.183535323280D-03 0.000000000000D+00 0.000000000000D+00 0.204017680647D-02 0.000000000000D+00  5 -1 1 25 23 21 0 0.79711448D-02 0.46599639D-01 0.15687593D+05 0.15687593D+05 0.15687593D+05 0.12456096D+01  1  2  2  2  5  2        1 0.130243543256D+00 0.100000000000D+01
-.101964063534D-04 0.000000000000D+00 -.704823967356D-06 0.204017680647D-02 0.000000000000D+00  5 -1 1 25 23 21 2 0.79711448D-02 0.46599639D-01 0.15687593D+05 0.15687593D+05 0.15687593D+05 0.12456096D+01  1  2  3  2  5  2        1 -.112265821977D-01 0.100000000000D+01
0.126872950018D-04 0.000000000000D+00 0.000000000000D+00 0.204017680647D-02 0.000000000000D+00  5 -1 1 25 23 21 2 0.79711448D-02 0.46599639D-01 0.15687593D+05 0.15687593D+05 0.15687593D+05 0.12456096D+01  1  2 15  2  5  2        1 0.139691333660D-01 0.100000000000D+01
  </mgrwgt>
  </event>
  <event>
  4     66 0.43907321E-03 0.17872000E+03 0.75467711E-02 0.99804247E-01
       -1 -1    0    0    0  501 0.00000000E+00 0.00000000E+00 0.21295931E+02 0.21298335E+02 0.32000000E+00 0.0000E+00 0.9000E+01
        1 -1    0    0  501    0 0.00000000E+00 0.00000000E+00 -.15000738E+04 0.15000738E+04 0.32000000E+00 0.0000E+00 0.9000E+01
       25  1    1    2    0    0 -.11540293E+03 -.82203590E+02 -.79250207E+03 0.81471455E+03 0.12500000E+03 0.0000E+00 0.9000E+01
       23  1    1    2    0    0 0.11540293E+03 0.82203590E+02 -.68627581E+03 0.70665763E+03 0.91188000E+02 0.0000E+00 0.9000E+01
#aMCatNLO 1  0  0  1  1 0.50865735D+03 0.00000000D+00  -5  5  0 0.00000000D+00 0.00000000D+00 0.00000000D+00 0.00000000D+00 0.00000000D+00
  <mgrwgt>
 0.1752558110D+00    5    2    0
 0.178738141173790D+03 0.000000000000000D+00 0.000000000000000D+00 0.178738141173790D+03
 0.178738141173790D+03 0.000000000000000D+00 0.000000000000000D+00 -.178738141173790D+03
 0.188962244166017D+03 -.115402933737218D+03 -.822035902031251D+02 -.254211778195493D+01
 0.168514038181563D+03 0.115402933737218D+03 0.822035902031251D+02 0.254211778195493D+01
 0.000000000000000D+00 0.000000000000000D+00 -.000000000000000D+00 0.000000000000000D+00
 0.884198146302908D+03 0.000000000000000D+00 0.000000000000000D+00 0.884198146302908D+03
 0.423671551080241D+03 0.000000000000000D+00 0.000000000000000D+00 -.423671551080241D+03
 0.456846830533357D+03 -.439378693950251D+03 0.489157521952242D+01 -.254211778195493D+01
 0.164861775500023D+03 -.518379535550638D+02 0.127163351188248D+03 0.254211778195493D+01
 0.686161091349768D+03 0.491216647505315D+03 -.132054926407771D+03 0.460526595222667D+03
0.634172549624D-03 0.000000000000D+00 0.000000000000D+00 0.154057560761D-02 0.000000000000D+00  5 -1 1 25 23 21 0 0.32764846D-02 0.23078077D+00 0.31940840D+05 0.31940840D+05 0.31940840D+05 0.12120514D+01  1  2  2  1  5  1       -1 0.149950105393D+00 0.100000000000D+01
-.352318078713D-04 0.000000000000D+00 -.243538957202D-05 0.154057560761D-02 0.000000000000D+00  5 -1 1 25 23 21 2 0.32764846D-02 0.23078077D+00 0.31940840D+05 0.31940840D+05 0.31940840D+05 0.12120514D+01  1  2  3  1  5  1       -1 -.122381654149D-01 0.100000000000D+01
0.437043720236D-04 0.000000000000D+00 0.000000000000D+00 0.154057560761D-02 0.000000000000D+00  5 -1 1 25 23 21 2 0.32764846D-02 0.23078077D+00 0.31940840D+05 0.31940840D+05 0.31940840D+05 0.12120514D+01  1  2 15  1  5  1       -1 0.151812060321D-01 0.100000000000D+01
0.149061315513D-02 0.000000000000D+00 -.619026528858D-03 0.154057560761D-02 0.000000000000D+00  5 -1 1 25 23 21 2 0.48950362D-01 0.23078077D+00 0.31940840D+05 0.31940840D+05 0.31940840D+05 0.12120514D+01  1  2  5  1  5  1       -1 0.708282662683D-02 0.100000000000D+01
0.317766451282D-03 0.000000000000D+00 -.188696672334D-03 0.154057560761D-02 0.000000000000D+00  5 21 1 25 23 1 2 0.48950362D-01 0.23078077D+00 0.31940840D+05 0.31940840D+05 0.31940840D+05 0.12120514D+01  1  2  5  3  5  1       -1 0.152798383380D-01 0.100000000000D+01
  </mgrwgt>
  </event>
  <event>
  4     66 0.43907321E-03 0.14426114E+03 0.75467711E-02 0.11825976E+00
       -1 -1    0    0    0  501 0.00000000E+00 0.00000000E+00 0.97417254E+01 0.97469797E+01 0.32000000E+00 0.0000E+00 0.9000E+01
        1 -1    0    0  501    0 0.00000000E+00 0.00000000E+00 -.21894619E+04 0.21894619E+04 0.32000000E+00 0.0000E+00 0.9000E+01
       25  1    1    2    0    0 -.70203090E+02 0.63821195E+02 -.10115880E+04 0.10236879E+04 0.12500000E+03 0.0000E+00 0.9000E+01
       23  1    1    2    0    0 0.70203090E+02 -.63821195E+02 -.11681321E+04 0.11755210E+04 0.91188000E+02 0.0000E+00 0.9000E+01
#aMCatNLO 1  0  0  2  1 0.39775818D+02 0.00000000D+00  -5  5  0 0.00000000D+00 0.00000000D+00 0.00000000D+00 0.00000000D+00 0.00000000D+00
  <mgrwgt>
 0.2017584656D+00    3    2    0
 0.146064848288923D+03 0.000000000000000D+00 0.000000000000000D+00 0.146064848288923D+03
 0.146064848288923D+03 0.000000000000000D+00 0.000000000000000D+00 -.146064848288923D+03
 0.158575984167319D+03 -.702030902403929D+02 0.638211947142008D+02 0.227974555726092D+02
 0.133553712410527D+03 0.702030902403929D+02 -.638211947142008D+02 -.227974555726092D+02
 0.000000000000000D+00 0.000000000000000D+00 0.000000000000000D+00 0.000000000000000D+00
 0.285158701921606D+03 0.000000000000000D+00 0.000000000000000D+00 0.285158701921606D+03
 0.150284014563104D+03 0.000000000000000D+00 0.000000000000000D+00 -.150284014563104D+03
 0.153330922161680D+03 -.742324111953319D+02 0.430719959891934D+02 0.227974555726092D+02
 0.141494238475966D+03 0.666499259800575D+02 -.821183996687784D+02 -.227974555726092D+02
 0.140617555847065D+03 0.758248521527437D+01 0.390464036795850D+02 0.134874687358502D+03
0.744676452180D-03 0.000000000000D+00 0.000000000000D+00 0.172853149818D-02 0.000000000000D+00  5 -1 1 25 23 21 0 0.14991330D-02 0.33684070D+00 0.20811277D+05 0.20811277D+05 0.20811277D+05 0.12319294D+01  1  2  2  2  5  2        1 0.197641327861D+00 0.100000000000D+01
-.413631478334D-04 0.000000000000D+00 -.285975365419D-05 0.172853149818D-02 0.000000000000D+00  5 -1 1 25 23 21 2 0.14991330D-02 0.33684070D+00 0.20811277D+05 0.20811277D+05 0.20811277D+05 0.12319294D+01  1  2  3  2  5  2        1 -.166607820317D-01 0.100000000000D+01
0.515846234560D-04 0.000000000000D+00 0.000000000000D+00 0.172853149818D-02 0.000000000000D+00  5 -1 1 25 23 21 2 0.14991330D-02 0.33684070D+00 0.20811277D+05 0.20811277D+05 0.20811277D+05 0.12319294D+01  1  2 15  2  5  2        1 0.207779197814D-01 0.100000000000D+01
  </mgrwgt>
  </event>
  <event>
  4     66 0.43907321E-03 0.15812416E+03 0.75467711E-02 0.10353479E+00
       -1 -1    0    0    0  501 0.00000000E+00 0.00000000E+00 0.29659623E+02 0.29661350E+02 0.32000000E+00 0.0000E+00 0.9000E+01
        1 -1    0    0  501    0 0.00000000E+00 0.00000000E+00 -.85926540E+03 0.85926546E+03 0.32000000E+00 0.0000E+00 0.9000E+01
       25  1    1    2    0    0 0.97925103E+02 0.59811064E+02 -.50557342E+03 0.53328808E+03 0.12500000E+03 0.0000E+00 0.9000E+01
       23  1    1    2    0    0 -.97925103E+02 -.59811064E+02 -.32403236E+03 0.35563873E+03 0.91188000E+02 0.0000E+00 0.9000E+01
#aMCatNLO 1  0  0  1  1 0.36659000D+03 0.00000000D+00  -5  5  0 0.00000000D+00 0.00000000D+00 0.00000000D+00 0.00000000D+00 0.00000000D+00
  <mgrwgt>
 0.1845055329D+00    5    2    0
 0.159644235899909D+03 0.000000000000000D+00 0.000000000000000D+00 0.159644235899909D+03
 0.159644235899909D+03 0.000000000000000D+00 0.000000000000000D+00 -.159644235899909D+03
 0.171091170727833D+03 0.979251030903204D+02 0.598110639965476D+02 -.219202990255966D+02
 0.148197301071985D+03 -.979251030903204D+02 -.598110639965476D+02 0.219202990255966D+02
 0.000000000000000D+00 0.000000000000000D+00 -.000000000000000D+00 0.000000000000000D+00
 0.440111449811649D+03 0.000000000000000D+00 0.000000000000000D+00 0.440111449811649D+03
 0.413578766859385D+03 0.000000000000000D+00 0.000000000000000D+00 -.413578766859385D+03
 0.297607284331603D+03 0.425089908088881D+02 0.265814939155552D+03 -.219202990255966D+02
 0.188534008370656D+03 -.137738206486150D+03 0.881901804789717D+02 0.219202990255966D+02
 0.367548923968776D+03 0.952292156772623D+02 -.354005119634523D+03 0.265326829522645D+02
0.361822903968D-03 0.000000000000D+00 0.000000000000D+00 0.162447593261D-02 0.000000000000D+00  5 -1 1 25 23 21 0 0.45631564D-02 0.13219481D+00 0.25003251D+05 0.25003251D+05 0.25003251D+05 0.12232916D+01  1  2  2  1  5  1       -1 0.147706054682D+00 0.100000000000D+01
-.200990353775D-04 0.000000000000D+00 -.138949522140D-05 0.162447593261D-02 0.000000000000D+00  5 -1 1 25 23 21 2 0.45631564D-02 0.13219481D+00 0.25003251D+05 0.25003251D+05 0.25003251D+05 0.12232916D+01  1  2  3  1  5  1       -1 -.122782772692D-01 0.100000000000D+01
0.249465565721D-04 0.000000000000D+00 0.000000000000D+00 0.162447593261D-02 0.000000000000D+00  5 -1 1 25 23 21 2 0.45631564D-02 0.13219481D+00 0.25003251D+05 0.25003251D+05 0.25003251D+05 0.12232916D+01  1  2 15  1  5  1       -1 0.152395740767D-01 0.100000000000D+01
0.429427652344D-03 0.000000000000D+00 -.197304691018D-03 0.162447593261D-02 0.000000000000D+00  5 -1 1 25 23 21 2 0.35127127D-01 0.13219481D+00 0.25003251D+05 0.25003251D+05 0.25003251D+05 0.12232916D+01  1  2  5  1  5  1       -1 0.106569909631D-01 0.100000000000D+01
0.844747979145D-04 0.000000000000D+00 -.489978074753D-04 0.162447593261D-02 0.000000000000D+00  5 21 1 25 23 1 2 0.35127127D-01 0.13219481D+00 0.25003251D+05 0.25003251D+05 0.25003251D+05 0.12232916D+01  1  2  5  3  5  1       -1 0.231811904367D-01 0.100000000000D+01
  </mgrwgt>
  </event>
  <event>
  5     66 0.43907321E-03 0.17082594E+03 0.75467711E-02 0.10966633E+00
       -1 -1    0    0    0  502 0.00000000E+00 0.00000000E+00 0.29635578E+03 0.29635595E+03 0.32000000E+00 0.0000E+00 0.9000E+01
        1 -1    0    0  501    0 0.00000000E+00 0.00000000E+00 -.37278537E+03 0.37278551E+03 0.32000000E+00 0.0000E+00 0.9000E+01
       25  1    1    2    0    0 0.18573137E+02 0.93967809E+02 0.59534457E+02 0.16835754E+03 0.12500000E+03 0.0000E+00 0.9000E+01
       23  1    1    2    0    0 -.19171361E+03 -.73317548E+02 -.21356448E+03 0.30992678E+03 0.91188000E+02 0.0000E+00 0.9000E+01
       21  1    1    2  501  502 0.17314047E+03 -.20650262E+02 0.77600427E+02 0.19085713E+03 0.75000000E+00 0.0000E+00 0.9000E+01
#aMCatNLO 2  0  0  1  2 0.17436759D+03 0.00000000D+00  -5  5  0 0.00000000D+00 0.00000000D+00 0.00000000D+00 0.00000000D+00 0.00000000D+00
  <mgrwgt>
 0.1964259111D-01    1    2    0
 0.208941730938901D+03 0.000000000000000D+00 0.000000000000000D+00 0.208941730938901D+03
 0.208941730938901D+03 0.000000000000000D+00 0.000000000000000D+00 -.208941730938901D+03
 0.217687887849673D+03 0.101251422034709D+03 0.841068669725959D+02 0.120154904104889D+03
 0.200195574028129D+03 -.101251422034709D+03 -.841068669725959D+02 -.120154904104889D+03
 0.000000000000000D+00 0.000000000000000D+00 -.000000000000000D+00 0.000000000000000D+00
 0.413843703557261D+03 0.000000000000000D+00 0.000000000000000D+00 0.413843703557261D+03
 0.266952800772291D+03 0.000000000000000D+00 0.000000000000000D+00 -.266952800772291D+03
 0.198083597495050D+03 0.185731369116321D+02 0.939678093891077D+02 0.120154904104889D+03
 0.254719499154581D+03 -.191713609686181D+03 -.733175476008293D+02 -.120154904104889D+03
 0.227993407679920D+03 0.173140472774549D+03 -.206502617882784D+02 0.146890902784970D+03
0.437976874397D-03 0.000000000000D+00 0.000000000000D+00 0.100505378923D-02 0.292232060406D-06  5 -1 1 25 23 21 2 0.45593124D-01 0.57351498D-01 0.77408236D+05 0.77408236D+05 0.77408236D+05 0.11739283D+01  1  2  1  1  5  1       -1 0.196425911066D-01 0.100000000000D+01
  </mgrwgt>
  </event>
  <event>
  5     66 0.43907321E-03 0.14917575E+03 0.75467711E-02 0.11316737E+00
       -1 -1    0    0    0  502 0.00000000E+00 0.00000000E+00 0.44871615E+03 0.44871627E+03 0.32000000E+00 0.0000E+00 0.9000E+01
        1 -1    0    0  501    0 0.00000000E+00 0.00000000E+00 -.11929620E+03 0.11929663E+03 0.32000000E+00 0.0000E+00 0.9000E+01
       25  1    1    2    0    0 0.61842799E+02 -.32438978E+01 0.96857746E+02 0.16982779E+03 0.12500000E+03 0.0000E+00 0.9000E+01
       23  1    1    2    0    0 -.10637916E+03 0.11812817E+03 0.74642572E+02 0.19788268E+03 0.91188000E+02 0.0000E+00 0.9000E+01
       21  1    1    2  501  502 0.44536365E+02 -.11488427E+03 0.15791964E+03 0.20030242E+03 0.75000000E+00 0.0000E+00 0.9000E+01
#aMCatNLO 2  0  0  1  2 0.12321479D+03 0.00000000D+00  -5  5  0 0.00000000D+00 0.00000000D+00 0.00000000D+00 0.00000000D+00 0.00000000D+00
  <mgrwgt>
 0.1446661352D-01    2    2    0
 0.150513078929438D+03 0.000000000000000D+00 0.000000000000000D+00 0.150513078929438D+03
 0.150513078929438D+03 0.000000000000000D+00 0.000000000000000D+00 -.150513078929438D+03
 0.162654463432354D+03 0.834302308088562D+02 -.589299970504024D+02 0.199531077601343D+02
 0.138371694426523D+03 -.834302308088562D+02 0.589299970504024D+02 -.199531077601343D+02
 0.000000000000000D+00 0.000000000000000D+00 -.000000000000000D+00 0.000000000000000D+00
 0.270677053310891D+03 0.000000000000000D+00 0.000000000000000D+00 0.270677053310891D+03
 0.197762595320330D+03 0.000000000000000D+00 0.000000000000000D+00 -.197762595320330D+03
 0.140919058868602D+03 0.618427988558594D+02 -.324389777869634D+01 0.199531077601343D+02
 0.184347957737912D+03 -.106379164161772D+03 0.118128172342987D+03 -.199531077601343D+02
 0.143172632024707D+03 0.445363653059127D+02 -.114884274564290D+03 0.729144579905613D+02
-.886831189626D-05 0.000000000000D+00 0.000000000000D+00 0.169739237116D-02 0.000000000000D+00  5 -1 1 25 23 21 2 0.71124590D-01 0.13968261D-01 0.49724327D+05 0.49724327D+05 0.49724327D+05 0.11925196D+01  1  2 13  1  5  1       -1 -.107042506271D-02 0.100000000000D+01
0.173274407580D-03 0.000000000000D+00 0.000000000000D+00 0.169739237116D-02 0.987609201577D-06  5 -1 1 25 23 21 2 0.69032981D-01 0.18353219D-01 0.49724327D+05 0.49724327D+05 0.49724327D+05 0.11925196D+01  1  2  1  1  5  1       -1 0.155370385820D-01 0.100000000000D+01
  </mgrwgt>
  </event>
  <event>
  4     66 0.43907321E-03 0.18601785E+03 0.75467711E-02 0.95945076E-01
       -1 -1    0    0    0  501 0.00000000E+00 0.00000000E+00 0.39442201E+02 0.39443499E+02 0.32000000E+00 0.0000E+00 0.9000E+01
        1 -1    0    0  501    0 0.00000000E+00 0.00000000E+00 -.11831487E+04 0.11831488E+04 0.32000000E+00 0.0000E+00 0.9000E+01
       25  1    1    2    0    0 -.14588753E+03 -.38024412E+02 -.28375723E+03 0.34477846E+03 0.12500000E+03 0.0000E+00 0.9000E+01
       23  1    1    2    0    0 0.14588753E+03 0.38024412E+02 -.85994929E+03 0.87781380E+03 0.91188000E+02 0.0000E+00 0.9000E+01
#aMCatNLO 1  0  0  2  2 0.73540525D+03 0.00000000D+00  -5  5  0 0.00000000D+00 0.00000000D+00 0.00000000D+00 0.00000000D+00 0.00000000D+00
  <mgrwgt>
 0.1497487343D+00    5    2    0
 0.216025020561682D+03 0.000000000000000D+00 0.000000000000000D+00 0.216025020561682D+03
 0.216025020561682D+03 0.000000000000000D+00 0.000000000000000D+00 -.216025020561682D+03
 0.224484397902550D+03 -.145887525750579D+03 -.380244118410970D+02 0.109723374156025D+03
 0.207565643220814D+03 0.145887525750579D+03 0.380244118410970D+02 -.109723374156025D+03
 0.000000000000000D+00 -.000000000000000D+00 -.000000000000000D+00 -.000000000000000D+00
 0.657781299794756D+03 0.000000000000000D+00 0.000000000000000D+00 0.657781299794756D+03
 0.101096711526928D+04 0.000000000000000D+00 0.000000000000000D+00 -.101096711526928D+04
 0.253338537689703D+03 0.344957938375271D+01 0.191060975200717D+03 0.109723374156025D+03
 0.599590599160380D+03 0.398153308009247D+03 0.425003952619990D+03 -.109723374156025D+03
 0.815819278213949D+03 -.401602887392999D+03 -.616064927820707D+03 -.353185815474519D+03
0.947871349762D-03 0.000000000000D+00 0.000000000000D+00 0.108283987372D-02 0.000000000000D+00  5 -1 1 25 23 21 0 0.60681341D-02 0.18202298D+00 0.34602641D+05 0.34602641D+05 0.34602641D+05 0.12084459D+01  1  2  2  2  5  2        1 0.146573122425D+00 0.100000000000D+01
-.512275277997D-04 0.000000000000D+00 -.364007556335D-05 0.108283987372D-02 0.000000000000D+00  5 -1 1 25 23 21 2 0.60681341D-02 0.18202298D+00 0.34602641D+05 0.34602641D+05 0.34602641D+05 0.12084459D+01  1  2  3  2  5  2        1 -.115681188570D-01 0.100000000000D+01
0.652797290171D-04 0.000000000000D+00 0.000000000000D+00 0.108283987372D-02 0.000000000000D+00  5 -1 1 25 23 21 2 0.60681341D-02 0.18202298D+00 0.34602641D+05 0.34602641D+05 0.34602641D+05 0.12084459D+01  1  2 15  2  5  2        1 0.147413645878D-01 0.100000000000D+01
0.565236584245D-03 0.000000000000D+00 -.384947806804D-03 0.108283987372D-02 0.000000000000D+00  5 -1 1 25 23 21 2 0.60681341D-02 0.91980785D+00 0.34602641D+05 0.34602641D+05 0.34602641D+05 0.12084459D+01  1  2  5  2  5  2        1 0.236103005506D-05 0.100000000000D+01
0.999575867664D-04 0.000000000000D+00 -.760518144810D-04 0.108283987372D-02 0.000000000000D+00  5 -1 21 25 23 -1 2 0.60681341D-02 0.91980785D+00 0.34602641D+05 0.34602641D+05 0.34602641D+05 0.12084459D+01  1  2  5  4  5  2        1 0.508500308554D-08 0.100000000000D+01
  </mgrwgt>
  </event>
  <event>
  4     66 0.43907321E-03 0.14006860E+03 0.75467711E-02 0.10942628E+00
       -3 -1    0    0    0  501 0.00000000E+00 0.00000000E+00 0.65900939E+03 0.65900958E+03 0.50000000E+00 0.0000E+00 0.9000E+01
        3 -1    0    0  501    0 0.00000000E+00 0.00000000E+00 -.37554912E+02 0.37558240E+02 0.50000000E+00 0.0000E+00 0.9000E+01
       25  1    1    2    0    0 0.64059460E+02 0.60956461E+02 0.17563668E+03 0.23300761E+03 0.12500000E+03 0.0000E+00 0.9000E+01
       23  1    1    2    0    0 -.64059460E+02 -.60956461E+02 0.44581780E+03 0.46356021E+03 0.91188000E+02 0.0000E+00 0.9000E+01
#aMCatNLO 1  0  0  1  2 0.21309793D+03 0.00000000D+00  -5  5  0 0.00000000D+00 0.00000000D+00 0.00000000D+00 0.00000000D+00 0.00000000D+00
  <mgrwgt>
 0.3105186721D-01    3    2    0
 0.157322168719450D+03 0.000000000000000D+00 0.000000000000000D+00 0.157322168719450D+03
 0.157322168719450D+03 0.000000000000000D+00 0.000000000000000D+00 -.157322168719450D+03
 0.168938059721174D+03 0.640594595850233D+02 0.609564611860108D+02 -.713846166881075D+02
 0.145706277717725D+03 -.640594595850233D+02 -.609564611860108D+02 0.713846166881075D+02
 0.000000000000000D+00 -.000000000000000D+00 0.000000000000000D+00 -.000000000000000D+00
 0.290739339080677D+03 0.000000000000000D+00 0.000000000000000D+00 0.290739339080677D+03
 0.302710058073504D+03 0.000000000000000D+00 0.000000000000000D+00 -.302710058073504D+03
 0.185200634606463D+03 0.110394199672529D+03 -.373045873531688D+02 -.713846166881075D+02
 0.194814873130785D+03 -.195064094055733D+02 -.155439119726528D+03 0.713846166881075D+02
 0.213433889416933D+03 -.908877902669558D+02 0.192743707079697D+03 -.119707189928268D+02
0.820155145431D-03 0.000000000000D+00 0.000000000000D+00 0.137986576046D-02 0.000000000000D+00  5 -3 3 25 23 21 0 0.10138633D+00 0.57779493D-02 0.19619213D+05 0.19619213D+05 0.19619213D+05 0.12347462D+01  1  2  2  1  5  1       -3 0.303857873799D-01 0.100000000000D+01
-.448166186253D-04 0.000000000000D+00 -.314961171026D-05 0.137986576046D-02 0.000000000000D+00  5 -3 3 25 23 21 2 0.10138633D+00 0.57779493D-02 0.19619213D+05 0.19619213D+05 0.19619213D+05 0.12347462D+01  1  2  3  1  5  1       -3 -.253144769406D-02 0.100000000000D+01
0.566088614133D-04 0.000000000000D+00 0.000000000000D+00 0.137986576046D-02 0.000000000000D+00  5 -3 3 25 23 21 2 0.10138633D+00 0.57779493D-02 0.19619213D+05 0.19619213D+05 0.19619213D+05 0.12347462D+01  1  2 15  1  5  1       -3 0.319752752626D-02 0.100000000000D+01
  </mgrwgt>
  </event>
  <event>
  4     66 0.43907321E-03 0.72993406E+02 0.75467711E-02 0.11425079E+00
       -1 -1    0    0    0  501 0.00000000E+00 0.00000000E+00 0.16239262E+03 0.16239294E+03 0.32000000E+00 0.0000E+00 0.9000E+01
        1 -1    0    0  501    0 0.00000000E+00 0.00000000E+00 -.35465664E+03 0.35465678E+03 0.32000000E+00 0.0000E+00 0.9000E+01
       25  1    1    2    0    0 0.17053589E+03 0.91146008E+01 0.39259638E+02 0.21524843E+03 0.12500000E+03 0.0000E+00 0.9000E+01
       23  1    1    2    0    0 -.17053589E+03 -.91146008E+01 -.23152365E+03 0.30180129E+03 0.91188000E+02 0.0000E+00 0.9000E+01
#aMCatNLO 1  0  0  1  2 0.12157261D+02 0.00000000D+00  -5  5  0 0.00000000D+00 0.00000000D+00 0.00000000D+00 0.00000000D+00 0.00000000D+00
  <mgrwgt>
 0.1878326526D+00    6    2    0
 0.239986958653009D+03 0.000000000000000D+00 0.000000000000000D+00 0.239986958653009D+03
 0.239986958653009D+03 0.000000000000000D+00 0.000000000000000D+00 -.239986958653009D+03
 0.247601693946364D+03 0.170535892836870D+03 0.911460078842066D+01 0.128514715701775D+03
 0.232372223359654D+03 -.170535892836870D+03 -.911460078842066D+01 -.128514715701775D+03
 0.000000000000000D+00 0.000000000000000D+00 0.000000000000000D+00 -.000000000000000D+00
 0.245200075886564D+03 0.000000000000000D+00 0.000000000000000D+00 0.245200075886564D+03
 0.247257989041121D+03 0.000000000000000D+00 0.000000000000000D+00 -.247257989041121D+03
 0.245674389456214D+03 0.167937719033258D+03 0.343453179954763D+01 0.128514715701775D+03
 0.234453468810553D+03 -.172994747675085D+03 -.144900937963416D+02 -.128514715701775D+03
 0.123302066609166D+02 0.505702864182680D+01 0.110555619967940D+02 -.205791315455722D+01
0.100162907026D-02 0.000000000000D+00 0.000000000000D+00 0.100305866577D-02 0.000000000000D+00  5 -1 1 25 23 21 0 0.24983516D-01 0.54562595D-01 0.41054348D+05 0.41054348D+05 0.41054348D+05 0.12008545D+01  1  2  2  1  5  1       -1 0.987373432574D-01 0.100000000000D+01
-.537077762979D-04 0.000000000000D+00 -.384651936478D-05 0.100305866577D-02 0.000000000000D+00  5 -1 1 25 23 21 2 0.24983516D-01 0.54562595D-01 0.41054348D+05 0.41054348D+05 0.41054348D+05 0.12008545D+01  1  2  3  1  5  1       -1 -.763470893835D-02 0.100000000000D+01
0.689280057599D-04 0.000000000000D+00 0.000000000000D+00 0.100305866577D-02 0.000000000000D+00  5 -1 1 25 23 21 2 0.24983516D-01 0.54562595D-01 0.41054348D+05 0.41054348D+05 0.41054348D+05 0.12008545D+01  1  2 15  1  5  1       -1 0.979830665041D-02 0.100000000000D+01
0.144458835421D-02 0.000000000000D+00 0.000000000000D+00 0.100305866577D-02 0.000000000000D+00  5 -1 1 25 23 21 2 0.25895064D-01 0.54562595D-01 0.43603667D+05 0.43603667D+05 0.43603667D+05 0.11982144D+01  1  2 12  1  5  1       -1 0.192669054277D+00 0.100000000000D+01
-.947198412486D-03 0.000000000000D+00 0.000000000000D+00 0.100305866577D-02 0.000000000000D+00  5 -1 1 25 23 21 2 0.24983516D-01 0.54562595D-01 0.41054348D+05 0.41054348D+05 0.41054348D+05 0.12008545D+01  1  2  4  1  5  1       -1 -.134646873966D+00 0.100000000000D+01
0.183798651439D-04 0.000000000000D+00 0.000000000000D+00 0.100305866577D-02 0.000000000000D+00  5 21 1 25 23 1 2 0.25895064D-01 0.54562595D-01 0.43603667D+05 0.43603667D+05 0.43603667D+05 0.11982144D+01  1  2 12  3  5  1       -1 0.289095313633D-01 0.100000000000D+01
  </mgrwgt>
  </event>
  <event>
  4     66 0.43907321E-03 0.10985363E+03 0.75467711E-02 0.12099580E+00
       -1 -1    0    0    0  501 0.00000000E+00 0.00000000E+00 0.78412135E+03 0.78412142E+03 0.32000000E+00 0.0000E+00 0.9000E+01
        1 -1    0    0  501    0 0.00000000E+00 0.00000000E+00 -.15657997E+02 0.15661267E+02 0.32000000E+00 0.0000E+00 0.9000E+01
       25  1    1    2    0    0 0.19294184E+02 0.14693783E+01 0.49327598E+03 0.50923532E+03 0.12500000E+03 0.0000E+00 0.9000E+01
       23  1    1    2    0    0 -.19294184E+02 -.14693783E+01 0.27518738E+03 0.29054736E+03 0.91188000E+02 0.0000E+00 0.9000E+01
#aMCatNLO 1  0  0  1  1 0.57855966D+02 0.00000000D+00  -5  5  0 0.00000000D+00 0.00000000D+00 0.00000000D+00 0.00000000D+00 0.00000000D+00
  <mgrwgt>
 0.7096599752D-01    4    2    0
 0.110811115629197D+03 0.000000000000000D+00 0.000000000000000D+00 0.110811115629197D+03
 0.110811115629197D+03 0.000000000000000D+00 0.000000000000000D+00 -.110811115629197D+03
 0.127302576378632D+03 0.192941838938588D+02 0.146937827250633D+01 0.143708506359081D+02
 0.943196548797616D+02 -.192941838938588D+02 -.146937827250633D+01 -.143708506359081D+02
 0.000000000000000D+00 0.000000000000000D+00 -.000000000000000D+00 -.000000000000000D+00
 0.140701994776680D+03 0.000000000000000D+00 0.000000000000000D+00 0.140701994776680D+03
 0.146492649838239D+03 0.000000000000000D+00 0.000000000000000D+00 -.146492649838239D+03
 0.127763420856771D+03 -.693806610070953D+01 0.210673586338408D+02 0.143708506359081D+02
 0.101286194211438D+03 -.394112578644225D+02 0.135599852279274D+02 -.143708506359081D+02
 0.581450295467107D+02 0.463493239651320D+02 -.346273438617682D+02 -.579065506155917D+01
0.407388281766D-03 0.000000000000D+00 0.000000000000D+00 0.235204842234D-02 0.000000000000D+00  5 -1 1 25 23 21 0 0.12063431D+00 0.24091791D-02 0.12067820D+05 0.12067820D+05 0.12067820D+05 0.12587374D+01  1  2  2  1  5  1       -1 0.117556667902D+00 0.100000000000D+01
-.226306098893D-04 0.000000000000D+00 -.156447826978D-05 0.235204842234D-02 0.000000000000D+00  5 -1 1 25 23 21 2 0.12063431D+00 0.24091791D-02 0.12067820D+05 0.12067820D+05 0.12067820D+05 0.12587374D+01  1  2  3  1  5  1       -1 -.103467804364D-01 0.100000000000D+01
0.281698869995D-04 0.000000000000D+00 0.000000000000D+00 0.235204842234D-02 0.000000000000D+00  5 -1 1 25 23 21 2 0.12063431D+00 0.24091791D-02 0.12067820D+05 0.12067820D+05 0.12067820D+05 0.12587374D+01  1  2 15  1  5  1       -1 0.128793539868D-01 0.100000000000D+01
-.107442984479D-03 0.000000000000D+00 0.000000000000D+00 0.235204842234D-02 0.000000000000D+00  5 -1 1 25 23 21 2 0.12063431D+00 0.24091791D-02 0.12067820D+05 0.12067820D+05 0.12067820D+05 0.12587374D+01  1  2  4  1  5  1       -1 -.491232439279D-01 0.100000000000D+01
  </mgrwgt>
  </event>
  <event>
  4     66 0.43907321E-03 0.64236559E+02 0.75467711E-02 0.12356391E+00
       -1 -1    0    0    0  501 0.00000000E+00 0.00000000E+00 0.17977322E+03 0.17977351E+03 0.32000000E+00 0.0000E+00 0.9000E+01
        1 -1    0    0  501    0 0.00000000E+00 0.00000000E+00 -.12476638E+03 0.12476679E+03 0.32000000E+00 0.0000E+00 0.9000E+01
       25  1    1    2    0    0 -.13966638E+02 -.45336305E+02 0.12269555E+03 0.18146528E+03 0.12500000E+03 0.0000E+00 0.9000E+01
       23  1    1    2    0    0 0.13966638E+02 0.45336305E+02 -.67688710E+02 0.12307502E+03 0.91188000E+02 0.0000E+00 0.9000E+01
#aMCatNLO 1  0  0  2  1 0.12386832D+02 0.00000000D+00  -5  5  0 0.00000000D+00 0.00000000D+00 0.00000000D+00 0.00000000D+00 0.00000000D+00
  <mgrwgt>
 0.1407902517D+00    6    2    0
 0.149765682132931D+03 0.000000000000000D+00 0.000000000000000D+00 0.149765682132931D+03
 0.149765682132931D+03 0.000000000000000D+00 0.000000000000000D+00 -.149765682132931D+03
 0.161967657498543D+03 -.139666384620053D+02 -.453363045724613D+02 0.914225058360898D+02
 0.137563706767320D+03 0.139666384620053D+02 0.453363045724613D+02 -.914225058360898D+02
 0.000000000000000D+00 -.000000000000000D+00 -.000000000000000D+00 0.000000000000000D+00
 0.156294377541636D+03 0.000000000000000D+00 0.000000000000000D+00 0.156294377541636D+03
 0.155886544085275D+03 0.000000000000000D+00 0.000000000000000D+00 -.155886544085275D+03
 0.161523963584856D+03 -.728067282991541D+01 -.453200622457174D+02 0.914225058360898D+02
 0.138263414040935D+03 0.196674681896687D+02 0.453501536922808D+02 -.914225058360898D+02
 0.123935440011197D+02 -.123867953597533D+02 -.300914465634413D-01 0.407833456361112D+00
0.238931862727D-03 0.000000000000D+00 0.000000000000D+00 0.119844695973D-02 0.000000000000D+00  5 -1 1 25 23 21 0 0.27657472D-01 0.19194881D-01 0.13981724D+05 0.13981724D+05 0.13981724D+05 0.12513181D+01  1  2  2  2  5  2        1 0.724298872219D-01 0.100000000000D+01
-.123726711345D-04 0.000000000000D+00 -.917561265076D-06 0.119844695973D-02 0.000000000000D+00  5 -1 1 25 23 21 2 0.27657472D-01 0.19194881D-01 0.13981724D+05 0.13981724D+05 0.13981724D+05 0.12513181D+01  1  2  3  2  5  2        1 -.587276591807D-02 0.100000000000D+01
0.164208945129D-04 0.000000000000D+00 0.000000000000D+00 0.119844695973D-02 0.000000000000D+00  5 -1 1 25 23 21 2 0.27657472D-01 0.19194881D-01 0.13981724D+05 0.13981724D+05 0.13981724D+05 0.12513181D+01  1  2 15  2  5  2        1 0.779428052290D-02 0.100000000000D+01
0.543553372599D-03 0.000000000000D+00 0.000000000000D+00 0.119844695973D-02 0.000000000000D+00  5 -1 1 25 23 21 2 0.27657472D-01 0.20380485D-01 0.15534159D+05 0.15534159D+05 0.15534159D+05 0.12460938D+01  1  2 12  2  5  2        1 0.237776317792D+00 0.100000000000D+01
-.407462733007D-03 0.000000000000D+00 0.000000000000D+00 0.119844695973D-02 0.000000000000D+00  5 -1 1 25 23 21 2 0.27657472D-01 0.19194881D-01 0.13981724D+05 0.13981724D+05 0.13981724D+05 0.12513181D+01  1  2  4  2  5  2        1 -.193404740599D+00 0.100000000000D+01
0.597196087033D-05 0.000000000000D+00 0.000000000000D+00 0.119844695973D-02 0.000000000000D+00  5 -1 21 25 23 -1 2 0.27657472D-01 0.20380485D-01 0.15534159D+05 0.15534159D+05 0.15534159D+05 0.12460938D+01  1  2 12  4  5  2        1 0.220672727214D-01 0.100000000000D+01
  </mgrwgt>
  </event>
  <event>
  4     66 0.43907321E-03 0.91889673E+02 0.75467711E-02 0.11747514E+00
       -1 -1    0    0    0  501 0.00000000E+00 0.00000000E+00 0.19916562E+04 0.19916563E+04 0.32000000E+00 0.0000E+00 0.9000E+01
        1 -1    0    0  501    0 0.00000000E+00 0.00000000E+00 -.69474709E+01 0.69548365E+01 0.32000000E+00 0.0000E+00 0.9000E+01
       25  1    1    2    0    0 0.84239292E+00 -.43891432E+02 0.10068049E+04 0.10154843E+04 0.12500000E+03 0.0000E+00 0.9000E+01
       23  1    1    2    0    0 -.84239292E+00 0.43891432E+02 0.97790383E+03 0.98312681E+03 0.91188000E+02 0.0000E+00 0.9000E+01
#aMCatNLO 1  0  0  2  1 0.94144442D+02 0.00000000D+00  -5  5  0 0.00000000D+00 0.00000000D+00 0.00000000D+00 0.00000000D+00 0.00000000D+00
  <mgrwgt>
 0.6022574782D-01    7    2    0
 0.117662057929853D+03 0.000000000000000D+00 0.000000000000000D+00 0.117662057929853D+03
 0.117662057929853D+03 0.000000000000000D+00 0.000000000000000D+00 -.117662057929853D+03
 0.133193293709271D+03 0.842392919806536D+00 -.438914317063881D+02 -.137217377199883D+02
 0.102130822150436D+03 -.842392919806536D+00 0.438914317063881D+02 0.137217377199883D+02
 0.000000000000000D+00 -.000000000000000D+00 0.000000000000000D+00 -.000000000000000D+00
 0.153036293054649D+03 0.000000000000000D+00 0.000000000000000D+00 0.153036293054649D+03
 0.210954946512992D+03 0.000000000000000D+00 0.000000000000000D+00 -.210954946512992D+03
 0.158943635383757D+03 0.283255423116040D+02 -.929917028325754D+02 -.137217377199883D+02
 0.945136892868619D+02 0.176571870603312D+02 0.108408384211642D+02 0.137217377199883D+02
 0.110533914897023D+03 -.459827293719352D+02 0.821508644114112D+02 -.579186534583425D+02
0.129825163580D-02 0.000000000000D+00 0.000000000000D+00 0.217523007083D-02 0.000000000000D+00  5 -1 1 25 23 21 0 0.30640922D+00 0.10694102D-02 0.13652687D+05 0.13652687D+05 0.13652687D+05 0.12525092D+01  1  2  2  2  5  2        1 0.666818123599D-01 0.100000000000D+01
-.721208296974D-04 0.000000000000D+00 -.498562811899D-05 0.217523007083D-02 0.000000000000D+00  5 -1 1 25 23 21 2 0.30640922D+00 0.10694102D-02 0.13652687D+05 0.13652687D+05 0.13652687D+05 0.12525092D+01  1  2  3  2  5  2        1 -.581127043262D-02 0.100000000000D+01
0.899841141417D-04 0.000000000000D+00 0.000000000000D+00 0.217523007083D-02 0.000000000000D+00  5 -1 1 25 23 21 2 0.30640922D+00 0.10694102D-02 0.13652687D+05 0.13652687D+05 0.13652687D+05 0.12525092D+01  1  2 15  2  5  2        1 0.725063791018D-02 0.100000000000D+01
0.471735228343D-04 0.000000000000D+00 0.000000000000D+00 0.217523007083D-02 0.000000000000D+00  5 -1 1 25 23 21 2 0.30640922D+00 0.19735060D-02 0.29930206D+05 0.29930206D+05 0.29930206D+05 0.12150046D+01  1  2 12  2  5  2        1 0.151992454188D-02 0.100000000000D+01
-.367330283467D-03 0.000000000000D+00 -.475166776398D-03 0.217523007083D-02 0.000000000000D+00  5 -1 1 25 23 21 2 0.30640922D+00 0.26511958D-02 0.13652687D+05 0.13652687D+05 0.13652687D+05 0.12525092D+01  1  2  5  2  5  2        1 -.837688581113D-02 0.100000000000D+01
0.315427577570D-05 0.000000000000D+00 0.000000000000D+00 0.217523007083D-02 0.000000000000D+00  5 -1 21 25 23 -1 2 0.30640922D+00 0.19735060D-02 0.29930206D+05 0.29930206D+05 0.29930206D+05 0.12150046D+01  1  2 12  4  5  2        1 0.200036973340D-02 0.100000000000D+01
-.717169029847D-05 0.000000000000D+00 -.474251175108D-04 0.217523007083D-02 0.000000000000D+00  5 -1 21 25 23 -1 2 0.30640922D+00 0.26511958D-02 0.13652687D+05 0.13652687D+05 0.13652687D+05 0.12525092D+01  1  2  5  4  5  2        1 -.303884047932D-02 0.100000000000D+01
  </mgrwgt>
  </event>
  <event>
  4     66 0.43907321E-03 0.52621212E+02 0.75467711E-02 0.12051814E+00
       -1 -1    0    0    0  501 0.00000000E+00 0.00000000E+00 0.15859372E+02 0.15862600E+02 0.32000000E+00 0.0000E+00 0.9000E+01
        1 -1    0    0  501    0 0.00000000E+00 0.00000000E+00 -.12090965E+04 0.12090965E+04 0.32000000E+00 0.0000E+00 0.9000E+01
       25  1    1    2    0    0 -.80720973E+02 0.15299557E+02 -.76462027E+03 0.77911431E+03 0.12500000E+03 0.0000E+00 0.9000E+01
       23  1    1    2    0    0 0.80720973E+02 -.15299557E+02 -.42861686E+03 0.44584483E+03 0.91188000E+02 0.0000E+00 0.9000E+01
#aMCatNLO 1  0  0  2  1 0.19430372D+02 0.00000000D+00  -5  5  0 0.00000000D+00 0.00000000D+00 0.00000000D+00 0.00000000D+00 0.00000000D+00
  <mgrwgt>
 0.9958017764D-01    7    2    0
 0.138482903454142D+03 0.000000000000000D+00 0.000000000000000D+00 0.138482903454142D+03
 0.138482903454142D+03 0.000000000000000D+00 0.000000000000000D+00 -.138482903454142D+03
 0.151679024552261D+03 -.807209732652401D+02 0.152995574326697D+02 -.251311461458113D+02
 0.125286782356022D+03 0.807209732652401D+02 -.152995574326697D+02 0.251311461458113D+02
 0.000000000000000D+00 -.000000000000000D+00 0.000000000000000D+00 -.000000000000000D+00
 0.139208913399194D+03 0.000000000000000D+00 0.000000000000000D+00 0.139208913399194D+03
 0.383567620728660D+03 0.000000000000000D+00 0.000000000000000D+00 -.383567620728660D+03
 0.149046845736008D+03 -.769984199804425D+02 0.544343988362131D+01 -.251311461458113D+02
 0.128599687756220D+03 0.838637222158909D+02 -.236205405630554D+02 0.251311461458113D+02
 0.245130000635626D+03 -.686530223544839D+01 0.181771006794341D+02 -.244358707329466D+03
0.172296745697D-03 0.000000000000D+00 0.000000000000D+00 0.179745172733D-02 0.000000000000D+00  5 -1 1 25 23 21 0 0.24401550D-02 0.18601510D+00 0.18539952D+05 0.18539952D+05 0.18539952D+05 0.12374670D+01  1  2  2  2  5  2        1 0.972770005042D-01 0.100000000000D+01
-.956871536975D-05 0.000000000000D+00 -.661664870252D-06 0.179745172733D-02 0.000000000000D+00  5 -1 1 25 23 21 2 0.24401550D-02 0.18601510D+00 0.18539952D+05 0.18539952D+05 0.18539952D+05 0.12374670D+01  1  2  3  2  5  2        1 -.827282714508D-02 0.100000000000D+01
0.119394567191D-04 0.000000000000D+00 0.000000000000D+00 0.179745172733D-02 0.000000000000D+00  5 -1 1 25 23 21 2 0.24401550D-02 0.18601510D+00 0.18539952D+05 0.18539952D+05 0.18539952D+05 0.12374670D+01  1  2 15  2  5  2        1 0.103224997115D-01 0.100000000000D+01
0.601033535735D-02 0.000000000000D+00 0.000000000000D+00 0.179745172733D-02 0.000000000000D+00  5 -1 1 25 23 21 2 0.24401550D-02 0.51467468D+00 0.21383715D+05 0.21383715D+05 0.21383715D+05 0.12306403D+01  1  2 12  2  5  2        1 0.198654361779D+00 0.100000000000D+01
-.596554188599D-02 0.000000000000D+00 -.521228758923D-04 0.179745172733D-02 0.000000000000D+00  5 -1 1 25 23 21 2 0.24401550D-02 0.51557346D+00 0.18539952D+05 0.18539952D+05 0.18539952D+05 0.12374670D+01  1  2  5  2  5  2        1 -.198361584899D+00 0.100000000000D+01
0.685386191837D-03 0.000000000000D+00 0.000000000000D+00 0.179745172733D-02 0.000000000000D+00  5 -1 21 25 23 -1 2 0.24401550D-02 0.51467468D+00 0.21383715D+05 0.21383715D+05 0.21383715D+05 0.12306403D+01  1  2 12  4  5  2        1 0.746059719649D-02 0.100000000000D+01
-.678720644425D-03 0.000000000000D+00 -.595594092560D-05 0.179745172733D-02 0.000000000000D+00  5 -1 21 25 23 -1 2 0.24401550D-02 0.51557346D+00 0.18539952D+05 0.18539952D+05 0.18539952D+05 0.12374670D+01  1  2  5  4  5  2        1 -.749986950406D-02 0.100000000000D+01
  </mgrwgt>
  </event>
  <event>
  4     66 0.43907321E-03 0.91708565E+02 0.75467711E-02 0.11287699E+00
       -1 -1    0    0    0  501 0.00000000E+00 0.00000000E+00 0.38807916E+02 0.38809235E+02 0.32000000E+00 0.0000E+00 0.9000E+01
        1 -1    0    0  501    0 0.00000000E+00 0.00000000E+00 -.11882519E+04 0.11882519E+04 0.32000000E+00 0.0000E+00 0.9000E+01
       25  1    1    2    0    0 0.90793719E+02 -.14612670E+03 -.40329777E+03 0.45592829E+03 0.12500000E+03 0.0000E+00 0.9000E+01
       23  1    1    2    0    0 -.90793719E+02 0.14612670E+03 -.74614621E+03 0.77113289E+03 0.91188000E+02 0.0000E+00 0.9000E+01
#aMCatNLO 1  0  0  1  2 0.44245436D+02 0.00000000D+00  -5  5  0 0.00000000D+00 0.00000000D+00 0.00000000D+00 0.00000000D+00 0.00000000D+00
  <mgrwgt>
 0.1614634830D+00    9    2    0
 0.214742671855579D+03 0.000000000000000D+00 0.000000000000000D+00 0.214742671855579D+03
 0.214742671855579D+03 0.000000000000000D+00 0.000000000000000D+00 -.214742671855579D+03
 0.223252564874089D+03 0.907937186431514D+02 -.146126698377661D+03 0.679720265922073D+02
 0.206232778837069D+03 -.907937186431514D+02 0.146126698377661D+03 -.679720265922073D+02
 0.000000000000000D+00 0.000000000000000D+00 -.000000000000000D+00 0.000000000000000D+00
 0.262223619447489D+03 0.000000000000000D+00 0.000000000000000D+00 0.262223619447489D+03
 0.226439581533642D+03 0.000000000000000D+00 0.000000000000000D+00 -.226439581533642D+03
 0.206711014970710D+03 0.791561151320508D+02 -.127352097542093D+03 0.679720265922073D+02
 0.225047388607843D+03 -.102466957555007D+03 0.164958788749124D+03 -.679720265922073D+02
 0.569047974025786D+02 0.233108424229559D+02 -.376066912070312D+02 0.357840379138470D+02
0.881065107361D-03 0.000000000000D+00 0.000000000000D+00 0.128844773751D-02 0.000000000000D+00  5 -1 1 25 23 21 0 0.59705534D-02 0.18280809D+00 0.41486140D+05 0.41486140D+05 0.41486140D+05 0.12003947D+01  1  2  2  1  5  1       -1 0.138476923226D+00 0.100000000000D+01
-.487816241393D-04 0.000000000000D+00 -.338352200204D-05 0.128844773751D-02 0.000000000000D+00  5 -1 1 25 23 21 2 0.59705534D-02 0.18280809D+00 0.41486140D+05 0.41486140D+05 0.41486140D+05 0.12003947D+01  1  2  3  1  5  1       -1 -.110477494340D-01 0.100000000000D+01
0.607425650146D-04 0.000000000000D+00 0.000000000000D+00 0.128844773751D-02 0.000000000000D+00  5 -1 1 25 23 21 2 0.59705534D-02 0.18280809D+00 0.41486140D+05 0.41486140D+05 0.41486140D+05 0.12003947D+01  1  2 15  1  5  1       -1 0.137565866266D-01 0.100000000000D+01
0.124019788169D-02 0.000000000000D+00 0.000000000000D+00 0.128844773751D-02 0.000000000000D+00  5 -1 1 25 23 21 2 0.74273388D-02 0.18280809D+00 0.51528625D+05 0.51528625D+05 0.51528625D+05 0.11909887D+01  1  2 12  1  5  1       -1 0.198610158882D+00 0.100000000000D+01
-.126869854839D-02 0.000000000000D+00 0.000000000000D+00 0.128844773751D-02 0.000000000000D+00  5 -1 1 25 23 21 2 0.59705534D-02 0.18280809D+00 0.41486140D+05 0.41486140D+05 0.41486140D+05 0.12003947D+01  1  2  4  1  5  1       -1 -.287326711997D+00 0.100000000000D+01
-.211409855591D-02 0.000000000000D+00 -.491378770834D-03 0.128844773751D-02 0.000000000000D+00  5 -1 1 25 23 21 2 0.76947904D-02 0.18280809D+00 0.41486140D+05 0.41486140D+05 0.41486140D+05 0.12003947D+01  1  2  5  1  5  1       -1 -.326209261971D+00 0.100000000000D+01
0.218351451358D-02 0.000000000000D+00 0.475978102998D-03 0.128844773751D-02 0.000000000000D+00  5 -1 1 25 23 21 2 0.59705534D-02 0.18280809D+00 0.41486140D+05 0.41486140D+05 0.41486140D+05 0.12003947D+01  1  2  6  1  5  1       -1 0.494508365745D+00 0.100000000000D+01
0.379385838351D-04 0.000000000000D+00 0.000000000000D+00 0.128844773751D-02 0.000000000000D+00  5 21 1 25 23 1 2 0.74273388D-02 0.18280809D+00 0.51528625D+05 0.51528625D+05 0.51528625D+05 0.11909887D+01  1  2 12  3  5  1       -1 0.960064595894D-01 0.100000000000D+01
-.638921616529D-04 0.000000000000D+00 -.168110542497D-04 0.128844773751D-02 0.000000000000D+00  5 21 1 25 23 1 2 0.76947904D-02 0.18280809D+00 0.41486140D+05 0.41486140D+05 0.41486140D+05 0.12003947D+01  1  2  5  3  5  1       -1 -.155311287629D+00 0.100000000000D+01
  </mgrwgt>
  </event>
  <event>
  5     66 0.43907321E-03 0.11065828E+03 0.75467711E-02 0.12441466E+00
       -1 -1    0    0    0  501 0.00000000E+00 0.00000000E+00 0.81756988E+03 0.81756994E+03 0.32000000E+00 0.0000E+00 0.9000E+01
       21 -1    0    0  501  502 0.00000000E+00 0.00000000E+00 -.17610584E+02 0.17626547E+02 0.75000000E+00 0.0000E+00 0.9000E+01
       25  1    1    2    0    0 -.16486819E+02 0.54241633E+01 0.42053822E+03 0.43906564E+03 0.12500000E+03 0.0000E+00 0.9000E+01
       23  1    1    2    0    0 0.19247268E+02 -.21975435E+02 0.29828335E+03 0.31327557E+03 0.91188000E+02 0.0000E+00 0.9000E+01
       -1  1    1    2    0  502 -.27604493E+01 0.16551272E+02 0.81137724E+02 0.82855279E+02 0.32000000E+00 0.0000E+00 0.9000E+01
#aMCatNLO 2  0  0  2  2 0.16779889D+02 0.00000000D+00  -5  5  0 0.00000000D+00 0.00000000D+00 0.00000000D+00 0.00000000D+00 0.00000000D+00
  <mgrwgt>
 0.5506508539D-01    1    2    0
 0.110715039232254D+03 0.000000000000000D+00 0.000000000000000D+00 0.110715039232254D+03
 0.110715039232254D+03 0.000000000000000D+00 0.000000000000000D+00 -.110715039232254D+03
 0.127220810956423D+03 -.180644857411453D+02 0.148836353538548D+02 0.350520954742420D+01
 0.942092675080850D+02 0.180644857411453D+02 -.148836353538548D+02 -.350520954742420D+01
 0.000000000000000D+00 -.000000000000000D+00 0.000000000000000D+00 0.000000000000000D+00
 0.123407983904825D+03 0.000000000000000D+00 0.000000000000000D+00 0.123407983904825D+03
 0.116720420022389D+03 0.000000000000000D+00 0.000000000000000D+00 -.116720420022389D+03
 0.126247864286920D+03 -.164868188368241D+02 0.542416331602475D+01 0.350520954742420D+01
 0.958170908923812D+02 0.192472681749482D+02 -.219754348514226D+02 -.350520954742420D+01
 0.180634487479130D+02 -.276044933812412D+01 0.165512715353978D+02 0.668756388243571D+01
0.854384565523D-05 0.000000000000D+00 0.000000000000D+00 0.238184626552D-02 0.701423334894D-06  5 -1 21 25 23 -1 2 0.12577971D+00 0.27105210D-02 0.14248247D+05 0.14248247D+05 0.14248247D+05 0.12503762D+01  1  2  1  4  5  2        1 0.550650853915D-01 0.100000000000D+01
  </mgrwgt>
  </event>
  <event>
  4     66 0.43907321E-03 0.10900277E+03 0.75467711E-02 0.12316365E+00
       -1 -1    0    0    0  501 0.00000000E+00 0.00000000E+00 0.45461532E+02 0.45462658E+02 0.32000000E+00 0.0000E+00 0.9000E+01
        1 -1    0    0  501    0 0.00000000E+00 0.00000000E+00 -.27196984E+03 0.27197002E+03 0.32000000E+00 0.0000E+00 0.9000E+01
       25  1    1    2    0    0 0.35085764E+01 -.13425204E+02 -.16099656E+03 0.20429742E+03 0.12500000E+03 0.0000E+00 0.9000E+01
       23  1    1    2    0    0 -.35085764E+01 0.13425204E+02 -.65511747E+02 0.11313526E+03 0.91188000E+02 0.0000E+00 0.9000E+01
#aMCatNLO 1  0  0  2  2 0.33816298D+02 0.00000000D+00  -5  5  0 0.00000000D+00 0.00000000D+00 0.00000000D+00 0.00000000D+00 0.00000000D+00
  <mgrwgt>
 0.1693722885D+00    3    2    0
 0.111195206605409D+03 0.000000000000000D+00 0.000000000000000D+00 0.111195206605409D+03
 0.111195206605409D+03 0.000000000000000D+00 0.000000000000000D+00 -.111195206605409D+03
 0.127629702477923D+03 0.350857636062413D+01 -.134252038792603D+02 -.217208367086803D+02
 0.947607107328939D+02 -.350857636062413D+01 0.134252038792603D+02 0.217208367086803D+02
 0.000000000000000D+00 0.000000000000000D+00 -.000000000000000D+00 0.000000000000000D+00
 0.280286354532118D+03 0.000000000000000D+00 0.000000000000000D+00 0.280286354532118D+03
 0.114176968083304D+03 0.000000000000000D+00 0.000000000000000D+00 -.114176968083304D+03
 0.127768599349927D+03 -.140785949896672D+02 -.546016443285847D+01 -.217208367086803D+02
 0.971781451709757D+02 -.167258198716463D+02 0.194111503308621D+02 0.217208367086803D+02
 0.169516578094520D+03 0.308044148613135D+02 -.139509858980036D+02 0.166109386448813D+03
0.170064130060D-03 0.000000000000D+00 0.000000000000D+00 0.230436345644D-02 0.000000000000D+00  5 -1 1 25 23 21 0 0.69941829D-02 0.41841614D-01 0.11881605D+05 0.11881605D+05 0.11881605D+05 0.12595291D+01  1  2  2  2  5  2        1 0.165865795873D+00 0.100000000000D+01
-.944345172686D-05 0.000000000000D+00 -.653091038343D-06 0.230436345644D-02 0.000000000000D+00  5 -1 1 25 23 21 2 0.69941829D-02 0.41841614D-01 0.11881605D+05 0.11881605D+05 0.11881605D+05 0.12595291D+01  1  2  3  2  5  2        1 -.146113817360D-01 0.100000000000D+01
0.117097256662D-04 0.000000000000D+00 0.000000000000D+00 0.230436345644D-02 0.000000000000D+00  5 -1 1 25 23 21 2 0.69941829D-02 0.41841614D-01 0.11881605D+05 0.11881605D+05 0.11881605D+05 0.12595291D+01  1  2 15  2  5  2        1 0.181178743410D-01 0.100000000000D+01
  </mgrwgt>
  </event>
  <event>
  5     66 0.43907321E-03 0.16369264E+03 0.75467711E-02 0.11695953E+00
       -3 -1    0    0    0  501 0.00000000E+00 0.00000000E+00 0.77147341E+02 0.77148961E+02 0.50000000E+00 0.0000E+00 0.9000E+01
       21 -1    0    0  501  502 0.00000000E+00 0.00000000E+00 -.43985609E+03 0.43985673E+03 0.75000000E+00 0.0000E+00 0.9000E+01
       25  1    1    2    0    0 -.59381103E+02 -.11924968E+03 -.12442116E+03 0.22102540E+03 0.12500000E+03 0.0000E+00 0.9000E+01
       23  1    1    2    0    0 0.33621001E+02 0.10867998E+03 -.21447699E+03 0.25934020E+03 0.91188000E+02 0.0000E+00 0.9000E+01
       -3  1    1    2    0  502 0.25760101E+02 0.10569697E+02 -.23810599E+02 0.36640087E+02 0.50000000E+00 0.0000E+00 0.9000E+01
#aMCatNLO 2  0  0  2  1 0.27844233D+02 0.00000000D+00  -5  5  0 0.00000000D+00 0.00000000D+00 0.00000000D+00 0.00000000D+00 0.00000000D+00
  <mgrwgt>
 0.1742071770D-02    2    2    0
 0.169649531965360D+03 0.000000000000000D+00 0.000000000000000D+00 0.169649531965360D+03
 0.169649531965360D+03 0.000000000000000D+00 0.000000000000000D+00 -.169649531965360D+03
 0.180421369310442D+03 -.454185422512098D+02 -.113520664820031D+03 0.444644260330438D+02
 0.158877694620279D+03 0.454185422512098D+02 0.113520664820031D+03 -.444644260330438D+02
 0.000000000000000D+00 0.000000000000000D+00 0.000000000000000D+00 0.000000000000000D+00
 0.185654573932521D+03 0.000000000000000D+00 0.000000000000000D+00 0.185654573932521D+03
 0.182777550734768D+03 0.000000000000000D+00 0.000000000000000D+00 -.182777550734768D+03
 0.188012464769839D+03 -.593811026539831D+02 -.119249680812901D+03 0.444644260330438D+02
 0.152427186407664D+03 0.336210014094974D+02 0.108679983869760D+03 -.444644260330438D+02
 0.279924734897870D+02 0.257601012444858D+02 0.105696969431418D+02 0.287702319775301D+01
-.986079778495D-05 0.000000000000D+00 0.000000000000D+00 0.149406632365D-02 0.000000000000D+00  5 -3 21 25 23 -3 2 0.10845653D-01 0.70392122D-01 0.31741140D+05 0.31741140D+05 0.31741140D+05 0.12123353D+01  1  2 13  4  5  2        3 -.840310539671D-02 0.100000000000D+01
0.127018475264D-04 0.000000000000D+00 0.000000000000D+00 0.149406632365D-02 0.207190421140D-06  5 -3 21 25 23 -3 2 0.11868852D-01 0.67669520D-01 0.31741140D+05 0.31741140D+05 0.31741140D+05 0.12123353D+01  1  2  1  4  5  2        3 0.101451771666D-01 0.100000000000D+01
  </mgrwgt>
  </event>
  <event>
  4     66 0.43907321E-03 0.76119380E+02 0.75467711E-02 0.12139693E+00
       -1 -1    0    0    0  501 0.00000000E+00 0.00000000E+00 0.19679125E+02 0.19681727E+02 0.32000000E+00 0.0000E+00 0.9000E+01
        1 -1    0    0  501    0 0.00000000E+00 0.00000000E+00 -.10378658E+04 0.10378659E+04 0.32000000E+00 0.0000E+00 0.9000E+01
       25  1    1    2    0    0 -.16270583E+00 -.34014177E+02 -.87424403E+03 0.88378991E+03 0.12500000E+03 0.0000E+00 0.9000E+01
       23  1    1    2    0    0 0.16270583E+00 0.34014177E+02 -.14394269E+03 0.17375770E+03 0.91188000E+02 0.0000E+00 0.9000E+01
#aMCatNLO 1  0  0  2  1 0.47202348D+02 0.00000000D+00  -5  5  0 0.00000000D+00 0.00000000D+00 0.00000000D+00 0.00000000D+00 0.00000000D+00
  <mgrwgt>
 0.1236911003D+00    9    2    0
 0.142918485608675D+03 0.000000000000000D+00 0.000000000000000D+00 0.142918485608675D+03
 0.142918485608675D+03 0.000000000000000D+00 0.000000000000000D+00 -.142918485608675D+03
 0.155705055213140D+03 -.162705833728504D+00 -.340141774670764D+02 -.863832939692436D+02
 0.130131916004210D+03 0.162705833728504D+00 0.340141774670764D+02 0.863832939692436D+02
 0.000000000000000D+00 -.000000000000000D+00 -.000000000000000D+00 -.000000000000000D+00
 0.151484579481927D+03 0.000000000000000D+00 0.000000000000000D+00 0.151484579481927D+03
 0.228862353254083D+03 0.000000000000000D+00 0.000000000000000D+00 -.228862353254083D+03
 0.156959202890337D+03 0.251997436088641D+02 -.302339348587120D+02 -.863832939692436D+02
 0.132748987862215D+03 0.214868689285991D+02 0.371925183485990D+02 0.863832939692436D+02
 0.906387419834582D+02 -.466866125374632D+02 -.695858348988699D+01 -.773777737721561D+02
0.233367699764D-03 0.000000000000D+00 0.000000000000D+00 0.126504486996D-02 0.000000000000D+00  5 -1 1 25 23 21 0 0.30277616D-02 0.15967187D+00 0.12867586D+05 0.12867586D+05 0.12867586D+05 0.12554866D+01  1  2  2  2  5  2        1 0.125930736591D+00 0.100000000000D+01
-.121234226007D-04 0.000000000000D+00 -.896193414218D-06 0.126504486996D-02 0.000000000000D+00  5 -1 1 25 23 21 2 0.30277616D-02 0.15967187D+00 0.12867586D+05 0.12867586D+05 0.12867586D+05 0.12554866D+01  1  2  3  2  5  2        1 -.103119402408D-01 0.100000000000D+01
0.160256672896D-04 0.000000000000D+00 0.000000000000D+00 0.126504486996D-02 0.000000000000D+00  5 -1 1 25 23 21 2 0.30277616D-02 0.15967187D+00 0.12867586D+05 0.12867586D+05 0.12867586D+05 0.12554866D+01  1  2 15  2  5  2        1 0.136311113497D-01 0.100000000000D+01
0.319715085181D-03 0.000000000000D+00 0.000000000000D+00 0.126504486996D-02 0.000000000000D+00  5 -1 1 25 23 21 2 0.30277616D-02 0.25807164D+00 0.19467271D+05 0.19467271D+05 0.19467271D+05 0.12351189D+01  1  2 12  2  5  2        1 0.992832086281D-01 0.100000000000D+01
-.386063002577D-03 0.000000000000D+00 0.000000000000D+00 0.126504486996D-02 0.000000000000D+00  5 -1 1 25 23 21 2 0.30277616D-02 0.15967187D+00 0.12867586D+05 0.12867586D+05 0.12867586D+05 0.12554866D+01  1  2  4  2  5  2        1 -.328377451061D+00 0.100000000000D+01
-.414909907037D-03 0.000000000000D+00 -.859800357355D-04 0.126504486996D-02 0.000000000000D+00  5 -1 1 25 23 21 2 0.30277616D-02 0.26120115D+00 0.12867586D+05 0.12867586D+05 0.12867586D+05 0.12554866D+01  1  2  5  2  5  2        1 -.129098874283D+00 0.100000000000D+01
0.415353913658D-03 0.000000000000D+00 0.765232703289D-04 0.126504486996D-02 0.000000000000D+00  5 -1 1 25 23 21 2 0.30277616D-02 0.15967187D+00 0.12867586D+05 0.12867586D+05 0.12867586D+05 0.12554866D+01  1  2  6  2  5  2        1 0.353291712868D+00 0.100000000000D+01
0.174611773396D-04 0.000000000000D+00 0.000000000000D+00 0.126504486996D-02 0.000000000000D+00  5 -1 21 25 23 -1 2 0.30277616D-02 0.25807164D+00 0.19467271D+05 0.19467271D+05 0.19467271D+05 0.12351189D+01  1  2 12  4  5  2        1 0.539026036590D-02 0.100000000000D+01
-.192948913574D-04 0.000000000000D+00 -.478774016500D-05 0.126504486996D-02 0.000000000000D+00  5 -1 21 25 23 -1 2 0.30277616D-02 0.26120115D+00 0.12867586D+05 0.12867586D+05 0.12867586D+05 0.12554866D+01  1  2  5  4  5  2        1 -.604766390825D-02 0.100000000000D+01
  </mgrwgt>
  </event>
  <event>
  4     66 0.43907321E-03 0.55630764E+02 0.75467711E-02 0.11896621E+00
       -1 -1    0    0    0  501 0.00000000E+00 0.00000000E+00 0.15108221E+02 0.15111609E+02 0.32000000E+00 0.0000E+00 0.9000E+01
        1 -1    0    0  501    0 0.00000000E+00 0.00000000E+00 -.14968769E+04 0.14968769E+04 0.32000000E+00 0.0000E+00 0.9000E+01
       25  1    1    2    0    0 -.55542905E+02 -.40155229E+02 -.40820828E+03 0.43238462E+03 0.12500000E+03 0.0000E+00 0.9000E+01
       23  1    1    2    0    0 0.55542905E+02 0.40155229E+02 -.10735603E+04 0.10796039E+04 0.91188000E+02 0.0000E+00 0.9000E+01
#aMCatNLO 1  0  0  2  1 0.55381565D+02 0.00000000D+00  -5  5  0 0.00000000D+00 0.00000000D+00 0.00000000D+00 0.00000000D+00 0.00000000D+00
  <mgrwgt>
 0.2179413283D+00    9    2    0
 0.150391932943401D+03 0.000000000000000D+00 0.000000000000000D+00 0.150391932943401D+03
 0.150391932943401D+03 0.000000000000000D+00 0.000000000000000D+00 -.150391932943401D+03
 0.162543097758124D+03 -.555429052974890D+02 -.401552291913632D+02 0.780884233962388D+02
 0.138240768128678D+03 0.555429052974890D+02 0.401552291913632D+02 -.780884233962388D+02
 0.000000000000000D+00 -.000000000000000D+00 -.000000000000000D+00 -.000000000000000D+00
 0.172712921225240D+03 0.000000000000000D+00 0.000000000000000D+00 0.172712921225240D+03
 0.191659954787151D+03 0.000000000000000D+00 0.000000000000000D+00 -.191659954787151D+03
 0.156946048503496D+03 -.527790948519611D+02 -.111187867575149D+02 0.780884233962388D+02
 0.148893863497769D+03 0.580268259672451D+02 0.662511648422050D+02 -.780884233962388D+02
 0.585329640111255D+02 -.524773111528401D+01 -.551323780846901D+02 -.189470335619111D+02
0.358574034690D-03 0.000000000000D+00 0.000000000000D+00 0.134024069670D-02 0.000000000000D+00  5 -1 1 25 23 21 0 0.23246049D-02 0.23028901D+00 0.16464754D+05 0.16464754D+05 0.16464754D+05 0.12432358D+01  1  2  2  2  5  2        1 0.139762809295D+00 0.100000000000D+01
-.193103312600D-04 0.000000000000D+00 -.137701870792D-05 0.134024069670D-02 0.000000000000D+00  5 -1 1 25 23 21 2 0.23246049D-02 0.23028901D+00 0.16464754D+05 0.16464754D+05 0.16464754D+05 0.12432358D+01  1  2  3  2  5  2        1 -.116334770104D-01 0.100000000000D+01
0.245881161958D-04 0.000000000000D+00 0.000000000000D+00 0.134024069670D-02 0.000000000000D+00  5 -1 1 25 23 21 2 0.23246049D-02 0.23028901D+00 0.16464754D+05 0.16464754D+05 0.16464754D+05 0.12432358D+01  1  2 15  2  5  2        1 0.148130697832D-01 0.100000000000D+01
0.190249340222D-03 0.000000000000D+00 0.000000000000D+00 0.134024069670D-02 0.000000000000D+00  5 -1 1 25 23 21 2 0.23246049D-02 0.30679803D+00 0.25328069D+05 0.25328069D+05 0.25328069D+05 0.12226911D+01  1  2 12  2  5  2        1 0.533918064824D-01 0.100000000000D+01
-.238370196429D-03 0.000000000000D+00 0.000000000000D+00 0.134024069670D-02 0.000000000000D+00  5 -1 1 25 23 21 2 0.23246049D-02 0.23028901D+00 0.16464754D+05 0.16464754D+05 0.16464754D+05 0.12432358D+01  1  2  4  2  5  2        1 -.143605729118D+00 0.100000000000D+01
-.438027489103D-03 0.000000000000D+00 -.164683702630D-03 0.134024069670D-02 0.000000000000D+00  5 -1 1 25 23 21 2 0.23246049D-02 0.31396244D+00 0.16464754D+05 0.16464754D+05 0.16464754D+05 0.12432358D+01  1  2  5  2  5  2        1 -.118815645361D+00 0.100000000000D+01
0.473737711031D-03 0.000000000000D+00 0.157078496768D-03 0.134024069670D-02 0.000000000000D+00  5 -1 1 25 23 21 2 0.23246049D-02 0.23028901D+00 0.16464754D+05 0.16464754D+05 0.16464754D+05 0.12432358D+01  1  2  6  2  5  2        1 0.285402497555D+00 0.100000000000D+01
0.711946470156D-05 0.000000000000D+00 0.000000000000D+00 0.134024069670D-02 0.000000000000D+00  5 -1 21 25 23 -1 2 0.23246049D-02 0.30679803D+00 0.25328069D+05 0.25328069D+05 0.25328069D+05 0.12226911D+01  1  2 12  4  5  2        1 0.164345872925D-02 0.100000000000D+01
-.134523340234D-04 0.000000000000D+00 -.651742762606D-05 0.134024069670D-02 0.000000000000D+00  5 -1 21 25 23 -1 2 0.23246049D-02 0.31396244D+00 0.16464754D+05 0.16464754D+05 0.16464754D+05 0.12432358D+01  1  2  5  4  5  2        1 -.301746206207D-02 0.100000000000D+01
  </mgrwgt>
  </event>
  <event>
  4     66 0.43907321E-03 0.12836181E+03 0.75467711E-02 0.11024877E+00
       -1 -1    0    0    0  501 0.00000000E+00 0.00000000E+00 0.84346767E+02 0.84347374E+02 0.32000000E+00 0.0000E+00 0.9000E+01
        1 -1    0    0  501    0 0.00000000E+00 0.00000000E+00 -.22255124E+03 0.22255147E+03 0.32000000E+00 0.0000E+00 0.9000E+01
       25  1    1    2    0    0 0.14310705E+01 0.68609480E+02 -.12919172E+03 0.19241832E+03 0.12500000E+03 0.0000E+00 0.9000E+01
       23  1    1    2    0    0 -.14310705E+01 -.68609480E+02 -.90127484E+01 0.11448052E+03 0.91188000E+02 0.0000E+00 0.9000E+01
#aMCatNLO 1  0  0  2  1 0.20659889D+03 0.00000000D+00  -5  5  0 0.00000000D+00 0.00000000D+00 0.00000000D+00 0.00000000D+00 0.00000000D+00
  <mgrwgt>
 0.9459846987D-01    5    2    0
 0.137009509026280D+03 0.000000000000000D+00 0.000000000000000D+00 0.137009509026280D+03
 0.137009509026280D+03 0.000000000000000D+00 0.000000000000000D+00 -.137009509026280D+03
 0.150347540648957D+03 0.143107045289298D+01 0.686094795047894D+02 -.476452971302586D+02
 0.123671477403603D+03 -.143107045289298D+01 -.686094795047894D+02 0.476452971302586D+02
 0.000000000000000D+00 0.000000000000000D+00 -.000000000000000D+00 -.000000000000000D+00
 0.185797506433060D+03 0.000000000000000D+00 0.000000000000000D+00 0.185797506433060D+03
 0.922538647007308D+03 0.000000000000000D+00 0.000000000000000D+00 -.922538647007308D+03
 0.201790094422697D+03 -.111695084259607D+03 0.101726968011091D+03 -.476452971302586D+02
 0.141385548048919D+03 -.865820997169924D+02 -.436816611755949D+02 0.476452971302586D+02
 0.765160510968752D+03 0.198277183976600D+03 -.580453068354961D+02 -.736741140574248D+03
0.218699669756D-03 0.000000000000D+00 0.000000000000D+00 0.168489174255D-02 0.000000000000D+00  5 -1 1 25 23 21 0 0.12976490D-01 0.34238716D-01 0.16476753D+05 0.16476753D+05 0.16476753D+05 0.12432002D+01  1  2  2  2  5  2        1 0.108122970357D+00 0.100000000000D+01
-.120871876299D-04 0.000000000000D+00 -.839864316809D-06 0.168489174255D-02 0.000000000000D+00  5 -1 1 25 23 21 2 0.12976490D-01 0.34238716D-01 0.16476753D+05 0.16476753D+05 0.16476753D+05 0.12432002D+01  1  2  3  2  5  2        1 -.923585740042D-02 0.100000000000D+01
0.150854670966D-04 0.000000000000D+00 0.000000000000D+00 0.168489174255D-02 0.000000000000D+00  5 -1 1 25 23 21 2 0.12976490D-01 0.34238716D-01 0.16476753D+05 0.16476753D+05 0.16476753D+05 0.12432002D+01  1  2 15  2  5  2        1 0.115268520013D-01 0.100000000000D+01
-.358761702807D-03 0.000000000000D+00 -.143753185872D-03 0.168489174255D-02 0.000000000000D+00  5 -1 1 25 23 21 2 0.12976490D-01 0.26277706D+00 0.16476753D+05 0.16476753D+05 0.16476753D+05 0.12432002D+01  1  2  5  2  5  2        1 -.122693577105D-01 0.100000000000D+01
-.105046487836D-03 0.000000000000D+00 -.356526983062D-04 0.168489174255D-02 0.000000000000D+00  5 -1 21 25 23 -1 2 0.12976490D-01 0.26277706D+00 0.16476753D+05 0.16476753D+05 0.16476753D+05 0.12432002D+01  1  2  5  4  5  2        1 -.354613737564D-02 0.100000000000D+01
  </mgrwgt>
  </event>
  <event>
  4     66 0.43907321E-03 0.13586607E+03 0.75467711E-02 0.11197990E+00
       -1 -1    0    0    0  501 0.00000000E+00 0.00000000E+00 0.10274651E+02 0.10279633E+02 0.32000000E+00 0.0000E+00 0.9000E+01
        1 -1    0    0  501    0 0.00000000E+00 0.00000000E+00 -.19644685E+04 0.19644686E+04 0.32000000E+00 0.0000E+00 0.9000E+01
       25  1    1    2    0    0 0.66474708E+02 0.47449833E+02 -.13532388E+04 0.13614516E+04 0.12500000E+03 0.0000E+00 0.9000E+01
       23  1    1    2    0    0 -.66474708E+02 -.47449833E+02 -.60095510E+03 0.61329655E+03 0.91188000E+02 0.0000E+00 0.9000E+01
#aMCatNLO 1  0  0  2  1 0.16307559D+03 0.00000000D+00  -5  5  0 0.00000000D+00 0.00000000D+00 0.00000000D+00 0.00000000D+00 0.00000000D+00
  <mgrwgt>
 0.1661980071D+00    5    2    0
 0.142088608582253D+03 0.000000000000000D+00 0.000000000000000D+00 0.142088608582253D+03
 0.142088608582253D+03 0.000000000000000D+00 0.000000000000000D+00 -.142088608582253D+03
 0.154949858912128D+03 0.664747077731933D+02 0.474498326344315D+02 -.414015142998600D+02
 0.129227358252378D+03 -.664747077731933D+02 -.474498326344315D+02 0.414015142998600D+02
 0.000000000000000D+00 0.000000000000000D+00 -.000000000000000D+00 -.000000000000000D+00
 0.194230723996149D+03 0.000000000000000D+00 0.000000000000000D+00 0.194230723996149D+03
 0.382455460603184D+03 0.000000000000000D+00 0.000000000000000D+00 -.382455460603184D+03
 0.179140965024913D+03 0.155008769979061D+02 0.120466272358828D+03 -.414015142998600D+02
 0.148502651975262D+03 -.108849300333779D+03 0.132488010857927D+02 0.414015142998600D+02
 0.249042567599158D+03 0.933484233358730D+02 -.133715073444621D+03 -.188224736607035D+03
0.476352702791D-03 0.000000000000D+00 0.000000000000D+00 0.168102954942D-02 0.000000000000D+00  5 -1 1 25 23 21 0 0.15811007D-02 0.30222631D+00 0.18459589D+05 0.18459589D+05 0.18459589D+05 0.12376766D+01  1  2  2  2  5  2        1 0.162874823442D+00 0.100000000000D+01
-.263995137491D-04 0.000000000000D+00 -.182931980527D-05 0.168102954942D-02 0.000000000000D+00  5 -1 1 25 23 21 2 0.15811007D-02 0.30222631D+00 0.18459589D+05 0.18459589D+05 0.18459589D+05 0.12376766D+01  1  2  3  2  5  2        1 -.138272435785D-01 0.100000000000D+01
0.328859348156D-04 0.000000000000D+00 0.000000000000D+00 0.168102954942D-02 0.000000000000D+00  5 -1 1 25 23 21 2 0.15811007D-02 0.30222631D+00 0.18459589D+05 0.18459589D+05 0.18459589D+05 0.12376766D+01  1  2 15  2  5  2        1 0.172246290339D-01 0.100000000000D+01
-.132324724687D-03 0.000000000000D+00 -.123385715567D-03 0.168102954942D-02 0.000000000000D+00  5 -1 1 25 23 21 2 0.15811007D-02 0.83277199D+00 0.18459589D+05 0.18459589D+05 0.18459589D+05 0.12376766D+01  1  2  5  2  5  2        1 -.740202380940D-04 0.100000000000D+01
-.799420173939D-05 0.000000000000D+00 -.140024738428D-04 0.168102954942D-02 0.000000000000D+00  5 -1 21 25 23 -1 2 0.15811007D-02 0.83277199D+00 0.18459589D+05 0.18459589D+05 0.18459589D+05 0.12376766D+01  1  2  5  4  5  2        1 -.181522851135D-06 0.100000000000D+01
  </mgrwgt>
  </event>
  <event>
  5     66 0.43907321E-03 0.13299264E+03 0.75467711E-02 0.11582394E+00
       -1 -1    0    0    0  501 0.00000000E+00 0.00000000E+00 0.50771851E+03 0.50771861E+03 0.32000000E+00 0.0000E+00 0.9000E+01
        1 -1    0    0  502    0 0.00000000E+00 0.00000000E+00 -.86197093E+02 0.86197687E+02 0.32000000E+00 0.0000E+00 0.9000E+01
       25  1    1    2    0    0 -.53143461E+02 -.12452824E+03 0.26450480E+03 0.32236516E+03 0.12500000E+03 0.0000E+00 0.9000E+01
       23  1    1    2    0    0 0.18605442E+02 0.33588910E+02 0.14207148E+03 0.17312982E+03 0.91188000E+02 0.0000E+00 0.9000E+01
       21  1    1    2  502  501 0.34538019E+02 0.90939327E+02 0.14945139E+02 0.98421317E+02 0.75000000E+00 0.0000E+00 0.9000E+01
#aMCatNLO 2  0  0  2  1 0.97277109D+02 0.00000000D+00  -5  5  0 0.00000000D+00 0.00000000D+00 0.00000000D+00 0.00000000D+00 0.00000000D+00
  <mgrwgt>
 0.3386765389D-01    2    2    0
 0.132992640588780D+03 0.000000000000000D+00 0.000000000000000D+00 0.132992640588780D+03
 0.132992640588780D+03 0.000000000000000D+00 0.000000000000000D+00 -.132992640588780D+03
 0.146733529978671D+03 -.323271981787898D+02 -.697185824383112D+02 -.184581500720551D-01
 0.119251751198889D+03 0.323271981787898D+02 0.697185824383112D+02 0.184581500720551D-01
 0.000000000000000D+00 0.000000000000000D+00 0.000000000000000D+00 -.000000000000000D+00
 0.159403218995380D+03 0.000000000000000D+00 0.000000000000000D+00 0.159403218995380D+03
 0.274546488279807D+03 0.000000000000000D+00 0.000000000000000D+00 -.274546488279807D+03
 0.184272921784280D+03 -.531434607632404D+02 -.124528237521930D+03 -.184581500720551D-01
 0.989425541855489D+02 0.186054416053954D+02 0.335889101747169D+02 0.184581500720551D-01
 0.150734231305358D+03 0.345380191578450D+02 0.909393273472127D+02 -.115143269284427D+03
-.552253766037D-04 0.000000000000D+00 0.000000000000D+00 0.191763757129D-02 0.000000000000D+00  5 -1 1 25 23 21 2 0.65168559D-01 0.13285980D-01 0.36193651D+05 0.36193651D+05 0.36193651D+05 0.12064355D+01  1  2 13  2  5  2        1 -.864209066587D-02 0.100000000000D+01
0.389262660828D-03 0.000000000000D+00 0.000000000000D+00 0.191763757129D-02 0.199051367531D-05  5 -1 1 25 23 21 2 0.78110172D-01 0.13261073D-01 0.36193651D+05 0.36193651D+05 0.36193651D+05 0.12064355D+01  1  2  1  2  5  2        1 0.425097445561D-01 0.100000000000D+01
  </mgrwgt>
  </event>
  <event>
  4     66 0.43907321E-03 0.11076008E+03 0.75467711E-02 0.11330916E+00
       -1 -1    0    0    0  501 0.00000000E+00 0.00000000E+00 0.33496125E+01 0.33648631E+01 0.32000000E+00 0.0000E+00 0.9000E+01
        1 -1    0    0  501    0 0.00000000E+00 0.00000000E+00 -.36581249E+04 0.36581250E+04 0.32000000E+00 0.0000E+00 0.9000E+01
       25  1    1    2    0    0 -.20759474E+02 -.11786973E+02 -.20393881E+04 0.20433548E+04 0.12500000E+03 0.0000E+00 0.9000E+01
       23  1    1    2    0    0 0.20759474E+02 0.11786973E+02 -.16153872E+04 0.16181351E+04 0.91188000E+02 0.0000E+00 0.9000E+01
#aMCatNLO 1  0  0  2  1 0.16556971D+03 0.00000000D+00  -5  5  0 0.00000000D+00 0.00000000D+00 0.00000000D+00 0.00000000D+00 0.00000000D+00
  <mgrwgt>
 0.8589429709D-01    3    2    0
 0.110820785527167D+03 0.000000000000000D+00 0.000000000000000D+00 0.110820785527167D+03
 0.110820785527167D+03 0.000000000000000D+00 0.000000000000000D+00 -.110820785527167D+03
 0.127310807279918D+03 -.207594742503899D+02 -.117869733873911D+02 0.362672544822904D+01
 0.943307637744151D+02 0.207594742503899D+02 0.117869733873911D+02 -.362672544822904D+01
 0.000000000000000D+00 -.000000000000000D+00 -.000000000000000D+00 0.000000000000000D+00
 0.266251115321433D+03 0.000000000000000D+00 0.000000000000000D+00 0.266251115321433D+03
 0.191901542722131D+03 0.000000000000000D+00 0.000000000000000D+00 -.191901542722131D+03
 0.148423591542308D+03 -.104935959182229D+02 0.792546139574607D+02 0.362672544822904D+01
 0.128231995515328D+03 0.290457171634946D+02 0.852724252430087D+02 -.362672544822904D+01
 0.181497070985928D+03 -.185521212452717D+02 -.164527039200469D+03 0.743495725993026D+02
0.708516179744D-03 0.000000000000D+00 0.000000000000D+00 0.237849983113D-02 0.000000000000D+00  5 -1 1 25 23 21 0 0.51649920D-03 0.56278963D+00 0.12267795D+05 0.12267795D+05 0.12267795D+05 0.12579023D+01  1  2  2  2  5  2        1 0.840751484858D-01 0.100000000000D+01
-.393619956171D-04 0.000000000000D+00 -.272088868681D-05 0.237849983113D-02 0.000000000000D+00  5 -1 1 25 23 21 2 0.51649920D-03 0.56278963D+00 0.12267795D+05 0.12267795D+05 0.12267795D+05 0.12579023D+01  1  2  3  2  5  2        1 -.739075462203D-02 0.100000000000D+01
0.490504947235D-04 0.000000000000D+00 0.000000000000D+00 0.237849983113D-02 0.000000000000D+00  5 -1 1 25 23 21 2 0.51649920D-03 0.56278963D+00 0.12267795D+05 0.12267795D+05 0.12267795D+05 0.12579023D+01  1  2 15  2  5  2        1 0.920990323045D-02 0.100000000000D+01
  </mgrwgt>
  </event>
  <event>
  4     66 0.43907321E-03 0.16524402E+03 0.75467711E-02 0.11584141E+00
       -1 -1    0    0    0  501 0.00000000E+00 0.00000000E+00 0.12861159E+02 0.12865140E+02 0.32000000E+00 0.0000E+00 0.9000E+01
        1 -1    0    0  501    0 0.00000000E+00 0.00000000E+00 -.21705214E+04 0.21705215E+04 0.32000000E+00 0.0000E+00 0.9000E+01
       25  1    1    2    0    0 -.10073003E+03 -.72878130E+02 -.98787723E+03 0.10034860E+04 0.12500000E+03 0.0000E+00 0.9000E+01
       23  1    1    2    0    0 0.10073003E+03 0.72878130E+02 -.11697831E+04 0.11799006E+04 0.91188000E+02 0.0000E+00 0.9000E+01
#aMCatNLO 1  0  0  1  2 0.46430434D+02 0.00000000D+00  -5  5  0 0.00000000D+00 0.00000000D+00 0.00000000D+00 0.00000000D+00 0.00000000D+00
  <mgrwgt>
 0.1653955364D+00    4    2    0
 0.167092169636941D+03 0.000000000000000D+00 0.000000000000000D+00 0.167092169636941D+03
 0.167092169636941D+03 0.000000000000000D+00 0.000000000000000D+00 -.167092169636941D+03
 0.178028871027381D+03 -.100730031108345D+03 -.728781298227066D+02 0.247288888901276D+02
 0.156155468246500D+03 0.100730031108345D+03 0.728781298227066D+02 -.247288888901276D+02
 0.000000000000000D+00 0.000000000000000D+00 0.000000000000000D+00 -.000000000000000D+00
 0.174376674091145D+03 0.000000000000000D+00 0.000000000000000D+00 0.174376674091145D+03
 0.263590589901107D+03 0.000000000000000D+00 0.000000000000000D+00 -.263590589901107D+03
 0.192393981093852D+03 -.105713095999539D+03 -.979983027893523D+02 0.247288888901276D+02
 0.145000384271159D+03 0.966787714550477D+02 0.524552885702308D+02 -.247288888901276D+02
 0.100572898627241D+03 0.903432454449143D+01 0.455430142191215D+02 -.892139158099619D+02
0.939067709555D-03 0.000000000000D+00 0.000000000000D+00 0.157246600311D-02 0.000000000000D+00  5 -1 1 25 23 21 0 0.19789479D-02 0.33392668D+00 0.27305585D+05 0.27305585D+05 0.27305585D+05 0.12192114D+01  1  2  2  1  5  1       -1 0.171635132684D+00 0.100000000000D+01
-.521625814481D-04 0.000000000000D+00 -.360626726690D-05 0.157246600311D-02 0.000000000000D+00  5 -1 1 25 23 21 2 0.19789479D-02 0.33392668D+00 0.27305585D+05 0.27305585D+05 0.27305585D+05 0.12192114D+01  1  2  3  1  5  1       -1 -.141718441510D-01 0.100000000000D+01
0.648936988216D-04 0.000000000000D+00 0.000000000000D+00 0.157246600311D-02 0.000000000000D+00  5 -1 1 25 23 21 2 0.19789479D-02 0.33392668D+00 0.27305585D+05 0.27305585D+05 0.27305585D+05 0.12192114D+01  1  2 15  1  5  1       -1 0.176307107615D-01 0.100000000000D+01
-.356973204576D-04 0.000000000000D+00 0.000000000000D+00 0.157246600311D-02 0.000000000000D+00  5 -1 1 25 23 21 2 0.19789479D-02 0.33392668D+00 0.27305585D+05 0.27305585D+05 0.27305585D+05 0.12192114D+01  1  2  4  1  5  1       -1 -.969846292285D-02 0.100000000000D+01
  </mgrwgt>
  </event>
  <event>
  4     66 0.43907321E-03 0.12756969E+03 0.75467711E-02 0.11482672E+00
       -1 -1    0    0    0  501 0.00000000E+00 0.00000000E+00 0.80306148E+02 0.80306785E+02 0.32000000E+00 0.0000E+00 0.9000E+01
        1 -1    0    0  501    0 0.00000000E+00 0.00000000E+00 -.20448449E+03 0.20448474E+03 0.32000000E+00 0.0000E+00 0.9000E+01
       25  1    1    2    0    0 -.61700329E+02 -.26498611E+02 -.55589574E+02 0.15239524E+03 0.12500000E+03 0.0000E+00 0.9000E+01
       23  1    1    2    0    0 0.61700329E+02 0.26498611E+02 -.68588767E+02 0.13239629E+03 0.91188000E+02 0.0000E+00 0.9000E+01
#aMCatNLO 1  0  0  1  2 0.12108766D+03 0.00000000D+00  -5  5  0 0.00000000D+00 0.00000000D+00 0.00000000D+00 0.00000000D+00 0.00000000D+00
  <mgrwgt>
 0.1528592252D+00    3    2    0
 0.128146353600553D+03 0.000000000000000D+00 0.000000000000000D+00 0.128146353600553D+03
 0.128146353600553D+03 0.000000000000000D+00 0.000000000000000D+00 -.128146353600553D+03
 0.142406901112474D+03 -.617003290538274D+02 -.264986107947640D+02 0.120672492745796D+02
 0.113885806088633D+03 0.617003290538274D+02 0.264986107947640D+02 -.120672492745796D+02
 0.000000000000000D+00 0.000000000000000D+00 -.000000000000000D+00 -.000000000000000D+00
 0.157101651232867D+03 0.000000000000000D+00 0.000000000000000D+00 0.157101651232867D+03
 0.380171657972328D+03 0.000000000000000D+00 0.000000000000000D+00 -.380171657972328D+03
 0.153484391111910D+03 -.799628096103398D+02 0.373200869393353D+02 0.120672492745796D+02
 0.129973141044877D+03 0.466492971458654D+02 0.790948204360653D+02 -.120672492745796D+02
 0.253815777048407D+03 0.333135124644744D+02 -.116414907375401D+03 -.223070006739461D+03
0.252828719548D-03 0.000000000000D+00 0.000000000000D+00 0.197781399014D-02 0.000000000000D+00  5 -1 1 25 23 21 0 0.12354860D-01 0.31459220D-01 0.16274027D+05 0.16274027D+05 0.16274027D+05 0.12438066D+01  1  2  2  1  5  1       -1 0.149692162065D+00 0.100000000000D+01
-.140456925823D-04 0.000000000000D+00 -.970928854394D-06 0.197781399014D-02 0.000000000000D+00  5 -1 1 25 23 21 2 0.12354860D-01 0.31459220D-01 0.16274027D+05 0.16274027D+05 0.16274027D+05 0.12438066D+01  1  2  3  1  5  1       -1 -.128653468266D-01 0.100000000000D+01
0.175033215436D-04 0.000000000000D+00 0.000000000000D+00 0.197781399014D-02 0.000000000000D+00  5 -1 1 25 23 21 2 0.12354860D-01 0.31459220D-01 0.16274027D+05 0.16274027D+05 0.16274027D+05 0.12438066D+01  1  2 15  1  5  1       -1 0.160324100044D-01 0.100000000000D+01
  </mgrwgt>
  </event>
  <event>
  5     66 -.43907321E-03 0.20594242E+03 0.75467711E-02 0.11324250E+00
       -1 -1    0    0    0  501 0.00000000E+00 0.00000000E+00 0.86622759E+03 0.86622765E+03 0.32000000E+00 0.0000E+00 0.9000E+01
        1 -1    0    0  502    0 0.00000000E+00 0.00000000E+00 -.57840189E+02 0.57841075E+02 0.32000000E+00 0.0000E+00 0.9000E+01
       25  1    1    2    0    0 0.48165529E+02 0.17218989E+03 0.38712463E+03 0.44436444E+03 0.12500000E+03 0.0000E+00 0.9000E+01
       23  1    1    2    0    0 -.17283662E+02 -.17135988E+03 0.38867274E+03 0.43479269E+03 0.91188000E+02 0.0000E+00 0.9000E+01
       21  1    1    2  502  501 -.30881867E+02 -.83000611E+00 0.32590028E+02 0.44911592E+02 0.75000000E+00 0.0000E+00 0.9000E+01
#aMCatNLO 2  0  0  2  1 0.30893019D+02 0.00000000D+00  -5  5  0 0.00000000D+00 0.00000000D+00 0.00000000D+00 0.00000000D+00 0.00000000D+00
  <mgrwgt>
 -.2142936664D-01    2    2    0
 0.206216706967219D+03 0.000000000000000D+00 0.000000000000000D+00 0.206216706967219D+03
 0.206216706967219D+03 0.000000000000000D+00 0.000000000000000D+00 -.206216706967219D+03
 0.215078438835969D+03 0.319586669841177D+02 0.171754298413753D+03 -.106225906969616D+02
 0.197354975098469D+03 -.319586669841177D+02 -.171754298413753D+03 0.106225906969616D+02
 0.000000000000000D+00 -.000000000000000D+00 -.000000000000000D+00 -.000000000000000D+00
 0.216474579183934D+03 0.000000000000000D+00 0.000000000000000D+00 0.216474579183934D+03
 0.231442161208908D+03 0.000000000000000D+00 0.000000000000000D+00 -.231442161208908D+03
 0.218419584528848D+03 0.481655293979628D+02 0.172189887189851D+03 -.106225906969616D+02
 0.195169220409699D+03 -.172836620525441D+02 -.171359881081506D+03 0.106225906969616D+02
 0.343279354542953D+02 -.308818673454188D+02 -.830006108344877D+00 -.149675820249742D+02
-.333459556382D-02 0.000000000000D+00 0.000000000000D+00 0.143655420258D-02 0.000000000000D+00  5 -1 1 25 23 21 2 0.12694856D+00 0.90776960D-02 0.49269364D+05 0.49269364D+05 0.49269364D+05 0.11929154D+01  1  2 13  2  5  2        1 -.200611721567D+00 0.100000000000D+01
0.326616950353D-02 0.000000000000D+00 0.000000000000D+00 0.143655420258D-02 0.115130865882D-04  5 -1 1 25 23 21 2 0.13326338D+00 0.88983982D-02 0.49269364D+05 0.49269364D+05 0.49269364D+05 0.11929154D+01  1  2  1  2  5  2        1 0.179182354929D+00 0.100000000000D+01
  </mgrwgt>
  </event>
  <event>
  4     66 0.43907321E-03 0.11566367E+03 0.75467711E-02 0.12352747E+00
       -1 -1    0    0    0  501 0.00000000E+00 0.00000000E+00 0.25784004E+02 0.25785990E+02 0.32000000E+00 0.0000E+00 0.9000E+01
        1 -1    0    0  501    0 0.00000000E+00 0.00000000E+00 -.64882655E+03 0.64882663E+03 0.32000000E+00 0.0000E+00 0.9000E+01
       25  1    1    2    0    0 -.40561215E+02 0.35175262E+01 -.49540042E+03 0.51254674E+03 0.12500000E+03 0.0000E+00 0.9000E+01
       23  1    1    2    0    0 0.40561215E+02 -.35175262E+01 -.12764213E+03 0.16206588E+03 0.91188000E+02 0.0000E+00 0.9000E+01
#aMCatNLO 1  0  0  1  1 0.17591097D+02 0.00000000D+00  -5  5  0 0.00000000D+00 0.00000000D+00 0.00000000D+00 0.00000000D+00 0.00000000D+00
  <mgrwgt>
 0.1692984640D+00    4    2    0
 0.129344666386112D+03 0.000000000000000D+00 0.000000000000000D+00 0.129344666386112D+03
 0.129344666386112D+03 0.000000000000000D+00 0.000000000000000D+00 -.129344666386112D+03
 0.143473097152208D+03 -.405612147582704D+02 0.351752624802468D+01 -.574625484370020D+02
 0.115216235620015D+03 0.405612147582704D+02 -.351752624802468D+01 0.574625484370020D+02
 0.000000000000000D+00 -.000000000000000D+00 -.000000000000000D+00 -.000000000000000D+00
 0.131153956063326D+03 0.000000000000000D+00 0.000000000000000D+00 0.131153956063326D+03
 0.180856523461119D+03 0.000000000000000D+00 0.000000000000000D+00 -.180856523461119D+03
 0.141101407577316D+03 -.309801492508459D+02 0.478467342881212D+01 -.574625484370020D+02
 0.118185340200980D+03 0.484193881023742D+02 -.247824077487936D+01 0.574625484370020D+02
 0.527237317461493D+02 -.174392388515282D+02 -.230643265393276D+01 -.497025673977928D+02
0.236971604298D-03 0.000000000000D+00 0.000000000000D+00 0.167052797173D-02 0.000000000000D+00  5 -1 1 25 23 21 0 0.39669286D-02 0.99819628D-01 0.13378084D+05 0.13378084D+05 0.13378084D+05 0.12535282D+01  1  2  2  1  5  1       -1 0.176814324337D+00 0.100000000000D+01
-.129650370242D-04 0.000000000000D+00 -.910033356560D-06 0.167052797173D-02 0.000000000000D+00  5 -1 1 25 23 21 2 0.39669286D-02 0.99819628D-01 0.13378084D+05 0.13378084D+05 0.13378084D+05 0.12535282D+01  1  2  3  1  5  1       -1 -.152006834689D-01 0.100000000000D+01
0.162957200989D-04 0.000000000000D+00 0.000000000000D+00 0.167052797173D-02 0.000000000000D+00  5 -1 1 25 23 21 2 0.39669286D-02 0.99819628D-01 0.13378084D+05 0.13378084D+05 0.13378084D+05 0.12535282D+01  1  2 15  1  5  1       -1 0.191056980909D-01 0.100000000000D+01
-.974114532239D-05 0.000000000000D+00 0.000000000000D+00 0.167052797173D-02 0.000000000000D+00  5 -1 1 25 23 21 2 0.39669286D-02 0.99819628D-01 0.13378084D+05 0.13378084D+05 0.13378084D+05 0.12535282D+01  1  2  4  1  5  1       -1 -.114208749573D-01 0.100000000000D+01
  </mgrwgt>
  </event>
  <event>
  4     66 0.43907321E-03 0.11541871E+03 0.75467711E-02 0.99024088E-01
       -1 -1    0    0    0  501 0.00000000E+00 0.00000000E+00 0.14603021E+02 0.14606527E+02 0.32000000E+00 0.0000E+00 0.9000E+01
        1 -1    0    0  501    0 0.00000000E+00 0.00000000E+00 -.91932803E+03 0.91932809E+03 0.32000000E+00 0.0000E+00 0.9000E+01
       25  1    1    2    0    0 0.39105261E+02 -.85334299E+01 -.47299451E+03 0.49086744E+03 0.12500000E+03 0.0000E+00 0.9000E+01
       23  1    1    2    0    0 -.39105261E+02 0.85334299E+01 -.43173051E+03 0.44306718E+03 0.91188000E+02 0.0000E+00 0.9000E+01
#aMCatNLO 1  0  0  1  1 0.57930969D+03 0.00000000D+00  -5  5  0 0.00000000D+00 0.00000000D+00 0.00000000D+00 0.00000000D+00 0.00000000D+00
  <mgrwgt>
 0.1593992263D+00    3    2    0
 0.115873334356094D+03 0.000000000000000D+00 0.000000000000000D+00 0.115873334356094D+03
 0.115873334356094D+03 0.000000000000000D+00 0.000000000000000D+00 -.115873334356094D+03
 0.131644324067878D+03 0.391052606581797D+02 -.853342988518215D+01 0.101581111698439D+02
 0.100102344644311D+03 -.391052606581797D+02 0.853342988518215D+01 -.101581111698439D+02
 0.000000000000000D+00 -.000000000000000D+00 0.000000000000000D+00 -.000000000000000D+00
 0.542470533527819D+03 0.000000000000000D+00 0.000000000000000D+00 0.542470533527819D+03
 0.675965452424689D+03 0.000000000000000D+00 0.000000000000000D+00 -.675965452424689D+03
 0.400960541123853D+03 0.134869819302394D+03 -.356161901608150D+03 0.101581111698439D+02
 0.222983553798521D+03 0.189869207893356D+02 -.202343083739026D+03 -.101581111698439D+02
 0.594491891030135D+03 -.153856740091730D+03 0.558504985347176D+03 -.133494918896870D+03
0.153652893388D-03 0.000000000000D+00 0.000000000000D+00 0.222803509082D-02 0.000000000000D+00  5 -1 1 25 23 21 0 0.22468926D-02 0.14143536D+00 0.13321479D+05 0.13321479D+05 0.13321479D+05 0.12537412D+01  1  2  2  1  5  1       -1 0.156031036405D+00 0.100000000000D+01
-.853611145999D-05 0.000000000000D+00 -.590067568346D-06 0.222803509082D-02 0.000000000000D+00  5 -1 1 25 23 21 2 0.22468926D-02 0.14143536D+00 0.13321479D+05 0.13321479D+05 0.13321479D+05 0.12537412D+01  1  2  3  1  5  1       -1 -.136253009430D-01 0.100000000000D+01
0.106462478982D-04 0.000000000000D+00 0.000000000000D+00 0.222803509082D-02 0.000000000000D+00  5 -1 1 25 23 21 2 0.22468926D-02 0.14143536D+00 0.13321479D+05 0.13321479D+05 0.13321479D+05 0.12537412D+01  1  2 15  1  5  1       -1 0.169934907956D-01 0.100000000000D+01
  </mgrwgt>
  </event>
  <event>
  5     66 0.43907321E-03 0.20352401E+03 0.75467711E-02 0.11397822E+00
       -1 -1    0    0    0  501 0.00000000E+00 0.00000000E+00 0.46032276E+03 0.46032287E+03 0.32000000E+00 0.0000E+00 0.9000E+01
        1 -1    0    0  502    0 0.00000000E+00 0.00000000E+00 -.98906877E+02 0.98907395E+02 0.32000000E+00 0.0000E+00 0.9000E+01
       25  1    1    2    0    0 0.11725793E+03 -.13369939E+03 0.16831399E+03 0.27491735E+03 0.12500000E+03 0.0000E+00 0.9000E+01
       23  1    1    2    0    0 -.11910826E+03 0.11667050E+03 0.16646729E+03 0.25263688E+03 0.91188000E+02 0.0000E+00 0.9000E+01
       21  1    1    2  502  501 0.18503290E+01 0.17028893E+02 0.26634593E+02 0.31676032E+02 0.75000000E+00 0.0000E+00 0.9000E+01
#aMCatNLO 2  0  0  2  1 0.17129125D+02 0.00000000D+00  -5  5  0 0.00000000D+00 0.00000000D+00 0.00000000D+00 0.00000000D+00 0.00000000D+00
  <mgrwgt>
 0.1193910798D+00    2    2    0
 0.203679620070741D+03 0.000000000000000D+00 0.000000000000000D+00 0.203679620070741D+03
 0.203679620070741D+03 0.000000000000000D+00 0.000000000000000D+00 -.203679620070741D+03
 0.212651736001462D+03 0.118234463029505D+03 -.124712183999227D+03 -.795259320618662D+01
 0.194707504140019D+03 -.118234463029505D+03 0.124712183999227D+03 0.795259320618662D+01
 0.000000000000000D+00 0.000000000000000D+00 0.000000000000000D+00 0.000000000000000D+00
 0.217636903592843D+03 0.000000000000000D+00 0.000000000000000D+00 0.217636903592843D+03
 0.209183708838131D+03 0.000000000000000D+00 0.000000000000000D+00 -.209183708838131D+03
 0.217515960681006D+03 0.117257929104008D+03 -.133699392199506D+03 -.795259320618662D+01
 0.190203253300632D+03 -.119108258100192D+03 0.116670498995158D+03 0.795259320618662D+01
 0.191013984493362D+02 0.185032899618449D+01 0.170288932043479D+02 0.845319475471231D+01
-.175111432385D-04 0.000000000000D+00 0.000000000000D+00 0.144541965866D-02 0.000000000000D+00  5 -1 1 25 23 21 2 0.66274936D-01 0.14815596D-01 0.41422021D+05 0.41422021D+05 0.41422021D+05 0.12004627D+01  1  2  8  2  5  2        1 -.227777599178D-02 0.100000000000D+01
0.111082479122D-02 0.000000000000D+00 0.000000000000D+00 0.144541965866D-02 0.377076912937D-04  5 -1 1 25 23 21 2 0.70816470D-01 0.15215962D-01 0.45057828D+05 0.45057828D+05 0.45057828D+05 0.11967843D+01  1  2  1  2  5  2        1 0.121668855794D+00 0.100000000000D+01
  </mgrwgt>
  </event>
  <event>
  4     66 0.43907321E-03 0.11430287E+03 0.75467711E-02 0.11536697E+00
       -1 -1    0    0    0  501 0.00000000E+00 0.00000000E+00 0.78105717E+02 0.78106372E+02 0.32000000E+00 0.0000E+00 0.9000E+01
        1 -1    0    0  501    0 0.00000000E+00 0.00000000E+00 -.17817777E+03 0.17817806E+03 0.32000000E+00 0.0000E+00 0.9000E+01
       25  1    1    2    0    0 0.49009433E+01 0.36422606E+02 -.88013911E+02 0.15723255E+03 0.12500000E+03 0.0000E+00 0.9000E+01
       23  1    1    2    0    0 -.49009433E+01 -.36422606E+02 -.12058144E+02 0.99051884E+02 0.91188000E+02 0.0000E+00 0.9000E+01
#aMCatNLO 1  0  0  2  1 0.12847219D+03 0.00000000D+00  -5  5  0 0.00000000D+00 0.00000000D+00 0.00000000D+00 0.00000000D+00 0.00000000D+00
  <mgrwgt>
 0.1175523333D+00    5    2    0
 0.117969586554304D+03 0.000000000000000D+00 0.000000000000000D+00 0.117969586554304D+03
 0.117969586554304D+03 0.000000000000000D+00 0.000000000000000D+00 -.117969586554304D+03
 0.133460334783372D+03 0.490094325743046D+01 0.364226056631227D+02 -.289142786938531D+02
 0.102478838325235D+03 -.490094325743046D+01 -.364226056631227D+02 0.289142786938531D+02
 0.000000000000000D+00 0.000000000000000D+00 0.000000000000000D+00 -.000000000000000D+00
 0.173902618823934D+03 0.000000000000000D+00 0.000000000000000D+00 0.173902618823934D+03
 0.238581359878128D+03 0.000000000000000D+00 0.000000000000000D+00 -.238581359878128D+03
 0.132009644172509D+03 -.918514779715189D+01 -.296840647841742D+02 -.289142786938531D+02
 0.136639561605230D+03 -.175887943187602D+02 -.959672717841655D+02 0.289142786938531D+02
 0.143834772924324D+03 0.267739421159121D+02 0.125651336568340D+03 -.646787410541937D+02
0.159358562447D-03 0.000000000000D+00 0.000000000000D+00 0.209282466023D-02 0.000000000000D+00  5 -1 1 25 23 21 0 0.12016337D-01 0.27412037D-01 0.13065145D+05 0.13065145D+05 0.13065145D+05 0.12547185D+01  1  2  2  2  5  2        1 0.115916802672D+00 0.100000000000D+01
-.884252157005D-05 0.000000000000D+00 -.611978839870D-06 0.209282466023D-02 0.000000000000D+00  5 -1 1 25 23 21 2 0.12016337D-01 0.27412037D-01 0.13065145D+05 0.13065145D+05 0.13065145D+05 0.12547185D+01  1  2  3  2  5  2        1 -.101260420063D-01 0.100000000000D+01
0.110262161255D-04 0.000000000000D+00 0.000000000000D+00 0.209282466023D-02 0.000000000000D+00  5 -1 1 25 23 21 2 0.12016337D-01 0.27412037D-01 0.13065145D+05 0.13065145D+05 0.13065145D+05 0.12547185D+01  1  2 15  2  5  2        1 0.126267068475D-01 0.100000000000D+01
-.920107080271D-05 0.000000000000D+00 -.578894853901D-04 0.209282466023D-02 0.000000000000D+00  5 -1 1 25 23 21 2 0.12016337D-01 0.77717932D-01 0.13065145D+05 0.13065145D+05 0.13065145D+05 0.12547185D+01  1  2  5  2  5  2        1 -.288243160239D-02 0.100000000000D+01
0.209656303709D-05 0.000000000000D+00 -.679071151405D-05 0.209282466023D-02 0.000000000000D+00  5 -1 21 25 23 -1 2 0.12016337D-01 0.77717932D-01 0.13065145D+05 0.13065145D+05 0.13065145D+05 0.12547185D+01  1  2  5  4  5  2        1 0.201729740335D-02 0.100000000000D+01
  </mgrwgt>
  </event>
  <event>
  4     66 0.43907321E-03 0.12624498E+03 0.75467711E-02 0.11981676E+00
       -1 -1    0    0    0  501 0.00000000E+00 0.00000000E+00 0.19326569E+02 0.19329218E+02 0.32000000E+00 0.0000E+00 0.9000E+01
        1 -1    0    0  501    0 0.00000000E+00 0.00000000E+00 -.85146220E+03 0.85146226E+03 0.32000000E+00 0.0000E+00 0.9000E+01
       25  1    1    2    0    0 -.54630171E+02 -.34536187E+02 -.53911241E+03 0.55717537E+03 0.12500000E+03 0.0000E+00 0.9000E+01
       23  1    1    2    0    0 0.54630171E+02 0.34536187E+02 -.29302323E+03 0.31361611E+03 0.91188000E+02 0.0000E+00 0.9000E+01
#aMCatNLO 1  0  0  2  1 0.46926376D+02 0.00000000D+00  -5  5  0 0.00000000D+00 0.00000000D+00 0.00000000D+00 0.00000000D+00 0.00000000D+00
  <mgrwgt>
 0.1067739751D+00    4    2    0
 0.128284928855853D+03 0.000000000000000D+00 0.000000000000000D+00 0.128284928855853D+03
 0.128284928855853D+03 0.000000000000000D+00 0.000000000000000D+00 -.128284928855853D+03
 0.142530071915903D+03 -.546301711047824D+02 -.345361871083678D+02 -.226410597241044D+02
 0.114039785795802D+03 0.546301711047824D+02 0.345361871083678D+02 0.226410597241044D+02
 0.000000000000000D+00 -.000000000000000D+00 0.000000000000000D+00 0.000000000000000D+00
 0.173777991823056D+03 0.000000000000000D+00 0.000000000000000D+00 0.173777991823056D+03
 0.143108028363849D+03 0.000000000000000D+00 0.000000000000000D+00 -.143108028363849D+03
 0.136225885989876D+03 -.297739084558525D+02 -.391585086993704D+02 -.226410597241044D+02
 0.124600064804690D+03 0.759093389101650D+02 0.305790694123323D+02 0.226410597241044D+02
 0.560600693923382D+02 -.461354304543125D+02 0.857943928703810D+01 0.306699634592071D+02
0.196140174099D-03 0.000000000000D+00 0.000000000000D+00 0.194134250972D-02 0.000000000000D+00  5 -1 1 25 23 21 0 0.29735268D-02 0.13099439D+00 0.15937794D+05 0.15937794D+05 0.15937794D+05 0.12448312D+01  1  2  2  2  5  2        1 0.150634798571D+00 0.100000000000D+01
-.108932721317D-04 0.000000000000D+00 -.753229913432D-06 0.194134250972D-02 0.000000000000D+00  5 -1 1 25 23 21 2 0.29735268D-02 0.13099439D+00 0.15937794D+05 0.15937794D+05 0.15937794D+05 0.12448312D+01  1  2  3  2  5  2        1 -.129639711431D-01 0.100000000000D+01
0.135418704576D-04 0.000000000000D+00 0.000000000000D+00 0.194134250972D-02 0.000000000000D+00  5 -1 1 25 23 21 2 0.29735268D-02 0.13099439D+00 0.15937794D+05 0.15937794D+05 0.15937794D+05 0.12448312D+01  1  2 15  2  5  2        1 0.161160407740D-01 0.100000000000D+01
-.395036545711D-04 0.000000000000D+00 0.000000000000D+00 0.194134250972D-02 0.000000000000D+00  5 -1 1 25 23 21 2 0.29735268D-02 0.13099439D+00 0.15937794D+05 0.15937794D+05 0.15937794D+05 0.12448312D+01  1  2  4  2  5  2        1 -.470128930698D-01 0.100000000000D+01
  </mgrwgt>
  </event>
  <event>
  4     66 0.43907321E-03 0.25696801E+03 0.75467711E-02 0.10646451E+00
       -1 -1    0    0    0  501 0.00000000E+00 0.00000000E+00 0.98759781E+03 0.98759787E+03 0.32000000E+00 0.0000E+00 0.9000E+01
        1 -1    0    0  501    0 0.00000000E+00 0.00000000E+00 -.88642825E+02 0.88643402E+02 0.32000000E+00 0.0000E+00 0.9000E+01
       25  1    1    2    0    0 0.21713700E+03 0.83453765E+02 0.72553015E+03 0.77209585E+03 0.12500000E+03 0.0000E+00 0.9000E+01
       23  1    1    2    0    0 -.21713700E+03 -.83453765E+02 0.17342484E+03 0.30414542E+03 0.91188000E+02 0.0000E+00 0.9000E+01
#aMCatNLO 1  0  0  2  1 0.15640912D+03 0.00000000D+00  -5  5  0 0.00000000D+00 0.00000000D+00 0.00000000D+00 0.00000000D+00 0.00000000D+00
  <mgrwgt>
 0.1073941556D+00    3    2    0
 0.295878013349221D+03 0.000000000000000D+00 0.000000000000000D+00 0.295878013349221D+03
 0.295878013349221D+03 0.000000000000000D+00 0.000000000000000D+00 -.295878013349221D+03
 0.302054332918608D+03 0.217137001042637D+03 0.834537646404855D+02 0.146624731817130D+03
 0.289701693779835D+03 -.217137001042637D+03 -.834537646404855D+02 -.146624731817130D+03
 0.000000000000000D+00 -.000000000000000D+00 -.000000000000000D+00 0.000000000000000D+00
 0.526683352437805D+03 0.000000000000000D+00 0.000000000000000D+00 0.526683352437805D+03
 0.333757386968245D+03 0.000000000000000D+00 0.000000000000000D+00 -.333757386968245D+03
 0.360350421077235D+03 0.260408592224090D+03 0.157847961931608D+03 0.146624731817130D+03
 0.251727194946783D+03 -.181768158374347D+03 -.226462789996231D+02 -.146624731817130D+03
 0.248363123382033D+03 -.786404338497436D+02 -.135201682931985D+03 0.192925965469560D+03
0.677857787236D-02 0.000000000000D+00 0.000000000000D+00 0.993752415199D-03 0.000000000000D+00  5 -1 1 25 23 21 0 0.15193817D+00 0.13637406D-01 0.66032560D+05 0.66032560D+05 0.66032560D+05 0.11805015D+01  1  2  2  2  5  2        1 0.105232064697D+00 0.100000000000D+01
-.367485196276D-03 0.000000000000D+00 -.260315238704D-04 0.993752415199D-03 0.000000000000D+00  5 -1 1 25 23 21 2 0.15193817D+00 0.13637406D-01 0.66032560D+05 0.66032560D+05 0.66032560D+05 0.11805015D+01  1  2  3  2  5  2        1 -.795027983754D-02 0.100000000000D+01
0.467423363006D-03 0.000000000000D+00 0.000000000000D+00 0.993752415199D-03 0.000000000000D+00  5 -1 1 25 23 21 2 0.15193817D+00 0.13637406D-01 0.66032560D+05 0.66032560D+05 0.66032560D+05 0.11805015D+01  1  2 15  2  5  2        1 0.101123707190D-01 0.100000000000D+01
  </mgrwgt>
  </event>
  <event>
  4     66 0.43907321E-03 0.93234234E+02 0.75467711E-02 0.12317687E+00
       -1 -1    0    0    0  501 0.00000000E+00 0.00000000E+00 0.17124419E+03 0.17124449E+03 0.32000000E+00 0.0000E+00 0.9000E+01
        1 -1    0    0  501    0 0.00000000E+00 0.00000000E+00 -.87062701E+02 0.87063290E+02 0.32000000E+00 0.0000E+00 0.9000E+01
       25  1    1    2    0    0 0.29810079E+02 -.46477737E+02 0.58550588E+02 0.14866739E+03 0.12500000E+03 0.0000E+00 0.9000E+01
       23  1    1    2    0    0 -.29810079E+02 0.46477737E+02 0.25630901E+02 0.10964039E+03 0.91188000E+02 0.0000E+00 0.9000E+01
#aMCatNLO 1  0  0  1  2 0.10783099D+02 0.00000000D+00  -5  5  0 0.00000000D+00 0.00000000D+00 0.00000000D+00 0.00000000D+00 0.00000000D+00
  <mgrwgt>
 0.1665229808D+00    6    2    0
 0.122102810577976D+03 0.000000000000000D+00 0.000000000000000D+00 0.122102810577976D+03
 0.122102810577976D+03 0.000000000000000D+00 0.000000000000000D+00 -.122102810577976D+03
 0.137069191411879D+03 0.298100785946414D+02 -.464777373906134D+02 0.106837435169934D+02
 0.107136429744072D+03 -.298100785946414D+02 0.464777373906134D+02 -.106837435169934D+02
 0.000000000000000D+00 -.000000000000000D+00 0.000000000000000D+00 -.000000000000000D+00
 0.126539298732944D+03 0.000000000000000D+00 0.000000000000000D+00 0.126539298732944D+03
 0.128954554566366D+03 0.000000000000000D+00 0.000000000000000D+00 -.128954554566366D+03
 0.139599480957979D+03 0.321074244860494D+02 -.521343073328200D+02 0.106837435169934D+02
 0.104844092545184D+03 -.280498772036840D+02 0.421437351328092D+02 -.106837435169934D+02
 0.110502797961474D+02 -.405754728236543D+01 0.999057220001086D+01 -.241525583342268D+01
0.163014592924D-03 0.000000000000D+00 0.000000000000D+00 0.208892883430D-02 0.000000000000D+00  5 -1 1 25 23 21 0 0.26345328D-01 0.13394330D-01 0.14793199D+05 0.14793199D+05 0.14793199D+05 0.12485104D+01  1  2  2  1  5  1       -1 0.851472234699D-01 0.100000000000D+01
-.905619862260D-05 0.000000000000D+00 -.626018959557D-06 0.208892883430D-02 0.000000000000D+00  5 -1 1 25 23 21 2 0.26345328D-01 0.13394330D-01 0.14793199D+05 0.14793199D+05 0.14793199D+05 0.12485104D+01  1  2  3  1  5  1       -1 -.737351060274D-02 0.100000000000D+01
0.112969069183D-04 0.000000000000D+00 0.000000000000D+00 0.208892883430D-02 0.000000000000D+00  5 -1 1 25 23 21 2 0.26345328D-01 0.13394330D-01 0.14793199D+05 0.14793199D+05 0.14793199D+05 0.12485104D+01  1  2 15  1  5  1       -1 0.919788383755D-02 0.100000000000D+01
0.256173152847D-03 0.000000000000D+00 0.000000000000D+00 0.208892883430D-02 0.000000000000D+00  5 -1 1 25 23 21 2 0.28009016D-01 0.13394330D-01 0.16163497D+05 0.16163497D+05 0.16163497D+05 0.12441408D+01  1  2 12  1  5  1       -1 0.187712149016D+00 0.100000000000D+01
-.162140924508D-03 0.000000000000D+00 0.000000000000D+00 0.208892883430D-02 0.000000000000D+00  5 -1 1 25 23 21 2 0.26345328D-01 0.13394330D-01 0.14793199D+05 0.14793199D+05 0.14793199D+05 0.12485104D+01  1  2  4  1  5  1       -1 -.132014311503D+00 0.100000000000D+01
0.275666394894D-05 0.000000000000D+00 0.000000000000D+00 0.208892883430D-02 0.000000000000D+00  5 21 1 25 23 1 2 0.28009016D-01 0.13394330D-01 0.16163497D+05 0.16163497D+05 0.16163497D+05 0.12441408D+01  1  2 12  3  5  1       -1 0.238535465855D-01 0.100000000000D+01
  </mgrwgt>
  </event>
  <event>
  4     66 0.43907321E-03 0.13392378E+03 0.75467711E-02 0.10365254E+00
       -1 -1    0    0    0  501 0.00000000E+00 0.00000000E+00 0.23629821E+03 0.23629843E+03 0.32000000E+00 0.0000E+00 0.9000E+01
        1 -1    0    0  501    0 0.00000000E+00 0.00000000E+00 -.75928585E+02 0.75929260E+02 0.32000000E+00 0.0000E+00 0.9000E+01
       25  1    1    2    0    0 -.77685262E+02 0.10800370E+02 0.91273505E+02 0.17351513E+03 0.12500000E+03 0.0000E+00 0.9000E+01
       23  1    1    2    0    0 0.77685262E+02 -.10800370E+02 0.69096120E+02 0.13871256E+03 0.91188000E+02 0.0000E+00 0.9000E+01
#aMCatNLO 1  0  0  2  2 0.37913134D+03 0.00000000D+00  -5  5  0 0.00000000D+00 0.00000000D+00 0.00000000D+00 0.00000000D+00 0.00000000D+00
  <mgrwgt>
 0.1240203157D+00    5    2    0
 0.133947482016600D+03 0.000000000000000D+00 0.000000000000000D+00 0.133947482016600D+03
 0.133947482016600D+03 0.000000000000000D+00 0.000000000000000D+00 -.133947482016600D+03
 0.147590419804513D+03 -.776852623760417D+02 0.108003697683209D+02 0.250679885617896D+01
 0.120304544228688D+03 0.776852623760417D+02 -.108003697683209D+02 -.250679885617896D+01
 0.000000000000000D+00 0.000000000000000D+00 -.000000000000000D+00 -.000000000000000D+00
 0.302036008631122D+03 0.000000000000000D+00 0.000000000000000D+00 0.302036008631122D+03
 0.746048686053074D+03 0.000000000000000D+00 0.000000000000000D+00 -.746048686053074D+03
 0.271707271142698D+03 -.790020787532749D+02 0.227930315456211D+03 0.250679885617896D+01
 0.192521424405334D+03 0.767028234844978D+02 0.151194048626457D+03 -.250679885617896D+01
 0.583855999136164D+03 0.229925526877715D+01 -.379124364082667D+03 -.444012677421952D+03
0.290656608930D-03 0.000000000000D+00 0.000000000000D+00 0.190381334449D-02 0.000000000000D+00  5 -1 1 25 23 21 0 0.36353639D-01 0.11681389D-01 0.17935578D+05 0.17935578D+05 0.17935578D+05 0.12390692D+01  1  2  2  2  5  2        1 0.106171214950D+00 0.100000000000D+01
-.161475887700D-04 0.000000000000D+00 -.111619790994D-05 0.190381334449D-02 0.000000000000D+00  5 -1 1 25 23 21 2 0.36353639D-01 0.11681389D-01 0.17935578D+05 0.17935578D+05 0.17935578D+05 0.12390692D+01  1  2  3  2  5  2        1 -.905577051537D-02 0.100000000000D+01
0.201205871495D-04 0.000000000000D+00 0.000000000000D+00 0.190381334449D-02 0.000000000000D+00  5 -1 1 25 23 21 2 0.36353639D-01 0.11681389D-01 0.17935578D+05 0.17935578D+05 0.17935578D+05 0.12390692D+01  1  2 15  2  5  2        1 0.112838778876D-01 0.100000000000D+01
0.468571224704D-03 0.000000000000D+00 -.268233520567D-03 0.190381334449D-02 0.000000000000D+00  5 -1 1 25 23 21 2 0.36353639D-01 0.12983579D+00 0.17935578D+05 0.17935578D+05 0.17935578D+05 0.12390692D+01  1  2  5  2  5  2        1 0.116506193566D-01 0.100000000000D+01
0.851360251367D-04 0.000000000000D+00 -.759335616801D-04 0.190381334449D-02 0.000000000000D+00  5 -1 21 25 23 -1 2 0.36353639D-01 0.12983579D+00 0.17935578D+05 0.17935578D+05 0.17935578D+05 0.12390692D+01  1  2  5  4  5  2        1 0.397037405045D-02 0.100000000000D+01
  </mgrwgt>
  </event>
  <event>
  4     66 0.43907321E-03 0.87165668E+02 0.75467711E-02 0.11263382E+00
       -1 -1    0    0    0  501 0.00000000E+00 0.00000000E+00 0.31867485E+02 0.31869091E+02 0.32000000E+00 0.0000E+00 0.9000E+01
        1 -1    0    0  501    0 0.00000000E+00 0.00000000E+00 -.11326543E+04 0.11326543E+04 0.32000000E+00 0.0000E+00 0.9000E+01
       25  1    1    2    0    0 0.12083504E+02 0.11565454E+03 -.89521868E+03 0.91135255E+03 0.12500000E+03 0.0000E+00 0.9000E+01
       23  1    1    2    0    0 -.12083504E+02 -.11565454E+03 -.20556810E+03 0.25317085E+03 0.91188000E+02 0.0000E+00 0.9000E+01
#aMCatNLO 1  0  0  2  1 0.12263926D+03 0.00000000D+00  -5  5  0 0.00000000D+00 0.00000000D+00 0.00000000D+00 0.00000000D+00 0.00000000D+00
  <mgrwgt>
 0.2114350085D+00    8    2    0
 0.189988958421000D+03 0.000000000000000D+00 0.000000000000000D+00 0.189988958421000D+03
 0.189988958421000D+03 0.000000000000000D+00 0.000000000000000D+00 -.189988958421000D+03
 0.199607607731927D+03 0.120835043099201D+02 0.115654544378785D+03 -.103422494422591D+03
 0.180370309110072D+03 -.120835043099201D+02 -.115654544378785D+03 0.103422494422591D+03
 0.000000000000000D+00 -.000000000000000D+00 -.000000000000000D+00 -.000000000000000D+00
 0.232051692431159D+03 0.000000000000000D+00 0.000000000000000D+00 0.232051692431159D+03
 0.315647894591391D+03 0.000000000000000D+00 0.000000000000000D+00 -.315647894591391D+03
 0.237414528033763D+03 0.635726637019422D+02 0.161254340092734D+03 -.103422494422591D+03
 0.161864328715344D+03 0.282379631269411D+02 -.799450727207093D+02 0.103422494422591D+03
 0.148420730273443D+03 -.918106268288832D+02 -.813092673720251D+02 -.835962021602318D+02
0.500714555950D-03 0.000000000000D+00 0.000000000000D+00 0.110237597329D-02 0.000000000000D+00  5 -1 1 25 23 21 0 0.49028170D-02 0.17425463D+00 0.25360428D+05 0.25360428D+05 0.25360428D+05 0.12226317D+01  1  2  2  2  5  2        1 0.115318846622D+00 0.100000000000D+01
-.267639238830D-04 0.000000000000D+00 -.192287573602D-05 0.110237597329D-02 0.000000000000D+00  5 -1 1 25 23 21 2 0.49028170D-02 0.17425463D+00 0.25360428D+05 0.25360428D+05 0.25360428D+05 0.12226317D+01  1  2  3  2  5  2        1 -.921406286050D-02 0.100000000000D+01
0.344944083790D-04 0.000000000000D+00 0.000000000000D+00 0.110237597329D-02 0.000000000000D+00  5 -1 1 25 23 21 2 0.49028170D-02 0.17425463D+00 0.25360428D+05 0.25360428D+05 0.25360428D+05 0.12226317D+01  1  2 15  2  5  2        1 0.118754502714D-01 0.100000000000D+01
0.320051229764D-04 0.000000000000D+00 0.000000000000D+00 0.110237597329D-02 0.000000000000D+00  5 -1 1 25 23 21 2 0.49028170D-02 0.29831931D+00 0.53097482D+05 0.53097482D+05 0.53097482D+05 0.11897052D+01  1  2 12  2  5  2        1 0.304996694013D-02 0.100000000000D+01
-.266162914038D-03 0.000000000000D+00 -.165011266935D-03 0.110237597329D-02 0.000000000000D+00  5 -1 1 25 23 21 2 0.49028170D-02 0.31684295D+00 0.25360428D+05 0.25360428D+05 0.25360428D+05 0.12226317D+01  1  2  5  2  5  2        1 -.226941136740D-01 0.100000000000D+01
0.329762410957D-03 0.000000000000D+00 0.139353073711D-03 0.110237597329D-02 0.000000000000D+00  5 -1 1 25 23 21 2 0.49028170D-02 0.17425463D+00 0.25360428D+05 0.25360428D+05 0.25360428D+05 0.12226317D+01  1  2  6  2  5  2        1 0.113527881669D+00 0.100000000000D+01
0.191344934340D-05 0.000000000000D+00 0.000000000000D+00 0.110237597329D-02 0.000000000000D+00  5 -1 21 25 23 -1 2 0.49028170D-02 0.29831931D+00 0.53097482D+05 0.53097482D+05 0.53097482D+05 0.11897052D+01  1  2 12  4  5  2        1 0.146874407786D-03 0.100000000000D+01
-.851098643774D-05 0.000000000000D+00 -.107970208340D-04 0.110237597329D-02 0.000000000000D+00  5 -1 21 25 23 -1 2 0.49028170D-02 0.31684295D+00 0.25360428D+05 0.25360428D+05 0.25360428D+05 0.12226317D+01  1  2  5  4  5  2        1 -.575834844763D-03 0.100000000000D+01
  </mgrwgt>
  </event>
  <event>
  4     66 0.43907321E-03 0.15989764E+03 0.75467711E-02 0.10479501E+00
       -1 -1    0    0    0  501 0.00000000E+00 0.00000000E+00 0.58334513E+02 0.58335390E+02 0.32000000E+00 0.0000E+00 0.9000E+01
        1 -1    0    0  501    0 0.00000000E+00 0.00000000E+00 -.44461490E+03 0.44461502E+03 0.32000000E+00 0.0000E+00 0.9000E+01
       25  1    1    2    0    0 0.11402712E+03 0.26936308E+02 -.17681316E+03 0.24620244E+03 0.12500000E+03 0.0000E+00 0.9000E+01
       23  1    1    2    0    0 -.11402712E+03 -.26936308E+02 -.20946723E+03 0.25674797E+03 0.91188000E+02 0.0000E+00 0.9000E+01
#aMCatNLO 1  0  0  1  1 0.32244144D+03 0.00000000D+00  -5  5  0 0.00000000D+00 0.00000000D+00 0.00000000D+00 0.00000000D+00 0.00000000D+00
  <mgrwgt>
 0.1680405621D+00    5    2    0
 0.161048574962687D+03 0.000000000000000D+00 0.000000000000000D+00 0.161048574962687D+03
 0.161048574962687D+03 0.000000000000000D+00 0.000000000000000D+00 -.161048574962687D+03
 0.172395692839535D+03 0.114027116170440D+03 0.269363077076435D+02 0.191709940940817D+02
 0.149701457085838D+03 -.114027116170440D+03 -.269363077076435D+02 -.191709940940817D+02
 0.000000000000000D+00 0.000000000000000D+00 0.000000000000000D+00 0.000000000000000D+00
 0.412400855965827D+03 0.000000000000000D+00 0.000000000000000D+00 0.412400855965827D+03
 0.368740725505486D+03 0.000000000000000D+00 0.000000000000000D+00 -.368740725505486D+03
 0.149696550879361D+03 0.279010461925826D+02 -.750870291860134D+02 0.191709940940817D+02
 0.306061121091329D+03 -.235896054236621D+03 -.171299979803616D+03 -.191709940940817D+02
 0.325383909500623D+03 0.207995008044038D+03 0.246387008989630D+03 0.436601304603406D+02
0.380382777778D-03 0.000000000000D+00 0.000000000000D+00 0.162132128074D-02 0.000000000000D+00  5 -1 1 25 23 21 0 0.89746168D-02 0.68402369D-01 0.25567256D+05 0.25567256D+05 0.25567256D+05 0.12222543D+01  1  2  2  1  5  1       -1 0.141233096186D+00 0.100000000000D+01
-.211310548571D-04 0.000000000000D+00 -.146077002375D-05 0.162132128074D-02 0.000000000000D+00  5 -1 1 25 23 21 2 0.89746168D-02 0.68402369D-01 0.25567256D+05 0.25567256D+05 0.25567256D+05 0.12222543D+01  1  2  3  1  5  1       -1 -.117208735581D-01 0.100000000000D+01
0.262483306562D-04 0.000000000000D+00 0.000000000000D+00 0.162132128074D-02 0.000000000000D+00  5 -1 1 25 23 21 2 0.89746168D-02 0.68402369D-01 0.25567256D+05 0.25567256D+05 0.25567256D+05 0.12222543D+01  1  2 15  1  5  1       -1 0.145592998936D-01 0.100000000000D+01
0.269627514874D-03 0.000000000000D+00 -.164060816044D-03 0.162132128074D-02 0.000000000000D+00  5 -1 1 25 23 21 2 0.51371204D-01 0.68402369D-01 0.25567256D+05 0.25567256D+05 0.25567256D+05 0.12222543D+01  1  2  5  1  5  1       -1 0.851474719020D-02 0.100000000000D+01
0.486578470318D-04 0.000000000000D+00 -.350630792876D-04 0.162132128074D-02 0.000000000000D+00  5 21 1 25 23 1 2 0.51371204D-01 0.68402369D-01 0.25567256D+05 0.25567256D+05 0.25567256D+05 0.12222543D+01  1  2  5  3  5  1       -1 0.154542923514D-01 0.100000000000D+01
  </mgrwgt>
  </event>
  <event>
  5     66 0.43907321E-03 0.12916543E+03 0.75467711E-02 0.10980603E+00
       -1 -1    0    0    0  501 0.00000000E+00 0.00000000E+00 0.31732316E+03 0.31732332E+03 0.32000000E+00 0.0000E+00 0.9000E+01
       21 -1    0    0  501  502 0.00000000E+00 0.00000000E+00 -.56875379E+03 0.56875429E+03 0.75000000E+00 0.0000E+00 0.9000E+01
       25  1    1    2    0    0 0.73970559E+02 0.54373632E+02 0.97143149E+02 0.18300253E+03 0.12500000E+03 0.0000E+00 0.9000E+01
       23  1    1    2    0    0 0.14075874E+03 -.68395441E+02 0.99031644E+02 0.20643032E+03 0.91188000E+02 0.0000E+00 0.9000E+01
       -1  1    1    2    0  502 -.21472930E+03 0.14021809E+02 -.44760543E+03 0.49664475E+03 0.32000000E+00 0.0000E+00 0.9000E+01
#aMCatNLO 2  0  0  2  1 0.21518663D+03 0.00000000D+00  -5  5  0 0.00000000D+00 0.00000000D+00 0.00000000D+00 0.00000000D+00 0.00000000D+00
  <mgrwgt>
 0.2187843665D-01    1    2    0
 0.129294348851168D+03 0.000000000000000D+00 0.000000000000000D+00 0.129294348851168D+03
 0.129294348851168D+03 0.000000000000000D+00 0.000000000000000D+00 -.129294348851168D+03
 0.143428277984479D+03 -.337999084172794D+02 0.614110363366344D+02 0.573774630294692D+01
 0.115160419717857D+03 0.337999084172794D+02 -.614110363366344D+02 -.573774630294692D+01
 0.000000000000000D+00 -.000000000000000D+00 0.000000000000000D+00 -.000000000000000D+00
 0.182291989372565D+03 0.000000000000000D+00 0.000000000000000D+00 0.182291989372565D+03
 0.990054376724037D+03 0.000000000000000D+00 0.000000000000000D+00 -.990054376724037D+03
 0.155196833459150D+03 0.739705585353150D+02 0.543736319651697D+02 0.573774630294692D+01
 0.181215708546610D+03 0.140758742462597D+03 -.683954411328795D+02 -.573774630294692D+01
 0.835933824090841D+03 -.214729300997912D+03 0.140218091677098D+02 -.807762387351472D+03
0.369962407257D-03 0.000000000000D+00 0.000000000000D+00 0.196992989549D-02 0.435464269152D-06  5 -1 21 25 23 -1 2 0.48818990D-01 0.87500620D-01 0.76011099D+05 0.76011099D+05 0.76011099D+05 0.11746758D+01  1  2  1  4  5  2        1 0.218784366512D-01 0.100000000000D+01
  </mgrwgt>
  </event>
  <event>
  4     66 0.43907321E-03 0.12558673E+03 0.75467711E-02 0.91255309E-01
       -1 -1    0    0    0  501 0.00000000E+00 0.00000000E+00 0.80837828E+03 0.80837834E+03 0.32000000E+00 0.0000E+00 0.9000E+01
        1 -1    0    0  501    0 0.00000000E+00 0.00000000E+00 -.32583225E+02 0.32584796E+02 0.32000000E+00 0.0000E+00 0.9000E+01
       25  1    1    2    0    0 -.62922191E+02 0.73780961E+01 0.68007752E+03 0.69436595E+03 0.12500000E+03 0.0000E+00 0.9000E+01
       23  1    1    2    0    0 0.62922191E+02 -.73780961E+01 0.95717537E+02 0.14659719E+03 0.91188000E+02 0.0000E+00 0.9000E+01
#aMCatNLO 1  0  0  1  1 0.11745433D+04 0.00000000D+00  -5  5  0 0.00000000D+00 0.00000000D+00 0.00000000D+00 0.00000000D+00 0.00000000D+00
  <mgrwgt>
 0.1206812941D+00    3    2    0
 0.162296822468537D+03 0.000000000000000D+00 0.000000000000000D+00 0.162296822468537D+03
 0.162296822468537D+03 0.000000000000000D+00 0.000000000000000D+00 -.162296822468537D+03
 0.173556668078603D+03 -.629221909552308D+02 0.737809608373908D+01 0.102387883160651D+03
 0.151036976858472D+03 0.629221909552308D+02 -.737809608373908D+01 -.102387883160651D+03
 0.000000000000000D+00 0.000000000000000D+00 -.000000000000000D+00 -.000000000000000D+00
 0.839553637696461D+03 0.000000000000000D+00 0.000000000000000D+00 0.839553637696461D+03
 0.210704892378111D+04 0.000000000000000D+00 0.000000000000000D+00 -.210704892378111D+04
 0.880703424406893D+03 -.856836784622978D+03 0.123939370907171D+03 0.102387883160651D+03
 0.337866647322065D+03 -.305248552583864D+03 0.466761454705701D+02 -.102387883160651D+03
 0.172803248974861D+04 0.116208533720684D+04 -.170615516377741D+03 -.126749528608465D+04
0.119046789108D-02 0.000000000000D+00 0.000000000000D+00 0.108273967091D-02 0.000000000000D+00  5 -1 1 25 23 21 0 0.12436602D+00 0.50129296D-02 0.15772027D+05 0.15772027D+05 0.15772027D+05 0.12453454D+01  1  2  2  1  5  1       -1 0.117507345433D+00 0.100000000000D+01
-.608494226526D-04 0.000000000000D+00 -.457171015916D-05 0.108273967091D-02 0.000000000000D+00  5 -1 1 25 23 21 2 0.12436602D+00 0.50129296D-02 0.15772027D+05 0.15772027D+05 0.15772027D+05 0.12453454D+01  1  2  3  1  5  1       -1 -.931501185819D-02 0.100000000000D+01
0.815829385425D-04 0.000000000000D+00 0.000000000000D+00 0.108273967091D-02 0.000000000000D+00  5 -1 1 25 23 21 2 0.12436602D+00 0.50129296D-02 0.15772027D+05 0.15772027D+05 0.15772027D+05 0.12453454D+01  1  2 15  1  5  1       -1 0.124889605656D-01 0.100000000000D+01
  </mgrwgt>
  </event>
  <event>
  4     66 0.43907321E-03 0.12055561E+03 0.75467711E-02 0.10436565E+00
       -1 -1    0    0    0  501 0.00000000E+00 0.00000000E+00 0.26963133E+02 0.26965031E+02 0.32000000E+00 0.0000E+00 0.9000E+01
        1 -1    0    0  501    0 0.00000000E+00 0.00000000E+00 -.57995086E+03 0.57995094E+03 0.32000000E+00 0.0000E+00 0.9000E+01
       25  1    1    2    0    0 0.40252751E+02 -.34249442E+02 -.22876118E+03 0.26598870E+03 0.12500000E+03 0.0000E+00 0.9000E+01
       23  1    1    2    0    0 -.40252751E+02 0.34249442E+02 -.32422654E+03 0.34092728E+03 0.91188000E+02 0.0000E+00 0.9000E+01
#aMCatNLO 1  0  0  1  1 0.36407008D+03 0.00000000D+00  -5  5  0 0.00000000D+00 0.00000000D+00 0.00000000D+00 0.00000000D+00 0.00000000D+00
  <mgrwgt>
 0.1496404196D+00    3    2    0
 0.125051568891142D+03 0.000000000000000D+00 0.000000000000000D+00 0.125051568891142D+03
 0.125051568891142D+03 0.000000000000000D+00 0.000000000000000D+00 -.125051568891142D+03
 0.139665037400208D+03 0.402527513971025D+02 -.342494422787139D+02 0.329850629916258D+02
 0.110438100382076D+03 -.402527513971025D+02 0.342494422787139D+02 -.329850629916258D+02
 0.000000000000000D+00 -.000000000000000D+00 -.000000000000000D+00 -.000000000000000D+00
 0.373261970065326D+03 0.000000000000000D+00 0.000000000000000D+00 0.373261970065326D+03
 0.438265299267165D+03 0.000000000000000D+00 0.000000000000000D+00 -.438265299267165D+03
 0.251990808631911D+03 0.184379823515410D+03 0.113094800653386D+03 0.329850629916258D+02
 0.189708862274494D+03 0.701995841703508D+02 0.147167269062218D+03 -.329850629916258D+02
 0.369827598426085D+03 -.254579407685761D+03 -.260262069715604D+03 -.650033292018391D+02
0.179426449400D-03 0.000000000000D+00 0.000000000000D+00 0.193636700544D-02 0.000000000000D+00  5 -1 1 25 23 21 0 0.41483271D-02 0.89223362D-01 0.14533655D+05 0.14533655D+05 0.14533655D+05 0.12493893D+01  1  2  2  1  5  1       -1 0.146506973678D+00 0.100000000000D+01
-.995188751231D-05 0.000000000000D+00 -.689044809767D-06 0.193636700544D-02 0.000000000000D+00  5 -1 1 25 23 21 2 0.41483271D-02 0.89223362D-01 0.14533655D+05 0.14533655D+05 0.14533655D+05 0.12493893D+01  1  2  3  1  5  1       -1 -.126844846337D-01 0.100000000000D+01
0.124103004480D-04 0.000000000000D+00 0.000000000000D+00 0.193636700544D-02 0.000000000000D+00  5 -1 1 25 23 21 2 0.41483271D-02 0.89223362D-01 0.14533655D+05 0.14533655D+05 0.14533655D+05 0.12493893D+01  1  2 15  1  5  1       -1 0.158179305320D-01 0.100000000000D+01
  </mgrwgt>
  </event>
  <event>
  4     66 0.43907321E-03 0.11801671E+03 0.75467711E-02 0.10218245E+00
       -1 -1    0    0    0  501 0.00000000E+00 0.00000000E+00 0.25357233E+02 0.25359252E+02 0.32000000E+00 0.0000E+00 0.9000E+01
        1 -1    0    0  501    0 0.00000000E+00 0.00000000E+00 -.54934129E+03 0.54934138E+03 0.32000000E+00 0.0000E+00 0.9000E+01
       25  1    1    2    0    0 0.26132502E+02 0.38918926E+02 -.29259273E+03 0.32161017E+03 0.12500000E+03 0.0000E+00 0.9000E+01
       23  1    1    2    0    0 -.26132502E+02 -.38918926E+02 -.23139132E+03 0.25309047E+03 0.91188000E+02 0.0000E+00 0.9000E+01
#aMCatNLO 1  0  0  1  1 0.44072647D+03 0.00000000D+00  -5  5  0 0.00000000D+00 0.00000000D+00 0.00000000D+00 0.00000000D+00 0.00000000D+00
  <mgrwgt>
 0.1720013932D+00    3    2    0
 0.118027039991333D+03 0.000000000000000D+00 0.000000000000000D+00 0.118027039991333D+03
 0.118027039991333D+03 0.000000000000000D+00 0.000000000000000D+00 -.118027039991333D+03
 0.133510247603200D+03 0.261325018915089D+02 0.389189262156701D+02 0.154781852209832D+01
 0.102543832379465D+03 -.261325018915089D+02 -.389189262156701D+02 -.154781852209832D+01
 0.000000000000000D+00 0.000000000000000D+00 0.000000000000000D+00 -.000000000000000D+00
 0.333916507144855D+03 0.000000000000000D+00 0.000000000000000D+00 0.333916507144855D+03
 0.828517331261808D+03 0.000000000000000D+00 0.000000000000000D+00 -.828517331261808D+03
 0.218558255749338D+03 -.179017874673797D+03 -.963929257219384D+01 0.154781852209832D+01
 0.281403094190954D+03 -.249858441068015D+03 -.918739014145328D+02 -.154781852209832D+01
 0.662472488466371D+03 0.428876315741811D+03 0.101513193986727D+03 -.494600824116953D+03
0.175649545935D-03 0.000000000000D+00 0.000000000000D+00 0.218852194019D-02 0.000000000000D+00  5 -1 1 25 23 21 0 0.39012753D-02 0.84514207D-01 0.13927944D+05 0.13927944D+05 0.13927944D+05 0.12515106D+01  1  2  2  1  5  1       -1 0.168424700296D+00 0.100000000000D+01
-.975830801663D-05 0.000000000000D+00 -.674540505977D-06 0.218852194019D-02 0.000000000000D+00  5 -1 1 25 23 21 2 0.39012753D-02 0.84514207D-01 0.13927944D+05 0.13927944D+05 0.13927944D+05 0.12515106D+01  1  2  3  1  5  1       -1 -.146555584459D-01 0.100000000000D+01
0.121398256855D-04 0.000000000000D+00 0.000000000000D+00 0.218852194019D-02 0.000000000000D+00  5 -1 1 25 23 21 2 0.39012753D-02 0.84514207D-01 0.13927944D+05 0.13927944D+05 0.13927944D+05 0.12515106D+01  1  2 15  1  5  1       -1 0.182322513856D-01 0.100000000000D+01
  </mgrwgt>
  </event>
  <event>
  5     66 0.43907321E-03 0.12301329E+03 0.75467711E-02 0.11975756E+00
       -1 -1    0    0    0  502 0.00000000E+00 0.00000000E+00 0.11688409E+03 0.11688453E+03 0.32000000E+00 0.0000E+00 0.9000E+01
        1 -1    0    0  501    0 0.00000000E+00 0.00000000E+00 -.22898007E+03 0.22898030E+03 0.32000000E+00 0.0000E+00 0.9000E+01
       25  1    1    2    0    0 -.79901577E+02 -.15072488E+02 -.83152655E+02 0.17073607E+03 0.12500000E+03 0.0000E+00 0.9000E+01
       23  1    1    2    0    0 0.30468296E+02 0.35043690E+02 0.18222921E+02 0.10394087E+03 0.91188000E+02 0.0000E+00 0.9000E+01
       21  1    1    2  501  502 0.49433282E+02 -.19971203E+02 -.47166248E+02 0.71187890E+02 0.75000000E+00 0.0000E+00 0.9000E+01
#aMCatNLO 2  0  0  1  1 0.53315085D+02 0.00000000D+00  -5  5  0 0.00000000D+00 0.00000000D+00 0.00000000D+00 0.00000000D+00 0.00000000D+00
  <mgrwgt>
 0.1871542684D-01    1    2    0
 0.130756501565505D+03 0.000000000000000D+00 0.000000000000000D+00 0.130756501565505D+03
 0.130756501565505D+03 0.000000000000000D+00 0.000000000000000D+00 -.130756501565505D+03
 0.144732381480619D+03 -.518155511846627D+02 -.264193314601925D+02 -.440412287484994D+02
 0.116780621650390D+03 0.518155511846627D+02 0.264193314601925D+02 0.440412287484994D+02
 0.000000000000000D+00 0.000000000000000D+00 -.000000000000000D+00 -.000000000000000D+00
 0.148727177024480D+03 0.000000000000000D+00 0.000000000000000D+00 0.148727177024480D+03
 0.179950054571442D+03 0.000000000000000D+00 0.000000000000000D+00 -.179950054571442D+03
 0.155486564601924D+03 -.799015773012436D+02 -.150724877443622D+02 -.440412287484994D+02
 0.111405827733814D+03 0.304682955884333D+02 0.350436904922201D+02 0.440412287484994D+02
 0.617848392601834D+02 0.494332817128103D+02 -.199712027478579D+02 -.312228775469621D+02
0.431169536715D-04 0.000000000000D+00 0.000000000000D+00 0.177800388435D-02 0.536246019655D-05  5 -1 1 25 23 21 2 0.17981957D-01 0.35227242D-01 0.23220418D+05 0.23220418D+05 0.23220418D+05 0.12267510D+01  1  2  1  1  5  1       -1 0.187154268449D-01 0.100000000000D+01
  </mgrwgt>
  </event>
  <event>
  4     66 0.43907321E-03 0.57324177E+02 0.75467711E-02 0.12342908E+00
       -1 -1    0    0    0  501 0.00000000E+00 0.00000000E+00 0.20283268E+02 0.20285792E+02 0.32000000E+00 0.0000E+00 0.9000E+01
        1 -1    0    0  501    0 0.00000000E+00 0.00000000E+00 -.59601249E+03 0.59601257E+03 0.32000000E+00 0.0000E+00 0.9000E+01
       25  1    1    2    0    0 -.68384193E+01 -.13580295E+02 -.29539971E+03 0.32111864E+03 0.12500000E+03 0.0000E+00 0.9000E+01
       23  1    1    2    0    0 0.68384193E+01 0.13580295E+02 -.28032951E+03 0.29517973E+03 0.91188000E+02 0.0000E+00 0.9000E+01
#aMCatNLO 1  0  0  2  1 0.30517133D+02 0.00000000D+00  -5  5  0 0.00000000D+00 0.00000000D+00 0.00000000D+00 0.00000000D+00 0.00000000D+00
  <mgrwgt>
 0.2369562798D+00    9    2    0
 0.109954013571301D+03 0.000000000000000D+00 0.000000000000000D+00 0.109954013571301D+03
 0.109954013571301D+03 0.000000000000000D+00 0.000000000000000D+00 -.109954013571301D+03
 0.126574026835437D+03 -.683841934224848D+01 -.135802953507698D+02 0.128372843087369D+02
 0.933340003071653D+02 0.683841934224848D+01 0.135802953507698D+02 -.128372843087369D+02
 0.000000000000000D+00 0.000000000000000D+00 0.000000000000000D+00 -.000000000000000D+00
 0.124216200685572D+03 0.000000000000000D+00 0.000000000000000D+00 0.124216200685572D+03
 0.128634513105888D+03 0.000000000000000D+00 0.000000000000000D+00 -.128634513105888D+03
 0.129674884885983D+03 -.690086093113023D+01 -.312755179042451D+02 0.128372843087369D+02
 0.923405104799899D+02 0.679317500778279D+01 0.758575372273903D+00 -.128372843087369D+02
 0.308353184254879D+02 0.107685923347445D+00 0.305169425319712D+02 -.441831242031575D+01
0.108484348592D-03 0.000000000000D+00 0.000000000000D+00 0.238391915027D-02 0.000000000000D+00  5 -1 1 25 23 21 0 0.31207035D-02 0.91694430D-01 0.11921180D+05 0.11921180D+05 0.11921180D+05 0.12593597D+01  1  2  2  2  5  2        1 0.128363976723D+00 0.100000000000D+01
-.602654649304D-05 0.000000000000D+00 -.416608463177D-06 0.238391915027D-02 0.000000000000D+00  5 -1 1 25 23 21 2 0.31207035D-02 0.91694430D-01 0.11921180D+05 0.11921180D+05 0.11921180D+05 0.12593597D+01  1  2  3  2  5  2        1 -.113095193857D-01 0.100000000000D+01
0.751125791304D-05 0.000000000000D+00 0.000000000000D+00 0.238391915027D-02 0.000000000000D+00  5 -1 1 25 23 21 2 0.31207035D-02 0.91694430D-01 0.11921180D+05 0.11921180D+05 0.11921180D+05 0.12593597D+01  1  2 15  2  5  2        1 0.140957540237D-01 0.100000000000D+01
0.873554645172D-04 0.000000000000D+00 0.000000000000D+00 0.238391915027D-02 0.000000000000D+00  5 -1 1 25 23 21 2 0.31207035D-02 0.11234824D+00 0.15750107D+05 0.15750107D+05 0.15750107D+05 0.12454138D+01  1  2 12  2  5  2        1 0.121967069240D+00 0.100000000000D+01
-.807392776338D-04 0.000000000000D+00 0.000000000000D+00 0.238391915027D-02 0.000000000000D+00  5 -1 1 25 23 21 2 0.31207035D-02 0.91694430D-01 0.11921180D+05 0.11921180D+05 0.11921180D+05 0.12593597D+01  1  2  4  2  5  2        1 -.151516698103D+00 0.100000000000D+01
-.217469184787D-03 0.000000000000D+00 -.690346308544D-04 0.238391915027D-02 0.000000000000D+00  5 -1 1 25 23 21 2 0.31207035D-02 0.11808041D+00 0.11921180D+05 0.11921180D+05 0.11921180D+05 0.12593597D+01  1  2  5  2  5  2        1 -.286226879890D+00 0.100000000000D+01
0.229693827989D-03 0.000000000000D+00 0.668842297021D-04 0.238391915027D-02 0.000000000000D+00  5 -1 1 25 23 21 2 0.31207035D-02 0.91694430D-01 0.11921180D+05 0.11921180D+05 0.11921180D+05 0.12593597D+01  1  2  6  2  5  2        1 0.431047334226D+00 0.100000000000D+01
0.252985390445D-05 0.000000000000D+00 0.000000000000D+00 0.238391915027D-02 0.000000000000D+00  5 -1 21 25 23 -1 2 0.31207035D-02 0.11234824D+00 0.15750107D+05 0.15750107D+05 0.15750107D+05 0.12454138D+01  1  2 12  4  5  2        1 0.763395093338D-02 0.100000000000D+01
-.624377428390D-05 0.000000000000D+00 -.235632981219D-05 0.238391915027D-02 0.000000000000D+00  5 -1 21 25 23 -1 2 0.31207035D-02 0.11808041D+00 0.11921180D+05 0.11921180D+05 0.11921180D+05 0.12593597D+01  1  2  5  4  5  2        1 -.170987080155D-01 0.100000000000D+01
  </mgrwgt>
  </event>
  <event>
  4     66 0.43907321E-03 0.11359830E+03 0.75467711E-02 0.12505143E+00
       -1 -1    0    0    0  501 0.00000000E+00 0.00000000E+00 0.10050866E+02 0.10055958E+02 0.32000000E+00 0.0000E+00 0.9000E+01
        1 -1    0    0  501    0 0.00000000E+00 0.00000000E+00 -.13147334E+04 0.13147334E+04 0.32000000E+00 0.0000E+00 0.9000E+01
       25  1    1    2    0    0 0.16219158E+02 0.30498738E+02 -.64159728E+03 0.65457261E+03 0.12500000E+03 0.0000E+00 0.9000E+01
       23  1    1    2    0    0 -.16219158E+02 -.30498738E+02 -.66308525E+03 0.67021678E+03 0.91188000E+02 0.0000E+00 0.9000E+01
#aMCatNLO 1  0  0  1  2 0.39924610D+01 0.00000000D+00  -5  5  0 0.00000000D+00 0.00000000D+00 0.00000000D+00 0.00000000D+00 0.00000000D+00
  <mgrwgt>
 0.1475121107D+00    6    2    0
 0.114967856204452D+03 0.000000000000000D+00 0.000000000000000D+00 0.114967856204452D+03
 0.114967856204452D+03 0.000000000000000D+00 0.000000000000000D+00 -.114967856204452D+03
 0.130863057039981D+03 0.162191576127350D+02 0.304987378671747D+02 0.175187217767744D+02
 0.990726553689231D+02 -.162191576127350D+02 -.304987378671747D+02 -.175187217767744D+02
 0.000000000000000D+00 -.000000000000000D+00 0.000000000000000D+00 -.000000000000000D+00
 0.115835082036479D+03 0.000000000000000D+00 0.000000000000000D+00 0.115835082036479D+03
 0.119673916862339D+03 0.000000000000000D+00 0.000000000000000D+00 -.119673916862339D+03
 0.130519914456758D+03 0.171697613602033D+02 0.284383851851886D+02 0.175187217767744D+02
 0.994504566478960D+02 -.154971640828519D+02 -.320635973679215D+02 -.175187217767744D+02
 0.553862779416284D+01 -.167259727735139D+01 0.362521218273290D+01 -.383883482585990D+01
0.130034302989D-03 0.000000000000D+00 0.000000000000D+00 0.222539540670D-02 0.000000000000D+00  5 -1 1 25 23 21 0 0.15466818D-02 0.20226707D+00 0.12904573D+05 0.12904573D+05 0.12904573D+05 0.12553418D+01  1  2  2  1  5  1       -1 0.119146138645D+00 0.100000000000D+01
-.722286648235D-05 0.000000000000D+00 -.499365962296D-06 0.222539540670D-02 0.000000000000D+00  5 -1 1 25 23 21 2 0.15466818D-02 0.20226707D+00 0.12904573D+05 0.12904573D+05 0.12904573D+05 0.12553418D+01  1  2  3  1  5  1       -1 -.104293101918D-01 0.100000000000D+01
0.901982360003D-05 0.000000000000D+00 0.000000000000D+00 0.222539540670D-02 0.000000000000D+00  5 -1 1 25 23 21 2 0.15466818D-02 0.20226707D+00 0.12904573D+05 0.12904573D+05 0.12904573D+05 0.12553418D+01  1  2 15  1  5  1       -1 0.130239896348D-01 0.100000000000D+01
-.785500910229D-04 0.000000000000D+00 0.000000000000D+00 0.222539540670D-02 0.000000000000D+00  5 -1 1 25 23 21 2 0.15466818D-02 0.20226707D+00 0.12904573D+05 0.12904573D+05 0.12904573D+05 0.12553418D+01  1  2  4  1  5  1       -1 -.113420795867D+00 0.100000000000D+01
0.749313103987D-04 0.000000000000D+00 0.000000000000D+00 0.222539540670D-02 0.117109978933D-02  5 -1 1 25 23 21 2 0.15583487D-02 0.21054661D+00 0.13366437D+05 0.13366437D+05 0.13366437D+05 0.12535719D+01  1  2 11  1  5  1       -1 0.984593914979D-01 0.100000000000D+01
0.142404411514D-05 0.000000000000D+00 0.000000000000D+00 0.222539540670D-02 0.166846442361D-05  5 21 1 25 23 1 2 0.15583487D-02 0.21054661D+00 0.13366437D+05 0.13366437D+05 0.13366437D+05 0.12535719D+01  1  2 11  3  5  1       -1 0.407326969619D-01 0.100000000000D+01
  </mgrwgt>
  </event>
  <event>
  4     66 0.43907321E-03 0.20398332E+03 0.75467711E-02 0.10270137E+00
       -1 -1    0    0    0  501 0.00000000E+00 0.00000000E+00 0.23095308E+02 0.23097525E+02 0.32000000E+00 0.0000E+00 0.9000E+01
        1 -1    0    0  501    0 0.00000000E+00 0.00000000E+00 -.20254549E+04 0.20254549E+04 0.32000000E+00 0.0000E+00 0.9000E+01
       25  1    1    2    0    0 0.54284321E+02 0.16362317E+03 -.13805593E+04 0.13968852E+04 0.12500000E+03 0.0000E+00 0.9000E+01
       23  1    1    2    0    0 -.54284321E+02 -.16362317E+03 -.62180027E+03 0.65166721E+03 0.91188000E+02 0.0000E+00 0.9000E+01
#aMCatNLO 1  0  0  2  2 0.36039766D+03 0.00000000D+00  -5  5  0 0.00000000D+00 0.00000000D+00 0.00000000D+00 0.00000000D+00 0.00000000D+00
  <mgrwgt>
 0.1720381378D+00    3    2    0
 0.216288699779486D+03 0.000000000000000D+00 0.000000000000000D+00 0.216288699779486D+03
 0.216288699779486D+03 0.000000000000000D+00 0.000000000000000D+00 -.216288699779486D+03
 0.224737764228360D+03 0.542843213640980D+02 0.163623165823262D+03 -.718521727602891D+02
 0.207839635330612D+03 -.542843213640980D+02 -.163623165823262D+03 0.718521727602891D+02
 0.000000000000000D+00 0.000000000000000D+00 -.000000000000000D+00 0.000000000000000D+00
 0.509236419356418D+03 0.000000000000000D+00 0.000000000000000D+00 0.509236419356418D+03
 0.424113587499159D+03 0.000000000000000D+00 0.000000000000000D+00 -.424113587499159D+03
 0.290267907871337D+03 -.123553537450262D+03 0.219550101328046D+03 -.718521727602891D+02
 0.272768218813847D+03 -.220244186159275D+03 -.111431654315742D+03 0.718521727602891D+02
 0.370313880170392D+03 0.343797723609538D+03 -.108118447012304D+03 0.851228318572594D+02
0.175894047977D-02 0.000000000000D+00 0.000000000000D+00 0.127175742788D-02 0.000000000000D+00  5 -1 1 25 23 21 0 0.35532968D-02 0.31160862D+00 0.41609194D+05 0.41609194D+05 0.41609194D+05 0.12002647D+01  1  2  2  2  5  2        1 0.168725409887D+00 0.100000000000D+01
-.973112559888D-04 0.000000000000D+00 -.675479458199D-05 0.127175742788D-02 0.000000000000D+00  5 -1 1 25 23 21 2 0.35532968D-02 0.31160862D+00 0.41609194D+05 0.41609194D+05 0.41609194D+05 0.12002647D+01  1  2  3  2  5  2        1 -.134476521654D-01 0.100000000000D+01
0.121283151898D-03 0.000000000000D+00 0.000000000000D+00 0.127175742788D-02 0.000000000000D+00  5 -1 1 25 23 21 2 0.35532968D-02 0.31160862D+00 0.41609194D+05 0.41609194D+05 0.41609194D+05 0.12002647D+01  1  2 15  2  5  2        1 0.167603801192D-01 0.100000000000D+01
  </mgrwgt>
  </event>
  <event>
  4     66 0.43907321E-03 0.16731153E+03 0.75467711E-02 0.10094737E+00
       -3 -1    0    0    0  501 0.00000000E+00 0.00000000E+00 0.17398734E+03 0.17398806E+03 0.50000000E+00 0.0000E+00 0.9000E+01
        3 -1    0    0  501    0 0.00000000E+00 0.00000000E+00 -.18764992E+03 0.18765059E+03 0.50000000E+00 0.0000E+00 0.9000E+01
       25  1    1    2    0    0 -.47403784E+02 0.11787792E+03 0.60943743E+02 0.18836524E+03 0.12500000E+03 0.0000E+00 0.9000E+01
       23  1    1    2    0    0 0.47403784E+02 -.11787792E+03 -.74606318E+02 0.17327341E+03 0.91188000E+02 0.0000E+00 0.9000E+01
#aMCatNLO 1  0  0  2  2 0.46265739D+03 0.00000000D+00  -5  5  0 0.00000000D+00 0.00000000D+00 0.00000000D+00 0.00000000D+00 0.00000000D+00
  <mgrwgt>
 0.2565214299D-01    5    2    0
 0.180690236536969D+03 0.000000000000000D+00 0.000000000000000D+00 0.180690236536969D+03
 0.180690236536969D+03 0.000000000000000D+00 0.000000000000000D+00 -.180690236536969D+03
 0.190803882957627D+03 -.474037841953370D+02 0.117877916257646D+03 0.681087355221411D+02
 0.170576590116310D+03 0.474037841953370D+02 -.117877916257646D+03 -.681087355221411D+02
 0.000000000000000D+00 0.000000000000000D+00 0.000000000000000D+00 -.000000000000000D+00
 0.445888575867022D+03 0.000000000000000D+00 0.000000000000000D+00 0.445888575867022D+03
 0.644772034779407D+03 0.000000000000000D+00 0.000000000000000D+00 -.644772034779407D+03
 0.284686901681448D+03 -.246539501840921D+03 -.105174454520140D+01 0.681087355221411D+02
 0.302380134207395D+03 -.150670668046667D+03 -.236173758396712D+03 -.681087355221411D+02
 0.503593574757586D+03 0.397210169887588D+03 0.237225502941913D+03 -.198883458912386D+03
0.627896751500D-03 0.000000000000D+00 0.000000000000D+00 0.134192900192D-02 0.000000000000D+00  5 -3 3 25 23 21 0 0.26767390D-01 0.28869325D-01 0.27993150D+05 0.27993150D+05 0.27993150D+05 0.12180670D+01  1  2  2  2  5  2        3 0.229447702040D-01 0.100000000000D+01
-.346321663001D-04 0.000000000000D+00 -.241128885477D-05 0.134192900192D-02 0.000000000000D+00  5 -3 3 25 23 21 2 0.26767390D-01 0.28869325D-01 0.27993150D+05 0.27993150D+05 0.27993150D+05 0.12180670D+01  1  2  3  2  5  2        3 -.187766238221D-02 0.100000000000D+01
0.432048322418D-04 0.000000000000D+00 0.000000000000D+00 0.134192900192D-02 0.000000000000D+00  5 -3 3 25 23 21 2 0.26767390D-01 0.28869325D-01 0.27993150D+05 0.27993150D+05 0.27993150D+05 0.12180670D+01  1  2 15  2  5  2        3 0.234244914185D-02 0.100000000000D+01
0.777366842184D-03 0.000000000000D+00 -.396129764675D-03 0.134192900192D-02 0.000000000000D+00  5 -3 3 25 23 21 2 0.26767390D-01 0.20918294D+00 0.27993150D+05 0.27993150D+05 0.27993150D+05 0.12180670D+01  1  2  5  2  5  2        3 0.528924516996D-03 0.100000000000D+01
0.147991129619D-03 0.000000000000D+00 -.957577238779D-04 0.134192900192D-02 0.000000000000D+00  5 -3 21 25 23 -3 2 0.26767390D-01 0.20918294D+00 0.27993150D+05 0.27993150D+05 0.27993150D+05 0.12180670D+01  1  2  5  4  5  2        3 0.171366150747D-02 0.100000000000D+01
  </mgrwgt>
  </event>
  <event>
  5     66 0.43907321E-03 0.15316368E+03 0.75467711E-02 0.11807158E+00
       -1 -1    0    0    0  502 0.00000000E+00 0.00000000E+00 0.57876037E+02 0.57876921E+02 0.32000000E+00 0.0000E+00 0.9000E+01
        1 -1    0    0  501    0 0.00000000E+00 0.00000000E+00 -.48875925E+03 0.48875935E+03 0.32000000E+00 0.0000E+00 0.9000E+01
       25  1    1    2    0    0 0.82590964E+02 0.44712793E+02 -.21454773E+03 0.26547359E+03 0.12500000E+03 0.0000E+00 0.9000E+01
       23  1    1    2    0    0 -.10350702E+03 -.61840562E+02 -.16983908E+03 0.22737309E+03 0.91188000E+02 0.0000E+00 0.9000E+01
       21  1    1    2  501  502 0.20916055E+02 0.17127770E+02 -.46496404E+02 0.53789590E+02 0.75000000E+00 0.0000E+00 0.9000E+01
#aMCatNLO 2  0  0  1  2 0.27034087D+02 0.00000000D+00  -5  5  0 0.00000000D+00 0.00000000D+00 0.00000000D+00 0.00000000D+00 0.00000000D+00
  <mgrwgt>
 0.7926141382D-01    1    2    0
 0.153634138647745D+03 0.000000000000000D+00 0.000000000000000D+00 0.153634138647745D+03
 0.153634138647745D+03 0.000000000000000D+00 0.000000000000000D+00 -.153634138647745D+03
 0.165528872331838D+03 0.935407328041810D+02 0.536793553139426D+02 -.119777166015202D+02
 0.141739404963652D+03 -.935407328041810D+02 -.536793553139426D+02 0.119777166015202D+02
 0.000000000000000D+00 0.000000000000000D+00 0.000000000000000D+00 -.000000000000000D+00
 0.164593432135126D+03 0.000000000000000D+00 0.000000000000000D+00 0.164593432135126D+03
 0.171853878745965D+03 0.000000000000000D+00 0.000000000000000D+00 -.171853878745965D+03
 0.156808694915587D+03 0.825909637244991D+02 0.447127925453305D+02 -.119777166015202D+02
 0.151646546713054D+03 -.103507018923157D+03 -.618405621307666D+02 0.119777166015202D+02
 0.279920692524500D+02 0.209160551986583D+02 0.171277695854361D+02 -.726044661083932D+01
0.160417206791D-03 0.000000000000D+00 0.000000000000D+00 0.168750191789D-02 0.183678911536D-04  5 -1 1 25 23 21 2 0.89038144D-02 0.75191548D-01 0.27982170D+05 0.27982170D+05 0.27982170D+05 0.12180850D+01  1  2  1  1  5  1       -1 0.792614138190D-01 0.100000000000D+01
  </mgrwgt>
  </event>
  <event>
  4     66 0.43907321E-03 0.73308677E+02 0.75467711E-02 0.11935076E+00
       -1 -1    0    0    0  501 0.00000000E+00 0.00000000E+00 0.56213624E+02 0.56214535E+02 0.32000000E+00 0.0000E+00 0.9000E+01
        1 -1    0    0  501    0 0.00000000E+00 0.00000000E+00 -.32488960E+03 0.32488976E+03 0.32000000E+00 0.0000E+00 0.9000E+01
       25  1    1    2    0    0 0.35615852E+02 -.67200947E+02 -.11069634E+03 0.18347517E+03 0.12500000E+03 0.0000E+00 0.9000E+01
       23  1    1    2    0    0 -.35615852E+02 0.67200947E+02 -.15797963E+03 0.19762913E+03 0.91188000E+02 0.0000E+00 0.9000E+01
#aMCatNLO 1  0  0  1  2 0.43176052D+02 0.00000000D+00  -5  5  0 0.00000000D+00 0.00000000D+00 0.00000000D+00 0.00000000D+00 0.00000000D+00
  <mgrwgt>
 0.1606704524D+00    9    2    0
 0.135142241785831D+03 0.000000000000000D+00 0.000000000000000D+00 0.135142241785831D+03
 0.135142241785831D+03 0.000000000000000D+00 0.000000000000000D+00 -.135142241785831D+03
 0.148664565671031D+03 0.356158519157165D+02 -.672009466084314D+02 0.263001321936768D+02
 0.121619917900632D+03 -.356158519157165D+02 0.672009466084314D+02 -.263001321936768D+02
 0.000000000000000D+00 0.000000000000000D+00 0.000000000000000D+00 0.000000000000000D+00
 0.165644794245916D+03 0.000000000000000D+00 0.000000000000000D+00 0.165644794245916D+03
 0.153043792751122D+03 0.000000000000000D+00 0.000000000000000D+00 -.153043792751122D+03
 0.160248606329222D+03 0.317356414723580D+02 -.914098897132637D+02 0.263001321936768D+02
 0.113462689621139D+03 -.385686880892325D+02 0.487779656990077D+02 -.263001321936768D+02
 0.449772910466768D+02 0.683304661687453D+01 0.426319240142560D+02 0.126010014947940D+02
0.202819464843D-03 0.000000000000D+00 0.000000000000D+00 0.183169543096D-02 0.000000000000D+00  5 -1 1 25 23 21 0 0.86483321D-02 0.49983098D-01 0.17564452D+05 0.17564452D+05 0.17564452D+05 0.12400834D+01  1  2  2  1  5  1       -1 0.117123008578D+00 0.100000000000D+01
-.112625324000D-04 0.000000000000D+00 -.778880148588D-06 0.183169543096D-02 0.000000000000D+00  5 -1 1 25 23 21 2 0.86483321D-02 0.49983098D-01 0.17564452D+05 0.17564452D+05 0.17564452D+05 0.12400834D+01  1  2  3  1  5  1       -1 -.100016221776D-01 0.100000000000D+01
0.140194386763D-04 0.000000000000D+00 0.000000000000D+00 0.183169543096D-02 0.000000000000D+00  5 -1 1 25 23 21 2 0.86483321D-02 0.49983098D-01 0.17564452D+05 0.17564452D+05 0.17564452D+05 0.12400834D+01  1  2 15  1  5  1       -1 0.124498757298D-01 0.100000000000D+01
0.123930060936D-03 0.000000000000D+00 0.000000000000D+00 0.183169543096D-02 0.000000000000D+00  5 -1 1 25 23 21 2 0.11068050D-01 0.49983098D-01 0.24277412D+05 0.24277412D+05 0.24277412D+05 0.12246656D+01  1  2 12  1  5  1       -1 0.742992172620D-01 0.100000000000D+01
-.127155609778D-03 0.000000000000D+00 0.000000000000D+00 0.183169543096D-02 0.000000000000D+00  5 -1 1 25 23 21 2 0.86483321D-02 0.49983098D-01 0.17564452D+05 0.17564452D+05 0.17564452D+05 0.12400834D+01  1  2  4  1  5  1       -1 -.112919752113D+00 0.100000000000D+01
-.258020414509D-03 0.000000000000D+00 -.929165091339D-04 0.183169543096D-02 0.000000000000D+00  5 -1 1 25 23 21 2 0.11971334D-01 0.49983098D-01 0.17564452D+05 0.17564452D+05 0.17564452D+05 0.12400834D+01  1  2  5  1  5  1       -1 -.139462619596D+00 0.100000000000D+01
0.278105433549D-03 0.000000000000D+00 0.882123114998D-04 0.183169543096D-02 0.000000000000D+00  5 -1 1 25 23 21 2 0.86483321D-02 0.49983098D-01 0.17564452D+05 0.17564452D+05 0.17564452D+05 0.12400834D+01  1  2  6  1  5  1       -1 0.246969808664D+00 0.100000000000D+01
0.415319086924D-05 0.000000000000D+00 0.000000000000D+00 0.183169543096D-02 0.000000000000D+00  5 21 1 25 23 1 2 0.11068050D-01 0.49983098D-01 0.24277412D+05 0.24277412D+05 0.24277412D+05 0.12246656D+01  1  2 12  3  5  1       -1 0.365389656106D-01 0.100000000000D+01
-.821388753941D-05 0.000000000000D+00 -.380638805365D-05 0.183169543096D-02 0.000000000000D+00  5 21 1 25 23 1 2 0.11971334D-01 0.49983098D-01 0.17564452D+05 0.17564452D+05 0.17564452D+05 0.12400834D+01  1  2  5  3  5  1       -1 -.643264296016D-01 0.100000000000D+01
  </mgrwgt>
  </event>
  <event>
  4     66 0.43907321E-03 0.12623970E+03 0.75467711E-02 0.11221574E+00
       -1 -1    0    0    0  501 0.00000000E+00 0.00000000E+00 0.14257911E+02 0.14261502E+02 0.32000000E+00 0.0000E+00 0.9000E+01
        1 -1    0    0  501    0 0.00000000E+00 0.00000000E+00 -.17935185E+04 0.17935185E+04 0.32000000E+00 0.0000E+00 0.9000E+01
       25  1    1    2    0    0 0.31534598E+02 -.56404413E+02 -.15058197E+04 0.15123802E+04 0.12500000E+03 0.0000E+00 0.9000E+01
       23  1    1    2    0    0 -.31534598E+02 0.56404413E+02 -.27344084E+03 0.29539979E+03 0.91188000E+02 0.0000E+00 0.9000E+01
#aMCatNLO 1  0  0  1  1 0.16954367D+03 0.00000000D+00  -5  5  0 0.00000000D+00 0.00000000D+00 0.00000000D+00 0.00000000D+00 0.00000000D+00
  <mgrwgt>
 0.1538573829D+00    3    2    0
 0.159922162137997D+03 0.000000000000000D+00 0.000000000000000D+00 0.159922162137997D+03
 0.159922162137997D+03 0.000000000000000D+00 0.000000000000000D+00 -.159922162137997D+03
 0.171349203515934D+03 0.315345981282363D+02 -.564044132997590D+02 -.977735180237757D+02
 0.148495120760061D+03 -.315345981282363D+02 0.564044132997590D+02 0.977735180237757D+02
 0.000000000000000D+00 0.000000000000000D+00 -.000000000000000D+00 -.000000000000000D+00
 0.213492145162455D+03 0.000000000000000D+00 0.000000000000000D+00 0.213492145162455D+03
 0.402177078644475D+03 0.000000000000000D+00 0.000000000000000D+00 -.402177078644475D+03
 0.160093094916673D+03 0.294413128551306D+01 0.208918717262736D+02 -.977735180237757D+02
 0.201908905146971D+03 -.617607181244708D+02 0.138122798638215D+03 0.977735180237757D+02
 0.253667223743285D+03 0.588165868389577D+02 -.159014670364488D+03 -.188684933482020D+03
0.547735971274D-03 0.000000000000D+00 0.000000000000D+00 0.112968161844D-02 0.000000000000D+00  5 -1 1 25 23 21 0 0.21938032D-02 0.27592620D+00 0.15936462D+05 0.15936462D+05 0.15936462D+05 0.12448353D+01  1  2  2  1  5  1       -1 0.149936737104D+00 0.100000000000D+01
-.283603024258D-04 0.000000000000D+00 -.210345035189D-05 0.112968161844D-02 0.000000000000D+00  5 -1 1 25 23 21 2 0.21938032D-02 0.27592620D+00 0.15936462D+05 0.15936462D+05 0.15936462D+05 0.12448353D+01  1  2  3  1  5  1       -1 -.120301617141D-01 0.100000000000D+01
0.376029628242D-04 0.000000000000D+00 0.000000000000D+00 0.112968161844D-02 0.000000000000D+00  5 -1 1 25 23 21 2 0.21938032D-02 0.27592620D+00 0.15936462D+05 0.15936462D+05 0.15936462D+05 0.12448353D+01  1  2 15  1  5  1       -1 0.159508074671D-01 0.100000000000D+01
  </mgrwgt>
  </event>
  <event>
  4     66 0.43907321E-03 0.12349555E+03 0.75467711E-02 0.11279880E+00
       -1 -1    0    0    0  501 0.00000000E+00 0.00000000E+00 0.13803140E+03 0.13803177E+03 0.32000000E+00 0.0000E+00 0.9000E+01
        1 -1    0    0  501    0 0.00000000E+00 0.00000000E+00 -.11049813E+03 0.11049859E+03 0.32000000E+00 0.0000E+00 0.9000E+01
       25  1    1    2    0    0 0.55921779E+02 -.19306699E+02 0.14338318E+02 0.13903446E+03 0.12500000E+03 0.0000E+00 0.9000E+01
       23  1    1    2    0    0 -.55921779E+02 0.19306699E+02 0.13194955E+02 0.10949590E+03 0.91188000E+02 0.0000E+00 0.9000E+01
#aMCatNLO 1  0  0  1  1 0.16123146D+03 0.00000000D+00  -5  5  0 0.00000000D+00 0.00000000D+00 0.00000000D+00 0.00000000D+00 0.00000000D+00
  <mgrwgt>
 0.1014882332D+00    5    2    0
 0.123500262576009D+03 0.000000000000000D+00 0.000000000000000D+00 0.123500262576009D+03
 0.123500262576009D+03 0.000000000000000D+00 0.000000000000000D+00 -.123500262576009D+03
 0.138297293172404D+03 0.559217790221878D+02 -.193066993166061D+02 -.107111684961457D+01
 0.108703231979614D+03 -.559217790221878D+02 0.193066993166061D+02 0.107111684961457D+01
 0.000000000000000D+00 -.000000000000000D+00 -.000000000000000D+00 0.000000000000000D+00
 0.288320292832863D+03 0.000000000000000D+00 0.000000000000000D+00 0.288320292832863D+03
 0.193627600844640D+03 0.000000000000000D+00 0.000000000000000D+00 -.193627600844640D+03
 0.157380618505880D+03 0.673048336514986D+02 0.679159124000550D+02 -.107111684961457D+01
 0.137585216452026D+03 -.464401276970934D+02 0.919598156279303D+02 0.107111684961457D+01
 0.186982058719597D+03 -.208647059544051D+02 -.159875728027985D+03 0.946926919882233D+02
0.174591658849D-03 0.000000000000D+00 0.000000000000D+00 0.207358981895D-02 0.000000000000D+00  5 -1 1 25 23 21 0 0.21235664D-01 0.16999776D-01 0.15251151D+05 0.15251151D+05 0.15251151D+05 0.12470013D+01  1  2  2  1  5  1       -1 0.953663748386D-01 0.100000000000D+01
-.969953658555D-05 0.000000000000D+00 -.670477941020D-06 0.207358981895D-02 0.000000000000D+00  5 -1 1 25 23 21 2 0.21235664D-01 0.16999776D-01 0.15251151D+05 0.15251151D+05 0.15251151D+05 0.12470013D+01  1  2  3  1  5  1       -1 -.823865959406D-02 0.100000000000D+01
0.120913854946D-04 0.000000000000D+00 0.000000000000D+00 0.207358981895D-02 0.000000000000D+00  5 -1 1 25 23 21 2 0.21235664D-01 0.16999776D-01 0.15251151D+05 0.15251151D+05 0.15251151D+05 0.12470013D+01  1  2 15  1  5  1       -1 0.102702647938D-01 0.100000000000D+01
0.111036387618D-04 0.000000000000D+00 -.549534913759D-04 0.207358981895D-02 0.000000000000D+00  5 -1 1 25 23 21 2 0.73738874D-01 0.16999776D-01 0.15251151D+05 0.15251151D+05 0.15251151D+05 0.12470013D+01  1  2  5  1  5  1       -1 0.104883881187D-02 0.100000000000D+01
0.342977484542D-05 0.000000000000D+00 -.799268318857D-05 0.207358981895D-02 0.000000000000D+00  5 21 1 25 23 1 2 0.73738874D-01 0.16999776D-01 0.15251151D+05 0.15251151D+05 0.15251151D+05 0.12470013D+01  1  2  5  3  5  1       -1 0.304141437389D-02 0.100000000000D+01
  </mgrwgt>
  </event>
  <event>
  5     66 0.43907321E-03 0.10940503E+03 0.75467711E-02 0.12378215E+00
       -1 -1    0    0    0  502 0.00000000E+00 0.00000000E+00 0.41695489E+02 0.41696717E+02 0.32000000E+00 0.0000E+00 0.9000E+01
        1 -1    0    0  501    0 0.00000000E+00 0.00000000E+00 -.49294677E+03 0.49294687E+03 0.32000000E+00 0.0000E+00 0.9000E+01
       25  1    1    2    0    0 -.19635199E+01 0.39621415E+01 -.33363635E+03 0.35631133E+03 0.12500000E+03 0.0000E+00 0.9000E+01
       23  1    1    2    0    0 0.27954451E+02 -.31221644E+01 -.54100635E+02 0.10969653E+03 0.91188000E+02 0.0000E+00 0.9000E+01
       21  1    1    2  501  502 -.25990931E+02 -.83997712E+00 -.63514296E+02 0.68635722E+02 0.75000000E+00 0.0000E+00 0.9000E+01
#aMCatNLO 2  0  0  1  1 0.26004500D+02 0.00000000D+00  -5  5  0 0.00000000D+00 0.00000000D+00 0.00000000D+00 0.00000000D+00 0.00000000D+00
  <mgrwgt>
 0.5504270120D-01    1    2    0
 0.128595421049016D+03 0.000000000000000D+00 0.000000000000000D+00 0.128595421049016D+03
 0.128595421049016D+03 0.000000000000000D+00 0.000000000000000D+00 -.128595421049016D+03
 0.142806169371878D+03 -.163125720921694D+02 0.349840758316822D+01 -.670094258055476D+02
 0.114384672726154D+03 0.163125720921694D+02 -.349840758316822D+01 0.670094258055476D+02
 0.000000000000000D+00 -.000000000000000D+00 -.000000000000000D+00 -.000000000000000D+00
 0.137703421051434D+03 0.000000000000000D+00 0.000000000000000D+00 0.137703421051434D+03
 0.149252451720154D+03 0.000000000000000D+00 0.000000000000000D+00 -.149252451720154D+03
 0.141897206182451D+03 -.196351992578720D+01 0.396214147866489D+01 -.670094258055476D+02
 0.116604947188533D+03 0.279544505897293D+02 -.312216435790343D+01 0.670094258055476D+02
 0.284537194006037D+02 -.259909306639421D+02 -.839977120761458D+00 -.115490306687203D+02
0.664996089403D-04 0.000000000000D+00 0.000000000000D+00 0.156778554894D-02 0.195222888358D-04  5 -1 1 25 23 21 2 0.64145685D-02 0.75835411D-01 0.15191846D+05 0.15191846D+05 0.15191846D+05 0.12471938D+01  1  2  1  1  5  1       -1 0.550427011982D-01 0.100000000000D+01
  </mgrwgt>
  </event>
  <event>
  4     66 0.43907321E-03 0.19141116E+03 0.75467711E-02 0.11331293E+00
       -1 -1    0    0    0  501 0.00000000E+00 0.00000000E+00 0.14497171E+02 0.14500703E+02 0.32000000E+00 0.0000E+00 0.9000E+01
        1 -1    0    0  501    0 0.00000000E+00 0.00000000E+00 -.25402854E+04 0.25402854E+04 0.32000000E+00 0.0000E+00 0.9000E+01
       25  1    1    2    0    0 0.13141516E+03 0.86540809E+02 -.12331389E+04 0.12494061E+04 0.12500000E+03 0.0000E+00 0.9000E+01
       23  1    1    2    0    0 -.13141516E+03 -.86540809E+02 -.12926493E+04 0.13053799E+04 0.91188000E+02 0.0000E+00 0.9000E+01
#aMCatNLO 1  0  0  1  1 0.55262311D+02 0.00000000D+00  -5  5  0 0.00000000D+00 0.00000000D+00 0.00000000D+00 0.00000000D+00 0.00000000D+00
  <mgrwgt>
 0.1430495199D+00    4    2    0
 0.191915317139275D+03 0.000000000000000D+00 0.000000000000000D+00 0.191915317139275D+03
 0.191915317139275D+03 0.000000000000000D+00 0.000000000000000D+00 -.191915317139275D+03
 0.201437418820580D+03 0.131415160387128D+03 0.865408086111037D+02 0.138844433255110D+02
 0.182393215457970D+03 -.131415160387128D+03 -.865408086111037D+02 -.138844433255110D+02
 0.000000000000000D+00 -.000000000000000D+00 -.000000000000000D+00 -.000000000000000D+00
 0.205735260007582D+03 0.000000000000000D+00 0.000000000000000D+00 0.205735260007582D+03
 0.258371747951163D+03 0.000000000000000D+00 0.000000000000000D+00 -.258371747951163D+03
 0.225454186743388D+03 0.160334531858149D+03 0.964606160434976D+02 0.138844433255110D+02
 0.162334259252298D+03 -.108061920905544D+03 -.785302735684583D+02 -.138844433255110D+02
 0.763185619630598D+02 -.522726109526054D+02 -.179303424750393D+02 -.526364879435810D+02
0.183054811844D-02 0.000000000000D+00 0.000000000000D+00 0.147937197088D-02 0.000000000000D+00  5 -1 1 25 23 21 0 0.22306073D-02 0.39081340D+00 0.36638233D+05 0.36638233D+05 0.36638233D+05 0.12058912D+01  1  2  2  1  5  1       -1 0.161032325746D+00 0.100000000000D+01
-.101696262149D-03 0.000000000000D+00 -.702978676920D-05 0.147937197088D-02 0.000000000000D+00  5 -1 1 25 23 21 2 0.22306073D-02 0.39081340D+00 0.36638233D+05 0.36638233D+05 0.36638233D+05 0.12058912D+01  1  2  3  1  5  1       -1 -.130092779726D-01 0.100000000000D+01
0.126253623147D-03 0.000000000000D+00 0.000000000000D+00 0.147937197088D-02 0.000000000000D+00  5 -1 1 25 23 21 2 0.22306073D-02 0.39081340D+00 0.36638233D+05 0.36638233D+05 0.36638233D+05 0.12058912D+01  1  2 15  1  5  1       -1 0.161507261315D-01 0.100000000000D+01
-.165132736399D-03 0.000000000000D+00 0.000000000000D+00 0.147937197088D-02 0.000000000000D+00  5 -1 1 25 23 21 2 0.22306073D-02 0.39081340D+00 0.36638233D+05 0.36638233D+05 0.36638233D+05 0.12058912D+01  1  2  4  1  5  1       -1 -.211242539775D-01 0.100000000000D+01
  </mgrwgt>
  </event>
  <event>
  4     66 0.43907321E-03 0.16813373E+03 0.75467711E-02 0.11525391E+00
       -1 -1    0    0    0  501 0.00000000E+00 0.00000000E+00 0.88423270E+02 0.88423849E+02 0.32000000E+00 0.0000E+00 0.9000E+01
        1 -1    0    0  501    0 0.00000000E+00 0.00000000E+00 -.43566823E+03 0.43566835E+03 0.32000000E+00 0.0000E+00 0.9000E+01
       25  1    1    2    0    0 0.31478070E+02 0.12420181E+03 -.31684953E+03 0.36391700E+03 0.12500000E+03 0.0000E+00 0.9000E+01
       23  1    1    2    0    0 -.31478070E+02 -.12420181E+03 -.30395427E+02 0.16017519E+03 0.91188000E+02 0.0000E+00 0.9000E+01
#aMCatNLO 1  0  0  2  1 0.52904296D+02 0.00000000D+00  -5  5  0 0.00000000D+00 0.00000000D+00 0.00000000D+00 0.00000000D+00 0.00000000D+00
  <mgrwgt>
 0.1049207045D+00    4    2    0
 0.196273767621181D+03 0.000000000000000D+00 0.000000000000000D+00 0.196273767621181D+03
 0.196273767621181D+03 0.000000000000000D+00 0.000000000000000D+00 -.196273767621181D+03
 0.205584421745512D+03 0.314780703390532D+02 0.124201811977381D+03 -.101108829751419D+03
 0.186963113496851D+03 -.314780703390532D+02 -.124201811977381D+03 0.101108829751419D+03
 0.000000000000000D+00 -.000000000000000D+00 0.000000000000000D+00 0.000000000000000D+00
 0.254124161097404D+03 0.000000000000000D+00 0.000000000000000D+00 0.254124161097404D+03
 0.210526262270806D+03 0.000000000000000D+00 0.000000000000000D+00 -.210526262270806D+03
 0.203397849977282D+03 0.557538289829124D+02 0.111419031028920D+03 -.101108829751419D+03
 0.192698643286132D+03 -.894267501459697D+01 -.136068177360460D+03 0.101108829751419D+03
 0.685539301047963D+02 -.468111539683155D+02 0.246491463315401D+02 0.435978988265981D+02
0.716953940161D-03 0.000000000000D+00 0.000000000000D+00 0.112341074505D-02 0.000000000000D+00  5 -1 1 25 23 21 0 0.13603634D-01 0.67025935D-01 0.28268951D+05 0.28268951D+05 0.28268951D+05 0.12176168D+01  1  2  2  2  5  2        1 0.144069696034D+00 0.100000000000D+01
-.386710200746D-04 0.000000000000D+00 -.275329190852D-05 0.112341074505D-02 0.000000000000D+00  5 -1 1 25 23 21 2 0.13603634D-01 0.67025935D-01 0.28268951D+05 0.28268951D+05 0.28268951D+05 0.12176168D+01  1  2  3  2  5  2        1 -.115209492662D-01 0.100000000000D+01
0.493010886096D-04 0.000000000000D+00 0.000000000000D+00 0.112341074505D-02 0.000000000000D+00  5 -1 1 25 23 21 2 0.13603634D-01 0.67025935D-01 0.28268951D+05 0.28268951D+05 0.28268951D+05 0.12176168D+01  1  2 15  2  5  2        1 0.146878809906D-01 0.100000000000D+01
-.142036899897D-03 0.000000000000D+00 0.000000000000D+00 0.112341074505D-02 0.000000000000D+00  5 -1 1 25 23 21 2 0.13603634D-01 0.67025935D-01 0.28268951D+05 0.28268951D+05 0.28268951D+05 0.12176168D+01  1  2  4  2  5  2        1 -.423159232543D-01 0.100000000000D+01
  </mgrwgt>
  </event>
  <event>
  4     66 0.43907321E-03 0.11134179E+03 0.75467711E-02 0.10155169E+00
       -1 -1    0    0    0  501 0.00000000E+00 0.00000000E+00 0.25151032E+03 0.25151053E+03 0.32000000E+00 0.0000E+00 0.9000E+01
        1 -1    0    0  501    0 0.00000000E+00 0.00000000E+00 -.64438536E+02 0.64439331E+02 0.32000000E+00 0.0000E+00 0.9000E+01
       25  1    1    2    0    0 0.43292953E+01 -.26028978E+02 0.18003908E+03 0.22076078E+03 0.12500000E+03 0.0000E+00 0.9000E+01
       23  1    1    2    0    0 -.43292953E+01 0.26028978E+02 0.70327053E+01 0.95189079E+02 0.91188000E+02 0.0000E+00 0.9000E+01
#aMCatNLO 1  0  0  1  2 0.46814355D+03 0.00000000D+00  -5  5  0 0.00000000D+00 0.00000000D+00 0.00000000D+00 0.00000000D+00 0.00000000D+00
  <mgrwgt>
 0.1382664742D+00    5    2    0
 0.127307166883384D+03 0.000000000000000D+00 0.000000000000000D+00 0.127307166883384D+03
 0.127307166883384D+03 0.000000000000000D+00 0.000000000000000D+00 -.127307166883384D+03
 0.141661717445915D+03 0.432929525796093D+01 -.260289777286676D+02 0.612110423918434D+02
 0.112952616320854D+03 -.432929525796093D+01 0.260289777286676D+02 -.612110423918434D+02
 0.000000000000000D+00 -.000000000000000D+00 -.000000000000000D+00 0.000000000000000D+00
 0.178256653691776D+04 0.000000000000000D+00 0.000000000000000D+00 0.178256653691776D+04
 0.302590248004021D+03 0.000000000000000D+00 0.000000000000000D+00 -.302590248004021D+03
 0.263983038520637D+03 0.154366409413212D+03 0.162746012426617D+03 0.612110423918434D+02
 0.268921124127573D+03 0.136915557894480D+03 0.203741645114063D+03 -.612110423918434D+02
 0.155225262227357D+04 -.291281967307692D+03 -.366487657540680D+03 0.147997628891374D+04
0.335942475627D-03 0.000000000000D+00 0.000000000000D+00 0.164884206436D-02 0.000000000000D+00  5 -1 1 25 23 21 0 0.38693973D-01 0.99136978D-02 0.12396994D+05 0.12396994D+05 0.12396994D+05 0.12573709D+01  1  2  2  1  5  1       -1 0.135179828061D+00 0.100000000000D+01
-.182560235347D-04 0.000000000000D+00 -.129010756209D-05 0.164884206436D-02 0.000000000000D+00  5 -1 1 25 23 21 2 0.38693973D-01 0.99136978D-02 0.12396994D+05 0.12396994D+05 0.12396994D+05 0.12573709D+01  1  2  3  1  5  1       -1 -.116139495331D-01 0.100000000000D+01
0.231037856681D-04 0.000000000000D+00 0.000000000000D+00 0.164884206436D-02 0.000000000000D+00  5 -1 1 25 23 21 2 0.38693973D-01 0.99136978D-02 0.12396994D+05 0.12396994D+05 0.12396994D+05 0.12573709D+01  1  2 15  1  5  1       -1 0.146979543635D-01 0.100000000000D+01
0.183088181015D-03 0.000000000000D+00 -.360030577204D-03 0.164884206436D-02 0.000000000000D+00  5 -1 1 25 23 21 2 0.66496979D+00 0.99136978D-02 0.12396994D+05 0.12396994D+05 0.12396994D+05 0.12573709D+01  1  2  5  1  5  1       -1 0.643706704110D-05 0.100000000000D+01
-.284777076265D-04 0.000000000000D+00 -.112836208728D-03 0.164884206436D-02 0.000000000000D+00  5 21 1 25 23 1 2 0.66496979D+00 0.99136978D-02 0.12396994D+05 0.12396994D+05 0.12396994D+05 0.12573709D+01  1  2  5  3  5  1       -1 -.379575989201D-05 0.100000000000D+01
  </mgrwgt>
  </event>
  <event>
  4     66 -.43907321E-03 0.11570676E+03 0.75467711E-02 0.12294656E+00
       -1 -1    0    0    0  501 0.00000000E+00 0.00000000E+00 0.57898950E+01 0.57987312E+01 0.32000000E+00 0.0000E+00 0.9000E+01
        1 -1    0    0  501    0 0.00000000E+00 0.00000000E+00 -.28637739E+04 0.28637739E+04 0.32000000E+00 0.0000E+00 0.9000E+01
       25  1    1    2    0    0 0.56136978E+02 0.38408109E+02 -.17431881E+04 0.17489872E+04 0.12500000E+03 0.0000E+00 0.9000E+01
       23  1    1    2    0    0 -.56136978E+02 -.38408109E+02 -.11147959E+04 0.11205855E+04 0.91188000E+02 0.0000E+00 0.9000E+01
#aMCatNLO 1  0  0  1  2 0.12367045D+01 0.00000000D+00  -5  5  0 0.00000000D+00 0.00000000D+00 0.00000000D+00 0.00000000D+00 0.00000000D+00
  <mgrwgt>
 -.5239928296D+00   10    2    0
 0.128816357127863D+03 0.000000000000000D+00 0.000000000000000D+00 0.128816357127863D+03
 0.128816357127863D+03 0.000000000000000D+00 0.000000000000000D+00 -.128816357127863D+03
 0.143002732249356D+03 0.561369784909617D+02 0.384081093317532D+02 -.140797093097251D+02
 0.114629982006371D+03 -.561369784909617D+02 -.384081093317532D+02 0.140797093097251D+02
 0.000000000000000D+00 -.000000000000000D+00 0.000000000000000D+00 0.000000000000000D+00
 0.129596574414912D+03 0.000000000000000D+00 0.000000000000000D+00 0.129596574414912D+03
 0.129308843199959D+03 0.000000000000000D+00 0.000000000000000D+00 -.129308843199959D+03
 0.143056763328916D+03 0.566105552724421D+02 0.379110056796827D+02 -.140797093097251D+02
 0.114578919162475D+03 -.557575189191590D+02 -.388064201154164D+02 0.140797093097251D+02
 0.126973512348095D+01 -.853036353283039D+00 0.895414435733733D+00 0.287731214953128D+00
0.706955314226D-03 0.000000000000D+00 0.000000000000D+00 0.196226121698D-02 0.000000000000D+00  5 -1 1 25 23 21 0 0.89143416D-03 0.44058128D+00 0.16392952D+05 0.16392952D+05 0.16392952D+05 0.12434498D+01  1  2  2  1  5  1       -1 0.142654195707D+00 0.100000000000D+01
-.392735274040D-04 0.000000000000D+00 -.271489455224D-05 0.196226121698D-02 0.000000000000D+00  5 -1 1 25 23 21 2 0.89143416D-03 0.44058128D+00 0.16392952D+05 0.16392952D+05 0.16392952D+05 0.12434498D+01  1  2  3  1  5  1       -1 -.122531856701D-01 0.100000000000D+01
0.489333138452D-04 0.000000000000D+00 0.000000000000D+00 0.196226121698D-02 0.000000000000D+00  5 -1 1 25 23 21 2 0.89143416D-03 0.44058128D+00 0.16392952D+05 0.16392952D+05 0.16392952D+05 0.12434498D+01  1  2 15  1  5  1       -1 0.152670009452D-01 0.100000000000D+01
-.106219725142D-01 0.000000000000D+00 0.000000000000D+00 0.196226121698D-02 0.000000000000D+00  5 -1 1 25 23 21 2 0.89143416D-03 0.44058128D+00 0.16392952D+05 0.16392952D+05 0.16392952D+05 0.12434498D+01  1  2  4  1  5  1       -1 -.331401353540D+01 0.100000000000D+01
-.721793656013D-01 0.000000000000D+00 -.757381358253D-02 0.196226121698D-02 0.000000000000D+00  5 -1 1 25 23 21 2 0.90167530D-03 0.44058128D+00 0.16392952D+05 0.16392952D+05 0.16392952D+05 0.12434498D+01  1  2  5  1  5  1       -1 -.221569768836D+02 0.100000000000D+01
0.722616601153D-01 0.000000000000D+00 0.757331948382D-02 0.196226121698D-02 0.000000000000D+00  5 -1 1 25 23 21 2 0.89143416D-03 0.44058128D+00 0.16392952D+05 0.16392952D+05 0.16392952D+05 0.12434498D+01  1  2  6  1  5  1       -1 0.225453529832D+02 0.100000000000D+01
0.106222427827D-01 0.000000000000D+00 0.000000000000D+00 0.196226121698D-02 0.105720925944D-01  5 -1 1 25 23 21 2 0.89683342D-03 0.44226569D+00 0.16552041D+05 0.16552041D+05 0.16552041D+05 0.12429771D+01  1  2 11  1  5  1       -1 0.322770114847D+01 0.100000000000D+01
0.887577279589D-09 0.000000000000D+00 0.000000000000D+00 0.196226121698D-02 0.000000000000D+00  5 21 1 25 23 1 2 0.89852904D-03 0.44058128D+00 0.16552041D+05 0.16552041D+05 0.16552041D+05 0.12429771D+01  1  2 12  3  5  1       -1 0.647349454946D-05 0.100000000000D+01
-.151612660928D-03 0.000000000000D+00 -.159471189931D-04 0.196226121698D-02 0.000000000000D+00  5 21 1 25 23 1 2 0.90167530D-03 0.44058128D+00 0.16392952D+05 0.16392952D+05 0.16392952D+05 0.12434498D+01  1  2  5  3  5  1       -1 -.110076694841D+01 0.100000000000D+01
0.179425561821D-04 0.000000000000D+00 0.000000000000D+00 0.196226121698D-02 0.118867599646D-04  5 21 1 25 23 1 2 0.89683342D-03 0.44226569D+00 0.16552041D+05 0.16552041D+05 0.16552041D+05 0.12429771D+01  1  2 11  3  5  1       -1 0.129035921668D+00 0.100000000000D+01
  </mgrwgt>
  </event>
  <event>
  4     66 0.43907321E-03 0.14317696E+03 0.75467711E-02 0.11656081E+00
       -1 -1    0    0    0  501 0.00000000E+00 0.00000000E+00 0.20481721E+02 0.20484220E+02 0.32000000E+00 0.0000E+00 0.9000E+01
        1 -1    0    0  501    0 0.00000000E+00 0.00000000E+00 -.14406727E+04 0.14406727E+04 0.32000000E+00 0.0000E+00 0.9000E+01
       25  1    1    2    0    0 0.91390841E+02 0.18442834E+02 -.11566382E+04 0.11671030E+04 0.12500000E+03 0.0000E+00 0.9000E+01
       23  1    1    2    0    0 -.91390841E+02 -.18442834E+02 -.26355274E+03 0.29405395E+03 0.91188000E+02 0.0000E+00 0.9000E+01
#aMCatNLO 1  0  0  2  2 0.69565871D+02 0.00000000D+00  -5  5  0 0.00000000D+00 0.00000000D+00 0.00000000D+00 0.00000000D+00 0.00000000D+00
  <mgrwgt>
 0.1678624499D+00    3    2    0
 0.171782733937839D+03 0.000000000000000D+00 0.000000000000000D+00 0.171782733937839D+03
 0.171782733937839D+03 0.000000000000000D+00 0.000000000000000D+00 -.171782733937839D+03
 0.182420806357045D+03 0.913908409087018D+02 0.184428340428158D+02 -.946568891440246D+02
 0.161144661518633D+03 -.913908409087018D+02 -.184428340428158D+02 0.946568891440246D+02
 0.000000000000000D+00 0.000000000000000D+00 0.000000000000000D+00 0.000000000000000D+00
 0.363700538292850D+03 0.000000000000000D+00 0.000000000000000D+00 0.363700538292850D+03
 0.181689465071392D+03 0.000000000000000D+00 0.000000000000000D+00 -.181689465071392D+03
 0.173138165335579D+03 0.724814078221456D+02 -.117619366375581D+02 -.946568891440246D+02
 0.177399480525610D+03 -.109395386737924D+03 -.472021932201458D+02 0.946568891440246D+02
 0.194852357503053D+03 0.369139789157788D+02 0.589641298577040D+02 0.182011073221458D+03
0.600214758511D-03 0.000000000000D+00 0.000000000000D+00 0.116398311534D-02 0.000000000000D+00  5 -1 1 25 23 21 0 0.31512290D-02 0.22164215D+00 0.20499643D+05 0.20499643D+05 0.20499643D+05 0.12326480D+01  1  2  2  2  5  2        1 0.163950666402D+00 0.100000000000D+01
-.320001170222D-04 0.000000000000D+00 -.230498271286D-05 0.116398311534D-02 0.000000000000D+00  5 -1 1 25 23 21 2 0.31512290D-02 0.22164215D+00 0.20499643D+05 0.20499643D+05 0.20499643D+05 0.12326480D+01  1  2  3  2  5  2        1 -.132811672277D-01 0.100000000000D+01
0.414253074300D-04 0.000000000000D+00 0.000000000000D+00 0.116398311534D-02 0.000000000000D+00  5 -1 1 25 23 21 2 0.31512290D-02 0.22164215D+00 0.20499643D+05 0.20499643D+05 0.20499643D+05 0.12326480D+01  1  2 15  2  5  2        1 0.171929507338D-01 0.100000000000D+01
  </mgrwgt>
  </event>
  <event>
  4     66 0.43907321E-03 0.69032068E+02 0.75467711E-02 0.11966428E+00
       -1 -1    0    0    0  501 0.00000000E+00 0.00000000E+00 0.34092587E+03 0.34092602E+03 0.32000000E+00 0.0000E+00 0.9000E+01
        1 -1    0    0  501    0 0.00000000E+00 0.00000000E+00 -.51122429E+02 0.51123430E+02 0.32000000E+00 0.0000E+00 0.9000E+01
       25  1    1    2    0    0 0.19542004E+02 -.69624106E+02 0.12961938E+03 0.19405048E+03 0.12500000E+03 0.0000E+00 0.9000E+01
       23  1    1    2    0    0 -.19542004E+02 0.69624106E+02 0.16018406E+03 0.19799897E+03 0.91188000E+02 0.0000E+00 0.9000E+01
#aMCatNLO 1  0  0  2  1 0.42120244D+02 0.00000000D+00  -5  5  0 0.00000000D+00 0.00000000D+00 0.00000000D+00 0.00000000D+00 0.00000000D+00
  <mgrwgt>
 0.1592094527D+00    9    2    0
 0.132019635123967D+03 0.000000000000000D+00 0.000000000000000D+00 0.132019635123967D+03
 0.132019635123967D+03 0.000000000000000D+00 0.000000000000000D+00 -.132019635123967D+03
 0.145861797028778D+03 0.195420040466345D+02 -.696241064245193D+02 -.205245636955560D+02
 0.118177473219156D+03 -.195420040466345D+02 0.696241064245193D+02 0.205245636955560D+02
 0.000000000000000D+00 -.000000000000000D+00 -.000000000000000D+00 -.000000000000000D+00
 0.147823002918448D+03 0.000000000000000D+00 0.000000000000000D+00 0.147823002918448D+03
 0.165068830922413D+03 0.000000000000000D+00 0.000000000000000D+00 -.165068830922413D+03
 0.140302009604287D+03 0.323540639612738D+02 -.509078651025378D+02 -.205245636955560D+02
 0.127075721670919D+03 -.856158460030855D+01 0.856646324244948D+02 0.205245636955560D+02
 0.455141025656547D+02 -.237924793609653D+02 -.347567673219570D+02 -.172458280039643D+02
0.353433592750D-03 0.000000000000D+00 0.000000000000D+00 0.189506784904D-02 0.000000000000D+00  5 -1 1 25 23 21 0 0.52450222D-01 0.78650776D-02 0.17003125D+05 0.17003125D+05 0.17003125D+05 0.12416640D+01  1  2  2  2  5  2        1 0.113490806518D+00 0.100000000000D+01
-.196315439175D-04 0.000000000000D+00 -.135727805736D-05 0.189506784904D-02 0.000000000000D+00  5 -1 1 25 23 21 2 0.52450222D-01 0.78650776D-02 0.17003125D+05 0.17003125D+05 0.17003125D+05 0.12416640D+01  1  2  3  2  5  2        1 -.971886299741D-02 0.100000000000D+01
0.244467453324D-04 0.000000000000D+00 0.000000000000D+00 0.189506784904D-02 0.000000000000D+00  5 -1 1 25 23 21 2 0.52450222D-01 0.78650776D-02 0.17003125D+05 0.17003125D+05 0.17003125D+05 0.12416640D+01  1  2 15  2  5  2        1 0.121026939917D-01 0.100000000000D+01
0.294390776315D-03 0.000000000000D+00 0.000000000000D+00 0.189506784904D-02 0.000000000000D+00  5 -1 1 25 23 21 2 0.52450222D-01 0.10211810D-01 0.23458008D+05 0.23458008D+05 0.23458008D+05 0.12262731D+01  1  2 12  2  5  2        1 0.101123331838D+00 0.100000000000D+01
-.310121616119D-03 0.000000000000D+00 0.000000000000D+00 0.189506784904D-02 0.000000000000D+00  5 -1 1 25 23 21 2 0.52450222D-01 0.78650776D-02 0.17003125D+05 0.17003125D+05 0.17003125D+05 0.12416640D+01  1  2  4  2  5  2        1 -.153529926748D+00 0.100000000000D+01
-.575426770015D-03 0.000000000000D+00 -.197905996336D-03 0.189506784904D-02 0.000000000000D+00  5 -1 1 25 23 21 2 0.52450222D-01 0.10982659D-01 0.17003125D+05 0.17003125D+05 0.17003125D+05 0.12416640D+01  1  2  5  2  5  2        1 -.182769768483D+00 0.100000000000D+01
0.617315866287D-03 0.000000000000D+00 0.187364957544D-03 0.189506784904D-02 0.000000000000D+00  5 -1 1 25 23 21 2 0.52450222D-01 0.78650776D-02 0.17003125D+05 0.17003125D+05 0.17003125D+05 0.12416640D+01  1  2  6  2  5  2        1 0.305610621141D+00 0.100000000000D+01
0.102869206894D-04 0.000000000000D+00 0.000000000000D+00 0.189506784904D-02 0.000000000000D+00  5 -1 21 25 23 -1 2 0.52450222D-01 0.10211810D-01 0.23458008D+05 0.23458008D+05 0.23458008D+05 0.12262731D+01  1  2 12  4  5  2        1 0.419981307290D-01 0.100000000000D+01
-.188058183336D-04 0.000000000000D+00 -.826368163192D-05 0.189506784904D-02 0.000000000000D+00  5 -1 21 25 23 -1 2 0.52450222D-01 0.10982659D-01 0.17003125D+05 0.17003125D+05 0.17003125D+05 0.12416640D+01  1  2  5  4  5  2        1 -.690975732438D-01 0.100000000000D+01
  </mgrwgt>
  </event>
  <event>
  4     66 0.43907321E-03 0.82641720E+02 0.75467711E-02 0.12116033E+00
       -1 -1    0    0    0  501 0.00000000E+00 0.00000000E+00 0.80252213E+01 0.80315986E+01 0.32000000E+00 0.0000E+00 0.9000E+01
        1 -1    0    0  501    0 0.00000000E+00 0.00000000E+00 -.26739023E+04 0.26739023E+04 0.32000000E+00 0.0000E+00 0.9000E+01
       25  1    1    2    0    0 -.10321616E+01 -.67443086E+02 -.79260807E+03 0.80523425E+03 0.12500000E+03 0.0000E+00 0.9000E+01
       23  1    1    2    0    0 0.10321616E+01 0.67443086E+02 -.18732690E+04 0.18766997E+04 0.91188000E+02 0.0000E+00 0.9000E+01
#aMCatNLO 1  0  0  2  1 0.25866344D+02 0.00000000D+00  -5  5  0 0.00000000D+00 0.00000000D+00 0.00000000D+00 0.00000000D+00 0.00000000D+00
  <mgrwgt>
 0.2537343365D+00    9    2    0
 0.146517013128656D+03 0.000000000000000D+00 0.000000000000000D+00 0.146517013128656D+03
 0.146517013128656D+03 0.000000000000000D+00 0.000000000000000D+00 -.146517013128656D+03
 0.158989538502861D+03 -.103216156671160D+01 -.674430855672856D+02 0.714355528082258D+02
 0.134044487754450D+03 0.103216156671160D+01 0.674430855672856D+02 -.714355528082258D+02
 0.000000000000000D+00 -.000000000000000D+00 0.000000000000000D+00 -.000000000000000D+00
 0.158439767889521D+03 0.000000000000000D+00 0.000000000000000D+00 0.158439767889521D+03
 0.161819929365658D+03 0.000000000000000D+00 0.000000000000000D+00 -.161819929365658D+03
 0.160449877600251D+03 0.128655144499528D+02 -.696462745224529D+02 0.714355528082258D+02
 0.133723554701489D+03 0.126817993824402D+02 0.655962765514086D+02 -.714355528082258D+02
 0.260862649534386D+02 -.255473138323930D+02 0.404999797104423D+01 -.338016147613683D+01
0.541521727187D-03 0.000000000000D+00 0.000000000000D+00 0.141761797558D-02 0.000000000000D+00  5 -1 1 25 23 21 0 0.12351415D-02 0.41137008D+00 0.16315071D+05 0.16315071D+05 0.16315071D+05 0.12436831D+01  1  2  2  2  5  2        1 0.919515926926D-01 0.100000000000D+01
-.293958007671D-04 0.000000000000D+00 -.207958601834D-05 0.141761797558D-02 0.000000000000D+00  5 -1 1 25 23 21 2 0.12351415D-02 0.41137008D+00 0.16315071D+05 0.16315071D+05 0.16315071D+05 0.12436831D+01  1  2  3  2  5  2        1 -.772054809205D-02 0.100000000000D+01
0.374581960629D-04 0.000000000000D+00 0.000000000000D+00 0.141761797558D-02 0.000000000000D+00  5 -1 1 25 23 21 2 0.12351415D-02 0.41137008D+00 0.16315071D+05 0.16315071D+05 0.16315071D+05 0.12436831D+01  1  2 15  2  5  2        1 0.983806518612D-02 0.100000000000D+01
0.556888279674D-03 0.000000000000D+00 0.000000000000D+00 0.141761797558D-02 0.000000000000D+00  5 -1 1 25 23 21 2 0.12351415D-02 0.46954206D+00 0.19962943D+05 0.19962943D+05 0.19962943D+05 0.12339147D+01  1  2 12  2  5  2        1 0.797584167111D-01 0.100000000000D+01
-.483374065479D-03 0.000000000000D+00 0.000000000000D+00 0.141761797558D-02 0.000000000000D+00  5 -1 1 25 23 21 2 0.12351415D-02 0.41137008D+00 0.16315071D+05 0.16315071D+05 0.16315071D+05 0.12436831D+01  1  2  4  2  5  2        1 -.126953939733D+00 0.100000000000D+01
-.174629296012D-02 0.000000000000D+00 -.407881348556D-03 0.141761797558D-02 0.000000000000D+00  5 -1 1 25 23 21 2 0.12351415D-02 0.46719818D+00 0.16315071D+05 0.16315071D+05 0.16315071D+05 0.12436831D+01  1  2  5  2  5  2        1 -.261036273253D+00 0.100000000000D+01
0.178699091538D-02 0.000000000000D+00 0.404600633525D-03 0.141761797558D-02 0.000000000000D+00  5 -1 1 25 23 21 2 0.12351415D-02 0.41137008D+00 0.16315071D+05 0.16315071D+05 0.16315071D+05 0.12436831D+01  1  2  6  2  5  2        1 0.469337420388D+00 0.100000000000D+01
0.114598252108D-04 0.000000000000D+00 0.000000000000D+00 0.141761797558D-02 0.000000000000D+00  5 -1 21 25 23 -1 2 0.12351415D-02 0.46954206D+00 0.19962943D+05 0.19962943D+05 0.19962943D+05 0.12339147D+01  1  2 12  4  5  2        1 0.693909258150D-03 0.100000000000D+01
-.327021703984D-04 0.000000000000D+00 -.812900071636D-05 0.141761797558D-02 0.000000000000D+00  5 -1 21 25 23 -1 2 0.12351415D-02 0.46719818D+00 0.16315071D+05 0.16315071D+05 0.16315071D+05 0.12436831D+01  1  2  5  4  5  2        1 -.213430669571D-02 0.100000000000D+01
  </mgrwgt>
  </event>
  <event>
  4     66 0.43907321E-03 0.11689682E+03 0.75467711E-02 0.10307270E+00
       -3 -1    0    0    0  501 0.00000000E+00 0.00000000E+00 0.22251998E+03 0.22252054E+03 0.50000000E+00 0.0000E+00 0.9000E+01
        3 -1    0    0  501    0 0.00000000E+00 0.00000000E+00 -.63873333E+02 0.63875290E+02 0.50000000E+00 0.0000E+00 0.9000E+01
       25  1    1    2    0    0 -.12782065E+02 0.42139615E+02 0.61632313E+02 0.14615974E+03 0.12500000E+03 0.0000E+00 0.9000E+01
       23  1    1    2    0    0 0.12782065E+02 -.42139615E+02 0.97014336E+02 0.14023609E+03 0.91188000E+02 0.0000E+00 0.9000E+01
#aMCatNLO 1  0  0  2  2 0.40899933D+03 0.00000000D+00  -5  5  0 0.00000000D+00 0.00000000D+00 0.00000000D+00 0.00000000D+00 0.00000000D+00
  <mgrwgt>
 0.3371050301D-01    3    2    0
 0.119220189164708D+03 0.000000000000000D+00 0.000000000000000D+00 0.119220189164708D+03
 0.119220189164708D+03 0.000000000000000D+00 0.000000000000000D+00 -.119220189164708D+03
 0.134548441676330D+03 -.127820647425915D+02 0.421396151936477D+02 -.232197073576812D+02
 0.103891936653086D+03 0.127820647425915D+02 -.421396151936477D+02 0.232197073576812D+02
 0.000000000000000D+00 -.000000000000000D+00 0.000000000000000D+00 0.000000000000000D+00
 0.549951078905194D+03 0.000000000000000D+00 0.000000000000000D+00 0.549951078905194D+03
 0.370223600022046D+03 0.000000000000000D+00 0.000000000000000D+00 -.370223600022046D+03
 0.217613342288409D+03 0.171904879439141D+03 -.404984488242477D+02 -.232197073576812D+02
 0.255814859467144D+03 0.201425898349189D+03 -.126548187046044D+03 0.232197073576812D+02
 0.446746477171688D+03 -.373330777788330D+03 0.167046635870291D+03 0.179727478883148D+03
0.231584072464D-03 0.000000000000D+00 0.000000000000D+00 0.210079050940D-02 0.000000000000D+00  5 -3 3 25 23 21 0 0.34234037D-01 0.98268603D-02 0.13664866D+05 0.13664866D+05 0.13664866D+05 0.12524646D+01  1  2  2  2  5  2        3 0.330038885440D-01 0.100000000000D+01
-.128597229829D-04 0.000000000000D+00 -.889343815747D-06 0.210079050940D-02 0.000000000000D+00  5 -3 3 25 23 21 2 0.34234037D-01 0.98268603D-02 0.13664866D+05 0.13664866D+05 0.13664866D+05 0.12524646D+01  1  2  3  2  5  2        3 -.287487471464D-02 0.100000000000D+01
0.160205098497D-04 0.000000000000D+00 0.000000000000D+00 0.210079050940D-02 0.000000000000D+00  5 -3 3 25 23 21 2 0.34234037D-01 0.98268603D-02 0.13664866D+05 0.13664866D+05 0.13664866D+05 0.12524646D+01  1  2 15  2  5  2        3 0.358148917701D-02 0.100000000000D+01
  </mgrwgt>
  </event>
  <event>
  4     66 0.43907321E-03 0.17221399E+03 0.75467711E-02 0.10106793E+00
       -1 -1    0    0    0  501 0.00000000E+00 0.00000000E+00 0.19783320E+02 0.19785908E+02 0.32000000E+00 0.0000E+00 0.9000E+01
        1 -1    0    0  501    0 0.00000000E+00 0.00000000E+00 -.15208267E+04 0.15208267E+04 0.32000000E+00 0.0000E+00 0.9000E+01
       25  1    1    2    0    0 0.10949409E+03 0.76231100E+02 -.88816311E+03 0.90678490E+03 0.12500000E+03 0.0000E+00 0.9000E+01
       23  1    1    2    0    0 -.10949409E+03 -.76231100E+02 -.61288024E+03 0.63382772E+03 0.91188000E+02 0.0000E+00 0.9000E+01
#aMCatNLO 1  0  0  1  2 0.45419162D+03 0.00000000D+00  -5  5  0 0.00000000D+00 0.00000000D+00 0.00000000D+00 0.00000000D+00 0.00000000D+00
  <mgrwgt>
 0.1739591715D+00    5    2    0
 0.173461870750782D+03 0.000000000000000D+00 0.000000000000000D+00 0.173461870750782D+03
 0.173461870750782D+03 0.000000000000000D+00 0.000000000000000D+00 -.173461870750782D+03
 0.183996965040325D+03 0.109494086004154D+03 0.762310999768611D+02 -.207303562555774D+02
 0.162926776461239D+03 -.109494086004154D+03 -.762310999768611D+02 0.207303562555774D+02
 0.000000000000000D+00 -.000000000000000D+00 0.000000000000000D+00 0.000000000000000D+00
 0.120667366739628D+04 0.000000000000000D+00 0.000000000000000D+00 0.120667366739628D+04
 0.341766562682263D+03 0.000000000000000D+00 0.000000000000000D+00 -.341766562682263D+03
 0.213122142946785D+03 0.122618306231592D+03 -.119712368285997D+03 -.207303562555774D+02
 0.358407482277617D+03 -.922647321750785D+02 -.333463856414392D+03 0.207303562555774D+02
 0.976910604854145D+03 -.303535740565136D+02 0.453176224700389D+03 0.864907104714021D+03
0.627947071815D-03 0.000000000000D+00 0.000000000000D+00 0.154761020495D-02 0.000000000000D+00  5 -1 1 25 23 21 0 0.30437894D-02 0.23397354D+00 0.29657659D+05 0.29657659D+05 0.29657659D+05 0.12154219D+01  1  2  2  1  5  1       -1 0.160301088334D+00 0.100000000000D+01
-.348837373602D-04 0.000000000000D+00 -.241148209803D-05 0.154761020495D-02 0.000000000000D+00  5 -1 1 25 23 21 2 0.30437894D-02 0.23397354D+00 0.29657659D+05 0.29657659D+05 0.29657659D+05 0.12154219D+01  1  2  3  1  5  1       -1 -.131549904603D-01 0.100000000000D+01
0.433088517785D-04 0.000000000000D+00 0.000000000000D+00 0.154761020495D-02 0.000000000000D+00  5 -1 1 25 23 21 2 0.30437894D-02 0.23397354D+00 0.29657659D+05 0.29657659D+05 0.29657659D+05 0.12154219D+01  1  2 15  1  5  1       -1 0.163321815582D-01 0.100000000000D+01
0.869560575660D-03 0.000000000000D+00 -.637310841836D-03 0.154761020495D-02 0.000000000000D+00  5 -1 1 25 23 21 2 0.47426900D-01 0.23397354D+00 0.29657659D+05 0.29657659D+05 0.29657659D+05 0.12154219D+01  1  2  5  1  5  1       -1 0.428158475888D-02 0.100000000000D+01
0.123226993961D-03 0.000000000000D+00 -.195981113271D-03 0.154761020495D-02 0.000000000000D+00  5 21 1 25 23 1 2 0.47426900D-01 0.23397354D+00 0.29657659D+05 0.29657659D+05 0.29657659D+05 0.12154219D+01  1  2  5  3  5  1       -1 0.619930727027D-02 0.100000000000D+01
  </mgrwgt>
  </event>
  <event>
  4     66 0.43907321E-03 0.14048341E+03 0.75467711E-02 0.11565598E+00
       -1 -1    0    0    0  501 0.00000000E+00 0.00000000E+00 0.98865661E+01 0.98917435E+01 0.32000000E+00 0.0000E+00 0.9000E+01
        1 -1    0    0  501    0 0.00000000E+00 0.00000000E+00 -.20073990E+04 0.20073990E+04 0.32000000E+00 0.0000E+00 0.9000E+01
       25  1    1    2    0    0 -.53800657E+02 -.70994127E+02 -.11674512E+04 0.11774982E+04 0.12500000E+03 0.0000E+00 0.9000E+01
       23  1    1    2    0    0 0.53800657E+02 0.70994127E+02 -.83006122E+03 0.83979257E+03 0.91188000E+02 0.0000E+00 0.9000E+01
#aMCatNLO 1  0  0  1  2 0.89422897D+02 0.00000000D+00  -5  5  0 0.00000000D+00 0.00000000D+00 0.00000000D+00 0.00000000D+00 0.00000000D+00
  <mgrwgt>
 0.1705404666D+00    3    2    0
 0.140895460321887D+03 0.000000000000000D+00 0.000000000000000D+00 0.140895460321887D+03
 0.140895460321887D+03 0.000000000000000D+00 0.000000000000000D+00 -.140895460321887D+03
 0.153865623873112D+03 -.538006573119285D+02 -.709941266328586D+02 -.107216354304780D+02
 0.127925296770662D+03 0.538006573119285D+02 0.709941266328586D+02 0.107216354304780D+02
 0.000000000000000D+00 -.000000000000000D+00 0.000000000000000D+00 -.000000000000000D+00
 0.169948429174902D+03 0.000000000000000D+00 0.000000000000000D+00 0.169948429174902D+03
 0.238159558564602D+03 0.000000000000000D+00 0.000000000000000D+00 -.238159558564602D+03
 0.178885770934456D+03 -.407226315929876D+02 -.120838043896169D+03 -.107216354304780D+02
 0.116753498193817D+03 0.634171927295349D+02 0.343428914987464D+02 0.107216354304780D+02
 0.112468718611231D+03 -.226945611365473D+02 0.864951523974226D+02 -.682111293896999D+02
0.492127959579D-03 0.000000000000D+00 0.000000000000D+00 0.180944265097D-02 0.000000000000D+00  5 -1 1 25 23 21 0 0.15214104D-02 0.30883102D+00 0.19735589D+05 0.19735589D+05 0.19735589D+05 0.12344629D+01  1  2  2  1  5  1       -1 0.167072202162D+00 0.100000000000D+01
-.273401570567D-04 0.000000000000D+00 -.188990094505D-05 0.180944265097D-02 0.000000000000D+00  5 -1 1 25 23 21 2 0.15214104D-02 0.30883102D+00 0.19735589D+05 0.19735589D+05 0.19735589D+05 0.12344629D+01  1  2  3  1  5  1       -1 -.141443575494D-01 0.100000000000D+01
0.340440948485D-04 0.000000000000D+00 0.000000000000D+00 0.180944265097D-02 0.000000000000D+00  5 -1 1 25 23 21 2 0.15214104D-02 0.30883102D+00 0.19735589D+05 0.19735589D+05 0.19735589D+05 0.12344629D+01  1  2 15  1  5  1       -1 0.176126219387D-01 0.100000000000D+01
  </mgrwgt>
  </event>
  <event>
  4     66 0.43907321E-03 0.14584489E+03 0.75467711E-02 0.11213499E+00
       -1 -1    0    0    0  501 0.00000000E+00 0.00000000E+00 0.76799825E+02 0.76800492E+02 0.32000000E+00 0.0000E+00 0.9000E+01
        1 -1    0    0  501    0 0.00000000E+00 0.00000000E+00 -.29882604E+03 0.29882621E+03 0.32000000E+00 0.0000E+00 0.9000E+01
       25  1    1    2    0    0 0.72886701E+02 -.64382737E+02 -.17048158E+03 0.23269417E+03 0.12500000E+03 0.0000E+00 0.9000E+01
       23  1    1    2    0    0 -.72886701E+02 0.64382737E+02 -.51544635E+02 0.14293253E+03 0.91188000E+02 0.0000E+00 0.9000E+01
#aMCatNLO 1  0  0  2  2 0.14853016D+03 0.00000000D+00  -5  5  0 0.00000000D+00 0.00000000D+00 0.00000000D+00 0.00000000D+00 0.00000000D+00
  <mgrwgt>
 0.1684077085D+00    3    2    0
 0.151492392177910D+03 0.000000000000000D+00 0.000000000000000D+00 0.151492392177910D+03
 0.151492392177910D+03 0.000000000000000D+00 0.000000000000000D+00 -.151492392177910D+03
 0.163555289447720D+03 0.728867009934317D+02 -.643827367725344D+02 -.408377855704768D+02
 0.139429494908099D+03 -.728867009934317D+02 0.643827367725344D+02 0.408377855704768D+02
 0.000000000000000D+00 -.000000000000000D+00 -.000000000000000D+00 0.000000000000000D+00
 0.525672364460767D+03 0.000000000000000D+00 0.000000000000000D+00 0.525672364460767D+03
 0.184167405240299D+03 0.000000000000000D+00 0.000000000000000D+00 -.184167405240299D+03
 0.206463422435104D+03 0.154557791835967D+03 -.380303701810255D+02 -.408377855704768D+02
 0.130969517698675D+03 -.132038211467142D+02 0.836402869378684D+02 0.408377855704768D+02
 0.372406829567286D+03 -.141353970689253D+03 -.456099167568429D+02 0.341504959220468D+03
0.412745042646D-03 0.000000000000D+00 0.000000000000D+00 0.161091272049D-02 0.000000000000D+00  5 -1 1 25 23 21 0 0.11815422D-01 0.45973301D-01 0.21270733D+05 0.21270733D+05 0.21270733D+05 0.12308917D+01  1  2  2  2  5  2        1 0.164980236226D+00 0.100000000000D+01
-.228900391229D-04 0.000000000000D+00 -.158504964203D-05 0.161091272049D-02 0.000000000000D+00  5 -1 1 25 23 21 2 0.11815422D-01 0.45973301D-01 0.21270733D+05 0.21270733D+05 0.21270733D+05 0.12308917D+01  1  2  3  2  5  2        1 -.138623305319D-01 0.100000000000D+01
0.285496194666D-04 0.000000000000D+00 0.000000000000D+00 0.161091272049D-02 0.000000000000D+00  5 -1 1 25 23 21 2 0.11815422D-01 0.45973301D-01 0.21270733D+05 0.21270733D+05 0.21270733D+05 0.12308917D+01  1  2 15  2  5  2        1 0.172898027601D-01 0.100000000000D+01
  </mgrwgt>
  </event>
  <event>
  4     66 -.43907321E-03 0.10884154E+03 0.75467711E-02 0.12529780E+00
       -1 -1    0    0    0  501 0.00000000E+00 0.00000000E+00 0.24169958E+02 0.24172076E+02 0.32000000E+00 0.0000E+00 0.9000E+01
        1 -1    0    0  501    0 0.00000000E+00 0.00000000E+00 -.10484275E+04 0.10484275E+04 0.32000000E+00 0.0000E+00 0.9000E+01
       25  1    1    2    0    0 0.66419281E+01 -.10683655E+02 -.15987994E+03 0.20333433E+03 0.12500000E+03 0.0000E+00 0.9000E+01
       23  1    1    2    0    0 -.66419281E+01 0.10683655E+02 -.86437757E+03 0.86926526E+03 0.91188000E+02 0.0000E+00 0.9000E+01
#aMCatNLO 1  0  0  1  2 0.10395029D+02 0.00000000D+00  -5  5  0 0.00000000D+00 0.00000000D+00 0.00000000D+00 0.00000000D+00 0.00000000D+00
  <mgrwgt>
 -.2560094849D-01    4    2    0
 0.159190482589356D+03 0.000000000000000D+00 0.000000000000000D+00 0.159190482589356D+03
 0.159190482589356D+03 0.000000000000000D+00 0.000000000000000D+00 -.159190482589356D+03
 0.170670045527261D+03 0.664192809741323D+01 -.106836547915793D+02 0.115520598819953D+03
 0.147710919651451D+03 -.664192809741323D+01 0.106836547915793D+02 -.115520598819953D+03
 0.000000000000000D+00 0.000000000000000D+00 -.000000000000000D+00 -.000000000000000D+00
 0.162982008297978D+03 0.000000000000000D+00 0.000000000000000D+00 0.162982008297978D+03
 0.166563235942734D+03 0.000000000000000D+00 0.000000000000000D+00 -.166563235942734D+03
 0.170434224159286D+03 0.143914611103902D+01 -.870315296478086D+01 0.115520598819953D+03
 0.148116392891945D+03 -.111541114664242D+02 0.124012719103784D+02 -.115520598819953D+03
 0.109946271894815D+02 0.971496535538519D+01 -.369811894559752D+01 -.358122764475589D+01
0.216136493905D-03 0.000000000000D+00 0.000000000000D+00 0.921444684345D-03 0.000000000000D+00  5 -1 1 25 23 21 0 0.37186217D-02 0.16129670D+00 0.11846481D+05 0.11846481D+05 0.11846481D+05 0.12596800D+01  1  2  2  1  5  1       -1 0.848923293380D-01 0.100000000000D+01
-.989710635264D-05 0.000000000000D+00 -.830021046641D-06 0.921444684345D-03 0.000000000000D+00  5 -1 1 25 23 21 2 0.37186217D-02 0.16129670D+00 0.11846481D+05 0.11846481D+05 0.11846481D+05 0.12596800D+01  1  2  3  1  5  1       -1 -.616835060994D-02 0.100000000000D+01
0.148200701882D-04 0.000000000000D+00 0.000000000000D+00 0.921444684345D-03 0.000000000000D+00  5 -1 1 25 23 21 2 0.37186217D-02 0.16129670D+00 0.11846481D+05 0.11846481D+05 0.11846481D+05 0.12596800D+01  1  2 15  1  5  1       -1 0.923657741240D-02 0.100000000000D+01
-.182209209547D-03 0.000000000000D+00 0.000000000000D+00 0.921444684345D-03 0.000000000000D+00  5 -1 1 25 23 21 2 0.37186217D-02 0.16129670D+00 0.11846481D+05 0.11846481D+05 0.11846481D+05 0.12596800D+01  1  2  4  1  5  1       -1 -.113561504626D+00 0.100000000000D+01
  </mgrwgt>
  </event>
  <event>
  4     66 0.43907321E-03 0.72870743E+02 0.75467711E-02 0.12078435E+00
       -1 -1    0    0    0  501 0.00000000E+00 0.00000000E+00 0.72274336E+01 0.72345143E+01 0.32000000E+00 0.0000E+00 0.9000E+01
        1 -1    0    0  501    0 0.00000000E+00 0.00000000E+00 -.22828576E+04 0.22828576E+04 0.32000000E+00 0.0000E+00 0.9000E+01
       25  1    1    2    0    0 0.68763682E+02 -.18835758E+00 -.12933826E+04 0.13012272E+04 0.12500000E+03 0.0000E+00 0.9000E+01
       23  1    1    2    0    0 -.68763682E+02 0.18835758E+00 -.98224752E+03 0.98886497E+03 0.91188000E+02 0.0000E+00 0.9000E+01
#aMCatNLO 1  0  0  1  2 0.29724823D+02 0.00000000D+00  -5  5  0 0.00000000D+00 0.00000000D+00 0.00000000D+00 0.00000000D+00 0.00000000D+00
  <mgrwgt>
 0.1326170964D+00    9    2    0
 0.128480874661265D+03 0.000000000000000D+00 0.000000000000000D+00 0.128480874661265D+03
 0.128480874661265D+03 0.000000000000000D+00 0.000000000000000D+00 -.128480874661265D+03
 0.142704292495383D+03 0.687636820596887D+02 -.188357578341637D+00 -.332199452504294D+01
 0.114257456827148D+03 -.687636820596887D+02 0.188357578341637D+00 0.332199452504294D+01
 0.000000000000000D+00 -.000000000000000D+00 -.000000000000000D+00 0.000000000000000D+00
 0.164847305912644D+03 0.000000000000000D+00 0.000000000000000D+00 0.164847305912644D+03
 0.135558241592471D+03 0.000000000000000D+00 0.000000000000000D+00 -.135558241592471D+03
 0.151150720372891D+03 0.847400645227989D+02 0.544298505339458D+01 -.332199452504294D+01
 0.107524569728643D+03 -.567057816512061D+02 0.443851676026561D+01 0.332199452504294D+01
 0.417302574035806D+02 -.280342828715928D+02 -.988150181366020D+01 0.292890643201732D+02
0.344958451762D-03 0.000000000000D+00 0.000000000000D+00 0.198495280077D-02 0.000000000000D+00  5 -1 1 25 23 21 0 0.11124593D-02 0.35120941D+00 0.16496162D+05 0.16496162D+05 0.16496162D+05 0.12431425D+01  1  2  2  1  5  1       -1 0.122137822810D+00 0.100000000000D+01
-.191643557608D-04 0.000000000000D+00 -.132473128441D-05 0.198495280077D-02 0.000000000000D+00  5 -1 1 25 23 21 2 0.11124593D-02 0.35120941D+00 0.16496162D+05 0.16496162D+05 0.16496162D+05 0.12431425D+01  1  2  3  1  5  1       -1 -.104862320967D-01 0.100000000000D+01
0.238151320933D-04 0.000000000000D+00 0.000000000000D+00 0.198495280077D-02 0.000000000000D+00  5 -1 1 25 23 21 2 0.11124593D-02 0.35120941D+00 0.16496162D+05 0.16496162D+05 0.16496162D+05 0.12431425D+01  1  2 15  1  5  1       -1 0.130310147474D-01 0.100000000000D+01
0.477026020650D-03 0.000000000000D+00 0.000000000000D+00 0.198495280077D-02 0.000000000000D+00  5 -1 1 25 23 21 2 0.14516351D-02 0.35120941D+00 0.20780992D+05 0.20780992D+05 0.20780992D+05 0.12319987D+01  1  2 12  1  5  1       -1 0.175302476738D+00 0.100000000000D+01
-.490491176348D-03 0.000000000000D+00 0.000000000000D+00 0.198495280077D-02 0.000000000000D+00  5 -1 1 25 23 21 2 0.11124593D-02 0.35120941D+00 0.16496162D+05 0.16496162D+05 0.16496162D+05 0.12431425D+01  1  2  4  1  5  1       -1 -.268383888337D+00 0.100000000000D+01
-.723385105440D-03 0.000000000000D+00 -.163708995532D-03 0.198495280077D-02 0.000000000000D+00  5 -1 1 25 23 21 2 0.15218592D-02 0.35120941D+00 0.16496162D+05 0.16496162D+05 0.16496162D+05 0.12431425D+01  1  2  5  1  5  1       -1 -.252915428021D+00 0.100000000000D+01
0.745503728597D-03 0.000000000000D+00 0.155987580282D-03 0.198495280077D-02 0.000000000000D+00  5 -1 1 25 23 21 2 0.11124593D-02 0.35120941D+00 0.16496162D+05 0.16496162D+05 0.16496162D+05 0.12431425D+01  1  2  6  1  5  1       -1 0.407920058706D+00 0.100000000000D+01
0.169020969935D-04 0.000000000000D+00 0.000000000000D+00 0.198495280077D-02 0.000000000000D+00  5 21 1 25 23 1 2 0.14516351D-02 0.35120941D+00 0.20780992D+05 0.20780992D+05 0.20780992D+05 0.12319987D+01  1  2 12  3  5  1       -1 0.135923629219D+00 0.100000000000D+01
-.249306130878D-04 0.000000000000D+00 -.653034390552D-05 0.198495280077D-02 0.000000000000D+00  5 21 1 25 23 1 2 0.15218592D-02 0.35120941D+00 0.16496162D+05 0.16496162D+05 0.16496162D+05 0.12431425D+01  1  2  5  3  5  1       -1 -.189912357376D+00 0.100000000000D+01
  </mgrwgt>
  </event>
  <event>
  4     66 0.43907321E-03 0.74149672E+02 0.75467711E-02 0.11068986E+00
       -1 -1    0    0    0  501 0.00000000E+00 0.00000000E+00 0.10363709E+03 0.10363758E+03 0.32000000E+00 0.0000E+00 0.9000E+01
        1 -1    0    0  501    0 0.00000000E+00 0.00000000E+00 -.38732315E+03 0.38732328E+03 0.32000000E+00 0.0000E+00 0.9000E+01
       25  1    1    2    0    0 0.16224278E+03 -.34702058E+01 -.94620010E+02 0.22563845E+03 0.12500000E+03 0.0000E+00 0.9000E+01
       23  1    1    2    0    0 -.16224278E+03 0.34702058E+01 -.18906605E+03 0.26532242E+03 0.91188000E+02 0.0000E+00 0.9000E+01
#aMCatNLO 1  0  0  2  1 0.11363212D+03 0.00000000D+00  -5  5  0 0.00000000D+00 0.00000000D+00 0.00000000D+00 0.00000000D+00 0.00000000D+00
  <mgrwgt>
 0.1611324578D+00    9    2    0
 0.200352682517141D+03 0.000000000000000D+00 0.000000000000000D+00 0.200352682517141D+03
 0.200352682517141D+03 0.000000000000000D+00 0.000000000000000D+00 -.200352682517141D+03
 0.209473784071864D+03 0.162242781541827D+03 -.347020575144396D+01 0.438121412738463D+02
 0.191231580962418D+03 -.162242781541827D+03 0.347020575144396D+01 -.438121412738463D+02
 0.000000000000000D+00 0.000000000000000D+00 0.000000000000000D+00 -.000000000000000D+00
 0.253955288090966D+03 0.000000000000000D+00 0.000000000000000D+00 0.253955288090966D+03
 0.278885151517823D+03 0.000000000000000D+00 0.000000000000000D+00 -.278885151517823D+03
 0.210600366565561D+03 0.151956877146033D+03 -.609681733576980D+02 0.438121412738463D+02
 0.205905394413417D+03 -.171967047970866D+03 -.508882186142449D+02 -.438121412738463D+02
 0.116334678629812D+03 0.200101708248322D+02 0.111856391971943D+03 -.249298634268573D+02
0.726238360868D-03 0.000000000000D+00 0.000000000000D+00 0.139526834582D-02 0.000000000000D+00  5 -1 1 25 23 21 0 0.15944216D-01 0.59588225D-01 0.38217506D+05 0.38217506D+05 0.38217506D+05 0.12040159D+01  1  2  2  2  5  2        1 0.132545684622D+00 0.100000000000D+01
-.403169982699D-04 0.000000000000D+00 -.278894652868D-05 0.139526834582D-02 0.000000000000D+00  5 -1 1 25 23 21 2 0.15944216D-01 0.59588225D-01 0.38217506D+05 0.38217506D+05 0.38217506D+05 0.12040159D+01  1  2  3  2  5  2        1 -.106669202677D-01 0.100000000000D+01
0.500577537355D-04 0.000000000000D+00 0.000000000000D+00 0.139526834582D-02 0.000000000000D+00  5 -1 1 25 23 21 2 0.15944216D-01 0.59588225D-01 0.38217506D+05 0.38217506D+05 0.38217506D+05 0.12040159D+01  1  2 15  2  5  2        1 0.132440928340D-01 0.100000000000D+01
0.155128516919D-03 0.000000000000D+00 0.000000000000D+00 0.139526834582D-02 0.000000000000D+00  5 -1 1 25 23 21 2 0.15944216D-01 0.88343745D-01 0.67812104D+05 0.67812104D+05 0.67812104D+05 0.11793938D+01  1  2 12  2  5  2        1 0.235388228898D-01 0.100000000000D+01
-.325775421540D-03 0.000000000000D+00 0.000000000000D+00 0.139526834582D-02 0.000000000000D+00  5 -1 1 25 23 21 2 0.15944216D-01 0.59588225D-01 0.38217506D+05 0.38217506D+05 0.38217506D+05 0.12040159D+01  1  2  4  2  5  2        1 -.861924398111D-01 0.100000000000D+01
-.461174604100D-03 0.000000000000D+00 -.288907739113D-03 0.139526834582D-02 0.000000000000D+00  5 -1 1 25 23 21 2 0.15944216D-01 0.10090338D+00 0.38217506D+05 0.38217506D+05 0.38217506D+05 0.12040159D+01  1  2  5  2  5  2        1 -.605612450699D-01 0.100000000000D+01
0.568552020252D-03 0.000000000000D+00 0.252996017400D-03 0.139526834582D-02 0.000000000000D+00  5 -1 1 25 23 21 2 0.15944216D-01 0.59588225D-01 0.38217506D+05 0.38217506D+05 0.38217506D+05 0.12040159D+01  1  2  6  2  5  2        1 0.150425362212D+00 0.100000000000D+01
0.729972647201D-05 0.000000000000D+00 0.000000000000D+00 0.139526834582D-02 0.000000000000D+00  5 -1 21 25 23 -1 2 0.15944216D-01 0.88343745D-01 0.67812104D+05 0.67812104D+05 0.67812104D+05 0.11793938D+01  1  2 12  4  5  2        1 0.287199527759D-02 0.100000000000D+01
-.133170478320D-04 0.000000000000D+00 -.169843180539D-04 0.139526834582D-02 0.000000000000D+00  5 -1 21 25 23 -1 2 0.15944216D-01 0.10090338D+00 0.38217506D+05 0.38217506D+05 0.38217506D+05 0.12040159D+01  1  2  5  4  5  2        1 -.407289489745D-02 0.100000000000D+01
  </mgrwgt>
  </event>
  <event>
  4     66 0.43907321E-03 0.23875136E+03 0.75467711E-02 0.98871920E-01
       -1 -1    0    0    0  501 0.00000000E+00 0.00000000E+00 0.13393926E+03 0.13393964E+03 0.32000000E+00 0.0000E+00 0.9000E+01
        1 -1    0    0  501    0 0.00000000E+00 0.00000000E+00 -.44091416E+03 0.44091428E+03 0.32000000E+00 0.0000E+00 0.9000E+01
       25  1    1    2    0    0 -.16141407E+03 -.13797163E+03 -.10466429E+03 0.26771307E+03 0.12500000E+03 0.0000E+00 0.9000E+01
       23  1    1    2    0    0 0.16141407E+03 0.13797163E+03 -.20231061E+03 0.30714085E+03 0.91188000E+02 0.0000E+00 0.9000E+01
#aMCatNLO 1  0  0  1  1 0.51687859D+03 0.00000000D+00  -5  5  0 0.00000000D+00 0.00000000D+00 0.00000000D+00 0.00000000D+00 0.00000000D+00
  <mgrwgt>
 0.2721638811D+00    3    2    0
 0.243014114904961D+03 0.000000000000000D+00 0.000000000000000D+00 0.243014114904961D+03
 0.243014114904961D+03 0.000000000000000D+00 0.000000000000000D+00 -.243014114904961D+03
 0.250533995652277D+03 -.161414066819873D+03 -.137971629132883D+03 0.452947189480518D+02
 0.235494234157644D+03 0.161414066819873D+03 0.137971629132883D+03 -.452947189480518D+02
 0.000000000000000D+00 0.000000000000000D+00 0.000000000000000D+00 -.000000000000000D+00
 0.376233614727200D+03 0.000000000000000D+00 0.000000000000000D+00 0.376233614727200D+03
 0.346350000134956D+04 0.000000000000000D+00 0.000000000000000D+00 -.346350000134956D+04
 0.555357540551705D+03 -.506748119275320D+03 -.184259951953704D+03 0.452947189480518D+02
 0.154140107647241D+03 -.554885583977693D+01 0.115592041576354D+03 -.452947189480518D+02
 0.313023596787782D+04 0.512296975115097D+03 0.686679103773497D+02 -.308726638662236D+04
0.260533041155D-02 0.000000000000D+00 0.000000000000D+00 0.131595101113D-02 0.000000000000D+00  5 -1 1 25 23 21 0 0.20606078D-01 0.67832986D-01 0.57002211D+05 0.57002211D+05 0.57002211D+05 0.11866853D+01  1  2  2  1  5  1       -1 0.267136566826D+00 0.100000000000D+01
-.144685464137D-03 0.000000000000D+00 -.100051547796D-04 0.131595101113D-02 0.000000000000D+00  5 -1 1 25 23 21 2 0.20606078D-01 0.67832986D-01 0.57002211D+05 0.57002211D+05 0.57002211D+05 0.11866853D+01  1  2  3  1  5  1       -1 -.208913516465D-01 0.100000000000D+01
0.179502708532D-03 0.000000000000D+00 0.000000000000D+00 0.131595101113D-02 0.000000000000D+00  5 -1 1 25 23 21 2 0.20606078D-01 0.67832986D-01 0.57002211D+05 0.57002211D+05 0.57002211D+05 0.11866853D+01  1  2 15  1  5  1       -1 0.259186658992D-01 0.100000000000D+01
  </mgrwgt>
  </event>
  <event>
  4     66 0.43907321E-03 0.12826538E+03 0.75467711E-02 0.11268191E+00
       -1 -1    0    0    0  501 0.00000000E+00 0.00000000E+00 0.14014768E+03 0.14014804E+03 0.32000000E+00 0.0000E+00 0.9000E+01
        1 -1    0    0  501    0 0.00000000E+00 0.00000000E+00 -.31047100E+03 0.31047116E+03 0.32000000E+00 0.0000E+00 0.9000E+01
       25  1    1    2    0    0 0.14936038E+03 0.67472496E+02 -.14237038E+02 0.20661257E+03 0.12500000E+03 0.0000E+00 0.9000E+01
       23  1    1    2    0    0 -.14936038E+03 -.67472496E+02 -.15608628E+03 0.24400664E+03 0.91188000E+02 0.0000E+00 0.9000E+01
#aMCatNLO 1  0  0  1  2 0.61356353D+02 0.00000000D+00  -5  5  0 0.00000000D+00 0.00000000D+00 0.00000000D+00 0.00000000D+00 0.00000000D+00
  <mgrwgt>
 0.1515049749D+00    6    2    0
 0.208595083474561D+03 0.000000000000000D+00 0.000000000000000D+00 0.208595083474561D+03
 0.208595083474561D+03 0.000000000000000D+00 0.000000000000000D+00 -.208595083474561D+03
 0.217355774923086D+03 0.149360377982853D+03 0.674724957035583D+02 0.689744351536712D+02
 0.199834392026036D+03 -.149360377982853D+03 -.674724957035583D+02 -.689744351536712D+02
 0.000000000000000D+00 -.000000000000000D+00 -.000000000000000D+00 -.000000000000000D+00
 0.240092361116990D+03 0.000000000000000D+00 0.000000000000000D+00 0.240092361116990D+03
 0.243011266881224D+03 0.000000000000000D+00 0.000000000000000D+00 -.243011266881224D+03
 0.234439919281500D+03 0.157022397116974D+03 0.996171162581401D+02 0.689744351536712D+02
 0.187237964262275D+03 -.142796004222294D+03 -.399328485142218D+02 -.689744351536712D+02
 0.614257444544388D+02 -.142263928946801D+02 -.596842677439184D+02 -.291890576423446D+01
0.943422865397D-03 0.000000000000D+00 0.000000000000D+00 0.129199380118D-02 0.000000000000D+00  5 -1 1 25 23 21 0 0.21561222D-01 0.47764810D-01 0.38744993D+05 0.38744993D+05 0.38744993D+05 0.12034087D+01  1  2  2  1  5  1       -1 0.140057914300D+00 0.100000000000D+01
-.521978853298D-04 0.000000000000D+00 -.362299221207D-05 0.129199380118D-02 0.000000000000D+00  5 -1 1 25 23 21 2 0.21561222D-01 0.47764810D-01 0.38744993D+05 0.38744993D+05 0.38744993D+05 0.12034087D+01  1  2  3  1  5  1       -1 -.112222633871D-01 0.100000000000D+01
0.648957143476D-04 0.000000000000D+00 0.000000000000D+00 0.129199380118D-02 0.000000000000D+00  5 -1 1 25 23 21 2 0.21561222D-01 0.47764810D-01 0.38744993D+05 0.38744993D+05 0.38744993D+05 0.12034087D+01  1  2 15  1  5  1       -1 0.139522280357D-01 0.100000000000D+01
0.493769524326D-03 0.000000000000D+00 0.000000000000D+00 0.129199380118D-02 0.000000000000D+00  5 -1 1 25 23 21 2 0.26336943D-01 0.47764810D-01 0.52782952D+05 0.52782952D+05 0.52782952D+05 0.11899591D+01  1  2 12  1  5  1       -1 0.747551604581D-01 0.100000000000D+01
-.423487887468D-03 0.000000000000D+00 0.000000000000D+00 0.129199380118D-02 0.000000000000D+00  5 -1 1 25 23 21 2 0.21561222D-01 0.47764810D-01 0.38744993D+05 0.38744993D+05 0.38744993D+05 0.12034087D+01  1  2  4  1  5  1       -1 -.910476082389D-01 0.100000000000D+01
0.141342414073D-04 0.000000000000D+00 0.000000000000D+00 0.129199380118D-02 0.000000000000D+00  5 21 1 25 23 1 2 0.26336943D-01 0.47764810D-01 0.52782952D+05 0.52782952D+05 0.52782952D+05 0.11899591D+01  1  2 12  3  5  1       -1 0.250095437470D-01 0.100000000000D+01
  </mgrwgt>
  </event>
  <event>
  5     66 0.43907321E-03 0.11971762E+03 0.75467711E-02 0.12143236E+00
       -3 -1    0    0    0  501 0.00000000E+00 0.00000000E+00 0.49893902E+02 0.49896408E+02 0.50000000E+00 0.0000E+00 0.9000E+01
       21 -1    0    0  501  502 0.00000000E+00 0.00000000E+00 -.40806221E+03 0.40806290E+03 0.75000000E+00 0.0000E+00 0.9000E+01
       25  1    1    2    0    0 -.67295941E+01 -.30501078E+02 -.21603930E+03 0.25154241E+03 0.12500000E+03 0.0000E+00 0.9000E+01
       23  1    1    2    0    0 0.18678457E+02 0.64764898E+02 -.10829536E+03 0.15680087E+03 0.91188000E+02 0.0000E+00 0.9000E+01
       -3  1    1    2    0  502 -.11948863E+02 -.34263820E+02 -.33833649E+02 0.49616031E+02 0.50000000E+00 0.0000E+00 0.9000E+01
#aMCatNLO 2  0  0  2  2 0.36287528D+02 0.00000000D+00  -5  5  0 0.00000000D+00 0.00000000D+00 0.00000000D+00 0.00000000D+00 0.00000000D+00
  <mgrwgt>
 0.8464108724D-02    1    2    0
 0.122713564765704D+03 0.000000000000000D+00 0.000000000000000D+00 0.122713564765704D+03
 0.122713564765704D+03 0.000000000000000D+00 0.000000000000000D+00 -.122713564765704D+03
 0.137605456851873D+03 -.132471670934538D+02 -.491904664465325D+02 -.267408363777825D+02
 0.107821672679534D+03 0.132471670934538D+02 0.491904664465325D+02 0.267408363777825D+02
 0.000000000000000D+00 -.000000000000000D+00 -.000000000000000D+00 0.000000000000000D+00
 0.147350255091725D+03 0.000000000000000D+00 0.000000000000000D+00 0.147350255091725D+03
 0.138174633384579D+03 0.000000000000000D+00 0.000000000000000D+00 -.138174633384579D+03
 0.131589040312570D+03 -.672959414740093D+01 -.305010780598177D+02 -.267408363777825D+02
 0.116506224817841D+03 0.186784572987684D+02 0.647648977460791D+02 0.267408363777825D+02
 0.374296233458926D+02 -.119488631513675D+02 -.342638196862615D+02 0.917562170714579D+01
0.425684025644D-05 0.000000000000D+00 0.000000000000D+00 0.201402828898D-02 0.285300878870D-06  5 -3 21 25 23 -3 2 0.76761402D-02 0.62778307D-01 0.19394287D+05 0.19394287D+05 0.19394287D+05 0.12352992D+01  1  2  1  4  5  2        3 0.846410872368D-02 0.100000000000D+01
  </mgrwgt>
  </event>
  <event>
  4     66 0.43907321E-03 0.10835233E+03 0.75467711E-02 0.12344476E+00
       -1 -1    0    0    0  501 0.00000000E+00 0.00000000E+00 0.76896057E+03 0.76896064E+03 0.32000000E+00 0.0000E+00 0.9000E+01
        1 -1    0    0  501    0 0.00000000E+00 0.00000000E+00 -.15442403E+02 0.15445718E+02 0.32000000E+00 0.0000E+00 0.9000E+01
       25  1    1    2    0    0 0.23728491E+01 0.69944876E+01 0.47615282E+03 0.49234242E+03 0.12500000E+03 0.0000E+00 0.9000E+01
       23  1    1    2    0    0 -.23728491E+01 -.69944876E+01 0.27736535E+03 0.29206393E+03 0.91188000E+02 0.0000E+00 0.9000E+01
#aMCatNLO 1  0  0  1  1 0.31772228D+02 0.00000000D+00  -5  5  0 0.00000000D+00 0.00000000D+00 0.00000000D+00 0.00000000D+00 0.00000000D+00
  <mgrwgt>
 0.7567677818D-01    4    2    0
 0.108976719137171D+03 0.000000000000000D+00 0.000000000000000D+00 0.108976719137171D+03
 0.108976719137171D+03 0.000000000000000D+00 0.000000000000000D+00 -.108976719137171D+03
 0.125745779340752D+03 0.237284905190181D+01 0.699448759147408D+01 0.115085947327550D+02
 0.922076589335896D+02 -.237284905190181D+01 -.699448759147408D+01 -.115085947327550D+02
 0.000000000000000D+00 0.000000000000000D+00 0.000000000000000D+00 -.000000000000000D+00
 0.120964255569363D+03 0.000000000000000D+00 0.000000000000000D+00 0.120964255569363D+03
 0.133418962530294D+03 0.000000000000000D+00 0.000000000000000D+00 -.133418962530294D+03
 0.126053898030680D+03 0.230328571159254D+01 -.112619861009042D+02 0.115085947327550D+02
 0.942031692750773D+02 -.242434776713203D+01 -.205100107910764D+02 -.115085947327550D+02
 0.341261507938999D+02 0.121062055539491D+00 0.317719968919807D+02 -.124547069609315D+02
0.420587747403D-03 0.000000000000D+00 0.000000000000D+00 0.241951187119D-02 0.000000000000D+00  5 -1 1 25 23 21 0 0.11830189D+00 0.23760144D-02 0.11740227D+05 0.11740227D+05 0.11740227D+05 0.12601396D+01  1  2  2  1  5  1       -1 0.129370099549D+00 0.100000000000D+01
-.233650479650D-04 0.000000000000D+00 -.161516769332D-05 0.241951187119D-02 0.000000000000D+00  5 -1 1 25 23 21 2 0.11830189D+00 0.23760144D-02 0.11740227D+05 0.11740227D+05 0.11740227D+05 0.12601396D+01  1  2  3  1  5  1       -1 -.114125127786D-01 0.100000000000D+01
0.288706596656D-04 0.000000000000D+00 0.000000000000D+00 0.241951187119D-02 0.000000000000D+00  5 -1 1 25 23 21 2 0.11830189D+00 0.23760144D-02 0.11740227D+05 0.11740227D+05 0.11740227D+05 0.12601396D+01  1  2 15  1  5  1       -1 0.141016946702D-01 0.100000000000D+01
-.115432939152D-03 0.000000000000D+00 0.000000000000D+00 0.241951187119D-02 0.000000000000D+00  5 -1 1 25 23 21 2 0.11830189D+00 0.23760144D-02 0.11740227D+05 0.11740227D+05 0.11740227D+05 0.12601396D+01  1  2  4  1  5  1       -1 -.563825032636D-01 0.100000000000D+01
  </mgrwgt>
  </event>
  <event>
  5     66 0.43907321E-03 0.12840804E+03 0.75467711E-02 0.11661160E+00
       -1 -1    0    0    0  502 0.00000000E+00 0.00000000E+00 0.43653084E+02 0.43654257E+02 0.32000000E+00 0.0000E+00 0.9000E+01
        1 -1    0    0  501    0 0.00000000E+00 0.00000000E+00 -.86552782E+03 0.86552788E+03 0.32000000E+00 0.0000E+00 0.9000E+01
       25  1    1    2    0    0 -.29151813E+02 -.72638105E+01 -.45696093E+03 0.47470084E+03 0.12500000E+03 0.0000E+00 0.9000E+01
       23  1    1    2    0    0 0.64384818E+02 0.91053080E+02 -.20526838E+03 0.25077166E+03 0.91188000E+02 0.0000E+00 0.9000E+01
       21  1    1    2  501  502 -.35233004E+02 -.83789269E+02 -.15964543E+03 0.18370964E+03 0.75000000E+00 0.0000E+00 0.9000E+01
#aMCatNLO 2  0  0  1  1 0.90895579D+02 0.00000000D+00  -5  5  0 0.00000000D+00 0.00000000D+00 0.00000000D+00 0.00000000D+00 0.00000000D+00
  <mgrwgt>
 0.2509889333D-01    1    2    0
 0.140979325911991D+03 0.000000000000000D+00 0.000000000000000D+00 0.140979325911991D+03
 0.140979325911991D+03 0.000000000000000D+00 0.000000000000000D+00 -.140979325911991D+03
 0.153941773789922D+03 -.471237944915583D+02 -.500038258776926D+02 -.578967624992821D+02
 0.128016878034060D+03 0.471237944915583D+02 0.500038258776926D+02 0.578967624992821D+02
 0.000000000000000D+00 -.000000000000000D+00 -.000000000000000D+00 0.000000000000000D+00
 0.204483771852796D+03 0.000000000000000D+00 0.000000000000000D+00 0.204483771852796D+03
 0.184772243666317D+03 0.000000000000000D+00 0.000000000000000D+00 -.184772243666317D+03
 0.140995128568181D+03 -.291518134853117D+02 -.726381047228303D+01 -.578967624992821D+02
 0.155252550873838D+03 0.643848179690540D+02 0.910530796625081D+02 0.578967624992821D+02
 0.930083360770943D+02 -.352330044837422D+02 -.837892691902250D+02 0.197115281864783D+02
0.753091951932D-04 0.000000000000D+00 0.000000000000D+00 0.157042194067D-02 0.165957209676D-05  5 -1 1 25 23 21 2 0.67159011D-02 0.13315718D+00 0.33034597D+05 0.33034597D+05 0.33034597D+05 0.12105307D+01  1  2  1  1  5  1       -1 0.250988933266D-01 0.100000000000D+01
  </mgrwgt>
  </event>
  <event>
  5     66 0.43907321E-03 0.13560489E+03 0.75467711E-02 0.12108541E+00
       -1 -1    0    0    0  501 0.00000000E+00 0.00000000E+00 0.30887359E+02 0.30889017E+02 0.32000000E+00 0.0000E+00 0.9000E+01
        1 -1    0    0  502    0 0.00000000E+00 0.00000000E+00 -.71407481E+03 0.71407488E+03 0.32000000E+00 0.0000E+00 0.9000E+01
       25  1    1    2    0    0 -.50592068E+02 -.56160381E+02 -.46033613E+03 0.48295745E+03 0.12500000E+03 0.0000E+00 0.9000E+01
       23  1    1    2    0    0 0.62303599E+02 0.59509111E+02 -.20614467E+03 0.24131711E+03 0.91188000E+02 0.0000E+00 0.9000E+01
       21  1    1    2  502  501 -.11711531E+02 -.33487301E+01 -.16706657E+02 0.20689341E+02 0.75000000E+00 0.0000E+00 0.9000E+01
#aMCatNLO 2  0  0  2  1 0.12180884D+02 0.00000000D+00  -5  5  0 0.00000000D+00 0.00000000D+00 0.00000000D+00 0.00000000D+00 0.00000000D+00
  <mgrwgt>
 0.1403560818D+00    2    2    0
 0.141623278129005D+03 0.000000000000000D+00 0.000000000000000D+00 0.141623278129005D+03
 0.141623278129005D+03 0.000000000000000D+00 0.000000000000000D+00 -.141623278129005D+03
 0.154526786564500D+03 -.569185669550376D+02 -.579693450816953D+02 -.406615239819503D+02
 0.128719769693511D+03 0.569185669550376D+02 0.579693450816953D+02 0.406615239819503D+02
 0.000000000000000D+00 -.000000000000000D+00 -.000000000000000D+00 0.000000000000000D+00
 0.151512075577595D+03 0.000000000000000D+00 0.000000000000000D+00 0.151512075577595D+03
 0.145555556153605D+03 0.000000000000000D+00 0.000000000000000D+00 -.145555556153605D+03
 0.151630819121811D+03 -.505920681875886D+02 -.561603811553931D+02 -.406615239819503D+02
 0.131877532745975D+03 0.623035989844989D+02 0.595091112369340D+02 0.406615239819503D+02
 0.135592798634134D+02 -.117115307969104D+02 -.334873008154098D+01 0.595651942399008D+01
-.199964586128D-05 0.000000000000D+00 0.000000000000D+00 0.168954798125D-02 0.000000000000D+00  5 -1 1 25 23 21 2 0.44415689D-02 0.10688239D+00 0.18388686D+05 0.18388686D+05 0.18388686D+05 0.12378624D+01  1  2  8  2  5  2        1 -.177541405226D-02 0.100000000000D+01
0.184826354606D-03 0.000000000000D+00 0.000000000000D+00 0.168954798125D-02 0.926690126027D-04  5 -1 1 25 23 21 2 0.47516999D-02 0.10985006D+00 0.20122919D+05 0.20122919D+05 0.20122919D+05 0.12335332D+01  1  2  1  2  5  2        1 0.142131495807D+00 0.100000000000D+01
  </mgrwgt>
  </event>
  <event>
  4     66 0.43907321E-03 0.95369641E+02 0.75467711E-02 0.12327877E+00
       -1 -1    0    0    0  501 0.00000000E+00 0.00000000E+00 0.18931667E+02 0.18934371E+02 0.32000000E+00 0.0000E+00 0.9000E+01
        1 -1    0    0  501    0 0.00000000E+00 0.00000000E+00 -.83816909E+03 0.83816915E+03 0.32000000E+00 0.0000E+00 0.9000E+01
       25  1    1    2    0    0 0.63768223E+02 0.64661263E+01 -.45299735E+03 0.47427818E+03 0.12500000E+03 0.0000E+00 0.9000E+01
       23  1    1    2    0    0 -.63768223E+02 -.64661263E+01 -.36624008E+03 0.38282535E+03 0.91188000E+02 0.0000E+00 0.9000E+01
#aMCatNLO 1  0  0  2  1 0.10050513D+01 0.00000000D+00  -5  5  0 0.00000000D+00 0.00000000D+00 0.00000000D+00 0.00000000D+00 0.00000000D+00
  <mgrwgt>
 0.2813466825D+00   11    2    0
 0.125972708524692D+03 0.000000000000000D+00 0.000000000000000D+00 0.125972708524692D+03
 0.125972708524692D+03 0.000000000000000D+00 0.000000000000000D+00 -.125972708524692D+03
 0.140479320197980D+03 0.637682234499216D+02 0.646612632658557D+01 0.111458138153222D+01
 0.111466096851404D+03 -.637682234499216D+02 -.646612632658557D+01 -.111458138153222D+01
 0.000000000000000D+00 0.000000000000000D+00 0.000000000000000D+00 -.000000000000000D+00
 0.126189421528183D+03 0.000000000000000D+00 0.000000000000000D+00 0.126189421528183D+03
 0.127144408784191D+03 0.000000000000000D+00 0.000000000000000D+00 -.127144408784191D+03
 0.140237843241232D+03 0.632575338677701D+02 0.623656911003521D+01 0.111458138153222D+01
 0.111709578456975D+03 -.641742317287646D+02 -.664862883622150D+01 -.111458138153222D+01
 0.138640861416656D+01 0.916697860994523D+00 0.412059726186293D+00 -.954987256008466D+00
0.111693781382D-03 0.000000000000D+00 0.000000000000D+00 0.202825303505D-02 0.000000000000D+00  5 -1 1 25 23 21 0 0.29127769D-02 0.12894930D+00 0.15867864D+05 0.15867864D+05 0.15867864D+05 0.12450474D+01  1  2  2  2  5  2        1 0.905475989727D-01 0.100000000000D+01
-.620521006488D-05 0.000000000000D+00 -.428933530153D-06 0.202825303505D-02 0.000000000000D+00  5 -1 1 25 23 21 2 0.29127769D-02 0.12894930D+00 0.15867864D+05 0.15867864D+05 0.15867864D+05 0.12450474D+01  1  2  3  2  5  2        1 -.779787365680D-02 0.100000000000D+01
0.770522824751D-05 0.000000000000D+00 0.000000000000D+00 0.202825303505D-02 0.000000000000D+00  5 -1 1 25 23 21 2 0.29127769D-02 0.12894930D+00 0.15867864D+05 0.15867864D+05 0.15867864D+05 0.12450474D+01  1  2 15  2  5  2        1 0.968289481622D-02 0.100000000000D+01
0.737231954353D-09 0.000000000000D+00 0.000000000000D+00 0.202825303505D-02 0.000000000000D+00  5 -1 1 25 23 21 2 0.29127769D-02 0.13025899D+00 0.15994975D+05 0.15994975D+05 0.15994975D+05 0.12446553D+01  1  2 12  2  5  2        1 0.911805764781D-06 0.100000000000D+01
-.507716347166D-02 0.000000000000D+00 0.000000000000D+00 0.202825303505D-02 0.000000000000D+00  5 -1 1 25 23 21 2 0.29127769D-02 0.12894930D+00 0.15867864D+05 0.15867864D+05 0.15867864D+05 0.12450474D+01  1  2  4  2  5  2        1 -.638029637562D+01 0.100000000000D+01
-.168919567577D-01 0.000000000000D+00 -.144838913421D-02 0.202825303505D-02 0.000000000000D+00  5 -1 1 25 23 21 2 0.29127769D-02 0.13027669D+00 0.15867864D+05 0.15867864D+05 0.15867864D+05 0.12450474D+01  1  2  5  2  5  2        1 -.208959062575D+02 0.100000000000D+01
0.169059794112D-01 0.000000000000D+00 0.144831318202D-02 0.202825303505D-02 0.000000000000D+00  5 -1 1 25 23 21 2 0.29127769D-02 0.12894930D+00 0.15867864D+05 0.15867864D+05 0.15867864D+05 0.12450474D+01  1  2  6  2  5  2        1 0.212451617454D+02 0.100000000000D+01
0.507737441689D-02 0.000000000000D+00 0.000000000000D+00 0.202825303505D-02 0.165905445928D-01  5 -1 1 25 23 21 2 0.29177878D-02 0.13014869D+00 0.15994975D+05 0.15994975D+05 0.15994975D+05 0.12446553D+01  1  2 11  2  5  2        1 0.627220370461D+01 0.100000000000D+01
0.929933481986D-10 0.000000000000D+00 0.000000000000D+00 0.202825303505D-02 0.000000000000D+00  5 -1 21 25 23 -1 2 0.29127769D-02 0.13025899D+00 0.15994975D+05 0.15994975D+05 0.15994975D+05 0.12446553D+01  1  2 12  4  5  2        1 0.215897106938D-06 0.100000000000D+01
-.318875759590D-04 0.000000000000D+00 -.273900038634D-05 0.202825303505D-02 0.000000000000D+00  5 -1 21 25 23 -1 2 0.29127769D-02 0.13027669D+00 0.15867864D+05 0.15867864D+05 0.15867864D+05 0.12450474D+01  1  2  5  4  5  2        1 -.740562818428D-01 0.100000000000D+01
0.939634224430D-05 0.000000000000D+00 0.000000000000D+00 0.202825303505D-02 0.284288545470D-04  5 -1 21 25 23 -1 2 0.29177878D-02 0.13014869D+00 0.15994975D+05 0.15994975D+05 0.15994975D+05 0.12446553D+01  1  2 11  4  5  2        1 0.218063996327D-01 0.100000000000D+01
  </mgrwgt>
  </event>
  <event>
  5     66 -.43907321E-03 0.14136826E+03 0.75467711E-02 0.12017374E+00
       -1 -1    0    0    0  502 0.00000000E+00 0.00000000E+00 0.42306817E+02 0.42308028E+02 0.32000000E+00 0.0000E+00 0.9000E+01
        1 -1    0    0  501    0 0.00000000E+00 0.00000000E+00 -.53949185E+03 0.53949195E+03 0.32000000E+00 0.0000E+00 0.9000E+01
       25  1    1    2    0    0 -.66335248E+02 0.70134708E+02 -.31085808E+03 0.34867892E+03 0.12500000E+03 0.0000E+00 0.9000E+01
       23  1    1    2    0    0 0.51580617E+02 -.68492544E+02 -.16427062E+03 0.20652331E+03 0.91188000E+02 0.0000E+00 0.9000E+01
       21  1    1    2  501  502 0.14754631E+02 -.16421638E+01 -.22056334E+02 0.26597748E+02 0.75000000E+00 0.0000E+00 0.9000E+01
#aMCatNLO 2  0  0  1  2 0.14845735D+02 0.00000000D+00  -5  5  0 0.00000000D+00 0.00000000D+00 0.00000000D+00 0.00000000D+00 0.00000000D+00
  <mgrwgt>
 -.4096026036D-01    3    2    0
 0.143424051648046D+03 0.000000000000000D+00 0.000000000000000D+00 0.143424051648046D+03
 0.143424051648046D+03 0.000000000000000D+00 0.000000000000000D+00 -.143424051648046D+03
 0.156165548928324D+03 -.582153998871631D+02 0.692309834192405D+02 -.240980667869302D+02
 0.130682554367769D+03 0.582153998871631D+02 -.692309834192405D+02 0.240980667869302D+02
 0.000000000000000D+00 0.000000000000000D+00 -.000000000000000D+00 0.000000000000000D+00
 0.151751795050679D+03 0.000000000000000D+00 0.000000000000000D+00 0.151751795050679D+03
 0.150388425625629D+03 0.000000000000000D+00 0.000000000000000D+00 -.150388425625629D+03
 0.159765325433527D+03 -.663352481027064D+02 0.701347078639797D+02 -.240980667869302D+02
 0.127466689142669D+03 0.515806172674015D+02 -.684925440937945D+02 0.240980667869302D+02
 0.149082061001115D+02 0.147546308353050D+02 -.164216377018529D+01 0.136336942504974D+01
-.283561147538D-03 0.000000000000D+00 0.000000000000D+00 0.174945045975D-02 0.000000000000D+00  5 -1 1 25 23 21 2 0.66499283D-02 0.79150292D-01 0.22193736D+05 0.22193736D+05 0.22193736D+05 0.12288807D+01  1  2 13  1  5  1       -1 -.206219587281D+00 0.100000000000D+01
-.440839879962D-07 0.000000000000D+00 0.000000000000D+00 0.174945045975D-02 0.000000000000D+00  5 -1 1 25 23 21 2 0.61512693D-02 0.79150292D-01 0.19984986D+05 0.19984986D+05 0.19984986D+05 0.12338620D+01  1  2  8  1  5  1       -1 -.362220441918D-04 0.100000000000D+01
0.234322674816D-03 0.000000000000D+00 0.000000000000D+00 0.174945045975D-02 0.640761650738D-04  5 -1 1 25 23 21 2 0.65084352D-02 0.82993666D-01 0.22193736D+05 0.22193736D+05 0.22193736D+05 0.12288807D+01  1  2  1  1  5  1       -1 0.165295548962D+00 0.100000000000D+01
  </mgrwgt>
  </event>
  <event>
  4     66 0.43907321E-03 0.11053741E+03 0.75467711E-02 0.11917031E+00
       -1 -1    0    0    0  501 0.00000000E+00 0.00000000E+00 0.93424987E+02 0.93425535E+02 0.32000000E+00 0.0000E+00 0.9000E+01
        1 -1    0    0  501    0 0.00000000E+00 0.00000000E+00 -.13625674E+03 0.13625712E+03 0.32000000E+00 0.0000E+00 0.9000E+01
       25  1    1    2    0    0 -.22201397E+02 0.53674171E+01 -.47259048E+02 0.13557333E+03 0.12500000E+03 0.0000E+00 0.9000E+01
       23  1    1    2    0    0 0.22201397E+02 -.53674171E+01 0.44272952E+01 0.94109317E+02 0.91188000E+02 0.0000E+00 0.9000E+01
#aMCatNLO 1  0  0  1  2 0.79722474D+02 0.00000000D+00  -5  5  0 0.00000000D+00 0.00000000D+00 0.00000000D+00 0.00000000D+00 0.00000000D+00
  <mgrwgt>
 0.1016469794D+00    3    2    0
 0.112826815065800D+03 0.000000000000000D+00 0.000000000000000D+00 0.112826815065800D+03
 0.112826815065800D+03 0.000000000000000D+00 0.000000000000000D+00 -.112826815065800D+03
 0.129023648796631D+03 -.222013968539795D+02 0.536741709642106D+01 -.223694157331307D+02
 0.966299813349691D+02 0.222013968539795D+02 -.536741709642106D+01 0.223694157331307D+02
 0.000000000000000D+00 -.000000000000000D+00 -.000000000000000D+00 -.000000000000000D+00
 0.154845407410698D+03 0.000000000000000D+00 0.000000000000000D+00 0.154845407410698D+03
 0.164821237313696D+03 0.000000000000000D+00 0.000000000000000D+00 -.164821237313696D+03
 0.136942801639924D+03 -.120556375937798D+02 0.498257138730342D+02 -.223694157331307D+02
 0.102379645483993D+03 0.297929700048534D+02 0.278985419596854D+02 0.223694157331307D+02
 0.803441976004772D+02 -.177373324110736D+02 -.777242558327196D+02 -.997582990299836D+01
0.129288133754D-03 0.000000000000D+00 0.000000000000D+00 0.225573844012D-02 0.000000000000D+00  5 -1 1 25 23 21 0 0.14373146D-01 0.20962646D-01 0.12218520D+05 0.12218520D+05 0.12218520D+05 0.12581066D+01  1  2  2  1  5  1       -1 0.994971101208D-01 0.100000000000D+01
-.717900402813D-05 0.000000000000D+00 -.496500475962D-06 0.225573844012D-02 0.000000000000D+00  5 -1 1 25 23 21 2 0.14373146D-01 0.20962646D-01 0.12218520D+05 0.12218520D+05 0.12218520D+05 0.12581066D+01  1  2  3  1  5  1       -1 -.874482027080D-02 0.100000000000D+01
0.894392540927D-05 0.000000000000D+00 0.000000000000D+00 0.225573844012D-02 0.000000000000D+00  5 -1 1 25 23 21 2 0.14373146D-01 0.20962646D-01 0.12218520D+05 0.12218520D+05 0.12218520D+05 0.12581066D+01  1  2 15  1  5  1       -1 0.108946895576D-01 0.100000000000D+01
  </mgrwgt>
  </event>
  <event>
  4     66 0.43907321E-03 0.11391704E+03 0.75467711E-02 0.11209155E+00
       -1 -1    0    0    0  501 0.00000000E+00 0.00000000E+00 0.30726240E+02 0.30727906E+02 0.32000000E+00 0.0000E+00 0.9000E+01
        1 -1    0    0  501    0 0.00000000E+00 0.00000000E+00 -.50491640E+03 0.50491651E+03 0.32000000E+00 0.0000E+00 0.9000E+01
       25  1    1    2    0    0 -.17208647E+02 0.31115409E+02 -.37243380E+03 0.39445689E+03 0.12500000E+03 0.0000E+00 0.9000E+01
       23  1    1    2    0    0 0.17208647E+02 -.31115409E+02 -.10175637E+03 0.14118752E+03 0.91188000E+02 0.0000E+00 0.9000E+01
#aMCatNLO 1  0  0  1  2 0.18383689D+03 0.00000000D+00  -5  5  0 0.00000000D+00 0.00000000D+00 0.00000000D+00 0.00000000D+00 0.00000000D+00
  <mgrwgt>
 0.1390308529D+00    5    2    0
 0.124557841483223D+03 0.000000000000000D+00 0.000000000000000D+00 0.124557841483223D+03
 0.124557841483223D+03 0.000000000000000D+00 0.000000000000000D+00 -.124557841483223D+03
 0.139229235449585D+03 -.172086469443838D+02 0.311154086826421D+02 -.499547176624146D+02
 0.109886447516861D+03 0.172086469443838D+02 -.311154086826421D+02 0.499547176624146D+02
 0.000000000000000D+00 -.000000000000000D+00 -.000000000000000D+00 0.000000000000000D+00
 0.480496912875262D+03 0.000000000000000D+00 0.000000000000000D+00 0.480496912875262D+03
 0.180743448587598D+03 0.000000000000000D+00 0.000000000000000D+00 -.180743448587598D+03
 0.171794661366165D+03 0.745871258460802D+02 0.763524231128569D+02 -.499547176624146D+02
 0.137809322024308D+03 0.903137196244743D+02 0.491081700533091D+01 0.499547176624146D+02
 0.351636378072386D+03 -.164900845470555D+03 -.812632401181878D+02 0.299753464287664D+03
0.174498287338D-03 0.000000000000D+00 0.000000000000D+00 0.180249783534D-02 0.000000000000D+00  5 -1 1 25 23 21 0 0.47272498D-02 0.77679583D-01 0.12977092D+05 0.12977092D+05 0.12977092D+05 0.12550592D+01  1  2  2  1  5  1       -1 0.140686967987D+00 0.100000000000D+01
-.960035519497D-05 0.000000000000D+00 -.670119369834D-06 0.180249783534D-02 0.000000000000D+00  5 -1 1 25 23 21 2 0.47272498D-02 0.77679583D-01 0.12977092D+05 0.12977092D+05 0.12977092D+05 0.12550592D+01  1  2  3  1  5  1       -1 -.121920977575D-01 0.100000000000D+01
0.119907373746D-04 0.000000000000D+00 0.000000000000D+00 0.180249783534D-02 0.000000000000D+00  5 -1 1 25 23 21 2 0.47272498D-02 0.77679583D-01 0.12977092D+05 0.12977092D+05 0.12977092D+05 0.12550592D+01  1  2 15  1  5  1       -1 0.152277951479D-01 0.100000000000D+01
-.256188194823D-05 0.000000000000D+00 -.735370995190D-04 0.180249783534D-02 0.000000000000D+00  5 -1 1 25 23 21 2 0.26049027D-01 0.77679583D-01 0.12977092D+05 0.12977092D+05 0.12977092D+05 0.12550592D+01  1  2  5  1  5  1       -1 -.235957099480D-03 0.100000000000D+01
-.400621059673D-05 0.000000000000D+00 -.153603456600D-04 0.180249783534D-02 0.000000000000D+00  5 21 1 25 23 1 2 0.26049027D-01 0.77679583D-01 0.12977092D+05 0.12977092D+05 0.12977092D+05 0.12550592D+01  1  2  5  3  5  1       -1 -.445585540214D-02 0.100000000000D+01
  </mgrwgt>
  </event>
  <event>
  4     66 0.43907321E-03 0.65768328E+02 0.75467711E-02 0.12409329E+00
       -1 -1    0    0    0  501 0.00000000E+00 0.00000000E+00 0.35538228E+03 0.35538242E+03 0.32000000E+00 0.0000E+00 0.9000E+01
        1 -1    0    0  501    0 0.00000000E+00 0.00000000E+00 -.37281337E+02 0.37282711E+02 0.32000000E+00 0.0000E+00 0.9000E+01
       25  1    1    2    0    0 -.30767717E+02 0.24068716E+02 0.17702622E+03 0.22020272E+03 0.12500000E+03 0.0000E+00 0.9000E+01
       23  1    1    2    0    0 0.30767717E+02 -.24068716E+02 0.14107472E+03 0.17246241E+03 0.91188000E+02 0.0000E+00 0.9000E+01
#aMCatNLO 1  0  0  1  2 0.12157682D+02 0.00000000D+00  -5  5  0 0.00000000D+00 0.00000000D+00 0.00000000D+00 0.00000000D+00 0.00000000D+00
  <mgrwgt>
 0.1608044008D+00    9    2    0
 0.115106144518056D+03 0.000000000000000D+00 0.000000000000000D+00 0.115106144518056D+03
 0.115106144518056D+03 0.000000000000000D+00 0.000000000000000D+00 -.115106144518056D+03
 0.130982248888082D+03 -.307677170718107D+02 0.240687160339755D+02 -.232250262525683D+01
 0.992300401480291D+02 0.307677170718107D+02 -.240687160339755D+02 0.232250262525683D+01
 0.000000000000000D+00 0.000000000000000D+00 -.000000000000000D+00 0.000000000000000D+00
 0.121423571570886D+03 0.000000000000000D+00 0.000000000000000D+00 0.121423571570886D+03
 0.121268197370279D+03 0.000000000000000D+00 0.000000000000000D+00 -.121268197370279D+03
 0.133207097598801D+03 -.355972859093159D+02 0.290958771674382D+02 -.232250262525683D+01
 0.973259960493447D+02 0.271745331684260D+02 -.203285240888474D+02 0.232250262525683D+01
 0.121586752930185D+02 0.842275274088993D+01 -.876735307859078D+01 0.155374200607000D+00
0.173045968900D-03 0.000000000000D+00 0.000000000000D+00 0.225946852036D-02 0.000000000000D+00  5 -1 1 25 23 21 0 0.54674313D-01 0.57357071D-02 0.13243926D+05 0.13243926D+05 0.13243926D+05 0.12540346D+01  1  2  2  1  5  1       -1 0.781295024084D-01 0.100000000000D+01
-.961366443538D-05 0.000000000000D+00 -.664542084626D-06 0.225946852036D-02 0.000000000000D+00  5 -1 1 25 23 21 2 0.54674313D-01 0.57357071D-02 0.13243926D+05 0.13243926D+05 0.13243926D+05 0.12540346D+01  1  2  3  1  5  1       -1 -.682592606690D-02 0.100000000000D+01
0.119873876764D-04 0.000000000000D+00 0.000000000000D+00 0.225946852036D-02 0.000000000000D+00  5 -1 1 25 23 21 2 0.54674313D-01 0.57357071D-02 0.13243926D+05 0.13243926D+05 0.13243926D+05 0.12540346D+01  1  2 15  1  5  1       -1 0.851132495465D-02 0.100000000000D+01
0.273263143269D-03 0.000000000000D+00 0.000000000000D+00 0.225946852036D-02 0.000000000000D+00  5 -1 1 25 23 21 2 0.59061035D-01 0.57357071D-02 0.14718884D+05 0.14718884D+05 0.14718884D+05 0.12487603D+01  1  2 12  1  5  1       -1 0.167144666028D+00 0.100000000000D+01
-.213526444053D-03 0.000000000000D+00 0.000000000000D+00 0.225946852036D-02 0.000000000000D+00  5 -1 1 25 23 21 2 0.54674313D-01 0.57357071D-02 0.13243926D+05 0.13243926D+05 0.13243926D+05 0.12540346D+01  1  2  4  1  5  1       -1 -.151608757538D+00 0.100000000000D+01
-.103706715108D-02 0.000000000000D+00 -.210723111759D-03 0.225946852036D-02 0.000000000000D+00  5 -1 1 25 23 21 2 0.60414302D-01 0.57357071D-02 0.13243926D+05 0.13243926D+05 0.13243926D+05 0.12540346D+01  1  2  5  1  5  1       -1 -.610777242871D+00 0.100000000000D+01
0.105389363715D-02 0.000000000000D+00 0.209677379400D-03 0.225946852036D-02 0.000000000000D+00  5 -1 1 25 23 21 2 0.54674313D-01 0.57357071D-02 0.13243926D+05 0.13243926D+05 0.13243926D+05 0.12540346D+01  1  2  6  1  5  1       -1 0.748289073112D+00 0.100000000000D+01
0.353507220949D-05 0.000000000000D+00 0.000000000000D+00 0.225946852036D-02 0.000000000000D+00  5 21 1 25 23 1 2 0.59061035D-01 0.57357071D-02 0.14718884D+05 0.14718884D+05 0.14718884D+05 0.12487603D+01  1  2 12  3  5  1       -1 0.213128670116D-01 0.100000000000D+01
-.161270601746D-04 0.000000000000D+00 -.341765521954D-05 0.225946852036D-02 0.000000000000D+00  5 21 1 25 23 1 2 0.60414302D-01 0.57357071D-02 0.13243926D+05 0.13243926D+05 0.13243926D+05 0.12540346D+01  1  2  5  3  5  1       -1 -.933711062618D-01 0.100000000000D+01
  </mgrwgt>
  </event>
  <event>
  5     66 -.43907321E-03 0.11200714E+03 0.75467711E-02 0.12439938E+00
       -3 -1    0    0    0  502 0.00000000E+00 0.00000000E+00 0.67592286E+03 0.67592304E+03 0.50000000E+00 0.0000E+00 0.9000E+01
        3 -1    0    0  501    0 0.00000000E+00 0.00000000E+00 -.21454822E+02 0.21460648E+02 0.50000000E+00 0.0000E+00 0.9000E+01
       25  1    1    2    0    0 0.24848229E+01 0.28147968E+02 0.39313117E+03 0.41349196E+03 0.12500000E+03 0.0000E+00 0.9000E+01
       23  1    1    2    0    0 0.11941338E+02 -.28653560E+02 0.22272144E+03 0.24265967E+03 0.91188000E+02 0.0000E+00 0.9000E+01
       21  1    1    2  501  502 -.14426161E+02 0.50559184E+00 0.38615420E+02 0.41232062E+02 0.75000000E+00 0.0000E+00 0.9000E+01
#aMCatNLO 2  0  0  1  2 0.14435018D+02 0.00000000D+00  -5  5  0 0.00000000D+00 0.00000000D+00 0.00000000D+00 0.00000000D+00 0.00000000D+00
  <mgrwgt>
 -.9603736584D-02    2    2    0
 0.112973609722403D+03 0.000000000000000D+00 0.000000000000000D+00 0.112973609722403D+03
 0.112973609722403D+03 0.000000000000000D+00 0.000000000000000D+00 -.112973609722403D+03
 0.129149397753700D+03 -.574730904171344D+01 0.284364789578769D+02 0.145911631955987D+02
 0.967978216911069D+02 0.574730904171344D+01 -.284364789578769D+02 -.145911631955987D+02
 0.000000000000000D+00 -.000000000000000D+00 0.000000000000000D+00 -.000000000000000D+00
 0.120300348485261D+03 0.000000000000000D+00 0.000000000000000D+00 0.120300348485261D+03
 0.120544588063339D+03 0.000000000000000D+00 0.000000000000000D+00 -.120544588063339D+03
 0.128982109291400D+03 0.248482291265509D+01 0.281479684693385D+02 0.145911631955987D+02
 0.974257433000127D+02 0.119413379456528D+02 -.286535603063056D+02 -.145911631955987D+02
 0.144370839571875D+02 -.144261608583078D+02 0.505591836967104D+00 -.244239578078354D+00
-.285719785518D-03 0.000000000000D+00 0.000000000000D+00 0.228952772627D-02 0.000000000000D+00  5 -3 3 25 23 21 2 0.10704344D+00 0.30936172D-02 0.14270221D+05 0.14270221D+05 0.14270221D+05 0.12502994D+01  1  2 13  1  5  1       -3 -.380004723898D-01 0.100000000000D+01
0.220827243267D-03 0.000000000000D+00 0.000000000000D+00 0.228952772627D-02 0.919867925621D-04  5 -3 3 25 23 21 2 0.10398019D+00 0.33009374D-02 0.14270221D+05 0.14270221D+05 0.14270221D+05 0.12502994D+01  1  2  1  1  5  1       -3 0.283967358058D-01 0.100000000000D+01
  </mgrwgt>
  </event>
  <event>
  5     66 -.43907321E-03 0.30012270E+03 0.75467711E-02 0.10818972E+00
       -1 -1    0    0    0  501 0.00000000E+00 0.00000000E+00 0.71484119E+02 0.71484835E+02 0.32000000E+00 0.0000E+00 0.9000E+01
        1 -1    0    0  502    0 0.00000000E+00 0.00000000E+00 -.14111842E+04 0.14111842E+04 0.32000000E+00 0.0000E+00 0.9000E+01
       25  1    1    2    0    0 0.25722884E+03 0.97284304E+02 -.47436138E+03 0.56238299E+03 0.12500000E+03 0.0000E+00 0.9000E+01
       23  1    1    2    0    0 -.26896072E+03 -.91294187E+02 -.84431680E+03 0.89546670E+03 0.91188000E+02 0.0000E+00 0.9000E+01
       21  1    1    2  502  501 0.11731883E+02 -.59901164E+01 -.21021871E+02 0.24819350E+02 0.75000000E+00 0.0000E+00 0.9000E+01
#aMCatNLO 2  0  0  2  1 0.13172645D+02 0.00000000D+00  -5  5  0 0.00000000D+00 0.00000000D+00 0.00000000D+00 0.00000000D+00 0.00000000D+00
  <mgrwgt>
 -.8844241760D-01    3    2    0
 0.310741073973072D+03 0.000000000000000D+00 0.000000000000000D+00 0.310741073973072D+03
 0.310741073973072D+03 0.000000000000000D+00 0.000000000000000D+00 -.310741073973072D+03
 0.316621973915377D+03 0.263167483653618D+03 0.942521239421654D+02 0.805225871782738D+02
 0.304860174030767D+03 -.263167483653618D+03 -.942521239421654D+02 -.805225871782738D+02
 0.000000000000000D+00 0.000000000000000D+00 -.000000000000000D+00 0.000000000000000D+00
 0.319281346147503D+03 0.000000000000000D+00 0.000000000000000D+00 0.319281346147503D+03
 0.315932140095975D+03 0.000000000000000D+00 0.000000000000000D+00 -.315932140095975D+03
 0.312633648025629D+03 0.257228837982797D+03 0.972843036771628D+02 0.805225871782738D+02
 0.308988084858571D+03 -.268960721215723D+03 -.912941873166230D+02 -.805225871782738D+02
 0.135917533592774D+02 0.117318832329268D+02 -.599011636053977D+01 0.334920605152819D+01
-.298518443079D-02 0.000000000000D+00 0.000000000000D+00 0.120150356626D-02 0.000000000000D+00  5 -1 1 25 23 21 2 0.10703097D-01 0.21996915D+00 0.94117059D+05 0.94117059D+05 0.94117059D+05 0.11659983D+01  1  2 13  2  5  2        1 -.177091006865D+00 0.100000000000D+01
-.320973828099D-02 0.000000000000D+00 0.000000000000D+00 0.120150356626D-02 0.000000000000D+00  5 -1 1 25 23 21 2 0.10703097D-01 0.21353111D+00 0.90073637D+05 0.90073637D+05 0.90073637D+05 0.11677656D+01  1  2  8  2  5  2        1 -.203975355816D+00 0.100000000000D+01
0.499944586423D-02 0.000000000000D+00 0.000000000000D+00 0.120150356626D-02 0.502225941396D-04  5 -1 1 25 23 21 2 0.10997256D-01 0.21709824D+00 0.94117059D+05 0.94117059D+05 0.94117059D+05 0.11659983D+01  1  2  1  2  5  2        1 0.292623945084D+00 0.100000000000D+01
  </mgrwgt>
  </event>
  <event>
  5     66 0.43907321E-03 0.11737134E+03 0.75467711E-02 0.10746673E+00
       21 -1    0    0  502  501 0.00000000E+00 0.00000000E+00 0.17292501E+03 0.17292664E+03 0.75000000E+00 0.0000E+00 0.9000E+01
        1 -1    0    0  501    0 0.00000000E+00 0.00000000E+00 -.63671431E+03 0.63671439E+03 0.32000000E+00 0.0000E+00 0.9000E+01
       25  1    1    2    0    0 0.10844307E+03 -.12059541E+03 -.61759534E+02 0.21387471E+03 0.12500000E+03 0.0000E+00 0.9000E+01
       23  1    1    2    0    0 0.12967297E+02 -.13101491E+03 -.13909661E+03 0.21212302E+03 0.91188000E+02 0.0000E+00 0.9000E+01
        1  1    1    2  502    0 -.12141037E+03 0.25161032E+03 -.26293315E+03 0.38364329E+03 0.32000000E+00 0.0000E+00 0.9000E+01
#aMCatNLO 2  0  0  1  1 0.27937113D+03 0.00000000D+00  -5  5  0 0.00000000D+00 0.00000000D+00 0.00000000D+00 0.00000000D+00 0.00000000D+00
  <mgrwgt>
 0.2449726750D-01    1    2    0
 0.125581295823811D+03 0.000000000000000D+00 0.000000000000000D+00 0.125581295823811D+03
 0.125581295823811D+03 0.000000000000000D+00 0.000000000000000D+00 -.125581295823811D+03
 0.140133121810412D+03 0.407226539306065D+02 0.197480867792763D+02 0.443167051317903D+02
 0.111029469837210D+03 -.407226539306065D+02 -.197480867792763D+02 -.443167051317903D+02
 0.000000000000000D+00 -.000000000000000D+00 0.000000000000000D+00 -.000000000000000D+00
 0.288546049938755D+03 0.000000000000000D+00 0.000000000000000D+00 0.288546049938755D+03
 0.381583667334205D+03 0.000000000000000D+00 0.000000000000000D+00 -.381583667334205D+03
 0.209504472570312D+03 0.108443072964197D+03 -.120595412845218D+03 0.443167051317903D+02
 0.166169426218881D+03 0.129672973168157D+02 -.131014906451409D+03 -.443167051317903D+02
 0.294455818483767D+03 -.121410370281012D+03 0.251610319296627D+03 -.930376173954505D+02
0.388957959258D-04 0.000000000000D+00 0.000000000000D+00 0.184166616948D-02 0.977287762540D-07  5 21 1 25 23 1 2 0.26603972D-01 0.97956152D-01 0.10377601D+06 0.10377601D+06 0.10377601D+06 0.11620958D+01  1  2  1  3  5  1       -1 0.244972674989D-01 0.100000000000D+01
  </mgrwgt>
  </event>
  <event>
  4     66 0.43907321E-03 0.10953414E+03 0.75467711E-02 0.88783431E-01
       -1 -1    0    0    0  501 0.00000000E+00 0.00000000E+00 0.26848451E+02 0.26850358E+02 0.32000000E+00 0.0000E+00 0.9000E+01
        1 -1    0    0  501    0 0.00000000E+00 0.00000000E+00 -.45745714E+03 0.45745725E+03 0.32000000E+00 0.0000E+00 0.9000E+01
       25  1    1    2    0    0 -.17059916E+02 -.38609883E+01 -.21088600E+03 0.24577195E+03 0.12500000E+03 0.0000E+00 0.9000E+01
       23  1    1    2    0    0 0.17059916E+02 0.38609883E+01 -.21972269E+03 0.23853565E+03 0.91188000E+02 0.0000E+00 0.9000E+01
#aMCatNLO 1  0  0  2  1 0.15012813D+04 0.00000000D+00  -5  5  0 0.00000000D+00 0.00000000D+00 0.00000000D+00 0.00000000D+00 0.00000000D+00
  <mgrwgt>
 0.1601570087D+00    3    2    0
 0.110826460839566D+03 0.000000000000000D+00 0.000000000000000D+00 0.110826460839566D+03
 0.110826460839566D+03 0.000000000000000D+00 0.000000000000000D+00 -.110826460839566D+03
 0.127315638154769D+03 -.170599163491020D+02 -.386098827171930D+01 0.166830375676407D+02
 0.943372835243629D+02 0.170599163491020D+02 0.386098827171930D+01 -.166830375676407D+02
 0.000000000000000D+00 0.000000000000000D+00 0.000000000000000D+00 0.000000000000000D+00
 0.161280216743253D+04 0.000000000000000D+00 0.000000000000000D+00 0.161280216743253D+04
 0.141854999382437D+04 0.000000000000000D+00 0.000000000000000D+00 -.141854999382437D+04
 0.952403478873572D+03 -.485943435639289D+03 -.809338025911970D+03 0.166830375676407D+02
 0.565152309246974D+03 -.269332902224805D+03 -.488122264745082D+03 -.166830375676407D+02
 0.151379637313635D+04 0.755276337864094D+03 0.129746029065705D+04 0.194252173608161D+03
0.140950246595D-03 0.000000000000D+00 0.000000000000D+00 0.234166410583D-02 0.000000000000D+00  5 -1 1 25 23 21 0 0.41306862D-02 0.70378176D-01 0.11997727D+05 0.11997727D+05 0.11997727D+05 0.12590337D+01  1  2  2  2  5  2        1 0.156763160094D+00 0.100000000000D+01
-.782925941003D-05 0.000000000000D+00 -.541286059979D-06 0.234166410583D-02 0.000000000000D+00  5 -1 1 25 23 21 2 0.41306862D-02 0.70378176D-01 0.11997727D+05 0.11997727D+05 0.11997727D+05 0.12590337D+01  1  2  3  2  5  2        1 -.138030034182D-01 0.100000000000D+01
0.975429850780D-05 0.000000000000D+00 0.000000000000D+00 0.234166410583D-02 0.000000000000D+00  5 -1 1 25 23 21 2 0.41306862D-02 0.70378176D-01 0.11997727D+05 0.11997727D+05 0.11997727D+05 0.12590337D+01  1  2 15  2  5  2        1 0.171968520385D-01 0.100000000000D+01
  </mgrwgt>
  </event>
  <event>
  5     66 0.43907321E-03 0.11600547E+03 0.75467711E-02 0.12400691E+00
       21 -1    0    0  502  501 0.00000000E+00 0.00000000E+00 0.10752747E+03 0.10753008E+03 0.75000000E+00 0.0000E+00 0.9000E+01
        1 -1    0    0  501    0 0.00000000E+00 0.00000000E+00 -.14861098E+03 0.14861132E+03 0.32000000E+00 0.0000E+00 0.9000E+01
       25  1    1    2    0    0 0.48121114E+02 0.19418086E+01 -.37548978E+02 0.13911987E+03 0.12500000E+03 0.0000E+00 0.9000E+01
       23  1    1    2    0    0 -.36740736E+02 -.80545648E+00 0.10545809E+02 0.98878693E+02 0.91188000E+02 0.0000E+00 0.9000E+01
        1  1    1    2  502    0 -.11380378E+02 -.11363521E+01 -.14080345E+02 0.18142845E+02 0.32000000E+00 0.0000E+00 0.9000E+01
#aMCatNLO 2  0  0  1  1 0.11436971D+02 0.00000000D+00  -5  5  0 0.00000000D+00 0.00000000D+00 0.00000000D+00 0.00000000D+00 0.00000000D+00
  <mgrwgt>
 0.2821101642D-01    1    2    0
 0.118092485047231D+03 0.000000000000000D+00 0.000000000000000D+00 0.118092485047231D+03
 0.118092485047231D+03 0.000000000000000D+00 0.000000000000000D+00 -.118092485047231D+03
 0.133567112101350D+03 0.416368370032909D+02 0.129434132902875D+01 -.219059790920197D+02
 0.102617857993113D+03 -.416368370032909D+02 -.129434132902875D+01 0.219059790920197D+02
 0.000000000000000D+00 -.000000000000000D+00 -.000000000000000D+00 -.000000000000000D+00
 0.120505756645851D+03 0.000000000000000D+00 0.000000000000000D+00 0.120505756645851D+03
 0.132605607555298D+03 0.000000000000000D+00 0.000000000000000D+00 -.132605607555298D+03
 0.135736082839847D+03 0.481211143284368D+02 0.194180856813173D+01 -.219059790920197D+02
 0.100725635842863D+03 -.367407361360716D+02 -.805456484672254D+00 0.219059790920197D+02
 0.166496455184392D+02 -.113803781923652D+02 -.113635208345948D+01 -.120998509094467D+02
0.241101531364D-05 0.000000000000D+00 0.000000000000D+00 0.213159281518D-02 0.540248150051D-06  5 21 1 25 23 1 2 0.16542707D-01 0.22863168D-01 0.14848450D+05 0.14848450D+05 0.14848450D+05 0.12483256D+01  1  2  1  3  5  1       -1 0.282110164162D-01 0.100000000000D+01
  </mgrwgt>
  </event>
  <event>
  4     66 0.43907321E-03 0.16212699E+03 0.75467711E-02 0.11319155E+00
       -1 -1    0    0    0  501 0.00000000E+00 0.00000000E+00 0.40877635E+02 0.40878887E+02 0.32000000E+00 0.0000E+00 0.9000E+01
        1 -1    0    0  501    0 0.00000000E+00 0.00000000E+00 -.64333548E+03 0.64333556E+03 0.32000000E+00 0.0000E+00 0.9000E+01
       25  1    1    2    0    0 -.12011728E+03 0.37317276E+01 -.31447832E+03 0.35911516E+03 0.12500000E+03 0.0000E+00 0.9000E+01
       23  1    1    2    0    0 0.12011728E+03 -.37317276E+01 -.28797952E+03 0.32509928E+03 0.91188000E+02 0.0000E+00 0.9000E+01
#aMCatNLO 1  0  0  1  1 0.10460865D+03 0.00000000D+00  -5  5  0 0.00000000D+00 0.00000000D+00 0.00000000D+00 0.00000000D+00 0.00000000D+00
  <mgrwgt>
 0.1305807421D+00    7    2    0
 0.162168086946846D+03 0.000000000000000D+00 0.000000000000000D+00 0.162168086946846D+03
 0.162168086946846D+03 0.000000000000000D+00 0.000000000000000D+00 -.162168086946846D+03
 0.173436871073275D+03 -.120117277844045D+03 0.373172764859646D+01 0.364170561427875D+01
 0.150899302820417D+03 0.120117277844045D+03 -.373172764859646D+01 -.364170561427875D+01
 0.000000000000000D+00 -.000000000000000D+00 0.000000000000000D+00 0.000000000000000D+00
 0.232765022466391D+03 0.000000000000000D+00 0.000000000000000D+00 0.232765022466391D+03
 0.214256968617871D+03 0.000000000000000D+00 0.000000000000000D+00 -.214256968617871D+03
 0.170334509149576D+03 -.105123316093989D+03 -.482148462700975D+02 0.364170561427875D+01
 0.170454168173288D+03 0.134133458159009D+03 -.522907782134863D+02 -.364170561427875D+01
 0.106233313761397D+03 -.290101420650196D+02 0.100505624483584D+03 0.185080538485197D+02
0.321553859018D-03 0.000000000000D+00 0.000000000000D+00 0.163272155269D-02 0.000000000000D+00  5 -1 1 25 23 21 0 0.62889694D-02 0.98974791D-01 0.26285162D+05 0.26285162D+05 0.26285162D+05 0.12209704D+01  1  2  2  1  5  1       -1 0.124857216290D+00 0.100000000000D+01
-.178641018837D-04 0.000000000000D+00 -.123485148570D-05 0.163272155269D-02 0.000000000000D+00  5 -1 1 25 23 21 2 0.62889694D-02 0.98974791D-01 0.26285162D+05 0.26285162D+05 0.26285162D+05 0.12209704D+01  1  2  3  1  5  1       -1 -.103407346596D-01 0.100000000000D+01
0.222213447474D-04 0.000000000000D+00 0.000000000000D+00 0.163272155269D-02 0.000000000000D+00  5 -1 1 25 23 21 2 0.62889694D-02 0.98974791D-01 0.26285162D+05 0.26285162D+05 0.26285162D+05 0.12209704D+01  1  2 15  1  5  1       -1 0.128629489077D-01 0.100000000000D+01
-.100397888598D-03 0.000000000000D+00 0.000000000000D+00 0.163272155269D-02 0.000000000000D+00  5 -1 1 25 23 21 2 0.62889694D-02 0.98974791D-01 0.26285162D+05 0.26285162D+05 0.26285162D+05 0.12209704D+01  1  2  4  1  5  1       -1 -.581158758013D-01 0.100000000000D+01
-.113726749382D-03 0.000000000000D+00 -.997042548720D-04 0.163272155269D-02 0.000000000000D+00  5 -1 1 25 23 21 2 0.11939397D-01 0.98974791D-01 0.26285162D+05 0.26285162D+05 0.26285162D+05 0.12209704D+01  1  2  5  1  5  1       -1 -.248091460470D-01 0.100000000000D+01
0.160912241777D-03 0.000000000000D+00 0.822232820512D-04 0.163272155269D-02 0.000000000000D+00  5 -1 1 25 23 21 2 0.62889694D-02 0.98974791D-01 0.26285162D+05 0.26285162D+05 0.26285162D+05 0.12209704D+01  1  2  6  1  5  1       -1 0.931449454622D-01 0.100000000000D+01
-.223420795493D-05 0.000000000000D+00 -.694557783455D-05 0.163272155269D-02 0.000000000000D+00  5 21 1 25 23 1 2 0.11939397D-01 0.98974791D-01 0.26285162D+05 0.26285162D+05 0.26285162D+05 0.12209704D+01  1  2  5  3  5  1       -1 -.701861201779D-02 0.100000000000D+01
  </mgrwgt>
  </event>
  <event>
  4     66 0.43907321E-03 0.13338107E+03 0.75467711E-02 0.11086351E+00
       -1 -1    0    0    0  501 0.00000000E+00 0.00000000E+00 0.28477905E+03 0.28477923E+03 0.32000000E+00 0.0000E+00 0.9000E+01
        1 -1    0    0  501    0 0.00000000E+00 0.00000000E+00 -.65846602E+02 0.65847380E+02 0.32000000E+00 0.0000E+00 0.9000E+01
       25  1    1    2    0    0 -.37058898E+02 0.68078894E+02 0.80637674E+02 0.16773650E+03 0.12500000E+03 0.0000E+00 0.9000E+01
       23  1    1    2    0    0 0.37058898E+02 -.68078894E+02 0.13829478E+03 0.18289012E+03 0.91188000E+02 0.0000E+00 0.9000E+01
#aMCatNLO 1  0  0  1  1 0.18842983D+03 0.00000000D+00  -5  5  0 0.00000000D+00 0.00000000D+00 0.00000000D+00 0.00000000D+00 0.00000000D+00
  <mgrwgt>
 0.1602672795D+00    3    2    0
 0.136937579737922D+03 0.000000000000000D+00 0.000000000000000D+00 0.136937579737922D+03
 0.136937579737922D+03 0.000000000000000D+00 0.000000000000000D+00 -.136937579737922D+03
 0.150282617436832D+03 -.370588977437029D+02 0.680788943692909D+02 -.308507267846614D+02
 0.123592542039013D+03 0.370588977437029D+02 -.680788943692909D+02 0.308507267846614D+02
 0.000000000000000D+00 0.000000000000000D+00 0.000000000000000D+00 -.000000000000000D+00
 0.188081271288461D+03 0.000000000000000D+00 0.000000000000000D+00 0.188081271288461D+03
 0.572211965973545D+03 0.000000000000000D+00 0.000000000000000D+00 -.572211965973545D+03
 0.176886273881314D+03 -.120840440848322D+03 0.104677791367894D+02 -.308507267846614D+02
 0.155549287972049D+03 -.344238559164915D+02 -.117232932426474D+03 0.308507267846614D+02
 0.427857675408643D+03 0.155264296764813D+03 0.106765153289685D+03 -.384130694685084D+03
0.493950769644D-03 0.000000000000D+00 0.000000000000D+00 0.178978468234D-02 0.000000000000D+00  5 -1 1 25 23 21 0 0.43812236D-01 0.10130320D-01 0.17790509D+05 0.17790509D+05 0.17790509D+05 0.12394628D+01  1  2  2  1  5  1       -1 0.156980325818D+00 0.100000000000D+01
-.274186047916D-04 0.000000000000D+00 -.189690101566D-05 0.178978468234D-02 0.000000000000D+00  5 -1 1 25 23 21 2 0.43812236D-01 0.10130320D-01 0.17790509D+05 0.17790509D+05 0.17790509D+05 0.12394628D+01  1  2  3  1  5  1       -1 -.133867123651D-01 0.100000000000D+01
0.341509286778D-04 0.000000000000D+00 0.000000000000D+00 0.178978468234D-02 0.000000000000D+00  5 -1 1 25 23 21 2 0.43812236D-01 0.10130320D-01 0.17790509D+05 0.17790509D+05 0.17790509D+05 0.12394628D+01  1  2 15  1  5  1       -1 0.166736660265D-01 0.100000000000D+01
  </mgrwgt>
  </event>
  <event>
  4     66 0.43907321E-03 0.87395527E+02 0.75467711E-02 0.11862234E+00
       -3 -1    0    0    0  501 0.00000000E+00 0.00000000E+00 0.71079575E+02 0.71081334E+02 0.50000000E+00 0.0000E+00 0.9000E+01
        3 -1    0    0  501    0 0.00000000E+00 0.00000000E+00 -.35069914E+03 0.35069950E+03 0.50000000E+00 0.0000E+00 0.9000E+01
       25  1    1    2    0    0 0.89594577E+02 0.70494565E+02 -.13702906E+03 0.21771228E+03 0.12500000E+03 0.0000E+00 0.9000E+01
       23  1    1    2    0    0 -.89594577E+02 -.70494565E+02 -.14259051E+03 0.20406856E+03 0.91188000E+02 0.0000E+00 0.9000E+01
#aMCatNLO 1  0  0  1  2 0.91251599D+01 0.00000000D+00  -5  5  0 0.00000000D+00 0.00000000D+00 0.00000000D+00 0.00000000D+00 0.00000000D+00
  <mgrwgt>
 0.3111393983D-01    8    2    0
 0.157886010389655D+03 0.000000000000000D+00 0.000000000000000D+00 0.157886010389655D+03
 0.157886010389655D+03 0.000000000000000D+00 0.000000000000000D+00 -.157886010389655D+03
 0.169460418783977D+03 0.895945773333440D+02 0.704945646094153D+02 0.975508110828741D+01
 0.146311601995333D+03 -.895945773333440D+02 -.704945646094153D+02 -.975508110828741D+01
 0.000000000000000D+00 -.000000000000000D+00 0.000000000000000D+00 -.000000000000000D+00
 0.161787570526440D+03 0.000000000000000D+00 0.000000000000000D+00 0.161787570526440D+03
 0.163379199337210D+03 0.000000000000000D+00 0.000000000000000D+00 -.163379199337210D+03
 0.172028742666945D+03 0.945229990464090D+02 0.702789395723450D+02 0.975508110828741D+01
 0.143875099743651D+03 -.854065602507033D+02 -.706777959543106D+02 -.975508110828741D+01
 0.926292745305475D+01 -.911643879570566D+01 0.398856381965618D+00 -.159162881077005D+01
0.267569125895D-03 0.000000000000D+00 0.000000000000D+00 0.165796966849D-02 0.000000000000D+00  5 -3 3 25 23 21 0 0.10935482D-01 0.53953877D-01 0.24832315D+05 0.24832315D+05 0.24832315D+05 0.12236111D+01  1  2  2  1  5  1       -3 0.137940920453D-01 0.100000000000D+01
-.148648846193D-04 0.000000000000D+00 -.102753589600D-05 0.165796966849D-02 0.000000000000D+00  5 -3 3 25 23 21 2 0.10935482D-01 0.53953877D-01 0.24832315D+05 0.24832315D+05 0.24832315D+05 0.12236111D+01  1  2  3  1  5  1       -3 -.114737530548D-02 0.100000000000D+01
0.184205887958D-04 0.000000000000D+00 0.000000000000D+00 0.165796966849D-02 0.000000000000D+00  5 -3 3 25 23 21 2 0.10935482D-01 0.53953877D-01 0.24832315D+05 0.24832315D+05 0.24832315D+05 0.12236111D+01  1  2 15  1  5  1       -3 0.142182931372D-02 0.100000000000D+01
0.428553943241D-03 0.000000000000D+00 0.000000000000D+00 0.165796966849D-02 0.000000000000D+00  5 -3 3 25 23 21 2 0.11390429D-01 0.53953877D-01 0.26312263D+05 0.26312263D+05 0.26312263D+05 0.12209227D+01  1  2 12  1  5  1       -3 0.308823691152D-01 0.100000000000D+01
-.280567782069D-03 0.000000000000D+00 0.000000000000D+00 0.165796966849D-02 0.000000000000D+00  5 -3 3 25 23 21 2 0.10935482D-01 0.53953877D-01 0.24832315D+05 0.24832315D+05 0.24832315D+05 0.12236111D+01  1  2  4  1  5  1       -3 -.216561751339D-01 0.100000000000D+01
0.467186042225D-07 0.000000000000D+00 0.000000000000D+00 0.165796966849D-02 0.158400604888D-03  5 -3 3 25 23 21 2 0.11205711D-01 0.55831047D-01 0.26312263D+05 0.26312263D+05 0.26312263D+05 0.12209227D+01  1  2 11  1  5  1       -3 0.322762182309D-05 0.100000000000D+01
0.484962318953D-05 0.000000000000D+00 0.000000000000D+00 0.165796966849D-02 0.000000000000D+00  5 21 3 25 23 3 2 0.11390429D-01 0.53953877D-01 0.26312263D+05 0.26312263D+05 0.26312263D+05 0.12209227D+01  1  2 12  3  5  1       -3 0.781510863003D-02 0.100000000000D+01
0.558039122040D-09 0.000000000000D+00 0.000000000000D+00 0.165796966849D-02 0.711674336896D-06  5 21 3 25 23 3 2 0.11205711D-01 0.55831047D-01 0.26312263D+05 0.26312263D+05 0.26312263D+05 0.12209227D+01  1  2 11  3  5  1       -3 0.863542596922D-06 0.100000000000D+01
  </mgrwgt>
  </event>
  <event>
  4     66 0.43907321E-03 0.12961006E+03 0.75467711E-02 0.10271637E+00
       -1 -1    0    0    0  501 0.00000000E+00 0.00000000E+00 0.14266563E+02 0.14270151E+02 0.32000000E+00 0.0000E+00 0.9000E+01
        1 -1    0    0  501    0 0.00000000E+00 0.00000000E+00 -.11868323E+04 0.11868323E+04 0.32000000E+00 0.0000E+00 0.9000E+01
       25  1    1    2    0    0 -.42760814E+02 -.56559265E+02 -.70294123E+03 0.71748087E+03 0.12500000E+03 0.0000E+00 0.9000E+01
       23  1    1    2    0    0 0.42760814E+02 0.56559265E+02 -.46962446E+03 0.48362157E+03 0.91188000E+02 0.0000E+00 0.9000E+01
#aMCatNLO 1  0  0  1  2 0.41470046D+03 0.00000000D+00  -5  5  0 0.00000000D+00 0.00000000D+00 0.00000000D+00 0.00000000D+00 0.00000000D+00
  <mgrwgt>
 0.1566756331D+00    3    2    0
 0.130131464356600D+03 0.000000000000000D+00 0.000000000000000D+00 0.130131464356600D+03
 0.130131464356600D+03 0.000000000000000D+00 0.000000000000000D+00 -.130131464356600D+03
 0.144174472118291D+03 -.427608140205413D+02 -.565592647025643D+02 -.115689572215443D+02
 0.116088456594909D+03 0.427608140205413D+02 0.565592647025643D+02 0.115689572215443D+02
 0.000000000000000D+00 -.000000000000000D+00 0.000000000000000D+00 -.000000000000000D+00
 0.447563419263022D+03 0.000000000000000D+00 0.000000000000000D+00 0.447563419263022D+03
 0.456846132219490D+03 0.000000000000000D+00 0.000000000000000D+00 -.456846132219490D+03
 0.224058085601058D+03 0.156119531670015D+03 -.100348775693339D+03 -.115689572215443D+02
 0.265547126254372D+03 0.248880058649446D+03 0.111758916158584D+02 0.115689572215443D+02
 0.414804339627082D+03 -.404999590319462D+03 0.891728840774804D+02 -.928271295646800D+01
0.225636417959D-03 0.000000000000D+00 0.000000000000D+00 0.194782839520D-02 0.000000000000D+00  5 -1 1 25 23 21 0 0.21951352D-02 0.18258986D+00 0.16798767D+05 0.16798767D+05 0.16798767D+05 0.12422539D+01  1  2  2  1  5  1       -1 0.153439976289D+00 0.100000000000D+01
-.125351108858D-04 0.000000000000D+00 -.866503256396D-06 0.194782839520D-02 0.000000000000D+00  5 -1 1 25 23 21 2 0.21951352D-02 0.18258986D+00 0.16798767D+05 0.16798767D+05 0.16798767D+05 0.12422539D+01  1  2  3  1  5  1       -1 -.131546191386D-01 0.100000000000D+01
0.156183865269D-04 0.000000000000D+00 0.000000000000D+00 0.194782839520D-02 0.000000000000D+00  5 -1 1 25 23 21 2 0.21951352D-02 0.18258986D+00 0.16798767D+05 0.16798767D+05 0.16798767D+05 0.12422539D+01  1  2 15  1  5  1       -1 0.163902759371D-01 0.100000000000D+01
  </mgrwgt>
  </event>
  <event>
  4     66 0.43907321E-03 0.48560029E+02 0.75467711E-02 0.11130777E+00
       -1 -1    0    0    0  501 0.00000000E+00 0.00000000E+00 0.46847833E+02 0.46848926E+02 0.32000000E+00 0.0000E+00 0.9000E+01
        1 -1    0    0  501    0 0.00000000E+00 0.00000000E+00 -.15897591E+04 0.15897591E+04 0.32000000E+00 0.0000E+00 0.9000E+01
       25  1    1    2    0    0 0.18070679E+03 -.60379990E+02 -.30455896E+03 0.38037067E+03 0.12500000E+03 0.0000E+00 0.9000E+01
       23  1    1    2    0    0 -.18070679E+03 0.60379990E+02 -.12383523E+04 0.12562374E+04 0.91188000E+02 0.0000E+00 0.9000E+01
#aMCatNLO 1  0  0  1  2 0.57858100D+02 0.00000000D+00  -5  5  0 0.00000000D+00 0.00000000D+00 0.00000000D+00 0.00000000D+00 0.00000000D+00
  <mgrwgt>
 0.1456560220D+00    6    2    0
 0.272906004917498D+03 0.000000000000000D+00 0.000000000000000D+00 0.272906004917498D+03
 0.272906004917498D+03 0.000000000000000D+00 0.000000000000000D+00 -.272906004917498D+03
 0.279602219478817D+03 0.180706786647576D+03 -.603799898973810D+02 0.162023810648250D+03
 0.266209790356179D+03 -.180706786647576D+03 0.603799898973810D+02 -.162023810648250D+03
 0.000000000000000D+00 0.000000000000000D+00 -.000000000000000D+00 -.000000000000000D+00
 0.299983917835218D+03 0.000000000000000D+00 0.000000000000000D+00 0.299983917835218D+03
 0.307191409278189D+03 0.000000000000000D+00 0.000000000000000D+00 -.307191409278189D+03
 0.266787966702379D+03 0.167629810682464D+03 -.346316406017823D+02 0.162023810648250D+03
 0.282082063286502D+03 -.193829275984481D+03 0.862179542689470D+02 -.162023810648250D+03
 0.583052971245252D+02 0.261994653020166D+02 -.515863136671647D+02 -.720749144297084D+01
0.177444337346D-02 0.000000000000D+00 0.000000000000D+00 0.881488757529D-03 0.000000000000D+00  5 -1 1 25 23 21 0 0.72074454D-02 0.24457840D+00 0.48201529D+05 0.48201529D+05 0.48201529D+05 0.11938606D+01  1  2  2  1  5  1       -1 0.112743348067D+00 0.100000000000D+01
-.929072634137D-04 0.000000000000D+00 -.681432977575D-05 0.881488757529D-03 0.000000000000D+00  5 -1 1 25 23 21 2 0.72074454D-02 0.24457840D+00 0.48201529D+05 0.48201529D+05 0.48201529D+05 0.11938606D+01  1  2  3  1  5  1       -1 -.841367361581D-02 0.100000000000D+01
0.122330032890D-03 0.000000000000D+00 0.000000000000D+00 0.881488757529D-03 0.000000000000D+00  5 -1 1 25 23 21 2 0.72074454D-02 0.24457840D+00 0.48201529D+05 0.48201529D+05 0.48201529D+05 0.11938606D+01  1  2 15  1  5  1       -1 0.110781970358D-01 0.100000000000D+01
0.115749753009D-02 0.000000000000D+00 0.000000000000D+00 0.881488757529D-03 0.000000000000D+00  5 -1 1 25 23 21 2 0.83282194D-02 0.24457840D+00 0.62679960D+05 0.62679960D+05 0.62679960D+05 0.11826812D+01  1  2 12  1  5  1       -1 0.821599616210D-01 0.100000000000D+01
-.881390255822D-03 0.000000000000D+00 0.000000000000D+00 0.881488757529D-03 0.000000000000D+00  5 -1 1 25 23 21 2 0.72074454D-02 0.24457840D+00 0.48201529D+05 0.48201529D+05 0.48201529D+05 0.11938606D+01  1  2  4  1  5  1       -1 -.798186241652D-01 0.100000000000D+01
0.256196116135D-04 0.000000000000D+00 0.000000000000D+00 0.881488757529D-03 0.000000000000D+00  5 21 1 25 23 1 2 0.83282194D-02 0.24457840D+00 0.62679960D+05 0.62679960D+05 0.62679960D+05 0.11826812D+01  1  2 12  3  5  1       -1 0.279068130195D-01 0.100000000000D+01
  </mgrwgt>
  </event>
  <event>
  4     66 0.43907321E-03 0.69543343E+02 0.75467711E-02 0.12314959E+00
       -1 -1    0    0    0  501 0.00000000E+00 0.00000000E+00 0.24198465E+02 0.24200580E+02 0.32000000E+00 0.0000E+00 0.9000E+01
        1 -1    0    0  501    0 0.00000000E+00 0.00000000E+00 -.71385180E+03 0.71385187E+03 0.32000000E+00 0.0000E+00 0.9000E+01
       25  1    1    2    0    0 0.61408749E+01 0.61440023E+02 -.49657459E+03 0.51577506E+03 0.12500000E+03 0.0000E+00 0.9000E+01
       23  1    1    2    0    0 -.61408749E+01 -.61440023E+02 -.19307874E+03 0.22227739E+03 0.91188000E+02 0.0000E+00 0.9000E+01
#aMCatNLO 1  0  0  2  1 0.50285251D+01 0.00000000D+00  -5  5  0 0.00000000D+00 0.00000000D+00 0.00000000D+00 0.00000000D+00 0.00000000D+00
  <mgrwgt>
 0.1975829366D+00   11    2    0
 0.131434107947138D+03 0.000000000000000D+00 0.000000000000000D+00 0.131434107947138D+03
 0.131434107947138D+03 0.000000000000000D+00 0.000000000000000D+00 -.131434107947138D+03
 0.145337935443232D+03 0.614087486326161D+01 0.614400225983682D+02 -.410551916074779D+02
 0.117530280451044D+03 -.614087486326161D+01 -.614400225983682D+02 0.410551916074779D+02
 0.000000000000000D+00 0.000000000000000D+00 0.000000000000000D+00 -.000000000000000D+00
 0.132285014525318D+03 0.000000000000000D+00 0.000000000000000D+00 0.132285014525318D+03
 0.139103356241893D+03 0.000000000000000D+00 0.000000000000000D+00 -.139103356241893D+03
 0.145185700216216D+03 0.336615824493859D+01 0.612945981960580D+02 -.410551916074779D+02
 0.117730607744829D+03 -.838779117572204D+01 -.615577847004953D+02 0.410551916074779D+02
 0.847206280616624D+01 0.502163293078345D+01 0.263186504437330D+00 -.681834171657440D+01
0.122592700202D-03 0.000000000000D+00 0.000000000000D+00 0.179239917974D-02 0.000000000000D+00  5 -1 1 25 23 21 0 0.37230090D-02 0.10982352D+00 0.15568203D+05 0.15568203D+05 0.15568203D+05 0.12459859D+01  1  2  2  2  5  2        1 0.881248826684D-01 0.100000000000D+01
-.678830325537D-05 0.000000000000D+00 -.470788248176D-06 0.179239917974D-02 0.000000000000D+00  5 -1 1 25 23 21 2 0.37230090D-02 0.10982352D+00 0.15568203D+05 0.15568203D+05 0.15568203D+05 0.12459859D+01  1  2  3  2  5  2        1 -.757567699800D-02 0.100000000000D+01
0.846926153130D-05 0.000000000000D+00 0.000000000000D+00 0.179239917974D-02 0.000000000000D+00  5 -1 1 25 23 21 2 0.37230090D-02 0.10982352D+00 0.15568203D+05 0.15568203D+05 0.15568203D+05 0.12459859D+01  1  2 15  2  5  2        1 0.945160924005D-02 0.100000000000D+01
0.424723545990D-03 0.000000000000D+00 0.000000000000D+00 0.179239917974D-02 0.000000000000D+00  5 -1 1 25 23 21 2 0.37230090D-02 0.11657499D+00 0.16208956D+05 0.16208956D+05 0.16208956D+05 0.12440030D+01  1  2 12  2  5  2        1 0.433788865066D+00 0.100000000000D+01
-.131435473327D-02 0.000000000000D+00 0.000000000000D+00 0.179239917974D-02 0.000000000000D+00  5 -1 1 25 23 21 2 0.37230090D-02 0.10982352D+00 0.15568203D+05 0.15568203D+05 0.15568203D+05 0.12459859D+01  1  2  4  2  5  2        1 -.146680643829D+01 0.100000000000D+01
-.275867954755D-02 0.000000000000D+00 -.283882155537D-03 0.179239917974D-02 0.000000000000D+00  5 -1 1 25 23 21 2 0.37230090D-02 0.11663661D+00 0.15568203D+05 0.15568203D+05 0.15568203D+05 0.12459859D+01  1  2  5  2  5  2        1 -.282124476702D+01 0.100000000000D+01
0.277125823680D-02 0.000000000000D+00 0.283368727933D-03 0.179239917974D-02 0.000000000000D+00  5 -1 1 25 23 21 2 0.37230090D-02 0.10982352D+00 0.15568203D+05 0.15568203D+05 0.15568203D+05 0.12459859D+01  1  2  6  2  5  2        1 0.309269584612D+01 0.100000000000D+01
0.882826624559D-03 0.000000000000D+00 0.000000000000D+00 0.179239917974D-02 0.586001860899D-03  5 -1 1 25 23 21 2 0.37471118D-02 0.11623178D+00 0.16208956D+05 0.16208956D+05 0.16208956D+05 0.12440030D+01  1  2 11  2  5  2        1 0.897072428527D+00 0.100000000000D+01
0.610194180615D-05 0.000000000000D+00 0.000000000000D+00 0.179239917974D-02 0.000000000000D+00  5 -1 21 25 23 -1 2 0.37230090D-02 0.11657499D+00 0.16208956D+05 0.16208956D+05 0.16208956D+05 0.12440030D+01  1  2 12  4  5  2        1 0.129954252256D-01 0.100000000000D+01
-.281498865485D-04 0.000000000000D+00 -.293353159970D-05 0.179239917974D-02 0.000000000000D+00  5 -1 21 25 23 -1 2 0.37230090D-02 0.11663661D+00 0.15568203D+05 0.15568203D+05 0.15568203D+05 0.12459859D+01  1  2  5  4  5  2        1 -.600781292137D-01 0.100000000000D+01
0.901698763292D-05 0.000000000000D+00 0.000000000000D+00 0.179239917974D-02 0.576421010028D-05  5 -1 21 25 23 -1 2 0.37471118D-02 0.11623178D+00 0.16208956D+05 0.16208956D+05 0.16208956D+05 0.12440030D+01  1  2 11  4  5  2        1 0.191588912401D-01 0.100000000000D+01
  </mgrwgt>
  </event>
  <event>
  4     66 0.43907321E-03 0.14126779E+03 0.75467711E-02 0.11003425E+00
       -1 -1    0    0    0  501 0.00000000E+00 0.00000000E+00 0.12794590E+03 0.12794630E+03 0.32000000E+00 0.0000E+00 0.9000E+01
        1 -1    0    0  501    0 0.00000000E+00 0.00000000E+00 -.20321151E+03 0.20321177E+03 0.32000000E+00 0.0000E+00 0.9000E+01
       25  1    1    2    0    0 0.17445444E+02 -.88597168E+02 0.39294619E+02 0.15913161E+03 0.12500000E+03 0.0000E+00 0.9000E+01
       23  1    1    2    0    0 -.17445444E+02 0.88597168E+02 -.11456024E+03 0.17202645E+03 0.91188000E+02 0.0000E+00 0.9000E+01
#aMCatNLO 1  0  0  2  2 0.19843634D+03 0.00000000D+00  -5  5  0 0.00000000D+00 0.00000000D+00 0.00000000D+00 0.00000000D+00 0.00000000D+00
  <mgrwgt>
 0.1588959904D+00    3    2    0
 0.161245735615885D+03 0.000000000000000D+00 0.000000000000000D+00 0.161245735615885D+03
 0.161245735615885D+03 0.000000000000000D+00 0.000000000000000D+00 -.161245735615885D+03
 0.172578978985206D+03 0.174454435129938D+02 -.885971681253747D+02 0.774900141203694D+02
 0.149912492246564D+03 -.174454435129938D+02 0.885971681253747D+02 -.774900141203694D+02
 0.000000000000000D+00 0.000000000000000D+00 0.000000000000000D+00 0.000000000000000D+00
 0.427501098221366D+03 0.000000000000000D+00 0.000000000000000D+00 0.427501098221366D+03
 0.230658270093885D+03 0.000000000000000D+00 0.000000000000000D+00 -.230658270093885D+03
 0.212364469318572D+03 -.841093013234306D+02 -.128041364298683D+03 0.774900141203694D+02
 0.166288048694660D+03 -.100864619482666D+03 0.561968864165943D+02 -.774900141203694D+02
 0.279506850302019D+03 0.184973920806097D+03 0.718444778820884D+02 0.196842828127481D+03
0.538819189585D-03 0.000000000000D+00 0.000000000000D+00 0.131984045996D-02 0.000000000000D+00  5 -1 1 25 23 21 0 0.19684034D-01 0.31263360D-01 0.19956588D+05 0.19956588D+05 0.19956588D+05 0.12339300D+01  1  2  2  2  5  2        1 0.155463779538D+00 0.100000000000D+01
-.292976195616D-04 0.000000000000D+00 -.206920756236D-05 0.131984045996D-02 0.000000000000D+00  5 -1 1 25 23 21 2 0.19684034D-01 0.31263360D-01 0.19956588D+05 0.19956588D+05 0.19956588D+05 0.12339300D+01  1  2  3  2  5  2        1 -.128706214181D-01 0.100000000000D+01
0.371104208306D-04 0.000000000000D+00 0.000000000000D+00 0.131984045996D-02 0.000000000000D+00  5 -1 1 25 23 21 2 0.19684034D-01 0.31263360D-01 0.19956588D+05 0.19956588D+05 0.19956588D+05 0.12339300D+01  1  2 15  2  5  2        1 0.163028322548D-01 0.100000000000D+01
  </mgrwgt>
  </event>
  <event>
  4     66 0.43907321E-03 0.83721069E+02 0.75467711E-02 0.11767288E+00
       -3 -1    0    0    0  501 0.00000000E+00 0.00000000E+00 0.15042818E+03 0.15042901E+03 0.50000000E+00 0.0000E+00 0.9000E+01
        3 -1    0    0  501    0 0.00000000E+00 0.00000000E+00 -.16678904E+03 0.16678979E+03 0.50000000E+00 0.0000E+00 0.9000E+01
       25  1    1    2    0    0 -.92991544E+02 -.40834825E+02 -.63052623E+02 0.17296110E+03 0.12500000E+03 0.0000E+00 0.9000E+01
       23  1    1    2    0    0 0.92991544E+02 0.40834825E+02 0.46691757E+02 0.14425769E+03 0.91188000E+02 0.0000E+00 0.9000E+01
#aMCatNLO 1  0  0  2  1 0.41922245D+02 0.00000000D+00  -5  5  0 0.00000000D+00 0.00000000D+00 0.00000000D+00 0.00000000D+00 0.00000000D+00
  <mgrwgt>
 0.3044217086D-01    9    2    0
 0.158398300885798D+03 0.000000000000000D+00 0.000000000000000D+00 0.158398300885798D+03
 0.158398300885798D+03 0.000000000000000D+00 0.000000000000000D+00 -.158398300885798D+03
 0.169935275422650D+03 -.929915444559847D+02 -.408348246480471D+02 -.542041288890963D+02
 0.146861326348947D+03 0.929915444559847D+02 0.408348246480471D+02 0.542041288890963D+02
 0.000000000000000D+00 0.000000000000000D+00 0.000000000000000D+00 -.000000000000000D+00
 0.177176342059730D+03 0.000000000000000D+00 0.000000000000000D+00 0.177176342059730D+03
 0.185034401524144D+03 0.000000000000000D+00 0.000000000000000D+00 -.185034401524144D+03
 0.180377868287577D+03 -.100165068201846D+03 -.627697928263604D+02 -.542041288890963D+02
 0.139180516801383D+03 0.871341337621798D+02 0.229242242614438D+02 0.542041288890963D+02
 0.426523584949133D+02 0.130309344396657D+02 0.398455685649166D+02 -.785805946441386D+01
0.361565341632D-03 0.000000000000D+00 0.000000000000D+00 0.149639864593D-02 0.000000000000D+00  5 -3 3 25 23 21 0 0.23142918D-01 0.25659974D-01 0.22134159D+05 0.22134159D+05 0.22134159D+05 0.12290076D+01  1  2  2  2  5  2        3 0.210105916295D-01 0.100000000000D+01
-.199910296371D-04 0.000000000000D+00 -.138850611421D-05 0.149639864593D-02 0.000000000000D+00  5 -3 3 25 23 21 2 0.23142918D-01 0.25659974D-01 0.22134159D+05 0.22134159D+05 0.22134159D+05 0.12290076D+01  1  2  3  2  5  2        3 -.175467149566D-02 0.100000000000D+01
0.249654442662D-04 0.000000000000D+00 0.000000000000D+00 0.149639864593D-02 0.000000000000D+00  5 -3 3 25 23 21 2 0.23142918D-01 0.25659974D-01 0.22134159D+05 0.22134159D+05 0.22134159D+05 0.12290076D+01  1  2 15  2  5  2        3 0.219129050507D-02 0.100000000000D+01
0.315985548212D-03 0.000000000000D+00 0.000000000000D+00 0.149639864593D-02 0.000000000000D+00  5 -3 3 25 23 21 2 0.23142918D-01 0.31279674D-01 0.29267504D+05 0.29267504D+05 0.29267504D+05 0.12160268D+01  1  2 12  2  5  2        3 0.192074613412D-01 0.100000000000D+01
-.297927060051D-03 0.000000000000D+00 0.000000000000D+00 0.149639864593D-02 0.000000000000D+00  5 -3 3 25 23 21 2 0.23142918D-01 0.25659974D-01 0.22134159D+05 0.22134159D+05 0.22134159D+05 0.12290076D+01  1  2  4  2  5  2        3 -.261499347231D-01 0.100000000000D+01
-.732167130493D-03 0.000000000000D+00 -.241400274961D-03 0.149639864593D-02 0.000000000000D+00  5 -3 3 25 23 21 2 0.23142918D-01 0.33275716D-01 0.22134159D+05 0.22134159D+05 0.22134159D+05 0.12290076D+01  1  2  5  2  5  2        3 -.397696042521D-01 0.100000000000D+01
0.776464100648D-03 0.000000000000D+00 0.233470817992D-03 0.149639864593D-02 0.000000000000D+00  5 -3 3 25 23 21 2 0.23142918D-01 0.25659974D-01 0.22134159D+05 0.22134159D+05 0.22134159D+05 0.12290076D+01  1  2  6  2  5  2        3 0.681525388910D-01 0.100000000000D+01
0.897425995188D-05 0.000000000000D+00 0.000000000000D+00 0.149639864593D-02 0.000000000000D+00  5 -3 21 25 23 -3 2 0.23142918D-01 0.31279674D-01 0.29267504D+05 0.29267504D+05 0.29267504D+05 0.12160268D+01  1  2 12  4  5  2        3 0.110590791229D-01 0.100000000000D+01
-.211868160451D-04 0.000000000000D+00 -.840642101473D-05 0.149639864593D-02 0.000000000000D+00  5 -3 21 25 23 -3 2 0.23142918D-01 0.33275716D-01 0.22134159D+05 0.22134159D+05 0.22134159D+05 0.12290076D+01  1  2  5  4  5  2        3 -.235045801562D-01 0.100000000000D+01
  </mgrwgt>
  </event>
  <event>
  4     66 0.43907321E-03 0.65467841E+02 0.75467711E-02 0.11397963E+00
       -1 -1    0    0    0  501 0.00000000E+00 0.00000000E+00 0.85386723E+02 0.85387322E+02 0.32000000E+00 0.0000E+00 0.9000E+01
        1 -1    0    0  501    0 0.00000000E+00 0.00000000E+00 -.39694474E+03 0.39694487E+03 0.32000000E+00 0.0000E+00 0.9000E+01
       25  1    1    2    0    0 -.98924994E+01 -.12709867E+03 -.64669587E+02 0.18989231E+03 0.12500000E+03 0.0000E+00 0.9000E+01
       23  1    1    2    0    0 0.98924994E+01 0.12709867E+03 -.24688843E+03 0.29243988E+03 0.91188000E+02 0.0000E+00 0.9000E+01
#aMCatNLO 1  0  0  1  2 0.79811690D+02 0.00000000D+00  -5  5  0 0.00000000D+00 0.00000000D+00 0.00000000D+00 0.00000000D+00 0.00000000D+00
  <mgrwgt>
 0.1284229166D+00    9    2    0
 0.184103193815207D+03 0.000000000000000D+00 0.000000000000000D+00 0.184103193815207D+03
 0.184103193815207D+03 0.000000000000000D+00 0.000000000000000D+00 -.184103193815207D+03
 0.194029350587013D+03 -.989249936564332D+01 -.127098674500768D+03 0.759635062754930D+02
 0.174177037043401D+03 0.989249936564332D+01 0.127098674500768D+03 -.759635062754930D+02
 0.000000000000000D+00 0.000000000000000D+00 -.000000000000000D+00 0.000000000000000D+00
 0.273966383580276D+03 0.000000000000000D+00 0.000000000000000D+00 0.273966383580276D+03
 0.206984841098613D+03 0.000000000000000D+00 0.000000000000000D+00 -.206984841098613D+03
 0.180076656370180D+03 -.375513170525654D+02 -.980920306213238D+02 0.759635062754930D+02
 0.196680360540112D+03 -.175261385520912D+02 0.155853434546610D+03 -.759635062754930D+02
 0.104194207768597D+03 0.550774556046566D+02 -.577614039252859D+02 0.669815424816621D+02
0.495328200709D-03 0.000000000000D+00 0.000000000000D+00 0.129050464147D-02 0.000000000000D+00  5 -1 1 25 23 21 0 0.13136475D-01 0.61068477D-01 0.28103230D+05 0.28103230D+05 0.28103230D+05 0.12178867D+01  1  2  2  1  5  1       -1 0.118365611185D+00 0.100000000000D+01
-.272246281399D-04 0.000000000000D+00 -.190219071363D-05 0.129050464147D-02 0.000000000000D+00  5 -1 1 25 23 21 2 0.13136475D-01 0.61068477D-01 0.28103230D+05 0.28103230D+05 0.28103230D+05 0.12178867D+01  1  2  3  1  5  1       -1 -.964957625798D-02 0.100000000000D+01
0.340548019925D-04 0.000000000000D+00 0.000000000000D+00 0.129050464147D-02 0.000000000000D+00  5 -1 1 25 23 21 2 0.13136475D-01 0.61068477D-01 0.28103230D+05 0.28103230D+05 0.28103230D+05 0.12178867D+01  1  2 15  1  5  1       -1 0.120704829131D-01 0.100000000000D+01
0.256287708053D-03 0.000000000000D+00 0.000000000000D+00 0.129050464147D-02 0.000000000000D+00  5 -1 1 25 23 21 2 0.20046342D-01 0.61068477D-01 0.45050161D+05 0.45050161D+05 0.45050161D+05 0.11967917D+01  1  2 12  1  5  1       -1 0.450239240719D-01 0.100000000000D+01
-.373890565422D-03 0.000000000000D+00 0.000000000000D+00 0.129050464147D-02 0.000000000000D+00  5 -1 1 25 23 21 2 0.13136475D-01 0.61068477D-01 0.28103230D+05 0.28103230D+05 0.28103230D+05 0.12178867D+01  1  2  4  1  5  1       -1 -.132522857783D+00 0.100000000000D+01
-.437112035311D-03 0.000000000000D+00 -.169414413734D-03 0.129050464147D-02 0.000000000000D+00  5 -1 1 25 23 21 2 0.21801045D-01 0.61068477D-01 0.28103230D+05 0.28103230D+05 0.28103230D+05 0.12178867D+01  1  2  5  1  5  1       -1 -.691808847652D-01 0.100000000000D+01
0.479690013284D-03 0.000000000000D+00 0.149782246142D-03 0.129050464147D-02 0.000000000000D+00  5 -1 1 25 23 21 2 0.13136475D-01 0.61068477D-01 0.28103230D+05 0.28103230D+05 0.28103230D+05 0.12178867D+01  1  2  6  1  5  1       -1 0.170022721324D+00 0.100000000000D+01
0.127058153722D-04 0.000000000000D+00 0.000000000000D+00 0.129050464147D-02 0.000000000000D+00  5 21 1 25 23 1 2 0.20046342D-01 0.61068477D-01 0.45050161D+05 0.45050161D+05 0.45050161D+05 0.11967917D+01  1  2 12  3  5  1       -1 0.280509362837D-01 0.100000000000D+01
-.171486705760D-04 0.000000000000D+00 -.965159387762D-05 0.129050464147D-02 0.000000000000D+00  5 21 1 25 23 1 2 0.21801045D-01 0.61068477D-01 0.28103230D+05 0.28103230D+05 0.28103230D+05 0.12178867D+01  1  2  5  3  5  1       -1 -.337574403715D-01 0.100000000000D+01
  </mgrwgt>
  </event>
  <event>
  5     66 0.43907321E-03 0.12391159E+03 0.75467711E-02 0.12220247E+00
       21 -1    0    0  502  501 0.00000000E+00 0.00000000E+00 0.51286078E+02 0.51291562E+02 0.75000000E+00 0.0000E+00 0.9000E+01
        1 -1    0    0  501    0 0.00000000E+00 0.00000000E+00 -.35528563E+03 0.35528577E+03 0.32000000E+00 0.0000E+00 0.9000E+01
       25  1    1    2    0    0 -.70571974E+02 -.32563815E+01 -.16750477E+03 0.22062152E+03 0.12500000E+03 0.0000E+00 0.9000E+01
       23  1    1    2    0    0 0.51728186E+02 0.49581481E+01 -.10061973E+03 0.14539591E+03 0.91188000E+02 0.0000E+00 0.9000E+01
        1  1    1    2  502    0 0.18843787E+02 -.17017666E+01 -.35875053E+02 0.40559908E+02 0.32000000E+00 0.0000E+00 0.9000E+01
#aMCatNLO 2  0  0  1  2 0.18920474D+02 0.00000000D+00  -5  5  0 0.00000000D+00 0.00000000D+00 0.00000000D+00 0.00000000D+00 0.00000000D+00
  <mgrwgt>
 0.4119686840D-01    1    2    0
 0.124217577286708D+03 0.000000000000000D+00 0.000000000000000D+00 0.124217577286708D+03
 0.124217577286708D+03 0.000000000000000D+00 0.000000000000000D+00 -.124217577286708D+03
 0.138929160010480D+03 -.598633489785749D+02 -.422346838987516D+01 -.865177814363730D+01
 0.109505994562935D+03 0.598633489785749D+02 0.422346838987516D+01 0.865177814363730D+01
 0.000000000000000D+00 0.000000000000000D+00 -.000000000000000D+00 -.000000000000000D+00
 0.130537985886802D+03 0.000000000000000D+00 0.000000000000000D+00 0.130537985886802D+03
 0.139591677738038D+03 0.000000000000000D+00 0.000000000000000D+00 -.139591677738038D+03
 0.143843181087376D+03 -.705719736141856D+02 -.325638150215336D+01 -.865177814363730D+01
 0.105311410184753D+03 0.517281864527501D+02 0.495814807806299D+01 0.865177814363730D+01
 0.209750723527122D+02 0.188437871614356D+02 -.170176657590963D+01 -.905369185123631D+01
0.284114542250D-05 0.000000000000D+00 0.000000000000D+00 0.205257570516D-02 0.443438666074D-06  5 21 1 25 23 1 2 0.78905264D-02 0.54659260D-01 0.17883532D+05 0.17883532D+05 0.17883532D+05 0.12392100D+01  1  2  1  3  5  1       -1 0.411968683967D-01 0.100000000000D+01
  </mgrwgt>
  </event>
  <event>
  4     66 0.43907321E-03 0.65993899E+02 0.75467711E-02 0.11718361E+00
       -1 -1    0    0    0  501 0.00000000E+00 0.00000000E+00 0.23540186E+02 0.23542361E+02 0.32000000E+00 0.0000E+00 0.9000E+01
        1 -1    0    0  501    0 0.00000000E+00 0.00000000E+00 -.13776863E+04 0.13776863E+04 0.32000000E+00 0.0000E+00 0.9000E+01
       25  1    1    2    0    0 0.69520647E+02 0.10769153E+02 -.22906525E+03 0.27026835E+03 0.12500000E+03 0.0000E+00 0.9000E+01
       23  1    1    2    0    0 -.69520647E+02 -.10769153E+02 -.11250809E+04 0.11309603E+04 0.91188000E+02 0.0000E+00 0.9000E+01
#aMCatNLO 1  0  0  1  2 0.82025261D+02 0.00000000D+00  -5  5  0 0.00000000D+00 0.00000000D+00 0.00000000D+00 0.00000000D+00 0.00000000D+00
  <mgrwgt>
 0.1006327539D+00    9    2    0
 0.180090371708991D+03 0.000000000000000D+00 0.000000000000000D+00 0.180090371708991D+03
 0.180090371708991D+03 0.000000000000000D+00 0.000000000000000D+00 -.180090371708991D+03
 0.190237705776095D+03 0.695206473782011D+02 0.107691531866723D+02 0.124965153649767D+03
 0.169943037641888D+03 -.695206473782011D+02 -.107691531866723D+02 -.124965153649767D+03
 0.000000000000000D+00 -.000000000000000D+00 0.000000000000000D+00 0.000000000000000D+00
 0.246125158752818D+03 0.000000000000000D+00 0.000000000000000D+00 0.246125158752818D+03
 0.212085409697926D+03 0.000000000000000D+00 0.000000000000000D+00 -.212085409697926D+03
 0.203371235764773D+03 0.978784044818712D+02 -.232031861145037D+02 0.124965153649767D+03
 0.166031405468452D+03 -.453151971324153D+02 -.397670660216454D+02 -.124965153649767D+03
 0.888079272175186D+02 -.525632073494559D+02 0.629702521361490D+02 0.340397490548917D+02
0.430534620095D-03 0.000000000000D+00 0.000000000000D+00 0.890310716745D-03 0.000000000000D+00  5 -1 1 25 23 21 0 0.36217373D-02 0.21195191D+00 0.16719482D+05 0.16719482D+05 0.16719482D+05 0.12424850D+01  1  2  2  1  5  1       -1 0.105387911703D+00 0.100000000000D+01
-.207267303940D-04 0.000000000000D+00 -.165336630353D-05 0.890310716745D-03 0.000000000000D+00  5 -1 1 25 23 21 2 0.36217373D-02 0.21195191D+00 0.16719482D+05 0.16719482D+05 0.16719482D+05 0.12424850D+01  1  2  3  1  5  1       -1 -.783241773463D-02 0.100000000000D+01
0.294432707246D-04 0.000000000000D+00 0.000000000000D+00 0.890310716745D-03 0.000000000000D+00  5 -1 1 25 23 21 2 0.36217373D-02 0.21195191D+00 0.16719482D+05 0.16719482D+05 0.16719482D+05 0.12424850D+01  1  2 15  1  5  1       -1 0.111263084628D-01 0.100000000000D+01
0.740297150518D-04 0.000000000000D+00 0.000000000000D+00 0.890310716745D-03 0.000000000000D+00  5 -1 1 25 23 21 2 0.51769947D-02 0.21195191D+00 0.30939047D+05 0.30939047D+05 0.30939047D+05 0.12134960D+01  1  2 12  1  5  1       -1 0.157741142341D-01 0.100000000000D+01
-.219131082700D-03 0.000000000000D+00 0.000000000000D+00 0.890310716745D-03 0.000000000000D+00  5 -1 1 25 23 21 2 0.36217373D-02 0.21195191D+00 0.16719482D+05 0.16719482D+05 0.16719482D+05 0.12424850D+01  1  2  4  1  5  1       -1 -.828073770306D-01 0.100000000000D+01
-.214366413432D-03 0.000000000000D+00 -.151592965155D-03 0.890310716745D-03 0.000000000000D+00  5 -1 1 25 23 21 2 0.59043396D-02 0.21195191D+00 0.16719482D+05 0.16719482D+05 0.16719482D+05 0.12424850D+01  1  2  5  1  5  1       -1 -.394207585808D-01 0.100000000000D+01
0.271804482690D-03 0.000000000000D+00 0.135130474441D-03 0.890310716745D-03 0.000000000000D+00  5 -1 1 25 23 21 2 0.36217373D-02 0.21195191D+00 0.16719482D+05 0.16719482D+05 0.16719482D+05 0.12424850D+01  1  2  6  1  5  1       -1 0.102712111853D+00 0.100000000000D+01
0.324581796109D-05 0.000000000000D+00 0.000000000000D+00 0.890310716745D-03 0.000000000000D+00  5 21 1 25 23 1 2 0.51769947D-02 0.21195191D+00 0.30939047D+05 0.30939047D+05 0.30939047D+05 0.12134960D+01  1  2 12  3  5  1       -1 0.119135410650D-01 0.100000000000D+01
-.520942801953D-05 0.000000000000D+00 -.839503734724D-05 0.890310716745D-03 0.000000000000D+00  5 21 1 25 23 1 2 0.59043396D-02 0.21195191D+00 0.16719482D+05 0.16719482D+05 0.16719482D+05 0.12424850D+01  1  2  5  3  5  1       -1 -.162206801192D-01 0.100000000000D+01
  </mgrwgt>
  </event>
  <event>
  5     66 0.43907321E-03 0.15145095E+03 0.75467711E-02 0.11606695E+00
       21 -1    0    0  502  501 0.00000000E+00 0.00000000E+00 0.31909915E+02 0.31918727E+02 0.75000000E+00 0.0000E+00 0.9000E+01
        1 -1    0    0  501    0 0.00000000E+00 0.00000000E+00 -.13771577E+04 0.13771577E+04 0.32000000E+00 0.0000E+00 0.9000E+01
       25  1    1    2    0    0 0.31726248E+02 0.70672359E+02 -.70479891E+03 0.71997753E+03 0.12500000E+03 0.0000E+00 0.9000E+01
       23  1    1    2    0    0 -.89646308E+02 -.10077466E+03 -.57113068E+03 0.59388340E+03 0.91188000E+02 0.0000E+00 0.9000E+01
        1  1    1    2  502    0 0.57920060E+02 0.30102302E+02 -.69318174E+02 0.95215511E+02 0.32000000E+00 0.0000E+00 0.9000E+01
#aMCatNLO 2  0  0  1  2 0.65275431D+02 0.00000000D+00  -5  5  0 0.00000000D+00 0.00000000D+00 0.00000000D+00 0.00000000D+00 0.00000000D+00
  <mgrwgt>
 0.3732767068D-01    2    2    0
 0.153275363438270D+03 0.000000000000000D+00 0.000000000000000D+00 0.153275363438270D+03
 0.153275363438270D+03 0.000000000000000D+00 0.000000000000000D+00 -.153275363438270D+03
 0.165197939402254D+03 0.610726595529427D+02 0.859243204717242D+02 -.235053310836819D+02
 0.141352787474286D+03 -.610726595529427D+02 -.859243204717242D+02 0.235053310836819D+02
 0.000000000000000D+00 0.000000000000000D+00 0.000000000000000D+00 0.000000000000000D+00
 0.263705101999887D+03 0.000000000000000D+00 0.000000000000000D+00 0.263705101999887D+03
 0.166667647526609D+03 0.000000000000000D+00 0.000000000000000D+00 -.166667647526609D+03
 0.148924939741492D+03 0.317262481955631D+02 0.706723585504759D+02 -.235053310836819D+02
 0.164498464051722D+03 -.896463077568492D+02 -.100774660741610D+03 0.235053310836819D+02
 0.116949345733282D+03 0.579200595612860D+02 0.301023021911341D+02 0.970374544732780D+02
-.207322658304D-04 0.000000000000D+00 0.000000000000D+00 0.166581523633D-02 0.000000000000D+00  5 21 1 25 23 1 2 0.49567194D-02 0.19484632D+00 0.35183286D+05 0.35183286D+05 0.35183286D+05 0.12077004D+01  1  2 13  3  5  1       -1 -.961631657017D-01 0.100000000000D+01
0.336249258067D-04 0.000000000000D+00 0.000000000000D+00 0.166581523633D-02 0.234004593963D-06  5 21 1 25 23 1 2 0.49098923D-02 0.21187083D+00 0.35183286D+05 0.35183286D+05 0.35183286D+05 0.12077004D+01  1  2  1  3  5  1       -1 0.133490836379D+00 0.100000000000D+01
  </mgrwgt>
  </event>
  <event>
  4     66 0.43907321E-03 0.17404436E+03 0.75467711E-02 0.11736864E+00
       -3 -1    0    0    0  501 0.00000000E+00 0.00000000E+00 0.74061145E+02 0.74062833E+02 0.50000000E+00 0.0000E+00 0.9000E+01
        3 -1    0    0  501    0 0.00000000E+00 0.00000000E+00 -.54833910E+03 0.54833933E+03 0.50000000E+00 0.0000E+00 0.9000E+01
       25  1    1    2    0    0 -.91890654E+02 -.99938318E+02 -.40447160E+03 0.44458277E+03 0.12500000E+03 0.0000E+00 0.9000E+01
       23  1    1    2    0    0 0.91890654E+02 0.99938318E+02 -.69806358E+02 0.17781940E+03 0.91188000E+02 0.0000E+00 0.9000E+01
#aMCatNLO 1  0  0  2  2 0.16289680D-01 0.00000000D+00  -5  5  0 0.00000000D+00 0.00000000D+00 0.00000000D+00 0.00000000D+00 0.00000000D+00
  <mgrwgt>
 0.1476071237D-02    6    2    0
 0.201522252061108D+03 0.000000000000000D+00 0.000000000000000D+00 0.201522252061108D+03
 0.201522252061108D+03 0.000000000000000D+00 0.000000000000000D+00 -.201522252061108D+03
 0.210590417711846D+03 -.918906538267712D+02 -.999383178594165D+02 -.101448333622434D+03
 0.192454086410369D+03 0.918906538267712D+02 0.999383178594165D+02 0.101448333622434D+03
 0.000000000000000D+00 -.000000000000000D+00 0.000000000000000D+00 0.000000000000000D+00
 0.201534332258695D+03 0.000000000000000D+00 0.000000000000000D+00 0.201534332258695D+03
 0.201527743801823D+03 0.000000000000000D+00 0.000000000000000D+00 -.201527743801823D+03
 0.210587478518333D+03 -.918822772429445D+02 -.999398261084703D+02 -.101448333622434D+03
 0.192457025933070D+03 0.918983091197655D+02 0.999369394826635D+02 0.101448333622434D+03
 0.175716091154112D-01 -.160318768210187D-01 0.288662580679212D-02 0.658845687183618D-02
0.570282789092D-04 0.000000000000D+00 0.000000000000D+00 0.112401773825D-02 0.000000000000D+00  5 -3 3 25 23 21 0 0.11394170D-01 0.84360009D-01 0.30291439D+05 0.30291439D+05 0.30291439D+05 0.12144580D+01  1  2  2  2  5  2        3 0.108106504446D-02 0.100000000000D+01
-.308546149219D-05 0.000000000000D+00 -.219003606902D-06 0.112401773825D-02 0.000000000000D+00  5 -3 3 25 23 21 2 0.11394170D-01 0.84360009D-01 0.30291439D+05 0.30291439D+05 0.30291439D+05 0.12144580D+01  1  2  3  2  5  2        3 -.862673938575D-04 0.100000000000D+01
0.391971016187D-05 0.000000000000D+00 0.000000000000D+00 0.112401773825D-02 0.000000000000D+00  5 -3 3 25 23 21 2 0.11394170D-01 0.84360009D-01 0.30291439D+05 0.30291439D+05 0.30291439D+05 0.12144580D+01  1  2 15  2  5  2        3 0.109592416304D-03 0.100000000000D+01
-.539880815797D-01 0.000000000000D+00 0.000000000000D+00 0.112401773825D-02 0.000000000000D+00  5 -3 3 25 23 21 2 0.11394170D-01 0.84360009D-01 0.30291439D+05 0.30291439D+05 0.30291439D+05 0.12144580D+01  1  2  4  2  5  2        3 -.150946985047D+01 0.100000000000D+01
0.539880817395D-01 0.000000000000D+00 0.000000000000D+00 0.112401773825D-02 0.333202840193D+02  5 -3 3 25 23 21 2 0.11394853D-01 0.84362308D-01 0.30294292D+05 0.30294292D+05 0.30294292D+05 0.12144537D+01  1  2 11  2  5  2        3 0.150922452558D+01 0.100000000000D+01
0.117580613028D-05 0.000000000000D+00 0.000000000000D+00 0.112401773825D-02 0.170252587338D-03  5 -3 21 25 23 -3 2 0.11394853D-01 0.84362308D-01 0.30294292D+05 0.30294292D+05 0.30294292D+05 0.12144537D+01  1  2 11  4  5  2        3 0.617006056499D-03 0.100000000000D+01
  </mgrwgt>
  </event>
  <event>
  4     66 0.43907321E-03 0.12863418E+03 0.75467711E-02 0.11676049E+00
       -1 -1    0    0    0  501 0.00000000E+00 0.00000000E+00 0.19544086E+03 0.19544113E+03 0.32000000E+00 0.0000E+00 0.9000E+01
        1 -1    0    0  501    0 0.00000000E+00 0.00000000E+00 -.13947512E+03 0.13947549E+03 0.32000000E+00 0.0000E+00 0.9000E+01
       25  1    1    2    0    0 0.89320430E+02 0.80703525E+02 0.60630066E+02 0.18382656E+03 0.12500000E+03 0.0000E+00 0.9000E+01
       23  1    1    2    0    0 -.89320430E+02 -.80703525E+02 -.46643223E+01 0.15109006E+03 0.91188000E+02 0.0000E+00 0.9000E+01
#aMCatNLO 1  0  0  2  1 0.34044710D+02 0.00000000D+00  -5  5  0 0.00000000D+00 0.00000000D+00 0.00000000D+00 0.00000000D+00 0.00000000D+00
  <mgrwgt>
 0.1581563667D+00    9    2    0
 0.165103735593341D+03 0.000000000000000D+00 0.000000000000000D+00 0.165103735593341D+03
 0.165103735593341D+03 0.000000000000000D+00 0.000000000000000D+00 -.165103735593341D+03
 0.176172153624178D+03 0.893204299763160D+02 0.807035249727381D+02 0.303385820103999D+02
 0.154035317562503D+03 -.893204299763160D+02 -.807035249727381D+02 -.303385820103999D+02
 0.000000000000000D+00 0.000000000000000D+00 0.000000000000000D+00 -.000000000000000D+00
 0.174453635379835D+03 0.000000000000000D+00 0.000000000000000D+00 0.174453635379835D+03
 0.200170138492916D+03 0.000000000000000D+00 0.000000000000000D+00 -.200170138492916D+03
 0.164801181995609D+03 0.779598077076562D+02 0.673518255946584D+02 0.303385820103999D+02
 0.167156671178817D+03 -.100021973113632D+03 -.932806341725720D+02 -.303385820103999D+02
 0.426659206983258D+02 0.220621654059761D+02 0.259288085779136D+02 -.257165031130807D+02
0.478257849014D-03 0.000000000000D+00 0.000000000000D+00 0.156816418081D-02 0.000000000000D+00  5 -1 1 25 23 21 0 0.30067874D-01 0.21457759D-01 0.26334512D+05 0.26334512D+05 0.26334512D+05 0.12208836D+01  1  2  2  2  5  2        1 0.111035151817D+00 0.100000000000D+01
-.265602608301D-04 0.000000000000D+00 -.183663606840D-05 0.156816418081D-02 0.000000000000D+00  5 -1 1 25 23 21 2 0.30067874D-01 0.21457759D-01 0.26334512D+05 0.26334512D+05 0.26334512D+05 0.12208836D+01  1  2  3  2  5  2        1 -.919134872432D-02 0.100000000000D+01
0.329902895127D-04 0.000000000000D+00 0.000000000000D+00 0.156816418081D-02 0.000000000000D+00  5 -1 1 25 23 21 2 0.30067874D-01 0.21457759D-01 0.26334512D+05 0.26334512D+05 0.26334512D+05 0.12208836D+01  1  2 15  2  5  2        1 0.114165014179D-01 0.100000000000D+01
0.817109707192D-03 0.000000000000D+00 0.000000000000D+00 0.156816418081D-02 0.000000000000D+00  5 -1 1 25 23 21 2 0.30067874D-01 0.26529283D-01 0.32473788D+05 0.32473788D+05 0.32473788D+05 0.12113033D+01  1  2 12  2  5  2        1 0.213503595589D+00 0.100000000000D+01
-.831343186951D-03 0.000000000000D+00 0.000000000000D+00 0.156816418081D-02 0.000000000000D+00  5 -1 1 25 23 21 2 0.30067874D-01 0.21457759D-01 0.26334512D+05 0.26334512D+05 0.26334512D+05 0.12208836D+01  1  2  4  2  5  2        1 -.287691645415D+00 0.100000000000D+01
-.147275291231D-02 0.000000000000D+00 -.339838451727D-03 0.156816418081D-02 0.000000000000D+00  5 -1 1 25 23 21 2 0.30067874D-01 0.27335702D-01 0.26334512D+05 0.26334512D+05 0.26334512D+05 0.12208836D+01  1  2  5  2  5  2        1 -.375299706878D+00 0.100000000000D+01
0.151998690557D-02 0.000000000000D+00 0.330116068396D-03 0.156816418081D-02 0.000000000000D+00  5 -1 1 25 23 21 2 0.30067874D-01 0.21457759D-01 0.26334512D+05 0.26334512D+05 0.26334512D+05 0.12208836D+01  1  2  6  2  5  2        1 0.526001223966D+00 0.100000000000D+01
0.244600967216D-04 0.000000000000D+00 0.000000000000D+00 0.156816418081D-02 0.000000000000D+00  5 -1 21 25 23 -1 2 0.30067874D-01 0.26529283D-01 0.32473788D+05 0.32473788D+05 0.32473788D+05 0.12113033D+01  1  2 12  4  5  2        1 0.452017377447D-01 0.100000000000D+01
-.432716288718D-04 0.000000000000D+00 -.112315849610D-04 0.156816418081D-02 0.000000000000D+00  5 -1 21 25 23 -1 2 0.30067874D-01 0.27335702D-01 0.26334512D+05 0.26334512D+05 0.26334512D+05 0.12208836D+01  1  2  5  4  5  2        1 -.768191428239D-01 0.100000000000D+01
  </mgrwgt>
  </event>
  <event>
  5     66 -.43907321E-03 0.11704372E+03 0.75467711E-02 0.12321154E+00
       -1 -1    0    0    0  502 0.00000000E+00 0.00000000E+00 0.11900772E+02 0.11905073E+02 0.32000000E+00 0.0000E+00 0.9000E+01
        1 -1    0    0  501    0 0.00000000E+00 0.00000000E+00 -.14989479E+04 0.14989479E+04 0.32000000E+00 0.0000E+00 0.9000E+01
       25  1    1    2    0    0 0.51496511E+02 -.95876985E+01 -.57131757E+03 0.58717338E+03 0.12500000E+03 0.0000E+00 0.9000E+01
       23  1    1    2    0    0 -.34616500E+02 0.18380039E+02 -.82659225E+03 0.83252995E+03 0.91188000E+02 0.0000E+00 0.9000E+01
       21  1    1    2  501  502 -.16880011E+02 -.87923406E+01 -.89137313E+02 0.91149674E+02 0.75000000E+00 0.0000E+00 0.9000E+01
#aMCatNLO 2  0  0  1  2 0.19032605D+02 0.00000000D+00  -5  5  0 0.00000000D+00 0.00000000D+00 0.00000000D+00 0.00000000D+00 0.00000000D+00
  <mgrwgt>
 -.3819562583D-01    2    2    0
 0.123534875428442D+03 0.000000000000000D+00 0.000000000000000D+00 0.123534875428442D+03
 0.123534875428442D+03 0.000000000000000D+00 0.000000000000000D+00 -.123534875428442D+03
 0.138327760090867D+03 0.419657097852141D+02 -.145520347692667D+02 0.392005956339154D+02
 0.108741990766017D+03 -.419657097852141D+02 0.145520347692667D+02 -.392005956339154D+02
 0.000000000000000D+00 -.000000000000000D+00 -.000000000000000D+00 0.000000000000000D+00
 0.135334202633682D+03 0.000000000000000D+00 0.000000000000000D+00 0.135334202633682D+03
 0.131821570185337D+03 0.000000000000000D+00 0.000000000000000D+00 -.131821570185337D+03
 0.141086857426563D+03 0.514965113139791D+02 -.958769852148523D+01 0.392005956339154D+02
 0.106714881527413D+03 -.346164998330574D+02 0.183800390822235D+02 -.392005956339154D+02
 0.193540338650426D+02 -.168800114809217D+02 -.879234056073825D+01 0.351263244834486D+01
-.204418551043D-03 0.000000000000D+00 0.000000000000D+00 0.191487378989D-02 0.000000000000D+00  5 -1 1 25 23 21 2 0.18826407D-02 0.21609924D+00 0.16105935D+05 0.16105935D+05 0.16105935D+05 0.12443158D+01  1  2 13  1  5  1       -1 -.191899850715D+00 0.100000000000D+01
0.181171360827D-03 0.000000000000D+00 0.000000000000D+00 0.191487378989D-02 0.439459904759D-04  5 -1 1 25 23 21 2 0.18311216D-02 0.23059513D+00 0.16105935D+05 0.16105935D+05 0.16105935D+05 0.12443158D+01  1  2  1  1  5  1       -1 0.153704224889D+00 0.100000000000D+01
  </mgrwgt>
  </event>
  <event>
  4     66 0.43907321E-03 0.11078681E+03 0.75467711E-02 0.11290437E+00
       -3 -1    0    0    0  501 0.00000000E+00 0.00000000E+00 0.10844252E+04 0.10844253E+04 0.50000000E+00 0.0000E+00 0.9000E+01
        3 -1    0    0  501    0 0.00000000E+00 0.00000000E+00 -.18442576E+02 0.18449352E+02 0.50000000E+00 0.0000E+00 0.9000E+01
       25  1    1    2    0    0 0.16586400E+02 -.17336968E+02 0.92213164E+03 0.93087456E+03 0.12500000E+03 0.0000E+00 0.9000E+01
       23  1    1    2    0    0 -.16586400E+02 0.17336968E+02 0.14385095E+03 0.17200008E+03 0.91188000E+02 0.0000E+00 0.9000E+01
#aMCatNLO 1  0  0  1  2 0.17337172D+03 0.00000000D+00  -5  5  0 0.00000000D+00 0.00000000D+00 0.00000000D+00 0.00000000D+00 0.00000000D+00
  <mgrwgt>
 0.4769373471D-01    3    2    0
 0.141433353550717D+03 0.000000000000000D+00 0.000000000000000D+00 0.141433353550717D+03
 0.141433353550717D+03 0.000000000000000D+00 0.000000000000000D+00 -.141433353550717D+03
 0.154354189535453D+03 0.165864001825750D+02 -.173369680926794D+02 0.873185930571686D+02
 0.128512517565981D+03 -.165864001825750D+02 0.173369680926794D+02 -.873185930571686D+02
 0.000000000000000D+00 -.000000000000000D+00 0.000000000000000D+00 -.000000000000000D+00
 0.208913263917931D+03 0.000000000000000D+00 0.000000000000000D+00 0.208913263917931D+03
 0.340524564091215D+03 0.000000000000000D+00 0.000000000000000D+00 -.340524564091215D+03
 0.193652603175831D+03 0.111258560836612D+03 -.432819438548976D+02 0.873185930571686D+02
 0.138117387817986D+03 0.559479001999562D+02 -.254111066197493D+01 -.873185930571686D+02
 0.217667837015329D+03 -.167206461036568D+03 0.458230545168726D+02 -.131611300173284D+03
0.141047093435D-02 0.000000000000D+00 0.000000000000D+00 0.125553500733D-02 0.000000000000D+00  5 -3 3 25 23 21 0 0.16683517D+00 0.28378495D-02 0.12273717D+05 0.12273717D+05 0.12273717D+05 0.12578778D+01  1  2  2  1  5  1       -3 0.464374396443D-01 0.100000000000D+01
-.726770055338D-04 0.000000000000D+00 -.541657977341D-05 0.125553500733D-02 0.000000000000D+00  5 -3 3 25 23 21 2 0.16683517D+00 0.28378495D-02 0.12273717D+05 0.12273717D+05 0.12273717D+05 0.12578778D+01  1  2  3  1  5  1       -3 -.378597760190D-02 0.100000000000D+01
0.967933034452D-04 0.000000000000D+00 0.000000000000D+00 0.125553500733D-02 0.000000000000D+00  5 -3 3 25 23 21 2 0.16683517D+00 0.28378495D-02 0.12273717D+05 0.12273717D+05 0.12273717D+05 0.12578778D+01  1  2 15  1  5  1       -3 0.504227267161D-02 0.100000000000D+01
  </mgrwgt>
  </event>
  <event>
  5     66 0.43907321E-03 0.11299327E+03 0.75467711E-02 0.11961297E+00
       -1 -1    0    0    0  502 0.00000000E+00 0.00000000E+00 0.95160208E+02 0.95160746E+02 0.32000000E+00 0.0000E+00 0.9000E+01
        1 -1    0    0  501    0 0.00000000E+00 0.00000000E+00 -.26459399E+03 0.26459419E+03 0.32000000E+00 0.0000E+00 0.9000E+01
       25  1    1    2    0    0 -.36957889E+01 0.57345664E+02 -.88056113E+02 0.16334339E+03 0.12500000E+03 0.0000E+00 0.9000E+01
       23  1    1    2    0    0 -.38882966E+02 -.11999054E+01 -.77499249E+02 0.12583604E+03 0.91188000E+02 0.0000E+00 0.9000E+01
       21  1    1    2  501  502 0.42578755E+02 -.56145758E+02 -.38784237E+01 0.70575500E+02 0.75000000E+00 0.0000E+00 0.9000E+01
#aMCatNLO 2  0  0  1  2 0.70464860D+02 0.00000000D+00  -5  5  0 0.00000000D+00 0.00000000D+00 0.00000000D+00 0.00000000D+00 0.00000000D+00
  <mgrwgt>
 0.2144024646D-01    2    2    0
 0.113193275022253D+03 0.000000000000000D+00 0.000000000000000D+00 0.113193275022253D+03
 0.113193275022253D+03 0.000000000000000D+00 0.000000000000000D+00 -.113193275022253D+03
 0.129337671971990D+03 0.208393831621982D+02 0.249927718405127D+02 0.665694045949444D+01
 0.970488780725161D+02 -.208393831621982D+02 -.249927718405127D+02 -.665694045949444D+01
 0.000000000000000D+00 0.000000000000000D+00 -.000000000000000D+00 0.000000000000000D+00
 0.182507066436819D+03 0.000000000000000D+00 0.000000000000000D+00 0.182507066436819D+03
 0.137958374900320D+03 0.000000000000000D+00 0.000000000000000D+00 -.137958374900320D+03
 0.137737064129126D+03 -.369578886104895D+01 0.573456635093218D+02 0.665694045949444D+01
 0.993624224501080D+02 -.388829657038572D+02 -.119990539008015D+01 -.665694045949444D+01
 0.833659547579047D+02 0.425787545649061D+02 -.561457581192417D+02 0.445486915364987D+02
-.222374420338D-04 0.000000000000D+00 0.000000000000D+00 0.230552887798D-02 0.000000000000D+00  5 -1 1 25 23 21 2 0.15137456D-01 0.33399106D-01 0.23589909D+05 0.23589909D+05 0.23589909D+05 0.12260101D+01  1  2 13  1  5  1       -1 -.135356057655D-01 0.100000000000D+01
0.697109724258D-04 0.000000000000D+00 0.000000000000D+00 0.230552887798D-02 0.424545628649D-05  5 -1 1 25 23 21 2 0.14639922D-01 0.40706362D-01 0.23589909D+05 0.23589909D+05 0.23589909D+05 0.12260101D+01  1  2  1  1  5  1       -1 0.349758522242D-01 0.100000000000D+01
  </mgrwgt>
  </event>
  <event>
  5     66 0.43907321E-03 0.11966031E+03 0.75467711E-02 0.12130113E+00
       -3 -1    0    0    0  501 0.00000000E+00 0.00000000E+00 0.17752925E+03 0.17752995E+03 0.50000000E+00 0.0000E+00 0.9000E+01
        3 -1    0    0  502    0 0.00000000E+00 0.00000000E+00 -.22635504E+03 0.22635559E+03 0.50000000E+00 0.0000E+00 0.9000E+01
       25  1    1    2    0    0 0.26532110E+02 -.66447280E+02 -.55092254E+02 0.15420555E+03 0.12500000E+03 0.0000E+00 0.9000E+01
       23  1    1    2    0    0 -.43863171E+01 0.34549091E+02 0.10513124E+03 0.14345978E+03 0.91188000E+02 0.0000E+00 0.9000E+01
       21  1    1    2  502  501 -.22145793E+02 0.31898189E+02 -.98864768E+02 0.10622022E+03 0.75000000E+00 0.0000E+00 0.9000E+01
#aMCatNLO 2  0  0  2  1 0.38832082D+02 0.00000000D+00  -5  5  0 0.00000000D+00 0.00000000D+00 0.00000000D+00 0.00000000D+00 0.00000000D+00
  <mgrwgt>
 0.5492246983D-02    2    2    0
 0.145424218939116D+03 0.000000000000000D+00 0.000000000000000D+00 0.145424218939116D+03
 0.145424218939116D+03 0.000000000000000D+00 0.000000000000000D+00 -.145424218939116D+03
 0.157990469439420D+03 0.142585158549987D+02 -.487687337840703D+02 -.821845104895057D+02
 0.132857968438812D+03 -.142585158549987D+02 0.487687337840703D+02 0.821845104895057D+02
 0.000000000000000D+00 -.000000000000000D+00 0.000000000000000D+00 -.000000000000000D+00
 0.149817185815112D+03 0.000000000000000D+00 0.000000000000000D+00 0.149817185815112D+03
 0.268222233056018D+03 0.000000000000000D+00 0.000000000000000D+00 -.268222233056018D+03
 0.165826679514236D+03 0.265321096417237D+02 -.664472800969081D+02 -.821845104895057D+02
 0.127602604016832D+03 -.438631707211111D+01 0.345490906684911D+02 0.821845104895057D+02
 0.124610135340062D+03 -.221457925696126D+02 0.318981894284170D+02 -.118405047240906D+03
-.120754066059D-02 0.000000000000D+00 0.000000000000D+00 0.130953172957D-02 0.000000000000D+00  5 -3 3 25 23 21 2 0.26511237D-01 0.34884959D-01 0.19666230D+05 0.19666230D+05 0.19666230D+05 0.12346315D+01  1  2 13  2  5  2        3 -.470179061162D-01 0.100000000000D+01
0.141912229352D-02 0.000000000000D+00 0.000000000000D+00 0.130953172957D-02 0.871289388044D-05  5 -3 3 25 23 21 2 0.27312087D-01 0.34823691D-01 0.19666230D+05 0.19666230D+05 0.19666230D+05 0.12346315D+01  1  2  1  2  5  2        3 0.525101530994D-01 0.100000000000D+01
  </mgrwgt>
  </event>
  <event>
  4     66 0.43907321E-03 0.80569340E+02 0.75467711E-02 0.12311386E+00
       -3 -1    0    0    0  501 0.00000000E+00 0.00000000E+00 0.62042273E+03 0.62042293E+03 0.50000000E+00 0.0000E+00 0.9000E+01
        3 -1    0    0  501    0 0.00000000E+00 0.00000000E+00 -.24306217E+02 0.24311359E+02 0.50000000E+00 0.0000E+00 0.9000E+01
       25  1    1    2    0    0 -.77171777E+01 -.45291461E+02 0.24240159E+03 0.27657622E+03 0.12500000E+03 0.0000E+00 0.9000E+01
       23  1    1    2    0    0 0.77171777E+01 0.45291461E+02 0.35371492E+03 0.36815808E+03 0.91188000E+02 0.0000E+00 0.9000E+01
#aMCatNLO 1  0  0  1  2 0.19010634D+02 0.00000000D+00  -5  5  0 0.00000000D+00 0.00000000D+00 0.00000000D+00 0.00000000D+00 0.00000000D+00
  <mgrwgt>
 0.3318371213D-01    9    2    0
 0.122808191850340D+03 0.000000000000000D+00 0.000000000000000D+00 0.122808191850340D+03
 0.122808191850340D+03 0.000000000000000D+00 0.000000000000000D+00 -.122808191850340D+03
 0.137688609324665D+03 -.771717773422125D+01 -.452914605342713D+02 -.349611485545190D+02
 0.107927774376016D+03 0.771717773422125D+01 0.452914605342713D+02 0.349611485545190D+02
 0.000000000000000D+00 0.000000000000000D+00 -.000000000000000D+00 0.000000000000000D+00
 0.136094815525262D+03 0.000000000000000D+00 0.000000000000000D+00 0.136094815525262D+03
 0.130168981504510D+03 0.000000000000000D+00 0.000000000000000D+00 -.130168981504510D+03
 0.136432400951148D+03 -.161047120519981D+02 -.388221118792631D+02 -.349611485545190D+02
 0.109918592885617D+03 0.105153076476246D+01 0.504327085605514D+02 0.349611485545190D+02
 0.199128031930071D+02 0.150531812872356D+02 -.116105966812883D+02 0.592583402075274D+01
0.297932604752D-03 0.000000000000D+00 0.000000000000D+00 0.195930135583D-02 0.000000000000D+00  5 -3 3 25 23 21 0 0.95450062D-01 0.37398290D-02 0.13839696D+05 0.13839696D+05 0.13839696D+05 0.12518284D+01  1  2  2  1  5  1       -3 0.244484438342D-01 0.100000000000D+01
-.165146432639D-04 0.000000000000D+00 -.114413964970D-05 0.195930135583D-02 0.000000000000D+00  5 -3 3 25 23 21 2 0.95450062D-01 0.37398290D-02 0.13839696D+05 0.13839696D+05 0.13839696D+05 0.12518284D+01  1  2  3  1  5  1       -3 -.212369406755D-02 0.100000000000D+01
0.206094755791D-04 0.000000000000D+00 0.000000000000D+00 0.195930135583D-02 0.000000000000D+00  5 -3 3 25 23 21 2 0.95450062D-01 0.37398290D-02 0.13839696D+05 0.13839696D+05 0.13839696D+05 0.12518284D+01  1  2 15  1  5  1       -3 0.265026742167D-02 0.100000000000D+01
0.393028900184D-03 0.000000000000D+00 0.000000000000D+00 0.195930135583D-02 0.000000000000D+00  5 -3 3 25 23 21 2 0.10839177D+00 0.37398290D-02 0.16268744D+05 0.16268744D+05 0.16268744D+05 0.12438225D+01  1  2 12  1  5  1       -3 0.378462206680D-01 0.100000000000D+01
-.365001686719D-03 0.000000000000D+00 0.000000000000D+00 0.195930135583D-02 0.000000000000D+00  5 -3 3 25 23 21 2 0.95450062D-01 0.37398290D-02 0.13839696D+05 0.13839696D+05 0.13839696D+05 0.12518284D+01  1  2  4  1  5  1       -3 -.469372486190D-01 0.100000000000D+01
-.107512224270D-02 0.000000000000D+00 -.242812516399D-03 0.195930135583D-02 0.000000000000D+00  5 -3 3 25 23 21 2 0.11055453D+00 0.37398290D-02 0.13839696D+05 0.13839696D+05 0.13839696D+05 0.12518284D+01  1  2  5  1  5  1       -3 -.989533806687D-01 0.100000000000D+01
0.110148244029D-02 0.000000000000D+00 0.240215768414D-03 0.195930135583D-02 0.000000000000D+00  5 -3 3 25 23 21 2 0.95450062D-01 0.37398290D-02 0.13839696D+05 0.13839696D+05 0.13839696D+05 0.12518284D+01  1  2  6  1  5  1       -3 0.141644702012D+00 0.100000000000D+01
0.782728354884D-05 0.000000000000D+00 0.000000000000D+00 0.195930135583D-02 0.000000000000D+00  5 21 3 25 23 3 2 0.10839177D+00 0.37398290D-02 0.16268744D+05 0.16268744D+05 0.16268744D+05 0.12438225D+01  1  2 12  3  5  1       -3 0.143685180173D-01 0.100000000000D+01
-.224902290128D-04 0.000000000000D+00 -.544593963766D-05 0.195930135583D-02 0.000000000000D+00  5 21 3 25 23 3 2 0.11055453D+00 0.37398290D-02 0.13839696D+05 0.13839696D+05 0.13839696D+05 0.12518284D+01  1  2  5  3  5  1       -3 -.397601164684D-01 0.100000000000D+01
  </mgrwgt>
  </event>
  <event>
  4     66 0.43907321E-03 0.74773158E+02 0.75467711E-02 0.12364440E+00
       -1 -1    0    0    0  501 0.00000000E+00 0.00000000E+00 0.81201363E+02 0.81201993E+02 0.32000000E+00 0.0000E+00 0.9000E+01
        1 -1    0    0  501    0 0.00000000E+00 0.00000000E+00 -.17032155E+03 0.17032185E+03 0.32000000E+00 0.0000E+00 0.9000E+01
       25  1    1    2    0    0 -.59244995E+01 -.34717999E+02 -.19062874E+02 0.13125865E+03 0.12500000E+03 0.0000E+00 0.9000E+01
       23  1    1    2    0    0 0.59244995E+01 0.34717999E+02 -.70057313E+02 0.12026520E+03 0.91188000E+02 0.0000E+00 0.9000E+01
#aMCatNLO 1  0  0  1  2 0.19741648D+02 0.00000000D+00  -5  5  0 0.00000000D+00 0.00000000D+00 0.00000000D+00 0.00000000D+00 0.00000000D+00
  <mgrwgt>
 0.1355109897D+00    9    2    0
 0.117602972081611D+03 0.000000000000000D+00 0.000000000000000D+00 0.117602972081611D+03
 0.117602972081611D+03 0.000000000000000D+00 0.000000000000000D+00 -.117602972081611D+03
 0.133142011033210D+03 -.592449950404539D+01 -.347179990168564D+02 0.293488662789469D+02
 0.102063933130011D+03 0.592449950404539D+01 0.347179990168564D+02 -.293488662789469D+02
 0.000000000000000D+00 -.000000000000000D+00 -.000000000000000D+00 0.000000000000000D+00
 0.159559655268531D+03 0.000000000000000D+00 0.000000000000000D+00 0.159559655268531D+03
 0.120361838949593D+03 0.000000000000000D+00 0.000000000000000D+00 -.120361838949593D+03
 0.131760806552341D+03 0.377768422582903D+01 -.293305863111143D+02 0.293488662789469D+02
 0.104272175945026D+03 0.134816514384785D+02 0.389143219771632D+02 -.293488662789469D+02
 0.438885117207579D+02 -.172593356643075D+02 -.958373566604890D+01 0.391978163189376D+02
0.149472039435D-03 0.000000000000D+00 0.000000000000D+00 0.209758570492D-02 0.000000000000D+00  5 -1 1 25 23 21 0 0.12492589D-01 0.26203387D-01 0.12952741D+05 0.12952741D+05 0.12952741D+05 0.12551539D+01  1  2  2  1  5  1       -1 0.108291749831D+00 0.100000000000D+01
-.829315130297D-05 0.000000000000D+00 -.574011988323D-06 0.209758570492D-02 0.000000000000D+00  5 -1 1 25 23 21 2 0.12492589D-01 0.26203387D-01 0.12952741D+05 0.12952741D+05 0.12952741D+05 0.12551539D+01  1  2  3  1  5  1       -1 -.946561762720D-02 0.100000000000D+01
0.103120000327D-04 0.000000000000D+00 0.000000000000D+00 0.209758570492D-02 0.000000000000D+00  5 -1 1 25 23 21 2 0.12492589D-01 0.26203387D-01 0.12952741D+05 0.12952741D+05 0.12952741D+05 0.12551539D+01  1  2 15  1  5  1       -1 0.117698864660D-01 0.100000000000D+01
0.497401270481D-03 0.000000000000D+00 0.000000000000D+00 0.209758570492D-02 0.000000000000D+00  5 -1 1 25 23 21 2 0.17057477D-01 0.26203387D-01 0.15406876D+05 0.15406876D+05 0.15406876D+05 0.12464996D+01  1  2 12  1  5  1       -1 0.346595025784D+00 0.100000000000D+01
-.490965475273D-03 0.000000000000D+00 0.000000000000D+00 0.209758570492D-02 0.000000000000D+00  5 -1 1 25 23 21 2 0.12492589D-01 0.26203387D-01 0.12952741D+05 0.12952741D+05 0.12952741D+05 0.12551539D+01  1  2  4  1  5  1       -1 -.560377025249D+00 0.100000000000D+01
-.588924884185D-03 0.000000000000D+00 -.683556294010D-04 0.209758570492D-02 0.000000000000D+00  5 -1 1 25 23 21 2 0.17276753D-01 0.26203387D-01 0.12952741D+05 0.12952741D+05 0.12952741D+05 0.12551539D+01  1  2  5  1  5  1       -1 -.405635096097D+00 0.100000000000D+01
0.583585812930D-03 0.000000000000D+00 0.649136847633D-04 0.209758570492D-02 0.000000000000D+00  5 -1 1 25 23 21 2 0.12492589D-01 0.26203387D-01 0.12952741D+05 0.12952741D+05 0.12952741D+05 0.12551539D+01  1  2  6  1  5  1       -1 0.666091809501D+00 0.100000000000D+01
0.197542016393D-04 0.000000000000D+00 0.000000000000D+00 0.209758570492D-02 0.000000000000D+00  5 21 1 25 23 1 2 0.17057477D-01 0.26203387D-01 0.15406876D+05 0.15406876D+05 0.15406876D+05 0.12464996D+01  1  2 12  3  5  1       -1 0.183849273182D+00 0.100000000000D+01
-.223504946172D-04 0.000000000000D+00 -.279451160630D-05 0.209758570492D-02 0.000000000000D+00  5 21 1 25 23 1 2 0.17276753D-01 0.26203387D-01 0.12952741D+05 0.12952741D+05 0.12952741D+05 0.12551539D+01  1  2  5  3  5  1       -1 -.205609016077D+00 0.100000000000D+01
  </mgrwgt>
  </event>
  <event>
  4     66 0.43907321E-03 0.13877593E+03 0.75467711E-02 0.10836740E+00
       -3 -1    0    0    0  501 0.00000000E+00 0.00000000E+00 0.14449153E+03 0.14449239E+03 0.50000000E+00 0.0000E+00 0.9000E+01
        3 -1    0    0  501    0 0.00000000E+00 0.00000000E+00 -.15220420E+03 0.15220502E+03 0.50000000E+00 0.0000E+00 0.9000E+01
       25  1    1    2    0    0 -.64432699E+02 -.57536614E+02 0.47919194E+02 0.15932132E+03 0.12500000E+03 0.0000E+00 0.9000E+01
       23  1    1    2    0    0 0.64432699E+02 0.57536614E+02 -.55631870E+02 0.13737609E+03 0.91188000E+02 0.0000E+00 0.9000E+01
#aMCatNLO 1  0  0  1  2 0.24027659D+03 0.00000000D+00  -5  5  0 0.00000000D+00 0.00000000D+00 0.00000000D+00 0.00000000D+00 0.00000000D+00
  <mgrwgt>
 0.2680787058D-01    5    2    0
 0.148298576636740D+03 0.000000000000000D+00 0.000000000000000D+00 0.148298576636740D+03
 0.148298576636740D+03 0.000000000000000D+00 0.000000000000000D+00 -.148298576636740D+03
 0.160621265130753D+03 -.644326994467663D+02 -.575366142621692D+02 0.520783647348173D+02
 0.135975888142728D+03 0.644326994467663D+02 0.575366142621692D+02 -.520783647348173D+02
 0.000000000000000D+00 0.000000000000000D+00 -.000000000000000D+00 0.000000000000000D+00
 0.458329404439439D+03 0.000000000000000D+00 0.000000000000000D+00 0.458329404439439D+03
 0.244816234770646D+03 0.000000000000000D+00 0.000000000000000D+00 -.244816234770646D+03
 0.240819521467948D+03 -.198831946706737D+03 -.110789356622323D+02 0.520783647348173D+02
 0.140890722978077D+03 -.282600845658681D+02 0.895776535982198D+02 -.520783647348173D+02
 0.321435394764059D+03 0.227092031272606D+03 -.784987179359875D+02 0.213513169668793D+03
0.337166943985D-03 0.000000000000D+00 0.000000000000D+00 0.156600806306D-02 0.000000000000D+00  5 -3 3 25 23 21 0 0.22229595D-01 0.23416161D-01 0.19258757D+05 0.19258757D+05 0.19258757D+05 0.12356358D+01  1  2  2  1  5  1       -3 0.245872879878D-01 0.100000000000D+01
-.186311834185D-04 0.000000000000D+00 -.129480984300D-05 0.156600806306D-02 0.000000000000D+00  5 -3 3 25 23 21 2 0.22229595D-01 0.23416161D-01 0.19258757D+05 0.19258757D+05 0.19258757D+05 0.12356358D+01  1  2  3  1  5  1       -3 -.207437402434D-02 0.100000000000D+01
0.232649875253D-04 0.000000000000D+00 0.000000000000D+00 0.156600806306D-02 0.000000000000D+00  5 -3 3 25 23 21 2 0.22229595D-01 0.23416161D-01 0.19258757D+05 0.19258757D+05 0.19258757D+05 0.12356358D+01  1  2 15  1  5  1       -3 0.259029631748D-02 0.100000000000D+01
0.830767057562D-04 0.000000000000D+00 -.125241800699D-03 0.156600806306D-02 0.000000000000D+00  5 -3 3 25 23 21 2 0.10443994D+00 0.23416161D-01 0.19258757D+05 0.19258757D+05 0.19258757D+05 0.12356358D+01  1  2  5  1  5  1       -3 0.417729400573D-03 0.100000000000D+01
0.135105303160D-04 0.000000000000D+00 -.235160471622D-04 0.156600806306D-02 0.000000000000D+00  5 21 3 25 23 3 2 0.10443994D+00 0.23416161D-01 0.19258757D+05 0.19258757D+05 0.19258757D+05 0.12356358D+01  1  2  5  3  5  1       -3 0.128693089655D-02 0.100000000000D+01
  </mgrwgt>
  </event>
  <event>
  4     66 0.43907321E-03 0.68628742E+02 0.75467711E-02 0.12179805E+00
       -1 -1    0    0    0  501 0.00000000E+00 0.00000000E+00 0.85791337E+02 0.85791934E+02 0.32000000E+00 0.0000E+00 0.9000E+01
        1 -1    0    0  501    0 0.00000000E+00 0.00000000E+00 -.16065030E+03 0.16065062E+03 0.32000000E+00 0.0000E+00 0.9000E+01
       25  1    1    2    0    0 -.34061011E+02 0.16997616E+02 -.16562429E+02 0.13171327E+03 0.12500000E+03 0.0000E+00 0.9000E+01
       23  1    1    2    0    0 0.34061011E+02 -.16997616E+02 -.58296536E+02 0.11472929E+03 0.91188000E+02 0.0000E+00 0.9000E+01
#aMCatNLO 1  0  0  2  1 0.40178804D+02 0.00000000D+00  -5  5  0 0.00000000D+00 0.00000000D+00 0.00000000D+00 0.00000000D+00 0.00000000D+00
  <mgrwgt>
 0.1423407520D+00    9    2    0
 0.117398965277429D+03 0.000000000000000D+00 0.000000000000000D+00 0.117398965277429D+03
 0.117398965277429D+03 0.000000000000000D+00 0.000000000000000D+00 -.117398965277429D+03
 0.132965006764094D+03 -.340610107208951D+02 0.169976158333671D+02 0.246093809029767D+02
 0.101832923790764D+03 0.340610107208951D+02 -.169976158333671D+02 -.246093809029767D+02
 0.000000000000000D+00 -.000000000000000D+00 -.000000000000000D+00 -.000000000000000D+00
 0.130624881119586D+03 0.000000000000000D+00 0.000000000000000D+00 0.130624881119586D+03
 0.154140398339905D+03 0.000000000000000D+00 0.000000000000000D+00 -.154140398339905D+03
 0.130739731668582D+03 -.135680494214664D+02 0.260415791234240D+02 0.246093809029767D+02
 0.107471108652009D+03 0.503263970092010D+02 -.981936792957909D+01 -.246093809029767D+02
 0.465544391388998D+02 -.367583475877346D+02 -.162222111938449D+02 -.235155172203186D+02
0.143624513718D-03 0.000000000000D+00 0.000000000000D+00 0.213207792502D-02 0.000000000000D+00  5 -1 1 25 23 21 0 0.13198738D-01 0.24715502D-01 0.13165540D+05 0.13165540D+05 0.13165540D+05 0.12543332D+01  1  2  2  2  5  2        1 0.102885841531D+00 0.100000000000D+01
-.797405253273D-05 0.000000000000D+00 -.551555949880D-06 0.213207792502D-02 0.000000000000D+00  5 -1 1 25 23 21 2 0.13198738D-01 0.24715502D-01 0.13165540D+05 0.13165540D+05 0.13165540D+05 0.12543332D+01  1  2  3  2  5  2        1 -.898735621038D-02 0.100000000000D+01
0.991850369214D-05 0.000000000000D+00 0.000000000000D+00 0.213207792502D-02 0.000000000000D+00  5 -1 1 25 23 21 2 0.13198738D-01 0.24715502D-01 0.13165540D+05 0.13165540D+05 0.13165540D+05 0.12543332D+01  1  2 15  2  5  2        1 0.111788987330D-01 0.100000000000D+01
0.123448735305D-03 0.000000000000D+00 0.000000000000D+00 0.213207792502D-02 0.000000000000D+00  5 -1 1 25 23 21 2 0.13198738D-01 0.33505434D-01 0.18659162D+05 0.18659162D+05 0.18659162D+05 0.12371578D+01  1  2 12  2  5  2        1 0.938065527247D-01 0.100000000000D+01
-.137850719211D-03 0.000000000000D+00 0.000000000000D+00 0.213207792502D-02 0.000000000000D+00  5 -1 1 25 23 21 2 0.13198738D-01 0.24715502D-01 0.13165540D+05 0.13165540D+05 0.13165540D+05 0.12543332D+01  1  2  4  2  5  2        1 -.155368115813D+00 0.100000000000D+01
-.218915555357D-03 0.000000000000D+00 -.736756249041D-04 0.213207792502D-02 0.000000000000D+00  5 -1 1 25 23 21 2 0.13198738D-01 0.35724626D-01 0.13165540D+05 0.13165540D+05 0.13165540D+05 0.12543332D+01  1  2  5  2  5  2        1 -.156325100495D+00 0.100000000000D+01
0.234683036241D-03 0.000000000000D+00 0.689437492327D-04 0.213207792502D-02 0.000000000000D+00  5 -1 1 25 23 21 2 0.13198738D-01 0.24715502D-01 0.13165540D+05 0.13165540D+05 0.13165540D+05 0.12543332D+01  1  2  6  2  5  2        1 0.264505411091D+00 0.100000000000D+01
0.482098010352D-05 0.000000000000D+00 0.000000000000D+00 0.213207792502D-02 0.000000000000D+00  5 -1 21 25 23 -1 2 0.13198738D-01 0.33505434D-01 0.18659162D+05 0.18659162D+05 0.18659162D+05 0.12371578D+01  1  2 12  4  5  2        1 0.223259588729D-01 0.100000000000D+01
-.757077701342D-05 0.000000000000D+00 -.330285063417D-05 0.213207792502D-02 0.000000000000D+00  5 -1 21 25 23 -1 2 0.13198738D-01 0.35724626D-01 0.13165540D+05 0.13165540D+05 0.13165540D+05 0.12543332D+01  1  2  5  4  5  2        1 -.316813384522D-01 0.100000000000D+01
  </mgrwgt>
  </event>
  <event>
  5     66 0.43907321E-03 0.15672052E+03 0.75467711E-02 0.11216290E+00
       21 -1    0    0  502  501 0.00000000E+00 0.00000000E+00 0.60149112E+02 0.60153787E+02 0.75000000E+00 0.0000E+00 0.9000E+01
        1 -1    0    0  501    0 0.00000000E+00 0.00000000E+00 -.21478389E+04 0.21478390E+04 0.32000000E+00 0.0000E+00 0.9000E+01
       25  1    1    2    0    0 -.36316884E+02 -.40002671E+02 -.73578221E+03 0.74827774E+03 0.12500000E+03 0.0000E+00 0.9000E+01
       23  1    1    2    0    0 0.68465593E+02 0.16985326E+03 -.13003615E+04 0.13163560E+04 0.91188000E+02 0.0000E+00 0.9000E+01
        1  1    1    2  502    0 -.32148709E+02 -.12985059E+03 -.51546112E+02 0.14335906E+03 0.32000000E+00 0.0000E+00 0.9000E+01
#aMCatNLO 2  0  0  1  2 0.13377113D+03 0.00000000D+00  -5  5  0 0.00000000D+00 0.00000000D+00 0.00000000D+00 0.00000000D+00 0.00000000D+00
  <mgrwgt>
 0.1361878948D+00    2    2    0
 0.157270731552509D+03 0.000000000000000D+00 0.000000000000000D+00 0.157270731552509D+03
 0.157270731552509D+03 0.000000000000000D+00 0.000000000000000D+00 -.157270731552509D+03
 0.168890421662426D+03 -.512902932184518D+02 -.100481180285915D+03 0.131077366172250D+02
 0.145651041442593D+03 0.512902932184518D+02 0.100481180285915D+03 -.131077366172250D+02
 0.000000000000000D+00 -.000000000000000D+00 -.000000000000000D+00 0.000000000000000D+00
 0.721660838678882D+03 0.000000000000000D+00 0.000000000000000D+00 0.721660838678882D+03
 0.179025551497518D+03 0.000000000000000D+00 0.000000000000000D+00 -.179025551497518D+03
 0.136806222477907D+03 -.363168844038415D+02 -.400026706189214D+02 0.131077366172250D+02
 0.204999347852878D+03 0.684655934075932D+02 0.169853263248678D+03 -.131077366172250D+02
 0.558880819845616D+03 -.321487090037517D+02 -.129850592629757D+03 0.542635287181363D+03
-.113081064360D-04 0.000000000000D+00 0.000000000000D+00 0.165813176834D-02 0.000000000000D+00  5 21 1 25 23 1 2 0.87485423D-02 0.29028301D+00 0.56294165D+05 0.56294165D+05 0.56294165D+05 0.11872155D+01  1  2 13  3  5  1       -1 -.732820709253D-02 0.100000000000D+01
0.360861802767D-03 0.000000000000D+00 0.000000000000D+00 0.165813176834D-02 0.307177849591D-06  5 21 1 25 23 1 2 0.92540687D-02 0.33043704D+00 0.56294165D+05 0.56294165D+05 0.56294165D+05 0.11872155D+01  1  2  1  3  5  1       -1 0.143516101856D+00 0.100000000000D+01
  </mgrwgt>
  </event>
  <event>
  4     66 0.43907321E-03 0.13714286E+03 0.75467711E-02 0.11102044E+00
       -1 -1    0    0    0  501 0.00000000E+00 0.00000000E+00 0.14286142E+03 0.14286178E+03 0.32000000E+00 0.0000E+00 0.9000E+01
        1 -1    0    0  501    0 0.00000000E+00 0.00000000E+00 -.13815047E+03 0.13815084E+03 0.32000000E+00 0.0000E+00 0.9000E+01
       25  1    1    2    0    0 0.59706146E+02 0.58743259E+02 -.27761551E+02 0.15300751E+03 0.12500000E+03 0.0000E+00 0.9000E+01
       23  1    1    2    0    0 -.59706146E+02 -.58743259E+02 0.32472500E+02 0.12800511E+03 0.91188000E+02 0.0000E+00 0.9000E+01
#aMCatNLO 1  0  0  1  2 0.18133115D+03 0.00000000D+00  -5  5  0 0.00000000D+00 0.00000000D+00 0.00000000D+00 0.00000000D+00 0.00000000D+00
  <mgrwgt>
 0.1311119752D+00    5    2    0
 0.140486566175929D+03 0.000000000000000D+00 0.000000000000000D+00 0.140486566175929D+03
 0.140486566175929D+03 0.000000000000000D+00 0.000000000000000D+00 -.140486566175929D+03
 0.153494480126303D+03 0.597061462595823D+02 0.587432585128259D+02 -.303308606433903D+02
 0.127478652225555D+03 -.597061462595823D+02 -.587432585128259D+02 0.303308606433903D+02
 0.000000000000000D+00 0.000000000000000D+00 0.000000000000000D+00 0.000000000000000D+00
 0.341526629206119D+03 0.000000000000000D+00 0.000000000000000D+00 0.341526629206119D+03
 0.214357632924711D+03 0.000000000000000D+00 0.000000000000000D+00 -.214357632924711D+03
 0.133151079754834D+03 0.282533182752743D+02 -.196468557012417D+02 -.303308606433903D+02
 0.201254196397445D+03 -.957770965468230D+02 -.148643152863740D+03 0.303308606433903D+02
 0.221478985978552D+03 0.675237782715487D+02 0.168290008564981D+03 0.127168996281408D+03
0.318211309837D-03 0.000000000000D+00 0.000000000000D+00 0.175428909118D-02 0.000000000000D+00  5 -1 1 25 23 21 0 0.21978736D-01 0.21253975D-01 0.18808163D+05 0.18808163D+05 0.18808163D+05 0.12367745D+01  1  2  2  1  5  1       -1 0.124520335770D+00 0.100000000000D+01
-.176659336133D-04 0.000000000000D+00 -.122201521673D-05 0.175428909118D-02 0.000000000000D+00  5 -1 1 25 23 21 2 0.21978736D-01 0.21253975D-01 0.18808163D+05 0.18808163D+05 0.18808163D+05 0.12367745D+01  1  2  3  1  5  1       -1 -.105740738135D-01 0.100000000000D+01
0.220141675426D-04 0.000000000000D+00 0.000000000000D+00 0.175428909118D-02 0.000000000000D+00  5 -1 1 25 23 21 2 0.21978736D-01 0.21253975D-01 0.18808163D+05 0.18808163D+05 0.18808163D+05 0.12367745D+01  1  2 15  1  5  1       -1 0.131767410449D-01 0.100000000000D+01
0.140338522515D-04 0.000000000000D+00 -.100573982217D-03 0.175428909118D-02 0.000000000000D+00  5 -1 1 25 23 21 2 0.77160341D-01 0.21253975D-01 0.18808163D+05 0.18808163D+05 0.18808163D+05 0.12367745D+01  1  2  5  1  5  1       -1 0.896145986944D-03 0.100000000000D+01
0.523346404986D-05 0.000000000000D+00 -.147837959392D-04 0.175428909118D-02 0.000000000000D+00  5 21 1 25 23 1 2 0.77160341D-01 0.21253975D-01 0.18808163D+05 0.18808163D+05 0.18808163D+05 0.12367745D+01  1  2  5  3  5  1       -1 0.309282617209D-02 0.100000000000D+01
  </mgrwgt>
  </event>
  <event>
  4     66 0.43907321E-03 0.45626517E+02 0.75467711E-02 0.12131033E+00
       -1 -1    0    0    0  501 0.00000000E+00 0.00000000E+00 0.94930357E+01 0.94984276E+01 0.32000000E+00 0.0000E+00 0.9000E+01
        1 -1    0    0  501    0 0.00000000E+00 0.00000000E+00 -.13368774E+04 0.13368774E+04 0.32000000E+00 0.0000E+00 0.9000E+01
       25  1    1    2    0    0 0.55495945E+01 -.82716819E+00 -.94398309E+03 0.95223976E+03 0.12500000E+03 0.0000E+00 0.9000E+01
       23  1    1    2    0    0 -.55495945E+01 0.82716819E+00 -.38340123E+03 0.39413606E+03 0.91188000E+02 0.0000E+00 0.9000E+01
#aMCatNLO 1  0  0  1  2 0.56594099D+02 0.00000000D+00  -5  5  0 0.00000000D+00 0.00000000D+00 0.00000000D+00 0.00000000D+00 0.00000000D+00
  <mgrwgt>
 0.2020832416D+00    9    2    0
 0.112670670379833D+03 0.000000000000000D+00 0.000000000000000D+00 0.112670670379833D+03
 0.112670670379833D+03 0.000000000000000D+00 0.000000000000000D+00 -.112670670379833D+03
 0.128889950498070D+03 0.554959446992809D+01 -.827168193223722D+00 -.309214671934288D+02
 0.964513902615967D+02 -.554959446992809D+01 0.827168193223722D+00 0.309214671934288D+02
 0.000000000000000D+00 -.000000000000000D+00 -.000000000000000D+00 0.000000000000000D+00
 0.158920053820572D+03 0.000000000000000D+00 0.000000000000000D+00 0.158920053820572D+03
 0.134899931125695D+03 0.000000000000000D+00 0.000000000000000D+00 -.134899931125695D+03
 0.133747176947289D+03 0.288341837142156D+02 0.218119246631274D+02 -.309214671934288D+02
 0.985922555455012D+02 0.117423673387520D+02 0.176397614903645D+02 0.309214671934288D+02
 0.614805524534765D+02 -.405765510529676D+02 -.394516861534919D+02 0.240201226948774D+02
0.180758251631D-03 0.000000000000D+00 0.000000000000D+00 0.219972526871D-02 0.000000000000D+00  5 -1 1 25 23 21 0 0.14608847D-02 0.20567386D+00 0.11716582D+05 0.11716582D+05 0.11716582D+05 0.12602425D+01  1  2  2  1  5  1       -1 0.173277395992D+00 0.100000000000D+01
-.100225025015D-04 0.000000000000D+00 -.694159281004D-06 0.219972526871D-02 0.000000000000D+00  5 -1 1 25 23 21 2 0.14608847D-02 0.20567386D+00 0.11716582D+05 0.11716582D+05 0.11716582D+05 0.12602425D+01  1  2  3  1  5  1       -1 -.152590743420D-01 0.100000000000D+01
0.124296528298D-04 0.000000000000D+00 0.000000000000D+00 0.219972526871D-02 0.000000000000D+00  5 -1 1 25 23 21 2 0.14608847D-02 0.20567386D+00 0.11716582D+05 0.11716582D+05 0.11716582D+05 0.12602425D+01  1  2 15  1  5  1       -1 0.189239161124D-01 0.100000000000D+01
0.509672751802D-04 0.000000000000D+00 0.000000000000D+00 0.219972526871D-02 0.000000000000D+00  5 -1 1 25 23 21 2 0.21571624D-02 0.20567386D+00 0.19647011D+05 0.19647011D+05 0.19647011D+05 0.12346783D+01  1  2 12  1  5  1       -1 0.430625324015D-01 0.100000000000D+01
-.857007661759D-04 0.000000000000D+00 0.000000000000D+00 0.219972526871D-02 0.000000000000D+00  5 -1 1 25 23 21 2 0.14608847D-02 0.20567386D+00 0.11716582D+05 0.11716582D+05 0.11716582D+05 0.12602425D+01  1  2  4  1  5  1       -1 -.130477828471D+00 0.100000000000D+01
-.107758948559D-03 0.000000000000D+00 -.606067231706D-04 0.219972526871D-02 0.000000000000D+00  5 -1 1 25 23 21 2 0.25042569D-02 0.20567386D+00 0.11716582D+05 0.11716582D+05 0.11716582D+05 0.12602425D+01  1  2  5  1  5  1       -1 -.757968306176D-01 0.100000000000D+01
0.129069035473D-03 0.000000000000D+00 0.527573243186D-04 0.219972526871D-02 0.000000000000D+00  5 -1 1 25 23 21 2 0.14608847D-02 0.20567386D+00 0.11716582D+05 0.11716582D+05 0.11716582D+05 0.12602425D+01  1  2  6  1  5  1       -1 0.196505214863D+00 0.100000000000D+01
0.238036525786D-05 0.000000000000D+00 0.000000000000D+00 0.219972526871D-02 0.000000000000D+00  5 21 1 25 23 1 2 0.21571624D-02 0.20567386D+00 0.19647011D+05 0.19647011D+05 0.19647011D+05 0.12346783D+01  1  2 12  3  5  1       -1 0.411931039207D-01 0.100000000000D+01
-.349125103019D-05 0.000000000000D+00 -.363064857727D-05 0.219972526871D-02 0.000000000000D+00  5 21 1 25 23 1 2 0.25042569D-02 0.20567386D+00 0.11716582D+05 0.11716582D+05 0.11716582D+05 0.12602425D+01  1  2  5  3  5  1       -1 -.493451882867D-01 0.100000000000D+01
  </mgrwgt>
  </event>
  <event>
  5     66 0.43907321E-03 0.14249693E+03 0.75467711E-02 0.11943626E+00
       -1 -1    0    0    0  501 0.00000000E+00 0.00000000E+00 0.30950858E+03 0.30950875E+03 0.32000000E+00 0.0000E+00 0.9000E+01
        1 -1    0    0  502    0 0.00000000E+00 0.00000000E+00 -.96130703E+02 0.96131235E+02 0.32000000E+00 0.0000E+00 0.9000E+01
       25  1    1    2    0    0 -.51504703E+02 0.73190412E+02 0.17897386E+02 0.15477366E+03 0.12500000E+03 0.0000E+00 0.9000E+01
       23  1    1    2    0    0 0.33971622E+02 -.89701421E+02 0.17379221E+03 0.21844770E+03 0.91188000E+02 0.0000E+00 0.9000E+01
       21  1    1    2  502  501 0.17533081E+02 0.16511009E+02 0.21688283E+02 0.32418613E+02 0.75000000E+00 0.0000E+00 0.9000E+01
#aMCatNLO 2  0  0  2  2 0.24083653D+02 0.00000000D+00  -5  5  0 0.00000000D+00 0.00000000D+00 0.00000000D+00 0.00000000D+00 0.00000000D+00
  <mgrwgt>
 0.9287506536D-01    1    2    0
 0.159663135210968D+03 0.000000000000000D+00 0.000000000000000D+00 0.159663135210968D+03
 0.159663135210968D+03 0.000000000000000D+00 0.000000000000000D+00 -.159663135210968D+03
 0.171108715066239D+03 -.421624784221051D+02 0.819880417885614D+02 -.717877342489778D+02
 0.148217555355697D+03 0.421624784221051D+02 -.819880417885614D+02 0.717877342489778D+02
 0.000000000000000D+00 0.000000000000000D+00 0.000000000000000D+00 0.000000000000000D+00
 0.175446686797905D+03 0.000000000000000D+00 0.000000000000000D+00 0.175446686797905D+03
 0.169575472217877D+03 0.000000000000000D+00 0.000000000000000D+00 -.169575472217877D+03
 0.169670414602158D+03 -.515047028557534D+02 0.731904118475018D+02 -.717877342489778D+02
 0.150562765004637D+03 0.339716223333543D+02 -.897014211107025D+02 0.717877342489778D+02
 0.247889794089866D+02 0.175330805223991D+02 0.165110092632007D+02 0.587121458002811D+01
0.369110646132D-03 0.000000000000D+00 0.000000000000D+00 0.136966099990D-02 0.190471180202D-04  5 -1 1 25 23 21 2 0.47615187D-01 0.14788904D-01 0.24050708D+05 0.24050708D+05 0.24050708D+05 0.12251042D+01  1  2  1  2  5  2        1 0.928750653586D-01 0.100000000000D+01
  </mgrwgt>
  </event>
  <event>
  5     66 0.43907321E-03 0.12188317E+03 0.75467711E-02 0.11874428E+00
       -1 -1    0    0    0  501 0.00000000E+00 0.00000000E+00 0.38683115E+03 0.38683129E+03 0.32000000E+00 0.0000E+00 0.9000E+01
       21 -1    0    0  501  502 0.00000000E+00 0.00000000E+00 -.10221346E+03 0.10221621E+03 0.75000000E+00 0.0000E+00 0.9000E+01
       25  1    1    2    0    0 0.83801999E+02 0.15872851E+02 0.22258978E+02 0.15295484E+03 0.12500000E+03 0.0000E+00 0.9000E+01
       23  1    1    2    0    0 -.19610122E+02 -.41109568E+02 0.51425364E+02 0.11416818E+03 0.91188000E+02 0.0000E+00 0.9000E+01
       -1  1    1    2    0  502 -.64191877E+02 0.25236717E+02 0.21093336E+03 0.22192447E+03 0.32000000E+00 0.0000E+00 0.9000E+01
#aMCatNLO 2  0  0  2  1 0.68974553D+02 0.00000000D+00  -5  5  0 0.00000000D+00 0.00000000D+00 0.00000000D+00 0.00000000D+00 0.00000000D+00
  <mgrwgt>
 0.1982646761D-01    1    2    0
 0.123660662768916D+03 0.000000000000000D+00 0.000000000000000D+00 0.123660662768916D+03
 0.123660662768916D+03 0.000000000000000D+00 0.000000000000000D+00 -.123660662768916D+03
 0.138438500143239D+03 0.467219229855347D+02 0.304506985277011D+02 -.207372899294591D+02
 0.108882825394594D+03 -.467219229855347D+02 -.304506985277011D+02 0.207372899294591D+02
 0.000000000000000D+00 -.000000000000000D+00 0.000000000000000D+00 0.000000000000000D+00
 0.291433705978541D+03 0.000000000000000D+00 0.000000000000000D+00 0.291433705978541D+03
 0.135673981877070D+03 0.000000000000000D+00 0.000000000000000D+00 -.135673981877070D+03
 0.152740818332480D+03 0.838019987238973D+02 0.158728510714704D+02 -.207372899294591D+02
 0.104018460036137D+03 -.196101218112883D+02 -.411095683900654D+02 0.207372899294591D+02
 0.170348409486994D+03 -.641918769126090D+02 0.252367173185949D+02 0.155759724101471D+03
0.134227137154D-04 0.000000000000D+00 0.000000000000D+00 0.202650646826D-02 0.109303408019D-06  5 -1 21 25 23 -1 2 0.59512644D-01 0.15725352D-01 0.25958283D+05 0.25958283D+05 0.25958283D+05 0.12215501D+01  1  2  1  4  5  2        1 0.198264676054D-01 0.100000000000D+01
  </mgrwgt>
  </event>
  <event>
  4     66 -.43907321E-03 0.68215894E+02 0.75467711E-02 0.11809716E+00
       -1 -1    0    0    0  501 0.00000000E+00 0.00000000E+00 0.68408824E+02 0.68409573E+02 0.32000000E+00 0.0000E+00 0.9000E+01
        1 -1    0    0  501    0 0.00000000E+00 0.00000000E+00 -.10385395E+04 0.10385395E+04 0.32000000E+00 0.0000E+00 0.9000E+01
       25  1    1    2    0    0 -.13373214E+02 0.12450446E+03 -.64743868E+02 0.18840640E+03 0.12500000E+03 0.0000E+00 0.9000E+01
       23  1    1    2    0    0 0.13373214E+02 -.12450446E+03 -.90538679E+03 0.91854271E+03 0.91188000E+02 0.0000E+00 0.9000E+01
#aMCatNLO 1  0  0  1  2 0.22001208D+01 0.00000000D+00  -5  5  0 0.00000000D+00 0.00000000D+00 0.00000000D+00 0.00000000D+00 0.00000000D+00
  <mgrwgt>
 -.2556539157D-01   11    2    0
 0.266544005283263D+03 0.000000000000000D+00 0.000000000000000D+00 0.266544005283263D+03
 0.266544005283263D+03 0.000000000000000D+00 0.000000000000000D+00 -.266544005283263D+03
 0.273400048292213D+03 -.133732137571114D+02 0.124504463163051D+03 0.208428362303386D+03
 0.259687962274312D+03 0.133732137571114D+02 -.124504463163051D+03 -.208428362303386D+03
 0.000000000000000D+00 0.000000000000000D+00 0.000000000000000D+00 0.000000000000000D+00
 0.270069708843720D+03 0.000000000000000D+00 0.000000000000000D+00 0.270069708843720D+03
 0.266889728053682D+03 0.000000000000000D+00 0.000000000000000D+00 -.266889728053682D+03
 0.273149371969994D+03 -.142920596748214D+02 0.123850451050377D+03 0.208428362303386D+03
 0.259943178663877D+03 0.124996222119279D+02 -.125126264317159D+03 -.208428362303386D+03
 0.386688626353181D+01 0.179243746289347D+01 0.127581326678196D+01 0.317998079003792D+01
0.880442745640D-03 0.000000000000D+00 0.000000000000D+00 0.565647038366D-03 0.000000000000D+00  5 -1 1 25 23 21 0 0.10524496D-01 0.15977537D+00 0.27529021D+05 0.27529021D+05 0.27529021D+05 0.12188360D+01  1  2  2  1  5  1       -1 0.747392531251D-01 0.100000000000D+01
-.355492985384D-04 0.000000000000D+00 -.338113196915D-05 0.565647038366D-03 0.000000000000D+00  5 -1 1 25 23 21 2 0.10524496D-01 0.15977537D+00 0.27529021D+05 0.27529021D+05 0.27529021D+05 0.12188360D+01  1  2  3  1  5  1       -1 -.448300492324D-02 0.100000000000D+01
0.601611048451D-04 0.000000000000D+00 0.000000000000D+00 0.565647038366D-03 0.000000000000D+00  5 -1 1 25 23 21 2 0.10524496D-01 0.15977537D+00 0.27529021D+05 0.27529021D+05 0.27529021D+05 0.12188360D+01  1  2 15  1  5  1       -1 0.758671873416D-02 0.100000000000D+01
0.266655833145D-05 0.000000000000D+00 0.000000000000D+00 0.565647038366D-03 0.000000000000D+00  5 -1 1 25 23 21 2 0.10670483D-01 0.15977537D+00 0.27901933D+05 0.27901933D+05 0.27901933D+05 0.12182170D+01  1  2 12  1  5  1       -1 0.328860385959D-03 0.100000000000D+01
-.441819514636D-01 0.000000000000D+00 0.000000000000D+00 0.565647038366D-03 0.000000000000D+00  5 -1 1 25 23 21 2 0.10524496D-01 0.15977537D+00 0.27529021D+05 0.27529021D+05 0.27529021D+05 0.12188360D+01  1  2  4  1  5  1       -1 -.557164034378D+01 0.100000000000D+01
-.926763266282D-01 0.000000000000D+00 -.746203520075D-02 0.565647038366D-03 0.000000000000D+00  5 -1 1 25 23 21 2 0.10676304D-01 0.15977537D+00 0.27529021D+05 0.27529021D+05 0.27529021D+05 0.12188360D+01  1  2  5  1  5  1       -1 -.114323291316D+02 0.100000000000D+01
0.927744430490D-01 0.000000000000D+00 0.746127004649D-02 0.565647038366D-03 0.000000000000D+00  5 -1 1 25 23 21 2 0.10524496D-01 0.15977537D+00 0.27529021D+05 0.27529021D+05 0.27529021D+05 0.12188360D+01  1  2  6  1  5  1       -1 0.116994793720D+02 0.100000000000D+01
0.441823037170D-01 0.000000000000D+00 0.000000000000D+00 0.565647038366D-03 0.924976447856D-03  5 -1 1 25 23 21 2 0.10663708D-01 0.15998260D+00 0.27901933D+05 0.27901933D+05 0.27901933D+05 0.12182170D+01  1  2 11  1  5  1       -1 0.544196331665D+01 0.100000000000D+01
0.247781563128D-06 0.000000000000D+00 0.000000000000D+00 0.565647038366D-03 0.000000000000D+00  5 21 1 25 23 1 2 0.10670483D-01 0.15977537D+00 0.27901933D+05 0.27901933D+05 0.27901933D+05 0.12182170D+01  1  2 12  3  5  1       -1 0.451052243745D-03 0.100000000000D+01
-.243031990553D-03 0.000000000000D+00 -.196136342888D-04 0.565647038366D-03 0.000000000000D+00  5 21 1 25 23 1 2 0.10676304D-01 0.15977537D+00 0.27529021D+05 0.27529021D+05 0.27529021D+05 0.12188360D+01  1  2  5  3  5  1       -1 -.442574892283D+00 0.100000000000D+01
0.110494655186D-03 0.000000000000D+00 0.000000000000D+00 0.565647038366D-03 0.224374640613D-05  5 21 1 25 23 1 2 0.10663708D-01 0.15998260D+00 0.27901933D+05 0.27901933D+05 0.27901933D+05 0.12182170D+01  1  2 11  3  5  1       -1 0.200913407934D+00 0.100000000000D+01
  </mgrwgt>
  </event>
  <event>
  4     66 0.43907321E-03 0.79649517E+02 0.75467711E-02 0.11777804E+00
       -1 -1    0    0    0  501 0.00000000E+00 0.00000000E+00 0.81729938E+02 0.81730564E+02 0.32000000E+00 0.0000E+00 0.9000E+01
        1 -1    0    0  501    0 0.00000000E+00 0.00000000E+00 -.14579291E+03 0.14579326E+03 0.32000000E+00 0.0000E+00 0.9000E+01
       25  1    1    2    0    0 0.13656765E+02 0.61267656E+01 -.38360565E+02 0.13160766E+03 0.12500000E+03 0.0000E+00 0.9000E+01
       23  1    1    2    0    0 -.13656765E+02 -.61267656E+01 -.25702404E+02 0.95916158E+02 0.91188000E+02 0.0000E+00 0.9000E+01
#aMCatNLO 1  0  0  1  2 0.10000994D+03 0.00000000D+00  -5  5  0 0.00000000D+00 0.00000000D+00 0.00000000D+00 0.00000000D+00 0.00000000D+00
  <mgrwgt>
 0.7725011113D-01    7    2    0
 0.109159317044734D+03 0.000000000000000D+00 0.000000000000000D+00 0.109159317044734D+03
 0.109159317044734D+03 0.000000000000000D+00 0.000000000000000D+00 -.109159317044734D+03
 0.125900326547854D+03 0.136567646109217D+02 0.612676564340352D+01 -.135931893573876D+01
 0.924183075416141D+02 -.136567646109217D+02 -.612676564340352D+01 0.135931893573876D+01
 0.000000000000000D+00 -.000000000000000D+00 -.000000000000000D+00 0.000000000000000D+00
 0.212390106899491D+03 0.000000000000000D+00 0.000000000000000D+00 0.212390106899491D+03
 0.147152105767679D+03 0.000000000000000D+00 0.000000000000000D+00 -.147152105767679D+03
 0.141905929161908D+03 0.195586676650044D+02 0.642487626534961D+02 -.135931893573876D+01
 0.982294788721831D+02 -.945527667365295D+01 0.352495272387630D+02 0.135931893573876D+01
 0.119406804633080D+03 -.101033909913515D+02 -.994982898922591D+02 0.652380011318116D+02
0.946973214088D-04 0.000000000000D+00 0.000000000000D+00 0.243246877330D-02 0.000000000000D+00  5 -1 1 25 23 21 0 0.12573912D-01 0.22429753D-01 0.11913864D+05 0.11913864D+05 0.11913864D+05 0.12593909D+01  1  2  2  1  5  1       -1 0.822286795542D-01 0.100000000000D+01
-.526096226016D-05 0.000000000000D+00 -.363662648587D-06 0.243246877330D-02 0.000000000000D+00  5 -1 1 25 23 21 2 0.12573912D-01 0.22429753D-01 0.11913864D+05 0.11913864D+05 0.11913864D+05 0.12593909D+01  1  2  3  1  5  1       -1 -.724555966573D-02 0.100000000000D+01
0.654950009261D-05 0.000000000000D+00 0.000000000000D+00 0.243246877330D-02 0.000000000000D+00  5 -1 1 25 23 21 2 0.12573912D-01 0.22429753D-01 0.11913864D+05 0.11913864D+05 0.11913864D+05 0.12593909D+01  1  2 15  1  5  1       -1 0.902017375435D-02 0.100000000000D+01
0.407164040691D-06 0.000000000000D+00 0.000000000000D+00 0.243246877330D-02 0.000000000000D+00  5 -1 1 25 23 21 2 0.24948143D-01 0.22429753D-01 0.28922008D+05 0.28922008D+05 0.28922008D+05 0.12165700D+01  1  2 12  1  5  1       -1 0.180932686389D-03 0.100000000000D+01
-.193919188000D-04 0.000000000000D+00 -.275815729147D-04 0.243246877330D-02 0.000000000000D+00  5 -1 1 25 23 21 2 0.32339343D-01 0.22429753D-01 0.11913864D+05 0.11913864D+05 0.11913864D+05 0.12593909D+01  1  2  5  1  5  1       -1 -.587637413730D-02 0.100000000000D+01
0.301977631204D-07 0.000000000000D+00 0.000000000000D+00 0.243246877330D-02 0.000000000000D+00  5 21 1 25 23 1 2 0.24948143D-01 0.22429753D-01 0.28922008D+05 0.28922008D+05 0.28922008D+05 0.12165700D+01  1  2 12  3  5  1       -1 0.161265373693D-03 0.100000000000D+01
-.351003693739D-06 0.000000000000D+00 -.288148662142D-05 0.243246877330D-02 0.000000000000D+00  5 21 1 25 23 1 2 0.32339343D-01 0.22429753D-01 0.11913864D+05 0.11913864D+05 0.11913864D+05 0.12593909D+01  1  2  5  3  5  1       -1 -.121900643375D-02 0.100000000000D+01
  </mgrwgt>
  </event>
  <event>
  4     66 0.43907321E-03 0.72462078E+02 0.75467711E-02 0.11414005E+00
       -1 -1    0    0    0  501 0.00000000E+00 0.00000000E+00 0.10647241E+02 0.10652048E+02 0.32000000E+00 0.0000E+00 0.9000E+01
        1 -1    0    0  501    0 0.00000000E+00 0.00000000E+00 -.22918252E+04 0.22918252E+04 0.32000000E+00 0.0000E+00 0.9000E+01
       25  1    1    2    0    0 -.55397063E+02 -.78369571E+02 -.16533407E+04 0.16608345E+04 0.12500000E+03 0.0000E+00 0.9000E+01
       23  1    1    2    0    0 0.55397063E+02 0.78369571E+02 -.62783725E+03 0.64164281E+03 0.91188000E+02 0.0000E+00 0.9000E+01
#aMCatNLO 1  0  0  1  2 0.11068682D+03 0.00000000D+00  -5  5  0 0.00000000D+00 0.00000000D+00 0.00000000D+00 0.00000000D+00 0.00000000D+00
  <mgrwgt>
 0.1022603402D+00    7    2    0
 0.156227958265303D+03 0.000000000000000D+00 0.000000000000000D+00 0.156227958265303D+03
 0.156227958265303D+03 0.000000000000000D+00 0.000000000000000D+00 -.156227958265303D+03
 0.167925206211773D+03 -.553970627851657D+02 -.783695714133828D+02 -.579935392308965D+02
 0.144530710318833D+03 0.553970627851657D+02 0.783695714133828D+02 0.579935392308965D+02
 0.000000000000000D+00 0.000000000000000D+00 -.000000000000000D+00 0.000000000000000D+00
 0.296508543318050D+03 0.000000000000000D+00 0.000000000000000D+00 0.296508543318050D+03
 0.189163383171670D+03 0.000000000000000D+00 0.000000000000000D+00 -.189163383171670D+03
 0.194879678563174D+03 -.117442853932485D+03 -.720903224056694D+02 -.579935392308965D+02
 0.136602252949271D+03 0.731855597459710D+01 0.832352828597207D+02 0.579935392308965D+02
 0.154189994977275D+03 0.110124297957888D+03 -.111449604540513D+02 0.107345160146381D+03
0.640117692984D-03 0.000000000000D+00 0.000000000000D+00 0.148270710417D-02 0.000000000000D+00  5 -1 1 25 23 21 0 0.16384086D-02 0.35258886D+00 0.21021890D+05 0.21021890D+05 0.21021890D+05 0.12314506D+01  1  2  2  1  5  1       -1 0.128507772417D+00 0.100000000000D+01
-.353211017474D-04 0.000000000000D+00 -.245822048792D-05 0.148270710417D-02 0.000000000000D+00  5 -1 1 25 23 21 2 0.16384086D-02 0.35258886D+00 0.21021890D+05 0.21021890D+05 0.21021890D+05 0.12314506D+01  1  2  3  1  5  1       -1 -.107532012069D-01 0.100000000000D+01
0.441265924366D-04 0.000000000000D+00 0.000000000000D+00 0.148270710417D-02 0.000000000000D+00  5 -1 1 25 23 21 2 0.16384086D-02 0.35258886D+00 0.21021890D+05 0.21021890D+05 0.21021890D+05 0.12314506D+01  1  2 15  1  5  1       -1 0.134339560084D-01 0.100000000000D+01
0.427366113085D-04 0.000000000000D+00 0.000000000000D+00 0.148270710417D-02 0.000000000000D+00  5 -1 1 25 23 21 2 0.31481235D-02 0.35258886D+00 0.44187863D+05 0.44187863D+05 0.44187863D+05 0.11976336D+01  1  2 12  1  5  1       -1 0.472243927290D-02 0.100000000000D+01
-.248963237626D-03 0.000000000000D+00 -.187891274272D-03 0.148270710417D-02 0.000000000000D+00  5 -1 1 25 23 21 2 0.39673485D-02 0.35258886D+00 0.21021890D+05 0.21021890D+05 0.21021890D+05 0.12314506D+01  1  2  5  1  5  1       -1 -.209609399768D-01 0.100000000000D+01
0.302881569151D-05 0.000000000000D+00 0.000000000000D+00 0.148270710417D-02 0.000000000000D+00  5 21 1 25 23 1 2 0.31481235D-02 0.35258886D+00 0.44187863D+05 0.44187863D+05 0.44187863D+05 0.11976336D+01  1  2 12  3  5  1       -1 0.631138441618D-02 0.100000000000D+01
-.123458628719D-04 0.000000000000D+00 -.182028114779D-04 0.148270710417D-02 0.000000000000D+00  5 21 1 25 23 1 2 0.39673485D-02 0.35258886D+00 0.21021890D+05 0.21021890D+05 0.21021890D+05 0.12314506D+01  1  2  5  3  5  1       -1 -.190010707528D-01 0.100000000000D+01
  </mgrwgt>
  </event>
  <event>
  4     66 0.43907321E-03 0.11598991E+03 0.75467711E-02 0.12256225E+00
       -1 -1    0    0    0  501 0.00000000E+00 0.00000000E+00 0.10432524E+02 0.10437430E+02 0.32000000E+00 0.0000E+00 0.9000E+01
        1 -1    0    0  501    0 0.00000000E+00 0.00000000E+00 -.18427822E+04 0.18427823E+04 0.32000000E+00 0.0000E+00 0.9000E+01
       25  1    1    2    0    0 -.22228756E+01 0.41554977E+02 -.15077844E+04 0.15135292E+04 0.12500000E+03 0.0000E+00 0.9000E+01
       23  1    1    2    0    0 0.22228756E+01 -.41554977E+02 -.32456531E+03 0.33969052E+03 0.91188000E+02 0.0000E+00 0.9000E+01
#aMCatNLO 1  0  0  1  1 0.28627568D+02 0.00000000D+00  -5  5  0 0.00000000D+00 0.00000000D+00 0.00000000D+00 0.00000000D+00 0.00000000D+00
  <mgrwgt>
 0.2089031452D+00    3    2    0
 0.138670261743336D+03 0.000000000000000D+00 0.000000000000000D+00 0.138670261743336D+03
 0.138670261743336D+03 0.000000000000000D+00 0.000000000000000D+00 -.138670261743336D+03
 0.151848553476732D+03 -.222287555407254D+01 0.415549770525996D+02 -.755064626333723D+02
 0.125491970009941D+03 0.222287555407254D+01 -.415549770525996D+02 0.755064626333723D+02
 0.000000000000000D+00 0.000000000000000D+00 0.000000000000000D+00 -.000000000000000D+00
 0.140339180582429D+03 0.000000000000000D+00 0.000000000000000D+00 0.140339180582429D+03
 0.359209593473637D+03 0.000000000000000D+00 0.000000000000000D+00 -.359209593473637D+03
 0.151398598246122D+03 -.168839653984573D+02 0.361972563036140D+02 -.755064626333723D+02
 0.127415504056477D+03 -.100044419278503D+02 -.460233046648488D+02 0.755064626333723D+02
 0.220734671753466D+03 0.268884073263076D+02 0.982604836123475D+01 -.218870412891208D+03
0.512036865216D-03 0.000000000000D+00 0.000000000000D+00 0.140692509976D-02 0.000000000000D+00  5 -1 1 25 23 21 0 0.16053832D-02 0.28350534D+00 0.13453659D+05 0.13453659D+05 0.13453659D+05 0.12532454D+01  1  2  2  1  5  1       -1 0.204003812776D+00 0.100000000000D+01
-.273432974504D-04 0.000000000000D+00 -.196635638483D-05 0.140692509976D-02 0.000000000000D+00  5 -1 1 25 23 21 2 0.16053832D-02 0.28350534D+00 0.13453659D+05 0.13453659D+05 0.13453659D+05 0.12532454D+01  1  2  3  1  5  1       -1 -.171104015521D-01 0.100000000000D+01
0.351726814967D-04 0.000000000000D+00 0.000000000000D+00 0.140692509976D-02 0.000000000000D+00  5 -1 1 25 23 21 2 0.16053832D-02 0.28350534D+00 0.13453659D+05 0.13453659D+05 0.13453659D+05 0.12532454D+01  1  2 15  1  5  1       -1 0.220097340186D-01 0.100000000000D+01
  </mgrwgt>
  </event>
  <event>
  5     66 -.43907321E-03 0.11427127E+03 0.75467711E-02 0.12453960E+00
       -1 -1    0    0    0  501 0.00000000E+00 0.00000000E+00 0.61254194E+02 0.61255030E+02 0.32000000E+00 0.0000E+00 0.9000E+01
        1 -1    0    0  502    0 0.00000000E+00 0.00000000E+00 -.24127212E+03 0.24127234E+03 0.32000000E+00 0.0000E+00 0.9000E+01
       25  1    1    2    0    0 0.36827361E+02 0.74346488E+01 -.13148013E+03 0.18526617E+03 0.12500000E+03 0.0000E+00 0.9000E+01
       23  1    1    2    0    0 -.33089896E+02 -.15107349E+02 -.44779696E+02 0.10790573E+03 0.91188000E+02 0.0000E+00 0.9000E+01
       21  1    1    2  502  501 -.37374650E+01 0.76727006E+01 -.37581004E+01 0.93554688E+01 0.75000000E+00 0.0000E+00 0.9000E+01
#aMCatNLO 2  0  0  2  1 0.85345755D+01 0.00000000D+00  -5  5  0 0.00000000D+00 0.00000000D+00 0.00000000D+00 0.00000000D+00 0.00000000D+00
  <mgrwgt>
 -.1184151996D+00    3    2    0
 0.117057031432624D+03 0.000000000000000D+00 0.000000000000000D+00 0.117057031432624D+03
 0.117057031432624D+03 0.000000000000000D+00 0.000000000000000D+00 -.117057031432624D+03
 0.132668542690295D+03 0.347080621002626D+02 0.117853899750387D+02 -.251475093786104D+02
 0.101445520174953D+03 -.347080621002626D+02 -.117853899750387D+02 0.251475093786104D+02
 0.000000000000000D+00 -.000000000000000D+00 0.000000000000000D+00 0.000000000000000D+00
 0.122726761379629D+03 0.000000000000000D+00 0.000000000000000D+00 0.122726761379629D+03
 0.120391194186425D+03 0.000000000000000D+00 0.000000000000000D+00 -.120391194186425D+03
 0.132924511354733D+03 0.368273605907450D+02 0.743464880585199D+01 -.251475093786104D+02
 0.101345062874285D+03 -.330898956234110D+02 -.151073493597375D+02 0.251475093786104D+02
 0.884838133703656D+01 -.373746496733399D+01 0.767270055388556D+01 0.233556719320433D+01
-.228136699363D-03 0.000000000000D+00 0.000000000000D+00 0.213647230568D-02 0.000000000000D+00  5 -1 1 25 23 21 2 0.89872661D-02 0.37955637D-01 0.14070005D+05 0.14070005D+05 0.14070005D+05 0.12510039D+01  1  2 13  2  5  2        1 -.271169634309D+00 0.100000000000D+01
-.193880310597D-04 0.000000000000D+00 0.000000000000D+00 0.213647230568D-02 0.000000000000D+00  5 -1 1 25 23 21 2 0.89872661D-02 0.36086162D-01 0.13057924D+05 0.13057924D+05 0.13057924D+05 0.12547464D+01  1  2  8  2  5  2        1 -.246028266614D-01 0.100000000000D+01
0.155921961399D-03 0.000000000000D+00 0.000000000000D+00 0.213647230568D-02 0.245200931778D-03  5 -1 1 25 23 21 2 0.94225699D-02 0.37114013D-01 0.14070005D+05 0.14070005D+05 0.14070005D+05 0.12510039D+01  1  2  1  2  5  2        1 0.177357261397D+00 0.100000000000D+01
  </mgrwgt>
  </event>
  <event>
  4     66 0.43907321E-03 0.42143859E+02 0.75467711E-02 0.12237556E+00
       -1 -1    0    0    0  501 0.00000000E+00 0.00000000E+00 0.13909763E+03 0.13909800E+03 0.32000000E+00 0.0000E+00 0.9000E+01
        1 -1    0    0  501    0 0.00000000E+00 0.00000000E+00 -.11822461E+03 0.11822504E+03 0.32000000E+00 0.0000E+00 0.9000E+01
       25  1    1    2    0    0 0.20871564E+02 0.60291016E+02 -.13126344E+02 0.14095364E+03 0.12500000E+03 0.0000E+00 0.9000E+01
       23  1    1    2    0    0 -.20871564E+02 -.60291016E+02 0.33999360E+02 0.11636940E+03 0.91188000E+02 0.0000E+00 0.9000E+01
#aMCatNLO 1  0  0  2  1 0.13108795D+02 0.00000000D+00  -5  5  0 0.00000000D+00 0.00000000D+00 0.00000000D+00 0.00000000D+00 0.00000000D+00
  <mgrwgt>
 0.1681970971D+00    6    2    0
 0.128237538014501D+03 0.000000000000000D+00 0.000000000000000D+00 0.128237538014501D+03
 0.128237538014501D+03 0.000000000000000D+00 0.000000000000000D+00 -.128237538014501D+03
 0.142487945440394D+03 0.208715639220428D+02 0.602910160626410D+02 -.246411403430725D+02
 0.113987130588609D+03 -.208715639220428D+02 -.602910160626410D+02 0.246411403430725D+02
 0.000000000000000D+00 -.000000000000000D+00 -.000000000000000D+00 0.000000000000000D+00
 0.135462160847531D+03 0.000000000000000D+00 0.000000000000000D+00 0.135462160847531D+03
 0.134492322844684D+03 0.000000000000000D+00 0.000000000000000D+00 -.134492322844684D+03
 0.145864115377465D+03 0.246706346666952D+02 0.665996557242286D+02 -.246411403430725D+02
 0.110945746432324D+03 -.179080480374087D+02 -.553698774200231D+02 0.246411403430725D+02
 0.131446218824269D+02 -.676258662928657D+01 -.112297783042055D+02 0.969838002847100D+00
0.184925238755D-03 0.000000000000D+00 0.000000000000D+00 0.193324010768D-02 0.000000000000D+00  5 -1 1 25 23 21 0 0.21399697D-01 0.18188463D-01 0.15829790D+05 0.15829790D+05 0.15829790D+05 0.12451655D+01  1  2  2  2  5  2        1 0.916216169826D-01 0.100000000000D+01
-.102690865769D-04 0.000000000000D+00 -.710161608751D-06 0.193324010768D-02 0.000000000000D+00  5 -1 1 25 23 21 2 0.21399697D-01 0.18188463D-01 0.15829790D+05 0.15829790D+05 0.15829790D+05 0.12451655D+01  1  2  3  2  5  2        1 -.788837878800D-02 0.100000000000D+01
0.128183225608D-04 0.000000000000D+00 0.000000000000D+00 0.193324010768D-02 0.000000000000D+00  5 -1 1 25 23 21 2 0.21399697D-01 0.18188463D-01 0.15829790D+05 0.15829790D+05 0.15829790D+05 0.12451655D+01  1  2 15  2  5  2        1 0.984661907654D-02 0.100000000000D+01
0.354761795626D-03 0.000000000000D+00 0.000000000000D+00 0.193324010768D-02 0.000000000000D+00  5 -1 1 25 23 21 2 0.21399697D-01 0.19561911D-01 0.17563040D+05 0.17563040D+05 0.17563040D+05 0.12400873D+01  1  2 12  2  5  2        1 0.247180644202D+00 0.100000000000D+01
-.258769040133D-03 0.000000000000D+00 0.000000000000D+00 0.193324010768D-02 0.000000000000D+00  5 -1 1 25 23 21 2 0.21399697D-01 0.18188463D-01 0.15829790D+05 0.15829790D+05 0.15829790D+05 0.12451655D+01  1  2  4  2  5  2        1 -.198777972305D+00 0.100000000000D+01
0.435875671584D-05 0.000000000000D+00 0.000000000000D+00 0.193324010768D-02 0.000000000000D+00  5 -1 21 25 23 -1 2 0.21399697D-01 0.19561911D-01 0.17563040D+05 0.17563040D+05 0.17563040D+05 0.12400873D+01  1  2 12  4  5  2        1 0.262145679769D-01 0.100000000000D+01
  </mgrwgt>
  </event>
  <event>
  4     66 0.43907321E-03 0.11701656E+03 0.75467711E-02 0.11092953E+00
       -1 -1    0    0    0  501 0.00000000E+00 0.00000000E+00 0.15015436E+03 0.15015470E+03 0.32000000E+00 0.0000E+00 0.9000E+01
        1 -1    0    0  501    0 0.00000000E+00 0.00000000E+00 -.23485933E+03 0.23485955E+03 0.32000000E+00 0.0000E+00 0.9000E+01
       25  1    1    2    0    0 0.11126266E+03 0.92579923E+02 -.95178079E+02 0.21362183E+03 0.12500000E+03 0.0000E+00 0.9000E+01
       23  1    1    2    0    0 -.11126266E+03 -.92579923E+02 0.10473112E+02 0.17139241E+03 0.91188000E+02 0.0000E+00 0.9000E+01
#aMCatNLO 1  0  0  2  1 0.12884339D+03 0.00000000D+00  -5  5  0 0.00000000D+00 0.00000000D+00 0.00000000D+00 0.00000000D+00 0.00000000D+00
  <mgrwgt>
 0.7274201944D-01    7    2    0
 0.187790467000516D+03 0.000000000000000D+00 0.000000000000000D+00 0.187790467000516D+03
 0.187790467000516D+03 0.000000000000000D+00 0.000000000000000D+00 -.187790467000516D+03
 0.197521723294772D+03 0.111262658101037D+03 0.925799234791011D+02 -.493903822037445D+02
 0.178059210706261D+03 -.111262658101037D+03 -.925799234791011D+02 0.493903822037445D+02
 0.000000000000000D+00 0.000000000000000D+00 0.000000000000000D+00 -.000000000000000D+00
 0.211675309871958D+03 0.000000000000000D+00 0.000000000000000D+00 0.211675309871958D+03
 0.514322681194079D+03 0.000000000000000D+00 0.000000000000000D+00 -.514322681194079D+03
 0.160198321656260D+03 0.740969245118139D+02 0.459209993917939D+02 -.493903822037445D+02
 0.236867990333285D+03 -.154371994663010D+03 -.146700616597411D+03 0.493903822037445D+02
 0.328931679076492D+03 0.802750701511958D+02 0.100779617205618D+03 -.302647371322121D+03
0.741623762316D-03 0.000000000000D+00 0.000000000000D+00 0.141037513953D-02 0.000000000000D+00  5 -1 1 25 23 21 0 0.23100714D-01 0.36132247D-01 0.32818790D+05 0.32818790D+05 0.32818790D+05 0.12108263D+01  1  2  2  2  5  2        1 0.139090634931D+00 0.100000000000D+01
-.411365827120D-04 0.000000000000D+00 -.284803052131D-05 0.141037513953D-02 0.000000000000D+00  5 -1 1 25 23 21 2 0.23100714D-01 0.36132247D-01 0.32818790D+05 0.32818790D+05 0.32818790D+05 0.12108263D+01  1  2  3  2  5  2        1 -.113111333695D-01 0.100000000000D+01
0.510985474852D-04 0.000000000000D+00 0.000000000000D+00 0.141037513953D-02 0.000000000000D+00  5 -1 1 25 23 21 2 0.23100714D-01 0.36132247D-01 0.32818790D+05 0.32818790D+05 0.32818790D+05 0.12108263D+01  1  2 15  2  5  2        1 0.140503281383D-01 0.100000000000D+01
0.251141101724D-03 0.000000000000D+00 0.000000000000D+00 0.141037513953D-02 0.000000000000D+00  5 -1 1 25 23 21 2 0.23100714D-01 0.96948015D-01 0.65766444D+05 0.65766444D+05 0.65766444D+05 0.11806700D+01  1  2 12  2  5  2        1 0.183681931062D-01 0.100000000000D+01
-.108997392041D-02 0.000000000000D+00 -.269356842754D-03 0.141037513953D-02 0.000000000000D+00  5 -1 1 25 23 21 2 0.23100714D-01 0.10605127D+00 0.32818790D+05 0.32818790D+05 0.32818790D+05 0.12108263D+01  1  2  5  2  5  2        1 -.741873891524D-01 0.100000000000D+01
0.276176937731D-04 0.000000000000D+00 0.000000000000D+00 0.141037513953D-02 0.000000000000D+00  5 -1 21 25 23 -1 2 0.23100714D-01 0.96948015D-01 0.65766444D+05 0.65766444D+05 0.65766444D+05 0.11806700D+01  1  2 12  4  5  2        1 0.479793135183D-02 0.100000000000D+01
-.118972326443D-03 0.000000000000D+00 -.328622626582D-04 0.141037513953D-02 0.000000000000D+00  5 -1 21 25 23 -1 2 0.23100714D-01 0.10605127D+00 0.32818790D+05 0.32818790D+05 0.32818790D+05 0.12108263D+01  1  2  5  4  5  2        1 -.180665455707D-01 0.100000000000D+01
  </mgrwgt>
  </event>
  <event>
  4     66 0.43907321E-03 0.23078142E+03 0.75467711E-02 0.96998005E-01
       -1 -1    0    0    0  501 0.00000000E+00 0.00000000E+00 0.32536232E+03 0.32536247E+03 0.32000000E+00 0.0000E+00 0.9000E+01
        1 -1    0    0  501    0 0.00000000E+00 0.00000000E+00 -.16504072E+03 0.16504103E+03 0.32000000E+00 0.0000E+00 0.9000E+01
       25  1    1    2    0    0 -.11181904E+02 -.20304583E+03 0.60754415E+02 0.24631025E+03 0.12500000E+03 0.0000E+00 0.9000E+01
       23  1    1    2    0    0 0.11181904E+02 0.20304583E+03 0.99567179E+02 0.24409325E+03 0.91188000E+02 0.0000E+00 0.9000E+01
#aMCatNLO 1  0  0  2  1 0.63556082D+03 0.00000000D+00  -5  5  0 0.00000000D+00 0.00000000D+00 0.00000000D+00 0.00000000D+00 0.00000000D+00
  <mgrwgt>
 0.1753119736D+00    3    2    0
 0.231728605835704D+03 0.000000000000000D+00 0.000000000000000D+00 0.231728605835704D+03
 0.231728605835704D+03 0.000000000000000D+00 0.000000000000000D+00 -.231728605835704D+03
 0.239614715353386D+03 -.111819037993449D+02 -.203045825436999D+03 -.209181646879900D+02
 0.223842496318023D+03 0.111819037993449D+02 0.203045825436999D+03 0.209181646879900D+02
 0.000000000000000D+00 0.000000000000000D+00 -.000000000000000D+00 0.000000000000000D+00
 0.918252762406741D+03 0.000000000000000D+00 0.000000000000000D+00 0.918252762406741D+03
 0.585664437858333D+03 0.000000000000000D+00 0.000000000000000D+00 -.585664437858333D+03
 0.179810388246463D+03 -.125459281431176D+03 -.230037999079042D+02 -.209181646879900D+02
 0.606783627122350D+03 -.215132101644210D+03 0.559599614034881D+03 0.209181646879900D+02
 0.717323184896260D+03 0.340591383075386D+03 -.536595814126976D+03 0.332588324548409D+03
0.223613287964D-02 0.000000000000D+00 0.000000000000D+00 0.136955224119D-02 0.000000000000D+00  5 -1 1 25 23 21 0 0.50055777D-01 0.25390916D-01 0.53260066D+05 0.53260066D+05 0.53260066D+05 0.11895746D+01  1  2  2  2  5  2        1 0.172064229807D+00 0.100000000000D+01
-.124227070508D-03 0.000000000000D+00 -.858733904514D-05 0.136955224119D-02 0.000000000000D+00  5 -1 1 25 23 21 2 0.50055777D-01 0.25390916D-01 0.53260066D+05 0.53260066D+05 0.53260066D+05 0.11895746D+01  1  2  3  2  5  2        1 -.135267219603D-01 0.100000000000D+01
0.154053786494D-03 0.000000000000D+00 0.000000000000D+00 0.136955224119D-02 0.000000000000D+00  5 -1 1 25 23 21 2 0.50055777D-01 0.25390916D-01 0.53260066D+05 0.53260066D+05 0.53260066D+05 0.11895746D+01  1  2 15  2  5  2        1 0.167744657289D-01 0.100000000000D+01
  </mgrwgt>
  </event>
  <event>
  5     66 -.43907321E-03 0.12474118E+03 0.75467711E-02 0.12278235E+00
       -1 -1    0    0    0  501 0.00000000E+00 0.00000000E+00 0.30816727E+02 0.30818388E+02 0.32000000E+00 0.0000E+00 0.9000E+01
        1 -1    0    0  502    0 0.00000000E+00 0.00000000E+00 -.55219417E+03 0.55219426E+03 0.32000000E+00 0.0000E+00 0.9000E+01
       25  1    1    2    0    0 -.33501341E+02 0.45323979E+02 -.24596574E+03 0.28160388E+03 0.12500000E+03 0.0000E+00 0.9000E+01
       23  1    1    2    0    0 0.40888799E+02 -.51799130E+02 -.25531906E+03 0.27903068E+03 0.91188000E+02 0.0000E+00 0.9000E+01
       21  1    1    2  502  501 -.73874585E+01 0.64751511E+01 -.20092640E+02 0.22378088E+02 0.75000000E+00 0.0000E+00 0.9000E+01
#aMCatNLO 2  0  0  2  1 0.98235495D+01 0.00000000D+00  -5  5  0 0.00000000D+00 0.00000000D+00 0.00000000D+00 0.00000000D+00 0.00000000D+00
  <mgrwgt>
 -.7880231444D-01    3    2    0
 0.125427426603937D+03 0.000000000000000D+00 0.000000000000000D+00 0.125427426603937D+03
 0.125427426603937D+03 0.000000000000000D+00 0.000000000000000D+00 -.125427426603937D+03
 0.139997104173505D+03 -.375892595632237D+02 0.489070645382278D+02 0.130129082341110D+02
 0.110857749034369D+03 0.375892595632237D+02 -.489070645382278D+02 -.130129082341110D+02
 0.000000000000000D+00 -.000000000000000D+00 0.000000000000000D+00 -.000000000000000D+00
 0.130342957623087D+03 0.000000000000000D+00 0.000000000000000D+00 0.130342957623087D+03
 0.130529488721401D+03 0.000000000000000D+00 0.000000000000000D+00 -.130529488721401D+03
 0.137735030792373D+03 -.335013406146045D+02 0.453239793452728D+02 0.130129082341110D+02
 0.113312095267245D+03 0.408887990793917D+02 -.517991304848740D+02 -.130129082341110D+02
 0.982532028486972D+01 -.738745846478718D+01 0.647515113960119D+01 -.186531098313766D+00
-.269872707880D-03 0.000000000000D+00 0.000000000000D+00 0.202130691693D-02 0.000000000000D+00  5 -1 1 25 23 21 2 0.45618696D-02 0.86480425D-01 0.16835697D+05 0.16835697D+05 0.16835697D+05 0.12421467D+01  1  2 13  2  5  2        1 -.309783389357D+00 0.100000000000D+01
-.225685185887D-04 0.000000000000D+00 0.000000000000D+00 0.202130691693D-02 0.000000000000D+00  5 -1 1 25 23 21 2 0.45618696D-02 0.81623543D-01 0.15560362D+05 0.15560362D+05 0.15560362D+05 0.12460108D+01  1  2  8  2  5  2        1 -.280724632211D-01 0.100000000000D+01
0.233193800849D-03 0.000000000000D+00 0.000000000000D+00 0.202130691693D-02 0.172581443776D-03  5 -1 1 25 23 21 2 0.47406504D-02 0.84943776D-01 0.16835697D+05 0.16835697D+05 0.16835697D+05 0.12421467D+01  1  2  1  2  5  2        1 0.259053538139D+00 0.100000000000D+01
  </mgrwgt>
  </event>
  <event>
  4     66 0.43907321E-03 0.10876678E+03 0.75467711E-02 0.11734565E+00
       -3 -1    0    0    0  501 0.00000000E+00 0.00000000E+00 0.35447760E+02 0.35451287E+02 0.50000000E+00 0.0000E+00 0.9000E+01
        3 -1    0    0  501    0 0.00000000E+00 0.00000000E+00 -.40738356E+03 0.40738387E+03 0.50000000E+00 0.0000E+00 0.9000E+01
       25  1    1    2    0    0 -.48940214E+01 0.10882221E+02 -.11626933E+03 0.17113133E+03 0.12500000E+03 0.0000E+00 0.9000E+01
       23  1    1    2    0    0 0.48940214E+01 -.10882221E+02 -.25566647E+03 0.27170382E+03 0.91188000E+02 0.0000E+00 0.9000E+01
#aMCatNLO 1  0  0  1  1 0.10637582D+03 0.00000000D+00  -5  5  0 0.00000000D+00 0.00000000D+00 0.00000000D+00 0.00000000D+00 0.00000000D+00
  <mgrwgt>
 0.2335305716D-01    3    2    0
 0.120173555718015D+03 0.000000000000000D+00 0.000000000000000D+00 0.120173555718015D+03
 0.120173555718015D+03 0.000000000000000D+00 0.000000000000000D+00 -.120173555718015D+03
 0.135380205409633D+03 -.489402143937763D+01 0.108822213635873D+02 0.506006504809888D+02
 0.104966906026397D+03 0.489402143937763D+01 -.108822213635873D+02 -.506006504809888D+02
 0.000000000000000D+00 0.000000000000000D+00 0.000000000000000D+00 -.000000000000000D+00
 0.149499282121347D+03 0.000000000000000D+00 0.000000000000000D+00 0.149499282121347D+03
 0.287873610597934D+03 0.000000000000000D+00 0.000000000000000D+00 -.287873610597934D+03
 0.147659972016815D+03 -.575188051717152D+02 -.175962654709897D+02 0.506006504809888D+02
 0.115175620114285D+03 -.360363967570086D+02 -.330321722625445D+02 -.506006504809888D+02
 0.174537300588181D+03 0.935552019287239D+02 0.506284377335342D+02 -.138374328476587D+03
0.206206428967D-03 0.000000000000D+00 0.000000000000D+00 0.185746553627D-02 0.000000000000D+00  5 -3 3 25 23 21 0 0.54537964D-02 0.62674689D-01 0.11830212D+05 0.11830212D+05 0.11830212D+05 0.12597501D+01  1  2  2  1  5  1       -3 0.228487852084D-01 0.100000000000D+01
-.113173737094D-04 0.000000000000D+00 -.791886982635D-06 0.185746553627D-02 0.000000000000D+00  5 -3 3 25 23 21 2 0.54537964D-02 0.62674689D-01 0.11830212D+05 0.11830212D+05 0.11830212D+05 0.12597501D+01  1  2  3  1  5  1       -3 -.199010206042D-02 0.100000000000D+01
0.141850829835D-04 0.000000000000D+00 0.000000000000D+00 0.185746553627D-02 0.000000000000D+00  5 -3 3 25 23 21 2 0.54537964D-02 0.62674689D-01 0.11830212D+05 0.11830212D+05 0.11830212D+05 0.12597501D+01  1  2 15  1  5  1       -3 0.249437401269D-02 0.100000000000D+01
  </mgrwgt>
  </event>
  <event>
  4     66 0.43907321E-03 0.11292577E+03 0.75467711E-02 0.12528361E+00
       -1 -1    0    0    0  501 0.00000000E+00 0.00000000E+00 0.78731371E+02 0.78732021E+02 0.32000000E+00 0.0000E+00 0.9000E+01
        1 -1    0    0  501    0 0.00000000E+00 0.00000000E+00 -.20744932E+03 0.20744956E+03 0.32000000E+00 0.0000E+00 0.9000E+01
       25  1    1    2    0    0 -.27602969E+02 0.16794585E+02 -.51011487E+01 0.12920915E+03 0.12500000E+03 0.0000E+00 0.9000E+01
       23  1    1    2    0    0 0.27602969E+02 -.16794585E+02 -.12361680E+03 0.15697244E+03 0.91188000E+02 0.0000E+00 0.9000E+01
#aMCatNLO 1  0  0  2  2 0.26764936D+01 0.00000000D+00  -5  5  0 0.00000000D+00 0.00000000D+00 0.00000000D+00 0.00000000D+00 0.00000000D+00
  <mgrwgt>
 0.1092431966D+00    6    2    0
 0.127800224150578D+03 0.000000000000000D+00 0.000000000000000D+00 0.127800224150578D+03
 0.127800224150578D+03 0.000000000000000D+00 0.000000000000000D+00 -.127800224150578D+03
 0.142099394407485D+03 -.276029690373162D+02 0.167945854628619D+02 0.593570205656381D+02
 0.113501053893671D+03 0.276029690373162D+02 -.167945854628619D+02 -.593570205656381D+02
 0.000000000000000D+00 -.000000000000000D+00 0.000000000000000D+00 0.000000000000000D+00
 0.129756536964214D+03 0.000000000000000D+00 0.000000000000000D+00 0.129756536964214D+03
 0.128725969991116D+03 0.000000000000000D+00 0.000000000000000D+00 -.128725969991116D+03
 0.141771156797649D+03 -.262518421076307D+02 0.161754689350868D+02 0.593570205656381D+02
 0.113843304432052D+03 0.286850505830837D+02 -.172904193883549D+02 -.593570205656381D+02
 0.286804572562907D+01 -.243320847545297D+01 0.111495045326810D+01 0.103056697309796D+01
0.179564580210D-03 0.000000000000D+00 0.000000000000D+00 0.166520440456D-02 0.000000000000D+00  5 -1 1 25 23 21 0 0.12112588D-01 0.31915348D-01 0.12752230D+05 0.12752230D+05 0.12752230D+05 0.12559412D+01  1  2  2  2  5  2        1 0.106790790481D+00 0.100000000000D+01
-.979010101787D-05 0.000000000000D+00 -.689575268446D-06 0.166520440456D-02 0.000000000000D+00  5 -1 1 25 23 21 2 0.12112588D-01 0.31915348D-01 0.12752230D+05 0.12752230D+05 0.12752230D+05 0.12559412D+01  1  2  3  2  5  2        1 -.918414903651D-02 0.100000000000D+01
0.123319803351D-04 0.000000000000D+00 0.000000000000D+00 0.166520440456D-02 0.000000000000D+00  5 -1 1 25 23 21 2 0.12112588D-01 0.31915348D-01 0.12752230D+05 0.12752230D+05 0.12752230D+05 0.12559412D+01  1  2 15  2  5  2        1 0.115687003747D-01 0.100000000000D+01
-.688988585091D-03 0.000000000000D+00 0.000000000000D+00 0.166520440456D-02 0.000000000000D+00  5 -1 1 25 23 21 2 0.12112588D-01 0.31915348D-01 0.12752230D+05 0.12752230D+05 0.12752230D+05 0.12559412D+01  1  2  4  2  5  2        1 -.646344081474D+00 0.100000000000D+01
0.688681525768D-03 0.000000000000D+00 0.000000000000D+00 0.166520440456D-02 0.195208312346D-02  5 -1 1 25 23 21 2 0.12298002D-01 0.32146533D-01 0.13060832D+05 0.13060832D+05 0.13060832D+05 0.12547351D+01  1  2 11  2  5  2        1 0.624847322264D+00 0.100000000000D+01
0.375932044668D-05 0.000000000000D+00 0.000000000000D+00 0.166520440456D-02 0.262863070403D-05  5 -1 21 25 23 -1 2 0.12298002D-01 0.32146533D-01 0.13060832D+05 0.13060832D+05 0.13060832D+05 0.12547351D+01  1  2 11  4  5  2        1 0.215646139813D-01 0.100000000000D+01
  </mgrwgt>
  </event>
  <event>
  4     66 0.43907321E-03 0.11835586E+03 0.75467711E-02 0.11347375E+00
       -1 -1    0    0    0  501 0.00000000E+00 0.00000000E+00 0.26735918E+03 0.26735937E+03 0.32000000E+00 0.0000E+00 0.9000E+01
        1 -1    0    0  501    0 0.00000000E+00 0.00000000E+00 -.67152699E+02 0.67153461E+02 0.32000000E+00 0.0000E+00 0.9000E+01
       25  1    1    2    0    0 -.13377855E+02 -.45797562E+02 0.32403516E+02 0.13766398E+03 0.12500000E+03 0.0000E+00 0.9000E+01
       23  1    1    2    0    0 0.13377855E+02 0.45797562E+02 0.16780296E+03 0.19684885E+03 0.91188000E+02 0.0000E+00 0.9000E+01
#aMCatNLO 1  0  0  1  2 0.15608716D+03 0.00000000D+00  -5  5  0 0.00000000D+00 0.00000000D+00 0.00000000D+00 0.00000000D+00 0.00000000D+00
  <mgrwgt>
 0.1386230868D+00    3    2    0
 0.133992723278787D+03 0.000000000000000D+00 0.000000000000000D+00 0.133992723278787D+03
 0.133992723278787D+03 0.000000000000000D+00 0.000000000000000D+00 -.133992723278787D+03
 0.147631054669349D+03 -.133778554937978D+02 -.457975622141630D+02 -.623982738576262D+02
 0.120354391888225D+03 0.133778554937978D+02 0.457975622141630D+02 0.623982738576262D+02
 0.000000000000000D+00 0.000000000000000D+00 0.000000000000000D+00 -.000000000000000D+00
 0.199523944085610D+03 0.000000000000000D+00 0.000000000000000D+00 0.199523944085610D+03
 0.292059308870936D+03 0.000000000000000D+00 0.000000000000000D+00 -.292059308870936D+03
 0.194018493050442D+03 -.838225855357784D+02 -.105348968762158D+03 -.623982738576262D+02
 0.116109545877077D+03 -.353786506152120D+02 0.458058948352561D+01 0.623982738576262D+02
 0.181455214029026D+03 0.119201236150990D+03 0.100768379278632D+03 -.925353647853258D+02
0.394391657109D-03 0.000000000000D+00 0.000000000000D+00 0.157862691318D-02 0.000000000000D+00  5 -1 1 25 23 21 0 0.41132255D-01 0.10331258D-01 0.14008110D+05 0.14008110D+05 0.14008110D+05 0.12512240D+01  1  2  2  1  5  1       -1 0.135606860254D+00 0.100000000000D+01
-.215004362099D-04 0.000000000000D+00 -.151456780901D-05 0.157862691318D-02 0.000000000000D+00  5 -1 1 25 23 21 2 0.41132255D-01 0.10331258D-01 0.14008110D+05 0.14008110D+05 0.14008110D+05 0.12512240D+01  1  2  3  1  5  1       -1 -.115736765194D-01 0.100000000000D+01
0.271036847792D-04 0.000000000000D+00 0.000000000000D+00 0.157862691318D-02 0.000000000000D+00  5 -1 1 25 23 21 2 0.41132255D-01 0.10331258D-01 0.14008110D+05 0.14008110D+05 0.14008110D+05 0.12512240D+01  1  2 15  1  5  1       -1 0.145899030631D-01 0.100000000000D+01
  </mgrwgt>
  </event>
  <event>
  4     66 0.43907321E-03 0.52732290E+02 0.75467711E-02 0.12219332E+00
       -1 -1    0    0    0  501 0.00000000E+00 0.00000000E+00 0.86996697E+01 0.87055530E+01 0.32000000E+00 0.0000E+00 0.9000E+01
        1 -1    0    0  501    0 0.00000000E+00 0.00000000E+00 -.19745944E+04 0.19745944E+04 0.32000000E+00 0.0000E+00 0.9000E+01
       25  1    1    2    0    0 -.32928542E+02 0.57902439E+02 -.13232516E+04 0.13308106E+04 0.12500000E+03 0.0000E+00 0.9000E+01
       23  1    1    2    0    0 0.32928542E+02 -.57902439E+02 -.64264310E+03 0.65248937E+03 0.91188000E+02 0.0000E+00 0.9000E+01
#aMCatNLO 1  0  0  2  1 0.12667525D+02 0.00000000D+00  -5  5  0 0.00000000D+00 0.00000000D+00 0.00000000D+00 0.00000000D+00 0.00000000D+00
  <mgrwgt>
 0.3174244245D+00    9    2    0
 0.131088437952086D+03 0.000000000000000D+00 0.000000000000000D+00 0.131088437952086D+03
 0.131088437952086D+03 0.000000000000000D+00 0.000000000000000D+00 -.131088437952086D+03
 0.145028928757751D+03 -.329285424882005D+02 0.579024385695268D+02 -.311674329056089D+02
 0.117147947146421D+03 0.329285424882005D+02 -.579024385695268D+02 0.311674329056089D+02
 0.000000000000000D+00 -.000000000000000D+00 0.000000000000000D+00 -.000000000000000D+00
 0.134986384174046D+03 0.000000000000000D+00 0.000000000000000D+00 0.134986384174046D+03
 0.141953327076371D+03 0.000000000000000D+00 0.000000000000000D+00 -.141953327076371D+03
 0.141979835358331D+03 -.295568985157148D+02 0.518483801539146D+02 -.311674329056089D+02
 0.120502888727185D+03 0.357203527341252D+02 -.629153588102340D+02 0.311674329056089D+02
 0.144569871649014D+02 -.616345421841035D+01 0.110669786563194D+02 -.696694290232493D+01
0.260354708669D-03 0.000000000000D+00 0.000000000000D+00 0.185958442421D-02 0.000000000000D+00  5 -1 1 25 23 21 0 0.13388653D-02 0.30378420D+00 0.16200976D+05 0.16200976D+05 0.16200976D+05 0.12440271D+01  1  2  2  2  5  2        1 0.111193027680D+00 0.100000000000D+01
-.144488887058D-04 0.000000000000D+00 -.999830634259D-06 0.185958442421D-02 0.000000000000D+00  5 -1 1 25 23 21 2 0.13388653D-02 0.30378420D+00 0.16200976D+05 0.16200976D+05 0.16200976D+05 0.12440271D+01  1  2  3  2  5  2        1 -.955006396946D-02 0.100000000000D+01
0.180435493507D-04 0.000000000000D+00 0.000000000000D+00 0.185958442421D-02 0.000000000000D+00  5 -1 1 25 23 21 2 0.13388653D-02 0.30378420D+00 0.16200976D+05 0.16200976D+05 0.16200976D+05 0.12440271D+01  1  2 15  2  5  2        1 0.119259725813D-01 0.100000000000D+01
0.666305199377D-03 0.000000000000D+00 0.000000000000D+00 0.185958442421D-02 0.000000000000D+00  5 -1 1 25 23 21 2 0.13388653D-02 0.33321284D+00 0.17900656D+05 0.17900656D+05 0.17900656D+05 0.12391637D+01  1  2 12  2  5  2        1 0.330445328238D+00 0.100000000000D+01
-.652864850577D-03 0.000000000000D+00 0.000000000000D+00 0.185958442421D-02 0.000000000000D+00  5 -1 1 25 23 21 2 0.13388653D-02 0.30378420D+00 0.16200976D+05 0.16200976D+05 0.16200976D+05 0.12440271D+01  1  2  4  2  5  2        1 -.431514230151D+00 0.100000000000D+01
-.185392985633D-02 0.000000000000D+00 -.315183484417D-03 0.185958442421D-02 0.000000000000D+00  5 -1 1 25 23 21 2 0.13388653D-02 0.33294952D+00 0.16200976D+05 0.16200976D+05 0.16200976D+05 0.12440271D+01  1  2  5  2  5  2        1 -.928554535010D+00 0.100000000000D+01
0.187625400702D-02 0.000000000000D+00 0.313863706356D-03 0.185958442421D-02 0.000000000000D+00  5 -1 1 25 23 21 2 0.13388653D-02 0.30378420D+00 0.16200976D+05 0.16200976D+05 0.16200976D+05 0.12440271D+01  1  2  6  2  5  2        1 0.124011930293D+01 0.100000000000D+01
0.101104175472D-04 0.000000000000D+00 0.000000000000D+00 0.185958442421D-02 0.000000000000D+00  5 -1 21 25 23 -1 2 0.13388653D-02 0.33321284D+00 0.17900656D+05 0.17900656D+05 0.17900656D+05 0.12391637D+01  1  2 12  4  5  2        1 0.385002043455D-02 0.100000000000D+01
-.270378148298D-04 0.000000000000D+00 -.474681322120D-05 0.185958442421D-02 0.000000000000D+00  5 -1 21 25 23 -1 2 0.13388653D-02 0.33294952D+00 0.16200976D+05 0.16200976D+05 0.16200976D+05 0.12440271D+01  1  2  5  4  5  2        1 -.104903982546D-01 0.100000000000D+01
  </mgrwgt>
  </event>
  <event>
  4     66 0.43907321E-03 0.14720856E+03 0.75467711E-02 0.11076040E+00
       -1 -1    0    0    0  501 0.00000000E+00 0.00000000E+00 0.36448782E+03 0.36448796E+03 0.32000000E+00 0.0000E+00 0.9000E+01
        1 -1    0    0  501    0 0.00000000E+00 0.00000000E+00 -.63025339E+02 0.63026152E+02 0.32000000E+00 0.0000E+00 0.9000E+01
       25  1    1    2    0    0 0.22179149E+02 0.96759631E+02 0.21343639E+03 0.26652286E+03 0.12500000E+03 0.0000E+00 0.9000E+01
       23  1    1    2    0    0 -.22179149E+02 -.96759631E+02 0.88026097E+02 0.16099126E+03 0.91188000E+02 0.0000E+00 0.9000E+01
#aMCatNLO 1  0  0  1  1 0.17594305D+03 0.00000000D+00  -5  5  0 0.00000000D+00 0.00000000D+00 0.00000000D+00 0.00000000D+00 0.00000000D+00
  <mgrwgt>
 0.1120117424D+00    5    2    0
 0.151565736170621D+03 0.000000000000000D+00 0.000000000000000D+00 0.151565736170621D+03
 0.151565736170621D+03 0.000000000000000D+00 0.000000000000000D+00 -.151565736170621D+03
 0.163622796098353D+03 0.221791493527750D+02 0.967596308571196D+02 0.359594017389676D+02
 0.139508676242889D+03 -.221791493527750D+02 -.967596308571196D+02 -.359594017389676D+02
 0.000000000000000D+00 0.000000000000000D+00 0.000000000000000D+00 0.000000000000000D+00
 0.768254128722554D+03 0.000000000000000D+00 0.000000000000000D+00 0.768254128722554D+03
 0.188296395419107D+03 0.000000000000000D+00 0.000000000000000D+00 -.188296395419107D+03
 0.132233440432878D+03 0.163434217965358D+02 0.173348423491991D+02 0.359594017389676D+02
 0.218258564651049D+03 -.292360637882565D+02 -.192804885052948D+03 -.359594017389676D+02
 0.606058519057735D+03 0.128926419917207D+02 0.175470042703749D+03 0.579957733303447D+03
0.548106091512D-03 0.000000000000D+00 0.000000000000D+00 0.163351330516D-02 0.000000000000D+00  5 -1 1 25 23 21 0 0.56075123D-01 0.96962793D-02 0.21670361D+05 0.21670361D+05 0.21670361D+05 0.12300092D+01  1  2  2  1  5  1       -1 0.118245775572D+00 0.100000000000D+01
-.304188378386D-04 0.000000000000D+00 -.210487171105D-05 0.163351330516D-02 0.000000000000D+00  5 -1 1 25 23 21 2 0.56075123D-01 0.96962793D-02 0.21670361D+05 0.21670361D+05 0.21670361D+05 0.12300092D+01  1  2  3  1  5  1       -1 -.992842504824D-02 0.100000000000D+01
0.379050854173D-04 0.000000000000D+00 0.000000000000D+00 0.163351330516D-02 0.000000000000D+00  5 -1 1 25 23 21 2 0.56075123D-01 0.96962793D-02 0.21670361D+05 0.21670361D+05 0.21670361D+05 0.12300092D+01  1  2 15  1  5  1       -1 0.123718664569D-01 0.100000000000D+01
-.734733840864D-03 0.000000000000D+00 -.216967545722D-03 0.163351330516D-02 0.000000000000D+00  5 -1 1 25 23 21 2 0.30484591D+00 0.96962793D-02 0.21670361D+05 0.21670361D+05 0.21670361D+05 0.12300092D+01  1  2  5  1  5  1       -1 -.279711042409D-02 0.100000000000D+01
-.161859949508D-03 0.000000000000D+00 -.449422933739D-04 0.163351330516D-02 0.000000000000D+00  5 21 1 25 23 1 2 0.30484591D+00 0.96962793D-02 0.21670361D+05 0.21670361D+05 0.21670361D+05 0.12300092D+01  1  2  5  3  5  1       -1 -.588036420018D-02 0.100000000000D+01
  </mgrwgt>
  </event>
  <event>
  4     66 0.43907321E-03 0.11829323E+03 0.75467711E-02 0.12261570E+00
       -1 -1    0    0    0  501 0.00000000E+00 0.00000000E+00 0.19082441E+02 0.19085124E+02 0.32000000E+00 0.0000E+00 0.9000E+01
        1 -1    0    0  501    0 0.00000000E+00 0.00000000E+00 -.76292763E+03 0.76292769E+03 0.32000000E+00 0.0000E+00 0.9000E+01
       25  1    1    2    0    0 -.36831155E+02 0.30087885E+02 -.34212437E+03 0.36733622E+03 0.12500000E+03 0.0000E+00 0.9000E+01
       23  1    1    2    0    0 0.36831155E+02 -.30087885E+02 -.40172082E+03 0.41467660E+03 0.91188000E+02 0.0000E+00 0.9000E+01
#aMCatNLO 1  0  0  2  1 0.23949437D+02 0.00000000D+00  -5  5  0 0.00000000D+00 0.00000000D+00 0.00000000D+00 0.00000000D+00 0.00000000D+00
  <mgrwgt>
 0.8320303937D-01    4    2    0
 0.120663154299101D+03 0.000000000000000D+00 0.000000000000000D+00 0.120663154299101D+03
 0.120663154299101D+03 0.000000000000000D+00 0.000000000000000D+00 -.120663154299101D+03
 0.135808102022497D+03 -.368311551172647D+02 0.300878848672074D+02 0.236013934312929D+02
 0.105518206575704D+03 0.368311551172647D+02 -.300878848672074D+02 -.236013934312929D+02
 0.000000000000000D+00 -.000000000000000D+00 -.000000000000000D+00 0.000000000000000D+00
 0.145213777962642D+03 0.000000000000000D+00 0.000000000000000D+00 0.145213777962642D+03
 0.127241136179796D+03 0.000000000000000D+00 0.000000000000000D+00 -.127241136179796D+03
 0.135135642973952D+03 -.257474540151349D+02 0.376388740775182D+02 0.236013934312929D+02
 0.107376135580824D+03 0.455401853066438D+02 -.241546868870096D+02 -.236013934312929D+02
 0.299431355876615D+02 -.197927312915089D+02 -.134841871905086D+02 0.179726417828467D+02
0.152167463977D-03 0.000000000000D+00 0.000000000000D+00 0.206959349821D-02 0.000000000000D+00  5 -1 1 25 23 21 0 0.29359717D-02 0.11737369D+00 0.13993288D+05 0.13993288D+05 0.13993288D+05 0.12512769D+01  1  2  2  2  5  2        1 0.139893459998D+00 0.100000000000D+01
-.844970363091D-05 0.000000000000D+00 -.584363128285D-06 0.206959349821D-02 0.000000000000D+00  5 -1 1 25 23 21 2 0.29359717D-02 0.11737369D+00 0.13993288D+05 0.13993288D+05 0.13993288D+05 0.12512769D+01  1  2  3  2  5  2        1 -.121625294959D-01 0.100000000000D+01
0.105552438008D-04 0.000000000000D+00 0.000000000000D+00 0.206959349821D-02 0.000000000000D+00  5 -1 1 25 23 21 2 0.29359717D-02 0.11737369D+00 0.13993288D+05 0.13993288D+05 0.13993288D+05 0.12512769D+01  1  2 15  2  5  2        1 0.151932505175D-01 0.100000000000D+01
-.414902136616D-04 0.000000000000D+00 0.000000000000D+00 0.206959349821D-02 0.000000000000D+00  5 -1 1 25 23 21 2 0.29359717D-02 0.11737369D+00 0.13993288D+05 0.13993288D+05 0.13993288D+05 0.12512769D+01  1  2  4  2  5  2        1 -.597211416509D-01 0.100000000000D+01
  </mgrwgt>
  </event>
  <event>
  4     66 0.43907321E-03 0.72866480E+02 0.75467711E-02 0.11804494E+00
       -1 -1    0    0    0  501 0.00000000E+00 0.00000000E+00 0.13280299E+03 0.13280338E+03 0.32000000E+00 0.0000E+00 0.9000E+01
        1 -1    0    0  501    0 0.00000000E+00 0.00000000E+00 -.19338703E+03 0.19338730E+03 0.32000000E+00 0.0000E+00 0.9000E+01
       25  1    1    2    0    0 -.72939852E+02 0.87902733E+02 -.37474352E+01 0.16936988E+03 0.12500000E+03 0.0000E+00 0.9000E+01
       23  1    1    2    0    0 0.72939852E+02 -.87902733E+02 -.56836605E+02 0.15682080E+03 0.91188000E+02 0.0000E+00 0.9000E+01
#aMCatNLO 1  0  0  2  1 0.18992801D+02 0.00000000D+00  -5  5  0 0.00000000D+00 0.00000000D+00 0.00000000D+00 0.00000000D+00 0.00000000D+00
  <mgrwgt>
 0.1466712479D+00    9    2    0
 0.160257552663647D+03 0.000000000000000D+00 0.000000000000000D+00 0.160257552663647D+03
 0.160257552663647D+03 0.000000000000000D+00 0.000000000000000D+00 -.160257552663647D+03
 0.171660679278438D+03 -.729398515797062D+02 0.879027326958490D+02 0.282006462065536D+02
 0.148854426048857D+03 0.729398515797062D+02 -.879027326958490D+02 -.282006462065536D+02
 0.000000000000000D+00 0.000000000000000D+00 0.000000000000000D+00 -.000000000000000D+00
 0.162069037086513D+03 0.000000000000000D+00 0.000000000000000D+00 0.162069037086513D+03
 0.219466801884208D+03 0.000000000000000D+00 0.000000000000000D+00 -.219466801884208D+03
 0.170319036672852D+03 -.789286199088107D+02 0.797406468872162D+02 0.282006462065536D+02
 0.150758304867648D+03 0.676930163137079D+02 -.950536387438780D+02 -.282006462065536D+02
 0.604584974302208D+02 0.112356035951029D+02 0.153129918566618D+02 -.573977647976952D+02
0.391151921469D-03 0.000000000000D+00 0.000000000000D+00 0.160342019722D-02 0.000000000000D+00  5 -1 1 25 23 21 0 0.20431280D-01 0.29751901D-01 0.24883029D+05 0.24883029D+05 0.24883029D+05 0.12235161D+01  1  2  2  2  5  2        1 0.113619597119D+00 0.100000000000D+01
-.217240568121D-04 0.000000000000D+00 -.150212637111D-05 0.160342019722D-02 0.000000000000D+00  5 -1 1 25 23 21 2 0.20431280D-01 0.29751901D-01 0.24883029D+05 0.24883029D+05 0.24883029D+05 0.12235161D+01  1  2  3  2  5  2        1 -.944643764400D-02 0.100000000000D+01
0.269193277733D-04 0.000000000000D+00 0.000000000000D+00 0.160342019722D-02 0.000000000000D+00  5 -1 1 25 23 21 2 0.20431280D-01 0.29751901D-01 0.24883029D+05 0.24883029D+05 0.24883029D+05 0.12235161D+01  1  2 15  2  5  2        1 0.117055370195D-01 0.100000000000D+01
0.328332079700D-02 0.000000000000D+00 0.000000000000D+00 0.160342019722D-02 0.000000000000D+00  5 -1 1 25 23 21 2 0.20431280D-01 0.40866404D-01 0.28065996D+05 0.28065996D+05 0.28065996D+05 0.12179476D+01  1  2 12  2  5  2        1 0.954787947408D+00 0.100000000000D+01
-.317582754419D-02 0.000000000000D+00 0.000000000000D+00 0.160342019722D-02 0.000000000000D+00  5 -1 1 25 23 21 2 0.20431280D-01 0.29751901D-01 0.24883029D+05 0.24883029D+05 0.24883029D+05 0.12235161D+01  1  2  4  2  5  2        1 -.138096936147D+01 0.100000000000D+01
-.357761903744D-02 0.000000000000D+00 -.220708307158D-03 0.160342019722D-02 0.000000000000D+00  5 -1 1 25 23 21 2 0.20431280D-01 0.40999685D-01 0.24883029D+05 0.24883029D+05 0.24883029D+05 0.12235161D+01  1  2  5  2  5  2        1 -.104374351160D+01 0.100000000000D+01
0.347887058339D-02 0.000000000000D+00 0.209827262397D-03 0.160342019722D-02 0.000000000000D+00  5 -1 1 25 23 21 2 0.20431280D-01 0.29751901D-01 0.24883029D+05 0.24883029D+05 0.24883029D+05 0.12235161D+01  1  2  6  2  5  2        1 0.151274388213D+01 0.100000000000D+01
0.132191064472D-03 0.000000000000D+00 0.000000000000D+00 0.160342019722D-02 0.000000000000D+00  5 -1 21 25 23 -1 2 0.20431280D-01 0.40866404D-01 0.28065996D+05 0.28065996D+05 0.28065996D+05 0.12179476D+01  1  2 12  4  5  2        1 0.200229327475D+00 0.100000000000D+01
-.139622390725D-03 0.000000000000D+00 -.895160883802D-05 0.160342019722D-02 0.000000000000D+00  5 -1 21 25 23 -1 2 0.20431280D-01 0.40999685D-01 0.24883029D+05 0.24883029D+05 0.24883029D+05 0.12235161D+01  1  2  5  4  5  2        1 -.212255732523D+00 0.100000000000D+01
  </mgrwgt>
  </event>
  <event>
  4     66 0.43907321E-03 0.13571676E+03 0.75467711E-02 0.11244273E+00
       -1 -1    0    0    0  501 0.00000000E+00 0.00000000E+00 0.79484675E+02 0.79485319E+02 0.32000000E+00 0.0000E+00 0.9000E+01
        1 -1    0    0  501    0 0.00000000E+00 0.00000000E+00 -.24599003E+03 0.24599024E+03 0.32000000E+00 0.0000E+00 0.9000E+01
       25  1    1    2    0    0 0.33648162E+02 -.74148653E+02 -.52032190E+02 0.15799548E+03 0.12500000E+03 0.0000E+00 0.9000E+01
       23  1    1    2    0    0 -.33648162E+02 0.74148653E+02 -.11447317E+03 0.16748009E+03 0.91188000E+02 0.0000E+00 0.9000E+01
#aMCatNLO 1  0  0  1  1 0.15477911D+03 0.00000000D+00  -5  5  0 0.00000000D+00 0.00000000D+00 0.00000000D+00 0.00000000D+00 0.00000000D+00
  <mgrwgt>
 0.1248025509D+00    3    2    0
 0.139830528159489D+03 0.000000000000000D+00 0.000000000000000D+00 0.139830528159489D+03
 0.139830528159489D+03 0.000000000000000D+00 0.000000000000000D+00 -.139830528159489D+03
 0.152899470886471D+03 0.336481615213989D+02 -.741486526211076D+02 0.335115911002005D+02
 0.126761585432507D+03 -.336481615213989D+02 0.741486526211076D+02 -.335115911002005D+02
 0.000000000000000D+00 -.000000000000000D+00 0.000000000000000D+00 -.000000000000000D+00
 0.234704279843775D+03 0.000000000000000D+00 0.000000000000000D+00 0.234704279843775D+03
 0.239794028888552D+03 0.000000000000000D+00 0.000000000000000D+00 -.239794028888552D+03
 0.213404562412108D+03 0.111479462038765D+03 -.127928925829087D+03 0.335115911002005D+02
 0.106230977150018D+03 0.158574745300892D+02 0.399409930485971D+02 -.335115911002005D+02
 0.154862769170201D+03 -.127336936568854D+03 0.879879327804895D+02 -.508974904477771D+01
0.254459226674D-03 0.000000000000D+00 0.000000000000D+00 0.174579295582D-02 0.000000000000D+00  5 -1 1 25 23 21 0 0.12228477D-01 0.37844686D-01 0.18419039D+05 0.18419039D+05 0.18419039D+05 0.12377828D+01  1  2  2  1  5  1       -1 0.122242648754D+00 0.100000000000D+01
-.141212973362D-04 0.000000000000D+00 -.977190431079D-06 0.174579295582D-02 0.000000000000D+00  5 -1 1 25 23 21 2 0.12228477D-01 0.37844686D-01 0.18419039D+05 0.18419039D+05 0.18419039D+05 0.12377828D+01  1  2  3  1  5  1       -1 -.103936483246D-01 0.100000000000D+01
0.175993003165D-04 0.000000000000D+00 0.000000000000D+00 0.174579295582D-02 0.000000000000D+00  5 -1 1 25 23 21 2 0.12228477D-01 0.37844686D-01 0.18419039D+05 0.18419039D+05 0.18419039D+05 0.12377828D+01  1  2 15  1  5  1       -1 0.129535505056D-01 0.100000000000D+01
  </mgrwgt>
  </event>
  <event>
  4     66 0.43907321E-03 0.11718974E+03 0.75467711E-02 0.11413107E+00
       -1 -1    0    0    0  501 0.00000000E+00 0.00000000E+00 0.26795031E+02 0.26796941E+02 0.32000000E+00 0.0000E+00 0.9000E+01
        1 -1    0    0  501    0 0.00000000E+00 0.00000000E+00 -.61061689E+03 0.61061697E+03 0.32000000E+00 0.0000E+00 0.9000E+01
       25  1    1    2    0    0 0.24185578E+02 0.37703233E+02 -.19772191E+03 0.23817101E+03 0.12500000E+03 0.0000E+00 0.9000E+01
       23  1    1    2    0    0 -.24185578E+02 -.37703233E+02 -.38609994E+03 0.39924290E+03 0.91188000E+02 0.0000E+00 0.9000E+01
#aMCatNLO 1  0  0  1  1 0.14484483D+03 0.00000000D+00  -5  5  0 0.00000000D+00 0.00000000D+00 0.00000000D+00 0.00000000D+00 0.00000000D+00
  <mgrwgt>
 0.1555439397D+00    5    2    0
 0.127914556997945D+03 0.000000000000000D+00 0.000000000000000D+00 0.127914556997945D+03
 0.127914556997945D+03 0.000000000000000D+00 0.000000000000000D+00 -.127914556997945D+03
 0.142200946341648D+03 0.241855782526534D+02 0.377032329819931D+02 0.508884384487345D+02
 0.113628167654241D+03 -.241855782526534D+02 -.377032329819931D+02 -.508884384487345D+02
 0.000000000000000D+00 -.000000000000000D+00 0.000000000000000D+00 0.000000000000000D+00
 0.271504169055635D+03 0.000000000000000D+00 0.000000000000000D+00 0.271504169055635D+03
 0.189118690080517D+03 0.000000000000000D+00 0.000000000000000D+00 -.189118690080517D+03
 0.149748422266396D+03 0.563544420246055D+02 -.321579487470761D+02 0.508884384487345D+02
 0.144238927046496D+03 0.422788083529506D+01 -.994087953222260D+02 -.508884384487345D+02
 0.166635509823261D+03 -.605823228599005D+02 0.131566744069302D+03 0.823854789751181D+02
0.182273762460D-03 0.000000000000D+00 0.000000000000D+00 0.175183538980D-02 0.000000000000D+00  5 -1 1 25 23 21 0 0.41224658D-02 0.93941213D-01 0.13733434D+05 0.13733434D+05 0.13733434D+05 0.12522140D+01  1  2  2  1  5  1       -1 0.139842639102D+00 0.100000000000D+01
-.100319083354D-04 0.000000000000D+00 -.699979241629D-06 0.175183538980D-02 0.000000000000D+00  5 -1 1 25 23 21 2 0.41224658D-02 0.93941213D-01 0.13733434D+05 0.13733434D+05 0.13733434D+05 0.12522140D+01  1  2  3  1  5  1       -1 -.120685775451D-01 0.100000000000D+01
0.125474107167D-04 0.000000000000D+00 0.000000000000D+00 0.175183538980D-02 0.000000000000D+00  5 -1 1 25 23 21 2 0.41224658D-02 0.93941213D-01 0.13733434D+05 0.13733434D+05 0.13733434D+05 0.12522140D+01  1  2 15  1  5  1       -1 0.150947750080D-01 0.100000000000D+01
0.771310821137D-05 0.000000000000D+00 -.560857644729D-04 0.175183538980D-02 0.000000000000D+00  5 -1 1 25 23 21 2 0.12942198D-01 0.93941213D-01 0.13733434D+05 0.13733434D+05 0.13733434D+05 0.12522140D+01  1  2  5  1  5  1       -1 0.167009119212D-02 0.100000000000D+01
0.355729497831D-05 0.000000000000D+00 -.736332328553D-05 0.175183538980D-02 0.000000000000D+00  5 21 1 25 23 1 2 0.12942198D-01 0.93941213D-01 0.13733434D+05 0.13733434D+05 0.13733434D+05 0.12522140D+01  1  2  5  3  5  1       -1 0.110050119557D-01 0.100000000000D+01
  </mgrwgt>
  </event>
  <event>
  4     66 0.43907321E-03 0.70733750E+02 0.75467711E-02 0.12001101E+00
       -1 -1    0    0    0  501 0.00000000E+00 0.00000000E+00 0.64882772E+02 0.64883561E+02 0.32000000E+00 0.0000E+00 0.9000E+01
        1 -1    0    0  501    0 0.00000000E+00 0.00000000E+00 -.27362433E+03 0.27362451E+03 0.32000000E+00 0.0000E+00 0.9000E+01
       25  1    1    2    0    0 0.62090647E+02 0.44506820E+02 -.10032519E+03 0.17755633E+03 0.12500000E+03 0.0000E+00 0.9000E+01
       23  1    1    2    0    0 -.62090647E+02 -.44506820E+02 -.10841636E+03 0.16095175E+03 0.91188000E+02 0.0000E+00 0.9000E+01
#aMCatNLO 1  0  0  1  2 0.33074394D+02 0.00000000D+00  -5  5  0 0.00000000D+00 0.00000000D+00 0.00000000D+00 0.00000000D+00 0.00000000D+00
  <mgrwgt>
 0.1525924662D+00    9    2    0
 0.133242898027432D+03 0.000000000000000D+00 0.000000000000000D+00 0.133242898027432D+03
 0.133242898027432D+03 0.000000000000000D+00 0.000000000000000D+00 -.133242898027432D+03
 0.146957979214151D+03 0.620906472480546D+02 0.445068195562363D+02 0.116422588879090D+02
 0.119527816840712D+03 -.620906472480546D+02 -.445068195562363D+02 -.116422588879090D+02
 0.000000000000000D+00 0.000000000000000D+00 0.000000000000000D+00 0.000000000000000D+00
 0.152519213996243D+03 0.000000000000000D+00 0.000000000000000D+00 0.152519213996243D+03
 0.149247081641524D+03 0.000000000000000D+00 0.000000000000000D+00 -.149247081641524D+03
 0.140248474169487D+03 0.443408595668074D+02 0.440792523499755D+02 0.116422588879090D+02
 0.128281961758203D+03 -.774056615997419D+02 -.448757365268384D+02 -.116422588879090D+02
 0.332358597100774D+02 0.330648020329346D+02 0.796484176862907D+00 0.327213235471882D+01
0.183516195996D-03 0.000000000000D+00 0.000000000000D+00 0.190263654492D-02 0.000000000000D+00  5 -1 1 25 23 21 0 0.99820400D-02 0.42096125D-01 0.17616665D+05 0.17616665D+05 0.17616665D+05 0.12399393D+01  1  2  2  1  5  1       -1 0.105408929855D+00 0.100000000000D+01
-.101951582349D-04 0.000000000000D+00 -.704750513547D-06 0.190263654492D-02 0.000000000000D+00  5 -1 1 25 23 21 2 0.99820400D-02 0.42096125D-01 0.17616665D+05 0.17616665D+05 0.17616665D+05 0.12399393D+01  1  2  3  1  5  1       -1 -.900321916660D-02 0.100000000000D+01
0.126829661189D-04 0.000000000000D+00 0.000000000000D+00 0.190263654492D-02 0.000000000000D+00  5 -1 1 25 23 21 2 0.99820400D-02 0.42096125D-01 0.17616665D+05 0.17616665D+05 0.17616665D+05 0.12399393D+01  1  2 15  1  5  1       -1 0.112001717894D-01 0.100000000000D+01
0.131180245500D-03 0.000000000000D+00 0.000000000000D+00 0.190263654492D-02 0.000000000000D+00  5 -1 1 25 23 21 2 0.11948752D-01 0.42096125D-01 0.22588795D+05 0.22588795D+05 0.22588795D+05 0.12280484D+01  1  2 12  1  5  1       -1 0.868224801120D-01 0.100000000000D+01
-.115590338104D-03 0.000000000000D+00 0.000000000000D+00 0.190263654492D-02 0.000000000000D+00  5 -1 1 25 23 21 2 0.99820400D-02 0.42096125D-01 0.17616665D+05 0.17616665D+05 0.17616665D+05 0.12399393D+01  1  2  4  1  5  1       -1 -.102076409558D+00 0.100000000000D+01
-.330640526386D-03 0.000000000000D+00 -.104491418629D-03 0.190263654492D-02 0.000000000000D+00  5 -1 1 25 23 21 2 0.12767924D-01 0.42096125D-01 0.17616665D+05 0.17616665D+05 0.17616665D+05 0.12399393D+01  1  2  5  1  5  1       -1 -.200045185004D+00 0.100000000000D+01
0.348827432401D-03 0.000000000000D+00 0.101403889007D-03 0.190263654492D-02 0.000000000000D+00  5 -1 1 25 23 21 2 0.99820400D-02 0.42096125D-01 0.17616665D+05 0.17616665D+05 0.17616665D+05 0.12399393D+01  1  2  6  1  5  1       -1 0.308045226260D+00 0.100000000000D+01
0.345731577920D-05 0.000000000000D+00 0.000000000000D+00 0.190263654492D-02 0.000000000000D+00  5 21 1 25 23 1 2 0.11948752D-01 0.42096125D-01 0.22588795D+05 0.22588795D+05 0.22588795D+05 0.12280484D+01  1  2 12  3  5  1       -1 0.330310765492D-01 0.100000000000D+01
-.935527855876D-05 0.000000000000D+00 -.349600882015D-05 0.190263654492D-02 0.000000000000D+00  5 21 1 25 23 1 2 0.12767924D-01 0.42096125D-01 0.17616665D+05 0.17616665D+05 0.17616665D+05 0.12399393D+01  1  2  5  3  5  1       -1 -.807906046556D-01 0.100000000000D+01
  </mgrwgt>
  </event>
  <event>
  4     66 0.43907321E-03 0.10960152E+03 0.75467711E-02 0.11117934E+00
       -1 -1    0    0    0  501 0.00000000E+00 0.00000000E+00 0.25560848E+03 0.25560868E+03 0.32000000E+00 0.0000E+00 0.9000E+01
        1 -1    0    0  501    0 0.00000000E+00 0.00000000E+00 -.46995746E+02 0.46996836E+02 0.32000000E+00 0.0000E+00 0.9000E+01
       25  1    1    2    0    0 -.78100508E+00 -.17881864E+02 0.12080517E+03 0.17475485E+03 0.12500000E+03 0.0000E+00 0.9000E+01
       23  1    1    2    0    0 0.78100508E+00 0.17881864E+02 0.87807564E+02 0.12785066E+03 0.91188000E+02 0.0000E+00 0.9000E+01
#aMCatNLO 1  0  0  1  2 0.20481449D+03 0.00000000D+00  -5  5  0 0.00000000D+00 0.00000000D+00 0.00000000D+00 0.00000000D+00 0.00000000D+00
  <mgrwgt>
 0.1073583984D+00    3    2    0
 0.109602491814913D+03 0.000000000000000D+00 0.000000000000000D+00 0.109602491814913D+03
 0.109602491814913D+03 0.000000000000000D+00 0.000000000000000D+00 -.109602491814913D+03
 0.126275809489898D+03 -.781005077182569D+00 -.178818638878658D+02 0.457205964750094D+00
 0.929291741399274D+02 0.781005077182569D+00 0.178818638878658D+02 -.457205964750094D+00
 0.000000000000000D+00 0.000000000000000D+00 -.000000000000000D+00 -.000000000000000D+00
 0.164107071249321D+03 0.000000000000000D+00 0.000000000000000D+00 0.164107071249321D+03
 0.893394292434808D+03 0.000000000000000D+00 0.000000000000000D+00 -.893394292434808D+03
 0.171815746544681D+03 -.117740288661248D+03 -.571543081295655D+01 0.457205964750094D+00
 0.128183917686021D+03 -.859749874609648D+02 0.269064658238381D+02 -.457205964750094D+00
 0.757501699453428D+03 0.203715276122213D+03 -.211910350108816D+02 -.729287221185487D+03
0.176735672443D-03 0.000000000000D+00 0.000000000000D+00 0.241837229719D-02 0.000000000000D+00  5 -1 1 25 23 21 0 0.39324480D-01 0.72302140D-02 0.12012492D+05 0.12012492D+05 0.12012492D+05 0.12589712D+01  1  2  2  1  5  1       -1 0.105074746432D+00 0.100000000000D+01
-.981864846813D-05 0.000000000000D+00 -.678711517754D-06 0.241837229719D-02 0.000000000000D+00  5 -1 1 25 23 21 2 0.39324480D-01 0.72302140D-02 0.12012492D+05 0.12012492D+05 0.12012492D+05 0.12589712D+01  1  2  3  1  5  1       -1 -.925246396474D-02 0.100000000000D+01
0.122420435255D-04 0.000000000000D+00 0.000000000000D+00 0.241837229719D-02 0.000000000000D+00  5 -1 1 25 23 21 2 0.39324480D-01 0.72302140D-02 0.12012492D+05 0.12012492D+05 0.12012492D+05 0.12589712D+01  1  2 15  1  5  1       -1 0.115361158862D-01 0.100000000000D+01
  </mgrwgt>
  </event>
  <event>
  4     66 0.43907321E-03 0.48879322E+02 0.75467711E-02 0.12327998E+00
       -1 -1    0    0    0  501 0.00000000E+00 0.00000000E+00 0.74988085E+02 0.74988768E+02 0.32000000E+00 0.0000E+00 0.9000E+01
        1 -1    0    0  501    0 0.00000000E+00 0.00000000E+00 -.17821386E+03 0.17821415E+03 0.32000000E+00 0.0000E+00 0.9000E+01
       25  1    1    2    0    0 -.97476369E+01 -.28530727E+02 -.88356438E+02 0.15601564E+03 0.12500000E+03 0.0000E+00 0.9000E+01
       23  1    1    2    0    0 0.97476369E+01 0.28530727E+02 -.14869339E+02 0.97187280E+02 0.91188000E+02 0.0000E+00 0.9000E+01
#aMCatNLO 1  0  0  2  1 0.26701495D+02 0.00000000D+00  -5  5  0 0.00000000D+00 0.00000000D+00 0.00000000D+00 0.00000000D+00 0.00000000D+00
  <mgrwgt>
 0.1586855241D+00    9    2    0
 0.115602936818667D+03 0.000000000000000D+00 0.000000000000000D+00 0.115602936818667D+03
 0.115602936818667D+03 0.000000000000000D+00 0.000000000000000D+00 -.115602936818667D+03
 0.131410815184823D+03 -.974763689515832D+01 -.285307266668838D+02 -.271068913444450D+02
 0.997950584525097D+02 0.974763689515832D+01 0.285307266668838D+02 0.271068913444450D+02
 0.000000000000000D+00 -.000000000000000D+00 0.000000000000000D+00 -.000000000000000D+00
 0.125087988721947D+03 0.000000000000000D+00 0.000000000000000D+00 0.125087988721947D+03
 0.136819742890180D+03 0.000000000000000D+00 0.000000000000000D+00 -.136819742890180D+03
 0.131304336289101D+03 0.535774051690689D+01 -.291948589055549D+02 -.271068913444450D+02
 0.101438280884373D+03 0.213179841763105D+02 0.280220177195724D+02 0.271068913444450D+02
 0.291651144386531D+02 -.266757246932174D+02 0.117284118598248D+01 -.117317541682336D+02
0.130350470314D-03 0.000000000000D+00 0.000000000000D+00 0.215708477508D-02 0.000000000000D+00  5 -1 1 25 23 21 0 0.11536703D-01 0.27417592D-01 0.12614405D+05 0.12614405D+05 0.12614405D+05 0.12564905D+01  1  2  2  2  5  2        1 0.100771112498D+00 0.100000000000D+01
-.723435721208D-05 0.000000000000D+00 -.500580128074D-06 0.215708477508D-02 0.000000000000D+00  5 -1 1 25 23 21 2 0.11536703D-01 0.27417592D-01 0.12614405D+05 0.12614405D+05 0.12614405D+05 0.12564905D+01  1  2  3  2  5  2        1 -.882961608466D-02 0.100000000000D+01
0.900871333893D-05 0.000000000000D+00 0.000000000000D+00 0.215708477508D-02 0.000000000000D+00  5 -1 1 25 23 21 2 0.11536703D-01 0.27417592D-01 0.12614405D+05 0.12614405D+05 0.12614405D+05 0.12564905D+01  1  2 15  2  5  2        1 0.109952381210D-01 0.100000000000D+01
0.159087979354D-03 0.000000000000D+00 0.000000000000D+00 0.215708477508D-02 0.000000000000D+00  5 -1 1 25 23 21 2 0.11536703D-01 0.33415506D-01 0.15992983D+05 0.15992983D+05 0.15992983D+05 0.12446614D+01  1  2 12  2  5  2        1 0.150395591696D+00 0.100000000000D+01
-.157521460800D-03 0.000000000000D+00 0.000000000000D+00 0.215708477508D-02 0.000000000000D+00  5 -1 1 25 23 21 2 0.11536703D-01 0.27417592D-01 0.12614405D+05 0.12614405D+05 0.12614405D+05 0.12564905D+01  1  2  4  2  5  2        1 -.192256752492D+00 0.100000000000D+01
-.337534518039D-03 0.000000000000D+00 -.926863001544D-04 0.215708477508D-02 0.000000000000D+00  5 -1 1 25 23 21 2 0.11536703D-01 0.34859133D-01 0.12614405D+05 0.12614405D+05 0.12614405D+05 0.12564905D+01  1  2  5  2  5  2        1 -.306207481555D+00 0.100000000000D+01
0.352197643055D-03 0.000000000000D+00 0.900767678234D-04 0.215708477508D-02 0.000000000000D+00  5 -1 1 25 23 21 2 0.11536703D-01 0.27417592D-01 0.12614405D+05 0.12614405D+05 0.12614405D+05 0.12564905D+01  1  2  6  2  5  2        1 0.429861269348D+00 0.100000000000D+01
0.451471077424D-05 0.000000000000D+00 0.000000000000D+00 0.215708477508D-02 0.000000000000D+00  5 -1 21 25 23 -1 2 0.11536703D-01 0.33415506D-01 0.15992983D+05 0.15992983D+05 0.15992983D+05 0.12446614D+01  1  2 12  4  5  2        1 0.261439987092D-01 0.100000000000D+01
-.963416282764D-05 0.000000000000D+00 -.304468454212D-05 0.215708477508D-02 0.000000000000D+00  5 -1 21 25 23 -1 2 0.11536703D-01 0.34859133D-01 0.12614405D+05 0.12614405D+05 0.12614405D+05 0.12564905D+01  1  2  5  4  5  2        1 -.521878361383D-01 0.100000000000D+01
  </mgrwgt>
  </event>
  <event>
  5     66 0.43907321E-03 0.15163095E+03 0.75467711E-02 0.11769610E+00
       21 -1    0    0  502  501 0.00000000E+00 0.00000000E+00 0.42509449E+02 0.42516065E+02 0.75000000E+00 0.0000E+00 0.9000E+01
        1 -1    0    0  501    0 0.00000000E+00 0.00000000E+00 -.79764849E+03 0.79764855E+03 0.32000000E+00 0.0000E+00 0.9000E+01
       25  1    1    2    0    0 -.88100873E+02 -.20983893E+02 -.20261308E+03 0.25471385E+03 0.12500000E+03 0.0000E+00 0.9000E+01
       23  1    1    2    0    0 0.12042622E+03 0.46466654E+01 -.37576375E+03 0.40501569E+03 0.91188000E+02 0.0000E+00 0.9000E+01
        1  1    1    2  502    0 -.32325345E+02 0.16337227E+02 -.17676221E+03 0.18043507E+03 0.32000000E+00 0.0000E+00 0.9000E+01
#aMCatNLO 2  0  0  1  1 0.36219234D+02 0.00000000D+00  -5  5  0 0.00000000D+00 0.00000000D+00 0.00000000D+00 0.00000000D+00 0.00000000D+00
  <mgrwgt>
 0.4706282164D-01    1    2    0
 0.157647936553574D+03 0.000000000000000D+00 0.000000000000000D+00 0.157647936553574D+03
 0.157647936553574D+03 0.000000000000000D+00 0.000000000000000D+00 -.157647936553574D+03
 0.169239824173232D+03 -.104935331871507D+03 -.124757582375064D+02 0.430122037054876D+02
 0.146056048933916D+03 0.104935331871507D+03 0.124757582375064D+02 -.430122037054876D+02
 0.000000000000000D+00 -.000000000000000D+00 0.000000000000000D+00 -.000000000000000D+00
 0.165848411079560D+03 0.000000000000000D+00 0.000000000000000D+00 0.165848411079560D+03
 0.204465102330915D+03 0.000000000000000D+00 0.000000000000000D+00 -.204465102330915D+03
 0.160240872637539D+03 -.881008730957222D+02 -.209838927706212D+02 0.430122037054876D+02
 0.157128502847635D+03 0.120426217643649D+03 0.464666542603573D+01 -.430122037054876D+02
 0.529441379253009D+02 -.323253445479264D+02 0.163372273445855D+02 -.386166912513547D+02
0.722216509293D-05 0.000000000000D+00 0.000000000000D+00 0.156114336665D-02 0.105178756191D-06  5 21 1 25 23 1 2 0.65404106D-02 0.12271532D+00 0.29190801D+05 0.29190801D+05 0.29190801D+05 0.12161467D+01  1  2  1  3  5  1       -1 0.470628216373D-01 0.100000000000D+01
  </mgrwgt>
  </event>
  <event>
  4     66 0.43907321E-03 0.11112982E+03 0.75467711E-02 0.99956961E-01
       -1 -1    0    0    0  501 0.00000000E+00 0.00000000E+00 0.61349389E+02 0.61350224E+02 0.32000000E+00 0.0000E+00 0.9000E+01
        1 -1    0    0  501    0 0.00000000E+00 0.00000000E+00 -.42844204E+03 0.42844216E+03 0.32000000E+00 0.0000E+00 0.9000E+01
       25  1    1    2    0    0 0.48745893E+01 0.25027191E+02 -.37370077E+03 0.39487642E+03 0.12500000E+03 0.0000E+00 0.9000E+01
       23  1    1    2    0    0 -.48745893E+01 -.25027191E+02 0.66081171E+01 0.94915965E+02 0.91188000E+02 0.0000E+00 0.9000E+01
#aMCatNLO 1  0  0  2  1 0.53706180D+03 0.00000000D+00  -5  5  0 0.00000000D+00 0.00000000D+00 0.00000000D+00 0.00000000D+00 0.00000000D+00
  <mgrwgt>
 0.1243161977D+00    5    2    0
 0.162126158863987D+03 0.000000000000000D+00 0.000000000000000D+00 0.162126158863987D+03
 0.162126158863987D+03 0.000000000000000D+00 0.000000000000000D+00 -.162126158863987D+03
 0.173397857254949D+03 0.487458933901190D+01 0.250271912521289D+02 -.117438047401227D+03
 0.150854460473025D+03 -.487458933901190D+01 -.250271912521289D+02 0.117438047401227D+03
 0.000000000000000D+00 0.000000000000000D+00 -.000000000000000D+00 -.000000000000000D+00
 0.425265913658977D+03 0.000000000000000D+00 0.000000000000000D+00 0.425265913658977D+03
 0.959882950783829D+03 0.000000000000000D+00 0.000000000000000D+00 -.959882950783829D+03
 0.371990972430971D+03 -.961705243579991D+02 0.315771782839180D+03 -.117438047401227D+03
 0.255364545249838D+03 -.801354736567041D+02 0.191526526912226D+03 0.117438047401227D+03
 0.757793346761997D+03 0.176305998014703D+03 -.507298309751405D+03 -.534617037124852D+03
0.334242496730D-03 0.000000000000D+00 0.000000000000D+00 0.908567685158D-03 0.000000000000D+00  5 -1 1 25 23 21 0 0.94384410D-02 0.65914234D-01 0.12349837D+05 0.12349837D+05 0.12349837D+05 0.12575641D+01  1  2  2  2  5  2        1 0.118519564547D+00 0.100000000000D+01
-.153486352209D-04 0.000000000000D+00 -.128357919551D-05 0.908567685158D-03 0.000000000000D+00  5 -1 1 25 23 21 2 0.94384410D-02 0.65914234D-01 0.12349837D+05 0.12349837D+05 0.12349837D+05 0.12575641D+01  1  2  3  2  5  2        1 -.860713079171D-02 0.100000000000D+01
0.229068656528D-04 0.000000000000D+00 0.000000000000D+00 0.908567685158D-03 0.000000000000D+00  5 -1 1 25 23 21 2 0.94384410D-02 0.65914234D-01 0.12349837D+05 0.12349837D+05 0.12349837D+05 0.12575641D+01  1  2 15  2  5  2        1 0.128455974010D-01 0.100000000000D+01
0.545541623562D-03 0.000000000000D+00 -.233265797285D-03 0.908567685158D-03 0.000000000000D+00  5 -1 1 25 23 21 2 0.94384410D-02 0.56608217D+00 0.12349837D+05 0.12349837D+05 0.12349837D+05 0.12575641D+01  1  2  5  2  5  2        1 0.148040810353D-02 0.100000000000D+01
0.110684949633D-03 0.000000000000D+00 -.605648252066D-04 0.908567685158D-03 0.000000000000D+00  5 -1 21 25 23 -1 2 0.94384410D-02 0.56608217D+00 0.12349837D+05 0.12349837D+05 0.12349837D+05 0.12575641D+01  1  2  5  4  5  2        1 0.777584018677D-04 0.100000000000D+01
  </mgrwgt>
  </event>
  <event>
  4     66 0.43907321E-03 0.12813589E+03 0.75467711E-02 0.10565237E+00
       -1 -1    0    0    0  501 0.00000000E+00 0.00000000E+00 0.35325415E+03 0.35325429E+03 0.32000000E+00 0.0000E+00 0.9000E+01
        1 -1    0    0  501    0 0.00000000E+00 0.00000000E+00 -.47210212E+02 0.47211296E+02 0.32000000E+00 0.0000E+00 0.9000E+01
       25  1    1    2    0    0 0.45212842E+02 -.51067364E+02 0.19457255E+03 0.24111315E+03 0.12500000E+03 0.0000E+00 0.9000E+01
       23  1    1    2    0    0 -.45212842E+02 0.51067364E+02 0.11147139E+03 0.15935244E+03 0.91188000E+02 0.0000E+00 0.9000E+01
#aMCatNLO 1  0  0  2  1 0.32050845D+03 0.00000000D+00  -5  5  0 0.00000000D+00 0.00000000D+00 0.00000000D+00 0.00000000D+00 0.00000000D+00
  <mgrwgt>
 0.1196347247D+00    3    2    0
 0.129141198888849D+03 0.000000000000000D+00 0.000000000000000D+00 0.129141198888849D+03
 0.129141198888849D+03 0.000000000000000D+00 0.000000000000000D+00 -.129141198888849D+03
 0.143291889603536D+03 0.452128421477288D+02 -.510673637528346D+02 0.159840198452179D+02
 0.114990508174162D+03 -.452128421477288D+02 0.510673637528346D+02 -.159840198452179D+02
 0.000000000000000D+00 -.000000000000000D+00 0.000000000000000D+00 0.000000000000000D+00
 0.366573887866596D+03 0.000000000000000D+00 0.000000000000000D+00 0.366573887866596D+03
 0.365561561458174D+03 0.000000000000000D+00 0.000000000000000D+00 -.365561561458174D+03
 0.305712856996886D+03 0.110044018132334D+03 -.255871405428736D+03 0.159840198452179D+02
 0.105912538898714D+03 -.133169559043211D+02 -.496929003681783D+02 -.159840198452179D+02
 0.320510053429170D+03 -.967270622280129D+02 0.305564305796914D+03 0.101232640842130D+01
0.350421925897D-03 0.000000000000D+00 0.000000000000D+00 0.195193714814D-02 0.000000000000D+00  5 -1 1 25 23 21 0 0.54346886D-01 0.72632041D-02 0.16418806D+05 0.16418806D+05 0.16418806D+05 0.12433726D+01  1  2  2  2  5  2        1 0.117143200617D+00 0.100000000000D+01
-.194664391238D-04 0.000000000000D+00 -.134571246366D-05 0.195193714814D-02 0.000000000000D+00  5 -1 1 25 23 21 2 0.54346886D-01 0.72632041D-02 0.16418806D+05 0.16418806D+05 0.16418806D+05 0.12433726D+01  1  2  3  2  5  2        1 -.100603928159D-01 0.100000000000D+01
0.242874339963D-04 0.000000000000D+00 0.000000000000D+00 0.195193714814D-02 0.000000000000D+00  5 -1 1 25 23 21 2 0.54346886D-01 0.72632041D-02 0.16418806D+05 0.16418806D+05 0.16418806D+05 0.12433726D+01  1  2 15  2  5  2        1 0.125519169140D-01 0.100000000000D+01
  </mgrwgt>
  </event>
  <event>
  4     66 0.43907321E-03 0.11679353E+03 0.75467711E-02 0.10641133E+00
       -1 -1    0    0    0  501 0.00000000E+00 0.00000000E+00 0.31859089E+02 0.31860696E+02 0.32000000E+00 0.0000E+00 0.9000E+01
        1 -1    0    0  501    0 0.00000000E+00 0.00000000E+00 -.72245365E+03 0.72245373E+03 0.32000000E+00 0.0000E+00 0.9000E+01
       25  1    1    2    0    0 0.20411827E+01 0.43717913E+02 -.61215135E+03 0.62631438E+03 0.12500000E+03 0.0000E+00 0.9000E+01
       23  1    1    2    0    0 -.20411827E+01 -.43717913E+02 -.78443214E+02 0.12800005E+03 0.91188000E+02 0.0000E+00 0.9000E+01
#aMCatNLO 1  0  0  1  1 0.30672801D+03 0.00000000D+00  -5  5  0 0.00000000D+00 0.00000000D+00 0.00000000D+00 0.00000000D+00 0.00000000D+00
  <mgrwgt>
 0.1682528825D+00    5    2    0
 0.151714694256068D+03 0.000000000000000D+00 0.000000000000000D+00 0.151714694256068D+03
 0.151714694256068D+03 0.000000000000000D+00 0.000000000000000D+00 -.151714694256068D+03
 0.163759916196901D+03 0.204118274943872D+01 0.437179128276712D+02 -.963166020153926D+02
 0.139669472315234D+03 -.204118274943872D+01 -.437179128276712D+02 0.963166020153926D+02
 0.000000000000000D+00 -.000000000000000D+00 0.000000000000000D+00 0.000000000000000D+00
 0.408998141929463D+03 0.000000000000000D+00 0.000000000000000D+00 0.408998141929463D+03
 0.337422972135676D+03 0.000000000000000D+00 0.000000000000000D+00 -.337422972135676D+03
 0.209996610641822D+03 0.131703883060341D+03 -.430206443941685D+02 -.963166020153926D+02
 0.221456128480368D+03 0.123239627586108D+03 -.127525181302201D+03 0.963166020153926D+02
 0.314968374942949D+03 -.254943510646449D+03 0.170545825696370D+03 0.715751697937876D+02
0.268208698998D-03 0.000000000000D+00 0.000000000000D+00 0.114117158528D-02 0.000000000000D+00  5 -1 1 25 23 21 0 0.49015274D-02 0.11114685D+00 0.13640728D+05 0.13640728D+05 0.13640728D+05 0.12525531D+01  1  2  2  1  5  1       -1 0.126158454466D+00 0.100000000000D+01
-.136607228839D-04 0.000000000000D+00 -.102999202513D-05 0.114117158528D-02 0.000000000000D+00  5 -1 1 25 23 21 2 0.49015274D-02 0.11114685D+00 0.13640728D+05 0.13640728D+05 0.13640728D+05 0.12525531D+01  1  2  3  1  5  1       -1 -.100811361187D-01 0.100000000000D+01
0.184234799204D-04 0.000000000000D+00 0.000000000000D+00 0.114117158528D-02 0.000000000000D+00  5 -1 1 25 23 21 2 0.49015274D-02 0.11114685D+00 0.13640728D+05 0.13640728D+05 0.13640728D+05 0.12525531D+01  1  2 15  1  5  1       -1 0.135958843785D-01 0.100000000000D+01
0.269400841655D-03 0.000000000000D+00 -.122318075920D-03 0.114117158528D-02 0.000000000000D+00  5 -1 1 25 23 21 2 0.30082367D-01 0.11114685D+00 0.13640728D+05 0.13640728D+05 0.13640728D+05 0.12525531D+01  1  2  5  1  5  1       -1 0.119563048485D-01 0.100000000000D+01
0.515439678843D-04 0.000000000000D+00 -.271999633728D-04 0.114117158528D-02 0.000000000000D+00  5 21 1 25 23 1 2 0.30082367D-01 0.11114685D+00 0.13640728D+05 0.13640728D+05 0.13640728D+05 0.12525531D+01  1  2  5  3  5  1       -1 0.266233749351D-01 0.100000000000D+01
  </mgrwgt>
  </event>
  <event>
  4     66 0.43907321E-03 0.49430368E+02 0.75467711E-02 0.11699788E+00
       -1 -1    0    0    0  501 0.00000000E+00 0.00000000E+00 0.57615119E+02 0.57616008E+02 0.32000000E+00 0.0000E+00 0.9000E+01
        1 -1    0    0  501    0 0.00000000E+00 0.00000000E+00 -.36467502E+03 0.36467516E+03 0.32000000E+00 0.0000E+00 0.9000E+01
       25  1    1    2    0    0 0.45411131E+02 -.76320587E+02 -.21966235E+03 0.26788720E+03 0.12500000E+03 0.0000E+00 0.9000E+01
       23  1    1    2    0    0 -.45411131E+02 0.76320587E+02 -.87397550E+02 0.15440397E+03 0.91188000E+02 0.0000E+00 0.9000E+01
#aMCatNLO 1  0  0  1  2 0.66967959D+02 0.00000000D+00  -5  5  0 0.00000000D+00 0.00000000D+00 0.00000000D+00 0.00000000D+00 0.00000000D+00
  <mgrwgt>
 0.1339037395D+00    9    2    0
 0.144951757768668D+03 0.000000000000000D+00 0.000000000000000D+00 0.144951757768668D+03
 0.144951757768668D+03 0.000000000000000D+00 0.000000000000000D+00 -.144951757768668D+03
 0.157558967174962D+03 0.454111306749551D+02 -.763205872072317D+02 -.362329313802553D+02
 0.132344548362374D+03 -.454111306749551D+02 0.763205872072317D+02 0.362329313802553D+02
 0.000000000000000D+00 -.000000000000000D+00 -.000000000000000D+00 0.000000000000000D+00
 0.225804075109130D+03 0.000000000000000D+00 0.000000000000000D+00 0.225804075109130D+03
 0.163323003802281D+03 0.000000000000000D+00 0.000000000000000D+00 -.163323003802281D+03
 0.152545021038314D+03 0.645187864020764D+02 -.465777235207641D+02 -.362329313802553D+02
 0.144992801617430D+03 -.283224546014257D+02 0.102920719127955D+03 0.362329313802553D+02
 0.915892562556666D+02 -.361963318006508D+02 -.563429956071905D+02 0.624810713068484D+02
0.256702083474D-03 0.000000000000D+00 0.000000000000D+00 0.168445806636D-02 0.000000000000D+00  5 -1 1 25 23 21 0 0.88639437D-02 0.56103928D-01 0.19687502D+05 0.19687502D+05 0.19687502D+05 0.12345797D+01  1  2  2  1  5  1       -1 0.124056985767D+00 0.100000000000D+01
-.142428765971D-04 0.000000000000D+00 -.985803591751D-06 0.168445806636D-02 0.000000000000D+00  5 -1 1 25 23 21 2 0.88639437D-02 0.56103928D-01 0.19687502D+05 0.19687502D+05 0.19687502D+05 0.12345797D+01  1  2  3  1  5  1       -1 -.104912639907D-01 0.100000000000D+01
0.177322876825D-04 0.000000000000D+00 0.000000000000D+00 0.168445806636D-02 0.000000000000D+00  5 -1 1 25 23 21 2 0.88639437D-02 0.56103928D-01 0.19687502D+05 0.19687502D+05 0.19687502D+05 0.12345797D+01  1  2 15  1  5  1       -1 0.130615546634D-01 0.100000000000D+01
0.134732238492D-03 0.000000000000D+00 0.000000000000D+00 0.168445806636D-02 0.000000000000D+00  5 -1 1 25 23 21 2 0.14114611D-01 0.56103928D-01 0.31602183D+05 0.31602183D+05 0.31602183D+05 0.12125340D+01  1  2 12  1  5  1       -1 0.471786305976D-01 0.100000000000D+01
-.195006217579D-03 0.000000000000D+00 0.000000000000D+00 0.168445806636D-02 0.000000000000D+00  5 -1 1 25 23 21 2 0.88639437D-02 0.56103928D-01 0.19687502D+05 0.19687502D+05 0.19687502D+05 0.12345797D+01  1  2  4  1  5  1       -1 -.143641047123D+00 0.100000000000D+01
-.224224392922D-03 0.000000000000D+00 -.841310746916D-04 0.168445806636D-02 0.000000000000D+00  5 -1 1 25 23 21 2 0.15464224D-01 0.56103928D-01 0.19687502D+05 0.19687502D+05 0.19687502D+05 0.12345797D+01  1  2  5  1  5  1       -1 -.699861662752D-01 0.100000000000D+01
0.243835436700D-03 0.000000000000D+00 0.725952673193D-04 0.168445806636D-02 0.000000000000D+00  5 -1 1 25 23 21 2 0.88639437D-02 0.56103928D-01 0.19687502D+05 0.19687502D+05 0.19687502D+05 0.12345797D+01  1  2  6  1  5  1       -1 0.179608516529D+00 0.100000000000D+01
0.718131659102D-05 0.000000000000D+00 0.000000000000D+00 0.168445806636D-02 0.000000000000D+00  5 21 1 25 23 1 2 0.14114611D-01 0.56103928D-01 0.31602183D+05 0.31602183D+05 0.31602183D+05 0.12125340D+01  1  2 12  3  5  1       -1 0.346885024847D-01 0.100000000000D+01
-.954646752638D-05 0.000000000000D+00 -.517633602111D-05 0.168445806636D-02 0.000000000000D+00  5 21 1 25 23 1 2 0.15464224D-01 0.56103928D-01 0.19687502D+05 0.19687502D+05 0.19687502D+05 0.12345797D+01  1  2  5  3  5  1       -1 -.405719731721D-01 0.100000000000D+01
  </mgrwgt>
  </event>
  <event>
  4     66 0.43907321E-03 0.50923537E+02 0.75467711E-02 0.12387757E+00
       -1 -1    0    0    0  501 0.00000000E+00 0.00000000E+00 0.15043757E+03 0.15043791E+03 0.32000000E+00 0.0000E+00 0.9000E+01
        1 -1    0    0  501    0 0.00000000E+00 0.00000000E+00 -.95273529E+02 0.95274067E+02 0.32000000E+00 0.0000E+00 0.9000E+01
       25  1    1    2    0    0 0.42129295E+01 -.23063281E+02 -.15319326E+02 0.12809897E+03 0.12500000E+03 0.0000E+00 0.9000E+01
       23  1    1    2    0    0 -.42129295E+01 0.23063281E+02 0.70483368E+02 0.11761301E+03 0.91188000E+02 0.0000E+00 0.9000E+01
#aMCatNLO 1  0  0  1  2 0.22851015D+02 0.00000000D+00  -5  5  0 0.00000000D+00 0.00000000D+00 0.00000000D+00 0.00000000D+00 0.00000000D+00
  <mgrwgt>
 0.1579858600D+00    9    2    0
 0.119719781868263D+03 0.000000000000000D+00 0.000000000000000D+00 0.119719781868263D+03
 0.119719781868263D+03 0.000000000000000D+00 0.000000000000000D+00 -.119719781868263D+03
 0.134984069319195D+03 0.421292945965540D+01 -.230632813858633D+02 -.452331211288103D+02
 0.104455494417331D+03 -.421292945965540D+01 0.230632813858633D+02 0.452331211288103D+02
 0.000000000000000D+00 0.000000000000000D+00 0.000000000000000D+00 0.000000000000000D+00
 0.172719563979202D+03 0.000000000000000D+00 0.000000000000000D+00 0.172719563979202D+03
 0.122752357968131D+03 0.000000000000000D+00 0.000000000000000D+00 -.122752357968131D+03
 0.136528419094408D+03 -.638352741082193D+01 -.304667778270011D+02 -.452331211288103D+02
 0.103999071179900D+03 -.123483924975113D+02 0.173792237443338D+02 0.452331211288103D+02
 0.549444316730257D+02 0.187319199083333D+02 0.130875540826673D+02 0.499672060110712D+02
0.219919263058D-03 0.000000000000D+00 0.000000000000D+00 0.192192475113D-02 0.000000000000D+00  5 -1 1 25 23 21 0 0.23144309D-01 0.14657534D-01 0.12247111D+05 0.12247111D+05 0.12247111D+05 0.12579879D+01  1  2  2  1  5  1       -1 0.125496715502D+00 0.100000000000D+01
-.121258904526D-04 0.000000000000D+00 -.844547876214D-06 0.192192475113D-02 0.000000000000D+00  5 -1 1 25 23 21 2 0.23144309D-01 0.14657534D-01 0.12247111D+05 0.12247111D+05 0.12247111D+05 0.12579879D+01  1  2  3  1  5  1       -1 -.109505436978D-01 0.100000000000D+01
0.150944685648D-04 0.000000000000D+00 0.000000000000D+00 0.192192475113D-02 0.000000000000D+00  5 -1 1 25 23 21 2 0.23144309D-01 0.14657534D-01 0.12247111D+05 0.12247111D+05 0.12247111D+05 0.12579879D+01  1  2 15  1  5  1       -1 0.136313814033D-01 0.100000000000D+01
0.703902626346D-03 0.000000000000D+00 0.000000000000D+00 0.192192475113D-02 0.000000000000D+00  5 -1 1 25 23 21 2 0.33582728D-01 0.14657534D-01 0.15044945D+05 0.15044945D+05 0.15044945D+05 0.12476744D+01  1  2 12  1  5  1       -1 0.339414689751D+00 0.100000000000D+01
-.687648674880D-03 0.000000000000D+00 0.000000000000D+00 0.192192475113D-02 0.000000000000D+00  5 -1 1 25 23 21 2 0.23144309D-01 0.14657534D-01 0.12247111D+05 0.12247111D+05 0.12247111D+05 0.12579879D+01  1  2  4  1  5  1       -1 -.620995785214D+00 0.100000000000D+01
-.791315772797D-03 0.000000000000D+00 -.881888911467D-04 0.192192475113D-02 0.000000000000D+00  5 -1 1 25 23 21 2 0.33975250D-01 0.14657534D-01 0.12247111D+05 0.12247111D+05 0.12247111D+05 0.12579879D+01  1  2  5  1  5  1       -1 -.378191750422D+00 0.100000000000D+01
0.773587742749D-03 0.000000000000D+00 0.820672824138D-04 0.192192475113D-02 0.000000000000D+00  5 -1 1 25 23 21 2 0.23144309D-01 0.14657534D-01 0.12247111D+05 0.12247111D+05 0.12247111D+05 0.12579879D+01  1  2  6  1  5  1       -1 0.698604891261D+00 0.100000000000D+01
0.317946541700D-04 0.000000000000D+00 0.000000000000D+00 0.192192475113D-02 0.000000000000D+00  5 21 1 25 23 1 2 0.33582728D-01 0.14657534D-01 0.15044945D+05 0.15044945D+05 0.15044945D+05 0.12476744D+01  1  2 12  3  5  1       -1 0.173231538200D+00 0.100000000000D+01
-.337059042185D-04 0.000000000000D+00 -.407342843463D-05 0.192192475113D-02 0.000000000000D+00  5 21 1 25 23 1 2 0.33975250D-01 0.14657534D-01 0.12247111D+05 0.12247111D+05 0.12247111D+05 0.12579879D+01  1  2  5  3  5  1       -1 -.182255276766D+00 0.100000000000D+01
  </mgrwgt>
  </event>
  <event>
  5     66 0.43907321E-03 0.11760801E+03 0.75467711E-02 0.12090522E+00
       21 -1    0    0  502  501 0.00000000E+00 0.00000000E+00 0.82680601E+01 0.83020069E+01 0.75000000E+00 0.0000E+00 0.9000E+01
        1 -1    0    0  501    0 0.00000000E+00 0.00000000E+00 -.29195032E+04 0.29195033E+04 0.32000000E+00 0.0000E+00 0.9000E+01
       25  1    1    2    0    0 0.61320579E+01 -.21505267E+02 -.11292474E+04 0.11363647E+04 0.12500000E+03 0.0000E+00 0.9000E+01
       23  1    1    2    0    0 0.77620054E+01 0.66013558E+02 -.75412302E+03 0.76251874E+03 0.91188000E+02 0.0000E+00 0.9000E+01
        1  1    1    2  502    0 -.13894063E+02 -.44508291E+02 -.10278648E+04 0.10289218E+04 0.32000000E+00 0.0000E+00 0.9000E+01
#aMCatNLO 2  0  0  1  2 0.46626526D+02 0.00000000D+00  -5  5  0 0.00000000D+00 0.00000000D+00 0.00000000D+00 0.00000000D+00 0.00000000D+00
  <mgrwgt>
 0.1789984438D-01    1    2    0
 0.118848838336788D+03 0.000000000000000D+00 0.000000000000000D+00 0.118848838336788D+03
 0.118848838336788D+03 0.000000000000000D+00 0.000000000000000D+00 -.118848838336788D+03
 0.134224984957772D+03 -.146280967804557D+01 -.458346922235162D+02 -.169819834982651D+02
 0.103472691715805D+03 0.146280967804557D+01 0.458346922235162D+02 0.169819834982651D+02
 0.000000000000000D+00 -.000000000000000D+00 -.000000000000000D+00 -.000000000000000D+00
 0.129366147307750D+03 0.000000000000000D+00 0.000000000000000D+00 0.129366147307750D+03
 0.186974923152586D+03 0.000000000000000D+00 0.000000000000000D+00 -.186974923152586D+03
 0.128115051428184D+03 0.613205792817996D+01 -.215052669008409D+02 -.169819834982651D+02
 0.114112565552840D+03 0.776200535091139D+01 0.660135575654590D+02 0.169819834982651D+02
 0.741134534793121D+02 -.138940632790914D+02 -.445082906646181D+02 -.576087758448367D+02
0.475500602253D-05 0.000000000000D+00 0.000000000000D+00 0.213716928040D-02 0.166132223919D-06  5 21 1 25 23 1 2 0.12746186D-02 0.44915581D+00 0.20513826D+05 0.20513826D+05 0.20513826D+05 0.12326150D+01  1  2  1  3  5  1       -1 0.178998443834D-01 0.100000000000D+01
  </mgrwgt>
  </event>
  <event>
  5     66 0.43907321E-03 0.12774342E+03 0.75467711E-02 0.11724047E+00
       21 -1    0    0  502  501 0.00000000E+00 0.00000000E+00 0.16176459E+03 0.16176632E+03 0.75000000E+00 0.0000E+00 0.9000E+01
        1 -1    0    0  501    0 0.00000000E+00 0.00000000E+00 -.33244728E+03 0.33244743E+03 0.32000000E+00 0.0000E+00 0.9000E+01
       25  1    1    2    0    0 -.11191916E+03 0.22656285E+02 0.16611261E+02 0.17011801E+03 0.12500000E+03 0.0000E+00 0.9000E+01
       23  1    1    2    0    0 0.30835460E+02 0.29817998E+01 -.21423737E+03 0.23488852E+03 0.91188000E+02 0.0000E+00 0.9000E+01
        1  1    1    2  502    0 0.81083697E+02 -.25638085E+02 0.26943419E+02 0.89207217E+02 0.32000000E+00 0.0000E+00 0.9000E+01
#aMCatNLO 2  0  0  1  2 0.85040445D+02 0.00000000D+00  -5  5  0 0.00000000D+00 0.00000000D+00 0.00000000D+00 0.00000000D+00 0.00000000D+00
  <mgrwgt>
 0.3883072508D-01    2    2    0
 0.171568018716081D+03 0.000000000000000D+00 0.000000000000000D+00 0.171568018716081D+03
 0.171568018716081D+03 0.000000000000000D+00 0.000000000000000D+00 -.171568018716081D+03
 0.182219404549383D+03 -.669457755299521D+02 0.843602364411571D+01 0.114131538314792D+03
 0.160916632882780D+03 0.669457755299521D+02 -.843602364411571D+01 -.114131538314792D+03
 0.000000000000000D+00 0.000000000000000D+00 -.000000000000000D+00 0.000000000000000D+00
 0.275757909503721D+03 0.000000000000000D+00 0.000000000000000D+00 0.275757909503721D+03
 0.195020882034479D+03 0.000000000000000D+00 0.000000000000000D+00 -.195020882034479D+03
 0.204181813407945D+03 -.111919156729940D+03 0.226562848965811D+02 0.114131538314792D+03
 0.149335113357900D+03 0.308354596116803D+02 0.298179980090073D+01 -.114131538314792D+03
 0.117261864772355D+03 0.810836971182598D+02 -.256380846974818D+02 0.807370274692417D+02
-.404232604839D-05 0.000000000000D+00 0.000000000000D+00 0.976516965398D-03 0.000000000000D+00  5 21 1 25 23 1 2 0.25415109D-01 0.44995121D-01 0.30739232D+05 0.30739232D+05 0.30739232D+05 0.12137904D+01  1  2 13  3  5  1       -1 -.866556592108D-02 0.100000000000D+01
0.249839661418D-04 0.000000000000D+00 0.000000000000D+00 0.976516965398D-03 0.889611893157D-07  5 21 1 25 23 1 2 0.24886979D-01 0.51145827D-01 0.30739232D+05 0.30739232D+05 0.30739232D+05 0.12137904D+01  1  2  1  3  5  1       -1 0.474962910056D-01 0.100000000000D+01
  </mgrwgt>
  </event>
  <event>
  4     66 0.43907321E-03 0.11660751E+03 0.75467711E-02 0.11427339E+00
       -1 -1    0    0    0  501 0.00000000E+00 0.00000000E+00 0.95493776E+02 0.95494312E+02 0.32000000E+00 0.0000E+00 0.9000E+01
        1 -1    0    0  501    0 0.00000000E+00 0.00000000E+00 -.16772243E+03 0.16772274E+03 0.32000000E+00 0.0000E+00 0.9000E+01
       25  1    1    2    0    0 0.42226341E+02 -.94723193E+01 -.90990451E+02 0.16055233E+03 0.12500000E+03 0.0000E+00 0.9000E+01
       23  1    1    2    0    0 -.42226341E+02 0.94723193E+01 0.18761793E+02 0.10266472E+03 0.91188000E+02 0.0000E+00 0.9000E+01
#aMCatNLO 1  0  0  1  2 0.14430173D+03 0.00000000D+00  -5  5  0 0.00000000D+00 0.00000000D+00 0.00000000D+00 0.00000000D+00 0.00000000D+00
  <mgrwgt>
 0.1196629843D+00    5    2    0
 0.126556545618965D+03 0.000000000000000D+00 0.000000000000000D+00 0.126556545618965D+03
 0.126556545618965D+03 0.000000000000000D+00 0.000000000000000D+00 -.126556545618965D+03
 0.140996234653320D+03 0.422263407080679D+02 -.947231925001865D+01 -.488072689754902D+02
 0.112116856584610D+03 -.422263407080679D+02 0.947231925001865D+01 0.488072689754902D+02
 0.000000000000000D+00 -.000000000000000D+00 0.000000000000000D+00 0.000000000000000D+00
 0.279912723133357D+03 0.000000000000000D+00 0.000000000000000D+00 0.279912723133357D+03
 0.184459929024812D+03 0.000000000000000D+00 0.000000000000000D+00 -.184459929024812D+03
 0.186970108355396D+03 0.126792783639670D+03 -.295679206317725D+02 -.488072689754902D+02
 0.104387446689788D+03 0.135995060521100D+02 -.379362790822686D+01 0.488072689754902D+02
 0.173015097112985D+03 -.140392289691780D+03 0.333615485399994D+02 0.954527941085452D+02
0.196627389525D-03 0.000000000000D+00 0.000000000000D+00 0.178800614193D-02 0.000000000000D+00  5 -1 1 25 23 21 0 0.14691415D-01 0.25803516D-01 0.13597312D+05 0.13597312D+05 0.13597312D+05 0.12527128D+01  1  2  2  1  5  1       -1 0.113159002369D+00 0.100000000000D+01
-.108347088432D-04 0.000000000000D+00 -.755100948957D-06 0.178800614193D-02 0.000000000000D+00  5 -1 1 25 23 21 2 0.14691415D-01 0.25803516D-01 0.13597312D+05 0.13597312D+05 0.13597312D+05 0.12527128D+01  1  2  3  1  5  1       -1 -.978510276217D-02 0.100000000000D+01
0.135847804675D-04 0.000000000000D+00 0.000000000000D+00 0.178800614193D-02 0.000000000000D+00  5 -1 1 25 23 21 2 0.14691415D-01 0.25803516D-01 0.13597312D+05 0.13597312D+05 0.13597312D+05 0.12527128D+01  1  2 15  1  5  1       -1 0.122687628065D-01 0.100000000000D+01
0.236369378028D-06 0.000000000000D+00 -.597648390829D-04 0.178800614193D-02 0.000000000000D+00  5 -1 1 25 23 21 2 0.45910442D-01 0.25803516D-01 0.13597312D+05 0.13597312D+05 0.13597312D+05 0.12527128D+01  1  2  5  1  5  1       -1 0.324457632958D-04 0.100000000000D+01
0.277223171264D-05 0.000000000000D+00 -.780798740971D-05 0.178800614193D-02 0.000000000000D+00  5 21 1 25 23 1 2 0.45910442D-01 0.25803516D-01 0.13597312D+05 0.13597312D+05 0.13597312D+05 0.12527128D+01  1  2  5  3  5  1       -1 0.398787607591D-02 0.100000000000D+01
  </mgrwgt>
  </event>
  <event>
  4     66 0.43907321E-03 0.20835556E+03 0.75467711E-02 0.10611352E+00
       -1 -1    0    0    0  501 0.00000000E+00 0.00000000E+00 0.27546189E+02 0.27548047E+02 0.32000000E+00 0.0000E+00 0.9000E+01
        1 -1    0    0  501    0 0.00000000E+00 0.00000000E+00 -.15776659E+04 0.15776659E+04 0.32000000E+00 0.0000E+00 0.9000E+01
       25  1    1    2    0    0 -.13627037E+03 0.11379466E+03 -.78095577E+03 0.81057742E+03 0.12500000E+03 0.0000E+00 0.9000E+01
       23  1    1    2    0    0 0.13627037E+03 -.11379466E+03 -.76916393E+03 0.79463655E+03 0.91188000E+02 0.0000E+00 0.9000E+01
#aMCatNLO 1  0  0  2  2 0.23086752D+03 0.00000000D+00  -5  5  0 0.00000000D+00 0.00000000D+00 0.00000000D+00 0.00000000D+00 0.00000000D+00
  <mgrwgt>
 0.2037688541D+00    3    2    0
 0.208471101414877D+03 0.000000000000000D+00 0.000000000000000D+00 0.208471101414877D+03
 0.208471101414877D+03 0.000000000000000D+00 0.000000000000000D+00 -.208471101414877D+03
 0.217237003027126D+03 -.136270374691821D+03 0.113794663418596D+03 0.693361687771642D+01
 0.199705199802628D+03 0.136270374691821D+03 -.113794663418596D+03 -.693361687771642D+01
 0.000000000000000D+00 -.000000000000000D+00 -.000000000000000D+00 0.000000000000000D+00
 0.768378540770253D+03 0.000000000000000D+00 0.000000000000000D+00 0.768378540770253D+03
 0.263433879009498D+03 0.000000000000000D+00 0.000000000000000D+00 -.263433879009498D+03
 0.238969145876860D+03 -.524573351608163D+02 0.196675889793169D+03 0.693361687771642D+01
 0.237623566043359D+03 0.216615309164875D+03 -.343429845465019D+02 -.693361687771642D+01
 0.555219707859532D+03 -.164157974004059D+03 -.162332905246667D+03 0.504944661760755D+03
0.139011602094D-02 0.000000000000D+00 0.000000000000D+00 0.143223422252D-02 0.000000000000D+00  5 -1 1 25 23 21 0 0.42380206D-02 0.24271798D+00 0.43412040D+05 0.43412040D+05 0.43412040D+05 0.11984068D+01  1  2  2  2  5  2        1 0.199896485327D+00 0.100000000000D+01
-.772286389711D-04 0.000000000000D+00 -.533841154635D-05 0.143223422252D-02 0.000000000000D+00  5 -1 1 25 23 21 2 0.42380206D-02 0.24271798D+00 0.43412040D+05 0.43412040D+05 0.43412040D+05 0.11984068D+01  1  2  3  2  5  2        1 -.159492779632D-01 0.100000000000D+01
0.959791910551D-04 0.000000000000D+00 0.000000000000D+00 0.143223422252D-02 0.000000000000D+00  5 -1 1 25 23 21 2 0.42380206D-02 0.24271798D+00 0.43412040D+05 0.43412040D+05 0.43412040D+05 0.11984068D+01  1  2 15  2  5  2        1 0.198216467001D-01 0.100000000000D+01
  </mgrwgt>
  </event>
  <event>
  4     66 0.43907321E-03 0.95047279E+02 0.75467711E-02 0.11381378E+00
       -1 -1    0    0    0  501 0.00000000E+00 0.00000000E+00 0.50483533E+02 0.50484547E+02 0.32000000E+00 0.0000E+00 0.9000E+01
        1 -1    0    0  501    0 0.00000000E+00 0.00000000E+00 -.92114462E+03 0.92114468E+03 0.32000000E+00 0.0000E+00 0.9000E+01
       25  1    1    2    0    0 -.13328379E+03 -.88686683E+02 -.66586273E+03 0.69615234E+03 0.12500000E+03 0.0000E+00 0.9000E+01
       23  1    1    2    0    0 0.13328379E+03 0.88686683E+02 -.20479835E+03 0.27547688E+03 0.91188000E+02 0.0000E+00 0.9000E+01
#aMCatNLO 1  0  0  2  1 0.39356550D+02 0.00000000D+00  -5  5  0 0.00000000D+00 0.00000000D+00 0.00000000D+00 0.00000000D+00 0.00000000D+00
  <mgrwgt>
 0.2395901801D+00    9    2    0
 0.215645900183628D+03 0.000000000000000D+00 0.000000000000000D+00 0.215645900183628D+03
 0.215645900183628D+03 0.000000000000000D+00 0.000000000000000D+00 -.215645900183628D+03
 0.224120149693792D+03 -.133283792310033D+03 -.886866832848407D+02 -.947361832361742D+02
 0.207171650673464D+03 0.133283792310033D+03 0.886866832848407D+02 0.947361832361742D+02
 0.000000000000000D+00 -.000000000000000D+00 -.000000000000000D+00 -.000000000000000D+00
 0.232756621064051D+03 0.000000000000000D+00 0.000000000000000D+00 0.232756621064051D+03
 0.240423530524748D+03 0.000000000000000D+00 0.000000000000000D+00 -.240423530524748D+03
 0.212574324977404D+03 -.124875307602908D+03 -.706686406868001D+02 -.947361832361742D+02
 0.220509448765834D+03 0.141518725868260D+03 0.106332833431064D+03 0.947361832361742D+02
 0.400963778455612D+02 -.166434182653523D+02 -.356641927442642D+02 -.766690946069700D+01
0.692193554404D-03 0.000000000000D+00 0.000000000000D+00 0.116712177137D-02 0.000000000000D+00  5 -1 1 25 23 21 0 0.77667796D-02 0.14171464D+00 0.37510995D+05 0.37510995D+05 0.37510995D+05 0.12048440D+01  1  2  2  2  5  2        1 0.114404347324D+00 0.100000000000D+01
-.379154469877D-04 0.000000000000D+00 -.265820550766D-05 0.116712177137D-02 0.000000000000D+00  5 -1 1 25 23 21 2 0.77667796D-02 0.14171464D+00 0.37510995D+05 0.37510995D+05 0.37510995D+05 0.12048440D+01  1  2  3  2  5  2        1 -.909688677119D-02 0.100000000000D+01
0.477055433977D-04 0.000000000000D+00 0.000000000000D+00 0.116712177137D-02 0.000000000000D+00  5 -1 1 25 23 21 2 0.77667796D-02 0.14171464D+00 0.37510995D+05 0.37510995D+05 0.37510995D+05 0.12048440D+01  1  2 15  2  5  2        1 0.114457816306D-01 0.100000000000D+01
0.874772575523D-03 0.000000000000D+00 0.000000000000D+00 0.116712177137D-02 0.000000000000D+00  5 -1 1 25 23 21 2 0.77667796D-02 0.16307512D+00 0.45962038D+05 0.45962038D+05 0.45962038D+05 0.11959206D+01  1  2 12  2  5  2        1 0.162899238529D+00 0.100000000000D+01
-.784988635791D-03 0.000000000000D+00 0.000000000000D+00 0.116712177137D-02 0.000000000000D+00  5 -1 1 25 23 21 2 0.77667796D-02 0.14171464D+00 0.37510995D+05 0.37510995D+05 0.37510995D+05 0.12048440D+01  1  2  4  2  5  2        1 -.188338877787D+00 0.100000000000D+01
-.240700185763D-02 0.000000000000D+00 -.611720018355D-03 0.116712177137D-02 0.000000000000D+00  5 -1 1 25 23 21 2 0.77667796D-02 0.16657343D+00 0.37510995D+05 0.37510995D+05 0.37510995D+05 0.12048440D+01  1  2  5  2  5  2        1 -.438155812611D+00 0.100000000000D+01
0.248129404970D-02 0.000000000000D+00 0.603816605778D-03 0.116712177137D-02 0.000000000000D+00  5 -1 1 25 23 21 2 0.77667796D-02 0.14171464D+00 0.37510995D+05 0.37510995D+05 0.37510995D+05 0.12048440D+01  1  2  6  2  5  2        1 0.595325990050D+00 0.100000000000D+01
0.189076266761D-04 0.000000000000D+00 0.000000000000D+00 0.116712177137D-02 0.000000000000D+00  5 -1 21 25 23 -1 2 0.77667796D-02 0.16307512D+00 0.45962038D+05 0.45962038D+05 0.45962038D+05 0.11959206D+01  1  2 12  4  5  2        1 0.513513378052D-02 0.100000000000D+01
-.534493699967D-04 0.000000000000D+00 -.148166991046D-04 0.116712177137D-02 0.000000000000D+00  5 -1 21 25 23 -1 2 0.77667796D-02 0.16657343D+00 0.37510995D+05 0.37510995D+05 0.37510995D+05 0.12048440D+01  1  2  5  4  5  2        1 -.140287340176D-01 0.100000000000D+01
  </mgrwgt>
  </event>
  <event>
  5     66 -.43907321E-03 0.15029699E+03 0.75467711E-02 0.11970165E+00
       -1 -1    0    0    0  501 0.00000000E+00 0.00000000E+00 0.25567808E+02 0.25569811E+02 0.32000000E+00 0.0000E+00 0.9000E+01
        1 -1    0    0  502    0 0.00000000E+00 0.00000000E+00 -.97878541E+03 0.97878547E+03 0.32000000E+00 0.0000E+00 0.9000E+01
       25  1    1    2    0    0 -.86431014E+02 -.53850780E+02 -.61829562E+03 0.63897160E+03 0.12500000E+03 0.0000E+00 0.9000E+01
       23  1    1    2    0    0 0.91346827E+02 0.52706376E+02 -.30946245E+03 0.33941783E+03 0.91188000E+02 0.0000E+00 0.9000E+01
       21  1    1    2  502  501 -.49158128E+01 0.11444040E+01 -.25459533E+02 0.25965847E+02 0.75000000E+00 0.0000E+00 0.9000E+01
#aMCatNLO 2  0  0  2  1 0.50472642D+01 0.00000000D+00  -5  5  0 0.00000000D+00 0.00000000D+00 0.00000000D+00 0.00000000D+00 0.00000000D+00
  <mgrwgt>
 -.2843580161D-01    3    2    0
 0.155310463427065D+03 0.000000000000000D+00 0.000000000000000D+00 0.155310463427065D+03
 0.155310463427065D+03 0.000000000000000D+00 0.000000000000000D+00 -.155310463427065D+03
 0.167076812735900D+03 -.890655312488668D+02 -.532374632060922D+02 -.390226217561593D+02
 0.143544114118229D+03 0.890655312488668D+02 0.532374632060922D+02 0.390226217561593D+02
 0.000000000000000D+00 -.000000000000000D+00 0.000000000000000D+00 -.000000000000000D+00
 0.156859798281635D+03 0.000000000000000D+00 0.000000000000000D+00 0.156859798281635D+03
 0.159496704102079D+03 0.000000000000000D+00 0.000000000000000D+00 -.159496704102079D+03
 0.165885477828777D+03 -.864310141649281D+02 -.538507802745632D+02 -.390226217561593D+02
 0.144776452693926D+03 0.913468270004948D+02 0.527063762637323D+02 0.390226217561593D+02
 0.569457186101126D+01 -.491581283556672D+01 0.114440401083095D+01 -.263690582044425D+01
-.200949332468D-03 0.000000000000D+00 0.000000000000D+00 0.159414588391D-02 0.000000000000D+00  5 -1 1 25 23 21 2 0.38942057D-02 0.15127658D+00 0.23362495D+05 0.23362495D+05 0.23362495D+05 0.12264645D+01  1  2 13  2  5  2        1 -.125195269441D+00 0.100000000000D+01
-.624194482348D-03 0.000000000000D+00 0.000000000000D+00 0.159414588391D-02 0.000000000000D+00  5 -1 1 25 23 21 2 0.38942057D-02 0.14660738D+00 0.22589185D+05 0.22589185D+05 0.22589185D+05 0.12280476D+01  1  2  8  2  5  2        1 -.410505326573D+00 0.100000000000D+01
0.819633525526D-03 0.000000000000D+00 0.000000000000D+00 0.159414588391D-02 0.502178040115D-03  5 -1 1 25 23 21 2 0.39330533D-02 0.15055904D+00 0.23362495D+05 0.23362495D+05 0.23362495D+05 0.12264645D+01  1  2  1  2  5  2        1 0.507264794404D+00 0.100000000000D+01
  </mgrwgt>
  </event>
  <event>
  4     66 0.43907321E-03 0.11194124E+03 0.75467711E-02 0.11273492E+00
       -3 -1    0    0    0  501 0.00000000E+00 0.00000000E+00 0.18504062E+02 0.18510816E+02 0.50000000E+00 0.0000E+00 0.9000E+01
        3 -1    0    0  501    0 0.00000000E+00 0.00000000E+00 -.87656062E+03 0.87656076E+03 0.50000000E+00 0.0000E+00 0.9000E+01
       25  1    1    2    0    0 -.12436160E+02 -.25933814E+02 -.68909772E+03 0.70093359E+03 0.12500000E+03 0.0000E+00 0.9000E+01
       23  1    1    2    0    0 0.12436160E+02 0.25933814E+02 -.16895883E+03 0.19413799E+03 0.91188000E+02 0.0000E+00 0.9000E+01
#aMCatNLO 1  0  0  2  1 0.17461221D+03 0.00000000D+00  -5  5  0 0.00000000D+00 0.00000000D+00 0.00000000D+00 0.00000000D+00 0.00000000D+00
  <mgrwgt>
 0.1268176855D-01    5    2    0
 0.127369614590121D+03 0.000000000000000D+00 0.000000000000000D+00 0.127369614590121D+03
 0.127369614590121D+03 0.000000000000000D+00 0.000000000000000D+00 -.127369614590121D+03
 0.141717127298555D+03 -.124361595896835D+02 -.259338138798288D+02 -.602621224490231D+02
 0.113022101881688D+03 0.124361595896835D+02 0.259338138798288D+02 0.602621224490231D+02
 0.000000000000000D+00 -.000000000000000D+00 0.000000000000000D+00 -.000000000000000D+00
 0.182072858494733D+03 0.000000000000000D+00 0.000000000000000D+00 0.182072858494733D+03
 0.430058674267862D+03 0.000000000000000D+00 0.000000000000000D+00 -.430058674267862D+03
 0.181541418888718D+03 0.447459681895982D+02 -.108159889519375D+03 -.602621224490231D+02
 0.127297534199166D+03 0.549469866051734D+02 -.351953992751569D+02 0.602621224490231D+02
 0.303292579674710D+03 -.996929547947717D+02 0.143355288794532D+03 -.247985815773129D+03
0.223499430492D-03 0.000000000000D+00 0.000000000000D+00 0.165919813842D-02 0.000000000000D+00  5 -3 3 25 23 21 0 0.28473093D-02 0.13485601D+00 0.12530842D+05 0.12530842D+05 0.12530842D+05 0.12568268D+01  1  2  2  2  5  2        3 0.124708668345D-01 0.100000000000D+01
-.121649447996D-04 0.000000000000D+00 -.858296661841D-06 0.165919813842D-02 0.000000000000D+00  5 -3 3 25 23 21 2 0.28473093D-02 0.13485601D+00 0.12530842D+05 0.12530842D+05 0.12530842D+05 0.12568268D+01  1  2  3  2  5  2        3 -.107221346007D-02 0.100000000000D+01
0.153670914945D-04 0.000000000000D+00 0.000000000000D+00 0.165919813842D-02 0.000000000000D+00  5 -3 3 25 23 21 2 0.28473093D-02 0.13485601D+00 0.12530842D+05 0.12530842D+05 0.12530842D+05 0.12568268D+01  1  2 15  2  5  2        3 0.135444941297D-02 0.100000000000D+01
-.378694381695D-04 0.000000000000D+00 -.799779399483D-04 0.165919813842D-02 0.000000000000D+00  5 -3 3 25 23 21 2 0.28473093D-02 0.50142553D+00 0.12530842D+05 0.12530842D+05 0.12530842D+05 0.12568268D+01  1  2  5  2  5  2        3 -.351695111131D-04 0.100000000000D+01
-.401754161813D-05 0.000000000000D+00 -.124064711192D-04 0.165919813842D-02 0.000000000000D+00  5 -3 21 25 23 -3 2 0.28473093D-02 0.50142553D+00 0.12530842D+05 0.12530842D+05 0.12530842D+05 0.12568268D+01  1  2  5  4  5  2        3 -.361647277027D-04 0.100000000000D+01
  </mgrwgt>
  </event>
  <event>
  4     66 0.43907321E-03 0.60053680E+02 0.75467711E-02 0.12556284E+00
       -1 -1    0    0    0  501 0.00000000E+00 0.00000000E+00 0.31437114E+02 0.31438743E+02 0.32000000E+00 0.0000E+00 0.9000E+01
        1 -1    0    0  501    0 0.00000000E+00 0.00000000E+00 -.37689807E+03 0.37689820E+03 0.32000000E+00 0.0000E+00 0.9000E+01
       25  1    1    2    0    0 -.24519988E+01 -.12418939E+02 -.19815285E+03 0.23462693E+03 0.12500000E+03 0.0000E+00 0.9000E+01
       23  1    1    2    0    0 0.24519988E+01 0.12418939E+02 -.14730810E+03 0.17371001E+03 0.91188000E+02 0.0000E+00 0.9000E+01
#aMCatNLO 1  0  0  2  1 0.75900563D+01 0.00000000D+00  -5  5  0 0.00000000D+00 0.00000000D+00 0.00000000D+00 0.00000000D+00 0.00000000D+00
  <mgrwgt>
 0.9160515161D-01   11    2    0
 0.108852871860472D+03 0.000000000000000D+00 0.000000000000000D+00 0.108852871860472D+03
 0.108852871860472D+03 0.000000000000000D+00 0.000000000000000D+00 -.108852871860472D+03
 0.125641011050244D+03 -.245199879147108D+01 -.124189386612703D+02 0.649093353611595D+00
 0.920647326707001D+02 0.245199879147108D+01 0.124189386612703D+02 -.649093353611595D+00
 0.000000000000000D+00 -.000000000000000D+00 0.000000000000000D+00 -.000000000000000D+00
 0.110391954620240D+03 0.000000000000000D+00 0.000000000000000D+00 0.110391954620240D+03
 0.118696837251569D+03 0.000000000000000D+00 0.000000000000000D+00 -.118696837251569D+03
 0.125738966046905D+03 0.179900672284895D+01 -.134770113591336D+02 0.649093353611595D+00
 0.920990467152030D+02 0.556633291922437D+01 0.116437827830906D+02 -.649093353611595D+00
 0.112507791097003D+02 -.736533964207332D+01 0.183322857604303D+01 -.830488263132913D+01
0.502439457820D-04 0.000000000000D+00 0.000000000000D+00 0.244274073130D-02 0.000000000000D+00  5 -1 1 25 23 21 0 0.48366148D-02 0.57984453D-01 0.11848516D+05 0.11848516D+05 0.11848516D+05 0.12596712D+01  1  2  2  2  5  2        1 0.565473150121D-01 0.100000000000D+01
-.279133032010D-05 0.000000000000D+00 -.192949981338D-06 0.244274073130D-02 0.000000000000D+00  5 -1 1 25 23 21 2 0.48366148D-02 0.57984453D-01 0.11848516D+05 0.11848516D+05 0.11848516D+05 0.12596712D+01  1  2  3  2  5  2        1 -.498487085010D-02 0.100000000000D+01
0.347525214881D-05 0.000000000000D+00 0.000000000000D+00 0.244274073130D-02 0.000000000000D+00  5 -1 1 25 23 21 2 0.48366148D-02 0.57984453D-01 0.11848516D+05 0.11848516D+05 0.11848516D+05 0.12596712D+01  1  2 15  2  5  2        1 0.620624617896D-02 0.100000000000D+01
0.295801489797D-03 0.000000000000D+00 0.000000000000D+00 0.244274073130D-02 0.000000000000D+00  5 -1 1 25 23 21 2 0.48366148D-02 0.63614740D-01 0.12704007D+05 0.12704007D+05 0.12704007D+05 0.12561326D+01  1  2 12  2  5  2        1 0.469126156954D+00 0.100000000000D+01
-.305107859234D-03 0.000000000000D+00 0.000000000000D+00 0.244274073130D-02 0.000000000000D+00  5 -1 1 25 23 21 2 0.48366148D-02 0.57984453D-01 0.11848516D+05 0.11848516D+05 0.11848516D+05 0.12596712D+01  1  2  4  2  5  2        1 -.544873984523D+00 0.100000000000D+01
-.593972547497D-03 0.000000000000D+00 -.784934948758D-04 0.244274073130D-02 0.000000000000D+00  5 -1 1 25 23 21 2 0.48366148D-02 0.63851410D-01 0.11848516D+05 0.11848516D+05 0.11848516D+05 0.12596712D+01  1  2  5  2  5  2        1 -.940378061983D+00 0.100000000000D+01
0.599116235776D-03 0.000000000000D+00 0.781303054498D-04 0.244274073130D-02 0.000000000000D+00  5 -1 1 25 23 21 2 0.48366148D-02 0.57984453D-01 0.11848516D+05 0.11848516D+05 0.11848516D+05 0.12596712D+01  1  2  6  2  5  2        1 0.106992606287D+01 0.100000000000D+01
0.404248744798D-05 0.000000000000D+00 0.000000000000D+00 0.244274073130D-02 0.358200433177D-03  5 -1 1 25 23 21 2 0.49050002D-02 0.63228201D-01 0.12704007D+05 0.12704007D+05 0.12704007D+05 0.12561326D+01  1  2 11  2  5  2        1 0.632844512444D-02 0.100000000000D+01
0.450618690020D-05 0.000000000000D+00 0.000000000000D+00 0.244274073130D-02 0.000000000000D+00  5 -1 21 25 23 -1 2 0.48366148D-02 0.63614740D-01 0.12704007D+05 0.12704007D+05 0.12704007D+05 0.12561326D+01  1  2 12  4  5  2        1 0.262946678272D-01 0.100000000000D+01
-.910294624839D-05 0.000000000000D+00 -.123488870194D-05 0.244274073130D-02 0.000000000000D+00  5 -1 21 25 23 -1 2 0.48366148D-02 0.63851410D-01 0.11848516D+05 0.11848516D+05 0.11848516D+05 0.12596712D+01  1  2  5  4  5  2        1 -.529479685216D-01 0.100000000000D+01
0.623644701779D-07 0.000000000000D+00 0.000000000000D+00 0.244274073130D-02 0.518786006525D-05  5 -1 21 25 23 -1 2 0.49050002D-02 0.63228201D-01 0.12704007D+05 0.12704007D+05 0.12704007D+05 0.12561326D+01  1  2 11  4  5  2        1 0.361143520889D-03 0.100000000000D+01
  </mgrwgt>
  </event>
  <event>
  4     66 0.43907321E-03 0.13682464E+03 0.75467711E-02 0.11329968E+00
       -1 -1    0    0    0  501 0.00000000E+00 0.00000000E+00 0.11447094E+02 0.11451566E+02 0.32000000E+00 0.0000E+00 0.9000E+01
        1 -1    0    0  501    0 0.00000000E+00 0.00000000E+00 -.16403100E+04 0.16403101E+04 0.32000000E+00 0.0000E+00 0.9000E+01
       25  1    1    2    0    0 -.82468554E+02 0.11321524E+02 -.93995275E+03 0.95187469E+03 0.12500000E+03 0.0000E+00 0.9000E+01
       23  1    1    2    0    0 0.82468554E+02 -.11321524E+02 -.68891020E+03 0.69988696E+03 0.91188000E+02 0.0000E+00 0.9000E+01
#aMCatNLO 1  0  0  2  2 0.13658832D+03 0.00000000D+00  -5  5  0 0.00000000D+00 0.00000000D+00 0.00000000D+00 0.00000000D+00 0.00000000D+00
  <mgrwgt>
 0.1807464198D+00    3    2    0
 0.137041972381836D+03 0.000000000000000D+00 0.000000000000000D+00 0.137041972381836D+03
 0.137041972381836D+03 0.000000000000000D+00 0.000000000000000D+00 -.137041972381836D+03
 0.150376844408548D+03 -.824685543367957D+02 0.113215239769971D+02 -.767827941078022D+01
 0.123707100355124D+03 0.824685543367957D+02 -.113215239769971D+02 0.767827941078022D+01
 0.000000000000000D+00 0.000000000000000D+00 -.000000000000000D+00 0.000000000000000D+00
 0.338968880541334D+03 0.000000000000000D+00 0.000000000000000D+00 0.338968880541334D+03
 0.178211926859487D+03 0.000000000000000D+00 0.000000000000000D+00 -.178211926859487D+03
 0.204799709972636D+03 -.150651975005071D+03 0.596904318734359D+02 -.767827941078022D+01
 0.101432843160783D+03 0.392483268509970D+02 0.193386450499347D+02 0.767827941078022D+01
 0.210948254267401D+03 0.111403648154074D+03 -.790290769233706D+02 0.160756953681846D+03
0.375917529032D-03 0.000000000000D+00 0.000000000000D+00 0.185906657235D-02 0.000000000000D+00  5 -1 1 25 23 21 0 0.17614378D-02 0.25235574D+00 0.18720981D+05 0.18720981D+05 0.18720981D+05 0.12369984D+01  1  2  2  2  5  2        1 0.177030899982D+00 0.100000000000D+01
-.208842432022D-04 0.000000000000D+00 -.144362229284D-05 0.185906657235D-02 0.000000000000D+00  5 -1 1 25 23 21 2 0.17614378D-02 0.25235574D+00 0.18720981D+05 0.18720981D+05 0.18720981D+05 0.12369984D+01  1  2  3  2  5  2        1 -.150492032668D-01 0.100000000000D+01
0.260403845510D-04 0.000000000000D+00 0.000000000000D+00 0.185906657235D-02 0.000000000000D+00  5 -1 1 25 23 21 2 0.17614378D-02 0.25235574D+00 0.18720981D+05 0.18720981D+05 0.18720981D+05 0.12369984D+01  1  2 15  2  5  2        1 0.187647230717D-01 0.100000000000D+01
  </mgrwgt>
  </event>
  <event>
  4     66 0.43907321E-03 0.12366183E+03 0.75467711E-02 0.12149025E+00
       -1 -1    0    0    0  501 0.00000000E+00 0.00000000E+00 0.54678695E+02 0.54679632E+02 0.32000000E+00 0.0000E+00 0.9000E+01
        1 -1    0    0  501    0 0.00000000E+00 0.00000000E+00 -.30073292E+03 0.30073309E+03 0.32000000E+00 0.0000E+00 0.9000E+01
       25  1    1    2    0    0 -.14216390E+02 -.57778873E+02 -.89984539E+02 0.16511427E+03 0.12500000E+03 0.0000E+00 0.9000E+01
       23  1    1    2    0    0 0.14216390E+02 0.57778873E+02 -.15606968E+03 0.19029845E+03 0.91188000E+02 0.0000E+00 0.9000E+01
#aMCatNLO 1  0  0  1  2 0.28676369D+02 0.00000000D+00  -5  5  0 0.00000000D+00 0.00000000D+00 0.00000000D+00 0.00000000D+00 0.00000000D+00
  <mgrwgt>
 0.1331259247D+00    4    2    0
 0.128233694069060D+03 0.000000000000000D+00 0.000000000000000D+00 0.128233694069060D+03
 0.128233694069060D+03 0.000000000000000D+00 0.000000000000000D+00 -.128233694069060D+03
 0.142484528666525D+03 -.142163899847790D+02 -.577788726760892D+02 0.337095985945044D+02
 0.113982859471596D+03 0.142163899847790D+02 0.577788726760892D+02 -.337095985945044D+02
 0.000000000000000D+00 -.000000000000000D+00 0.000000000000000D+00 -.000000000000000D+00
 0.133169798176669D+03 0.000000000000000D+00 0.000000000000000D+00 0.133169798176669D+03
 0.178726707512914D+03 0.000000000000000D+00 0.000000000000000D+00 -.178726707512914D+03
 0.142367720027990D+03 0.159545660539818D+01 -.592003816439204D+02 0.337095985945044D+02
 0.115697882687846D+03 0.269657246886026D+02 0.566326881674041D+02 -.337095985945044D+02
 0.538309029737472D+02 -.285611812940007D+02 0.256769347651628D+01 -.455569093362452D+02
0.223945374760D-03 0.000000000000D+00 0.000000000000D+00 0.188387834667D-02 0.000000000000D+00  5 -1 1 25 23 21 0 0.84121921D-02 0.46266688D-01 0.15292249D+05 0.15292249D+05 0.15292249D+05 0.12468683D+01  1  2  2  1  5  1       -1 0.147707896727D+00 0.100000000000D+01
-.124214730947D-04 0.000000000000D+00 -.860009205251D-06 0.188387834667D-02 0.000000000000D+00  5 -1 1 25 23 21 2 0.84121921D-02 0.46266688D-01 0.15292249D+05 0.15292249D+05 0.15292249D+05 0.12468683D+01  1  2  3  1  5  1       -1 -.127372567625D-01 0.100000000000D+01
0.154762103084D-04 0.000000000000D+00 0.000000000000D+00 0.188387834667D-02 0.000000000000D+00  5 -1 1 25 23 21 2 0.84121921D-02 0.46266688D-01 0.15292249D+05 0.15292249D+05 0.15292249D+05 0.12468683D+01  1  2 15  1  5  1       -1 0.158696527301D-01 0.100000000000D+01
-.172751911890D-04 0.000000000000D+00 0.000000000000D+00 0.188387834667D-02 0.000000000000D+00  5 -1 1 25 23 21 2 0.84121921D-02 0.46266688D-01 0.15292249D+05 0.15292249D+05 0.15292249D+05 0.12468683D+01  1  2  4  1  5  1       -1 -.177143680236D-01 0.100000000000D+01
  </mgrwgt>
  </event>
  <event>
  5     66 0.43907321E-03 0.11193371E+03 0.75467711E-02 0.11856286E+00
       21 -1    0    0  502  501 0.00000000E+00 0.00000000E+00 0.55672814E+02 0.55677865E+02 0.75000000E+00 0.0000E+00 0.9000E+01
        1 -1    0    0  501    0 0.00000000E+00 0.00000000E+00 -.70879053E+03 0.70879060E+03 0.32000000E+00 0.0000E+00 0.9000E+01
       25  1    1    2    0    0 -.23893641E+02 -.51814790E+02 -.40349921E+03 0.42625379E+03 0.12500000E+03 0.0000E+00 0.9000E+01
       23  1    1    2    0    0 0.32082047E+02 -.33556825E+02 -.22778824E+03 0.24971594E+03 0.91188000E+02 0.0000E+00 0.9000E+01
        1  1    1    2  502    0 -.81884063E+01 0.85371615E+02 -.21830259E+02 0.88498731E+02 0.32000000E+00 0.0000E+00 0.9000E+01
#aMCatNLO 2  0  0  1  2 0.85763411D+02 0.00000000D+00  -5  5  0 0.00000000D+00 0.00000000D+00 0.00000000D+00 0.00000000D+00 0.00000000D+00
  <mgrwgt>
 0.1002850823D+00    2    2    0
 0.112977727900603D+03 0.000000000000000D+00 0.000000000000000D+00 0.112977727900603D+03
 0.112977727900603D+03 0.000000000000000D+00 0.000000000000000D+00 -.112977727900603D+03
 0.129152926304378D+03 -.285757303680653D+02 -.299973117337791D+01 -.151627048973203D+02
 0.968025294968273D+02 0.285757303680653D+02 0.299973117337791D+01 0.151627048973203D+02
 0.000000000000000D+00 -.000000000000000D+00 0.000000000000000D+00 0.000000000000000D+00
 0.301144960639751D+03 0.000000000000000D+00 0.000000000000000D+00 0.301144960639751D+03
 0.131040697949781D+03 0.000000000000000D+00 0.000000000000000D+00 -.131040697949781D+03
 0.138241043755594D+03 -.238936409574404D+02 -.518147901725932D+02 -.151627048973203D+02
 0.103443111143570D+03 0.320820472582925D+02 -.335568252815200D+02 0.151627048973203D+02
 0.190501503690367D+03 -.818840630085218D+01 0.853716154541131D+02 0.170104262689970D+03
-.161438143658D-05 0.000000000000D+00 0.000000000000D+00 0.228718714359D-02 0.000000000000D+00  5 21 1 25 23 1 2 0.83775509D-02 0.94013959D-01 0.26486943D+05 0.26486943D+05 0.26486943D+05 0.12206166D+01  1  2 13  3  5  1       -1 -.101527734972D-01 0.100000000000D+01
0.224969135524D-04 0.000000000000D+00 0.000000000000D+00 0.228718714359D-02 0.533281370589D-06  5 21 1 25 23 1 2 0.85654342D-02 0.10904499D+00 0.26486943D+05 0.26486943D+05 0.26486943D+05 0.12206166D+01  1  2  1  3  5  1       -1 0.110437855792D+00 0.100000000000D+01
  </mgrwgt>
  </event>
  <event>
  4     66 0.43907321E-03 0.14849877E+03 0.75467711E-02 0.92685254E-01
       -3 -1    0    0    0  501 0.00000000E+00 0.00000000E+00 0.10675213E+04 0.10675214E+04 0.50000000E+00 0.0000E+00 0.9000E+01
        3 -1    0    0  501    0 0.00000000E+00 0.00000000E+00 -.22509313E+02 0.22514866E+02 0.50000000E+00 0.0000E+00 0.9000E+01
       25  1    1    2    0    0 -.81790402E+02 -.59527536E+02 0.40627726E+03 0.43694325E+03 0.12500000E+03 0.0000E+00 0.9000E+01
       23  1    1    2    0    0 0.81790402E+02 0.59527536E+02 0.63873471E+03 0.65309300E+03 0.91188000E+02 0.0000E+00 0.9000E+01
#aMCatNLO 1  0  0  1  2 0.10168580D+04 0.00000000D+00  -5  5  0 0.00000000D+00 0.00000000D+00 0.00000000D+00 0.00000000D+00 0.00000000D+00
  <mgrwgt>
 0.6898558413D-01    3    2    0
 0.155023419665456D+03 0.000000000000000D+00 0.000000000000000D+00 0.155023419665456D+03
 0.155023419665456D+03 0.000000000000000D+00 0.000000000000000D+00 -.155023419665456D+03
 0.166811555728663D+03 -.817904018108136D+02 -.595275355724935D+02 -.443609941830441D+02
 0.143235283602250D+03 0.817904018108136D+02 0.595275355724935D+02 0.443609941830441D+02
 0.000000000000000D+00 -.000000000000000D+00 -.000000000000000D+00 -.000000000000000D+00
 0.555465699565157D+03 0.000000000000000D+00 0.000000000000000D+00 0.555465699565157D+03
 0.113347699492810D+05 0.000000000000000D+00 0.000000000000000D+00 -.113347699492810D+05
 0.243465157375745D+03 0.136357147337926D+03 0.151951023099392D+03 -.443609941830441D+02
 0.819610187232006D+03 0.593743366633372D+03 0.555829582196238D+03 0.443609941830441D+02
 0.108271603042384D+05 -.730100513971298D+03 -.707780605295630D+03 -.107793042497158D+05
0.258390910257D-02 0.000000000000D+00 0.000000000000D+00 0.156998327757D-02 0.000000000000D+00  5 -3 3 25 23 21 0 0.16423448D+00 0.34634074D-02 0.22051883D+05 0.22051883D+05 0.22051883D+05 0.12291836D+01  1  2  2  1  5  1       -3 0.675970117340D-01 0.100000000000D+01
-.143227794455D-03 0.000000000000D+00 -.992289131274D-05 0.156998327757D-02 0.000000000000D+00  5 -3 3 25 23 21 2 0.16423448D+00 0.34634074D-02 0.22051883D+05 0.22051883D+05 0.22051883D+05 0.12291836D+01  1  2  3  1  5  1       -3 -.566123371061D-02 0.100000000000D+01
0.178358328258D-03 0.000000000000D+00 0.000000000000D+00 0.156998327757D-02 0.000000000000D+00  5 -3 3 25 23 21 2 0.16423448D+00 0.34634074D-02 0.22051883D+05 0.22051883D+05 0.22051883D+05 0.12291836D+01  1  2 15  1  5  1       -3 0.704980611020D-02 0.100000000000D+01
  </mgrwgt>
  </event>
  <event>
  5     66 0.43907321E-03 0.12046873E+03 0.75467711E-02 0.12132541E+00
       -1 -1    0    0    0  502 0.00000000E+00 0.00000000E+00 0.12128683E+03 0.12128725E+03 0.32000000E+00 0.0000E+00 0.9000E+01
        1 -1    0    0  501    0 0.00000000E+00 0.00000000E+00 -.20798256E+03 0.20798281E+03 0.32000000E+00 0.0000E+00 0.9000E+01
       25  1    1    2    0    0 0.20748768E+02 -.27906891E+02 -.78012181E+02 0.15139421E+03 0.12500000E+03 0.0000E+00 0.9000E+01
       23  1    1    2    0    0 -.53862127E+02 0.42578564E+02 0.36613777E+02 0.11987445E+03 0.91188000E+02 0.0000E+00 0.9000E+01
       21  1    1    2  501  502 0.33113359E+02 -.14671673E+02 -.45297326E+02 0.58001403E+02 0.75000000E+00 0.0000E+00 0.9000E+01
#aMCatNLO 2  0  0  1  2 0.36218125D+02 0.00000000D+00  -5  5  0 0.00000000D+00 0.00000000D+00 0.00000000D+00 0.00000000D+00 0.00000000D+00
  <mgrwgt>
 0.1628126839D-01    1    2    0
 0.132816699407763D+03 0.000000000000000D+00 0.000000000000000D+00 0.132816699407763D+03
 0.132816699407763D+03 0.000000000000000D+00 0.000000000000000D+00 -.132816699407763D+03
 0.146575791239955D+03 0.385993679875178D+02 -.358160299368768D+02 -.555586480050022D+02
 0.119057607575572D+03 -.385993679875178D+02 0.358160299368768D+02 0.555586480050022D+02
 0.000000000000000D+00 0.000000000000000D+00 -.000000000000000D+00 -.000000000000000D+00
 0.141451145482302D+03 0.000000000000000D+00 0.000000000000000D+00 0.141451145482302D+03
 0.178328142393733D+03 0.000000000000000D+00 0.000000000000000D+00 -.178328142393733D+03
 0.141142018123436D+03 0.207487679591245D+02 -.279068905468000D+02 -.555586480050022D+02
 0.126949113979614D+03 -.538621270099585D+02 0.425785638793564D+02 0.555586480050022D+02
 0.516881557729848D+02 0.331133590508340D+02 -.146716733325564D+02 -.368769969114303D+02
0.349828667799D-04 0.000000000000D+00 0.000000000000D+00 0.165659067439D-02 0.106545449343D-04  5 -1 1 25 23 21 2 0.18659218D-01 0.31996775D-01 0.19615575D+05 0.19615575D+05 0.19615575D+05 0.12347551D+01  1  2  1  1  5  1       -1 0.162812683888D-01 0.100000000000D+01
  </mgrwgt>
  </event>
  <event>
  4     66 0.43907321E-03 0.14848093E+03 0.75467711E-02 0.10585948E+00
       -1 -1    0    0    0  501 0.00000000E+00 0.00000000E+00 0.25263301E+02 0.25265328E+02 0.32000000E+00 0.0000E+00 0.9000E+01
        1 -1    0    0  501    0 0.00000000E+00 0.00000000E+00 -.94856904E+03 0.94856910E+03 0.32000000E+00 0.0000E+00 0.9000E+01
       25  1    1    2    0    0 -.25548705E+02 0.97852950E+02 -.63418440E+03 0.65424979E+03 0.12500000E+03 0.0000E+00 0.9000E+01
       23  1    1    2    0    0 0.25548705E+02 -.97852950E+02 -.28912134E+03 0.31958463E+03 0.91188000E+02 0.0000E+00 0.9000E+01
#aMCatNLO 1  0  0  1  2 0.30094230D+03 0.00000000D+00  -5  5  0 0.00000000D+00 0.00000000D+00 0.00000000D+00 0.00000000D+00 0.00000000D+00
  <mgrwgt>
 0.1687357198D+00    5    2    0
 0.154806325294626D+03 0.000000000000000D+00 0.000000000000000D+00 0.154806325294626D+03
 0.154806325294626D+03 0.000000000000000D+00 0.000000000000000D+00 -.154806325294626D+03
 0.166610992581457D+03 -.255487045711189D+02 0.978529496205902D+02 -.436610443561105D+02
 0.143001658007795D+03 0.255487045711189D+02 -.978529496205902D+02 0.436610443561105D+02
 0.000000000000000D+00 0.000000000000000D+00 -.000000000000000D+00 0.000000000000000D+00
 0.384196150265933D+03 0.000000000000000D+00 0.000000000000000D+00 0.384196150265933D+03
 0.350408059501414D+03 0.000000000000000D+00 0.000000000000000D+00 -.350408059501414D+03
 0.330265775868236D+03 -.590895361050317D+02 0.296736621667219D+03 -.436610443561105D+02
 0.101505302285675D+03 0.904367297211646D+01 0.152647776200325D-01 0.436610443561105D+02
 0.302833131613436D+03 0.500458631329152D+02 -.296751886444839D+03 0.337880907645196D+02
0.300037380863D-03 0.000000000000D+00 0.000000000000D+00 0.157491834778D-02 0.000000000000D+00  5 -1 1 25 23 21 0 0.38868217D-02 0.14593386D+00 0.22046586D+05 0.22046586D+05 0.22046586D+05 0.12291950D+01  1  2  2  1  5  1       -1 0.132146900070D+00 0.100000000000D+01
-.166334707635D-04 0.000000000000D+00 -.115222254417D-05 0.157491834778D-02 0.000000000000D+00  5 -1 1 25 23 21 2 0.38868217D-02 0.14593386D+00 0.22046586D+05 0.22046586D+05 0.22046586D+05 0.12291950D+01  1  2  3  1  5  1       -1 -.110689399398D-01 0.100000000000D+01
0.207013403873D-04 0.000000000000D+00 0.000000000000D+00 0.157491834778D-02 0.000000000000D+00  5 -1 1 25 23 21 2 0.38868217D-02 0.14593386D+00 0.22046586D+05 0.22046586D+05 0.22046586D+05 0.12291950D+01  1  2 15  1  5  1       -1 0.137759519151D-01 0.100000000000D+01
0.246345596921D-03 0.000000000000D+00 -.135341372072D-03 0.157491834778D-02 0.000000000000D+00  5 -1 1 25 23 21 2 0.23477056D-01 0.14593386D+00 0.22046586D+05 0.22046586D+05 0.22046586D+05 0.12291950D+01  1  2  5  1  5  1       -1 0.103785474514D-01 0.100000000000D+01
0.454704563569D-04 0.000000000000D+00 -.298314455240D-04 0.157491834778D-02 0.000000000000D+00  5 21 1 25 23 1 2 0.23477056D-01 0.14593386D+00 0.22046586D+05 0.22046586D+05 0.22046586D+05 0.12291950D+01  1  2  5  3  5  1       -1 0.235032603241D-01 0.100000000000D+01
  </mgrwgt>
  </event>
  <event>
  5     66 0.43907321E-03 0.11321227E+03 0.75467711E-02 0.12291464E+00
       -1 -1    0    0    0  502 0.00000000E+00 0.00000000E+00 0.15779691E+03 0.15779723E+03 0.32000000E+00 0.0000E+00 0.9000E+01
        1 -1    0    0  501    0 0.00000000E+00 0.00000000E+00 -.11005227E+03 0.11005273E+03 0.32000000E+00 0.0000E+00 0.9000E+01
       25  1    1    2    0    0 0.44614554E+02 -.52054576E+01 0.11385659E+02 0.13331237E+03 0.12500000E+03 0.0000E+00 0.9000E+01
       23  1    1    2    0    0 -.23697383E+02 -.15492650E+02 0.42424265E+02 0.10448281E+03 0.91188000E+02 0.0000E+00 0.9000E+01
       21  1    1    2  501  502 -.20917171E+02 0.20698108E+02 -.60652867E+01 0.30054782E+02 0.75000000E+00 0.0000E+00 0.9000E+01
#aMCatNLO 2  0  0  1  2 0.29426853D+02 0.00000000D+00  -5  5  0 0.00000000D+00 0.00000000D+00 0.00000000D+00 0.00000000D+00 0.00000000D+00
  <mgrwgt>
 0.3787976844D-01    1    2    0
 0.114875042109708D+03 0.000000000000000D+00 0.000000000000000D+00 0.114875042109708D+03
 0.114875042109708D+03 0.000000000000000D+00 0.000000000000000D+00 -.114875042109708D+03
 0.130783085584067D+03 0.326003848185483D+02 0.668288828985669D+01 -.192813222751238D+02
 0.989669986353498D+02 -.326003848185483D+02 -.668288828985669D+01 0.192813222751238D+02
 0.000000000000000D+00 -.000000000000000D+00 0.000000000000000D+00 -.000000000000000D+00
 0.125336877939239D+03 0.000000000000000D+00 0.000000000000000D+00 0.125336877939239D+03
 0.138545351078534D+03 0.000000000000000D+00 0.000000000000000D+00 -.138545351078534D+03
 0.134217452556393D+03 0.446145536075564D+02 -.520545756383957D+01 -.192813222751238D+02
 0.974094908011917D+02 -.236973829347070D+02 -.154926501127513D+02 0.192813222751238D+02
 0.322552856601881D+02 -.209171706728494D+02 0.206981076765908D+02 -.132084731392949D+02
0.553391891676D-04 0.000000000000D+00 0.000000000000D+00 0.221960334987D-02 0.215811416810D-04  5 -1 1 25 23 21 2 0.24275689D-01 0.16930608D-01 0.16606739D+05 0.16606739D+05 0.16606739D+05 0.12428157D+01  1  2  1  1  5  1       -1 0.378797684423D-01 0.100000000000D+01
  </mgrwgt>
  </event>
  <event>
  4     66 0.43907321E-03 0.16871500E+03 0.75467711E-02 0.11548425E+00
       -1 -1    0    0    0  501 0.00000000E+00 0.00000000E+00 0.12404501E+02 0.12408628E+02 0.32000000E+00 0.0000E+00 0.9000E+01
        1 -1    0    0  501    0 0.00000000E+00 0.00000000E+00 -.23077567E+04 0.23077567E+04 0.32000000E+00 0.0000E+00 0.9000E+01
       25  1    1    2    0    0 0.12396691E+03 0.35272545E+02 -.11326087E+04 0.11467517E+04 0.12500000E+03 0.0000E+00 0.9000E+01
       23  1    1    2    0    0 -.12396691E+03 -.35272545E+02 -.11627435E+04 0.11734137E+04 0.91188000E+02 0.0000E+00 0.9000E+01
#aMCatNLO 1  0  0  2  2 0.47402167D+02 0.00000000D+00  -5  5  0 0.00000000D+00 0.00000000D+00 0.00000000D+00 0.00000000D+00 0.00000000D+00
  <mgrwgt>
 0.2017727936D+00    3    2    0
 0.169208105431967D+03 0.000000000000000D+00 0.000000000000000D+00 0.169208105431967D+03
 0.169208105431967D+03 0.000000000000000D+00 0.000000000000000D+00 -.169208105431967D+03
 0.180008044118916D+03 0.123966905666233D+03 0.352725454888094D+02 0.128821497350690D+02
 0.158408166745019D+03 -.123966905666233D+03 -.352725454888094D+02 -.128821497350690D+02
 0.000000000000000D+00 -.000000000000000D+00 0.000000000000000D+00 0.000000000000000D+00
 0.581155471092121D+03 0.000000000000000D+00 0.000000000000000D+00 0.581155471092121D+03
 0.172229069267612D+03 0.000000000000000D+00 0.000000000000000D+00 -.172229069267612D+03
 0.190589578385963D+03 0.142276407694564D+03 0.170546598052443D+02 0.128821497350690D+02
 0.151130332055492D+03 -.108674050484574D+03 -.504888789010289D+02 -.128821497350690D+02
 0.411664629918278D+03 -.336023572099895D+02 0.334342190957847D+02 0.408926401824510D+03
0.125960429479D-02 0.000000000000D+00 0.000000000000D+00 0.158220639086D-02 0.000000000000D+00  5 -1 1 25 23 21 0 0.19087039D-02 0.35503980D+00 0.28464750D+05 0.28464750D+05 0.28464750D+05 0.12173001D+01  1  2  2  2  5  2        1 0.197813321631D+00 0.100000000000D+01
-.699772916878D-04 0.000000000000D+00 -.483721215343D-05 0.158220639086D-02 0.000000000000D+00  5 -1 1 25 23 21 2 0.19087039D-02 0.35503980D+00 0.28464750D+05 0.28464750D+05 0.28464750D+05 0.12173001D+01  1  2  3  2  5  2        1 -.162844785774D-01 0.100000000000D+01
0.869918449235D-04 0.000000000000D+00 0.000000000000D+00 0.158220639086D-02 0.000000000000D+00  5 -1 1 25 23 21 2 0.19087039D-02 0.35503980D+00 0.28464750D+05 0.28464750D+05 0.28464750D+05 0.12173001D+01  1  2 15  2  5  2        1 0.202439505859D-01 0.100000000000D+01
  </mgrwgt>
  </event>
  <event>
  4     66 0.43907321E-03 0.13626108E+03 0.75467711E-02 0.10474593E+00
       -1 -1    0    0    0  501 0.00000000E+00 0.00000000E+00 0.27965248E+02 0.27967079E+02 0.32000000E+00 0.0000E+00 0.9000E+01
        1 -1    0    0  501    0 0.00000000E+00 0.00000000E+00 -.93383782E+03 0.93383787E+03 0.32000000E+00 0.0000E+00 0.9000E+01
       25  1    1    2    0    0 0.37906392E+02 -.73074786E+02 -.74228806E+03 0.75722743E+03 0.12500000E+03 0.0000E+00 0.9000E+01
       23  1    1    2    0    0 -.37906392E+02 0.73074786E+02 -.16358451E+03 0.20457752E+03 0.91188000E+02 0.0000E+00 0.9000E+01
#aMCatNLO 1  0  0  2  2 0.34380257D+03 0.00000000D+00  -5  5  0 0.00000000D+00 0.00000000D+00 0.00000000D+00 0.00000000D+00 0.00000000D+00
  <mgrwgt>
 0.1590636782D+00    5    2    0
 0.161604187294392D+03 0.000000000000000D+00 0.000000000000000D+00 0.161604187294392D+03
 0.161604187294392D+03 0.000000000000000D+00 0.000000000000000D+00 -.161604187294392D+03
 0.172912292576782D+03 0.379063921805052D+02 -.730747858868181D+02 -.865843058735934D+02
 0.150296082012002D+03 -.379063921805052D+02 0.730747858868181D+02 0.865843058735934D+02
 0.000000000000000D+00 0.000000000000000D+00 -.000000000000000D+00 -.000000000000000D+00
 0.271159707519581D+03 0.000000000000000D+00 0.000000000000000D+00 0.271159707519581D+03
 0.107487000072752D+04 0.000000000000000D+00 0.000000000000000D+00 -.107487000072752D+04
 0.168429330800531D+03 0.962638947192555D+01 0.717908773872950D+02 -.865843058735934D+02
 0.303443387051291D+03 -.754985067522327D+02 0.265642186513608D+03 0.865843058735934D+02
 0.874156990395279D+03 0.658721172803072D+02 -.337433063900903D+03 -.803710293207938D+03
0.400638254052D-03 0.000000000000D+00 0.000000000000D+00 0.124003313290D-02 0.000000000000D+00  5 -1 1 25 23 21 0 0.43024910D-02 0.14366750D+00 0.18567082D+05 0.18567082D+05 0.18567082D+05 0.12373964D+01  1  2  2  2  5  2        1 0.155424943547D+00 0.100000000000D+01
-.214702653395D-04 0.000000000000D+00 -.153855638603D-05 0.124003313290D-02 0.000000000000D+00  5 -1 1 25 23 21 2 0.43024910D-02 0.14366750D+00 0.18567082D+05 0.18567082D+05 0.18567082D+05 0.12373964D+01  1  2  3  2  5  2        1 -.127533246036D-01 0.100000000000D+01
0.275961194505D-04 0.000000000000D+00 0.000000000000D+00 0.124003313290D-02 0.000000000000D+00  5 -1 1 25 23 21 2 0.43024910D-02 0.14366750D+00 0.18567082D+05 0.18567082D+05 0.18567082D+05 0.12373964D+01  1  2 15  2  5  2        1 0.163920782341D-01 0.100000000000D+01
-.382629295995D-04 0.000000000000D+00 -.209524084682D-03 0.124003313290D-02 0.000000000000D+00  5 -1 1 25 23 21 2 0.43024910D-02 0.96287260D+00 0.18567082D+05 0.18567082D+05 0.18567082D+05 0.12373964D+01  1  2  5  2  5  2        1 -.188872184993D-07 0.100000000000D+01
-.268549454045D-04 0.000000000000D+00 -.487899141922D-04 0.124003313290D-02 0.000000000000D+00  5 -1 21 25 23 -1 2 0.43024910D-02 0.96287260D+00 0.18567082D+05 0.18567082D+05 0.18567082D+05 0.12373964D+01  1  2  5  4  5  2        1 -.553499089948D-10 0.100000000000D+01
  </mgrwgt>
  </event>
  <event>
  5     66 0.43907321E-03 0.13638296E+03 0.75467711E-02 0.11531702E+00
       -1 -1    0    0    0  501 0.00000000E+00 0.00000000E+00 0.14556946E+03 0.14556982E+03 0.32000000E+00 0.0000E+00 0.9000E+01
        1 -1    0    0  502    0 0.00000000E+00 0.00000000E+00 -.32246474E+03 0.32246490E+03 0.32000000E+00 0.0000E+00 0.9000E+01
       25  1    1    2    0    0 -.75658360E+01 -.48662503E+02 -.12170496E+02 0.13490145E+03 0.12500000E+03 0.0000E+00 0.9000E+01
       23  1    1    2    0    0 -.80224598E+02 0.98762168E+02 -.21765296E+02 0.15804724E+03 0.91188000E+02 0.0000E+00 0.9000E+01
       21  1    1    2  502  501 0.87790434E+02 -.50099665E+02 -.14295949E+03 0.17508602E+03 0.75000000E+00 0.0000E+00 0.9000E+01
#aMCatNLO 2  0  0  2  1 0.10107985D+03 0.00000000D+00  -5  5  0 0.00000000D+00 0.00000000D+00 0.00000000D+00 0.00000000D+00 0.00000000D+00
  <mgrwgt>
 0.3670878003D-01    2    2    0
 0.136427787317556D+03 0.000000000000000D+00 0.000000000000000D+00 0.136427787317556D+03
 0.136427787317556D+03 0.000000000000000D+00 0.000000000000000D+00 -.136427787317556D+03
 0.149822691683676D+03 0.366879772264882D+02 -.739169768480833D+02 0.348020171978842D+01
 0.123032882951436D+03 -.366879772264882D+02 0.739169768480833D+02 -.348020171978842D+01
 0.000000000000000D+00 0.000000000000000D+00 -.000000000000000D+00 -.000000000000000D+00
 0.163532977023897D+03 0.000000000000000D+00 0.000000000000000D+00 0.163532977023897D+03
 0.287041024457974D+03 0.000000000000000D+00 0.000000000000000D+00 -.287041024457974D+03
 0.134396401971462D+03 -.756583603595922D+01 -.486625028532363D+02 0.348020171978842D+01
 0.156580060027550D+03 -.802245982367908D+02 0.987621683032837D+02 -.348020171978842D+01
 0.159597539482859D+03 0.877904342727500D+02 -.500996654500474D+02 -.123508047434077D+03
-.294749806805D-04 0.000000000000D+00 0.000000000000D+00 0.187052646563D-02 0.000000000000D+00  5 -1 1 25 23 21 2 0.18683276D-01 0.49597530D-01 0.38410623D+05 0.38410623D+05 0.38410623D+05 0.12037925D+01  1  2 13  2  5  2        1 -.762881483258D-02 0.100000000000D+01
0.229988513124D-03 0.000000000000D+00 0.000000000000D+00 0.187052646563D-02 0.183181833174D-05  5 -1 1 25 23 21 2 0.22395230D-01 0.49609754D-01 0.38410623D+05 0.38410623D+05 0.38410623D+05 0.12037925D+01  1  2  1  2  5  2        1 0.443375948619D-01 0.100000000000D+01
  </mgrwgt>
  </event>
  <event>
  4     66 0.43907321E-03 0.11570288E+03 0.75467711E-02 0.12218544E+00
       -1 -1    0    0    0  501 0.00000000E+00 0.00000000E+00 0.13652930E+03 0.13652968E+03 0.32000000E+00 0.0000E+00 0.9000E+01
        1 -1    0    0  501    0 0.00000000E+00 0.00000000E+00 -.14258302E+03 0.14258338E+03 0.32000000E+00 0.0000E+00 0.9000E+01
       25  1    1    2    0    0 -.30842031E+02 -.26744307E+02 0.74178496E+02 0.15097661E+03 0.12500000E+03 0.0000E+00 0.9000E+01
       23  1    1    2    0    0 0.30842031E+02 0.26744307E+02 -.80232217E+02 0.12813645E+03 0.91188000E+02 0.0000E+00 0.9000E+01
#aMCatNLO 1  0  0  1  1 0.33756385D+02 0.00000000D+00  -5  5  0 0.00000000D+00 0.00000000D+00 0.00000000D+00 0.00000000D+00 0.00000000D+00
  <mgrwgt>
 0.1555760276D+00    4    2    0
 0.139523701162862D+03 0.000000000000000D+00 0.000000000000000D+00 0.139523701162862D+03
 0.139523701162862D+03 0.000000000000000D+00 0.000000000000000D+00 -.139523701162862D+03
 0.152621383841641D+03 -.308420311667190D+02 -.267443067485847D+02 0.774712719386116D+02
 0.126426018484082D+03 0.308420311667190D+02 0.267443067485847D+02 -.774712719386116D+02
 0.000000000000000D+00 0.000000000000000D+00 -.000000000000000D+00 -.000000000000000D+00
 0.145527299089010D+03 0.000000000000000D+00 0.000000000000000D+00 0.145527299089010D+03
 0.197670624120706D+03 0.000000000000000D+00 0.000000000000000D+00 -.197670624120706D+03
 0.152911288741366D+03 -.404187428991941D+02 -.110176890139497D+02 0.774712719386116D+02
 0.128170454251787D+03 0.228618796271681D+02 0.398490963917141D+02 -.774712719386116D+02
 0.621161802165618D+02 0.175568632720260D+02 -.288314073777644D+02 -.521433250316967D+02
0.430516682439D-03 0.000000000000D+00 0.000000000000D+00 0.138074116083D-02 0.000000000000D+00  5 -1 1 25 23 21 0 0.21004565D-01 0.21935906D-01 0.13387157D+05 0.13387157D+05 0.13387157D+05 0.12534942D+01  1  2  2  1  5  1       -1 0.172458800675D+00 0.100000000000D+01
-.228984105156D-04 0.000000000000D+00 -.165329741821D-05 0.138074116083D-02 0.000000000000D+00  5 -1 1 25 23 21 2 0.21004565D-01 0.21935906D-01 0.13387157D+05 0.13387157D+05 0.13387157D+05 0.12534942D+01  1  2  3  1  5  1       -1 -.144126998547D-01 0.100000000000D+01
0.295069504428D-04 0.000000000000D+00 0.000000000000D+00 0.138074116083D-02 0.000000000000D+00  5 -1 1 25 23 21 2 0.21004565D-01 0.21935906D-01 0.13387157D+05 0.13387157D+05 0.13387157D+05 0.12534942D+01  1  2 15  1  5  1       -1 0.185722419497D-01 0.100000000000D+01
-.334313193532D-04 0.000000000000D+00 0.000000000000D+00 0.138074116083D-02 0.000000000000D+00  5 -1 1 25 23 21 2 0.21004565D-01 0.21935906D-01 0.13387157D+05 0.13387157D+05 0.13387157D+05 0.12534942D+01  1  2  4  1  5  1       -1 -.210423151972D-01 0.100000000000D+01
  </mgrwgt>
  </event>
  <event>
  4     66 0.43907321E-03 0.75052872E+02 0.75467711E-02 0.12409596E+00
       -1 -1    0    0    0  501 0.00000000E+00 0.00000000E+00 0.81742376E+02 0.81743003E+02 0.32000000E+00 0.0000E+00 0.9000E+01
        1 -1    0    0  501    0 0.00000000E+00 0.00000000E+00 -.16498526E+03 0.16498557E+03 0.32000000E+00 0.0000E+00 0.9000E+01
       25  1    1    2    0    0 0.41147286E+02 0.77501587E+01 -.50741693E+02 0.14125468E+03 0.12500000E+03 0.0000E+00 0.9000E+01
       23  1    1    2    0    0 -.41147286E+02 -.77501587E+01 -.32501189E+02 0.10547390E+03 0.91188000E+02 0.0000E+00 0.9000E+01
#aMCatNLO 1  0  0  1  2 0.10217320D+02 0.00000000D+00  -5  5  0 0.00000000D+00 0.00000000D+00 0.00000000D+00 0.00000000D+00 0.00000000D+00
  <mgrwgt>
 0.6700308167D-01    9    2    0
 0.116130972071522D+03 0.000000000000000D+00 0.000000000000000D+00 0.116130972071522D+03
 0.116130972071522D+03 0.000000000000000D+00 0.000000000000000D+00 -.116130972071522D+03
 0.131866973685928D+03 0.411472855039476D+02 0.775015868586209D+01 -.327638292723701D+01
 0.100394970457117D+03 -.411472855039476D+02 -.775015868586209D+01 0.327638292723701D+01
 0.000000000000000D+00 0.000000000000000D+00 0.000000000000000D+00 0.000000000000000D+00
 0.127487905930780D+03 0.000000000000000D+00 0.000000000000000D+00 0.127487905930780D+03
 0.118564251778955D+03 0.000000000000000D+00 0.000000000000000D+00 -.118564251778955D+03
 0.131257164277514D+03 0.398528196264198D+02 0.211216876988498D+01 -.327638292723701D+01
 0.101229403757925D+03 -.421391970576323D+02 -.120703863830927D+02 0.327638292723701D+01
 0.135655896742955D+02 0.228637743121257D+01 0.995821761320775D+01 0.892365415182551D+01
0.105885848673D-03 0.000000000000D+00 0.000000000000D+00 0.223291897511D-02 0.000000000000D+00  5 -1 1 25 23 21 0 0.12575822D-01 0.25382420D-01 0.13475467D+05 0.13475467D+05 0.13475467D+05 0.12531642D+01  1  2  2  1  5  1       -1 0.791240110624D-01 0.100000000000D+01
-.588254597187D-05 0.000000000000D+00 -.406629539288D-06 0.223291897511D-02 0.000000000000D+00  5 -1 1 25 23 21 2 0.12575822D-01 0.25382420D-01 0.13475467D+05 0.13475467D+05 0.13475467D+05 0.12531642D+01  1  2  3  1  5  1       -1 -.690321879324D-02 0.100000000000D+01
0.732065501408D-05 0.000000000000D+00 0.000000000000D+00 0.223291897511D-02 0.000000000000D+00  5 -1 1 25 23 21 2 0.12575822D-01 0.25382420D-01 0.13475467D+05 0.13475467D+05 0.13475467D+05 0.12531642D+01  1  2 15  1  5  1       -1 0.859085224557D-02 0.100000000000D+01
0.359931857996D-03 0.000000000000D+00 0.000000000000D+00 0.223291897511D-02 0.000000000000D+00  5 -1 1 25 23 21 2 0.13928931D-01 0.25382420D-01 0.14714897D+05 0.14714897D+05 0.14714897D+05 0.12487737D+01  1  2 12  1  5  1       -1 0.359223349047D+00 0.100000000000D+01
-.364104230824D-03 0.000000000000D+00 0.000000000000D+00 0.223291897511D-02 0.000000000000D+00  5 -1 1 25 23 21 2 0.12575822D-01 0.25382420D-01 0.13475467D+05 0.13475467D+05 0.13475467D+05 0.12531642D+01  1  2  4  1  5  1       -1 -.427279477448D+00 0.100000000000D+01
-.772349711083D-03 0.000000000000D+00 -.120317937421D-03 0.223291897511D-02 0.000000000000D+00  5 -1 1 25 23 21 2 0.14074746D-01 0.25382420D-01 0.13475467D+05 0.13475467D+05 0.13475467D+05 0.12531642D+01  1  2  5  1  5  1       -1 -.761433897208D+00 0.100000000000D+01
0.781695811240D-03 0.000000000000D+00 0.119559124699D-03 0.223291897511D-02 0.000000000000D+00  5 -1 1 25 23 21 2 0.12575822D-01 0.25382420D-01 0.13475467D+05 0.13475467D+05 0.13475467D+05 0.12531642D+01  1  2  6  1  5  1       -1 0.917326824228D+00 0.100000000000D+01
0.595648811023D-05 0.000000000000D+00 0.000000000000D+00 0.223291897511D-02 0.000000000000D+00  5 21 1 25 23 1 2 0.13928931D-01 0.25382420D-01 0.14714897D+05 0.14714897D+05 0.14714897D+05 0.12487737D+01  1  2 12  3  5  1       -1 0.833910552057D-01 0.100000000000D+01
-.133927906388D-04 0.000000000000D+00 -.216344105781D-05 0.223291897511D-02 0.000000000000D+00  5 21 1 25 23 1 2 0.14074746D-01 0.25382420D-01 0.13475467D+05 0.13475467D+05 0.13475467D+05 0.12531642D+01  1  2  5  3  5  1       -1 -.185036416669D+00 0.100000000000D+01
  </mgrwgt>
  </event>
  <event>
  5     66 -.43907321E-03 0.11018462E+03 0.75467711E-02 0.12453589E+00
       -1 -1    0    0    0  502 0.00000000E+00 0.00000000E+00 0.43891988E+02 0.43893155E+02 0.32000000E+00 0.0000E+00 0.9000E+01
        1 -1    0    0  501    0 0.00000000E+00 0.00000000E+00 -.33469531E+03 0.33469546E+03 0.32000000E+00 0.0000E+00 0.9000E+01
       25  1    1    2    0    0 0.21446648E+02 0.19980476E+02 -.11835173E+03 0.17461761E+03 0.12500000E+03 0.0000E+00 0.9000E+01
       23  1    1    2    0    0 -.15121532E+02 -.49329200E+01 -.14794834E+03 0.17451922E+03 0.91188000E+02 0.0000E+00 0.9000E+01
       21  1    1    2  501  502 -.63251159E+01 -.15047556E+02 -.24503247E+02 0.29451785E+02 0.75000000E+00 0.0000E+00 0.9000E+01
#aMCatNLO 2  0  0  1  2 0.16322868D+02 0.00000000D+00  -5  5  0 0.00000000D+00 0.00000000D+00 0.00000000D+00 0.00000000D+00 0.00000000D+00
  <mgrwgt>
 -.6263262218D-01    2    2    0
 0.112599246883459D+03 0.000000000000000D+00 0.000000000000000D+00 0.112599246883459D+03
 0.112599246883459D+03 0.000000000000000D+00 0.000000000000000D+00 -.112599246883459D+03
 0.128828815149501D+03 0.178106182880296D+02 0.113303015497756D+02 0.229405700847562D+02
 0.963696786174176D+02 -.178106182880296D+02 -.113303015497756D+02 -.229405700847562D+02
 0.000000000000000D+00 -.000000000000000D+00 -.000000000000000D+00 -.000000000000000D+00
 0.119630422230107D+03 0.000000000000000D+00 0.000000000000000D+00 0.119630422230107D+03
 0.122783466758261D+03 0.000000000000000D+00 0.000000000000000D+00 -.122783466758261D+03
 0.130424107710358D+03 0.214466476886097D+02 0.199804759490376D+02 0.229405700847562D+02
 0.953651693322830D+02 -.151215317521076D+02 -.493291997009930D+01 -.229405700847562D+02
 0.166246119457267D+02 -.632511593650207D+01 -.150475559789383D+02 -.315304452815404D+01
-.132854301180D-03 0.000000000000D+00 0.000000000000D+00 0.225837954874D-02 0.000000000000D+00  5 -1 1 25 23 21 2 0.70190600D-02 0.47217431D-01 0.14075261D+05 0.14075261D+05 0.14075261D+05 0.12509853D+01  1  2 13  1  5  1       -1 -.174989842137D+00 0.100000000000D+01
0.895981648987D-04 0.000000000000D+00 0.000000000000D+00 0.225837954874D-02 0.711412859558D-04  5 -1 1 25 23 21 2 0.67522429D-02 0.51488087D-01 0.14075261D+05 0.14075261D+05 0.14075261D+05 0.12509853D+01  1  2  1  1  5  1       -1 0.112357219956D+00 0.100000000000D+01
  </mgrwgt>
  </event>
  <event>
  4     66 0.43907321E-03 0.16191177E+03 0.75467711E-02 0.98236435E-01
       -1 -1    0    0    0  501 0.00000000E+00 0.00000000E+00 0.73000034E+02 0.73000735E+02 0.32000000E+00 0.0000E+00 0.9000E+01
        1 -1    0    0  501    0 0.00000000E+00 0.00000000E+00 -.36196260E+03 0.36196274E+03 0.32000000E+00 0.0000E+00 0.9000E+01
       25  1    1    2    0    0 0.92212224E+02 -.76613251E+02 -.17372462E+03 0.24531190E+03 0.12500000E+03 0.0000E+00 0.9000E+01
       23  1    1    2    0    0 -.92212224E+02 0.76613251E+02 -.11523795E+03 0.18965157E+03 0.91188000E+02 0.0000E+00 0.9000E+01
#aMCatNLO 1  0  0  2  2 0.60032171D+03 0.00000000D+00  -5  5  0 0.00000000D+00 0.00000000D+00 0.00000000D+00 0.00000000D+00 0.00000000D+00
  <mgrwgt>
 0.1976963510D+00    3    2    0
 0.162552960306286D+03 0.000000000000000D+00 0.000000000000000D+00 0.162552960306286D+03
 0.162552960306286D+03 0.000000000000000D+00 0.000000000000000D+00 -.162552960306286D+03
 0.173795063560246D+03 0.922122239243672D+02 -.766132506982801D+02 -.143888739752171D+02
 0.151310857052327D+03 -.922122239243672D+02 0.766132506982801D+02 0.143888739752171D+02
 0.000000000000000D+00 -.000000000000000D+00 -.000000000000000D+00 0.000000000000000D+00
 0.559219832878033D+04 0.000000000000000D+00 0.000000000000000D+00 0.559219832878033D+04
 0.358508741359115D+03 0.000000000000000D+00 0.000000000000000D+00 -.358508741359115D+03
 0.521675776698200D+03 0.504771473214957D+03 -.389786624680498D+02 -.143888739752171D+02
 0.161024757958875D+03 0.930679336273879D+02 0.935149259090110D+02 0.143888739752171D+02
 0.526800653548236D+04 -.597839406842344D+03 -.545362634409612D+02 0.523368958742121D+04
0.566760073407D-03 0.000000000000D+00 0.000000000000D+00 0.162005414391D-02 0.000000000000D+00  5 -1 1 25 23 21 0 0.11230839D-01 0.55686618D-01 0.26215422D+05 0.26215422D+05 0.26215422D+05 0.12210934D+01  1  2  2  2  5  2        1 0.193816040500D+00 0.100000000000D+01
-.314860727407D-04 0.000000000000D+00 -.217650791324D-05 0.162005414391D-02 0.000000000000D+00  5 -1 1 25 23 21 2 0.11230839D-01 0.55686618D-01 0.26215422D+05 0.26215422D+05 0.26215422D+05 0.12210934D+01  1  2  3  2  5  2        1 -.160548681114D-01 0.100000000000D+01
0.390959601784D-04 0.000000000000D+00 0.000000000000D+00 0.162005414391D-02 0.000000000000D+00  5 -1 1 25 23 21 2 0.11230839D-01 0.55686618D-01 0.26215422D+05 0.26215422D+05 0.26215422D+05 0.12210934D+01  1  2 15  2  5  2        1 0.199351786272D-01 0.100000000000D+01
  </mgrwgt>
  </event>
  <event>
  4     66 0.43907321E-03 0.10956114E+03 0.75467711E-02 0.12450939E+00
       -1 -1    0    0    0  501 0.00000000E+00 0.00000000E+00 0.93196216E+03 0.93196221E+03 0.32000000E+00 0.0000E+00 0.9000E+01
        1 -1    0    0  501    0 0.00000000E+00 0.00000000E+00 -.12938167E+02 0.12942124E+02 0.32000000E+00 0.0000E+00 0.9000E+01
       25  1    1    2    0    0 -.15027380E+02 0.92684430E+01 0.56100188E+03 0.57503030E+03 0.12500000E+03 0.0000E+00 0.9000E+01
       23  1    1    2    0    0 0.15027380E+02 -.92684430E+01 0.35802211E+03 0.36987404E+03 0.91188000E+02 0.0000E+00 0.9000E+01
#aMCatNLO 1  0  0  2  2 0.17756449D+02 0.00000000D+00  -5  5  0 0.00000000D+00 0.00000000D+00 0.00000000D+00 0.00000000D+00 0.00000000D+00
  <mgrwgt>
 0.6245838574D-01    4    2    0
 0.109817017139302D+03 0.000000000000000D+00 0.000000000000000D+00 0.109817017139302D+03
 0.109817017139302D+03 0.000000000000000D+00 0.000000000000000D+00 -.109817017139302D+03
 0.126457763825054D+03 -.150273798280795D+02 0.926844296927713D+01 0.740539344403616D+01
 0.931762704535500D+02 0.150273798280795D+02 -.926844296927713D+01 -.740539344403616D+01
 0.000000000000000D+00 0.000000000000000D+00 0.000000000000000D+00 0.000000000000000D+00
 0.126360547237000D+03 0.000000000000000D+00 0.000000000000000D+00 0.126360547237000D+03
 0.115045364212846D+03 0.000000000000000D+00 0.000000000000000D+00 -.115045364212846D+03
 0.128065894296928D+03 -.252958918560431D+02 0.900840081358957D+01 0.740539344403616D+01
 0.922847364946023D+02 0.754513399436354D+01 -.945792508028650D+01 -.740539344403616D+01
 0.210552806583155D+02 0.177507578616796D+02 0.449524266696927D+00 0.113151830241541D+02
0.560711338078D-03 0.000000000000D+00 0.000000000000D+00 0.240377684711D-02 0.000000000000D+00  5 -1 1 25 23 21 0 0.14337910D+00 0.19907958D-02 0.12003642D+05 0.12003642D+05 0.12003642D+05 0.12590087D+01  1  2  2  2  5  2        1 0.138456801178D+00 0.100000000000D+01
-.311504237827D-04 0.000000000000D+00 -.215327917691D-05 0.240377684711D-02 0.000000000000D+00  5 -1 1 25 23 21 2 0.14337910D+00 0.19907958D-02 0.12003642D+05 0.12003642D+05 0.12003642D+05 0.12590087D+01  1  2  3  2  5  2        1 -.121926006530D-01 0.100000000000D+01
0.387687901051D-04 0.000000000000D+00 0.000000000000D+00 0.240377684711D-02 0.000000000000D+00  5 -1 1 25 23 21 2 0.14337910D+00 0.19907958D-02 0.12003642D+05 0.12003642D+05 0.12003642D+05 0.12590087D+01  1  2 15  2  5  2        1 0.151745086631D-01 0.100000000000D+01
-.201783902876D-03 0.000000000000D+00 0.000000000000D+00 0.240377684711D-02 0.000000000000D+00  5 -1 1 25 23 21 2 0.14337910D+00 0.19907958D-02 0.12003642D+05 0.12003642D+05 0.12003642D+05 0.12590087D+01  1  2  4  2  5  2        1 -.789803234504D-01 0.100000000000D+01
  </mgrwgt>
  </event>
  <event>
  4     66 0.43907321E-03 0.14421266E+03 0.75467711E-02 0.11849290E+00
       -1 -1    0    0    0  501 0.00000000E+00 0.00000000E+00 0.30191783E+03 0.30191800E+03 0.32000000E+00 0.0000E+00 0.9000E+01
        1 -1    0    0  501    0 0.00000000E+00 0.00000000E+00 -.79460839E+02 0.79461483E+02 0.32000000E+00 0.0000E+00 0.9000E+01
       25  1    1    2    0    0 -.86499845E+02 0.38800982E+02 0.50361529E+02 0.16476961E+03 0.12500000E+03 0.0000E+00 0.9000E+01
       23  1    1    2    0    0 0.86499845E+02 -.38800982E+02 0.17209546E+03 0.21660988E+03 0.91188000E+02 0.0000E+00 0.9000E+01
#aMCatNLO 1  0  0  2  2 0.35972605D+02 0.00000000D+00  -5  5  0 0.00000000D+00 0.00000000D+00 0.00000000D+00 0.00000000D+00 0.00000000D+00
  <mgrwgt>
 0.1119643389D+00    4    2    0
 0.154889635976140D+03 0.000000000000000D+00 0.000000000000000D+00 0.154889635976140D+03
 0.154889635976140D+03 0.000000000000000D+00 0.000000000000000D+00 -.154889635976140D+03
 0.166687953871868D+03 -.864998449077151D+02 0.388009820038322D+02 -.563217062283221D+02
 0.143091318080413D+03 0.864998449077151D+02 -.388009820038322D+02 0.563217062283221D+02
 0.000000000000000D+00 -.000000000000000D+00 -.000000000000000D+00 0.000000000000000D+00
 0.239288275054000D+03 0.000000000000000D+00 0.000000000000000D+00 0.239288275054000D+03
 0.159811398322902D+03 0.000000000000000D+00 0.000000000000000D+00 -.159811398322902D+03
 0.159459352435773D+03 -.684057633437359D+02 0.441678845783610D+02 -.563217062283221D+02
 0.152401555116039D+03 0.102893272189766D+03 -.339385120976203D+02 0.563217062283221D+02
 0.872387658250900D+02 -.344875088460303D+02 -.102293724807407D+02 0.794768767310980D+02
0.536122096855D-03 0.000000000000D+00 0.000000000000D+00 0.150027396883D-02 0.000000000000D+00  5 -1 1 25 23 21 0 0.46448960D-01 0.12224807D-01 0.20797290D+05 0.20797290D+05 0.20797290D+05 0.12319614D+01  1  2  2  2  5  2        1 0.120216868522D+00 0.100000000000D+01
-.295998216492D-04 0.000000000000D+00 -.205885001611D-05 0.150027396883D-02 0.000000000000D+00  5 -1 1 25 23 21 2 0.46448960D-01 0.12224807D-01 0.20797290D+05 0.20797290D+05 0.20797290D+05 0.12319614D+01  1  2  3  2  5  2        1 -.100736072326D-01 0.100000000000D+01
0.369673245022D-04 0.000000000000D+00 0.000000000000D+00 0.150027396883D-02 0.000000000000D+00  5 -1 1 25 23 21 2 0.46448960D-01 0.12224807D-01 0.20797290D+05 0.20797290D+05 0.20797290D+05 0.12319614D+01  1  2 15  2  5  2        1 0.125809645710D-01 0.100000000000D+01
-.316163542387D-04 0.000000000000D+00 0.000000000000D+00 0.150027396883D-02 0.000000000000D+00  5 -1 1 25 23 21 2 0.46448960D-01 0.12224807D-01 0.20797290D+05 0.20797290D+05 0.20797290D+05 0.12319614D+01  1  2  4  2  5  2        1 -.107598869515D-01 0.100000000000D+01
  </mgrwgt>
  </event>
  <event>
  4     66 0.43907321E-03 0.13033655E+03 0.75467711E-02 0.10714383E+00
       -1 -1    0    0    0  501 0.00000000E+00 0.00000000E+00 0.12076298E+03 0.12076340E+03 0.32000000E+00 0.0000E+00 0.9000E+01
        1 -1    0    0  501    0 0.00000000E+00 0.00000000E+00 -.14338252E+03 0.14338287E+03 0.32000000E+00 0.0000E+00 0.9000E+01
       25  1    1    2    0    0 0.68128919E+02 -.23927514E+02 0.55648347E+01 0.14446468E+03 0.12500000E+03 0.0000E+00 0.9000E+01
       23  1    1    2    0    0 -.68128919E+02 0.23927514E+02 -.28184370E+02 0.11968160E+03 0.91188000E+02 0.0000E+00 0.9000E+01
#aMCatNLO 1  0  0  2  2 0.27803884D+03 0.00000000D+00  -5  5  0 0.00000000D+00 0.00000000D+00 0.00000000D+00 0.00000000D+00 0.00000000D+00
  <mgrwgt>
 0.1492863917D+00    3    2    0
 0.131588005762161D+03 0.000000000000000D+00 0.000000000000000D+00 0.131588005762161D+03
 0.131588005762161D+03 0.000000000000000D+00 0.000000000000000D+00 -.131588005762161D+03
 0.145475572135824D+03 0.681289193571925D+02 -.239275143847585D+02 0.180018468728529D+02
 0.117700439388497D+03 -.681289193571925D+02 0.239275143847585D+02 -.180018468728529D+02
 0.000000000000000D+00 -.000000000000000D+00 0.000000000000000D+00 0.000000000000000D+00
 0.714420232169430D+03 0.000000000000000D+00 0.000000000000000D+00 0.714420232169430D+03
 0.228373464821018D+03 0.000000000000000D+00 0.000000000000000D+00 -.228373464821018D+03
 0.285066607627948D+03 0.253051436909004D+03 -.357613558462325D+02 0.180018468728529D+02
 0.977743629795590D+02 0.244198361323224D+02 0.180049944319745D+02 -.180018468728529D+02
 0.559952726382941D+03 -.277471273041327D+03 0.177563614142580D+02 0.486046767348411D+03
0.299860889705D-03 0.000000000000D+00 0.000000000000D+00 0.190957943810D-02 0.000000000000D+00  5 -1 1 25 23 21 0 0.18578980D-01 0.22058909D-01 0.16987615D+05 0.16987615D+05 0.16987615D+05 0.12417085D+01  1  2  2  2  5  2        1 0.146215572933D+00 0.100000000000D+01
-.166570887224D-04 0.000000000000D+00 -.115154477165D-05 0.190957943810D-02 0.000000000000D+00  5 -1 1 25 23 21 2 0.18578980D-01 0.22058909D-01 0.16987615D+05 0.16987615D+05 0.16987615D+05 0.12417085D+01  1  2  3  2  5  2        1 -.125231095324D-01 0.100000000000D+01
0.207416094118D-04 0.000000000000D+00 0.000000000000D+00 0.190957943810D-02 0.000000000000D+00  5 -1 1 25 23 21 2 0.18578980D-01 0.22058909D-01 0.16987615D+05 0.16987615D+05 0.16987615D+05 0.12417085D+01  1  2 15  2  5  2        1 0.155939282591D-01 0.100000000000D+01
  </mgrwgt>
  </event>
  <event>
  4     66 0.43907321E-03 0.38404544E+02 0.75467711E-02 0.12191617E+00
       -1 -1    0    0    0  501 0.00000000E+00 0.00000000E+00 0.89504003E+01 0.89561189E+01 0.32000000E+00 0.0000E+00 0.9000E+01
        1 -1    0    0  501    0 0.00000000E+00 0.00000000E+00 -.15763893E+04 0.15763893E+04 0.32000000E+00 0.0000E+00 0.9000E+01
       25  1    1    2    0    0 0.11284983E+02 -.45985766E+02 -.80672234E+03 0.81772121E+03 0.12500000E+03 0.0000E+00 0.9000E+01
       23  1    1    2    0    0 -.11284983E+02 0.45985766E+02 -.76071652E+03 0.76762420E+03 0.91188000E+02 0.0000E+00 0.9000E+01
#aMCatNLO 1  0  0  2  1 0.32809014D+02 0.00000000D+00  -5  5  0 0.00000000D+00 0.00000000D+00 0.00000000D+00 0.00000000D+00 0.00000000D+00
  <mgrwgt>
 0.2649635720D+00    9    2    0
 0.118801824841405D+03 0.000000000000000D+00 0.000000000000000D+00 0.118801824841405D+03
 0.118801824841405D+03 0.000000000000000D+00 0.000000000000000D+00 -.118801824841405D+03
 0.134184056271264D+03 0.112849831028811D+02 -.459857663609870D+02 0.117609270880328D+02
 0.103419593411547D+03 -.112849831028811D+02 0.459857663609870D+02 -.117609270880328D+02
 0.000000000000000D+00 0.000000000000000D+00 -.000000000000000D+00 -.000000000000000D+00
 0.134219848938172D+03 0.000000000000000D+00 0.000000000000000D+00 0.134219848938172D+03
 0.138759939623723D+03 0.000000000000000D+00 0.000000000000000D+00 -.138759939623723D+03
 0.128919546490086D+03 0.674895609184721D+01 -.284847617667727D+02 0.117609270880328D+02
 0.110938590209956D+03 -.149806166888084D+02 0.602443455556253D+02 -.117609270880328D+02
 0.331216518618523D+02 0.823166059696116D+01 -.317595837888526D+02 -.454009068555180D+01
0.169627493423D-03 0.000000000000D+00 0.000000000000D+00 0.215532938406D-02 0.000000000000D+00  5 -1 1 25 23 21 0 0.13774270D-02 0.24252187D+00 0.13973172D+05 0.13973172D+05 0.13973172D+05 0.12513487D+01  1  2  2  2  5  2        1 0.124255176778D+00 0.100000000000D+01
-.942346209298D-05 0.000000000000D+00 -.651414238689D-06 0.215532938406D-02 0.000000000000D+00  5 -1 1 25 23 21 2 0.13774270D-02 0.24252187D+00 0.13973172D+05 0.13973172D+05 0.13973172D+05 0.12513487D+01  1  2  3  2  5  2        1 -.108089977582D-01 0.100000000000D+01
0.117321454157D-04 0.000000000000D+00 0.000000000000D+00 0.215532938406D-02 0.000000000000D+00  5 -1 1 25 23 21 2 0.13774270D-02 0.24252187D+00 0.13973172D+05 0.13973172D+05 0.13973172D+05 0.12513487D+01  1  2 15  2  5  2        1 0.134571277781D-01 0.100000000000D+01
0.128257398903D-03 0.000000000000D+00 0.000000000000D+00 0.215532938406D-02 0.000000000000D+00  5 -1 1 25 23 21 2 0.13774270D-02 0.29671379D+00 0.18428661D+05 0.18428661D+05 0.18428661D+05 0.12377576D+01  1  2 12  2  5  2        1 0.862870425547D-01 0.100000000000D+01
-.117985028299D-03 0.000000000000D+00 0.000000000000D+00 0.215532938406D-02 0.000000000000D+00  5 -1 1 25 23 21 2 0.13774270D-02 0.24252187D+00 0.13973172D+05 0.13973172D+05 0.13973172D+05 0.12513487D+01  1  2  4  2  5  2        1 -.135332417512D+00 0.100000000000D+01
-.346306779055D-03 0.000000000000D+00 -.100934458329D-03 0.215532938406D-02 0.000000000000D+00  5 -1 1 25 23 21 2 0.13774270D-02 0.30231811D+00 0.13973172D+05 0.13973172D+05 0.13973172D+05 0.12513487D+01  1  2  5  2  5  2        1 -.225161166098D+00 0.100000000000D+01
0.362124114021D-03 0.000000000000D+00 0.985318698175D-04 0.215532938406D-02 0.000000000000D+00  5 -1 1 25 23 21 2 0.13774270D-02 0.24252187D+00 0.13973172D+05 0.13973172D+05 0.13973172D+05 0.12513487D+01  1  2  6  2  5  2        1 0.415367377510D+00 0.100000000000D+01
0.369386876810D-05 0.000000000000D+00 0.000000000000D+00 0.215532938406D-02 0.000000000000D+00  5 -1 21 25 23 -1 2 0.13774270D-02 0.29671379D+00 0.18428661D+05 0.18428661D+05 0.18428661D+05 0.12377576D+01  1  2 12  4  5  2        1 0.216420464517D-02 0.100000000000D+01
-.929754909487D-05 0.000000000000D+00 -.310960091560D-05 0.215532938406D-02 0.000000000000D+00  5 -1 21 25 23 -1 2 0.13774270D-02 0.30231811D+00 0.13973172D+05 0.13973172D+05 0.13973172D+05 0.12513487D+01  1  2  5  4  5  2        1 -.526477588776D-02 0.100000000000D+01
  </mgrwgt>
  </event>
  <event>
  4     66 0.43907321E-03 0.12702435E+03 0.75467711E-02 0.11993265E+00
       -3 -1    0    0    0  501 0.00000000E+00 0.00000000E+00 0.52649296E+03 0.52649320E+03 0.50000000E+00 0.0000E+00 0.9000E+01
        3 -1    0    0  501    0 0.00000000E+00 0.00000000E+00 -.76936922E+02 0.76938547E+02 0.50000000E+00 0.0000E+00 0.9000E+01
       25  1    1    2    0    0 -.54323377E+02 -.37696167E+02 0.46835351E+03 0.48923618E+03 0.12500000E+03 0.0000E+00 0.9000E+01
       23  1    1    2    0    0 0.54323377E+02 0.37696167E+02 -.18797473E+02 0.11419556E+03 0.91188000E+02 0.0000E+00 0.9000E+01
#aMCatNLO 1  0  0  2  2 0.43320045D+02 0.00000000D+00  -5  5  0 0.00000000D+00 0.00000000D+00 0.00000000D+00 0.00000000D+00 0.00000000D+00
  <mgrwgt>
 0.1691655116D-01    4    2    0
 0.201264278223791D+03 0.000000000000000D+00 0.000000000000000D+00 0.201264278223791D+03
 0.201264278223791D+03 0.000000000000000D+00 0.000000000000000D+00 -.201264278223791D+03
 0.210344067146732D+03 -.543233772706970D+02 -.376961672438901D+02 0.155716396827228D+03
 0.192184489300850D+03 0.543233772706970D+02 0.376961672438901D+02 -.155716396827228D+03
 0.000000000000000D+00 -.000000000000000D+00 0.000000000000000D+00 0.000000000000000D+00
 0.257938693072492D+03 0.000000000000000D+00 0.000000000000000D+00 0.257938693072492D+03
 0.210877853383237D+03 0.000000000000000D+00 0.000000000000000D+00 -.210877853383237D+03
 0.205783685705797D+03 -.319994091641008D+02 -.380836825288168D+02 0.155716396827228D+03
 0.199069207418401D+03 0.753129291265277D+02 0.373318157034714D+02 -.155716396827228D+03
 0.639636533315313D+02 -.433135199624269D+02 0.751866825345407D+00 0.470608396892544D+02
0.114246460870D-02 0.000000000000D+00 0.000000000000D+00 0.675212085924D-03 0.000000000000D+00  5 -3 3 25 23 21 0 0.80999060D-01 0.11836593D-01 0.16135184D+05 0.16135184D+05 0.16135184D+05 0.12442268D+01  1  2  2  2  5  2        3 0.213747301587D-01 0.100000000000D+01
-.471239111645D-04 0.000000000000D+00 -.438736491526D-05 0.675212085924D-03 0.000000000000D+00  5 -3 3 25 23 21 2 0.80999060D-01 0.11836593D-01 0.16135184D+05 0.16135184D+05 0.16135184D+05 0.12442268D+01  1  2  3  2  5  2        3 -.136489203410D-02 0.100000000000D+01
0.781456663743D-04 0.000000000000D+00 0.000000000000D+00 0.675212085924D-03 0.000000000000D+00  5 -3 3 25 23 21 2 0.80999060D-01 0.11836593D-01 0.16135184D+05 0.16135184D+05 0.16135184D+05 0.12442268D+01  1  2 15  2  5  2        3 0.226340290732D-02 0.100000000000D+01
-.184943696249D-03 0.000000000000D+00 0.000000000000D+00 0.675212085924D-03 0.000000000000D+00  5 -3 3 25 23 21 2 0.80999060D-01 0.11836593D-01 0.16135184D+05 0.16135184D+05 0.16135184D+05 0.12442268D+01  1  2  4  2  5  2        3 -.535668987420D-02 0.100000000000D+01
  </mgrwgt>
  </event>
  <event>
  4     66 0.43907321E-03 0.43275724E+02 0.75467711E-02 0.12504415E+00
       -1 -1    0    0    0  501 0.00000000E+00 0.00000000E+00 0.10636573E+03 0.10636621E+03 0.32000000E+00 0.0000E+00 0.9000E+01
        1 -1    0    0  501    0 0.00000000E+00 0.00000000E+00 -.11894874E+03 0.11894917E+03 0.32000000E+00 0.0000E+00 0.9000E+01
       25  1    1    2    0    0 -.15395013E+02 0.25634026E+02 0.14198764E-01 0.12852669E+03 0.12500000E+03 0.0000E+00 0.9000E+01
       23  1    1    2    0    0 0.15395013E+02 -.25634026E+02 -.12597204E+02 0.96788690E+02 0.91188000E+02 0.0000E+00 0.9000E+01
#aMCatNLO 1  0  0  1  2 0.67184163D+01 0.00000000D+00  -5  5  0 0.00000000D+00 0.00000000D+00 0.00000000D+00 0.00000000D+00 0.00000000D+00
  <mgrwgt>
 0.1567346960D+00    8    2    0
 0.112481874516001D+03 0.000000000000000D+00 0.000000000000000D+00 0.112481874516001D+03
 0.112481874516001D+03 0.000000000000000D+00 0.000000000000000D+00 -.112481874516001D+03
 0.128728377980344D+03 -.153950126008755D+02 0.256340259246178D+02 0.720316592653307D+01
 0.962353710516578D+02 0.153950126008755D+02 -.256340259246178D+02 -.720316592653307D+01
 0.000000000000000D+00 -.000000000000000D+00 -.000000000000000D+00 -.000000000000000D+00
 0.115269455153440D+03 0.000000000000000D+00 0.000000000000000D+00 0.115269455153440D+03
 0.116654238307820D+03 0.000000000000000D+00 0.000000000000000D+00 -.116654238307820D+03
 0.129148142977601D+03 -.131829244788899D+02 0.287848525683471D+02 0.720316592653307D+01
 0.959159045650435D+02 0.170433036234049D+02 -.232862536009079D+02 -.720316592653307D+01
 0.685964591861589D+01 -.386037914451498D+01 -.549859896743916D+01 -.138478315437994D+01
0.101452252843D-03 0.000000000000D+00 0.000000000000D+00 0.232443997930D-02 0.000000000000D+00  5 -1 1 25 23 21 0 0.16364029D-01 0.18299876D-01 0.12599176D+05 0.12599176D+05 0.12599176D+05 0.12565516D+01  1  2  2  1  5  1       -1 0.758036351021D-01 0.100000000000D+01
-.563620608438D-05 0.000000000000D+00 -.389603363908D-06 0.232443997930D-02 0.000000000000D+00  5 -1 1 25 23 21 2 0.16364029D-01 0.18299876D-01 0.12599176D+05 0.12599176D+05 0.12599176D+05 0.12565516D+01  1  2  3  1  5  1       -1 -.664929903022D-02 0.100000000000D+01
0.701139167737D-05 0.000000000000D+00 0.000000000000D+00 0.232443997930D-02 0.000000000000D+00  5 -1 1 25 23 21 2 0.16364029D-01 0.18299876D-01 0.12599176D+05 0.12599176D+05 0.12599176D+05 0.12565516D+01  1  2 15  1  5  1       -1 0.827167054981D-02 0.100000000000D+01
0.152521428676D-03 0.000000000000D+00 0.000000000000D+00 0.232443997930D-02 0.000000000000D+00  5 -1 1 25 23 21 2 0.17063945D-01 0.18299876D-01 0.13376145D+05 0.13376145D+05 0.13376145D+05 0.12535355D+01  1  2 12  1  5  1       -1 0.168037281391D+00 0.100000000000D+01
-.107978008629D-03 0.000000000000D+00 0.000000000000D+00 0.232443997930D-02 0.000000000000D+00  5 -1 1 25 23 21 2 0.16364029D-01 0.18299876D-01 0.12599176D+05 0.12599176D+05 0.12599176D+05 0.12565516D+01  1  2  4  1  5  1       -1 -.127386766437D+00 0.100000000000D+01
0.111252392979D-04 0.000000000000D+00 0.000000000000D+00 0.232443997930D-02 0.431987306656D-03  5 -1 1 25 23 21 2 0.16769570D-01 0.18978685D-01 0.13376145D+05 0.13376145D+05 0.13376145D+05 0.12535355D+01  1  2 11  1  5  1       -1 0.120278599303D-01 0.100000000000D+01
0.166587787984D-05 0.000000000000D+00 0.000000000000D+00 0.232443997930D-02 0.000000000000D+00  5 21 1 25 23 1 2 0.17063945D-01 0.18299876D-01 0.13376145D+05 0.13376145D+05 0.13376145D+05 0.12535355D+01  1  2 12  3  5  1       -1 0.245722485432D-01 0.100000000000D+01
0.141592013970D-06 0.000000000000D+00 0.000000000000D+00 0.232443997930D-02 0.195301637319D-05  5 21 1 25 23 1 2 0.16769570D-01 0.18978685D-01 0.13376145D+05 0.13376145D+05 0.13376145D+05 0.12535355D+01  1  2 11  3  5  1       -1 0.205806592965D-02 0.100000000000D+01
  </mgrwgt>
  </event>
  <event>
  5     66 0.43907321E-03 0.13205411E+03 0.75467711E-02 0.12142908E+00
       -1 -1    0    0    0  502 0.00000000E+00 0.00000000E+00 0.13054493E+04 0.13054493E+04 0.32000000E+00 0.0000E+00 0.9000E+01
        1 -1    0    0  501    0 0.00000000E+00 0.00000000E+00 -.14949687E+02 0.14953111E+02 0.32000000E+00 0.0000E+00 0.9000E+01
       25  1    1    2    0    0 0.68227976E+02 0.69073188E+01 0.65162107E+03 0.66703658E+03 0.12500000E+03 0.0000E+00 0.9000E+01
       23  1    1    2    0    0 -.80907062E+02 -.75988694E+00 0.59143017E+03 0.60386375E+03 0.91188000E+02 0.0000E+00 0.9000E+01
       21  1    1    2  501  502 0.12679086E+02 -.61474318E+01 0.47448331E+02 0.49502088E+02 0.75000000E+00 0.0000E+00 0.9000E+01
#aMCatNLO 2  0  0  1  2 0.14090782D+02 0.00000000D+00  -5  5  0 0.00000000D+00 0.00000000D+00 0.00000000D+00 0.00000000D+00 0.00000000D+00
  <mgrwgt>
 0.7100878136D-01    1    2    0
 0.132110452972935D+03 0.000000000000000D+00 0.000000000000000D+00 0.132110452972935D+03
 0.132110452972935D+03 0.000000000000000D+00 0.000000000000000D+00 -.132110452972935D+03
 0.145943099238817D+03 0.751468237030942D+02 0.355272786026128D+01 -.383682518733367D+01
 0.118277806707054D+03 -.751468237030942D+02 -.355272786026128D+01 0.383682518733367D+01
 0.000000000000000D+00 0.000000000000000D+00 -.000000000000000D+00 -.000000000000000D+00
 0.137390894824590D+03 0.000000000000000D+00 0.000000000000000D+00 0.137390894824590D+03
 0.142044962676935D+03 0.000000000000000D+00 0.000000000000000D+00 -.142044962676935D+03
 0.142627097518961D+03 0.682279756899472D+02 0.690731875744957D+01 -.383682518733367D+01
 0.121969269194799D+03 -.809070616709920D+02 -.759886939918603D+00 0.383682518733367D+01
 0.148394907877645D+02 0.126790859810448D+02 -.614743181753097D+01 -.465406785234490D+01
0.577252597285D-03 0.000000000000D+00 0.000000000000D+00 0.192899387828D-02 0.792881595798D-04  5 -1 1 25 23 21 2 0.20082493D+00 0.23000615D-02 0.19401031D+05 0.19401031D+05 0.19401031D+05 0.12352825D+01  1  2  1  1  5  1       -1 0.710087813647D-01 0.100000000000D+01
  </mgrwgt>
  </event>
  <event>
  4     66 0.43907321E-03 0.12763187E+03 0.75467711E-02 0.10861469E+00
       -1 -1    0    0    0  501 0.00000000E+00 0.00000000E+00 0.10276174E+04 0.10276175E+04 0.32000000E+00 0.0000E+00 0.9000E+01
        1 -1    0    0  501    0 0.00000000E+00 0.00000000E+00 -.15872107E+02 0.15875333E+02 0.32000000E+00 0.0000E+00 0.9000E+01
       25  1    1    2    0    0 -.52548747E+02 -.41992916E+02 0.54338959E+03 0.56162445E+03 0.12500000E+03 0.0000E+00 0.9000E+01
       23  1    1    2    0    0 0.52548747E+02 0.41992916E+02 0.46835574E+03 0.48186837E+03 0.91188000E+02 0.0000E+00 0.9000E+01
#aMCatNLO 1  0  0  2  2 0.24356464D+03 0.00000000D+00  -5  5  0 0.00000000D+00 0.00000000D+00 0.00000000D+00 0.00000000D+00 0.00000000D+00
  <mgrwgt>
 0.1671790888D+00    3    2    0
 0.127719078629261D+03 0.000000000000000D+00 0.000000000000000D+00 0.127719078629261D+03
 0.127719078629261D+03 0.000000000000000D+00 0.000000000000000D+00 -.127719078629261D+03
 0.142027333774952D+03 -.525487468474773D+02 -.419929156381929D+02 -.468911294222019D+01
 0.113410823483570D+03 0.525487468474773D+02 0.419929156381929D+02 0.468911294222019D+01
 0.000000000000000D+00 0.000000000000000D+00 -.000000000000000D+00 0.000000000000000D+00
 0.472175074129186D+03 0.000000000000000D+00 0.000000000000000D+00 0.472175074129186D+03
 0.226629236851099D+03 0.000000000000000D+00 0.000000000000000D+00 -.226629236851099D+03
 0.169502907577548D+03 -.826971151918766D+02 0.790280648630560D+02 -.468911294222019D+01
 0.183445229170266D+03 0.238204744915826D+02 0.157313375070724D+03 0.468911294222019D+01
 0.345856174232470D+03 0.588766407002940D+02 -.236341439933780D+03 0.245545837278087D+03
0.112421726407D-02 0.000000000000D+00 0.000000000000D+00 0.199642143729D-02 0.000000000000D+00  5 -1 1 25 23 21 0 0.15809524D+00 0.24421146D-02 0.16289895D+05 0.16289895D+05 0.16289895D+05 0.12437588D+01  1  2  2  2  5  2        1 0.163753319914D+00 0.100000000000D+01
-.624564792450D-04 0.000000000000D+00 -.431729030724D-05 0.199642143729D-02 0.000000000000D+00  5 -1 1 25 23 21 2 0.15809524D+00 0.24421146D-02 0.16289895D+05 0.16289895D+05 0.16289895D+05 0.12437588D+01  1  2  3  2  5  2        1 -.140730971246D-01 0.100000000000D+01
0.776600597599D-04 0.000000000000D+00 0.000000000000D+00 0.199642143729D-02 0.000000000000D+00  5 -1 1 25 23 21 2 0.15809524D+00 0.24421146D-02 0.16289895D+05 0.16289895D+05 0.16289895D+05 0.12437588D+01  1  2 15  2  5  2        1 0.174988660410D-01 0.100000000000D+01
  </mgrwgt>
  </event>
  <event>
  4     66 0.43907321E-03 0.11336719E+03 0.75467711E-02 0.12039628E+00
       -1 -1    0    0    0  501 0.00000000E+00 0.00000000E+00 0.17046900E+04 0.17046900E+04 0.32000000E+00 0.0000E+00 0.9000E+01
        1 -1    0    0  501    0 0.00000000E+00 0.00000000E+00 -.18218389E+02 0.18221199E+02 0.32000000E+00 0.0000E+00 0.9000E+01
       25  1    1    2    0    0 -.24825607E+02 -.22924342E+02 0.15496499E+04 0.15550504E+04 0.12500000E+03 0.0000E+00 0.9000E+01
       23  1    1    2    0    0 0.24825607E+02 0.22924342E+02 0.13682171E+03 0.16786086E+03 0.91188000E+02 0.0000E+00 0.9000E+01
#aMCatNLO 1  0  0  2  2 0.60556295D+02 0.00000000D+00  -5  5  0 0.00000000D+00 0.00000000D+00 0.00000000D+00 0.00000000D+00 0.00000000D+00
  <mgrwgt>
 0.1032087454D+00    4    2    0
 0.176236066490299D+03 0.000000000000000D+00 0.000000000000000D+00 0.176236066490299D+03
 0.176236066490299D+03 0.000000000000000D+00 0.000000000000000D+00 -.176236066490299D+03
 0.186605324045764D+03 -.248256066490683D+02 -.229243423415884D+02 0.134367818859041D+03
 0.165866808934834D+03 0.248256066490683D+02 0.229243423415884D+02 -.134367818859041D+03
 0.000000000000000D+00 -.000000000000000D+00 0.000000000000000D+00 0.000000000000000D+00
 0.277146391786175D+03 0.000000000000000D+00 0.000000000000000D+00 0.277146391786175D+03
 0.188141637951414D+03 0.000000000000000D+00 0.000000000000000D+00 -.188141637951414D+03
 0.192526851595243D+03 -.195355162025780D+02 -.548200825148899D+02 0.134367818859041D+03
 0.165109373355020D+03 0.294437690009898D+02 -.492011664166712D+01 -.134367818859041D+03
 0.107651804787327D+03 -.990825279841177D+01 0.597401991565571D+02 0.890047538347606D+02
0.441524322480D-02 0.000000000000D+00 0.000000000000D+00 0.770315259134D-03 0.000000000000D+00  5 -1 1 25 23 21 0 0.26226022D+00 0.28030475D-02 0.12852119D+05 0.12852119D+05 0.12852119D+05 0.12555473D+01  1  2  2  2  5  2        1 0.110634739456D+00 0.100000000000D+01
-.187238963725D-03 0.000000000000D+00 -.169556965435D-04 0.770315259134D-03 0.000000000000D+00  5 -1 1 25 23 21 2 0.26226022D+00 0.28030475D-02 0.12852119D+05 0.12852119D+05 0.12852119D+05 0.12555473D+01  1  2  3  2  5  2        1 -.739603990564D-02 0.100000000000D+01
0.302907785272D-03 0.000000000000D+00 0.000000000000D+00 0.770315259134D-03 0.000000000000D+00  5 -1 1 25 23 21 2 0.26226022D+00 0.28030475D-02 0.12852119D+05 0.12852119D+05 0.12852119D+05 0.12555473D+01  1  2 15  2  5  2        1 0.119650206508D-01 0.100000000000D+01
-.303666108829D-03 0.000000000000D+00 0.000000000000D+00 0.770315259134D-03 0.000000000000D+00  5 -1 1 25 23 21 2 0.26226022D+00 0.28030475D-02 0.12852119D+05 0.12852119D+05 0.12852119D+05 0.12555473D+01  1  2  4  2  5  2        1 -.119949748397D-01 0.100000000000D+01
  </mgrwgt>
  </event>
  <event>
  4     66 0.43907321E-03 0.89437556E+02 0.75467711E-02 0.12087333E+00
       -1 -1    0    0    0  501 0.00000000E+00 0.00000000E+00 0.64646582E+02 0.64647374E+02 0.32000000E+00 0.0000E+00 0.9000E+01
        1 -1    0    0  501    0 0.00000000E+00 0.00000000E+00 -.26587442E+03 0.26587461E+03 0.32000000E+00 0.0000E+00 0.9000E+01
       25  1    1    2    0    0 -.16244385E+02 0.68631067E+02 -.13769542E+03 0.19889477E+03 0.12500000E+03 0.0000E+00 0.9000E+01
       23  1    1    2    0    0 0.16244385E+02 -.68631067E+02 -.63532422E+02 0.13162721E+03 0.91188000E+02 0.0000E+00 0.9000E+01
#aMCatNLO 1  0  0  2  1 0.26731618D+02 0.00000000D+00  -5  5  0 0.00000000D+00 0.00000000D+00 0.00000000D+00 0.00000000D+00 0.00000000D+00
  <mgrwgt>
 0.1780950516D+00    9    2    0
 0.131103147693412D+03 0.000000000000000D+00 0.000000000000000D+00 0.131103147693412D+03
 0.131103147693412D+03 0.000000000000000D+00 0.000000000000000D+00 -.131103147693412D+03
 0.145042074379395D+03 -.162443850325033D+02 0.686310668212435D+02 -.209308375888703D+02
 0.117164221007430D+03 0.162443850325033D+02 -.686310668212435D+02 0.209308375888703D+02
 0.000000000000000D+00 -.000000000000000D+00 0.000000000000000D+00 -.000000000000000D+00
 0.142066392637064D+03 0.000000000000000D+00 0.000000000000000D+00 0.142066392637064D+03
 0.149154365845631D+03 0.000000000000000D+00 0.000000000000000D+00 -.149154365845631D+03
 0.138647093623880D+03 -.114026264527072D+02 0.550444976192646D+02 -.209308375888703D+02
 0.124918307667106D+03 0.203760378850899D+02 -.802249921430191D+02 0.209308375888703D+02
 0.276553571917089D+02 -.897341143238265D+01 0.251804945237544D+02 -.708797320856684D+01
0.168548813459D-03 0.000000000000D+00 0.000000000000D+00 0.190644947223D-02 0.000000000000D+00  5 -1 1 25 23 21 0 0.99457038D-02 0.40903833D-01 0.16744792D+05 0.16744792D+05 0.16744792D+05 0.12424111D+01  1  2  2  2  5  2        1 0.100699691334D+00 0.100000000000D+01
-.936188017128D-05 0.000000000000D+00 -.647271823603D-06 0.190644947223D-02 0.000000000000D+00  5 -1 1 25 23 21 2 0.99457038D-02 0.40903833D-01 0.16744792D+05 0.16744792D+05 0.16744792D+05 0.12424111D+01  1  2  3  2  5  2        1 -.863368461809D-02 0.100000000000D+01
0.116698431488D-04 0.000000000000D+00 0.000000000000D+00 0.190644947223D-02 0.000000000000D+00  5 -1 1 25 23 21 2 0.99457038D-02 0.40903833D-01 0.16744792D+05 0.16744792D+05 0.16744792D+05 0.12424111D+01  1  2 15  2  5  2        1 0.107621272059D-01 0.100000000000D+01
0.206714935696D-03 0.000000000000D+00 0.000000000000D+00 0.190644947223D-02 0.000000000000D+00  5 -1 1 25 23 21 2 0.99457038D-02 0.48054141D-01 0.20583924D+05 0.20583924D+05 0.20583924D+05 0.12324525D+01  1  2 12  2  5  2        1 0.154642490500D+00 0.100000000000D+01
-.191659896322D-03 0.000000000000D+00 0.000000000000D+00 0.190644947223D-02 0.000000000000D+00  5 -1 1 25 23 21 2 0.99457038D-02 0.40903833D-01 0.16744792D+05 0.16744792D+05 0.16744792D+05 0.12424111D+01  1  2  4  2  5  2        1 -.176752005848D+00 0.100000000000D+01
-.520156411109D-03 0.000000000000D+00 -.137726192563D-03 0.190644947223D-02 0.000000000000D+00  5 -1 1 25 23 21 2 0.99457038D-02 0.49981282D-01 0.16744792D+05 0.16744792D+05 0.16744792D+05 0.12424111D+01  1  2  5  2  5  2        1 -.374465435261D+00 0.100000000000D+01
0.539606485638D-03 0.000000000000D+00 0.135005510577D-03 0.190644947223D-02 0.000000000000D+00  5 -1 1 25 23 21 2 0.99457038D-02 0.40903833D-01 0.16744792D+05 0.16744792D+05 0.16744792D+05 0.12424111D+01  1  2  6  2  5  2        1 0.497634249707D+00 0.100000000000D+01
0.499414100248D-05 0.000000000000D+00 0.000000000000D+00 0.190644947223D-02 0.000000000000D+00  5 -1 21 25 23 -1 2 0.99457038D-02 0.48054141D-01 0.20583924D+05 0.20583924D+05 0.20583924D+05 0.12324525D+01  1  2 12  4  5  2        1 0.172312197468D-01 0.100000000000D+01
-.133175238797D-04 0.000000000000D+00 -.394770320461D-05 0.190644947223D-02 0.000000000000D+00  5 -1 21 25 23 -1 2 0.99457038D-02 0.49981282D-01 0.16744792D+05 0.16744792D+05 0.16744792D+05 0.12424111D+01  1  2  5  4  5  2        1 -.430236011166D-01 0.100000000000D+01
  </mgrwgt>
  </event>
  <event>
  4     66 0.43907321E-03 0.48576272E+02 0.75467711E-02 0.12392932E+00
       -1 -1    0    0    0  501 0.00000000E+00 0.00000000E+00 0.10845468E+02 0.10850188E+02 0.32000000E+00 0.0000E+00 0.9000E+01
        1 -1    0    0  501    0 0.00000000E+00 0.00000000E+00 -.11761438E+04 0.11761438E+04 0.32000000E+00 0.0000E+00 0.9000E+01
       25  1    1    2    0    0 0.84919710E+01 0.30681876E+02 -.63423439E+03 0.64721847E+03 0.12500000E+03 0.0000E+00 0.9000E+01
       23  1    1    2    0    0 -.84919710E+01 -.30681876E+02 -.53106392E+03 0.53977553E+03 0.91188000E+02 0.0000E+00 0.9000E+01
#aMCatNLO 1  0  0  1  2 0.18348311D+02 0.00000000D+00  -5  5  0 0.00000000D+00 0.00000000D+00 0.00000000D+00 0.00000000D+00 0.00000000D+00
  <mgrwgt>
 0.1000984899D+00    9    2    0
 0.112954225377533D+03 0.000000000000000D+00 0.000000000000000D+00 0.112954225377533D+03
 0.112954225377533D+03 0.000000000000000D+00 0.000000000000000D+00 -.112954225377533D+03
 0.129132789374516D+03 0.849197103116336D+01 0.306818759533567D+02 0.606516344641518D+01
 0.967756613805507D+02 -.849197103116336D+01 -.306818759533567D+02 -.606516344641518D+01
 0.000000000000000D+00 0.000000000000000D+00 0.000000000000000D+00 0.000000000000000D+00
 0.122988485660780D+03 0.000000000000000D+00 0.000000000000000D+00 0.122988485660780D+03
 0.122036839519544D+03 0.000000000000000D+00 0.000000000000000D+00 -.122036839519544D+03
 0.127005155377761D+03 0.734646107433014D+01 0.203605696035463D+02 0.606516344641518D+01
 0.996471965580192D+02 -.937042088261306D+01 -.385969097561382D+02 -.606516344641518D+01
 0.183729732445435D+02 0.202395980828292D+01 0.182363401525919D+02 0.951646141236822D+00
0.102990840014D-03 0.000000000000D+00 0.000000000000D+00 0.231314611343D-02 0.000000000000D+00  5 -1 1 25 23 21 0 0.16689000D-02 0.18094556D+00 0.12721098D+05 0.12721098D+05 0.12721098D+05 0.12560647D+01  1  2  2  1  5  1       -1 0.104843541751D+00 0.100000000000D+01
-.572169821777D-05 0.000000000000D+00 -.395511943763D-06 0.231314611343D-02 0.000000000000D+00  5 -1 1 25 23 21 2 0.16689000D-02 0.18094556D+00 0.12721098D+05 0.12721098D+05 0.12721098D+05 0.12560647D+01  1  2  3  1  5  1       -1 -.918950360212D-02 0.100000000000D+01
0.713926975702D-05 0.000000000000D+00 0.000000000000D+00 0.231314611343D-02 0.000000000000D+00  5 -1 1 25 23 21 2 0.16689000D-02 0.18094556D+00 0.12721098D+05 0.12721098D+05 0.12721098D+05 0.12560647D+01  1  2 15  1  5  1       -1 0.114662365353D-01 0.100000000000D+01
0.106626507586D-03 0.000000000000D+00 0.000000000000D+00 0.231314611343D-02 0.000000000000D+00  5 -1 1 25 23 21 2 0.18787396D-02 0.18094556D+00 0.14965975D+05 0.14965975D+05 0.14965975D+05 0.12479350D+01  1  2 12  1  5  1       -1 0.143293271859D+00 0.100000000000D+01
-.871744757497D-04 0.000000000000D+00 0.000000000000D+00 0.231314611343D-02 0.000000000000D+00  5 -1 1 25 23 21 2 0.16689000D-02 0.18094556D+00 0.12721098D+05 0.12721098D+05 0.12721098D+05 0.12560647D+01  1  2  4  1  5  1       -1 -.140009159593D+00 0.100000000000D+01
-.321783463161D-03 0.000000000000D+00 -.822891409615D-04 0.231314611343D-02 0.000000000000D+00  5 -1 1 25 23 21 2 0.19734079D-02 0.18094556D+00 0.12721098D+05 0.12721098D+05 0.12721098D+05 0.12560647D+01  1  2  5  1  5  1       -1 -.406494481663D+00 0.100000000000D+01
0.332042948448D-03 0.000000000000D+00 0.811468117335D-04 0.231314611343D-02 0.000000000000D+00  5 -1 1 25 23 21 2 0.16689000D-02 0.18094556D+00 0.12721098D+05 0.12721098D+05 0.12721098D+05 0.12560647D+01  1  2  6  1  5  1       -1 0.533287453250D+00 0.100000000000D+01
0.200089564832D-05 0.000000000000D+00 0.000000000000D+00 0.231314611343D-02 0.000000000000D+00  5 21 1 25 23 1 2 0.18787396D-02 0.18094556D+00 0.14965975D+05 0.14965975D+05 0.14965975D+05 0.12479350D+01  1  2 12  3  5  1       -1 0.566301368564D-01 0.100000000000D+01
-.732647562618D-05 0.000000000000D+00 -.205159103497D-05 0.231314611343D-02 0.000000000000D+00  5 21 1 25 23 1 2 0.19734079D-02 0.18094556D+00 0.12721098D+05 0.12721098D+05 0.12721098D+05 0.12560647D+01  1  2  5  3  5  1       -1 -.193729005518D+00 0.100000000000D+01
  </mgrwgt>
  </event>
  <event>
  4     66 0.43907321E-03 0.50467310E+02 0.75467711E-02 0.12358663E+00
       -1 -1    0    0    0  501 0.00000000E+00 0.00000000E+00 0.68029686E+02 0.68030439E+02 0.32000000E+00 0.0000E+00 0.9000E+01
        1 -1    0    0  501    0 0.00000000E+00 0.00000000E+00 -.21609899E+03 0.21609922E+03 0.32000000E+00 0.0000E+00 0.9000E+01
       25  1    1    2    0    0 0.89710024E+00 0.16240870E+02 -.22425747E+02 0.12803314E+03 0.12500000E+03 0.0000E+00 0.9000E+01
       23  1    1    2    0    0 -.89710024E+00 -.16240870E+02 -.12564355E+03 0.15609652E+03 0.91188000E+02 0.0000E+00 0.9000E+01
#aMCatNLO 1  0  0  1  2 0.28419326D+02 0.00000000D+00  -5  5  0 0.00000000D+00 0.00000000D+00 0.00000000D+00 0.00000000D+00 0.00000000D+00
  <mgrwgt>
 0.1167486058D+00    9    2    0
 0.121248863077350D+03 0.000000000000000D+00 0.000000000000000D+00 0.121248863077350D+03
 0.121248863077350D+03 0.000000000000000D+00 0.000000000000000D+00 -.121248863077350D+03
 0.136320651114110D+03 0.897100237962570D+00 0.162408695784993D+02 0.519013418581077D+02
 0.106177075040589D+03 -.897100237962570D+00 -.162408695784993D+02 -.519013418581077D+02
 0.000000000000000D+00 0.000000000000000D+00 0.000000000000000D+00 0.000000000000000D+00
 0.230671784062469D+03 0.000000000000000D+00 0.000000000000000D+00 0.230671784062469D+03
 0.123938036168858D+03 0.000000000000000D+00 0.000000000000000D+00 -.123938036168858D+03
 0.136579026250754D+03 -.142966086229956D+02 0.114318899055606D+02 0.519013418581077D+02
 0.107578310878709D+03 -.127979464847589D+02 -.200076212133601D+02 -.519013418581077D+02
 0.110452483101864D+03 0.270945551077545D+02 0.857573130779951D+01 0.106733747893611D+03
0.158401097238D-03 0.000000000000D+00 0.000000000000D+00 0.182709385250D-02 0.000000000000D+00  5 -1 1 25 23 21 0 0.10466182D-01 0.33246074D-01 0.11955363D+05 0.11955363D+05 0.11955363D+05 0.12592138D+01  1  2  2  1  5  1       -1 0.111740569174D+00 0.100000000000D+01
-.868571538303D-05 0.000000000000D+00 -.608301921359D-06 0.182709385250D-02 0.000000000000D+00  5 -1 1 25 23 21 2 0.10466182D-01 0.33246074D-01 0.11955363D+05 0.11955363D+05 0.11955363D+05 0.12592138D+01  1  2  3  1  5  1       -1 -.971532334788D-02 0.100000000000D+01
0.108705836399D-04 0.000000000000D+00 0.000000000000D+00 0.182709385250D-02 0.000000000000D+00  5 -1 1 25 23 21 2 0.10466182D-01 0.33246074D-01 0.11955363D+05 0.11955363D+05 0.11955363D+05 0.12592138D+01  1  2 15  1  5  1       -1 0.121591867088D-01 0.100000000000D+01
0.749424936056D-03 0.000000000000D+00 0.000000000000D+00 0.182709385250D-02 0.000000000000D+00  5 -1 1 25 23 21 2 0.19927718D-01 0.33246074D-01 0.15498110D+05 0.15498110D+05 0.15498110D+05 0.12462084D+01  1  2 12  1  5  1       -1 0.303350264846D+00 0.100000000000D+01
-.657576513528D-03 0.000000000000D+00 0.000000000000D+00 0.182709385250D-02 0.000000000000D+00  5 -1 1 25 23 21 2 0.10466182D-01 0.33246074D-01 0.11955363D+05 0.11955363D+05 0.11955363D+05 0.12592138D+01  1  2  4  1  5  1       -1 -.735525880502D+00 0.100000000000D+01
-.771087173456D-03 0.000000000000D+00 -.484741477303D-04 0.182709385250D-02 0.000000000000D+00  5 -1 1 25 23 21 2 0.20212654D-01 0.33246074D-01 0.11955363D+05 0.11955363D+05 0.11955363D+05 0.12592138D+01  1  2  5  1  5  1       -1 -.309683796363D+00 0.100000000000D+01
0.663018459471D-03 0.000000000000D+00 0.395862729983D-04 0.182709385250D-02 0.000000000000D+00  5 -1 1 25 23 21 2 0.10466182D-01 0.33246074D-01 0.11955363D+05 0.11955363D+05 0.11955363D+05 0.12592138D+01  1  2  6  1  5  1       -1 0.741612916762D+00 0.100000000000D+01
0.524250421031D-04 0.000000000000D+00 0.000000000000D+00 0.182709385250D-02 0.000000000000D+00  5 21 1 25 23 1 2 0.19927718D-01 0.33246074D-01 0.15498110D+05 0.15498110D+05 0.15498110D+05 0.12462084D+01  1  2 12  3  5  1       -1 0.272891165973D+00 0.100000000000D+01
-.522279419792D-04 0.000000000000D+00 -.346039242784D-05 0.182709385250D-02 0.000000000000D+00  5 21 1 25 23 1 2 0.20212654D-01 0.33246074D-01 0.11955363D+05 0.11955363D+05 0.11955363D+05 0.12592138D+01  1  2  5  3  5  1       -1 -.270080497499D+00 0.100000000000D+01
  </mgrwgt>
  </event>
  <event>
  4     66 0.43907321E-03 0.14899269E+03 0.75467711E-02 0.11989759E+00
       -1 -1    0    0    0  501 0.00000000E+00 0.00000000E+00 0.55870815E+02 0.55871731E+02 0.32000000E+00 0.0000E+00 0.9000E+01
        1 -1    0    0  501    0 0.00000000E+00 0.00000000E+00 -.43090217E+03 0.43090229E+03 0.32000000E+00 0.0000E+00 0.9000E+01
       25  1    1    2    0    0 0.68661952E+02 -.75263999E+02 -.26948238E+03 0.31404600E+03 0.12500000E+03 0.0000E+00 0.9000E+01
       23  1    1    2    0    0 -.68661952E+02 0.75263999E+02 -.10554897E+03 0.17272802E+03 0.91188000E+02 0.0000E+00 0.9000E+01
#aMCatNLO 1  0  0  1  2 0.44159376D+01 0.00000000D+00  -5  5  0 0.00000000D+00 0.00000000D+00 0.00000000D+00 0.00000000D+00 0.00000000D+00
  <mgrwgt>
 0.1242368552D+00    6    2    0
 0.155161552530439D+03 0.000000000000000D+00 0.000000000000000D+00 0.155161552530439D+03
 0.155161552530439D+03 0.000000000000000D+00 0.000000000000000D+00 -.155161552530439D+03
 0.166939194183267D+03 0.686619520048826D+02 -.752639993972567D+02 -.431805661862784D+02
 0.143383910877611D+03 -.686619520048826D+02 0.752639993972567D+02 0.431805661862784D+02
 0.000000000000000D+00 0.000000000000000D+00 -.000000000000000D+00 -.000000000000000D+00
 0.156643779337290D+03 0.000000000000000D+00 0.000000000000000D+00 0.156643779337290D+03
 0.158501548826272D+03 0.000000000000000D+00 0.000000000000000D+00 -.158501548826272D+03
 0.165721591716890D+03 0.682203777790663D+02 -.729387737811197D+02 -.431805661862784D+02
 0.144632931433372D+03 -.690442658199040D+02 0.772771736817105D+02 0.431805661862784D+02
 0.479080501330131D+01 0.823888040837669D+00 -.433839990059072D+01 -.185776948898190D+01
0.272453437424D-03 0.000000000000D+00 0.000000000000D+00 0.157517193657D-02 0.000000000000D+00  5 -1 1 25 23 21 0 0.85955896D-02 0.66292721D-01 0.22198822D+05 0.22198822D+05 0.22198822D+05 0.12288699D+01  1  2  2  1  5  1       -1 0.112080807154D+00 0.100000000000D+01
-.151060118362D-04 0.000000000000D+00 -.104629293835D-05 0.157517193657D-02 0.000000000000D+00  5 -1 1 25 23 21 2 0.85955896D-02 0.66292721D-01 0.22198822D+05 0.22198822D+05 0.22198822D+05 0.12288699D+01  1  2  3  1  5  1       -1 -.938427172405D-02 0.100000000000D+01
0.187912712968D-04 0.000000000000D+00 0.000000000000D+00 0.157517193657D-02 0.000000000000D+00  5 -1 1 25 23 21 2 0.85955896D-02 0.66292721D-01 0.22198822D+05 0.22198822D+05 0.22198822D+05 0.12288699D+01  1  2 15  1  5  1       -1 0.116736566740D-01 0.100000000000D+01
-.487636228590D-03 0.000000000000D+00 0.000000000000D+00 0.157517193657D-02 0.000000000000D+00  5 -1 1 25 23 21 2 0.85955896D-02 0.66292721D-01 0.22198822D+05 0.22198822D+05 0.22198822D+05 0.12288699D+01  1  2  4  1  5  1       -1 -.302933091885D+00 0.100000000000D+01
0.469622219883D-03 0.000000000000D+00 0.000000000000D+00 0.157517193657D-02 0.649203164473D-03  5 -1 1 25 23 21 2 0.86777016D-02 0.67719733D-01 0.22868963D+05 0.22868963D+05 0.22868963D+05 0.12274679D+01  1  2 11  1  5  1       -1 0.279391565584D+00 0.100000000000D+01
0.361912333354D-05 0.000000000000D+00 0.000000000000D+00 0.157517193657D-02 0.114932962293D-05  5 21 1 25 23 1 2 0.86777016D-02 0.67719733D-01 0.22868963D+05 0.22868963D+05 0.22868963D+05 0.12274679D+01  1  2 11  3  5  1       -1 0.334081894380D-01 0.100000000000D+01
  </mgrwgt>
  </event>
  <event>
  4     66 0.43907321E-03 0.72368503E+02 0.75467711E-02 0.12540371E+00
       -3 -1    0    0    0  501 0.00000000E+00 0.00000000E+00 0.51504005E+03 0.51504029E+03 0.50000000E+00 0.0000E+00 0.9000E+01
        3 -1    0    0  501    0 0.00000000E+00 0.00000000E+00 -.22861369E+02 0.22866837E+02 0.50000000E+00 0.0000E+00 0.9000E+01
       25  1    1    2    0    0 -.55124412E+00 -.83325507E+01 0.29530132E+03 0.32077657E+03 0.12500000E+03 0.0000E+00 0.9000E+01
       23  1    1    2    0    0 0.55124412E+00 0.83325507E+01 0.19687736E+03 0.21713056E+03 0.91188000E+02 0.0000E+00 0.9000E+01
#aMCatNLO 1  0  0  1  2 0.10124296D+02 0.00000000D+00  -5  5  0 0.00000000D+00 0.00000000D+00 0.00000000D+00 0.00000000D+00 0.00000000D+00
  <mgrwgt>
 0.1277632430D-01    9    2    0
 0.108517539982221D+03 0.000000000000000D+00 0.000000000000000D+00 0.108517539982221D+03
 0.108517539982221D+03 0.000000000000000D+00 0.000000000000000D+00 -.108517539982221D+03
 0.125357556483695D+03 -.551244124796876D+00 -.833255070204196D+01 0.444766188862878D+01
 0.916775234807463D+02 0.551244124796876D+00 0.833255070204196D+01 -.444766188862878D+01
 0.000000000000000D+00 0.000000000000000D+00 0.000000000000000D+00 0.000000000000000D+00
 0.116543303459660D+03 0.000000000000000D+00 0.000000000000000D+00 0.116543303459660D+03
 0.111876077736053D+03 0.000000000000000D+00 0.000000000000000D+00 -.111876077736053D+03
 0.125529884232016D+03 -.639773253020648D+01 -.848758843839695D+01 0.444766188862878D+01
 0.917412074885316D+02 -.372300523933112D+01 0.821920575032394D+01 -.444766188862878D+01
 0.111482894751659D+02 0.101207377695376D+02 0.268382688073013D+00 0.466722572360633D+01
0.101216191006D-03 0.000000000000D+00 0.000000000000D+00 0.245106288850D-02 0.000000000000D+00  5 -3 3 25 23 21 0 0.79237370D-01 0.35175730D-02 0.11755786D+05 0.11755786D+05 0.11755786D+05 0.12600720D+01  1  2  2  1  5  1       -3 0.135578303764D-01 0.100000000000D+01
-.562311664934D-05 0.000000000000D+00 -.388696824299D-06 0.245106288850D-02 0.000000000000D+00  5 -3 3 25 23 21 2 0.79237370D-01 0.35175730D-02 0.11755786D+05 0.11755786D+05 0.11755786D+05 0.12600720D+01  1  2  3  1  5  1       -3 -.119593621037D-02 0.100000000000D+01
0.700195832537D-05 0.000000000000D+00 0.000000000000D+00 0.245106288850D-02 0.000000000000D+00  5 -3 3 25 23 21 2 0.79237370D-01 0.35175730D-02 0.11755786D+05 0.11755786D+05 0.11755786D+05 0.12600720D+01  1  2 15  1  5  1       -3 0.148919114203D-02 0.100000000000D+01
0.242973758267D-03 0.000000000000D+00 0.000000000000D+00 0.245106288850D-02 0.000000000000D+00  5 -3 3 25 23 21 2 0.86257327D-01 0.35175730D-02 0.12905948D+05 0.12905948D+05 0.12905948D+05 0.12553364D+01  1  2 12  1  5  1       -3 0.429956127934D-01 0.100000000000D+01
-.233742368580D-03 0.000000000000D+00 0.000000000000D+00 0.245106288850D-02 0.000000000000D+00  5 -3 3 25 23 21 2 0.79237370D-01 0.35175730D-02 0.11755786D+05 0.11755786D+05 0.11755786D+05 0.12600720D+01  1  2  4  1  5  1       -3 -.497128158484D-01 0.100000000000D+01
-.716400093836D-03 0.000000000000D+00 -.126054898542D-03 0.245106288850D-02 0.000000000000D+00  5 -3 3 25 23 21 2 0.87116269D-01 0.35175730D-02 0.11755786D+05 0.11755786D+05 0.11755786D+05 0.12600720D+01  1  2  5  1  5  1       -3 -.123978225569D+00 0.100000000000D+01
0.725650943047D-03 0.000000000000D+00 0.125490633607D-03 0.245106288850D-02 0.000000000000D+00  5 -3 3 25 23 21 2 0.79237370D-01 0.35175730D-02 0.11755786D+05 0.11755786D+05 0.11755786D+05 0.12600720D+01  1  2  6  1  5  1       -3 0.154332960349D+00 0.100000000000D+01
0.342400712054D-05 0.000000000000D+00 0.000000000000D+00 0.245106288850D-02 0.000000000000D+00  5 21 3 25 23 3 2 0.86257327D-01 0.35175730D-02 0.12905948D+05 0.12905948D+05 0.12905948D+05 0.12553364D+01  1  2 12  3  5  1       -3 0.118868932597D-01 0.100000000000D+01
-.107329133250D-04 0.000000000000D+00 -.195471065255D-05 0.245106288850D-02 0.000000000000D+00  5 21 3 25 23 3 2 0.87116269D-01 0.35175730D-02 0.11755786D+05 0.11755786D+05 0.11755786D+05 0.12600720D+01  1  2  5  3  5  1       -3 -.365991859961D-01 0.100000000000D+01
  </mgrwgt>
  </event>
  <event>
  5     66 0.43907321E-03 0.17386231E+03 0.75467711E-02 0.10736578E+00
       -1 -1    0    0    0  501 0.00000000E+00 0.00000000E+00 0.13652148E+03 0.13652185E+03 0.32000000E+00 0.0000E+00 0.9000E+01
        1 -1    0    0  502    0 0.00000000E+00 0.00000000E+00 -.16276597E+04 0.16276598E+04 0.32000000E+00 0.0000E+00 0.9000E+01
       25  1    1    2    0    0 -.18237638E+03 -.82695306E+02 -.72290977E+02 0.24688184E+03 0.12500000E+03 0.0000E+00 0.9000E+01
       23  1    1    2    0    0 -.38293822E+02 0.15202416E+03 -.17465184E+03 0.25178618E+03 0.91188000E+02 0.0000E+00 0.9000E+01
       21  1    1    2  502  501 0.22067020E+03 -.69328855E+02 -.12441954E+04 0.12655136E+04 0.75000000E+00 0.0000E+00 0.9000E+01
#aMCatNLO 2  0  0  2  2 0.23130462D+03 0.00000000D+00  -5  5  0 0.00000000D+00 0.00000000D+00 0.00000000D+00 0.00000000D+00 0.00000000D+00
  <mgrwgt>
 0.2621413168D-01    1    2    0
 0.183157860515712D+03 0.000000000000000D+00 0.000000000000000D+00 0.183157860515712D+03
 0.183157860515712D+03 0.000000000000000D+00 0.000000000000000D+00 -.183157860515712D+03
 0.193135249194825D+03 -.620150119529701D+02 -.120509726530631D+03 0.575132035756354D+02
 0.173180471836599D+03 0.620150119529701D+02 0.120509726530631D+03 -.575132035756354D+02
 0.000000000000000D+00 0.000000000000000D+00 -.000000000000000D+00 -.000000000000000D+00
 0.234960069695095D+03 0.000000000000000D+00 0.000000000000000D+00 0.234960069695095D+03
 0.945737456632050D+03 0.000000000000000D+00 0.000000000000000D+00 -.945737456632050D+03
 0.242965892985883D+03 -.182376376959373D+03 -.826953063726567D+02 0.575132035756354D+02
 0.190265031767248D+03 -.382938216823980D+02 0.152024161253454D+03 -.575132035756354D+02
 0.747466601574015D+03 0.220670198641771D+03 -.693288548807973D+02 -.710777386936955D+03
0.177899278856D-02 0.000000000000D+00 0.000000000000D+00 0.138966379414D-02 0.554355865006D-06  5 -1 1 25 23 21 2 0.21003320D-01 0.25040903D+00 0.10521254D+06 0.10521254D+06 0.10521254D+06 0.11615499D+01  1  2  1  2  5  2        1 0.262141316807D-01 0.100000000000D+01
  </mgrwgt>
  </event>
  <event>
  4     66 0.43907321E-03 0.28491384E+03 0.75467711E-02 0.10924647E+00
       -1 -1    0    0    0  501 0.00000000E+00 0.00000000E+00 0.48566733E+03 0.48566743E+03 0.32000000E+00 0.0000E+00 0.9000E+01
        1 -1    0    0  501    0 0.00000000E+00 0.00000000E+00 -.29076384E+03 0.29076401E+03 0.32000000E+00 0.0000E+00 0.9000E+01
       25  1    1    2    0    0 -.23508657E+03 -.11824221E+03 -.15438340E+03 0.32970615E+03 0.12500000E+03 0.0000E+00 0.9000E+01
       23  1    1    2    0    0 0.23508657E+03 0.11824221E+03 0.34928689E+03 0.44672530E+03 0.91188000E+02 0.0000E+00 0.9000E+01
#aMCatNLO 1  0  0  2  2 0.21194482D+01 0.00000000D+00  -5  5  0 0.00000000D+00 0.00000000D+00 0.00000000D+00 0.00000000D+00 0.00000000D+00
  <mgrwgt>
 0.5905083920D-01    6    2    0
 0.375785319206493D+03 0.000000000000000D+00 0.000000000000000D+00 0.375785319206493D+03
 0.375785319206493D+03 0.000000000000000D+00 0.000000000000000D+00 -.375785319206493D+03
 0.380648300995826D+03 -.235086565188180D+03 -.118242205324915D+03 -.244992279059837D+03
 0.370922337417159D+03 0.235086565188180D+03 0.118242205324915D+03 0.244992279059837D+03
 0.000000000000000D+00 -.000000000000000D+00 -.000000000000000D+00 0.000000000000000D+00
 0.377494398398110D+03 0.000000000000000D+00 0.000000000000000D+00 0.377494398398110D+03
 0.376444476278510D+03 0.000000000000000D+00 0.000000000000000D+00 -.376444476278510D+03
 0.379910353945906D+03 -.234091430909272D+03 -.117842531418921D+03 -.244992279059837D+03
 0.371663272909973D+03 0.236058183078608D+03 0.118632434388098D+03 0.244992279059837D+03
 0.236524782074215D+01 -.196675216933545D+01 -.789902969176660D+00 0.104992211960016D+01
0.356793656386D-02 0.000000000000D+00 0.000000000000D+00 0.734215606141D-03 0.000000000000D+00  5 -1 1 25 23 21 0 0.74718072D-01 0.44732920D-01 0.81175899D+05 0.81175899D+05 0.81175899D+05 0.11719847D+01  1  2  2  2  5  2        1 0.615312295701D-01 0.100000000000D+01
-.179749154895D-03 0.000000000000D+00 -.137018158645D-04 0.734215606141D-03 0.000000000000D+00  5 -1 1 25 23 21 2 0.74718072D-01 0.44732920D-01 0.81175899D+05 0.81175899D+05 0.81175899D+05 0.11719847D+01  1  2  3  2  5  2        1 -.425783904470D-02 0.100000000000D+01
0.243372683951D-03 0.000000000000D+00 0.000000000000D+00 0.734215606141D-03 0.000000000000D+00  5 -1 1 25 23 21 2 0.74718072D-01 0.44732920D-01 0.81175899D+05 0.81175899D+05 0.81175899D+05 0.11719847D+01  1  2 15  2  5  2        1 0.576493233999D-02 0.100000000000D+01
-.409021143799D-01 0.000000000000D+00 0.000000000000D+00 0.734215606141D-03 0.000000000000D+00  5 -1 1 25 23 21 2 0.74718072D-01 0.44732920D-01 0.81175899D+05 0.81175899D+05 0.81175899D+05 0.11719847D+01  1  2  4  2  5  2        1 -.968875874375D+00 0.100000000000D+01
0.409030458420D-01 0.000000000000D+00 0.000000000000D+00 0.734215606141D-03 0.119675118305D-02  5 -1 1 25 23 21 2 0.75057892D-01 0.44811385D-01 0.81786944D+05 0.81786944D+05 0.81786944D+05 0.11716790D+01  1  2 11  2  5  2        1 0.957214347315D+00 0.100000000000D+01
0.697106110095D-04 0.000000000000D+00 0.000000000000D+00 0.734215606141D-03 0.394788574777D-06  5 -1 21 25 23 -1 2 0.75057892D-01 0.44811385D-01 0.81786944D+05 0.81786944D+05 0.81786944D+05 0.11716790D+01  1  2 11  4  5  2        1 0.767404339667D-02 0.100000000000D+01
  </mgrwgt>
  </event>
  <event>
  4     66 0.43907321E-03 0.11201067E+03 0.75467711E-02 0.12061960E+00
       -1 -1    0    0    0  501 0.00000000E+00 0.00000000E+00 0.43886282E+02 0.43887448E+02 0.32000000E+00 0.0000E+00 0.9000E+01
        1 -1    0    0  501    0 0.00000000E+00 0.00000000E+00 -.28639745E+03 0.28639763E+03 0.32000000E+00 0.0000E+00 0.9000E+01
       25  1    1    2    0    0 0.19203902E+02 -.21763466E+02 -.14583633E+03 0.19425672E+03 0.12500000E+03 0.0000E+00 0.9000E+01
       23  1    1    2    0    0 -.19203902E+02 0.21763466E+02 -.96674844E+02 0.13602836E+03 0.91188000E+02 0.0000E+00 0.9000E+01
#aMCatNLO 1  0  0  2  2 0.59167290D+02 0.00000000D+00  -5  5  0 0.00000000D+00 0.00000000D+00 0.00000000D+00 0.00000000D+00 0.00000000D+00
  <mgrwgt>
 0.1251127310D+00    4    2    0
 0.112112182422967D+03 0.000000000000000D+00 0.000000000000000D+00 0.112112182422967D+03
 0.112112182422967D+03 0.000000000000000D+00 0.000000000000000D+00 -.112112182422967D+03
 0.128412259047161D+03 0.192039021081761D+02 -.217634660056699D+02 -.471910635976803D+01
 0.958121057987724D+02 -.192039021081761D+02 0.217634660056699D+02 0.471910635976803D+01
 0.000000000000000D+00 -.000000000000000D+00 -.000000000000000D+00 0.000000000000000D+00
 0.181335648398140D+03 0.000000000000000D+00 0.000000000000000D+00 0.181335648398140D+03
 0.129334720428447D+03 0.000000000000000D+00 0.000000000000000D+00 -.129334720428447D+03
 0.129270736489299D+03 0.312213819808725D+02 0.942754765861478D+01 -.471910635976803D+01
 0.102628668484417D+03 -.994928285824935D+01 0.457835566186821D+02 0.471910635976803D+01
 0.787709638528719D+02 -.212720991226232D+02 -.552111042772968D+02 0.520009279696930D+02
0.157189601053D-03 0.000000000000D+00 0.000000000000D+00 0.233896675961D-02 0.000000000000D+00  5 -1 1 25 23 21 0 0.67518391D-02 0.44061250D-01 0.12546390D+05 0.12546390D+05 0.12546390D+05 0.12567641D+01  1  2  2  2  5  2        1 0.151977510161D+00 0.100000000000D+01
-.873274690085D-05 0.000000000000D+00 -.603649457017D-06 0.233896675961D-02 0.000000000000D+00  5 -1 1 25 23 21 2 0.67518391D-02 0.44061250D-01 0.12546390D+05 0.12546390D+05 0.12546390D+05 0.12567641D+01  1  2  3  2  5  2        1 -.133356410614D-01 0.100000000000D+01
0.108869359609D-04 0.000000000000D+00 0.000000000000D+00 0.233896675961D-02 0.000000000000D+00  5 -1 1 25 23 21 2 0.67518391D-02 0.44061250D-01 0.12546390D+05 0.12546390D+05 0.12546390D+05 0.12567641D+01  1  2 15  2  5  2        1 0.166252694463D-01 0.100000000000D+01
-.197463930075D-04 0.000000000000D+00 0.000000000000D+00 0.233896675961D-02 0.000000000000D+00  5 -1 1 25 23 21 2 0.67518391D-02 0.44061250D-01 0.12546390D+05 0.12546390D+05 0.12546390D+05 0.12567641D+01  1  2  4  2  5  2        1 -.301544075872D-01 0.100000000000D+01
  </mgrwgt>
  </event>
  <event>
  4     66 -.43907321E-03 0.41695321E+02 0.75467711E-02 0.12492093E+00
       -1 -1    0    0    0  501 0.00000000E+00 0.00000000E+00 0.44091986E+02 0.44093147E+02 0.32000000E+00 0.0000E+00 0.9000E+01
        1 -1    0    0  501    0 0.00000000E+00 0.00000000E+00 -.48322095E+03 0.48322106E+03 0.32000000E+00 0.0000E+00 0.9000E+01
       25  1    1    2    0    0 0.93870049E+01 -.37363616E+02 -.40004473E+03 0.42088590E+03 0.12500000E+03 0.0000E+00 0.9000E+01
       23  1    1    2    0    0 -.93870049E+01 0.37363616E+02 -.39084240E+02 0.10642831E+03 0.91188000E+02 0.0000E+00 0.9000E+01
#aMCatNLO 1  0  0  1  2 0.28899995D+01 0.00000000D+00  -5  5  0 0.00000000D+00 0.00000000D+00 0.00000000D+00 0.00000000D+00 0.00000000D+00
  <mgrwgt>
 -.4417490696D-01   11    2    0
 0.145967481670985D+03 0.000000000000000D+00 0.000000000000000D+00 0.145967481670985D+03
 0.145967481670985D+03 0.000000000000000D+00 0.000000000000000D+00 -.145967481670985D+03
 0.158486963017653D+03 0.938700487101383D+01 -.373636163039728D+02 -.894928028547542D+02
 0.133448000324317D+03 -.938700487101383D+01 0.373636163039728D+02 0.894928028547542D+02
 0.000000000000000D+00 0.000000000000000D+00 -.000000000000000D+00 0.000000000000000D+00
 0.147834912369919D+03 0.000000000000000D+00 0.000000000000000D+00 0.147834912369919D+03
 0.147097059469649D+03 0.000000000000000D+00 0.000000000000000D+00 -.147097059469649D+03
 0.158221897540698D+03 0.805145399910397D+01 -.365428678004271D+02 -.894928028547542D+02
 0.133727370172852D+03 -.105136746408184D+02 0.380559991603705D+02 0.894928028547542D+02
 0.298270412601813D+01 0.246222064171440D+01 -.151313135994341D+01 0.737852900270056D+00
0.146325920651D-03 0.000000000000D+00 0.000000000000D+00 0.122356550026D-02 0.000000000000D+00  5 -1 1 25 23 21 0 0.67834799D-02 0.74341783D-01 0.13201312D+05 0.13201312D+05 0.13201312D+05 0.12541967D+01  1  2  2  1  5  1       -1 0.732140926668D-01 0.100000000000D+01
-.756299118105D-05 0.000000000000D+00 -.561930063800D-06 0.122356550026D-02 0.000000000000D+00  5 -1 1 25 23 21 2 0.67834799D-02 0.74341783D-01 0.13201312D+05 0.13201312D+05 0.13201312D+05 0.12541967D+01  1  2  3  1  5  1       -1 -.595248496611D-02 0.100000000000D+01
0.100515085988D-04 0.000000000000D+00 0.000000000000D+00 0.122356550026D-02 0.000000000000D+00  5 -1 1 25 23 21 2 0.67834799D-02 0.74341783D-01 0.13201312D+05 0.13201312D+05 0.13201312D+05 0.12541967D+01  1  2 15  1  5  1       -1 0.791108337808D-02 0.100000000000D+01
0.108577216309D-05 0.000000000000D+00 0.000000000000D+00 0.122356550026D-02 0.000000000000D+00  5 -1 1 25 23 21 2 0.68962414D-02 0.74341783D-01 0.13541851D+05 0.13541851D+05 0.13541851D+05 0.12529177D+01  1  2 12  1  5  1       -1 0.832690240678D-03 0.100000000000D+01
-.125476531727D-02 0.000000000000D+00 0.000000000000D+00 0.122356550026D-02 0.000000000000D+00  5 -1 1 25 23 21 2 0.67834799D-02 0.74341783D-01 0.13201312D+05 0.13201312D+05 0.13201312D+05 0.12541967D+01  1  2  4  1  5  1       -1 -.987568477640D+00 0.100000000000D+01
-.697901388648D-02 0.000000000000D+00 -.878771356258D-03 0.122356550026D-02 0.000000000000D+00  5 -1 1 25 23 21 2 0.69229400D-02 0.74341783D-01 0.13201312D+05 0.13201312D+05 0.13201312D+05 0.12541967D+01  1  2  5  1  5  1       -1 -.532866046248D+01 0.100000000000D+01
0.699563045807D-02 0.000000000000D+00 0.878589422931D-03 0.122356550026D-02 0.000000000000D+00  5 -1 1 25 23 21 2 0.67834799D-02 0.74341783D-01 0.13201312D+05 0.13201312D+05 0.13201312D+05 0.12541967D+01  1  2  6  1  5  1       -1 0.550594125172D+01 0.100000000000D+01
0.125400442285D-02 0.000000000000D+00 0.000000000000D+00 0.122356550026D-02 0.122672267587D-02  5 -1 1 25 23 21 2 0.68702642D-02 0.74917081D-01 0.13541851D+05 0.13541851D+05 0.13541851D+05 0.12529177D+01  1  2 11  1  5  1       -1 0.957575201388D+00 0.100000000000D+01
0.542946045215D-07 0.000000000000D+00 0.000000000000D+00 0.122356550026D-02 0.000000000000D+00  5 21 1 25 23 1 2 0.68962414D-02 0.74341783D-01 0.13541851D+05 0.13541851D+05 0.13541851D+05 0.12529177D+01  1  2 12  3  5  1       -1 0.684566537009D-03 0.100000000000D+01
-.257020662857D-04 0.000000000000D+00 -.325305852899D-05 0.122356550026D-02 0.000000000000D+00  5 21 1 25 23 1 2 0.69229400D-02 0.74341783D-01 0.13201312D+05 0.13201312D+05 0.13201312D+05 0.12541967D+01  1  2  5  3  5  1       -1 -.322491368564D+00 0.100000000000D+01
0.432489370288D-05 0.000000000000D+00 0.000000000000D+00 0.122356550026D-02 0.287378984783D-05  5 21 1 25 23 1 2 0.68702642D-02 0.74917081D-01 0.13541851D+05 0.13541851D+05 0.13541851D+05 0.12529177D+01  1  2 11  3  5  1       -1 0.543390007489D-01 0.100000000000D+01
  </mgrwgt>
  </event>
  <event>
  4     66 0.43907321E-03 0.54796653E+02 0.75467711E-02 0.12520317E+00
       -1 -1    0    0    0  501 0.00000000E+00 0.00000000E+00 0.22992323E+03 0.22992345E+03 0.32000000E+00 0.0000E+00 0.9000E+01
        1 -1    0    0  501    0 0.00000000E+00 0.00000000E+00 -.11462823E+03 0.11462868E+03 0.32000000E+00 0.0000E+00 0.9000E+01
       25  1    1    2    0    0 0.23423042E+02 -.21623892E+02 -.61635173E+02 0.14296897E+03 0.12500000E+03 0.0000E+00 0.9000E+01
       23  1    1    2    0    0 -.23423042E+02 0.21623892E+02 0.17693017E+03 0.20158316E+03 0.91188000E+02 0.0000E+00 0.9000E+01
#aMCatNLO 1  0  0  2  1 0.37740164D+01 0.00000000D+00  -5  5  0 0.00000000D+00 0.00000000D+00 0.00000000D+00 0.00000000D+00 0.00000000D+00
  <mgrwgt>
 0.9011405974D-01    8    2    0
 0.162344718838973D+03 0.000000000000000D+00 0.000000000000000D+00 0.162344718838973D+03
 0.162344718838973D+03 0.000000000000000D+00 0.000000000000000D+00 -.162344718838973D+03
 0.173601242470103D+03 0.234230418554706D+02 -.216238922921699D+02 -.116172973533163D+03
 0.151088195207844D+03 -.234230418554706D+02 0.216238922921699D+02 0.116172973533163D+03
 0.000000000000000D+00 0.000000000000000D+00 -.000000000000000D+00 0.000000000000000D+00
 0.164904528563159D+03 0.000000000000000D+00 0.000000000000000D+00 0.164904528563159D+03
 0.163752711113966D+03 0.000000000000000D+00 0.000000000000000D+00 -.163752711113966D+03
 0.173248187984300D+03 0.222050380741906D+02 -.200177707157913D+02 -.116172973533163D+03
 0.151463182527505D+03 -.244854876597794D+02 0.230248872285236D+02 0.116172973533163D+03
 0.394586916532004D+01 0.228044958558880D+01 -.300711651273234D+01 0.115181744919228D+01
0.353042775375D-03 0.000000000000D+00 0.000000000000D+00 0.924892753149D-03 0.000000000000D+00  5 -1 1 25 23 21 0 0.35372856D-01 0.17635164D-01 0.12723896D+05 0.12723896D+05 0.12723896D+05 0.12560536D+01  1  2  2  2  5  2        1 0.786110967439D-01 0.100000000000D+01
-.164520410269D-04 0.000000000000D+00 -.135577721574D-05 0.924892753149D-03 0.000000000000D+00  5 -1 1 25 23 21 2 0.35372856D-01 0.17635164D-01 0.12723896D+05 0.12723896D+05 0.12723896D+05 0.12560536D+01  1  2  3  2  5  2        1 -.577953165437D-02 0.100000000000D+01
0.241790660675D-04 0.000000000000D+00 0.000000000000D+00 0.924892753149D-03 0.000000000000D+00  5 -1 1 25 23 21 2 0.35372856D-01 0.17635164D-01 0.12723896D+05 0.12723896D+05 0.12723896D+05 0.12560536D+01  1  2 15  2  5  2        1 0.849400250595D-02 0.100000000000D+01
0.162198705064D-04 0.000000000000D+00 0.000000000000D+00 0.924892753149D-03 0.000000000000D+00  5 -1 1 25 23 21 2 0.35372856D-01 0.17925468D-01 0.13165780D+05 0.13165780D+05 0.13165780D+05 0.12543323D+01  1  2 12  2  5  2        1 0.556963924072D-02 0.100000000000D+01
-.132193867695D-02 0.000000000000D+00 0.000000000000D+00 0.924892753149D-03 0.000000000000D+00  5 -1 1 25 23 21 2 0.35372856D-01 0.17635164D-01 0.12723896D+05 0.12723896D+05 0.12723896D+05 0.12560536D+01  1  2  4  2  5  2        1 -.464391403842D+00 0.100000000000D+01
0.131322564605D-02 0.000000000000D+00 0.000000000000D+00 0.924892753149D-03 0.545046137399D-03  5 -1 1 25 23 21 2 0.35930606D-01 0.17788111D-01 0.13165780D+05 0.13165780D+05 0.13165780D+05 0.12543323D+01  1  2 11  2  5  2        1 0.443338075064D+00 0.100000000000D+01
0.535078794143D-06 0.000000000000D+00 0.000000000000D+00 0.924892753149D-03 0.000000000000D+00  5 -1 21 25 23 -1 2 0.35372856D-01 0.17925468D-01 0.13165780D+05 0.13165780D+05 0.13165780D+05 0.12543323D+01  1  2 12  4  5  2        1 0.167400011143D-02 0.100000000000D+01
0.731618092922D-05 0.000000000000D+00 0.000000000000D+00 0.924892753149D-03 0.883071228533D-06  5 -1 21 25 23 -1 2 0.35930606D-01 0.17788111D-01 0.13165780D+05 0.13165780D+05 0.13165780D+05 0.12543323D+01  1  2 11  4  5  2        1 0.225981815688D-01 0.100000000000D+01
  </mgrwgt>
  </event>
  <event>
  4     66 0.43907321E-03 0.15908148E+03 0.75467711E-02 0.11378957E+00
       -1 -1    0    0    0  501 0.00000000E+00 0.00000000E+00 0.26525938E+03 0.26525958E+03 0.32000000E+00 0.0000E+00 0.9000E+01
        1 -1    0    0  501    0 0.00000000E+00 0.00000000E+00 -.10845606E+03 0.10845653E+03 0.32000000E+00 0.0000E+00 0.9000E+01
       25  1    1    2    0    0 -.94898500E+01 0.11566632E+03 0.14805522E+03 0.22586302E+03 0.12500000E+03 0.0000E+00 0.9000E+01
       23  1    1    2    0    0 0.94898500E+01 -.11566632E+03 0.87481058E+01 0.14785309E+03 0.91188000E+02 0.0000E+00 0.9000E+01
#aMCatNLO 1  0  0  1  2 0.97839559D+02 0.00000000D+00  -5  5  0 0.00000000D+00 0.00000000D+00 0.00000000D+00 0.00000000D+00 0.00000000D+00
  <mgrwgt>
 0.1118827443D+00    7    2    0
 0.169614594150398D+03 0.000000000000000D+00 0.000000000000000D+00 0.169614594150398D+03
 0.169614594150398D+03 0.000000000000000D+00 0.000000000000000D+00 -.169614594150398D+03
 0.180388650316695D+03 -.948985001094602D+01 0.115666316992810D+03 0.587052895671860D+02
 0.158840537984101D+03 0.948985001094602D+01 -.115666316992810D+03 -.587052895671860D+02
 0.000000000000000D+00 0.000000000000000D+00 -.000000000000000D+00 0.000000000000000D+00
 0.228726424700928D+03 0.000000000000000D+00 0.000000000000000D+00 0.228726424700928D+03
 0.222375711515740D+03 0.000000000000000D+00 0.000000000000000D+00 -.222375711515740D+03
 0.218179654269274D+03 -.370341905747269D+02 0.164801454005623D+03 0.587052895671860D+02
 0.134877028866788D+03 -.108084441529868D+02 -.794570832824675D+02 -.587052895671860D+02
 0.980454530806065D+02 0.478426347277138D+02 -.853443707231558D+02 0.635071318518834D+01
0.528850548572D-03 0.000000000000D+00 0.000000000000D+00 0.142467669161D-02 0.000000000000D+00  5 -1 1 25 23 21 0 0.40809187D-01 0.16685598D-01 0.25306919D+05 0.25306919D+05 0.25306919D+05 0.12227299D+01  1  2  2  1  5  1       -1 0.100018012212D+00 0.100000000000D+01
-.292337530784D-04 0.000000000000D+00 -.203092535606D-05 0.142467669161D-02 0.000000000000D+00  5 -1 1 25 23 21 2 0.40809187D-01 0.16685598D-01 0.25306919D+05 0.25306919D+05 0.25306919D+05 0.12227299D+01  1  2  3  1  5  1       -1 -.826591436419D-02 0.100000000000D+01
0.365014805305D-04 0.000000000000D+00 0.000000000000D+00 0.142467669161D-02 0.000000000000D+00  5 -1 1 25 23 21 2 0.40809187D-01 0.16685598D-01 0.25306919D+05 0.25306919D+05 0.25306919D+05 0.12227299D+01  1  2 15  1  5  1       -1 0.103208818732D-01 0.100000000000D+01
-.159655345850D-03 0.000000000000D+00 0.000000000000D+00 0.142467669161D-02 0.000000000000D+00  5 -1 1 25 23 21 2 0.40809187D-01 0.16685598D-01 0.25306919D+05 0.25306919D+05 0.25306919D+05 0.12227299D+01  1  2  4  1  5  1       -1 -.451429350533D-01 0.100000000000D+01
-.222691346838D-03 0.000000000000D+00 -.170124079359D-03 0.142467669161D-02 0.000000000000D+00  5 -1 1 25 23 21 2 0.70049674D-01 0.16685598D-01 0.25306919D+05 0.25306919D+05 0.25306919D+05 0.12227299D+01  1  2  5  1  5  1       -1 -.230080234308D-01 0.100000000000D+01
0.292933554992D-03 0.000000000000D+00 0.147992391299D-03 0.142467669161D-02 0.000000000000D+00  5 -1 1 25 23 21 2 0.40809187D-01 0.16685598D-01 0.25306919D+05 0.25306919D+05 0.25306919D+05 0.12227299D+01  1  2  6  1  5  1       -1 0.828276709278D-01 0.100000000000D+01
-.502635274217D-05 0.000000000000D+00 -.102123063948D-04 0.142467669161D-02 0.000000000000D+00  5 21 1 25 23 1 2 0.70049674D-01 0.16685598D-01 0.25306919D+05 0.25306919D+05 0.25306919D+05 0.12227299D+01  1  2  5  3  5  1       -1 -.486694787670D-02 0.100000000000D+01
  </mgrwgt>
  </event>
  <event>
  4     66 0.43907321E-03 0.71280571E+02 0.75467711E-02 0.12163842E+00
       -1 -1    0    0    0  501 0.00000000E+00 0.00000000E+00 0.31537971E+03 0.31537987E+03 0.32000000E+00 0.0000E+00 0.9000E+01
        1 -1    0    0  501    0 0.00000000E+00 0.00000000E+00 -.59582069E+02 0.59582928E+02 0.32000000E+00 0.0000E+00 0.9000E+01
       25  1    1    2    0    0 -.42390355E+02 0.36928320E+02 0.55606335E+02 0.14791115E+03 0.12500000E+03 0.0000E+00 0.9000E+01
       23  1    1    2    0    0 0.42390355E+02 -.36928320E+02 0.20019131E+03 0.22705165E+03 0.91188000E+02 0.0000E+00 0.9000E+01
#aMCatNLO 1  0  0  2  1 0.29880973D+02 0.00000000D+00  -5  5  0 0.00000000D+00 0.00000000D+00 0.00000000D+00 0.00000000D+00 0.00000000D+00
  <mgrwgt>
 0.1305380056D+00    9    2    0
 0.137080878662462D+03 0.000000000000000D+00 0.000000000000000D+00 0.137080878662462D+03
 0.137080878662462D+03 0.000000000000000D+00 0.000000000000000D+00 -.137080878662462D+03
 0.150411965987192D+03 -.423903548376815D+02 0.369283203977286D+02 -.619525341004738D+02
 0.123749791337732D+03 0.423903548376815D+02 -.369283203977286D+02 0.619525341004738D+02
 0.000000000000000D+00 0.000000000000000D+00 -.000000000000000D+00 -.000000000000000D+00
 0.145667103469494D+03 0.000000000000000D+00 0.000000000000000D+00 0.145667103469494D+03
 0.166604440214185D+03 0.000000000000000D+00 0.000000000000000D+00 -.166604440214185D+03
 0.156807418758478D+03 -.488818614292384D+02 0.523069184662887D+02 -.619525341004738D+02
 0.118977899481392D+03 0.372615495501827D+02 -.247780076812728D+02 0.619525341004738D+02
 0.364862254438088D+02 0.116203118790557D+02 -.275289107850159D+02 -.209373367446903D+02
0.334293857025D-03 0.000000000000D+00 0.000000000000D+00 0.156058503669D-02 0.000000000000D+00  5 -1 1 25 23 21 0 0.48520034D-01 0.91665508D-02 0.14906741D+05 0.14906741D+05 0.14906741D+05 0.12481314D+01  1  2  2  2  5  2        1 0.100499088541D+00 0.100000000000D+01
-.182691513809D-04 0.000000000000D+00 -.128377643257D-05 0.156058503669D-02 0.000000000000D+00  5 -1 1 25 23 21 2 0.48520034D-01 0.91665508D-02 0.14906741D+05 0.14906741D+05 0.14906741D+05 0.12481314D+01  1  2  3  2  5  2        1 -.855603870783D-02 0.100000000000D+01
0.230880423420D-04 0.000000000000D+00 0.000000000000D+00 0.156058503669D-02 0.000000000000D+00  5 -1 1 25 23 21 2 0.48520034D-01 0.91665508D-02 0.14906741D+05 0.14906741D+05 0.14906741D+05 0.12481314D+01  1  2 15  2  5  2        1 0.108128823199D-01 0.100000000000D+01
0.514727140659D-03 0.000000000000D+00 0.000000000000D+00 0.156058503669D-02 0.000000000000D+00  5 -1 1 25 23 21 2 0.48520034D-01 0.11382584D-01 0.18976005D+05 0.18976005D+05 0.18976005D+05 0.12363468D+01  1  2 12  2  5  2        1 0.178726189179D+00 0.100000000000D+01
-.530282796799D-03 0.000000000000D+00 0.000000000000D+00 0.156058503669D-02 0.000000000000D+00  5 -1 1 25 23 21 2 0.48520034D-01 0.91665508D-02 0.14906741D+05 0.14906741D+05 0.14906741D+05 0.12481314D+01  1  2  4  2  5  2        1 -.248348707661D+00 0.100000000000D+01
-.903545069379D-03 0.000000000000D+00 -.231727806441D-03 0.156058503669D-02 0.000000000000D+00  5 -1 1 25 23 21 2 0.48520034D-01 0.11809536D-01 0.14906741D+05 0.14906741D+05 0.14906741D+05 0.12481314D+01  1  2  5  2  5  2        1 -.302978715531D+00 0.100000000000D+01
0.939192972084D-03 0.000000000000D+00 0.224484983579D-03 0.156058503669D-02 0.000000000000D+00  5 -1 1 25 23 21 2 0.48520034D-01 0.91665508D-02 0.14906741D+05 0.14906741D+05 0.14906741D+05 0.12481314D+01  1  2  6  2  5  2        1 0.439854662963D+00 0.100000000000D+01
0.156474993268D-04 0.000000000000D+00 0.000000000000D+00 0.156058503669D-02 0.000000000000D+00  5 -1 21 25 23 -1 2 0.48520034D-01 0.11382584D-01 0.18976005D+05 0.18976005D+05 0.18976005D+05 0.12363468D+01  1  2 12  4  5  2        1 0.617528029021D-01 0.100000000000D+01
-.269111309684D-04 0.000000000000D+00 -.791964358525D-05 0.156058503669D-02 0.000000000000D+00  5 -1 21 25 23 -1 2 0.48520034D-01 0.11809536D-01 0.14906741D+05 0.14906741D+05 0.14906741D+05 0.12481314D+01  1  2  5  4  5  2        1 -.101224158431D+00 0.100000000000D+01
  </mgrwgt>
  </event>
  <event>
  4     66 0.43907321E-03 0.12781881E+03 0.75467711E-02 0.12199923E+00
       -1 -1    0    0    0  501 0.00000000E+00 0.00000000E+00 0.80407994E+02 0.80408631E+02 0.32000000E+00 0.0000E+00 0.9000E+01
        1 -1    0    0  501    0 0.00000000E+00 0.00000000E+00 -.20470731E+03 0.20470756E+03 0.32000000E+00 0.0000E+00 0.9000E+01
       25  1    1    2    0    0 -.61715275E+02 -.27625263E+02 -.81275285E+02 0.16371500E+03 0.12500000E+03 0.0000E+00 0.9000E+01
       23  1    1    2    0    0 0.61715275E+02 0.27625263E+02 -.43024033E+02 0.12140119E+03 0.91188000E+02 0.0000E+00 0.9000E+01
#aMCatNLO 1  0  0  2  1 0.14284174D+02 0.00000000D+00  -5  5  0 0.00000000D+00 0.00000000D+00 0.00000000D+00 0.00000000D+00 0.00000000D+00
  <mgrwgt>
 0.1307351678D+00    4    2    0
 0.128297431342854D+03 0.000000000000000D+00 0.000000000000000D+00 0.128297431342854D+03
 0.128297431342854D+03 0.000000000000000D+00 0.000000000000000D+00 -.128297431342854D+03
 0.142541186224559D+03 -.617152749318923D+02 -.276252631610890D+02 -.110027017439289D+02
 0.114053676461148D+03 0.617152749318923D+02 0.276252631610890D+02 0.110027017439289D+02
 0.000000000000000D+00 0.000000000000000D+00 -.000000000000000D+00 0.000000000000000D+00
 0.172262021577430D+03 0.000000000000000D+00 0.000000000000000D+00 0.172262021577430D+03
 0.129661575435017D+03 0.000000000000000D+00 0.000000000000000D+00 -.129661575435017D+03
 0.141623872111481D+03 -.626122313872314D+02 -.197729660621541D+02 -.110027017439289D+02
 0.115368270128566D+03 0.609911130761206D+02 0.339648507802961D+02 0.110027017439289D+02
 0.449314547724007D+02 0.162111831111076D+01 -.141918847181421D+02 0.426004461424130D+02
0.237686627779D-03 0.000000000000D+00 0.000000000000D+00 0.197767321742D-02 0.000000000000D+00  5 -1 1 25 23 21 0 0.12370529D-01 0.31493501D-01 0.16337649D+05 0.16337649D+05 0.16337649D+05 0.12436153D+01  1  2  2  2  5  2        1 0.140280900999D+00 0.100000000000D+01
-.132045883811D-04 0.000000000000D+00 -.912779234997D-06 0.197767321742D-02 0.000000000000D+00  5 -1 1 25 23 21 2 0.12370529D-01 0.31493501D-01 0.16337649D+05 0.16337649D+05 0.16337649D+05 0.12436153D+01  1  2  3  2  5  2        1 -.120528792699D-01 0.100000000000D+01
0.164192616879D-04 0.000000000000D+00 0.000000000000D+00 0.197767321742D-02 0.000000000000D+00  5 -1 1 25 23 21 2 0.12370529D-01 0.31493501D-01 0.16337649D+05 0.16337649D+05 0.16337649D+05 0.12436153D+01  1  2 15  2  5  2        1 0.149871675748D-01 0.100000000000D+01
-.136725461031D-04 0.000000000000D+00 0.000000000000D+00 0.197767321742D-02 0.000000000000D+00  5 -1 1 25 23 21 2 0.12370529D-01 0.31493501D-01 0.16337649D+05 0.16337649D+05 0.16337649D+05 0.12436153D+01  1  2  4  2  5  2        1 -.124800215452D-01 0.100000000000D+01
  </mgrwgt>
  </event>
  <event>
  5     66 0.43907321E-03 0.11172368E+03 0.75467711E-02 0.10602412E+00
       -1 -1    0    0    0  501 0.00000000E+00 0.00000000E+00 0.10269921E+03 0.10269971E+03 0.32000000E+00 0.0000E+00 0.9000E+01
        1 -1    0    0  502    0 0.00000000E+00 0.00000000E+00 -.19262831E+04 0.19262831E+04 0.32000000E+00 0.0000E+00 0.9000E+01
       25  1    1    2    0    0 0.10007344E+03 0.10097746E+03 -.18777008E+03 0.26663410E+03 0.12500000E+03 0.0000E+00 0.9000E+01
       23  1    1    2    0    0 0.14696810E+03 0.10361848E+03 -.17576131E+03 0.26747655E+03 0.91188000E+02 0.0000E+00 0.9000E+01
       21  1    1    2  502  501 -.24704154E+03 -.20459595E+03 -.14600525E+04 0.14948722E+04 0.75000000E+00 0.0000E+00 0.9000E+01
#aMCatNLO 2  0  0  2  1 0.32076319D+03 0.00000000D+00  -5  5  0 0.00000000D+00 0.00000000D+00 0.00000000D+00 0.00000000D+00 0.00000000D+00
  <mgrwgt>
 0.6512701114D-02    1    2    0
 0.112060349580375D+03 0.000000000000000D+00 0.000000000000000D+00 0.112060349580375D+03
 0.112060349580375D+03 0.000000000000000D+00 0.000000000000000D+00 -.112060349580375D+03
 0.128367965707248D+03 -.275234901028435D+02 -.469632212591388D+01 -.858700593138300D+01
 0.957527334535014D+02 0.275234901028435D+02 0.469632212591388D+01 0.858700593138300D+01
 0.000000000000000D+00 -.000000000000000D+00 -.000000000000000D+00 -.000000000000000D+00
 0.235589748657624D+03 0.000000000000000D+00 0.000000000000000D+00 0.235589748657624D+03
 0.839713923294841D+03 0.000000000000000D+00 0.000000000000000D+00 -.839713923294841D+03
 0.189499017783787D+03 0.100073439129821D+03 0.100977462093698D+03 -.858700593138300D+01
 0.201805354309374D+03 0.146968101335823D+03 0.103618483885886D+03 0.858700593138300D+01
 0.683999299859304D+03 -.247041540465644D+03 -.204595945979584D+03 -.604124174637217D+03
0.445238738793D-03 0.000000000000D+00 0.000000000000D+00 0.233356682780D-02 0.916768767336D-06  5 -1 1 25 23 21 2 0.15799908D-01 0.29635106D+00 0.12662571D+06 0.12662571D+06 0.12662571D+06 0.11542696D+01  1  2  1  2  5  2        1 0.651270111356D-02 0.100000000000D+01
  </mgrwgt>
  </event>
  <event>
  4     66 0.43907321E-03 0.13385531E+03 0.75467711E-02 0.10661355E+00
       -3 -1    0    0    0  501 0.00000000E+00 0.00000000E+00 0.70746239E+03 0.70746257E+03 0.50000000E+00 0.0000E+00 0.9000E+01
        3 -1    0    0  501    0 0.00000000E+00 0.00000000E+00 -.27054115E+02 0.27058735E+02 0.50000000E+00 0.0000E+00 0.9000E+01
       25  1    1    2    0    0 -.40039541E+02 -.67307791E+02 0.46511124E+03 0.48794156E+03 0.12500000E+03 0.0000E+00 0.9000E+01
       23  1    1    2    0    0 0.40039541E+02 0.67307791E+02 0.21529704E+03 0.24657975E+03 0.91188000E+02 0.0000E+00 0.9000E+01
#aMCatNLO 1  0  0  1  1 0.29000904D+03 0.00000000D+00  -5  5  0 0.00000000D+00 0.00000000D+00 0.00000000D+00 0.00000000D+00 0.00000000D+00
  <mgrwgt>
 0.3817717497D-01    5    2    0
 0.138352921573640D+03 0.000000000000000D+00 0.000000000000000D+00 0.138352921573640D+03
 0.138352921573640D+03 0.000000000000000D+00 0.000000000000000D+00 -.138352921573640D+03
 0.151561440361784D+03 -.400395412467507D+02 -.673077907647512D+02 0.348190557548138D+02
 0.125144402785497D+03 0.400395412467507D+02 0.673077907647512D+02 -.348190557548138D+02
 0.000000000000000D+00 0.000000000000000D+00 0.000000000000000D+00 0.000000000000000D+00
 0.545826786598229D+03 0.000000000000000D+00 0.000000000000000D+00 0.545826786598229D+03
 0.261293069652936D+03 0.000000000000000D+00 0.000000000000000D+00 -.261293069652936D+03
 0.290611967363616D+03 -.423870928566822D+02 -.256556588865797D+03 0.348190557548138D+02
 0.110226362220665D+03 0.387899296494288D+02 -.334301405701030D+02 -.348190557548138D+02
 0.406281526666884D+03 0.359716320725342D+01 0.289986729435900D+03 0.284533716945293D+03
0.709607394181D-03 0.000000000000D+00 0.000000000000D+00 0.175415170677D-02 0.000000000000D+00  5 -3 3 25 23 21 0 0.10884074D+00 0.41625406D-02 0.17917243D+05 0.17917243D+05 0.17917243D+05 0.12391188D+01  1  2  2  1  5  1       -3 0.372768236774D-01 0.100000000000D+01
-.393702816145D-04 0.000000000000D+00 -.272507923757D-05 0.175415170677D-02 0.000000000000D+00  5 -3 3 25 23 21 2 0.10884074D+00 0.41625406D-02 0.17917243D+05 0.17917243D+05 0.17917243D+05 0.12391188D+01  1  2  3  1  5  1       -3 -.317552229018D-02 0.100000000000D+01
0.490710646682D-04 0.000000000000D+00 0.000000000000D+00 0.175415170677D-02 0.000000000000D+00  5 -3 3 25 23 21 2 0.10884074D+00 0.41625406D-02 0.17917243D+05 0.17917243D+05 0.17917243D+05 0.12391188D+01  1  2 15  1  5  1       -3 0.395796659985D-02 0.100000000000D+01
0.157306437052D-03 0.000000000000D+00 -.246578011448D-03 0.175415170677D-02 0.000000000000D+00  5 -3 3 25 23 21 2 0.53217617D+00 0.41625406D-02 0.17917243D+05 0.17917243D+05 0.17917243D+05 0.12391188D+01  1  2  5  1  5  1       -3 0.494167105982D-04 0.100000000000D+01
0.244291003970D-04 0.000000000000D+00 -.476294625907D-04 0.175415170677D-02 0.000000000000D+00  5 21 3 25 23 3 2 0.53217617D+00 0.41625406D-02 0.17917243D+05 0.17917243D+05 0.17917243D+05 0.12391188D+01  1  2  5  3  5  1       -3 0.684902708561D-04 0.100000000000D+01
  </mgrwgt>
  </event>
  <event>
  5     66 -.43907321E-03 0.12727505E+03 0.75467711E-02 0.12180271E+00
       -1 -1    0    0    0  502 0.00000000E+00 0.00000000E+00 0.98151478E+02 0.98152000E+02 0.32000000E+00 0.0000E+00 0.9000E+01
        1 -1    0    0  501    0 0.00000000E+00 0.00000000E+00 -.19920333E+03 0.19920359E+03 0.32000000E+00 0.0000E+00 0.9000E+01
       25  1    1    2    0    0 0.56271540E+02 0.52128996E+02 -.26438636E+02 0.14902322E+03 0.12500000E+03 0.0000E+00 0.9000E+01
       23  1    1    2    0    0 -.42425746E+02 -.40623709E+02 -.71841669E+02 0.13010268E+03 0.91188000E+02 0.0000E+00 0.9000E+01
       21  1    1    2  501  502 -.13845794E+02 -.11505286E+02 -.27715449E+01 0.18229690E+02 0.75000000E+00 0.0000E+00 0.9000E+01
#aMCatNLO 2  0  0  1  2 0.18002156D+02 0.00000000D+00  -5  5  0 0.00000000D+00 0.00000000D+00 0.00000000D+00 0.00000000D+00 0.00000000D+00
  <mgrwgt>
 -.2354747611D-01    2    2    0
 0.130315165759028D+03 0.000000000000000D+00 0.000000000000000D+00 0.130315165759028D+03
 0.130315165759028D+03 0.000000000000000D+00 0.000000000000000D+00 -.130315165759028D+03
 0.144338377511521D+03 0.484818681054342D+02 0.456560985063121D+02 0.278136002136996D+02
 0.116291954006536D+03 -.484818681054342D+02 -.456560985063121D+02 -.278136002136996D+02
 0.000000000000000D+00 -.000000000000000D+00 -.000000000000000D+00 0.000000000000000D+00
 0.141783388201729D+03 0.000000000000000D+00 0.000000000000000D+00 0.141783388201729D+03
 0.137886933877841D+03 0.000000000000000D+00 0.000000000000000D+00 -.137886933877841D+03
 0.149273288815475D+03 0.562715397235896D+02 0.521289959051323D+02 0.278136002136996D+02
 0.111978021864227D+03 -.424257458315421D+02 -.406237094615353D+02 -.278136002136996D+02
 0.184190113998669D+02 -.138457938920475D+02 -.115052864435970D+02 0.389645432388827D+01
-.246281736106D-03 0.000000000000D+00 0.000000000000D+00 0.188771811367D-02 0.000000000000D+00  5 -1 1 25 23 21 2 0.15473114D-01 0.28962241D-01 0.18650020D+05 0.18650020D+05 0.18650020D+05 0.12371815D+01  1  2 13  1  5  1       -1 -.174977186478D+00 0.100000000000D+01
0.220049823799D-03 0.000000000000D+00 0.000000000000D+00 0.188771811367D-02 0.477725533876D-04  5 -1 1 25 23 21 2 0.15099461D-01 0.30645048D-01 0.18650020D+05 0.18650020D+05 0.18650020D+05 0.12371815D+01  1  2  1  1  5  1       -1 0.151429710364D+00 0.100000000000D+01
  </mgrwgt>
  </event>
  <event>
  4     66 0.43907321E-03 0.84936184E+02 0.75467711E-02 0.12493570E+00
       -1 -1    0    0    0  501 0.00000000E+00 0.00000000E+00 0.11151526E+04 0.11151527E+04 0.32000000E+00 0.0000E+00 0.9000E+01
        1 -1    0    0  501    0 0.00000000E+00 0.00000000E+00 -.12474910E+02 0.12479014E+02 0.32000000E+00 0.0000E+00 0.9000E+01
       25  1    1    2    0    0 -.10499178E+02 -.16812962E+02 0.82602224E+03 0.83566180E+03 0.12500000E+03 0.0000E+00 0.9000E+01
       23  1    1    2    0    0 0.10499178E+02 0.16812962E+02 0.27665547E+03 0.29196988E+03 0.91188000E+02 0.0000E+00 0.9000E+01
#aMCatNLO 1  0  0  1  2 0.12311246D+02 0.00000000D+00  -5  5  0 0.00000000D+00 0.00000000D+00 0.00000000D+00 0.00000000D+00 0.00000000D+00
  <mgrwgt>
 0.1290605679D+00    6    2    0
 0.117956637295013D+03 0.000000000000000D+00 0.000000000000000D+00 0.117956637295013D+03
 0.117956637295013D+03 0.000000000000000D+00 0.000000000000000D+00 -.117956637295013D+03
 0.133449086095749D+03 -.104991780647191D+02 -.168129619294249D+02 0.423172559473745D+02
 0.102464188494276D+03 0.104991780647191D+02 0.168129619294249D+02 -.423172559473745D+02
 0.000000000000000D+00 -.000000000000000D+00 -.000000000000000D+00 -.000000000000000D+00
 0.124230313726876D+03 0.000000000000000D+00 0.000000000000000D+00 0.124230313726876D+03
 0.124315517016202D+03 0.000000000000000D+00 0.000000000000000D+00 -.124315517016202D+03
 0.132875812332491D+03 -.378768712985856D+01 -.150294636733993D+02 0.423172559473745D+02
 0.103358477932757D+03 0.156859892418426D+02 0.181912948182745D+02 -.423172559473745D+02
 0.123115404778305D+02 -.118983021119841D+02 -.316183114487517D+01 -.852032893256688D-01
0.604688937802D-03 0.000000000000D+00 0.000000000000D+00 0.198194377797D-02 0.000000000000D+00  5 -1 1 25 23 21 0 0.17156226D+00 0.19195361D-02 0.12086737D+05 0.12086737D+05 0.12086737D+05 0.12586577D+01  1  2  2  1  5  1       -1 0.979147821205D-01 0.100000000000D+01
-.333914804707D-04 0.000000000000D+00 -.232216473941D-05 0.198194377797D-02 0.000000000000D+00  5 -1 1 25 23 21 2 0.17156226D+00 0.19195361D-02 0.12086737D+05 0.12086737D+05 0.12086737D+05 0.12586577D+01  1  2  3  1  5  1       -1 -.856578524618D-02 0.100000000000D+01
0.415848707731D-04 0.000000000000D+00 0.000000000000D+00 0.198194377797D-02 0.000000000000D+00  5 -1 1 25 23 21 2 0.17156226D+00 0.19195361D-02 0.12086737D+05 0.12086737D+05 0.12086737D+05 0.12586577D+01  1  2 15  1  5  1       -1 0.106676034579D-01 0.100000000000D+01
0.928116930953D-03 0.000000000000D+00 0.000000000000D+00 0.198194377797D-02 0.000000000000D+00  5 -1 1 25 23 21 2 0.18507012D+00 0.19195361D-02 0.13521864D+05 0.13521864D+05 0.13521864D+05 0.12529918D+01  1  2 12  1  5  1       -1 0.191094499890D+00 0.100000000000D+01
-.714560169922D-03 0.000000000000D+00 0.000000000000D+00 0.198194377797D-02 0.000000000000D+00  5 -1 1 25 23 21 2 0.17156226D+00 0.19195361D-02 0.12086737D+05 0.12086737D+05 0.12086737D+05 0.12586577D+01  1  2  4  1  5  1       -1 -.183303311945D+00 0.100000000000D+01
0.118145125486D-04 0.000000000000D+00 0.000000000000D+00 0.198194377797D-02 0.000000000000D+00  5 21 1 25 23 1 2 0.18507012D+00 0.19195361D-02 0.13521864D+05 0.13521864D+05 0.13521864D+05 0.12529918D+01  1  2 12  3  5  1       -1 0.212527795876D-01 0.100000000000D+01
  </mgrwgt>
  </event>
  <event>
  4     66 0.43907321E-03 0.18516882E+03 0.75467711E-02 0.10389464E+00
       -1 -1    0    0    0  501 0.00000000E+00 0.00000000E+00 0.26683312E+02 0.26685231E+02 0.32000000E+00 0.0000E+00 0.9000E+01
        1 -1    0    0  501    0 0.00000000E+00 0.00000000E+00 -.13003624E+04 0.13003625E+04 0.32000000E+00 0.0000E+00 0.9000E+01
       25  1    1    2    0    0 -.14927180E+03 0.11519279E+02 -.74255934E+03 0.76774614E+03 0.12500000E+03 0.0000E+00 0.9000E+01
       23  1    1    2    0    0 0.14927180E+03 -.11519279E+02 -.53111978E+03 0.55930156E+03 0.91188000E+02 0.0000E+00 0.9000E+01
#aMCatNLO 1  0  0  1  2 0.33152629D+03 0.00000000D+00  -5  5  0 0.00000000D+00 0.00000000D+00 0.00000000D+00 0.00000000D+00 0.00000000D+00
  <mgrwgt>
 0.1906150493D+00    3    2    0
 0.186277415918802D+03 0.000000000000000D+00 0.000000000000000D+00 0.186277415918802D+03
 0.186277415918802D+03 0.000000000000000D+00 0.000000000000000D+00 -.186277415918802D+03
 0.196087715009469D+03 -.149271799522092D+03 0.115192788014717D+02 -.202639596566186D+02
 0.176467116828135D+03 0.149271799522092D+03 -.115192788014717D+02 0.202639596566186D+02
 0.000000000000000D+00 0.000000000000000D+00 -.000000000000000D+00 -.000000000000000D+00
 0.354697008882721D+03 0.000000000000000D+00 0.000000000000000D+00 0.354697008882721D+03
 0.510186583836729D+03 0.000000000000000D+00 0.000000000000000D+00 -.510186583836729D+03
 0.285359478081518D+03 -.166746847613636D+03 0.193881129770037D+03 -.202639596566186D+02
 0.213345625716939D+03 0.135122799340083D+03 0.136133411424553D+03 0.202639596566186D+02
 0.366178488920993D+03 0.316240482735524D+02 -.330014541194591D+03 -.155489574954008D+03
0.812295675354D-03 0.000000000000D+00 0.000000000000D+00 0.149227937270D-02 0.000000000000D+00  5 -1 1 25 23 21 0 0.41052756D-02 0.20005591D+00 0.34287492D+05 0.34287492D+05 0.34287492D+05 0.12088563D+01  1  2  2  1  5  1       -1 0.186965788579D+00 0.100000000000D+01
-.451255825474D-04 0.000000000000D+00 -.311942927572D-05 0.149227937270D-02 0.000000000000D+00  5 -1 1 25 23 21 2 0.41052756D-02 0.20005591D+00 0.34287492D+05 0.34287492D+05 0.34287492D+05 0.12088563D+01  1  2  3  1  5  1       -1 -.151781972229D-01 0.100000000000D+01
0.559750275206D-04 0.000000000000D+00 0.000000000000D+00 0.149227937270D-02 0.000000000000D+00  5 -1 1 25 23 21 2 0.41052756D-02 0.20005591D+00 0.34287492D+05 0.34287492D+05 0.34287492D+05 0.12088563D+01  1  2 15  1  5  1       -1 0.188274579363D-01 0.100000000000D+01
  </mgrwgt>
  </event>
  <event>
  4     66 0.43907321E-03 0.34954317E+02 0.75467711E-02 0.12332819E+00
       -1 -1    0    0    0  501 0.00000000E+00 0.00000000E+00 0.20060094E+02 0.20062647E+02 0.32000000E+00 0.0000E+00 0.9000E+01
        1 -1    0    0  501    0 0.00000000E+00 0.00000000E+00 -.61568598E+03 0.61568606E+03 0.32000000E+00 0.0000E+00 0.9000E+01
       25  1    1    2    0    0 0.16470837E+02 -.19439847E+02 -.34649359E+03 0.36923164E+03 0.12500000E+03 0.0000E+00 0.9000E+01
       23  1    1    2    0    0 -.16470837E+02 0.19439847E+02 -.24913229E+03 0.26651706E+03 0.91188000E+02 0.0000E+00 0.9000E+01
#aMCatNLO 1  0  0  1  2 0.28260504D+02 0.00000000D+00  -5  5  0 0.00000000D+00 0.00000000D+00 0.00000000D+00 0.00000000D+00 0.00000000D+00
  <mgrwgt>
 0.1363052018D+00    9    2    0
 0.111137556544538D+03 0.000000000000000D+00 0.000000000000000D+00 0.111137556544538D+03
 0.111137556544538D+03 0.000000000000000D+00 0.000000000000000D+00 -.111137556544538D+03
 0.127580577435210D+03 0.164708374868476D+02 -.194398473241110D+02 -.161480252619966D+01
 0.946945356538671D+02 -.164708374868476D+02 0.194398473241110D+02 0.161480252619966D+01
 0.000000000000000D+00 0.000000000000000D+00 0.000000000000000D+00 0.000000000000000D+00
 0.136720165534670D+03 0.000000000000000D+00 0.000000000000000D+00 0.136720165534670D+03
 0.120119743554560D+03 0.000000000000000D+00 0.000000000000000D+00 -.120119743554560D+03
 0.126755250662401D+03 0.438667297509291D+00 -.209545592721840D+02 -.161480252619966D+01
 0.973092087861922D+02 -.285738775141924D+02 0.182963577577630D+02 0.161480252619966D+01
 0.327754496406370D+02 0.281352102166831D+02 0.265820151442102D+01 0.166004219801097D+02
0.994364208224D-04 0.000000000000D+00 0.000000000000D+00 0.237036401345D-02 0.000000000000D+00  5 -1 1 25 23 21 0 0.30863711D-02 0.94721122D-01 0.12348891D+05 0.12348891D+05 0.12348891D+05 0.12575680D+01  1  2  2  1  5  1       -1 0.114571365493D+00 0.100000000000D+01
-.552424552300D-05 0.000000000000D+00 -.381862038169D-06 0.237036401345D-02 0.000000000000D+00  5 -1 1 25 23 21 2 0.30863711D-02 0.94721122D-01 0.12348891D+05 0.12348891D+05 0.12348891D+05 0.12575680D+01  1  2  3  1  5  1       -1 -.100662223698D-01 0.100000000000D+01
0.687942885822D-05 0.000000000000D+00 0.000000000000D+00 0.237036401345D-02 0.000000000000D+00  5 -1 1 25 23 21 2 0.30863711D-02 0.94721122D-01 0.12348891D+05 0.12348891D+05 0.12348891D+05 0.12575680D+01  1  2 15  1  5  1       -1 0.125356232586D-01 0.100000000000D+01
0.979987773953D-04 0.000000000000D+00 0.000000000000D+00 0.237036401345D-02 0.000000000000D+00  5 -1 1 25 23 21 2 0.38999196D-02 0.94721122D-01 0.15913984D+05 0.15913984D+05 0.15913984D+05 0.12449047D+01  1  2 12  1  5  1       -1 0.125557561882D+00 0.100000000000D+01
-.100223672824D-03 0.000000000000D+00 0.000000000000D+00 0.237036401345D-02 0.000000000000D+00  5 -1 1 25 23 21 2 0.30863711D-02 0.94721122D-01 0.12348891D+05 0.12348891D+05 0.12348891D+05 0.12575680D+01  1  2  4  1  5  1       -1 -.182626527580D+00 0.100000000000D+01
-.183044631583D-03 0.000000000000D+00 -.506735694938D-04 0.237036401345D-02 0.000000000000D+00  5 -1 1 25 23 21 2 0.41040662D-02 0.94721122D-01 0.12348891D+05 0.12348891D+05 0.12348891D+05 0.12575680D+01  1  2  5  1  5  1       -1 -.220304603935D+00 0.100000000000D+01
0.191641149722D-03 0.000000000000D+00 0.486832514082D-04 0.237036401345D-02 0.000000000000D+00  5 -1 1 25 23 21 2 0.30863711D-02 0.94721122D-01 0.12348891D+05 0.12348891D+05 0.12348891D+05 0.12575680D+01  1  2  6  1  5  1       -1 0.349206497118D+00 0.100000000000D+01
0.315744951176D-05 0.000000000000D+00 0.000000000000D+00 0.237036401345D-02 0.000000000000D+00  5 21 1 25 23 1 2 0.38999196D-02 0.94721122D-01 0.15913984D+05 0.15913984D+05 0.15913984D+05 0.12449047D+01  1  2 12  3  5  1       -1 0.744987048226D-01 0.100000000000D+01
-.576893961057D-05 0.000000000000D+00 -.188730793266D-05 0.237036401345D-02 0.000000000000D+00  5 21 1 25 23 1 2 0.41040662D-02 0.94721122D-01 0.12348891D+05 0.12348891D+05 0.12348891D+05 0.12575680D+01  1  2  5  3  5  1       -1 -.127067196935D+00 0.100000000000D+01
  </mgrwgt>
  </event>
  <event>
  5     66 0.43907321E-03 0.12175810E+03 0.75467711E-02 0.11848989E+00
       -1 -1    0    0    0  502 0.00000000E+00 0.00000000E+00 0.51272381E+02 0.51273380E+02 0.32000000E+00 0.0000E+00 0.9000E+01
        1 -1    0    0  501    0 0.00000000E+00 0.00000000E+00 -.19365607E+04 0.19365607E+04 0.32000000E+00 0.0000E+00 0.9000E+01
       25  1    1    2    0    0 0.21660024E+02 -.30451682E+00 -.41542258E+03 0.43436180E+03 0.12500000E+03 0.0000E+00 0.9000E+01
       23  1    1    2    0    0 -.75629568E+02 -.47716011E+02 -.14754919E+04 0.14810092E+04 0.91188000E+02 0.0000E+00 0.9000E+01
       21  1    1    2  501  502 0.53969543E+02 0.48020528E+02 0.56261845E+01 0.72463088E+02 0.75000000E+00 0.0000E+00 0.9000E+01
#aMCatNLO 2  0  0  1  2 0.72240451D+02 0.00000000D+00  -5  5  0 0.00000000D+00 0.00000000D+00 0.00000000D+00 0.00000000D+00 0.00000000D+00
  <mgrwgt>
 0.7608486043D-01    2    2    0
 0.148214196373871D+03 0.000000000000000D+00 0.000000000000000D+00 0.148214196373871D+03
 0.148214196373871D+03 0.000000000000000D+00 0.000000000000000D+00 -.148214196373871D+03
 0.160543900334146D+03 0.497190164925740D+02 0.246615572983032D+02 0.840783618128588D+02
 0.135884492413595D+03 -.497190164925740D+02 -.246615572983032D+02 -.840783618128588D+02
 0.000000000000000D+00 0.000000000000000D+00 0.000000000000000D+00 0.000000000000000D+00
 0.639647095648436D+03 0.000000000000000D+00 0.000000000000000D+00 0.639647095648436D+03
 0.155230491900367D+03 0.000000000000000D+00 0.000000000000000D+00 -.155230491900367D+03
 0.152195336054899D+03 0.216600244976394D+02 -.304516816271864D+00 0.840783618128588D+02
 0.152908703123850D+03 -.756295675808818D+02 -.477160112479304D+02 -.840783618128588D+02
 0.489773548370053D+03 0.539695430832424D+02 0.480205280642023D+02 0.484416603748069D+03
-.125231974809D-02 0.000000000000D+00 0.000000000000D+00 0.128295254332D-02 0.000000000000D+00  5 -1 1 25 23 21 2 0.77344488D-02 0.28446566D+00 0.26703092D+05 0.26703092D+05 0.26703092D+05 0.12202409D+01  1  2 13  1  5  1       -1 -.731644320267D-01 0.100000000000D+01
0.299379793015D-02 0.000000000000D+00 0.000000000000D+00 0.128295254332D-02 0.414472132304D-05  5 -1 1 25 23 21 2 0.78881231D-02 0.29793194D+00 0.26703092D+05 0.26703092D+05 0.26703092D+05 0.12202409D+01  1  2  1  1  5  1       -1 0.149249292453D+00 0.100000000000D+01
  </mgrwgt>
  </event>
  <event>
  4     66 0.43907321E-03 0.61014757E+02 0.75467711E-02 0.12277874E+00
       -3 -1    0    0    0  501 0.00000000E+00 0.00000000E+00 0.23924328E+03 0.23924380E+03 0.50000000E+00 0.0000E+00 0.9000E+01
        3 -1    0    0  501    0 0.00000000E+00 0.00000000E+00 -.55166331E+02 0.55168597E+02 0.50000000E+00 0.0000E+00 0.9000E+01
       25  1    1    2    0    0 -.18537028E+02 -.96776757E+01 0.14618702E+03 0.19347590E+03 0.12500000E+03 0.0000E+00 0.9000E+01
       23  1    1    2    0    0 0.18537028E+02 0.96776757E+01 0.37889926E+02 0.10093650E+03 0.91188000E+02 0.0000E+00 0.9000E+01
#aMCatNLO 1  0  0  1  2 0.36260229D+02 0.00000000D+00  -5  5  0 0.00000000D+00 0.00000000D+00 0.00000000D+00 0.00000000D+00 0.00000000D+00
  <mgrwgt>
 0.4128380096D-01    9    2    0
 0.114885092524888D+03 0.000000000000000D+00 0.000000000000000D+00 0.114885092524888D+03
 0.114885092524888D+03 0.000000000000000D+00 0.000000000000000D+00 -.114885092524888D+03
 0.130791744326592D+03 -.185370277795765D+02 -.967767565652906D+01 0.323141080486360D+02
 0.989784407231832D+02 0.185370277795765D+02 0.967767565652906D+01 -.323141080486360D+02
 0.000000000000000D+00 -.000000000000000D+00 0.000000000000000D+00 0.000000000000000D+00
 0.165760479027262D+03 0.000000000000000D+00 0.000000000000000D+00 0.165760479027262D+03
 0.122953512512114D+03 0.000000000000000D+00 0.000000000000000D+00 -.122953512512114D+03
 0.130886316683181D+03 -.171233169437107D+01 -.214264844545132D+02 0.323141080486360D+02
 0.101727402087458D+03 0.314414905946228D+02 0.666394532230312D+00 -.323141080486360D+02
 0.561002727687372D+02 -.297291589002517D+02 0.207600899222828D+02 0.428069665151483D+02
0.209264859659D-03 0.000000000000D+00 0.000000000000D+00 0.213522993508D-02 0.000000000000D+00  5 -3 3 25 23 21 0 0.36806873D-01 0.84873423D-02 0.12132142D+05 0.12132142D+05 0.12132142D+05 0.12584671D+01  1  2  2  1  5  1       -3 0.327140488406D-01 0.100000000000D+01
-.116007414270D-04 0.000000000000D+00 -.803632161793D-06 0.213522993508D-02 0.000000000000D+00  5 -3 3 25 23 21 2 0.36806873D-01 0.84873423D-02 0.12132142D+05 0.12132142D+05 0.12132142D+05 0.12584671D+01  1  2  3  1  5  1       -3 -.287215217071D-02 0.100000000000D+01
0.143509739099D-04 0.000000000000D+00 0.000000000000D+00 0.213522993508D-02 0.000000000000D+00  5 -3 3 25 23 21 2 0.36806873D-01 0.84873423D-02 0.12132142D+05 0.12132142D+05 0.12132142D+05 0.12584671D+01  1  2 15  1  5  1       -3 0.355306435597D-02 0.100000000000D+01
0.236139385620D-03 0.000000000000D+00 0.000000000000D+00 0.213522993508D-02 0.000000000000D+00  5 -3 3 25 23 21 2 0.53950833D-01 0.84873423D-02 0.16842002D+05 0.16842002D+05 0.16842002D+05 0.12421285D+01  1  2 12  1  5  1       -3 0.277285376228D-01 0.100000000000D+01
-.256625290588D-03 0.000000000000D+00 0.000000000000D+00 0.213522993508D-02 0.000000000000D+00  5 -3 3 25 23 21 2 0.36806873D-01 0.84873423D-02 0.12132142D+05 0.12132142D+05 0.12132142D+05 0.12584671D+01  1  2  4  1  5  1       -3 -.635361877565D-01 0.100000000000D+01
-.322742882869D-03 0.000000000000D+00 -.781719196496D-04 0.213522993508D-02 0.000000000000D+00  5 -3 3 25 23 21 2 0.55928407D-01 0.84873423D-02 0.12132142D+05 0.12132142D+05 0.12132142D+05 0.12584671D+01  1  2  5  1  5  1       -3 -.352411460066D-01 0.100000000000D+01
0.332312953178D-03 0.000000000000D+00 0.717958451176D-04 0.213522993508D-02 0.000000000000D+00  5 -3 3 25 23 21 2 0.36806873D-01 0.84873423D-02 0.12132142D+05 0.12132142D+05 0.12132142D+05 0.12584671D+01  1  2  6  1  5  1       -3 0.822752042039D-01 0.100000000000D+01
0.108762818561D-04 0.000000000000D+00 0.000000000000D+00 0.213522993508D-02 0.000000000000D+00  5 21 3 25 23 3 2 0.53950833D-01 0.84873423D-02 0.16842002D+05 0.16842002D+05 0.16842002D+05 0.12421285D+01  1  2 12  3  5  1       -3 0.254856948709D-01 0.100000000000D+01
-.130469552018D-04 0.000000000000D+00 -.384639256887D-05 0.213522993508D-02 0.000000000000D+00  5 21 3 25 23 3 2 0.55928407D-01 0.84873423D-02 0.12132142D+05 0.12132142D+05 0.12132142D+05 0.12584671D+01  1  2  5  3  5  1       -3 -.288232630019D-01 0.100000000000D+01
  </mgrwgt>
  </event>
  <event>
  4     66 0.43907321E-03 0.10815763E+03 0.75467711E-02 0.10321971E+00
       -3 -1    0    0    0  501 0.00000000E+00 0.00000000E+00 0.11996698E+03 0.11996802E+03 0.50000000E+00 0.0000E+00 0.9000E+01
        3 -1    0    0  501    0 0.00000000E+00 0.00000000E+00 -.10198899E+03 0.10199021E+03 0.50000000E+00 0.0000E+00 0.9000E+01
       25  1    1    2    0    0 -.31906845E+01 0.18007016E+01 -.12655763E+02 0.12569245E+03 0.12500000E+03 0.0000E+00 0.9000E+01
       23  1    1    2    0    0 0.31906845E+01 -.18007016E+01 0.30633751E+02 0.96265783E+02 0.91188000E+02 0.0000E+00 0.9000E+01
#aMCatNLO 1  0  0  2  2 0.40842910D+03 0.00000000D+00  -5  5  0 0.00000000D+00 0.00000000D+00 0.00000000D+00 0.00000000D+00 0.00000000D+00
  <mgrwgt>
 0.3873882180D-01    3    2    0
 0.110614474768304D+03 0.000000000000000D+00 0.000000000000000D+00 0.110614474768304D+03
 0.110614474768304D+03 0.000000000000000D+00 0.000000000000000D+00 -.110614474768304D+03
 0.127135252612504D+03 -.319068454521789D+01 0.180070158835777D+01 -.229117756354208D+02
 0.940936969241047D+02 0.319068454521789D+01 -.180070158835777D+01 0.229117756354208D+02
 0.000000000000000D+00 0.000000000000000D+00 0.000000000000000D+00 0.000000000000000D+00
 0.443510081850393D+03 0.000000000000000D+00 0.000000000000000D+00 0.443510081850393D+03
 0.429650158620313D+03 0.000000000000000D+00 0.000000000000000D+00 -.429650158620313D+03
 0.265911013959958D+03 -.860497731961946D+02 -.217150073486814D+03 -.229117756354208D+02
 0.198585030742390D+03 -.585096665443711D+02 -.164840627725857D+03 0.229117756354208D+02
 0.408664195768357D+03 0.144559439740566D+03 0.381990701212671D+03 0.138599232300794D+02
0.194127657702D-03 0.000000000000D+00 0.000000000000D+00 0.231366261786D-02 0.000000000000D+00  5 -3 3 25 23 21 0 0.18456632D-01 0.15690788D-01 0.11698072D+05 0.11698072D+05 0.11698072D+05 0.12603232D+01  1  2  2  2  5  2        3 0.379336208676D-01 0.100000000000D+01
-.107782543218D-04 0.000000000000D+00 -.745501320564D-06 0.231366261786D-02 0.000000000000D+00  5 -3 3 25 23 21 2 0.18456632D-01 0.15690788D-01 0.11698072D+05 0.11698072D+05 0.11698072D+05 0.12603232D+01  1  2  3  2  5  2        3 -.334540869967D-02 0.100000000000D+01
0.133724546731D-04 0.000000000000D+00 0.000000000000D+00 0.231366261786D-02 0.000000000000D+00  5 -3 3 25 23 21 2 0.18456632D-01 0.15690788D-01 0.11698072D+05 0.11698072D+05 0.11698072D+05 0.12603232D+01  1  2 15  2  5  2        3 0.415060963155D-02 0.100000000000D+01
  </mgrwgt>
  </event>
  <event>
  4     66 0.43907321E-03 0.21393174E+03 0.75467711E-02 0.10470087E+00
       -1 -1    0    0    0  501 0.00000000E+00 0.00000000E+00 0.43552589E+02 0.43553765E+02 0.32000000E+00 0.0000E+00 0.9000E+01
        1 -1    0    0  501    0 0.00000000E+00 0.00000000E+00 -.13685946E+04 0.13685947E+04 0.32000000E+00 0.0000E+00 0.9000E+01
       25  1    1    2    0    0 -.16070279E+03 0.89689725E+02 -.34281359E+03 0.40867565E+03 0.12500000E+03 0.0000E+00 0.9000E+01
       23  1    1    2    0    0 0.16070279E+03 -.89689725E+02 -.98222844E+03 0.10034728E+04 0.91188000E+02 0.0000E+00 0.9000E+01
#aMCatNLO 1  0  0  1  2 0.27984049D+03 0.00000000D+00  -5  5  0 0.00000000D+00 0.00000000D+00 0.00000000D+00 0.00000000D+00 0.00000000D+00
  <mgrwgt>
 0.1688368130D+00    3    2    0
 0.244144824127578D+03 0.000000000000000D+00 0.000000000000000D+00 0.244144824127578D+03
 0.244144824127578D+03 0.000000000000000D+00 0.000000000000000D+00 -.244144824127578D+03
 0.251629878011190D+03 -.160702788821261D+03 0.896897245685183D+02 0.117571095426636D+03
 0.236659770243966D+03 0.160702788821261D+03 -.896897245685183D+02 -.117571095426636D+03
 0.000000000000000D+00 -.000000000000000D+00 0.000000000000000D+00 -.000000000000000D+00
 0.341392892544582D+03 0.000000000000000D+00 0.000000000000000D+00 0.341392892544582D+03
 0.607715065727177D+03 0.000000000000000D+00 0.000000000000000D+00 -.607715065727177D+03
 0.184638457633451D+03 -.616516908065150D+02 0.290252748159018D+02 0.117571095426636D+03
 0.378155894583613D+03 0.300291573296882D+03 -.175181727903902D+03 -.117571095426636D+03
 0.386313606054694D+03 -.238639882490367D+03 0.146156453088001D+03 -.266322173182595D+03
0.166340068912D-02 0.000000000000D+00 0.000000000000D+00 0.106603936891D-02 0.000000000000D+00  5 -1 1 25 23 21 0 0.67004916D-02 0.21055311D+00 0.45766790D+05 0.45766790D+05 0.45766790D+05 0.11961055D+01  1  2  2  1  5  1       -1 0.165398267780D+00 0.100000000000D+01
-.904503115832D-04 0.000000000000D+00 -.638789662970D-05 0.106603936891D-02 0.000000000000D+00  5 -1 1 25 23 21 2 0.67004916D-02 0.21055311D+00 0.45766790D+05 0.45766790D+05 0.45766790D+05 0.11961055D+01  1  2  3  1  5  1       -1 -.128671727939D-01 0.100000000000D+01
0.114621704255D-03 0.000000000000D+00 0.000000000000D+00 0.106603936891D-02 0.000000000000D+00  5 -1 1 25 23 21 2 0.67004916D-02 0.21055311D+00 0.45766790D+05 0.45766790D+05 0.45766790D+05 0.11961055D+01  1  2 15  1  5  1       -1 0.163057180099D-01 0.100000000000D+01
  </mgrwgt>
  </event>
  <event>
  4     66 0.43907321E-03 0.45954398E+02 0.75467711E-02 0.12334091E+00
       -3 -1    0    0    0  501 0.00000000E+00 0.00000000E+00 0.39471141E+03 0.39471172E+03 0.50000000E+00 0.0000E+00 0.9000E+01
        3 -1    0    0  501    0 0.00000000E+00 0.00000000E+00 -.45814111E+02 0.45816839E+02 0.50000000E+00 0.0000E+00 0.9000E+01
       25  1    1    2    0    0 -.42157960E+02 0.10227679E+02 0.30093099E+03 0.32873448E+03 0.12500000E+03 0.0000E+00 0.9000E+01
       23  1    1    2    0    0 0.42157960E+02 -.10227679E+02 0.47966310E+02 0.11179408E+03 0.91188000E+02 0.0000E+00 0.9000E+01
#aMCatNLO 1  0  0  2  1 0.18370818D+02 0.00000000D+00  -5  5  0 0.00000000D+00 0.00000000D+00 0.00000000D+00 0.00000000D+00 0.00000000D+00
  <mgrwgt>
 0.3656545181D-01    9    2    0
 0.134476848798845D+03 0.000000000000000D+00 0.000000000000000D+00 0.134476848798845D+03
 0.134476848798845D+03 0.000000000000000D+00 0.000000000000000D+00 -.134476848798845D+03
 0.148066081297396D+03 -.421579601405128D+02 0.102276789375042D+02 0.664579973450110D+02
 0.120887616300294D+03 0.421579601405128D+02 -.102276789375042D+02 -.664579973450110D+02
 0.000000000000000D+00 0.000000000000000D+00 -.000000000000000D+00 -.000000000000000D+00
 0.136410037133949D+03 0.000000000000000D+00 0.000000000000000D+00 0.136410037133949D+03
 0.186876334474088D+03 0.000000000000000D+00 0.000000000000000D+00 -.186876334474088D+03
 0.151319320981418D+03 -.523603361329027D+02 0.106895599169176D+02 0.664579973450110D+02
 0.118261053664049D+03 0.340083154668425D+02 -.985872901186388D+01 -.664579973450110D+02
 0.537059969625702D+02 0.183520206660602D+02 -.830830905053716D+00 -.504662973401389D+02
0.371186883118D-03 0.000000000000D+00 0.000000000000D+00 0.153169622643D-02 0.000000000000D+00  5 -3 3 25 23 21 0 0.60725066D-01 0.70485590D-02 0.13606590D+05 0.13606590D+05 0.13606590D+05 0.12526786D+01  1  2  2  2  5  2        3 0.294824034804D-01 0.100000000000D+01
-.201142358977D-04 0.000000000000D+00 -.142545536693D-05 0.153169622643D-02 0.000000000000D+00  5 -3 3 25 23 21 2 0.60725066D-01 0.70485590D-02 0.13606590D+05 0.13606590D+05 0.13606590D+05 0.12526786D+01  1  2  3  2  5  2        3 -.250699318368D-02 0.100000000000D+01
0.254781096740D-04 0.000000000000D+00 0.000000000000D+00 0.153169622643D-02 0.000000000000D+00  5 -3 3 25 23 21 2 0.60725066D-01 0.70485590D-02 0.13606590D+05 0.13606590D+05 0.13606590D+05 0.12526786D+01  1  2 15  2  5  2        3 0.317553436335D-02 0.100000000000D+01
0.252485029811D-02 0.000000000000D+00 0.000000000000D+00 0.153169622643D-02 0.000000000000D+00  5 -3 3 25 23 21 2 0.60725066D-01 0.98309321D-02 0.15893205D+05 0.15893205D+05 0.15893205D+05 0.12449689D+01  1  2 12  2  5  2        3 0.183081185508D+00 0.100000000000D+01
-.244724794802D-02 0.000000000000D+00 0.000000000000D+00 0.153169622643D-02 0.000000000000D+00  5 -3 3 25 23 21 2 0.60725066D-01 0.70485590D-02 0.13606590D+05 0.13606590D+05 0.13606590D+05 0.12526786D+01  1  2  4  2  5  2        3 -.305019487474D+00 0.100000000000D+01
-.273414438870D-02 0.000000000000D+00 -.204877119450D-03 0.153169622643D-02 0.000000000000D+00  5 -3 3 25 23 21 2 0.60725066D-01 0.99118366D-02 0.13606590D+05 0.13606590D+05 0.13606590D+05 0.12526786D+01  1  2  5  2  5  2        3 -.195762281639D+00 0.100000000000D+01
0.265931168699D-02 0.000000000000D+00 0.193522467024D-03 0.153169622643D-02 0.000000000000D+00  5 -3 3 25 23 21 2 0.60725066D-01 0.70485590D-02 0.13606590D+05 0.13606590D+05 0.13606590D+05 0.12526786D+01  1  2  6  2  5  2        3 0.331450635582D+00 0.100000000000D+01
0.105159318053D-03 0.000000000000D+00 0.000000000000D+00 0.153169622643D-02 0.000000000000D+00  5 -3 21 25 23 -3 2 0.60725066D-01 0.98309321D-02 0.15893205D+05 0.15893205D+05 0.15893205D+05 0.12449689D+01  1  2 12  4  5  2        3 0.176540008539D+00 0.100000000000D+01
-.110315915877D-03 0.000000000000D+00 -.868400590937D-05 0.153169622643D-02 0.000000000000D+00  5 -3 21 25 23 -3 2 0.60725066D-01 0.99118366D-02 0.13606590D+05 0.13606590D+05 0.13606590D+05 0.12526786D+01  1  2  5  4  5  2        3 -.183875553365D+00 0.100000000000D+01
  </mgrwgt>
  </event>
  <event>
  4     66 0.43907321E-03 0.11150626E+03 0.75467711E-02 0.81275048E-01
       -1 -1    0    0    0  501 0.00000000E+00 0.00000000E+00 0.16137371E+03 0.16137403E+03 0.32000000E+00 0.0000E+00 0.9000E+01
        1 -1    0    0  501    0 0.00000000E+00 0.00000000E+00 -.86334863E+02 0.86335456E+02 0.32000000E+00 0.0000E+00 0.9000E+01
       25  1    1    2    0    0 -.25912721E+02 -.77870694E+01 0.82668241E+02 0.15228639E+03 0.12500000E+03 0.0000E+00 0.9000E+01
       23  1    1    2    0    0 0.25912721E+02 0.77870694E+01 -.76293920E+01 0.95423092E+02 0.91188000E+02 0.0000E+00 0.9000E+01
#aMCatNLO 1  0  0  1  1 0.34390814D+04 0.00000000D+00  -5  5  0 0.00000000D+00 0.00000000D+00 0.00000000D+00 0.00000000D+00 0.00000000D+00
  <mgrwgt>
 0.1453051338D+00    3    2    0
 0.118035122386354D+03 0.000000000000000D+00 0.000000000000000D+00 0.118035122386354D+03
 0.118035122386354D+03 0.000000000000000D+00 0.000000000000000D+00 -.118035122386354D+03
 0.133517269793448D+03 -.259127210662635D+02 -.778706941356690D+01 0.383373678020130D+02
 0.102552974979259D+03 0.259127210662635D+02 0.778706941356690D+01 -.383373678020130D+02
 0.000000000000000D+00 -.000000000000000D+00 0.000000000000000D+00 -.000000000000000D+00
 0.333545509485103D+04 0.000000000000000D+00 0.000000000000000D+00 0.333545509485103D+04
 0.355799299199341D+04 0.000000000000000D+00 0.000000000000000D+00 -.355799299199341D+04
 0.166231789418759D+04 0.147505422659904D+04 -.755262243302661D+03 0.383373678020130D+02
 0.178485629005852D+04 0.160341770613342D+04 -.777803722481016D+03 -.383373678020130D+02
 0.344627390259833D+04 -.307847193273246D+04 0.153306596578368D+04 -.222537897142378D+03
0.245938791905D-03 0.000000000000D+00 0.000000000000D+00 0.201780523249D-02 0.000000000000D+00  5 -1 1 25 23 21 0 0.24826795D-01 0.13282357D-01 0.12433645D+05 0.12433645D+05 0.12433645D+05 0.12572212D+01  1  2  2  1  5  1       -1 0.142282558055D+00 0.100000000000D+01
-.136094784152D-04 0.000000000000D+00 -.944469718085D-06 0.201780523249D-02 0.000000000000D+00  5 -1 1 25 23 21 2 0.24826795D-01 0.13282357D-01 0.12433645D+05 0.12433645D+05 0.12433645D+05 0.12572212D+01  1  2  3  1  5  1       -1 -.124448458937D-01 0.100000000000D+01
0.169149174783D-04 0.000000000000D+00 0.000000000000D+00 0.201780523249D-02 0.000000000000D+00  5 -1 1 25 23 21 2 0.24826795D-01 0.13282357D-01 0.12433645D+05 0.12433645D+05 0.12433645D+05 0.12572212D+01  1  2 15  1  5  1       -1 0.154674216675D-01 0.100000000000D+01
  </mgrwgt>
  </event>
  <event>
  4     66 0.43907321E-03 0.55570258E+02 0.75467711E-02 0.12118450E+00
       -1 -1    0    0    0  501 0.00000000E+00 0.00000000E+00 0.46092167E+03 0.46092178E+03 0.32000000E+00 0.0000E+00 0.9000E+01
        1 -1    0    0  501    0 0.00000000E+00 0.00000000E+00 -.42231651E+02 0.42232863E+02 0.32000000E+00 0.0000E+00 0.9000E+01
       25  1    1    2    0    0 0.43854912E+01 -.68000915E+02 0.32815401E+03 0.35770576E+03 0.12500000E+03 0.0000E+00 0.9000E+01
       23  1    1    2    0    0 -.43854912E+01 0.68000915E+02 0.90536003E+02 0.14544888E+03 0.91188000E+02 0.0000E+00 0.9000E+01
#aMCatNLO 1  0  0  1  2 0.24682633D+02 0.00000000D+00  -5  5  0 0.00000000D+00 0.00000000D+00 0.00000000D+00 0.00000000D+00 0.00000000D+00
  <mgrwgt>
 0.1466596085D+00    6    2    0
 0.139519948504966D+03 0.000000000000000D+00 0.000000000000000D+00 0.139519948504966D+03
 0.139519948504966D+03 0.000000000000000D+00 0.000000000000000D+00 -.139519948504966D+03
 0.152617983471163D+03 0.438549120967655D+01 -.680009152392477D+02 0.549899251888806D+02
 0.126421913538770D+03 -.438549120967655D+01 0.680009152392477D+02 -.549899251888806D+02
 0.000000000000000D+00 -.000000000000000D+00 -.000000000000000D+00 -.000000000000000D+00
 0.150639573481154D+03 0.000000000000000D+00 0.000000000000000D+00 0.150639573481154D+03
 0.154467562236874D+03 0.000000000000000D+00 0.000000000000000D+00 -.154467562236874D+03
 0.148560706342315D+03 0.121579826013273D+02 -.572151645607576D+02 0.549899251888806D+02
 0.131568721783281D+03 0.227244993950964D+01 0.772400239945591D+02 -.549899251888806D+02
 0.249777075924329D+02 -.144304325408369D+02 -.200248594338015D+02 -.382798875572078D+01
0.488234095373D-03 0.000000000000D+00 0.000000000000D+00 0.160549080760D-02 0.000000000000D+00  5 -1 1 25 23 21 0 0.70911128D-01 0.64972789D-02 0.16409977D+05 0.16409977D+05 0.16409977D+05 0.12433990D+01  1  2  2  1  5  1       -1 0.114009147415D+00 0.100000000000D+01
-.268836788244D-04 0.000000000000D+00 -.187494748122D-05 0.160549080760D-02 0.000000000000D+00  5 -1 1 25 23 21 2 0.70911128D-01 0.64972789D-02 0.16409977D+05 0.16409977D+05 0.16409977D+05 0.12433990D+01  1  2  3  1  5  1       -1 -.970557567205D-02 0.100000000000D+01
0.337390272612D-04 0.000000000000D+00 0.000000000000D+00 0.160549080760D-02 0.000000000000D+00  5 -1 1 25 23 21 2 0.70911128D-01 0.64972789D-02 0.16409977D+05 0.16409977D+05 0.16409977D+05 0.12433990D+01  1  2 15  1  5  1       -1 0.121805012001D-01 0.100000000000D+01
0.412230063624D-03 0.000000000000D+00 0.000000000000D+00 0.160549080760D-02 0.000000000000D+00  5 -1 1 25 23 21 2 0.80030788D-01 0.64972789D-02 0.19911634D+05 0.19911634D+05 0.19911634D+05 0.12340378D+01  1  2 12  1  5  1       -1 0.115431811818D+00 0.100000000000D+01
-.292205589558D-03 0.000000000000D+00 0.000000000000D+00 0.160549080760D-02 0.000000000000D+00  5 -1 1 25 23 21 2 0.70911128D-01 0.64972789D-02 0.16409977D+05 0.16409977D+05 0.16409977D+05 0.12433990D+01  1  2  4  1  5  1       -1 -.105492387399D+00 0.100000000000D+01
0.787541532421D-05 0.000000000000D+00 0.000000000000D+00 0.160549080760D-02 0.000000000000D+00  5 21 1 25 23 1 2 0.80030788D-01 0.64972789D-02 0.19911634D+05 0.19911634D+05 0.19911634D+05 0.12340378D+01  1  2 12  3  5  1       -1 0.202361110883D-01 0.100000000000D+01
  </mgrwgt>
  </event>
  <event>
  4     66 0.43907321E-03 0.75419016E+02 0.75467711E-02 0.11582844E+00
       -1 -1    0    0    0  501 0.00000000E+00 0.00000000E+00 0.10227644E+02 0.10232649E+02 0.32000000E+00 0.0000E+00 0.9000E+01
        1 -1    0    0  501    0 0.00000000E+00 0.00000000E+00 -.13824706E+04 0.13824707E+04 0.32000000E+00 0.0000E+00 0.9000E+01
       25  1    1    2    0    0 0.42419797E+02 0.23408465E+02 -.82070902E+03 0.83158625E+03 0.12500000E+03 0.0000E+00 0.9000E+01
       23  1    1    2    0    0 -.42419797E+02 -.23408465E+02 -.55153395E+03 0.56111705E+03 0.91188000E+02 0.0000E+00 0.9000E+01
#aMCatNLO 1  0  0  2  1 0.11616066D+03 0.00000000D+00  -5  5  0 0.00000000D+00 0.00000000D+00 0.00000000D+00 0.00000000D+00 0.00000000D+00
  <mgrwgt>
 0.1686121200D+00    7    2    0
 0.118924046240441D+03 0.000000000000000D+00 0.000000000000000D+00 0.118924046240441D+03
 0.118924046240441D+03 0.000000000000000D+00 0.000000000000000D+00 -.118924046240441D+03
 0.134290468942754D+03 0.424197969374907D+02 0.234084654045039D+02 -.784440080904859D+01
 0.103557623538129D+03 -.424197969374907D+02 -.234084654045039D+02 0.784440080904859D+01
 0.000000000000000D+00 0.000000000000000D+00 0.000000000000000D+00 -.000000000000000D+00
 0.149716651382377D+03 0.000000000000000D+00 0.000000000000000D+00 0.149716651382377D+03
 0.326579134845950D+03 0.000000000000000D+00 0.000000000000000D+00 -.326579134845950D+03
 0.126992351104625D+03 0.142429525683893D+01 -.209402482804935D+02 -.784440080904859D+01
 0.137705616323830D+03 -.802742090777413D+02 -.643591652837101D+02 0.784440080904859D+01
 0.211597818799872D+03 0.788499138209024D+02 0.852994135642036D+02 -.176862483463573D+03
0.207297670897D-03 0.000000000000D+00 0.000000000000D+00 0.216137464910D-02 0.000000000000D+00  5 -1 1 25 23 21 0 0.15738716D-02 0.21268817D+00 0.14080345D+05 0.14080345D+05 0.14080345D+05 0.12509673D+01  1  2  2  2  5  2        1 0.167554934892D+00 0.100000000000D+01
-.115164684197D-04 0.000000000000D+00 -.796077638975D-06 0.216137464910D-02 0.000000000000D+00  5 -1 1 25 23 21 2 0.15738716D-02 0.21268817D+00 0.14080345D+05 0.14080345D+05 0.14080345D+05 0.12509673D+01  1  2  3  2  5  2        1 -.145671306910D-01 0.100000000000D+01
0.143397163839D-04 0.000000000000D+00 0.000000000000D+00 0.216137464910D-02 0.000000000000D+00  5 -1 1 25 23 21 2 0.15738716D-02 0.21268817D+00 0.14080345D+05 0.14080345D+05 0.14080345D+05 0.12509673D+01  1  2 15  2  5  2        1 0.181382447314D-01 0.100000000000D+01
0.100593094471D-06 0.000000000000D+00 0.000000000000D+00 0.216137464910D-02 0.000000000000D+00  5 -1 1 25 23 21 2 0.15738716D-02 0.56447354D+00 0.36174615D+05 0.36174615D+05 0.36174615D+05 0.12064589D+01  1  2 12  2  5  2        1 0.339372469889D-05 0.100000000000D+01
-.110016287252D-03 0.000000000000D+00 -.610696838713D-04 0.216137464910D-02 0.000000000000D+00  5 -1 1 25 23 21 2 0.15738716D-02 0.60761972D+00 0.14080345D+05 0.14080345D+05 0.14080345D+05 0.12509673D+01  1  2  5  2  5  2        1 -.247377730552D-02 0.100000000000D+01
0.109181821757D-07 0.000000000000D+00 0.000000000000D+00 0.216137464910D-02 0.000000000000D+00  5 -1 21 25 23 -1 2 0.15738716D-02 0.56447354D+00 0.36174615D+05 0.36174615D+05 0.36174615D+05 0.12064589D+01  1  2 12  4  5  2        1 0.865477011916D-07 0.100000000000D+01
-.970451473486D-05 0.000000000000D+00 -.722654711561D-05 0.216137464910D-02 0.000000000000D+00  5 -1 21 25 23 -1 2 0.15738716D-02 0.60761972D+00 0.14080345D+05 0.14080345D+05 0.14080345D+05 0.12509673D+01  1  2  5  4  5  2        1 -.436318875064D-04 0.100000000000D+01
  </mgrwgt>
  </event>
  <event>
  4     66 0.43907321E-03 0.15680120E+03 0.75467711E-02 0.11017089E+00
       -1 -1    0    0    0  501 0.00000000E+00 0.00000000E+00 0.73506506E+02 0.73507203E+02 0.32000000E+00 0.0000E+00 0.9000E+01
        1 -1    0    0  501    0 0.00000000E+00 0.00000000E+00 -.34226586E+03 0.34226601E+03 0.32000000E+00 0.0000E+00 0.9000E+01
       25  1    1    2    0    0 -.15380739E+01 -.11291569E+03 -.17541037E+03 0.24319974E+03 0.12500000E+03 0.0000E+00 0.9000E+01
       23  1    1    2    0    0 0.15380739E+01 0.11291569E+03 -.93348990E+02 0.17257347E+03 0.91188000E+02 0.0000E+00 0.9000E+01
#aMCatNLO 1  0  0  1  1 0.17820674D+03 0.00000000D+00  -5  5  0 0.00000000D+00 0.00000000D+00 0.00000000D+00 0.00000000D+00 0.00000000D+00
  <mgrwgt>
 0.1538967686D+00    3    2    0
 0.158615710423164D+03 0.000000000000000D+00 0.000000000000000D+00 0.158615710423164D+03
 0.158615710423164D+03 0.000000000000000D+00 0.000000000000000D+00 -.158615710423164D+03
 0.170136871593924D+03 -.153807391672735D+01 -.112915687132984D+03 -.238586882221200D+02
 0.147094549252403D+03 0.153807391672735D+01 0.112915687132984D+03 0.238586882221200D+02
 0.000000000000000D+00 0.000000000000000D+00 0.000000000000000D+00 -.000000000000000D+00
 0.251659223353112D+03 0.000000000000000D+00 0.000000000000000D+00 0.251659223353112D+03
 0.295789353218319D+03 0.000000000000000D+00 0.000000000000000D+00 -.295789353218319D+03
 0.243710453534937D+03 -.723229139769192D+02 -.194858780331839D+03 -.238586882221200D+02
 0.120148607434202D+03 -.441714497520601D+02 0.600006878918800D+02 0.238586882221200D+02
 0.183589515602292D+03 0.116494363728979D+03 0.134858092439959D+03 -.441301298652070D+02
0.416247816274D-03 0.000000000000D+00 0.000000000000D+00 0.162648352272D-02 0.000000000000D+00  5 -1 1 25 23 21 0 0.11308758D-01 0.52656351D-01 0.24586617D+05 0.24586617D+05 0.24586617D+05 0.12240748D+01  1  2  2  1  5  1       -1 0.150862264882D+00 0.100000000000D+01
-.231211566603D-04 0.000000000000D+00 -.159850121506D-05 0.162648352272D-02 0.000000000000D+00  5 -1 1 25 23 21 2 0.11308758D-01 0.52656351D-01 0.24586617D+05 0.24586617D+05 0.24586617D+05 0.12240748D+01  1  2  3  1  5  1       -1 -.125560805915D-01 0.100000000000D+01
0.287089860407D-04 0.000000000000D+00 0.000000000000D+00 0.162648352272D-02 0.000000000000D+00  5 -1 1 25 23 21 2 0.11308758D-01 0.52656351D-01 0.24586617D+05 0.24586617D+05 0.24586617D+05 0.12240748D+01  1  2 15  1  5  1       -1 0.155905843174D-01 0.100000000000D+01
  </mgrwgt>
  </event>
  <event>
  4     66 0.43907321E-03 0.12916379E+03 0.75467711E-02 0.11982092E+00
       -1 -1    0    0    0  501 0.00000000E+00 0.00000000E+00 0.46221237E+02 0.46222344E+02 0.32000000E+00 0.0000E+00 0.9000E+01
        1 -1    0    0  501    0 0.00000000E+00 0.00000000E+00 -.36095584E+03 0.36095599E+03 0.32000000E+00 0.0000E+00 0.9000E+01
       25  1    1    2    0    0 -.46309891E+02 0.52618674E+02 -.17320680E+03 0.22480864E+03 0.12500000E+03 0.0000E+00 0.9000E+01
       23  1    1    2    0    0 0.46309891E+02 -.52618674E+02 -.14152781E+03 0.18236969E+03 0.91188000E+02 0.0000E+00 0.9000E+01
#aMCatNLO 1  0  0  1  1 0.41995543D+02 0.00000000D+00  -5  5  0 0.00000000D+00 0.00000000D+00 0.00000000D+00 0.00000000D+00 0.00000000D+00
  <mgrwgt>
 0.1479034666D+00    4    2    0
 0.129166868392518D+03 0.000000000000000D+00 0.000000000000000D+00 0.129166868392518D+03
 0.129166868392518D+03 0.000000000000000D+00 0.000000000000000D+00 -.129166868392518D+03
 0.143314746921606D+03 -.463098908504575D+02 0.526186741430728D+02 0.886468300527103D+00
 0.115018989863431D+03 0.463098908504575D+02 -.526186741430728D+02 -.886468300527103D+00
 0.000000000000000D+00 0.000000000000000D+00 0.000000000000000D+00 -.000000000000000D+00
 0.135633249701289D+03 0.000000000000000D+00 0.000000000000000D+00 0.135633249701289D+03
 0.223280589542425D+03 0.000000000000000D+00 0.000000000000000D+00 -.223280589542425D+03
 0.137778348637181D+03 -.494823352036943D+02 0.301427608212962D+02 0.886468300527103D+00
 0.123946593171463D+03 0.436129017514902D+02 -.717261151156201D+02 -.886468300527103D+00
 0.971888974350708D+02 0.586943345220412D+01 0.415833542943239D+02 -.876473398411360D+02
0.228542844863D-03 0.000000000000D+00 0.000000000000D+00 0.197488936159D-02 0.000000000000D+00  5 -1 1 25 23 21 0 0.71110556D-02 0.55531764D-01 0.16683285D+05 0.16683285D+05 0.16683285D+05 0.12425909D+01  1  2  2  1  5  1       -1 0.155195472914D+00 0.100000000000D+01
-.126968247059D-04 0.000000000000D+00 -.877664700989D-06 0.197488936159D-02 0.000000000000D+00  5 -1 1 25 23 21 2 0.71110556D-02 0.55531764D-01 0.16683285D+05 0.16683285D+05 0.16683285D+05 0.12425909D+01  1  2  3  1  5  1       -1 -.133126005217D-01 0.100000000000D+01
0.158337269755D-04 0.000000000000D+00 0.000000000000D+00 0.197488936159D-02 0.000000000000D+00  5 -1 1 25 23 21 2 0.71110556D-02 0.55531764D-01 0.16683285D+05 0.16683285D+05 0.16683285D+05 0.12425909D+01  1  2 15  1  5  1       -1 0.166016375651D-01 0.100000000000D+01
-.100916159846D-04 0.000000000000D+00 0.000000000000D+00 0.197488936159D-02 0.000000000000D+00  5 -1 1 25 23 21 2 0.71110556D-02 0.55531764D-01 0.16683285D+05 0.16683285D+05 0.16683285D+05 0.12425909D+01  1  2  4  1  5  1       -1 -.105810433186D-01 0.100000000000D+01
  </mgrwgt>
  </event>
  <event>
  4     66 0.43907321E-03 0.11041636E+03 0.75467711E-02 0.11738430E+00
       -1 -1    0    0    0  501 0.00000000E+00 0.00000000E+00 0.19612720E+03 0.19612746E+03 0.32000000E+00 0.0000E+00 0.9000E+01
        1 -1    0    0  501    0 0.00000000E+00 0.00000000E+00 -.10565288E+03 0.10565336E+03 0.32000000E+00 0.0000E+00 0.9000E+01
       25  1    1    2    0    0 0.21471713E+02 -.58761659E+01 -.46941065E+02 0.13536627E+03 0.12500000E+03 0.0000E+00 0.9000E+01
       23  1    1    2    0    0 -.21471713E+02 0.58761659E+01 0.13741539E+03 0.16641455E+03 0.91188000E+02 0.0000E+00 0.9000E+01
#aMCatNLO 1  0  0  1  1 0.10371824D+03 0.00000000D+00  -5  5  0 0.00000000D+00 0.00000000D+00 0.00000000D+00 0.00000000D+00 0.00000000D+00
  <mgrwgt>
 0.9896345982D-01    3    2    0
 0.143949698555641D+03 0.000000000000000D+00 0.000000000000000D+00 0.143949698555641D+03
 0.143949698555641D+03 0.000000000000000D+00 0.000000000000000D+00 -.143949698555641D+03
 0.156644668967778D+03 0.214717128741636D+02 -.587616594621983D+01 -.917441471487246D+02
 0.131254728143503D+03 -.214717128741636D+02 0.587616594621983D+01 0.917441471487246D+02
 0.000000000000000D+00 -.000000000000000D+00 -.000000000000000D+00 -.000000000000000D+00
 0.201546617702735D+03 0.000000000000000D+00 0.000000000000000D+00 0.201546617702735D+03
 0.208410836244646D+03 0.000000000000000D+00 0.000000000000000D+00 -.208410836244646D+03
 0.166260332078591D+03 0.347259741970079D+02 0.489348158564572D+02 -.917441471487246D+02
 0.139751983336060D+03 -.103477173877048D+02 0.518777573838719D+02 0.917441471487246D+02
 0.103945138532729D+03 -.243782568093031D+02 -.100812573240329D+03 -.686421854191113D+01
0.297973174713D-03 0.000000000000D+00 0.000000000000D+00 0.119674150679D-02 0.000000000000D+00  5 -1 1 25 23 21 0 0.30173473D-01 0.16254346D-01 0.12191773D+05 0.12191773D+05 0.12191773D+05 0.12582179D+01  1  2  2  1  5  1       -1 0.962347477889D-01 0.100000000000D+01
-.151384295306D-04 0.000000000000D+00 -.114429544904D-05 0.119674150679D-02 0.000000000000D+00  5 -1 1 25 23 21 2 0.30173473D-01 0.16254346D-01 0.12191773D+05 0.12191773D+05 0.12191773D+05 0.12582179D+01  1  2  3  1  5  1       -1 -.774011298400D-02 0.100000000000D+01
0.204753561119D-04 0.000000000000D+00 0.000000000000D+00 0.119674150679D-02 0.000000000000D+00  5 -1 1 25 23 21 2 0.30173473D-01 0.16254346D-01 0.12191773D+05 0.12191773D+05 0.12191773D+05 0.12582179D+01  1  2 15  1  5  1       -1 0.104688250108D-01 0.100000000000D+01
  </mgrwgt>
  </event>
  <event>
  4     66 0.43907321E-03 0.84330956E+02 0.75467711E-02 0.12459736E+00
       -1 -1    0    0    0  501 0.00000000E+00 0.00000000E+00 0.37774600E+01 0.37909898E+01 0.32000000E+00 0.0000E+00 0.9000E+01
        1 -1    0    0  501    0 0.00000000E+00 0.00000000E+00 -.35805523E+04 0.35805523E+04 0.32000000E+00 0.0000E+00 0.9000E+01
       25  1    1    2    0    0 0.41921255E+02 0.37227499E+01 -.21435145E+04 0.21475686E+04 0.12500000E+03 0.0000E+00 0.9000E+01
       23  1    1    2    0    0 -.41921255E+02 -.37227499E+01 -.14332603E+04 0.14367747E+04 0.91188000E+02 0.0000E+00 0.9000E+01
#aMCatNLO 1  0  0  2  1 0.41812730D+01 0.00000000D+00  -5  5  0 0.00000000D+00 0.00000000D+00 0.00000000D+00 0.00000000D+00 0.00000000D+00
  <mgrwgt>
 0.2809745111D+00   11    2    0
 0.116403034764740D+03 0.000000000000000D+00 0.000000000000000D+00 0.116403034764740D+03
 0.116403034764740D+03 0.000000000000000D+00 0.000000000000000D+00 -.116403034764740D+03
 0.132102257449900D+03 0.419212548695533D+02 0.372274990053715D+01 -.739972612328203D+01
 0.100703812079581D+03 -.419212548695533D+02 -.372274990053715D+01 0.739972612328203D+01
 0.000000000000000D+00 0.000000000000000D+00 0.000000000000000D+00 -.000000000000000D+00
 0.117951733169049D+03 0.000000000000000D+00 0.000000000000000D+00 0.117951733169049D+03
 0.119278652840459D+03 0.000000000000000D+00 0.000000000000000D+00 -.119278652840459D+03
 0.131600584179813D+03 0.404406065746003D+02 0.187487323485949D+01 -.739972612328203D+01
 0.101243030836148D+03 -.430551533394613D+02 -.513787632247860D+01 0.739972612328203D+01
 0.438677099354771D+01 0.261454676486106D+01 0.326300308761911D+01 -.132691967140980D+01
0.466150838563D-03 0.000000000000D+00 0.000000000000D+00 0.222089967176D-02 0.000000000000D+00  5 -1 1 25 23 21 0 0.58218955D-03 0.55085524D+00 0.13493892D+05 0.13493892D+05 0.13493892D+05 0.12530956D+01  1  2  2  2  5  2        1 0.534410250612D-01 0.100000000000D+01
-.258971348775D-04 0.000000000000D+00 -.179014196042D-05 0.222089967176D-02 0.000000000000D+00  5 -1 1 25 23 21 2 0.58218955D-03 0.55085524D+00 0.13493892D+05 0.13493892D+05 0.13493892D+05 0.12530956D+01  1  2  3  2  5  2        1 -.466195905310D-02 0.100000000000D+01
0.322906027417D-04 0.000000000000D+00 0.000000000000D+00 0.222089967176D-02 0.000000000000D+00  5 -1 1 25 23 21 2 0.58218955D-03 0.55085524D+00 0.13493892D+05 0.13493892D+05 0.13493892D+05 0.12530956D+01  1  2 15  2  5  2        1 0.581290048085D-02 0.100000000000D+01
0.701182591175D-04 0.000000000000D+00 0.000000000000D+00 0.222089967176D-02 0.000000000000D+00  5 -1 1 25 23 21 2 0.58218955D-03 0.56805795D+00 0.13988491D+05 0.13988491D+05 0.13988491D+05 0.12512940D+01  1  2 12  2  5  2        1 0.103461304773D-01 0.100000000000D+01
-.163431147788D-02 0.000000000000D+00 0.000000000000D+00 0.222089967176D-02 0.000000000000D+00  5 -1 1 25 23 21 2 0.58218955D-03 0.55085524D+00 0.13493892D+05 0.13493892D+05 0.13493892D+05 0.12530956D+01  1  2  4  2  5  2        1 -.294206028039D+00 0.100000000000D+01
-.917216922216D-02 0.000000000000D+00 -.116161483181D-02 0.222089967176D-02 0.000000000000D+00  5 -1 1 25 23 21 2 0.58218955D-03 0.56634405D+00 0.13493892D+05 0.13493892D+05 0.13493892D+05 0.12530956D+01  1  2  5  2  5  2        1 -.138492224287D+01 0.100000000000D+01
0.921812209002D-02 0.000000000000D+00 0.116875232937D-02 0.222089967176D-02 0.000000000000D+00  5 -1 1 25 23 21 2 0.58218955D-03 0.55085524D+00 0.13493892D+05 0.13493892D+05 0.13493892D+05 0.12530956D+01  1  2  6  2  5  2        1 0.165943097310D+01 0.100000000000D+01
0.157069681645D-02 0.000000000000D+00 0.000000000000D+00 0.222089967176D-02 0.106117861705D-02  5 -1 1 25 23 21 2 0.58993536D-03 0.56446356D+00 0.13988491D+05 0.13988491D+05 0.13988491D+05 0.12512940D+01  1  2 11  2  5  2        1 0.237054608888D+00 0.100000000000D+01
0.151371441655D-05 0.000000000000D+00 0.000000000000D+00 0.222089967176D-02 0.000000000000D+00  5 -1 21 25 23 -1 2 0.58218955D-03 0.56805795D+00 0.13988491D+05 0.13988491D+05 0.13988491D+05 0.12512940D+01  1  2 12  4  5  2        1 0.564460774893D-04 0.100000000000D+01
-.454426956753D-04 0.000000000000D+00 -.579608208000D-05 0.222089967176D-02 0.000000000000D+00  5 -1 21 25 23 -1 2 0.58218955D-03 0.56634405D+00 0.13493892D+05 0.13493892D+05 0.13493892D+05 0.12530956D+01  1  2  5  4  5  2        1 -.175803690493D-02 0.100000000000D+01
0.977195112465D-05 0.000000000000D+00 0.000000000000D+00 0.222089967176D-02 0.472068543475D-05  5 -1 21 25 23 -1 2 0.58993536D-03 0.56446356D+00 0.13988491D+05 0.13988491D+05 0.13988491D+05 0.12512940D+01  1  2 11  4  5  2        1 0.380693869016D-03 0.100000000000D+01
  </mgrwgt>
  </event>
  <event>
  5     66 0.43907321E-03 0.11379920E+03 0.75467711E-02 0.11700659E+00
       21 -1    0    0  502  501 0.00000000E+00 0.00000000E+00 0.16679791E+02 0.16696645E+02 0.75000000E+00 0.0000E+00 0.9000E+01
        1 -1    0    0  501    0 0.00000000E+00 0.00000000E+00 -.26130536E+04 0.26130536E+04 0.32000000E+00 0.0000E+00 0.9000E+01
       25  1    1    2    0    0 -.15851457E+02 -.63778843E+02 -.76834748E+03 0.78121819E+03 0.12500000E+03 0.0000E+00 0.9000E+01
       23  1    1    2    0    0 0.48786726E+02 -.35655740E+02 -.15044897E+04 0.15084614E+04 0.91188000E+02 0.0000E+00 0.9000E+01
        1  1    1    2  502    0 -.32935269E+02 0.99434584E+02 -.32353663E+03 0.34007061E+03 0.32000000E+00 0.0000E+00 0.9000E+01
#aMCatNLO 2  0  0  1  2 0.10474716D+03 0.00000000D+00  -5  5  0 0.00000000D+00 0.00000000D+00 0.00000000D+00 0.00000000D+00 0.00000000D+00
  <mgrwgt>
 0.7992463400D-01    2    2    0
 0.128327798218173D+03 0.000000000000000D+00 0.000000000000000D+00 0.128327798218173D+03
 0.128327798218173D+03 0.000000000000000D+00 0.000000000000000D+00 -.128327798218173D+03
 0.142568182525969D+03 -.340852829859782D+02 -.872925815357807D+01 0.588445426918406D+02
 0.114087413910378D+03 0.340852829859782D+02 0.872925815357807D+01 -.588445426918406D+02
 0.000000000000000D+00 -.000000000000000D+00 0.000000000000000D+00 0.000000000000000D+00
 0.274668669001036D+03 0.000000000000000D+00 0.000000000000000D+00 0.274668669001036D+03
 0.158763254291743D+03 0.000000000000000D+00 0.000000000000000D+00 -.158763254291743D+03
 0.152992449909265D+03 -.158514569945822D+02 -.637788431674338D+02 0.588445426918406D+02
 0.124215168217792D+03 0.487867260706811D+02 -.356557404363835D+02 -.588445426918406D+02
 0.156224305165722D+03 -.329352690760990D+02 0.994345836038173D+02 0.115905414709293D+03
-.201881570037D-06 0.000000000000D+00 0.000000000000D+00 0.166568234948D-02 0.000000000000D+00  5 21 1 25 23 1 2 0.25640281D-02 0.32494264D+00 0.31570709D+05 0.31570709D+05 0.31570709D+05 0.12125792D+01  1  2 13  3  5  1       -1 -.799281950980D-03 0.100000000000D+01
0.433357277326D-04 0.000000000000D+00 0.000000000000D+00 0.166568234948D-02 0.204968771101D-06  5 21 1 25 23 1 2 0.25674172D-02 0.40200916D+00 0.31570709D+05 0.31570709D+05 0.31570709D+05 0.12125792D+01  1  2  1  3  5  1       -1 0.807239159555D-01 0.100000000000D+01
  </mgrwgt>
  </event>
  <event>
  4     66 0.43907321E-03 0.91268773E+02 0.75467711E-02 0.12094529E+00
       -1 -1    0    0    0  501 0.00000000E+00 0.00000000E+00 0.13871838E+02 0.13875528E+02 0.32000000E+00 0.0000E+00 0.9000E+01
        1 -1    0    0  501    0 0.00000000E+00 0.00000000E+00 -.15789557E+04 0.15789558E+04 0.32000000E+00 0.0000E+00 0.9000E+01
       25  1    1    2    0    0 0.30120604E+02 0.84041316E+02 -.10954699E+04 0.11061869E+04 0.12500000E+03 0.0000E+00 0.9000E+01
       23  1    1    2    0    0 -.30120604E+02 -.84041316E+02 -.46961398E+03 0.48664436E+03 0.91188000E+02 0.0000E+00 0.9000E+01
#aMCatNLO 1  0  0  2  1 0.45976896D+01 0.00000000D+00  -5  5  0 0.00000000D+00 0.00000000D+00 0.00000000D+00 0.00000000D+00 0.00000000D+00
  <mgrwgt>
 0.9926713488D-01    8    2    0
 0.148006699369416D+03 0.000000000000000D+00 0.000000000000000D+00 0.148006699369416D+03
 0.148006699369416D+03 0.000000000000000D+00 0.000000000000000D+00 -.148006699369416D+03
 0.160353688875876D+03 0.301206038347434D+02 0.840413156632680D+02 -.460229510387884D+02
 0.135659709862956D+03 -.301206038347434D+02 -.840413156632680D+02 0.460229510387884D+02
 0.000000000000000D+00 0.000000000000000D+00 -.000000000000000D+00 0.000000000000000D+00
 0.150552699935883D+03 0.000000000000000D+00 0.000000000000000D+00 0.150552699935883D+03
 0.150114889953485D+03 0.000000000000000D+00 0.000000000000000D+00 -.150114889953485D+03
 0.161223257249565D+03 0.287801712318187D+02 0.861482930748355D+02 -.460229510387884D+02
 0.134825845067583D+03 -.312480716486446D+02 -.822690898825938D+02 0.460229510387884D+02
 0.461848757222043D+01 0.246790041682593D+01 -.387920319224172D+01 0.437809982397207D+00
0.289589948094D-03 0.000000000000D+00 0.000000000000D+00 0.160667519526D-02 0.000000000000D+00  5 -1 1 25 23 21 0 0.21344153D-02 0.24291655D+00 0.19771412D+05 0.19771412D+05 0.19771412D+05 0.12343760D+01  1  2  2  2  5  2        1 0.113271711041D+00 0.100000000000D+01
-.160369293079D-04 0.000000000000D+00 -.111210165146D-05 0.160667519526D-02 0.000000000000D+00  5 -1 1 25 23 21 2 0.21344153D-02 0.24291655D+00 0.19771412D+05 0.19771412D+05 0.19771412D+05 0.12343760D+01  1  2  3  2  5  2        1 -.955771671279D-02 0.100000000000D+01
0.200296763807D-04 0.000000000000D+00 0.000000000000D+00 0.160667519526D-02 0.000000000000D+00  5 -1 1 25 23 21 2 0.21344153D-02 0.24291655D+00 0.19771412D+05 0.19771412D+05 0.19771412D+05 0.12343760D+01  1  2 15  2  5  2        1 0.119373209808D-01 0.100000000000D+01
0.690747917013D-04 0.000000000000D+00 0.000000000000D+00 0.160667519526D-02 0.000000000000D+00  5 -1 1 25 23 21 2 0.21344153D-02 0.24843346D+00 0.20426147D+05 0.20426147D+05 0.20426147D+05 0.12328193D+01  1  2 12  2  5  2        1 0.389521415792D-01 0.100000000000D+01
-.934298084167D-03 0.000000000000D+00 0.000000000000D+00 0.160667519526D-02 0.000000000000D+00  5 -1 1 25 23 21 2 0.21344153D-02 0.24291655D+00 0.19771412D+05 0.19771412D+05 0.19771412D+05 0.12343760D+01  1  2  4  2  5  2        1 -.556824579214D+00 0.100000000000D+01
0.886315137208D-03 0.000000000000D+00 0.000000000000D+00 0.160667519526D-02 0.616233328528D-03  5 -1 1 25 23 21 2 0.21711314D-02 0.24637663D+00 0.20426147D+05 0.20426147D+05 0.20426147D+05 0.12328193D+01  1  2 11  2  5  2        1 0.497370947097D+00 0.100000000000D+01
0.171232759523D-05 0.000000000000D+00 0.000000000000D+00 0.160667519526D-02 0.000000000000D+00  5 -1 21 25 23 -1 2 0.21344153D-02 0.24843346D+00 0.20426147D+05 0.20426147D+05 0.20426147D+05 0.12328193D+01  1  2 12  4  5  2        1 0.991676912183D-03 0.100000000000D+01
0.538213988573D-05 0.000000000000D+00 0.000000000000D+00 0.160667519526D-02 0.160998729653D-05  5 -1 21 25 23 -1 2 0.21711314D-02 0.24637663D+00 0.20426147D+05 0.20426147D+05 0.20426147D+05 0.12328193D+01  1  2 11  4  5  2        1 0.312563319161D-02 0.100000000000D+01
  </mgrwgt>
  </event>
  <event>
  5     66 -.43907321E-03 0.11652636E+03 0.75467711E-02 0.12233745E+00
       21 -1    0    0  502  501 0.00000000E+00 0.00000000E+00 0.50295034E+01 0.50851160E+01 0.75000000E+00 0.0000E+00 0.9000E+01
        1 -1    0    0  501    0 0.00000000E+00 0.00000000E+00 -.39156860E+04 0.39156860E+04 0.32000000E+00 0.0000E+00 0.9000E+01
       25  1    1    2    0    0 0.40731450E+02 0.19876654E+02 -.24487679E+04 0.24523750E+04 0.12500000E+03 0.0000E+00 0.9000E+01
       23  1    1    2    0    0 -.44699069E+02 0.10395476E+02 -.12697018E+04 0.12737990E+04 0.91188000E+02 0.0000E+00 0.9000E+01
        1  1    1    2  502    0 0.39676191E+01 -.30272130E+02 -.19218680E+03 0.19459705E+03 0.32000000E+00 0.0000E+00 0.9000E+01
#aMCatNLO 2  0  0  1  2 0.30531031D+02 0.00000000D+00  -5  5  0 0.00000000D+00 0.00000000D+00 0.00000000D+00 0.00000000D+00 0.00000000D+00
  <mgrwgt>
 -.1172137083D-01    2    2    0
 0.118768924467789D+03 0.000000000000000D+00 0.000000000000000D+00 0.118768924467789D+03
 0.118768924467789D+03 0.000000000000000D+00 0.000000000000000D+00 -.118768924467789D+03
 0.134155416954682D+03 0.429692631965921D+02 0.280259547505454D+01 -.227697996747835D+02
 0.103382431980896D+03 -.429692631965921D+02 -.280259547505454D+01 0.227697996747835D+02
 0.000000000000000D+00 0.000000000000000D+00 -.000000000000000D+00 0.000000000000000D+00
 0.157206766584165D+03 0.000000000000000D+00 0.000000000000000D+00 0.157206766584165D+03
 0.125966746417921D+03 0.000000000000000D+00 0.000000000000000D+00 -.125966746417921D+03
 0.134898466280744D+03 0.407314503196964D+02 0.198766542084252D+02 -.227697996747835D+02
 0.104593440721691D+03 -.446990694362227D+02 0.103954755691044D+02 0.227697996747835D+02
 0.436816059996509D+02 0.396761911652631D+01 -.302721297775296D+02 0.312400201662438D+02
-.335990813048D-04 0.000000000000D+00 0.000000000000D+00 0.211261156181D-02 0.000000000000D+00  5 21 1 25 23 1 2 0.79156154D-03 0.56799242D+00 0.17633027D+05 0.17633027D+05 0.17633027D+05 0.12398942D+01  1  2 13  3  5  1       -1 -.756163434129D-01 0.100000000000D+01
0.415178471563D-04 0.000000000000D+00 0.000000000000D+00 0.211261156181D-02 0.774292201029D-06  5 21 1 25 23 1 2 0.77804515D-03 0.60241480D+00 0.17633027D+05 0.17633027D+05 0.17633027D+05 0.12398942D+01  1  2  1  3  5  1       -1 0.638949725868D-01 0.100000000000D+01
  </mgrwgt>
  </event>
  <event>
  4     66 0.43907321E-03 0.12268779E+03 0.75467711E-02 0.11848623E+00
       -1 -1    0    0    0  501 0.00000000E+00 0.00000000E+00 0.95840752E+02 0.95841286E+02 0.32000000E+00 0.0000E+00 0.9000E+01
        1 -1    0    0  501    0 0.00000000E+00 0.00000000E+00 -.25819941E+03 0.25819961E+03 0.32000000E+00 0.0000E+00 0.9000E+01
       25  1    1    2    0    0 -.96000410E+02 0.58829428E+02 -.69960352E+02 0.18219888E+03 0.12500000E+03 0.0000E+00 0.9000E+01
       23  1    1    2    0    0 0.96000410E+02 -.58829428E+02 -.92398308E+02 0.17184202E+03 0.91188000E+02 0.0000E+00 0.9000E+01
#aMCatNLO 1  0  0  2  1 0.13483398D+02 0.00000000D+00  -5  5  0 0.00000000D+00 0.00000000D+00 0.00000000D+00 0.00000000D+00 0.00000000D+00
  <mgrwgt>
 0.1606959062D+00    9    2    0
 0.157309107767598D+03 0.000000000000000D+00 0.000000000000000D+00 0.157309107767598D+03
 0.157309107767598D+03 0.000000000000000D+00 0.000000000000000D+00 -.157309107767598D+03
 0.168925963205491D+03 -.960004104850574D+02 0.588294278261673D+02 0.152970798928761D+02
 0.145692252329706D+03 0.960004104850574D+02 -.588294278261673D+02 -.152970798928761D+02
 0.000000000000000D+00 0.000000000000000D+00 -.000000000000000D+00 -.000000000000000D+00
 0.161671029392716D+03 0.000000000000000D+00 0.000000000000000D+00 0.161671029392716D+03
 0.168230085409318D+03 0.000000000000000D+00 0.000000000000000D+00 -.168230085409318D+03
 0.171754638762757D+03 -.962738405906002D+02 0.661211229578856D+02 0.152970798928761D+02
 0.143152369058404D+03 0.957685839153750D+02 -.526471946510746D+02 -.152970798928761D+02
 0.149941069808734D+02 0.505256675225164D+00 -.134739283068110D+02 -.655905601660290D+01
0.262681502040D-03 0.000000000000D+00 0.000000000000D+00 0.165434186702D-02 0.000000000000D+00  5 -1 1 25 23 21 0 0.14744787D-01 0.39723043D-01 0.24510859D+05 0.24510859D+05 0.24510859D+05 0.12242188D+01  1  2  2  2  5  2        1 0.894544946386D-01 0.100000000000D+01
-.145930118886D-04 0.000000000000D+00 -.100876613346D-05 0.165434186702D-02 0.000000000000D+00  5 -1 1 25 23 21 2 0.14744787D-01 0.39723043D-01 0.24510859D+05 0.24510859D+05 0.24510859D+05 0.12242188D+01  1  2  3  2  5  2        1 -.744793140736D-02 0.100000000000D+01
0.181204727262D-04 0.000000000000D+00 0.000000000000D+00 0.165434186702D-02 0.000000000000D+00  5 -1 1 25 23 21 2 0.14744787D-01 0.39723043D-01 0.24510859D+05 0.24510859D+05 0.24510859D+05 0.12242188D+01  1  2 15  2  5  2        1 0.924826478341D-02 0.100000000000D+01
0.868061227897D-03 0.000000000000D+00 0.000000000000D+00 0.165434186702D-02 0.000000000000D+00  5 -1 1 25 23 21 2 0.14744787D-01 0.43003826D-01 0.26713971D+05 0.26713971D+05 0.26713971D+05 0.12202221D+01  1  2 12  2  5  2        1 0.399600084371D+00 0.100000000000D+01
-.839654595223D-03 0.000000000000D+00 0.000000000000D+00 0.165434186702D-02 0.000000000000D+00  5 -1 1 25 23 21 2 0.14744787D-01 0.39723043D-01 0.24510859D+05 0.24510859D+05 0.24510859D+05 0.12242188D+01  1  2  4  2  5  2        1 -.428540035383D+00 0.100000000000D+01
-.257130774816D-02 0.000000000000D+00 -.442103533720D-03 0.165434186702D-02 0.000000000000D+00  5 -1 1 25 23 21 2 0.14744787D-01 0.43503444D-01 0.24510859D+05 0.24510859D+05 0.24510859D+05 0.12242188D+01  1  2  5  2  5  2        1 -.117233022761D+01 0.100000000000D+01
0.260255769738D-02 0.000000000000D+00 0.440282946713D-03 0.165434186702D-02 0.000000000000D+00  5 -1 1 25 23 21 2 0.14744787D-01 0.39723043D-01 0.24510859D+05 0.24510859D+05 0.24510859D+05 0.12242188D+01  1  2  6  2  5  2        1 0.132828448039D+01 0.100000000000D+01
0.116493813177D-04 0.000000000000D+00 0.000000000000D+00 0.165434186702D-02 0.000000000000D+00  5 -1 21 25 23 -1 2 0.14744787D-01 0.43003826D-01 0.26713971D+05 0.26713971D+05 0.26713971D+05 0.12202221D+01  1  2 12  4  5  2        1 0.268735036089D-01 0.100000000000D+01
-.372229722695D-04 0.000000000000D+00 -.660970360646D-05 0.165434186702D-02 0.000000000000D+00  5 -1 21 25 23 -1 2 0.14744787D-01 0.43503444D-01 0.24510859D+05 0.24510859D+05 0.24510859D+05 0.12242188D+01  1  2  5  4  5  2        1 -.844467272085D-01 0.100000000000D+01
  </mgrwgt>
  </event>
  <event>
  4     66 0.43907321E-03 0.11408461E+03 0.75467711E-02 0.12121246E+00
       -3 -1    0    0    0  501 0.00000000E+00 0.00000000E+00 0.29576185E+03 0.29576227E+03 0.50000000E+00 0.0000E+00 0.9000E+01
        3 -1    0    0  501    0 0.00000000E+00 0.00000000E+00 -.44468688E+02 0.44471499E+02 0.50000000E+00 0.0000E+00 0.9000E+01
       25  1    1    2    0    0 -.94579554E+00 -.36067474E+02 0.12588744E+03 0.18103703E+03 0.12500000E+03 0.0000E+00 0.9000E+01
       23  1    1    2    0    0 0.94579554E+00 0.36067474E+02 0.12540572E+03 0.15919674E+03 0.91188000E+02 0.0000E+00 0.9000E+01
#aMCatNLO 1  0  0  1  1 0.48526352D+02 0.00000000D+00  -5  5  0 0.00000000D+00 0.00000000D+00 0.00000000D+00 0.00000000D+00 0.00000000D+00
  <mgrwgt>
 0.2011866466D-01    4    2    0
 0.114685183595380D+03 0.000000000000000D+00 0.000000000000000D+00 0.114685183595380D+03
 0.114685183595380D+03 0.000000000000000D+00 0.000000000000000D+00 -.114685183595380D+03
 0.130619562446334D+03 -.945795543586284D+00 -.360674737845504D+02 -.116065886143239D+02
 0.987508047444255D+02 0.945795543586284D+00 0.360674737845504D+02 0.116065886143239D+02
 0.000000000000000D+00 -.000000000000000D+00 0.000000000000000D+00 -.000000000000000D+00
 0.135091527267587D+03 0.000000000000000D+00 0.000000000000000D+00 0.135091527267587D+03
 0.150171248707864D+03 0.000000000000000D+00 0.000000000000000D+00 -.150171248707864D+03
 0.133855382940853D+03 0.266541047921733D+02 -.380408903774342D+02 -.116065886143239D+02
 0.100591993248249D+03 0.217486785886879D+02 0.345800497691876D+02 0.116065886143239D+02
 0.508153997863502D+02 -.484027833808612D+02 0.346084060824661D+01 -.150797214402764D+02
0.208599937942D-03 0.000000000000D+00 0.000000000000D+00 0.225414583504D-02 0.000000000000D+00  5 -3 3 25 23 21 0 0.45502071D-01 0.68415853D-02 0.13015298D+05 0.13015298D+05 0.13015298D+05 0.12549111D+01  1  2  2  1  5  1       -3 0.308927498342D-01 0.100000000000D+01
-.115884970040D-04 0.000000000000D+00 -.801078687324D-06 0.225414583504D-02 0.000000000000D+00  5 -3 3 25 23 21 2 0.45502071D-01 0.68415853D-02 0.13015298D+05 0.13015298D+05 0.13015298D+05 0.12549111D+01  1  2  3  1  5  1       -3 -.270268481442D-02 0.100000000000D+01
0.144071836685D-04 0.000000000000D+00 0.000000000000D+00 0.225414583504D-02 0.000000000000D+00  5 -3 3 25 23 21 2 0.45502071D-01 0.68415853D-02 0.13015298D+05 0.13015298D+05 0.13015298D+05 0.12549111D+01  1  2 15  1  5  1       -3 0.336006269890D-02 0.100000000000D+01
-.490155103254D-04 0.000000000000D+00 0.000000000000D+00 0.225414583504D-02 0.000000000000D+00  5 -3 3 25 23 21 2 0.45502071D-01 0.68415853D-02 0.13015298D+05 0.13015298D+05 0.13015298D+05 0.12549111D+01  1  2  4  1  5  1       -3 -.114314630604D-01 0.100000000000D+01
  </mgrwgt>
  </event>
  <event>
  5     66 0.43907321E-03 0.16966838E+03 0.75467711E-02 0.11635058E+00
       -1 -1    0    0    0  501 0.00000000E+00 0.00000000E+00 0.42949249E+02 0.42950442E+02 0.32000000E+00 0.0000E+00 0.9000E+01
        1 -1    0    0  502    0 0.00000000E+00 0.00000000E+00 -.88421061E+03 0.88421067E+03 0.32000000E+00 0.0000E+00 0.9000E+01
       25  1    1    2    0    0 0.18289240E+02 0.11423639E+03 -.25302544E+03 0.30501036E+03 0.12500000E+03 0.0000E+00 0.9000E+01
       23  1    1    2    0    0 -.27353782E+02 -.14117775E+03 -.53941116E+03 0.56564922E+03 0.91188000E+02 0.0000E+00 0.9000E+01
       21  1    1    2  502  501 0.90645418E+01 0.26941364E+02 -.48824757E+02 0.56501526E+02 0.75000000E+00 0.0000E+00 0.9000E+01
#aMCatNLO 2  0  0  2  1 0.28425394D+02 0.00000000D+00  -5  5  0 0.00000000D+00 0.00000000D+00 0.00000000D+00 0.00000000D+00 0.00000000D+00
  <mgrwgt>
 0.1229904446D+00    1    2    0
 0.179780655776056D+03 0.000000000000000D+00 0.000000000000000D+00 0.179780655776056D+03
 0.179780655776056D+03 0.000000000000000D+00 0.000000000000000D+00 -.179780655776056D+03
 0.189945471095655D+03 0.229496969411661D+02 0.128088059612634D+03 0.593383719420160D+02
 0.169615840456457D+03 -.229496969411661D+02 -.128088059612634D+03 -.593383719420160D+02
 0.000000000000000D+00 0.000000000000000D+00 0.000000000000000D+00 0.000000000000000D+00
 0.198035296691885D+03 0.000000000000000D+00 0.000000000000000D+00 0.198035296691885D+03
 0.191758102417527D+03 0.000000000000000D+00 0.000000000000000D+00 -.191758102417527D+03
 0.180362109460579D+03 0.182892396918341D+02 0.114236385866480D+03 0.593383719420160D+02
 0.180321047602658D+03 -.273537815248899D+02 -.141177750074435D+03 -.593383719420160D+02
 0.291102420461752D+02 0.906454183305583D+01 0.269413642079545D+02 0.627719427435833D+01
0.373236931513D-03 0.000000000000D+00 0.000000000000D+00 0.139017300735D-02 0.134589971889D-04  5 -1 1 25 23 21 2 0.66075087D-02 0.13602911D+00 0.34044884D+05 0.34044884D+05 0.34044884D+05 0.12091752D+01  1  2  1  2  5  2        1 0.122990444621D+00 0.100000000000D+01
  </mgrwgt>
  </event>
  <event>
  4     66 0.43907321E-03 0.13224885E+03 0.75467711E-02 0.12109678E+00
       -1 -1    0    0    0  501 0.00000000E+00 0.00000000E+00 0.11398472E+02 0.11402963E+02 0.32000000E+00 0.0000E+00 0.9000E+01
        1 -1    0    0  501    0 0.00000000E+00 0.00000000E+00 -.17018093E+04 0.17018093E+04 0.32000000E+00 0.0000E+00 0.9000E+01
       25  1    1    2    0    0 -.39941350E+02 0.64150313E+02 -.65722318E+03 0.67325915E+03 0.12500000E+03 0.0000E+00 0.9000E+01
       23  1    1    2    0    0 0.39941350E+02 -.64150313E+02 -.10331876E+04 0.10399531E+04 0.91188000E+02 0.0000E+00 0.9000E+01
#aMCatNLO 1  0  0  2  1 0.18522563D+02 0.00000000D+00  -5  5  0 0.00000000D+00 0.00000000D+00 0.00000000D+00 0.00000000D+00 0.00000000D+00
  <mgrwgt>
 0.7618759348D-01    4    2    0
 0.139290697589731D+03 0.000000000000000D+00 0.000000000000000D+00 0.139290697589731D+03
 0.139290697589731D+03 0.000000000000000D+00 0.000000000000000D+00 -.139290697589731D+03
 0.152410289892891D+03 -.399413498531353D+02 0.641503131930848D+02 0.435123241665352D+02
 0.126171105286571D+03 0.399413498531353D+02 -.641503131930848D+02 -.435123241665352D+02
 0.000000000000000D+00 0.000000000000000D+00 -.000000000000000D+00 0.000000000000000D+00
 0.160210162138380D+03 0.000000000000000D+00 0.000000000000000D+00 0.160210162138380D+03
 0.143759493891216D+03 0.000000000000000D+00 0.000000000000000D+00 -.143759493891216D+03
 0.157691045653637D+03 -.468531029243360D+02 0.717839137364722D+02 0.435123241665352D+02
 0.121505442670484D+03 0.344209636284532D+02 -.580533906250566D+02 -.435123241665352D+02
 0.247731677054748D+02 0.124321392958829D+02 -.137305231114156D+02 0.164506682471633D+02
0.318550825915D-03 0.000000000000D+00 0.000000000000D+00 0.169291899745D-02 0.000000000000D+00  5 -1 1 25 23 21 0 0.17539589D-02 0.26181716D+00 0.17489758D+05 0.17489758D+05 0.17489758D+05 0.12402904D+01  1  2  2  2  5  2        1 0.137758348089D+00 0.100000000000D+01
-.176393586163D-04 0.000000000000D+00 -.122331904787D-05 0.169291899745D-02 0.000000000000D+00  5 -1 1 25 23 21 2 0.17539589D-02 0.26181716D+00 0.17489758D+05 0.17489758D+05 0.17489758D+05 0.12402904D+01  1  2  3  2  5  2        1 -.117346131767D-01 0.100000000000D+01
0.220467918676D-04 0.000000000000D+00 0.000000000000D+00 0.169291899745D-02 0.000000000000D+00  5 -1 1 25 23 21 2 0.17539589D-02 0.26181716D+00 0.17489758D+05 0.17489758D+05 0.17489758D+05 0.12402904D+01  1  2 15  2  5  2        1 0.146666656073D-01 0.100000000000D+01
-.969600043897D-04 0.000000000000D+00 0.000000000000D+00 0.169291899745D-02 0.000000000000D+00  5 -1 1 25 23 21 2 0.17539589D-02 0.26181716D+00 0.17489758D+05 0.17489758D+05 0.17489758D+05 0.12402904D+01  1  2  4  2  5  2        1 -.645028070391D-01 0.100000000000D+01
  </mgrwgt>
  </event>
  <event>
  4     66 0.43907321E-03 0.10918492E+03 0.75467711E-02 0.11888475E+00
       -3 -1    0    0    0  501 0.00000000E+00 0.00000000E+00 0.54995481E+02 0.54997754E+02 0.50000000E+00 0.0000E+00 0.9000E+01
        3 -1    0    0  501    0 0.00000000E+00 0.00000000E+00 -.22589852E+03 0.22589907E+03 0.50000000E+00 0.0000E+00 0.9000E+01
       25  1    1    2    0    0 -.10149657E+02 0.11328535E+02 -.70096387E+02 0.14411750E+03 0.12500000E+03 0.0000E+00 0.9000E+01
       23  1    1    2    0    0 0.10149657E+02 -.11328535E+02 -.10080665E+03 0.13677933E+03 0.91188000E+02 0.0000E+00 0.9000E+01
#aMCatNLO 1  0  0  2  1 0.85301453D+02 0.00000000D+00  -5  5  0 0.00000000D+00 0.00000000D+00 0.00000000D+00 0.00000000D+00 0.00000000D+00
  <mgrwgt>
 0.3527849995D-01    3    2    0
 0.111462077896041D+03 0.000000000000000D+00 0.000000000000000D+00 0.111462077896041D+03
 0.111462077896041D+03 0.000000000000000D+00 0.000000000000000D+00 -.111462077896041D+03
 0.127857225003422D+03 -.101496568747920D+02 0.113285350834003D+02 0.221611990597052D+02
 0.950669307886592D+02 0.101496568747920D+02 -.113285350834003D+02 -.221611990597052D+02
 0.000000000000000D+00 -.000000000000000D+00 -.000000000000000D+00 0.000000000000000D+00
 0.694027423094981D+03 0.000000000000000D+00 0.000000000000000D+00 0.694027423094981D+03
 0.122508900125961D+03 0.000000000000000D+00 0.000000000000000D+00 -.122508900125961D+03
 0.137601988984070D+03 0.221581592074554D+02 0.482411091201810D+02 0.221611990597052D+02
 0.101085080527120D+03 0.340224131093966D+02 0.159467496256787D+02 -.221611990597052D+02
 0.577849253709752D+03 -.561805723168521D+02 -.641878587458597D+02 0.571518522969020D+03
0.197638946148D-03 0.000000000000D+00 0.000000000000D+00 0.229419527953D-02 0.000000000000D+00  5 -3 3 25 23 21 0 0.84610607D-02 0.34753836D-01 0.11921347D+05 0.11921347D+05 0.11921347D+05 0.12593590D+01  1  2  2  2  5  2        3 0.345532172465D-01 0.100000000000D+01
-.109742534175D-04 0.000000000000D+00 -.758985592739D-06 0.229419527953D-02 0.000000000000D+00  5 -3 3 25 23 21 2 0.84610607D-02 0.34753836D-01 0.11921347D+05 0.11921347D+05 0.11921347D+05 0.12593590D+01  1  2  3  2  5  2        3 -.304291635819D-02 0.100000000000D+01
0.135899796782D-04 0.000000000000D+00 0.000000000000D+00 0.229419527953D-02 0.000000000000D+00  5 -3 3 25 23 21 2 0.84610607D-02 0.34753836D-01 0.11921347D+05 0.11921347D+05 0.11921347D+05 0.12593590D+01  1  2 15  2  5  2        3 0.376819906530D-02 0.100000000000D+01
  </mgrwgt>
  </event>
  <event>
  5     66 0.43907321E-03 0.12198159E+03 0.75467711E-02 0.11806417E+00
       -3 -1    0    0    0  501 0.00000000E+00 0.00000000E+00 0.19991796E+02 0.19998047E+02 0.50000000E+00 0.0000E+00 0.9000E+01
       21 -1    0    0  501  502 0.00000000E+00 0.00000000E+00 -.16666737E+04 0.16666739E+04 0.75000000E+00 0.0000E+00 0.9000E+01
       25  1    1    2    0    0 -.30418226E+02 0.86913496E+02 -.43722037E+03 0.46396754E+03 0.12500000E+03 0.0000E+00 0.9000E+01
       23  1    1    2    0    0 -.26915428E+02 -.32724269E+02 -.66752442E+03 0.67505513E+03 0.91188000E+02 0.0000E+00 0.9000E+01
       -3  1    1    2    0  502 0.57333654E+02 -.54189227E+02 -.54193713E+03 0.54764927E+03 0.50000000E+00 0.0000E+00 0.9000E+01
#aMCatNLO 2  0  0  2  1 0.78889925D+02 0.00000000D+00  -5  5  0 0.00000000D+00 0.00000000D+00 0.00000000D+00 0.00000000D+00 0.00000000D+00
  <mgrwgt>
 0.1966820218D-02    2    2    0
 0.132936031279515D+03 0.000000000000000D+00 0.000000000000000D+00 0.132936031279515D+03
 0.132936031279515D+03 0.000000000000000D+00 0.000000000000000D+00 -.132936031279515D+03
 0.146682772072142D+03 0.236243238219820D+01 0.559306715517060D+02 0.525072805978616D+02
 0.119189290486888D+03 -.236243238219820D+01 -.559306715517060D+02 -.525072805978616D+02
 0.000000000000000D+00 0.000000000000000D+00 -.000000000000000D+00 -.000000000000000D+00
 0.161771421864947D+03 0.000000000000000D+00 0.000000000000000D+00 0.161771421864947D+03
 0.206000224769617D+03 0.000000000000000D+00 0.000000000000000D+00 -.206000224769617D+03
 0.163893986652926D+03 -.304182263147005D+02 0.869134963804504D+02 0.525072805978616D+02
 0.113435373261004D+03 -.269154277128980D+02 -.327242692525349D+02 -.525072805978616D+02
 0.904422867206339D+02 0.573336540275985D+02 -.541892271279155D+02 -.442288029046703D+02
-.180345687628D-05 0.000000000000D+00 0.000000000000D+00 0.168358692194D-02 0.000000000000D+00  5 -3 21 25 23 -3 2 0.25278270D-02 0.26638188D+00 0.28005454D+05 0.28005454D+05 0.28005454D+05 0.12180468D+01  1  2 13  4  5  2        3 -.472234239337D-03 0.100000000000D+01
0.110553590117D-04 0.000000000000D+00 0.000000000000D+00 0.168358692194D-02 0.172920441136D-06  5 -3 21 25 23 -3 2 0.30761425D-02 0.25641081D+00 0.28005454D+05 0.28005454D+05 0.28005454D+05 0.12180468D+01  1  2  1  4  5  2        3 0.243905445717D-02 0.100000000000D+01
  </mgrwgt>
  </event>
  <event>
  4     66 0.43907321E-03 0.11239036E+03 0.75467711E-02 0.10367904E+00
       -1 -1    0    0    0  501 0.00000000E+00 0.00000000E+00 0.16799477E+02 0.16802524E+02 0.32000000E+00 0.0000E+00 0.9000E+01
        1 -1    0    0  501    0 0.00000000E+00 0.00000000E+00 -.10794167E+04 0.10794167E+04 0.32000000E+00 0.0000E+00 0.9000E+01
       25  1    1    2    0    0 -.17405726E+02 0.24957714E+02 -.88458678E+03 0.89389296E+03 0.12500000E+03 0.0000E+00 0.9000E+01
       23  1    1    2    0    0 0.17405726E+02 -.24957714E+02 -.17803042E+03 0.20232629E+03 0.91188000E+02 0.0000E+00 0.9000E+01
#aMCatNLO 1  0  0  2  2 0.39175402D+03 0.00000000D+00  -5  5  0 0.00000000D+00 0.00000000D+00 0.00000000D+00 0.00000000D+00 0.00000000D+00
  <mgrwgt>
 0.1595717204D+00    5    2    0
 0.134667486587823D+03 0.000000000000000D+00 0.000000000000000D+00 0.134667486587823D+03
 0.134667486587823D+03 0.000000000000000D+00 0.000000000000000D+00 -.134667486587823D+03
 0.148237481917084D+03 -.174057261919750D+02 0.249577135794179D+02 -.736444449618266D+02
 0.121097491258563D+03 0.174057261919750D+02 -.249577135794179D+02 0.736444449618266D+02
 0.000000000000000D+00 0.000000000000000D+00 -.000000000000000D+00 -.000000000000000D+00
 0.418557385619941D+03 0.000000000000000D+00 0.000000000000000D+00 0.418557385619941D+03
 0.449852395833231D+03 0.000000000000000D+00 0.000000000000000D+00 -.449852395833231D+03
 0.301069953662612D+03 -.225992907832237D+03 0.136094887244899D+03 -.736444449618266D+02
 0.174337806745800D+03 -.119747615346373D+03 0.481188514208070D+02 0.736444449618266D+02
 0.393002021044760D+03 0.345740523178610D+03 -.184213738665706D+03 -.312950102132897D+02
0.245489926971D-03 0.000000000000D+00 0.000000000000D+00 0.144741991253D-02 0.000000000000D+00  5 -1 1 25 23 21 0 0.25847730D-02 0.16606434D+00 0.12631594D+05 0.12631594D+05 0.12631594D+05 0.12564216D+01  1  2  2  2  5  2        1 0.155529857283D+00 0.100000000000D+01
-.130960962327D-04 0.000000000000D+00 -.942745958551D-06 0.144741991253D-02 0.000000000000D+00  5 -1 1 25 23 21 2 0.25847730D-02 0.16606434D+00 0.12631594D+05 0.12631594D+05 0.12631594D+05 0.12564216D+01  1  2  3  2  5  2        1 -.130976314386D-01 0.100000000000D+01
0.168891805868D-04 0.000000000000D+00 0.000000000000D+00 0.144741991253D-02 0.000000000000D+00  5 -1 1 25 23 21 2 0.25847730D-02 0.16606434D+00 0.12631594D+05 0.12631594D+05 0.12631594D+05 0.12564216D+01  1  2 15  2  5  2        1 0.168911604416D-01 0.100000000000D+01
0.148481357922D-03 0.000000000000D+00 -.940288656222D-04 0.144741991253D-02 0.000000000000D+00  5 -1 1 25 23 21 2 0.25847730D-02 0.74427705D+00 0.12631594D+05 0.12631594D+05 0.12631594D+05 0.12564216D+01  1  2  5  2  5  2        1 0.244600842838D-03 0.100000000000D+01
0.261656628059D-04 0.000000000000D+00 -.170480184235D-04 0.144741991253D-02 0.000000000000D+00  5 -1 21 25 23 -1 2 0.25847730D-02 0.74427705D+00 0.12631594D+05 0.12631594D+05 0.12631594D+05 0.12564216D+01  1  2  5  4  5  2        1 0.373325995145D-05 0.100000000000D+01
  </mgrwgt>
  </event>
  <event>
  4     66 0.43907321E-03 0.10201086E+03 0.75467711E-02 0.12608208E+00
       -1 -1    0    0    0  501 0.00000000E+00 0.00000000E+00 0.77053961E+02 0.77054625E+02 0.32000000E+00 0.0000E+00 0.9000E+01
        1 -1    0    0  501    0 0.00000000E+00 0.00000000E+00 -.17468766E+03 0.17468795E+03 0.32000000E+00 0.0000E+00 0.9000E+01
       25  1    1    2    0    0 0.18821912E+02 0.97910849E+00 -.95794587E+02 0.15860904E+03 0.12500000E+03 0.0000E+00 0.9000E+01
       23  1    1    2    0    0 -.18821912E+02 -.97910849E+00 -.18391109E+01 0.93133542E+02 0.91188000E+02 0.0000E+00 0.9000E+01
#aMCatNLO 1  0  0  2  2 0.20109246D+00 0.00000000D+00  -5  5  0 0.00000000D+00 0.00000000D+00 0.00000000D+00 0.00000000D+00 0.00000000D+00
  <mgrwgt>
 0.4423632095D-01    9    2    0
 0.116019380094909D+03 0.000000000000000D+00 0.000000000000000D+00 0.116019380094909D+03
 0.116019380094909D+03 0.000000000000000D+00 0.000000000000000D+00 -.116019380094909D+03
 0.131770517211011D+03 0.188219121808719D+02 0.979108494697716D+00 -.371920176176070D+02
 0.100268242978808D+03 -.188219121808719D+02 -.979108494697716D+00 0.371920176176070D+02
 0.000000000000000D+00 -.000000000000000D+00 0.000000000000000D+00 -.000000000000000D+00
 0.116064367847172D+03 0.000000000000000D+00 0.000000000000000D+00 0.116064367847172D+03
 0.116244359195254D+03 0.000000000000000D+00 0.000000000000000D+00 -.116244359195254D+03
 0.131778678080284D+03 0.188836971451743D+02 0.883065257043290D+00 -.371920176176070D+02
 0.100260169246200D+03 -.187749014481043D+02 -.105218554557053D+01 0.371920176176070D+02
 0.269879715941312D+00 -.108795697070021D+00 0.169120288527242D+00 -.179991348081161D+00
0.676260797249D-04 0.000000000000D+00 0.000000000000D+00 0.206854328535D-02 0.000000000000D+00  5 -1 1 25 23 21 0 0.11854529D-01 0.26875098D-01 0.12048167D+05 0.12048167D+05 0.12048167D+05 0.12588203D+01  1  2  2  2  5  2        1 0.513190007900D-01 0.100000000000D+01
-.374297279191D-05 0.000000000000D+00 -.259701952500D-06 0.206854328535D-02 0.000000000000D+00  5 -1 1 25 23 21 2 0.11854529D-01 0.26875098D-01 0.12048167D+05 0.12048167D+05 0.12048167D+05 0.12588203D+01  1  2  3  2  5  2        1 -.450099052557D-02 0.100000000000D+01
0.464206501599D-05 0.000000000000D+00 0.000000000000D+00 0.206854328535D-02 0.000000000000D+00  5 -1 1 25 23 21 2 0.11854529D-01 0.26875098D-01 0.12048167D+05 0.12048167D+05 0.12048167D+05 0.12588203D+01  1  2 15  2  5  2        1 0.558216471709D-02 0.100000000000D+01
-.145369675742D-01 0.000000000000D+00 0.000000000000D+00 0.206854328535D-02 0.000000000000D+00  5 -1 1 25 23 21 2 0.11854529D-01 0.26875098D-01 0.12048167D+05 0.12048167D+05 0.12048167D+05 0.12588203D+01  1  2  4  2  5  2        1 -.174809588420D+02 0.100000000000D+01
-.632469035256D-01 0.000000000000D+00 -.440129962053D-02 0.206854328535D-02 0.000000000000D+00  5 -1 1 25 23 21 2 0.11854529D-01 0.26936187D-01 0.12048167D+05 0.12048167D+05 0.12048167D+05 0.12588203D+01  1  2  5  2  5  2        1 -.758412560559D+02 0.100000000000D+01
0.632567448486D-01 0.000000000000D+00 0.440128827612D-02 0.206854328535D-02 0.000000000000D+00  5 -1 1 25 23 21 2 0.11854529D-01 0.26875098D-01 0.12048167D+05 0.12048167D+05 0.12048167D+05 0.12588203D+01  1  2  6  2  5  2        1 0.760673467510D+02 0.100000000000D+01
0.145369975785D-01 0.000000000000D+00 0.000000000000D+00 0.206854328535D-02 0.432250910017D+00  5 -1 1 25 23 21 2 0.11859126D-01 0.26927213D-01 0.12070230D+05 0.12070230D+05 0.12070230D+05 0.12587272D+01  1  2 11  2  5  2        1 0.174272901076D+02 0.100000000000D+01
-.268250997174D-04 0.000000000000D+00 -.186732687502D-05 0.206854328535D-02 0.000000000000D+00  5 -1 21 25 23 -1 2 0.11854529D-01 0.26936187D-01 0.12048167D+05 0.12048167D+05 0.12048167D+05 0.12588203D+01  1  2  5  4  5  2        1 -.229713379937D+00 0.100000000000D+01
0.573735804677D-05 0.000000000000D+00 0.000000000000D+00 0.206854328535D-02 0.156580225412D-03  5 -1 21 25 23 -1 2 0.11859126D-01 0.26927213D-01 0.12070230D+05 0.12070230D+05 0.12070230D+05 0.12587272D+01  1  2 11  4  5  2        1 0.491275653157D-01 0.100000000000D+01
  </mgrwgt>
  </event>
  <event>
  4     66 0.43907321E-03 0.14177771E+03 0.75467711E-02 0.10814399E+00
       -1 -1    0    0    0  501 0.00000000E+00 0.00000000E+00 0.25193801E+03 0.25193822E+03 0.32000000E+00 0.0000E+00 0.9000E+01
        1 -1    0    0  501    0 0.00000000E+00 0.00000000E+00 -.81088546E+02 0.81089178E+02 0.32000000E+00 0.0000E+00 0.9000E+01
       25  1    1    2    0    0 0.25371111E+02 0.87482793E+02 0.72036989E+02 0.17062022E+03 0.12500000E+03 0.0000E+00 0.9000E+01
       23  1    1    2    0    0 -.25371111E+02 -.87482793E+02 0.98812478E+02 0.16240717E+03 0.91188000E+02 0.0000E+00 0.9000E+01
#aMCatNLO 1  0  0  1  1 0.24254044D+03 0.00000000D+00  -5  5  0 0.00000000D+00 0.00000000D+00 0.00000000D+00 0.00000000D+00 0.00000000D+00
  <mgrwgt>
 0.1205151949D+00    5    2    0
 0.142931543813124D+03 0.000000000000000D+00 0.000000000000000D+00 0.142931543813124D+03
 0.142931543813124D+03 0.000000000000000D+00 0.000000000000000D+00 -.142931543813124D+03
 0.155716945238503D+03 0.253711108865440D+02 0.874827932583846D+02 -.180508905737210D+02
 0.130146142387744D+03 -.253711108865440D+02 -.874827932583846D+02 0.180508905737210D+02
 0.000000000000000D+00 0.000000000000000D+00 -.000000000000000D+00 0.000000000000000D+00
 0.173086647254578D+04 0.000000000000000D+00 0.000000000000000D+00 0.173086647254578D+04
 0.196974193278371D+03 0.000000000000000D+00 0.000000000000000D+00 -.196974193278371D+03
 0.251409606238038D+03 -.628634004754082D+02 0.208096488050445D+03 -.180508905737210D+02
 0.123481804369907D+03 -.803386335615814D+02 -.123439853127500D+02 0.180508905737210D+02
 0.155294925521621D+04 0.143202034036990D+03 -.195752502737695D+03 0.153389227926741D+04
0.396898313523D-03 0.000000000000D+00 0.000000000000D+00 0.177243955339D-02 0.000000000000D+00  5 -1 1 25 23 21 0 0.38759759D-01 0.12475225D-01 0.20100920D+05 0.20100920D+05 0.20100920D+05 0.12335855D+01  1  2  2  1  5  1       -1 0.119360226228D+00 0.100000000000D+01
-.220481450055D-04 0.000000000000D+00 -.152419402966D-05 0.177243955339D-02 0.000000000000D+00  5 -1 1 25 23 21 2 0.38759759D-01 0.12475225D-01 0.20100920D+05 0.20100920D+05 0.20100920D+05 0.12335855D+01  1  2  3  1  5  1       -1 -.100899943606D-01 0.100000000000D+01
0.274141487727D-04 0.000000000000D+00 0.000000000000D+00 0.177243955339D-02 0.000000000000D+00  5 -1 1 25 23 21 2 0.38759759D-01 0.12475225D-01 0.20100920D+05 0.20100920D+05 0.20100920D+05 0.12335855D+01  1  2 15  1  5  1       -1 0.125456634310D-01 0.100000000000D+01
-.188084811784D-02 0.000000000000D+00 -.326017134874D-03 0.177243955339D-02 0.000000000000D+00  5 -1 1 25 23 21 2 0.49865874D+00 0.12475225D-01 0.20100920D+05 0.20100920D+05 0.20100920D+05 0.12335855D+01  1  2  5  1  5  1       -1 -.277227879410D-03 0.100000000000D+01
-.618989151033D-03 0.000000000000D+00 -.960078248247D-04 0.177243955339D-02 0.000000000000D+00  5 21 1 25 23 1 2 0.49865874D+00 0.12475225D-01 0.20100920D+05 0.20100920D+05 0.20100920D+05 0.12335855D+01  1  2  5  3  5  1       -1 -.102347247681D-02 0.100000000000D+01
  </mgrwgt>
  </event>
  <event>
  4     66 0.43907321E-03 0.14956506E+03 0.75467711E-02 0.10226294E+00
       -1 -1    0    0    0  501 0.00000000E+00 0.00000000E+00 0.89532384E+03 0.89532390E+03 0.32000000E+00 0.0000E+00 0.9000E+01
        1 -1    0    0  501    0 0.00000000E+00 0.00000000E+00 -.47250378E+02 0.47251461E+02 0.32000000E+00 0.0000E+00 0.9000E+01
       25  1    1    2    0    0 0.66747079E+02 -.78062134E+02 0.11940509E+03 0.20107572E+03 0.12500000E+03 0.0000E+00 0.9000E+01
       23  1    1    2    0    0 -.66747079E+02 0.78062134E+02 0.72866837E+03 0.74149964E+03 0.91188000E+02 0.0000E+00 0.9000E+01
#aMCatNLO 1  0  0  2  1 0.42247360D+03 0.00000000D+00  -5  5  0 0.00000000D+00 0.00000000D+00 0.00000000D+00 0.00000000D+00 0.00000000D+00
  <mgrwgt>
 0.1079228919D+00    3    2    0
 0.205681615765451D+03 0.000000000000000D+00 0.000000000000000D+00 0.205681615765451D+03
 0.205681615765451D+03 0.000000000000000D+00 0.000000000000000D+00 -.205681615765451D+03
 0.214566401881114D+03 0.667470790716685D+02 -.780621336331241D+02 -.140942795290332D+03
 0.196796829649788D+03 -.667470790716685D+02 0.780621336331241D+02 0.140942795290332D+03
 0.000000000000000D+00 0.000000000000000D+00 0.000000000000000D+00 0.000000000000000D+00
 0.789668284626190D+03 0.000000000000000D+00 0.000000000000000D+00 0.789668284626190D+03
 0.385005234778628D+03 0.000000000000000D+00 0.000000000000000D+00 -.385005234778628D+03
 0.360418874282235D+03 -.138522909538856D+02 -.306952777198627D+03 -.140942795290332D+03
 0.229245138164573D+03 -.126468111302987D+03 -.915370269743184D+02 0.140942795290332D+03
 0.585009506958010D+03 0.140320402256873D+03 0.398489804172946D+03 0.404663049847562D+03
0.224738747933D-02 0.000000000000D+00 0.000000000000D+00 0.832829705740D-03 0.000000000000D+00  5 -1 1 25 23 21 0 0.13774222D+00 0.72693766D-02 0.22369707D+05 0.22369707D+05 0.22369707D+05 0.12285079D+01  1  2  2  2  5  2        1 0.104789645316D+00 0.100000000000D+01
-.109445915930D-03 0.000000000000D+00 -.863055967134D-05 0.832829705740D-03 0.000000000000D+00  5 -1 1 25 23 21 2 0.13774222D+00 0.72693766D-02 0.22369707D+05 0.22369707D+05 0.22369707D+05 0.12285079D+01  1  2  3  2  5  2        1 -.770186500064D-02 0.100000000000D+01
0.153970332010D-03 0.000000000000D+00 0.000000000000D+00 0.832829705740D-03 0.000000000000D+00  5 -1 1 25 23 21 2 0.13774222D+00 0.72693766D-02 0.22369707D+05 0.22369707D+05 0.22369707D+05 0.12285079D+01  1  2 15  2  5  2        1 0.108351115816D-01 0.100000000000D+01
  </mgrwgt>
  </event>
  <event>
  4     66 0.43907321E-03 0.11985268E+03 0.75467711E-02 0.11153260E+00
       -1 -1    0    0    0  501 0.00000000E+00 0.00000000E+00 0.13187835E+03 0.13187874E+03 0.32000000E+00 0.0000E+00 0.9000E+01
        1 -1    0    0  501    0 0.00000000E+00 0.00000000E+00 -.10929212E+03 0.10929259E+03 0.32000000E+00 0.0000E+00 0.9000E+01
       25  1    1    2    0    0 -.49080997E+02 0.14767471E+02 0.57722504E+01 0.13522330E+03 0.12500000E+03 0.0000E+00 0.9000E+01
       23  1    1    2    0    0 0.49080997E+02 -.14767471E+02 0.16813982E+02 0.10594802E+03 0.91188000E+02 0.0000E+00 0.9000E+01
#aMCatNLO 1  0  0  2  1 0.18863075D+03 0.00000000D+00  -5  5  0 0.00000000D+00 0.00000000D+00 0.00000000D+00 0.00000000D+00 0.00000000D+00
  <mgrwgt>
 0.1254445251D+00    3    2    0
 0.120055685293273D+03 0.000000000000000D+00 0.000000000000000D+00 0.120055685293273D+03
 0.120055685293273D+03 0.000000000000000D+00 0.000000000000000D+00 -.120055685293273D+03
 0.135277264842263D+03 -.490809965091380D+02 0.147674708033766D+02 -.692213629922946D+01
 0.104834105744284D+03 0.490809965091380D+02 -.147674708033766D+02 0.692213629922946D+01
 0.000000000000000D+00 -.000000000000000D+00 -.000000000000000D+00 0.000000000000000D+00
 0.351263270316167D+03 0.000000000000000D+00 0.000000000000000D+00 0.351263270316167D+03
 0.197464525205986D+03 0.000000000000000D+00 0.000000000000000D+00 -.197464525205986D+03
 0.133625438521894D+03 0.439037108105212D+02 0.159782986043427D+02 -.692213629922946D+01
 0.171718679819343D+03 0.144711049693267D+03 -.135221958507422D+02 0.692213629922946D+01
 0.243383677180915D+03 -.188614760503788D+03 -.245610275360049D+01 0.153798745110181D+03
0.206481990111D-03 0.000000000000D+00 0.000000000000D+00 0.213822289472D-02 0.000000000000D+00  5 -1 1 25 23 21 0 0.20289043D-01 0.16814238D-01 0.14364666D+05 0.14364666D+05 0.14364666D+05 0.12499710D+01  1  2  2  2  5  2        1 0.122820729440D+00 0.100000000000D+01
-.114711817286D-04 0.000000000000D+00 -.792945209983D-06 0.213822289472D-02 0.000000000000D+00  5 -1 1 25 23 21 2 0.20289043D-01 0.16814238D-01 0.14364666D+05 0.14364666D+05 0.14364666D+05 0.12499710D+01  1  2  3  2  5  2        1 -.106609894100D-01 0.100000000000D+01
0.142943753315D-04 0.000000000000D+00 0.000000000000D+00 0.213822289472D-02 0.000000000000D+00  5 -1 1 25 23 21 2 0.20289043D-01 0.16814238D-01 0.14364666D+05 0.14364666D+05 0.14364666D+05 0.12499710D+01  1  2 15  2  5  2        1 0.132847850935D-01 0.100000000000D+01
  </mgrwgt>
  </event>
  <event>
  4     66 0.43907321E-03 0.59664578E+02 0.75467711E-02 0.12376004E+00
       -1 -1    0    0    0  501 0.00000000E+00 0.00000000E+00 0.10030691E+02 0.10035794E+02 0.32000000E+00 0.0000E+00 0.9000E+01
        1 -1    0    0  501    0 0.00000000E+00 0.00000000E+00 -.16743304E+04 0.16743305E+04 0.32000000E+00 0.0000E+00 0.9000E+01
       25  1    1    2    0    0 0.68822345E+01 0.56796188E+02 -.11948445E+04 0.12027268E+04 0.12500000E+03 0.0000E+00 0.9000E+01
       23  1    1    2    0    0 -.68822345E+01 -.56796188E+02 -.46945520E+03 0.48163950E+03 0.91188000E+02 0.0000E+00 0.9000E+01
#aMCatNLO 1  0  0  2  1 0.16540007D+01 0.00000000D+00  -5  5  0 0.00000000D+00 0.00000000D+00 0.00000000D+00 0.00000000D+00 0.00000000D+00
  <mgrwgt>
 0.3978235226D+00   11    2    0
 0.129611011059555D+03 0.000000000000000D+00 0.000000000000000D+00 0.129611011059555D+03
 0.129611011059555D+03 0.000000000000000D+00 0.000000000000000D+00 -.129611011059555D+03
 0.143710408549482D+03 0.688223445570126D+01 0.567961876851937D+02 -.418868647523773D+02
 0.115511613569627D+03 -.688223445570126D+01 -.567961876851937D+02 0.418868647523773D+02
 0.000000000000000D+00 -.000000000000000D+00 0.000000000000000D+00 -.000000000000000D+00
 0.130176095339353D+03 0.000000000000000D+00 0.000000000000000D+00 0.130176095339353D+03
 0.130829641200425D+03 0.000000000000000D+00 0.000000000000000D+00 -.130829641200425D+03
 0.143395761011268D+03 0.723478863148124D+01 0.559508058089835D+02 -.418868647523773D+02
 0.115831537840411D+03 -.659815489658732D+01 -.574773757895337D+02 0.418868647523773D+02
 0.177843768809786D+01 -.636633734893914D+00 0.152656998055029D+01 -.653545861072165D+00
0.171112267582D-03 0.000000000000D+00 0.000000000000D+00 0.180853196817D-02 0.000000000000D+00  5 -1 1 25 23 21 0 0.15435781D-02 0.25758969D+00 0.15020974D+05 0.15020974D+05 0.15020974D+05 0.12477534D+01  1  2  2  2  5  2        1 0.923533838287D-01 0.100000000000D+01
-.947007289702D-05 0.000000000000D+00 -.657116162408D-06 0.180853196817D-02 0.000000000000D+00  5 -1 1 25 23 21 2 0.15435781D-02 0.25758969D+00 0.15020974D+05 0.15020974D+05 0.15020974D+05 0.12477534D+01  1  2  3  2  5  2        1 -.795760696239D-02 0.100000000000D+01
0.118344329332D-04 0.000000000000D+00 0.000000000000D+00 0.180853196817D-02 0.000000000000D+00  5 -1 1 25 23 21 2 0.15435781D-02 0.25758969D+00 0.15020974D+05 0.15020974D+05 0.15020974D+05 0.12477534D+01  1  2 15  2  5  2        1 0.994435490936D-02 0.100000000000D+01
0.277592328421D-07 0.000000000000D+00 0.000000000000D+00 0.180853196817D-02 0.000000000000D+00  5 -1 1 25 23 21 2 0.15435781D-02 0.26056925D+00 0.15226131D+05 0.15226131D+05 0.15226131D+05 0.12470824D+01  1  2 12  2  5  2        1 0.226533387368D-04 0.100000000000D+01
-.293949714409D-02 0.000000000000D+00 0.000000000000D+00 0.180853196817D-02 0.000000000000D+00  5 -1 1 25 23 21 2 0.15435781D-02 0.25758969D+00 0.15020974D+05 0.15020974D+05 0.15020974D+05 0.12477534D+01  1  2  4  2  5  2        1 -.247002987138D+01 0.100000000000D+01
-.162639306704D-01 0.000000000000D+00 -.167797842661D-02 0.180853196817D-02 0.000000000000D+00  5 -1 1 25 23 21 2 0.15435781D-02 0.26058218D+00 0.15020974D+05 0.15020974D+05 0.15020974D+05 0.12477534D+01  1  2  5  2  5  2        1 -.132823750179D+02 0.100000000000D+01
0.162823376371D-01 0.000000000000D+00 0.167786650362D-02 0.180853196817D-02 0.000000000000D+00  5 -1 1 25 23 21 2 0.15435781D-02 0.25758969D+00 0.15020974D+05 0.15020974D+05 0.15020974D+05 0.12477534D+01  1  2  6  2  5  2        1 0.136818844748D+02 0.100000000000D+01
0.293960361396D-02 0.000000000000D+00 0.000000000000D+00 0.180853196817D-02 0.548357013178D-02  5 -1 1 25 23 21 2 0.15503078D-02 0.26001161D+00 0.15226131D+05 0.15226131D+05 0.15226131D+05 0.12470824D+01  1  2 11  2  5  2        1 0.239670484986D+01 0.100000000000D+01
0.242751168569D-08 0.000000000000D+00 0.000000000000D+00 0.180853196817D-02 0.000000000000D+00  5 -1 21 25 23 -1 2 0.15435781D-02 0.26056925D+00 0.15226131D+05 0.15226131D+05 0.15226131D+05 0.12470824D+01  1  2 12  4  5  2        1 0.198016571781D-05 0.100000000000D+01
-.345373357393D-04 0.000000000000D+00 -.357181430614D-05 0.180853196817D-02 0.000000000000D+00  5 -1 21 25 23 -1 2 0.15435781D-02 0.26058218D+00 0.15020974D+05 0.15020974D+05 0.15020974D+05 0.12477534D+01  1  2  5  4  5  2        1 -.282154552556D-01 0.100000000000D+01
0.672293921716D-05 0.000000000000D+00 0.000000000000D+00 0.180853196817D-02 0.952281390850D-05  5 -1 21 25 23 -1 2 0.15503078D-02 0.26001161D+00 0.15226131D+05 0.15226131D+05 0.15226131D+05 0.12470824D+01  1  2 11  4  5  2        1 0.548977708667D-02 0.100000000000D+01
  </mgrwgt>
  </event>
  <event>
  4     66 0.43907321E-03 0.77915421E+02 0.75467711E-02 0.11859002E+00
       -1 -1    0    0    0  501 0.00000000E+00 0.00000000E+00 0.35475895E+03 0.35475909E+03 0.32000000E+00 0.0000E+00 0.9000E+01
        1 -1    0    0  501    0 0.00000000E+00 0.00000000E+00 -.57153783E+02 0.57154678E+02 0.32000000E+00 0.0000E+00 0.9000E+01
       25  1    1    2    0    0 0.76475203E+02 0.40535557E+01 0.23604655E+03 0.27786302E+03 0.12500000E+03 0.0000E+00 0.9000E+01
       23  1    1    2    0    0 -.76475203E+02 -.40535557E+01 0.61558619E+02 0.13405075E+03 0.91188000E+02 0.0000E+00 0.9000E+01
#aMCatNLO 1  0  0  1  2 0.54270785D+02 0.00000000D+00  -5  5  0 0.00000000D+00 0.00000000D+00 0.00000000D+00 0.00000000D+00 0.00000000D+00
  <mgrwgt>
 0.1558813020D+00    9    2    0
 0.142393925570340D+03 0.000000000000000D+00 0.000000000000000D+00 0.142393925570340D+03
 0.142393925570340D+03 0.000000000000000D+00 0.000000000000000D+00 -.142393925570340D+03
 0.155227599174607D+03 0.764752025000243D+02 0.405355567382422D+01 0.510462499552309D+02
 0.129560251966073D+03 -.764752025000243D+02 -.405355567382422D+01 -.510462499552309D+02
 0.000000000000000D+00 -.000000000000000D+00 0.000000000000000D+00 0.000000000000000D+00
 0.176506620460392D+03 0.000000000000000D+00 0.000000000000000D+00 0.176506620460392D+03
 0.168294742089148D+03 0.000000000000000D+00 0.000000000000000D+00 -.168294742089148D+03
 0.168659273217267D+03 0.998475023577893D+02 -.156750464304296D+02 0.510462499552309D+02
 0.121253538247097D+03 -.583759968420926D+02 -.193311290834330D+02 -.510462499552309D+02
 0.548885510851756D+02 -.414715055156967D+02 0.350061755138626D+02 0.821187837124461D+01
0.411125851617D-03 0.000000000000D+00 0.000000000000D+00 0.161437818377D-02 0.000000000000D+00  5 -1 1 25 23 21 0 0.54578380D-01 0.87929697D-02 0.17645760D+05 0.17645760D+05 0.17645760D+05 0.12398592D+01  1  2  2  1  5  1       -1 0.105768727228D+00 0.100000000000D+01
-.227062948898D-04 0.000000000000D+00 -.157883152213D-05 0.161437818377D-02 0.000000000000D+00  5 -1 1 25 23 21 2 0.54578380D-01 0.87929697D-02 0.17645760D+05 0.17645760D+05 0.17645760D+05 0.12398592D+01  1  2  3  1  5  1       -1 -.897994123072D-02 0.100000000000D+01
0.283478529963D-04 0.000000000000D+00 0.000000000000D+00 0.161437818377D-02 0.000000000000D+00  5 -1 1 25 23 21 2 0.54578380D-01 0.87929697D-02 0.17645760D+05 0.17645760D+05 0.17645760D+05 0.12398592D+01  1  2 15  1  5  1       -1 0.112110784767D-01 0.100000000000D+01
0.169468736762D-03 0.000000000000D+00 0.000000000000D+00 0.161437818377D-02 0.000000000000D+00  5 -1 1 25 23 21 2 0.71603298D-01 0.87929697D-02 0.26407023D+05 0.26407023D+05 0.26407023D+05 0.12207564D+01  1  2 12  1  5  1       -1 0.388708889808D-01 0.100000000000D+01
-.189707123801D-03 0.000000000000D+00 0.000000000000D+00 0.161437818377D-02 0.000000000000D+00  5 -1 1 25 23 21 2 0.54578380D-01 0.87929697D-02 0.17645760D+05 0.17645760D+05 0.17645760D+05 0.12398592D+01  1  2  4  1  5  1       -1 -.750258389159D-01 0.100000000000D+01
-.383612549162D-03 0.000000000000D+00 -.167329891052D-03 0.161437818377D-02 0.000000000000D+00  5 -1 1 25 23 21 2 0.78108973D-01 0.87929697D-02 0.17645760D+05 0.17645760D+05 0.17645760D+05 0.12398592D+01  1  2  5  1  5  1       -1 -.756886847146D-01 0.100000000000D+01
0.426125887567D-03 0.000000000000D+00 0.157126078823D-03 0.161437818377D-02 0.000000000000D+00  5 -1 1 25 23 21 2 0.54578380D-01 0.87929697D-02 0.17645760D+05 0.17645760D+05 0.17645760D+05 0.12398592D+01  1  2  6  1  5  1       -1 0.168525311849D+00 0.100000000000D+01
0.609317080268D-05 0.000000000000D+00 0.000000000000D+00 0.161437818377D-02 0.000000000000D+00  5 21 1 25 23 1 2 0.71603298D-01 0.87929697D-02 0.26407023D+05 0.26407023D+05 0.26407023D+05 0.12207564D+01  1  2 12  3  5  1       -1 0.130229371900D-01 0.100000000000D+01
-.119611487374D-04 0.000000000000D+00 -.735428851690D-05 0.161437818377D-02 0.000000000000D+00  5 21 1 25 23 1 2 0.78108973D-01 0.87929697D-02 0.17645760D+05 0.17645760D+05 0.17645760D+05 0.12398592D+01  1  2  5  3  5  1       -1 -.218231768738D-01 0.100000000000D+01
  </mgrwgt>
  </event>
  <event>
  5     66 0.43907321E-03 0.11547957E+03 0.75467711E-02 0.11899648E+00
       21 -1    0    0  502  501 0.00000000E+00 0.00000000E+00 0.11425241E+03 0.11425487E+03 0.75000000E+00 0.0000E+00 0.9000E+01
        1 -1    0    0  501    0 0.00000000E+00 0.00000000E+00 -.29359594E+03 0.29359611E+03 0.32000000E+00 0.0000E+00 0.9000E+01
       25  1    1    2    0    0 -.39425503E+02 -.17094065E+02 -.17868986E+03 0.22226480E+03 0.12500000E+03 0.0000E+00 0.9000E+01
       23  1    1    2    0    0 0.27707128E+02 -.56679715E+02 -.59744061E+00 0.11088680E+03 0.91188000E+02 0.0000E+00 0.9000E+01
        1  1    1    2  502    0 0.11718375E+02 0.73773780E+02 -.56228741E-01 0.74699374E+02 0.32000000E+00 0.0000E+00 0.9000E+01
#aMCatNLO 2  0  0  1  2 0.74698668D+02 0.00000000D+00  -5  5  0 0.00000000D+00 0.00000000D+00 0.00000000D+00 0.00000000D+00 0.00000000D+00
  <mgrwgt>
 0.4460204766D-01    2    2    0
 0.135338618760985D+03 0.000000000000000D+00 0.000000000000000D+00 0.135338618760985D+03
 0.135338618760985D+03 0.000000000000000D+00 0.000000000000000D+00 -.135338618760985D+03
 0.148841321690349D+03 -.330835442152077D+02 0.228321437290764D+02 -.700921633096396D+02
 0.121835915831622D+03 0.330835442152077D+02 -.228321437290764D+02 0.700921633096396D+02
 0.000000000000000D+00 0.000000000000000D+00 0.000000000000000D+00 0.000000000000000D+00
 0.208507532058859D+03 0.000000000000000D+00 0.000000000000000D+00 0.208507532058859D+03
 0.160878925436500D+03 0.000000000000000D+00 0.000000000000000D+00 -.160878925436500D+03
 0.149614466891395D+03 -.394255030243292D+02 -.170940649656484D+02 -.700921633096396D+02
 0.131180935207658D+03 0.277071283147827D+02 -.566797150758441D+02 0.700921633096396D+02
 0.885910553963052D+02 0.117183747095465D+02 0.737737800414924D+02 0.476286066223586D+02
-.216470800829D-05 0.000000000000D+00 0.000000000000D+00 0.148561465634D-02 0.000000000000D+00  5 21 1 25 23 1 2 0.18183455D-01 0.37997978D-01 0.25243483D+05 0.25243483D+05 0.25243483D+05 0.12228466D+01  1  2 13  3  5  1       -1 -.109025813195D-01 0.100000000000D+01
0.128344991788D-04 0.000000000000D+00 0.000000000000D+00 0.148561465634D-02 0.167999619930D-06  5 21 1 25 23 1 2 0.17577467D-01 0.45168732D-01 0.25243483D+05 0.25243483D+05 0.25243483D+05 0.12228466D+01  1  2  1  3  5  1       -1 0.555046289785D-01 0.100000000000D+01
  </mgrwgt>
  </event>
  <event>
  5     66 0.43907321E-03 0.16646884E+03 0.75467711E-02 0.11243606E+00
       -1 -1    0    0    0  501 0.00000000E+00 0.00000000E+00 0.52931386E+02 0.52932354E+02 0.32000000E+00 0.0000E+00 0.9000E+01
        1 -1    0    0  502    0 0.00000000E+00 0.00000000E+00 -.11158659E+04 0.11158659E+04 0.32000000E+00 0.0000E+00 0.9000E+01
       25  1    1    2    0    0 0.86696073E+02 -.37996738E+02 -.31044746E+03 0.34779676E+03 0.12500000E+03 0.0000E+00 0.9000E+01
       23  1    1    2    0    0 -.16702925E+03 -.43604233E+02 -.59551466E+03 0.62670014E+03 0.91188000E+02 0.0000E+00 0.9000E+01
       21  1    1    2  502  501 0.80333177E+02 0.81600971E+02 -.15697236E+03 0.19430137E+03 0.75000000E+00 0.0000E+00 0.9000E+01
#aMCatNLO 2  0  0  2  1 0.11450824D+03 0.00000000D+00  -5  5  0 0.00000000D+00 0.00000000D+00 0.00000000D+00 0.00000000D+00 0.00000000D+00
  <mgrwgt>
 0.1396600468D-01    1    2    0
 0.170121061411328D+03 0.000000000000000D+00 0.000000000000000D+00 0.170121061411328D+03
 0.170121061411328D+03 0.000000000000000D+00 0.000000000000000D+00 -.170121061411328D+03
 0.180863042144575D+03 0.125931746434465D+03 0.185814036815436D+01 0.349883204530915D+02
 0.159379080678081D+03 -.125931746434465D+03 -.185814036815436D+01 -.349883204530915D+02
 0.000000000000000D+00 0.000000000000000D+00 0.000000000000000D+00 0.000000000000000D+00
 0.277262944523027D+03 0.000000000000000D+00 0.000000000000000D+00 0.277262944523027D+03
 0.213026548514338D+03 0.000000000000000D+00 0.000000000000000D+00 -.213026548514338D+03
 0.160652245015382D+03 0.866960733464875D+02 -.379967383686358D+02 0.349883204530915D+02
 0.198341961012496D+03 -.167029250341775D+03 -.436042327809916D+02 -.349883204530915D+02
 0.131295287009487D+03 0.803331769952871D+02 0.816009711496274D+02 0.642363960086888D+02
0.895736896082D-04 0.000000000000D+00 0.000000000000D+00 0.152740893252D-02 0.974562743872D-06  5 -1 1 25 23 21 2 0.81433301D-02 0.17167095D+00 0.54413889D+05 0.54413889D+05 0.54413889D+05 0.11886603D+01  1  2  1  2  5  2        1 0.139660046822D-01 0.100000000000D+01
  </mgrwgt>
  </event>
  <event>
  4     66 0.43907321E-03 0.15966051E+03 0.75467711E-02 0.10978187E+00
       -1 -1    0    0    0  501 0.00000000E+00 0.00000000E+00 0.58392076E+03 0.58392085E+03 0.32000000E+00 0.0000E+00 0.9000E+01
        1 -1    0    0  501    0 0.00000000E+00 0.00000000E+00 -.14839939E+03 0.14839974E+03 0.32000000E+00 0.0000E+00 0.9000E+01
       25  1    1    2    0    0 -.10880894E+03 -.18318947E+03 0.93471586E+01 0.24720465E+03 0.12500000E+03 0.0000E+00 0.9000E+01
       23  1    1    2    0    0 0.10880894E+03 0.18318947E+03 0.42617421E+03 0.48511594E+03 0.91188000E+02 0.0000E+00 0.9000E+01
#aMCatNLO 1  0  0  1  2 0.69254150D+02 0.00000000D+00  -5  5  0 0.00000000D+00 0.00000000D+00 0.00000000D+00 0.00000000D+00 0.00000000D+00
  <mgrwgt>
 0.1498299195D+00    9    2    0
 0.294369911396038D+03 0.000000000000000D+00 0.000000000000000D+00 0.294369911396038D+03
 0.294369911396038D+03 0.000000000000000D+00 0.000000000000000D+00 -.294369911396038D+03
 0.300577873192587D+03 -.108808936229847D+03 -.183189471804452D+03 -.171243366789822D+03
 0.288161949599489D+03 0.108808936229847D+03 0.183189471804452D+03 0.171243366789822D+03
 0.000000000000000D+00 0.000000000000000D+00 0.000000000000000D+00 0.000000000000000D+00
 0.332129334668602D+03 0.000000000000000D+00 0.000000000000000D+00 0.332129334668602D+03
 0.329957901336838D+03 0.000000000000000D+00 0.000000000000000D+00 -.329957901336838D+03
 0.316387275774340D+03 -.144936266482660D+03 -.184783917753851D+03 -.171243366789822D+03
 0.276411776383648D+03 0.757494652292447D+02 0.181730422955359D+03 0.171243366789822D+03
 0.692881838474519D+02 0.691868012534153D+02 0.305349479849152D+01 0.217143333176406D+01
0.317390057011D-02 0.000000000000D+00 0.000000000000D+00 0.880717981591D-03 0.000000000000D+00  5 -1 1 25 23 21 0 0.89833997D-01 0.22830709D-01 0.57309621D+05 0.57309621D+05 0.57309621D+05 0.11864573D+01  1  2  2  1  5  1       -1 0.876598312912D-01 0.100000000000D+01
-.167165826299D-03 0.000000000000D+00 -.121886138964D-04 0.880717981591D-03 0.000000000000D+00  5 -1 1 25 23 21 2 0.89833997D-01 0.22830709D-01 0.57309621D+05 0.57309621D+05 0.57309621D+05 0.11864573D+01  1  2  3  1  5  1       -1 -.649918757226D-02 0.100000000000D+01
0.218689949131D-03 0.000000000000D+00 0.000000000000D+00 0.880717981591D-03 0.000000000000D+00  5 -1 1 25 23 21 2 0.89833997D-01 0.22830709D-01 0.57309621D+05 0.57309621D+05 0.57309621D+05 0.11864573D+01  1  2 15  1  5  1       -1 0.850237773495D-02 0.100000000000D+01
0.219113612242D-02 0.000000000000D+00 0.000000000000D+00 0.880717981591D-03 0.000000000000D+00  5 -1 1 25 23 21 2 0.10614230D+00 0.22830709D-01 0.76250614D+05 0.76250614D+05 0.76250614D+05 0.11745466D+01  1  2 12  1  5  1       -1 0.575368256594D-01 0.100000000000D+01
-.190968946585D-02 0.000000000000D+00 0.000000000000D+00 0.880717981591D-03 0.000000000000D+00  5 -1 1 25 23 21 2 0.89833997D-01 0.22830709D-01 0.57309621D+05 0.57309621D+05 0.57309621D+05 0.11864573D+01  1  2  4  1  5  1       -1 -.742462159766D-01 0.100000000000D+01
-.559240596666D-02 0.000000000000D+00 -.187296239096D-02 0.880717981591D-03 0.000000000000D+00  5 -1 1 25 23 21 2 0.11119730D+00 0.22830709D-01 0.57309621D+05 0.57309621D+05 0.57309621D+05 0.11864573D+01  1  2  5  1  5  1       -1 -.135153331501D+00 0.100000000000D+01
0.589906095897D-02 0.000000000000D+00 0.183113203838D-02 0.880717981591D-03 0.000000000000D+00  5 -1 1 25 23 21 2 0.89833997D-01 0.22830709D-01 0.57309621D+05 0.57309621D+05 0.57309621D+05 0.11864573D+01  1  2  6  1  5  1       -1 0.229347735248D+00 0.100000000000D+01
0.544264476975D-04 0.000000000000D+00 0.000000000000D+00 0.880717981591D-03 0.000000000000D+00  5 21 1 25 23 1 2 0.10614230D+00 0.22830709D-01 0.76250614D+05 0.76250614D+05 0.76250614D+05 0.11745466D+01  1  2 12  3  5  1       -1 0.120079831786D-01 0.100000000000D+01
-.144025516834D-03 0.000000000000D+00 -.563031708657D-04 0.880717981591D-03 0.000000000000D+00  5 21 1 25 23 1 2 0.11119730D+00 0.22830709D-01 0.57309621D+05 0.57309621D+05 0.57309621D+05 0.11864573D+01  1  2  5  3  5  1       -1 -.293260985648D-01 0.100000000000D+01
  </mgrwgt>
  </event>
  <event>
  4     66 0.43907321E-03 0.11762068E+03 0.75467711E-02 0.11378538E+00
       -1 -1    0    0    0  501 0.00000000E+00 0.00000000E+00 0.97069944E+01 0.97122675E+01 0.32000000E+00 0.0000E+00 0.9000E+01
        1 -1    0    0  501    0 0.00000000E+00 0.00000000E+00 -.16148365E+04 0.16148366E+04 0.32000000E+00 0.0000E+00 0.9000E+01
       25  1    1    2    0    0 0.28057501E+02 0.36313433E+02 -.11725763E+04 0.11801127E+04 0.12500000E+03 0.0000E+00 0.9000E+01
       23  1    1    2    0    0 -.28057501E+02 -.36313433E+02 -.43255325E+03 0.44443611E+03 0.91188000E+02 0.0000E+00 0.9000E+01
#aMCatNLO 1  0  0  1  2 0.15066794D+03 0.00000000D+00  -5  5  0 0.00000000D+00 0.00000000D+00 0.00000000D+00 0.00000000D+00 0.00000000D+00
  <mgrwgt>
 0.1643537601D+00    3    2    0
 0.125217882392067D+03 0.000000000000000D+00 0.000000000000000D+00 0.125217882392067D+03
 0.125217882392067D+03 0.000000000000000D+00 0.000000000000000D+00 -.125217882392067D+03
 0.139811941396181D+03 0.280575013165638D+02 0.363134329990474D+02 -.426203022122530D+02
 0.110623823387953D+03 -.280575013165638D+02 -.363134329990474D+02 0.426203022122530D+02
 0.000000000000000D+00 -.000000000000000D+00 0.000000000000000D+00 -.000000000000000D+00
 0.201330964370300D+03 0.000000000000000D+00 0.000000000000000D+00 0.201330964370300D+03
 0.248947263559128D+03 0.000000000000000D+00 0.000000000000000D+00 -.248947263559128D+03
 0.177923084315008D+03 0.115881013143660D+03 0.280486107374456D+02 -.426203022122530D+02
 0.114342038176204D+03 0.341241607760859D+02 -.421651733181834D+02 0.426203022122530D+02
 0.158013105438217D+03 -.150005173919746D+03 0.141165625807379D+02 -.476162991888281D+02
0.260971616246D-03 0.000000000000D+00 0.000000000000D+00 0.186136425130D-02 0.000000000000D+00  5 -1 1 25 23 21 0 0.14937918D-02 0.24843680D+00 0.13834625D+05 0.13834625D+05 0.13834625D+05 0.12518467D+01  1  2  2  1  5  1       -1 0.160858660455D+00 0.100000000000D+01
-.144293645997D-04 0.000000000000D+00 -.100219972179D-05 0.186136425130D-02 0.000000000000D+00  5 -1 1 25 23 21 2 0.14937918D-02 0.24843680D+00 0.13834625D+05 0.13834625D+05 0.13834625D+05 0.12518467D+01  1  2  3  1  5  1       -1 -.139380065484D-01 0.100000000000D+01
0.180476773863D-04 0.000000000000D+00 0.000000000000D+00 0.186136425130D-02 0.000000000000D+00  5 -1 1 25 23 21 2 0.14937918D-02 0.24843680D+00 0.13834625D+05 0.13834625D+05 0.13834625D+05 0.12518467D+01  1  2 15  1  5  1       -1 0.174331062088D-01 0.100000000000D+01
  </mgrwgt>
  </event>
  <event>
  5     66 0.43907321E-03 0.19473528E+03 0.75467711E-02 0.10432225E+00
       -1 -1    0    0    0  501 0.00000000E+00 0.00000000E+00 0.71970375E+03 0.71970382E+03 0.32000000E+00 0.0000E+00 0.9000E+01
       21 -1    0    0  501  502 0.00000000E+00 0.00000000E+00 -.32582472E+03 0.32582559E+03 0.75000000E+00 0.0000E+00 0.9000E+01
       25  1    1    2    0    0 -.23702546E+03 0.23330596E+03 -.48269033E+02 0.35856330E+03 0.12500000E+03 0.0000E+00 0.9000E+01
       23  1    1    2    0    0 0.75155281E+02 0.44609468E+02 0.31808998E+03 0.34224963E+03 0.91188000E+02 0.0000E+00 0.9000E+01
       -1  1    1    2    0  502 0.16187018E+03 -.27791543E+03 0.12405808E+03 0.34471648E+03 0.32000000E+00 0.0000E+00 0.9000E+01
#aMCatNLO 2  0  0  2  2 0.32161925D+03 0.00000000D+00  -5  5  0 0.00000000D+00 0.00000000D+00 0.00000000D+00 0.00000000D+00 0.00000000D+00
  <mgrwgt>
 0.6510678541D-02    1    2    0
 0.280578185615868D+03 0.000000000000000D+00 0.000000000000000D+00 0.280578185615868D+03
 0.280578185615868D+03 0.000000000000000D+00 0.000000000000000D+00 -.280578185615868D+03
 0.287091297674058D+03 -.143792994113178D+03 0.732348429262728D+02 -.201882752670223D+03
 0.274065073557677D+03 0.143792994113178D+03 -.732348429262728D+02 0.201882752670223D+03
 0.000000000000000D+00 0.000000000000000D+00 -.000000000000000D+00 -.000000000000000D+00
 0.479579761945907D+03 0.000000000000000D+00 0.000000000000000D+00 0.479579761945907D+03
 0.488964930407709D+03 0.000000000000000D+00 0.000000000000000D+00 -.488964930407709D+03
 0.408649465747039D+03 -.237025458475971D+03 0.233305962341062D+03 -.201882752670223D+03
 0.238139073059927D+03 0.751552811075690D+02 0.446094683870671D+02 0.201882752670223D+03
 0.321756153546651D+03 0.161870177368402D+03 -.277915430728129D+03 -.938516846180188D+01
0.189094069108D-03 0.000000000000D+00 0.000000000000D+00 0.670200404063D-03 0.800031809720D-08  5 -1 21 25 23 -1 2 0.11072371D+00 0.50126944D-01 0.16129309D+06 0.16129309D+06 0.16129309D+06 0.11449682D+01  1  2  1  4  5  2        1 0.651067854072D-02 0.100000000000D+01
  </mgrwgt>
  </event>
  <event>
  4     66 0.43907321E-03 0.97138062E+02 0.75467711E-02 0.11695108E+00
       -1 -1    0    0    0  501 0.00000000E+00 0.00000000E+00 0.11701127E+03 0.11701171E+03 0.32000000E+00 0.0000E+00 0.9000E+01
        1 -1    0    0  501    0 0.00000000E+00 0.00000000E+00 -.21969779E+03 0.21969802E+03 0.32000000E+00 0.0000E+00 0.9000E+01
       25  1    1    2    0    0 -.23823296E+01 0.10862841E+03 -.73216068E+01 0.16578423E+03 0.12500000E+03 0.0000E+00 0.9000E+01
       23  1    1    2    0    0 0.23823296E+01 -.10862841E+03 -.95364913E+02 0.17092549E+03 0.91188000E+02 0.0000E+00 0.9000E+01
#aMCatNLO 1  0  0  1  2 0.45798164D+02 0.00000000D+00  -5  5  0 0.00000000D+00 0.00000000D+00 0.00000000D+00 0.00000000D+00 0.00000000D+00
  <mgrwgt>
 0.1510796967D+00    9    2    0
 0.160334743251729D+03 0.000000000000000D+00 0.000000000000000D+00 0.160334743251729D+03
 0.160334743251729D+03 0.000000000000000D+00 0.000000000000000D+00 -.160334743251729D+03
 0.171732380014280D+03 -.238232959183800D+01 0.108628407612568D+03 0.454004835948085D+02
 0.148937106489179D+03 0.238232959183800D+01 -.108628407612568D+03 -.454004835948085D+02
 0.000000000000000D+00 0.000000000000000D+00 -.000000000000000D+00 0.000000000000000D+00
 0.206923091931756D+03 0.000000000000000D+00 0.000000000000000D+00 0.206923091931756D+03
 0.173624349108462D+03 0.000000000000000D+00 0.000000000000000D+00 -.173624349108462D+03
 0.182737152723560D+03 -.229140842827343D+02 0.123213667327757D+03 0.454004835948085D+02
 0.141186281775350D+03 -.144223367836625D+02 -.966907808873452D+02 -.454004835948085D+02
 0.566240065413083D+02 0.373364210663969D+02 -.265228864404117D+02 0.332987428232938D+02
0.377853798099D-03 0.000000000000D+00 0.000000000000D+00 0.153461584748D-02 0.000000000000D+00  5 -1 1 25 23 21 0 0.18001785D-01 0.33799711D-01 0.23634634D+05 0.23634634D+05 0.23634634D+05 0.12259213D+01  1  2  2  1  5  1       -1 0.114579156491D+00 0.100000000000D+01
-.209467916266D-04 0.000000000000D+00 -.145105807589D-05 0.153461584748D-02 0.000000000000D+00  5 -1 1 25 23 21 2 0.18001785D-01 0.33799711D-01 0.23634634D+05 0.23634634D+05 0.23634634D+05 0.12259213D+01  1  2  3  1  5  1       -1 -.954606869990D-02 0.100000000000D+01
0.259913102382D-04 0.000000000000D+00 0.000000000000D+00 0.153461584748D-02 0.000000000000D+00  5 -1 1 25 23 21 2 0.18001785D-01 0.33799711D-01 0.23634634D+05 0.23634634D+05 0.23634634D+05 0.12259213D+01  1  2 15  1  5  1       -1 0.118450041208D-01 0.100000000000D+01
0.358498186113D-03 0.000000000000D+00 0.000000000000D+00 0.153461584748D-02 0.000000000000D+00  5 -1 1 25 23 21 2 0.23815178D-01 0.33799711D-01 0.31771858D+05 0.31771858D+05 0.31771858D+05 0.12122915D+01  1  2 12  1  5  1       -1 0.102109631346D+00 0.100000000000D+01
-.382239452906D-03 0.000000000000D+00 0.000000000000D+00 0.153461584748D-02 0.000000000000D+00  5 -1 1 25 23 21 2 0.18001785D-01 0.33799711D-01 0.23634634D+05 0.23634634D+05 0.23634634D+05 0.12259213D+01  1  2  4  1  5  1       -1 -.174197755069D+00 0.100000000000D+01
-.597869543272D-03 0.000000000000D+00 -.170367031907D-03 0.153461584748D-02 0.000000000000D+00  5 -1 1 25 23 21 2 0.24989588D-01 0.33799711D-01 0.23634634D+05 0.23634634D+05 0.23634634D+05 0.12259213D+01  1  2  5  1  5  1       -1 -.160142908346D+00 0.100000000000D+01
0.628412856001D-03 0.000000000000D+00 0.161596832440D-03 0.153461584748D-02 0.000000000000D+00  5 -1 1 25 23 21 2 0.18001785D-01 0.33799711D-01 0.23634634D+05 0.23634634D+05 0.23634634D+05 0.12259213D+01  1  2  6  1  5  1       -1 0.286386211417D+00 0.100000000000D+01
0.131770635481D-04 0.000000000000D+00 0.000000000000D+00 0.153461584748D-02 0.000000000000D+00  5 21 1 25 23 1 2 0.23815178D-01 0.33799711D-01 0.31771858D+05 0.31771858D+05 0.31771858D+05 0.12122915D+01  1  2 12  3  5  1       -1 0.455398776421D-01 0.100000000000D+01
-.202692076812D-04 0.000000000000D+00 -.702305374316D-05 0.153461584748D-02 0.000000000000D+00  5 21 1 25 23 1 2 0.24989588D-01 0.33799711D-01 0.23634634D+05 0.23634634D+05 0.23634634D+05 0.12259213D+01  1  2  5  3  5  1       -1 -.654934522112D-01 0.100000000000D+01
  </mgrwgt>
  </event>
  <event>
  5     66 0.43907321E-03 0.11847853E+03 0.75467711E-02 0.10023332E+00
       21 -1    0    0  502  501 0.00000000E+00 0.00000000E+00 0.27552720E+03 0.27552822E+03 0.75000000E+00 0.0000E+00 0.9000E+01
        1 -1    0    0  501    0 0.00000000E+00 0.00000000E+00 -.12069904E+04 0.12069905E+04 0.32000000E+00 0.0000E+00 0.9000E+01
       25  1    1    2    0    0 0.40036914E+02 0.36084410E+03 -.51224052E+03 0.64017714E+03 0.12500000E+03 0.0000E+00 0.9000E+01
       23  1    1    2    0    0 0.72422377E+02 0.14763721E+03 -.20792504E+03 0.28033876E+03 0.91188000E+02 0.0000E+00 0.9000E+01
        1  1    1    2  502    0 -.11245929E+03 -.50848131E+03 -.21129765E+03 0.56200279E+03 0.32000000E+00 0.0000E+00 0.9000E+01
#aMCatNLO 2  0  0  1  2 0.52076898D+03 0.00000000D+00  -5  5  0 0.00000000D+00 0.00000000D+00 0.00000000D+00 0.00000000D+00 0.00000000D+00
  <mgrwgt>
 0.8981225696D-02    1    2    0
 0.119906995861746D+03 0.000000000000000D+00 0.000000000000000D+00 0.119906995861746D+03
 0.119906995861746D+03 0.000000000000000D+00 0.000000000000000D+00 -.119906995861746D+03
 0.135147450773209D+03 -.318185793382689D+02 0.359516405399789D+02 -.183000273736259D+02
 0.104666540950282D+03 0.318185793382689D+02 -.359516405399789D+02 0.183000273736259D+02
 0.000000000000000D+00 -.000000000000000D+00 -.000000000000000D+00 0.000000000000000D+00
 0.788464936099464D+03 0.000000000000000D+00 0.000000000000000D+00 0.788464936099464D+03
 0.421780872355686D+03 0.000000000000000D+00 0.000000000000000D+00 -.421780872355686D+03
 0.384410336576815D+03 0.400369136560472D+02 0.360844095711878D+03 -.183000273736259D+02
 0.188922971091233D+03 0.724223767200825D+02 0.147637210791446D+03 0.183000273736259D+02
 0.636912500787102D+03 -.112459290376130D+03 -.508481306503324D+03 0.366684063743778D+03
0.118689670173D-03 0.000000000000D+00 0.000000000000D+00 0.210944275159D-02 0.146948370161D-06  5 21 1 25 23 1 2 0.42388879D-01 0.18569090D+00 0.29854096D+06 0.29854096D+06 0.29854096D+06 0.11223052D+01  1  2  1  3  5  1       -1 0.898122569616D-02 0.100000000000D+01
  </mgrwgt>
  </event>
  <event>
  4     66 0.43907321E-03 0.14786279E+03 0.75467711E-02 0.11279498E+00
       -1 -1    0    0    0  501 0.00000000E+00 0.00000000E+00 0.12769884E+03 0.12769924E+03 0.32000000E+00 0.0000E+00 0.9000E+01
        1 -1    0    0  501    0 0.00000000E+00 0.00000000E+00 -.20490620E+03 0.20490645E+03 0.32000000E+00 0.0000E+00 0.9000E+01
       25  1    1    2    0    0 -.98553892E+02 -.18252482E+02 -.10854187E+03 0.19352612E+03 0.12500000E+03 0.0000E+00 0.9000E+01
       23  1    1    2    0    0 0.98553892E+02 0.18252482E+02 0.31334503E+02 0.13907956E+03 0.91188000E+02 0.0000E+00 0.9000E+01
#aMCatNLO 1  0  0  2  2 0.13338238D+03 0.00000000D+00  -5  5  0 0.00000000D+00 0.00000000D+00 0.00000000D+00 0.00000000D+00 0.00000000D+00
  <mgrwgt>
 0.1012965394D+00    5    2    0
 0.161760289324575D+03 0.000000000000000D+00 0.000000000000000D+00 0.161760289324575D+03
 0.161760289324575D+03 0.000000000000000D+00 0.000000000000000D+00 -.161760289324575D+03
 0.173057482051111D+03 -.985538920154443D+02 -.182524820840930D+02 -.654054230186518D+02
 0.150463096598039D+03 0.985538920154443D+02 0.182524820840930D+02 0.654054230186518D+02
 0.000000000000000D+00 0.000000000000000D+00 0.000000000000000D+00 -.000000000000000D+00
 0.232127775957432D+03 0.000000000000000D+00 0.000000000000000D+00 0.232127775957432D+03
 0.252782023929684D+03 0.000000000000000D+00 0.000000000000000D+00 -.252782023929684D+03
 0.214157228289110D+03 -.137185649857198D+03 -.845017546651163D+02 -.654054230186518D+02
 0.135780513694811D+03 0.699958503365353D+02 -.307214604249743D+02 0.654054230186518D+02
 0.134972057903195D+03 0.671897995206627D+02 0.115223215090091D+03 -.206542479722520D+02
0.377077869138D-03 0.000000000000D+00 0.000000000000D+00 0.141002667557D-02 0.000000000000D+00  5 -1 1 25 23 21 0 0.19646025D-01 0.31524081D-01 0.21863403D+05 0.21863403D+05 0.21863403D+05 0.12295895D+01  1  2  2  2  5  2        1 0.108233009630D+00 0.100000000000D+01
-.207432331292D-04 0.000000000000D+00 -.144807830437D-05 0.141002667557D-02 0.000000000000D+00  5 -1 1 25 23 21 2 0.19646025D-01 0.31524081D-01 0.21863403D+05 0.21863403D+05 0.21863403D+05 0.12295895D+01  1  2  3  2  5  2        1 -.900171800425D-02 0.100000000000D+01
0.259966611975D-04 0.000000000000D+00 0.000000000000D+00 0.141002667557D-02 0.000000000000D+00  5 -1 1 25 23 21 2 0.19646025D-01 0.31524081D-01 0.21863403D+05 0.21863403D+05 0.21863403D+05 0.12295895D+01  1  2 15  2  5  2        1 0.112814917373D-01 0.100000000000D+01
-.657901053339D-04 0.000000000000D+00 -.135254476334D-03 0.141002667557D-02 0.000000000000D+00  5 -1 1 25 23 21 2 0.19646025D-01 0.68125812D-01 0.21863403D+05 0.21863403D+05 0.21863403D+05 0.12295895D+01  1  2  5  2  5  2        1 -.109073638912D-01 0.100000000000D+01
0.298799852374D-05 0.000000000000D+00 -.112846067117D-04 0.141002667557D-02 0.000000000000D+00  5 -1 21 25 23 -1 2 0.19646025D-01 0.68125812D-01 0.21863403D+05 0.21863403D+05 0.21863403D+05 0.12295895D+01  1  2  5  4  5  2        1 0.169111996334D-02 0.100000000000D+01
  </mgrwgt>
  </event>
  <event>
  4     66 0.43907321E-03 0.13646932E+03 0.75467711E-02 0.12129519E+00
       -1 -1    0    0    0  501 0.00000000E+00 0.00000000E+00 0.10106568E+03 0.10106619E+03 0.32000000E+00 0.0000E+00 0.9000E+01
        1 -1    0    0  501    0 0.00000000E+00 0.00000000E+00 -.18492566E+03 0.18492594E+03 0.32000000E+00 0.0000E+00 0.9000E+01
       25  1    1    2    0    0 0.81762437E+02 0.12164158E+02 -.37581078E+02 0.15450049E+03 0.12500000E+03 0.0000E+00 0.9000E+01
       23  1    1    2    0    0 -.81762437E+02 -.12164158E+02 -.46278900E+02 0.13149164E+03 0.91188000E+02 0.0000E+00 0.9000E+01
#aMCatNLO 1  0  0  1  2 0.75189660D+01 0.00000000D+00  -5  5  0 0.00000000D+00 0.00000000D+00 0.00000000D+00 0.00000000D+00 0.00000000D+00
  <mgrwgt>
 0.3956014859D-01    6    2    0
 0.136710459794046D+03 0.000000000000000D+00 0.000000000000000D+00 0.136710459794046D+03
 0.136710459794046D+03 0.000000000000000D+00 0.000000000000000D+00 -.136710459794046D+03
 0.150077667882974D+03 0.817624373338226D+02 0.121641579678249D+02 0.807734482108701D+01
 0.123343251705118D+03 -.817624373338226D+02 -.121641579678249D+02 -.807734482108701D+01
 0.000000000000000D+00 -.000000000000000D+00 0.000000000000000D+00 -.000000000000000D+00
 0.138398549082691D+03 0.000000000000000D+00 0.000000000000000D+00 0.138398549082691D+03
 0.145399182525014D+03 0.000000000000000D+00 0.000000000000000D+00 -.145399182525014D+03
 0.150108322605737D+03 0.823228316492982D+02 0.807566748885942D+01 0.807734482108701D+01
 0.123415961725203D+03 -.813017813909105D+02 -.155249833449999D+02 -.807734482108701D+01
 0.102734472767650D+02 -.102105025838770D+01 0.744931585614045D+01 -.700063344232304D+01
0.224552196601D-03 0.000000000000D+00 0.000000000000D+00 0.186271836513D-02 0.000000000000D+00  5 -1 1 25 23 21 0 0.15548627D-01 0.28450162D-01 0.18623874D+05 0.18623874D+05 0.18623874D+05 0.12372491D+01  1  2  2  1  5  1       -1 0.105758344391D+00 0.100000000000D+01
-.124750747574D-04 0.000000000000D+00 -.862339560899D-06 0.186271836513D-02 0.000000000000D+00  5 -1 1 25 23 21 2 0.15548627D-01 0.28450162D-01 0.18623874D+05 0.18623874D+05 0.18623874D+05 0.12372491D+01  1  2  3  1  5  1       -1 -.899403934294D-02 0.100000000000D+01
0.155524094862D-04 0.000000000000D+00 0.000000000000D+00 0.186271836513D-02 0.000000000000D+00  5 -1 1 25 23 21 2 0.15548627D-01 0.28450162D-01 0.18623874D+05 0.18623874D+05 0.18623874D+05 0.12372491D+01  1  2 15  1  5  1       -1 0.112126769191D-01 0.100000000000D+01
-.970793801559D-04 0.000000000000D+00 0.000000000000D+00 0.186271836513D-02 0.000000000000D+00  5 -1 1 25 23 21 2 0.15548627D-01 0.28450162D-01 0.18623874D+05 0.18623874D+05 0.18623874D+05 0.12372491D+01  1  2  4  1  5  1       -1 -.699904234235D-01 0.100000000000D+01
0.173484950926D-05 0.000000000000D+00 0.000000000000D+00 0.186271836513D-02 0.268374493717D-03  5 -1 1 25 23 21 2 0.15740620D-01 0.30258330D-01 0.19678642D+05 0.19678642D+05 0.19678642D+05 0.12346013D+01  1  2 11  1  5  1       -1 0.113310895353D-02 0.100000000000D+01
0.497395028069D-07 0.000000000000D+00 0.000000000000D+00 0.186271836513D-02 0.627575707627D-06  5 21 1 25 23 1 2 0.15740620D-01 0.30258330D-01 0.19678642D+05 0.19678642D+05 0.19678642D+05 0.12346013D+01  1  2 11  3  5  1       -1 0.440481096515D-03 0.100000000000D+01
  </mgrwgt>
  </event>
  <event>
  4     66 0.43907321E-03 0.51018488E+02 0.75467711E-02 0.11546541E+00
       -3 -1    0    0    0  501 0.00000000E+00 0.00000000E+00 0.31112718E+03 0.31112758E+03 0.50000000E+00 0.0000E+00 0.9000E+01
        3 -1    0    0  501    0 0.00000000E+00 0.00000000E+00 -.91505270E+02 0.91506636E+02 0.50000000E+00 0.0000E+00 0.9000E+01
       25  1    1    2    0    0 0.76087997E+02 0.55513351E+02 0.22186934E+03 0.27151817E+03 0.12500000E+03 0.0000E+00 0.9000E+01
       23  1    1    2    0    0 -.76087997E+02 -.55513351E+02 -.22474253E+01 0.13111605E+03 0.91188000E+02 0.0000E+00 0.9000E+01
#aMCatNLO 1  0  0  1  2 0.89408904D+02 0.00000000D+00  -5  5  0 0.00000000D+00 0.00000000D+00 0.00000000D+00 0.00000000D+00 0.00000000D+00
  <mgrwgt>
 0.1598052326D-01    7    2    0
 0.168730947217204D+03 0.000000000000000D+00 0.000000000000000D+00 0.168730947217204D+03
 0.168730947217204D+03 0.000000000000000D+00 0.000000000000000D+00 -.168730947217204D+03
 0.179561427304817D+03 0.760879970186350D+02 0.555133509822141D+02 0.880124465525237D+02
 0.157900467129591D+03 -.760879970186350D+02 -.555133509822141D+02 -.880124465525237D+02
 0.000000000000000D+00 -.000000000000000D+00 0.000000000000000D+00 0.000000000000000D+00
 0.313253372720194D+03 0.000000000000000D+00 0.000000000000000D+00 0.313253372720194D+03
 0.188961262429586D+03 0.000000000000000D+00 0.000000000000000D+00 -.188961262429586D+03
 0.205596841165085D+03 0.126234155995448D+03 0.544408689223203D+02 0.880124465525237D+02
 0.143508418550033D+03 -.368456929176250D+02 -.563526309589057D+02 -.880124465525237D+02
 0.153109375434663D+03 -.893884630778224D+02 0.191176203658536D+01 0.124292110290608D+03
0.515617257094D-03 0.000000000000D+00 0.000000000000D+00 0.122173190579D-02 0.000000000000D+00  5 -3 3 25 23 21 0 0.47865856D-01 0.14077870D-01 0.20679753D+05 0.20679753D+05 0.20679753D+05 0.12322312D+01  1  2  2  1  5  1       -3 0.217906930296D-01 0.100000000000D+01
-.277554587203D-04 0.000000000000D+00 -.198010603238D-05 0.122173190579D-02 0.000000000000D+00  5 -3 3 25 23 21 2 0.47865856D-01 0.14077870D-01 0.20679753D+05 0.20679753D+05 0.20679753D+05 0.12322312D+01  1  2  3  1  5  1       -3 -.178105129532D-02 0.100000000000D+01
0.355053972088D-04 0.000000000000D+00 0.000000000000D+00 0.122173190579D-02 0.000000000000D+00  5 -3 3 25 23 21 2 0.47865856D-01 0.14077870D-01 0.20679753D+05 0.20679753D+05 0.20679753D+05 0.12322312D+01  1  2 15  1  5  1       -3 0.227836024354D-02 0.100000000000D+01
0.173203295406D-03 0.000000000000D+00 0.000000000000D+00 0.122173190579D-02 0.000000000000D+00  5 -3 3 25 23 21 2 0.89540398D-01 0.14077870D-01 0.37745888D+05 0.37745888D+05 0.37745888D+05 0.12045668D+01  1  2 12  1  5  1       -3 0.294455474176D-02 0.100000000000D+01
-.430453170164D-03 0.000000000000D+00 -.149418697010D-03 0.122173190579D-02 0.000000000000D+00  5 -3 3 25 23 21 2 0.95809406D-01 0.14077870D-01 0.20679753D+05 0.20679753D+05 0.20679753D+05 0.12322312D+01  1  2  5  1  5  1       -3 -.638610891536D-02 0.100000000000D+01
0.118118541054D-04 0.000000000000D+00 0.000000000000D+00 0.122173190579D-02 0.000000000000D+00  5 21 3 25 23 3 2 0.89540398D-01 0.14077870D-01 0.37745888D+05 0.37745888D+05 0.37745888D+05 0.12045668D+01  1  2 12  3  5  1       -3 0.371466337782D-02 0.100000000000D+01
-.233497446532D-04 0.000000000000D+00 -.112191347608D-04 0.122173190579D-02 0.000000000000D+00  5 21 3 25 23 3 2 0.95809406D-01 0.14077870D-01 0.20679753D+05 0.20679753D+05 0.20679753D+05 0.12322312D+01  1  2  5  3  5  1       -3 -.658058792347D-02 0.100000000000D+01
  </mgrwgt>
  </event>
  <event>
  5     66 0.43907321E-03 0.17630061E+03 0.75467711E-02 0.10618529E+00
       -3 -1    0    0    0  501 0.00000000E+00 0.00000000E+00 0.52719164E+03 0.52719188E+03 0.50000000E+00 0.0000E+00 0.9000E+01
       21 -1    0    0  501  502 0.00000000E+00 0.00000000E+00 -.26742013E+03 0.26742118E+03 0.75000000E+00 0.0000E+00 0.9000E+01
       25  1    1    2    0    0 0.31488562E+01 0.61157958E+02 -.35858635E+02 0.14373953E+03 0.12500000E+03 0.0000E+00 0.9000E+01
       23  1    1    2    0    0 0.24973134E+03 -.13891842E+03 0.82403855E+02 0.31107831E+03 0.91188000E+02 0.0000E+00 0.9000E+01
       -3  1    1    2    0  502 -.25288020E+03 0.77760464E+02 0.21322629E+03 0.33979521E+03 0.50000000E+00 0.0000E+00 0.9000E+01
#aMCatNLO 2  0  0  2  2 0.26456584D+03 0.00000000D+00  -5  5  0 0.00000000D+00 0.00000000D+00 0.00000000D+00 0.00000000D+00 0.00000000D+00
  <mgrwgt>
 0.4597342950D-02    1    2    0
 0.183505947563403D+03 0.000000000000000D+00 0.000000000000000D+00 0.183505947563403D+03
 0.183505947563403D+03 0.000000000000000D+00 0.000000000000000D+00 -.183505947563403D+03
 0.193464410426677D+03 -.102285043974350D+03 0.935788006324240D+02 -.508355776312623D+02
 0.173547484700130D+03 0.102285043974350D+03 -.935788006324240D+02 0.508355776312623D+02
 0.000000000000000D+00 -.000000000000000D+00 0.000000000000000D+00 0.000000000000000D+00
 0.475737906248588D+03 0.000000000000000D+00 0.000000000000000D+00 0.475737906248588D+03
 0.296343852878645D+03 0.000000000000000D+00 0.000000000000000D+00 -.296343852878645D+03
 0.148187270377336D+03 0.314885617489945D+01 0.611579582194459D+02 -.508355776312623D+02
 0.304242630535494D+03 0.249731341277797D+03 -.138918422542315D+03 0.508355776312623D+02
 0.319651858214403D+03 -.252880197452697D+03 0.777604643228694D+02 0.179394053369943D+03
0.869933269470D-04 0.000000000000D+00 0.000000000000D+00 0.141733933975D-02 0.282578280712D-07  5 -3 21 25 23 -3 2 0.81106458D-01 0.41141633D-01 0.12380766D+06 0.12380766D+06 0.12380766D+06 0.11551466D+01  1  2  1  4  5  2        3 0.459734294978D-02 0.100000000000D+01
  </mgrwgt>
  </event>
  <event>
  4     66 0.43907321E-03 0.15880474E+03 0.75467711E-02 0.10953988E+00
       -1 -1    0    0    0  501 0.00000000E+00 0.00000000E+00 0.82634253E+02 0.82634873E+02 0.32000000E+00 0.0000E+00 0.9000E+01
        1 -1    0    0  501    0 0.00000000E+00 0.00000000E+00 -.32250293E+03 0.32250309E+03 0.32000000E+00 0.0000E+00 0.9000E+01
       25  1    1    2    0    0 -.49535664E+02 0.10453448E+03 -.81335038E+02 0.18873693E+03 0.12500000E+03 0.0000E+00 0.9000E+01
       23  1    1    2    0    0 0.49535664E+02 -.10453448E+03 -.15853364E+03 0.21640103E+03 0.91188000E+02 0.0000E+00 0.9000E+01
#aMCatNLO 1  0  0  2  1 0.19087851D+03 0.00000000D+00  -5  5  0 0.00000000D+00 0.00000000D+00 0.00000000D+00 0.00000000D+00 0.00000000D+00
  <mgrwgt>
 0.1378637656D+00    5    2    0
 0.163248112778213D+03 0.000000000000000D+00 0.000000000000000D+00 0.163248112778213D+03
 0.163248112778213D+03 0.000000000000000D+00 0.000000000000000D+00 -.163248112778213D+03
 0.174442344263650D+03 -.495356641889299D+02 0.104534483715997D+03 0.377344823707619D+02
 0.152053881292777D+03 0.495356641889299D+02 -.104534483715997D+03 -.377344823707619D+02
 0.000000000000000D+00 0.000000000000000D+00 0.000000000000000D+00 -.000000000000000D+00
 0.256716159761140D+03 0.000000000000000D+00 0.000000000000000D+00 0.256716159761140D+03
 0.323809485892787D+03 0.000000000000000D+00 0.000000000000000D+00 -.323809485892787D+03
 0.230614749323039D+03 -.159249706264171D+03 0.103796929146839D+03 0.377344823707619D+02
 0.147584129090391D+03 -.316244927346882D+02 -.105080084292189D+03 -.377344823707619D+02
 0.202326767240498D+03 0.190874198998859D+03 0.128315514534955D+01 -.670933261316467D+02
0.409343718227D-03 0.000000000000D+00 0.000000000000D+00 0.155266506857D-02 0.000000000000D+00  5 -1 1 25 23 21 0 0.12713022D-01 0.49615895D-01 0.25218945D+05 0.25218945D+05 0.25218945D+05 0.12228918D+01  1  2  2  2  5  2        1 0.133387248994D+00 0.100000000000D+01
-.227202612882D-04 0.000000000000D+00 -.157198766067D-05 0.155266506857D-02 0.000000000000D+00  5 -1 1 25 23 21 2 0.12713022D-01 0.49615895D-01 0.25218945D+05 0.25218945D+05 0.25218945D+05 0.12228918D+01  1  2  3  2  5  2        1 -.110717330847D-01 0.100000000000D+01
0.282147893828D-04 0.000000000000D+00 0.000000000000D+00 0.155266506857D-02 0.000000000000D+00  5 -1 1 25 23 21 2 0.12713022D-01 0.49615895D-01 0.25218945D+05 0.25218945D+05 0.25218945D+05 0.12228918D+01  1  2 15  2  5  2        1 0.137492528421D-01 0.100000000000D+01
0.147489347253D-05 0.000000000000D+00 -.145395183541D-03 0.155266506857D-02 0.000000000000D+00  5 -1 1 25 23 21 2 0.12713022D-01 0.14103805D+00 0.25218945D+05 0.25218945D+05 0.25218945D+05 0.12228918D+01  1  2  5  2  5  2        1 0.172343457332D-03 0.100000000000D+01
0.812072045942D-05 0.000000000000D+00 -.171067943084D-04 0.155266506857D-02 0.000000000000D+00  5 -1 21 25 23 -1 2 0.12713022D-01 0.14103805D+00 0.25218945D+05 0.25218945D+05 0.25218945D+05 0.12228918D+01  1  2  5  4  5  2        1 0.162665341974D-02 0.100000000000D+01
  </mgrwgt>
  </event>
  <event>
  4     66 0.43907321E-03 0.24372748E+02 0.75467711E-02 0.12582196E+00
       -1 -1    0    0    0  501 0.00000000E+00 0.00000000E+00 0.18435662E+02 0.18438439E+02 0.32000000E+00 0.0000E+00 0.9000E+01
        1 -1    0    0  501    0 0.00000000E+00 0.00000000E+00 -.67326620E+03 0.67326627E+03 0.32000000E+00 0.0000E+00 0.9000E+01
       25  1    1    2    0    0 0.17992951E+02 -.15613572E+02 -.33830543E+03 0.36144584E+03 0.12500000E+03 0.0000E+00 0.9000E+01
       23  1    1    2    0    0 -.17992951E+02 0.15613572E+02 -.31652510E+03 0.33025887E+03 0.91188000E+02 0.0000E+00 0.9000E+01
#aMCatNLO 1  0  0  2  1 0.10571214D+01 0.00000000D+00  -5  5  0 0.00000000D+00 0.00000000D+00 0.00000000D+00 0.00000000D+00 0.00000000D+00
  <mgrwgt>
 0.2120963718D+00   11    2    0
 0.111414067717060D+03 0.000000000000000D+00 0.000000000000000D+00 0.111414067717060D+03
 0.111414067717060D+03 0.000000000000000D+00 0.000000000000000D+00 -.111414067717060D+03
 0.127816279766626D+03 0.179929507388867D+02 -.156135716572963D+02 0.120196288291694D+02
 0.950118556674931D+02 -.179929507388867D+02 0.156135716572963D+02 -.120196288291694D+02
 0.000000000000000D+00 0.000000000000000D+00 0.000000000000000D+00 -.000000000000000D+00
 0.111608692711842D+03 0.000000000000000D+00 0.000000000000000D+00 0.111608692711842D+03
 0.112860088820056D+03 0.000000000000000D+00 0.000000000000000D+00 -.112860088820056D+03
 0.127844193249670D+03 0.177138454551814D+02 -.161519642662423D+02 0.120196288291694D+02
 0.949864497211117D+02 -.182003724427715D+02 0.152134562928576D+02 -.120196288291694D+02
 0.163813856111541D+01 0.486526987590133D+00 0.938507973384641D+00 -.125139610821402D+01
0.684639999462D-04 0.000000000000D+00 0.000000000000D+00 0.234276367102D-02 0.000000000000D+00  5 -1 1 25 23 21 0 0.28364751D-02 0.10357963D+00 0.12265383D+05 0.12265383D+05 0.12265383D+05 0.12579123D+01  1  2  2  2  5  2        1 0.787799756209D-01 0.100000000000D+01
-.380338987142D-05 0.000000000000D+00 -.262919786778D-06 0.234276367102D-02 0.000000000000D+00  5 -1 1 25 23 21 2 0.28364751D-02 0.10357963D+00 0.12265383D+05 0.12265383D+05 0.12265383D+05 0.12579123D+01  1  2  3  2  5  2        1 -.692508511215D-02 0.100000000000D+01
0.473312397365D-05 0.000000000000D+00 0.000000000000D+00 0.234276367102D-02 0.000000000000D+00  5 -1 1 25 23 21 2 0.28364751D-02 0.10357963D+00 0.12265383D+05 0.12265383D+05 0.12265383D+05 0.12579123D+01  1  2 15  2  5  2        1 0.861791387997D-02 0.100000000000D+01
0.127194438291D-08 0.000000000000D+00 0.000000000000D+00 0.234276367102D-02 0.000000000000D+00  5 -1 1 25 23 21 2 0.28364751D-02 0.10501377D+00 0.12383008D+05 0.12383008D+05 0.12383008D+05 0.12574281D+01  1  2 12  2  5  2        1 0.227071962417D-05 0.100000000000D+01
-.305823669771D-02 0.000000000000D+00 0.000000000000D+00 0.234276367102D-02 0.000000000000D+00  5 -1 1 25 23 21 2 0.28364751D-02 0.10357963D+00 0.12265383D+05 0.12265383D+05 0.12265383D+05 0.12579123D+01  1  2  4  2  5  2        1 -.556833512753D+01 0.100000000000D+01
-.811845396136D-02 0.000000000000D+00 -.674270949549D-03 0.234276367102D-02 0.000000000000D+00  5 -1 1 25 23 21 2 0.28364751D-02 0.10502979D+00 0.12265383D+05 0.12265383D+05 0.12265383D+05 0.12579123D+01  1  2  5  2  5  2        1 -.144963577606D+02 0.100000000000D+01
0.812710819801D-02 0.000000000000D+00 0.674205786141D-03 0.234276367102D-02 0.000000000000D+00  5 -1 1 25 23 21 2 0.28364751D-02 0.10357963D+00 0.12265383D+05 0.12265383D+05 0.12265383D+05 0.12579123D+01  1  2  6  2  5  2        1 0.147975668784D+02 0.100000000000D+01
0.305849353380D-02 0.000000000000D+00 0.000000000000D+00 0.234276367102D-02 0.176799248658D-01  5 -1 1 25 23 21 2 0.28414300D-02 0.10492397D+00 0.12383008D+05 0.12383008D+05 0.12383008D+05 0.12574281D+01  1  2 11  2  5  2        1 0.545291784951D+01 0.100000000000D+01
0.114309354521D-09 0.000000000000D+00 0.000000000000D+00 0.234276367102D-02 0.000000000000D+00  5 -1 21 25 23 -1 2 0.28364751D-02 0.10501377D+00 0.12383008D+05 0.12383008D+05 0.12383008D+05 0.12574281D+01  1  2 12  4  5  2        1 0.473793026910D-06 0.100000000000D+01
-.206811058762D-04 0.000000000000D+00 -.172163999829D-05 0.234276367102D-02 0.000000000000D+00  5 -1 21 25 23 -1 2 0.28364751D-02 0.10502979D+00 0.12265383D+05 0.12265383D+05 0.12265383D+05 0.12579123D+01  1  2  5  4  5  2        1 -.857499142647D-01 0.100000000000D+01
0.762272561881D-05 0.000000000000D+00 0.000000000000D+00 0.234276367102D-02 0.419739769472D-04  5 -1 21 25 23 -1 2 0.28414300D-02 0.10492397D+00 0.12383008D+05 0.12383008D+05 0.12383008D+05 0.12574281D+01  1  2 11  4  5  2        1 0.315788974127D-01 0.100000000000D+01
  </mgrwgt>
  </event>
  <event>
  4     66 0.43907321E-03 0.16310352E+03 0.75467711E-02 0.10923897E+00
       -1 -1    0    0    0  501 0.00000000E+00 0.00000000E+00 0.36426382E+03 0.36426397E+03 0.32000000E+00 0.0000E+00 0.9000E+01
        1 -1    0    0  501    0 0.00000000E+00 0.00000000E+00 -.93539532E+02 0.93540080E+02 0.32000000E+00 0.0000E+00 0.9000E+01
       25  1    1    2    0    0 0.94062473E+02 0.76879230E+02 0.24960513E+03 0.30444357E+03 0.12500000E+03 0.0000E+00 0.9000E+01
       23  1    1    2    0    0 -.94062473E+02 -.76879230E+02 0.21119159E+02 0.15336047E+03 0.91188000E+02 0.0000E+00 0.9000E+01
#aMCatNLO 1  0  0  1  1 0.19654431D+03 0.00000000D+00  -5  5  0 0.00000000D+00 0.00000000D+00 0.00000000D+00 0.00000000D+00 0.00000000D+00
  <mgrwgt>
 0.1561274450D+00    3    2    0
 0.184589342121967D+03 0.000000000000000D+00 0.000000000000000D+00 0.184589342121967D+03
 0.184589342121967D+03 0.000000000000000D+00 0.000000000000000D+00 -.184589342121967D+03
 0.194489356624389D+03 0.940624727523927D+02 0.768792304722274D+02 0.862725042054088D+02
 0.174689327619545D+03 -.940624727523927D+02 -.768792304722274D+02 -.862725042054088D+02
 0.000000000000000D+00 -.000000000000000D+00 -.000000000000000D+00 -.000000000000000D+00
 0.223939484750478D+03 0.000000000000000D+00 0.000000000000000D+00 0.223939484750478D+03
 0.860732954324621D+03 0.000000000000000D+00 0.000000000000000D+00 -.860732954324621D+03
 0.273739011867346D+03 0.127066374563066D+03 0.188995338809287D+03 0.862725042054088D+02
 0.144498441861353D+03 -.715639602486566D+02 -.450519716705458D+00 -.862725042054088D+02
 0.666434985346401D+03 -.555024143144091D+02 -.188544819092582D+03 -.636793469574143D+03
0.118658566083D-02 0.000000000000D+00 0.000000000000D+00 0.122455802667D-02 0.000000000000D+00  5 -1 1 25 23 21 0 0.56040641D-01 0.14390750D-01 0.26602757D+05 0.26602757D+05 0.26602757D+05 0.12204149D+01  1  2  2  1  5  1       -1 0.152846619162D+00 0.100000000000D+01
-.646940201625D-04 0.000000000000D+00 -.455680137278D-05 0.122455802667D-02 0.000000000000D+00  5 -1 1 25 23 21 2 0.56040641D-01 0.14390750D-01 0.26602757D+05 0.26602757D+05 0.26602757D+05 0.12204149D+01  1  2  3  1  5  1       -1 -.124118313136D-01 0.100000000000D+01
0.817946240458D-04 0.000000000000D+00 0.000000000000D+00 0.122455802667D-02 0.000000000000D+00  5 -1 1 25 23 21 2 0.56040641D-01 0.14390750D-01 0.26602757D+05 0.26602757D+05 0.26602757D+05 0.12204149D+01  1  2 15  1  5  1       -1 0.156926571184D-01 0.100000000000D+01
  </mgrwgt>
  </event>
  <event>
  4     66 0.43907321E-03 0.14235635E+03 0.75467711E-02 0.10752515E+00
       -1 -1    0    0    0  501 0.00000000E+00 0.00000000E+00 0.34225809E+02 0.34227305E+02 0.32000000E+00 0.0000E+00 0.9000E+01
        1 -1    0    0  501    0 0.00000000E+00 0.00000000E+00 -.22540436E+04 0.22540436E+04 0.32000000E+00 0.0000E+00 0.9000E+01
       25  1    1    2    0    0 0.18379555E+03 0.17657096E+03 -.12030344E+04 0.12360724E+04 0.12500000E+03 0.0000E+00 0.9000E+01
       23  1    1    2    0    0 -.18379555E+03 -.17657096E+03 -.10167833E+04 0.10521985E+04 0.91188000E+02 0.0000E+00 0.9000E+01
#aMCatNLO 1  0  0  2  1 0.81255070D+02 0.00000000D+00  -5  5  0 0.00000000D+00 0.00000000D+00 0.00000000D+00 0.00000000D+00 0.00000000D+00
  <mgrwgt>
 0.2820337908D+00    9    2    0
 0.277755651903192D+03 0.000000000000000D+00 0.000000000000000D+00 0.277755651903192D+03
 0.277755651903192D+03 0.000000000000000D+00 0.000000000000000D+00 -.277755651903192D+03
 0.284334949755380D+03 0.183795551449015D+03 0.176570962240562D+03 -.162251105817296D+02
 0.271176354051003D+03 -.183795551449015D+03 -.176570962240562D+03 0.162251105817296D+02
 0.000000000000000D+00 0.000000000000000D+00 0.000000000000000D+00 -.000000000000000D+00
 0.314661671550583D+03 0.000000000000000D+00 0.000000000000000D+00 0.314661671550583D+03
 0.329329072164923D+03 0.000000000000000D+00 0.000000000000000D+00 -.329329072164923D+03
 0.255987532275887D+03 0.145230756253068D+03 0.168965647116420D+03 -.162251105817296D+02
 0.305434942397584D+03 -.224950412286218D+03 -.184687060976904D+03 0.162251105817296D+02
 0.825682690420347D+02 0.797196560331495D+02 0.157214138604844D+02 -.146674006143396D+02
0.366535487037D-02 0.000000000000D+00 0.000000000000D+00 0.130909808244D-02 0.000000000000D+00  5 -1 1 25 23 21 0 0.52656259D-02 0.34677605D+00 0.76884800D+05 0.76884800D+05 0.76884800D+05 0.11742066D+01  1  2  2  2  5  2        1 0.137288883498D+00 0.100000000000D+01
-.203630102133D-03 0.000000000000D+00 -.140759278123D-04 0.130909808244D-02 0.000000000000D+00  5 -1 1 25 23 21 2 0.52656259D-02 0.34677605D+00 0.76884800D+05 0.76884800D+05 0.76884800D+05 0.11742066D+01  1  2  3  2  5  2        1 -.105159948219D-01 0.100000000000D+01
0.252150107803D-03 0.000000000000D+00 0.000000000000D+00 0.130909808244D-02 0.000000000000D+00  5 -1 1 25 23 21 2 0.52656259D-02 0.34677605D+00 0.76884800D+05 0.76884800D+05 0.76884800D+05 0.11742066D+01  1  2 15  2  5  2        1 0.130216957131D-01 0.100000000000D+01
0.244825554662D-02 0.000000000000D+00 0.000000000000D+00 0.130909808244D-02 0.000000000000D+00  5 -1 1 25 23 21 2 0.52656259D-02 0.43057897D+00 0.10295486D+06 0.10295486D+06 0.10295486D+06 0.11624117D+01  1  2 12  2  5  2        1 0.530386584969D-01 0.100000000000D+01
-.232902081708D-02 0.000000000000D+00 0.000000000000D+00 0.130909808244D-02 0.000000000000D+00  5 -1 1 25 23 21 2 0.52656259D-02 0.34677605D+00 0.76884800D+05 0.76884800D+05 0.76884800D+05 0.11742066D+01  1  2  4  2  5  2        1 -.120276769476D+00 0.100000000000D+01
-.661279035907D-02 0.000000000000D+00 -.189082976744D-02 0.130909808244D-02 0.000000000000D+00  5 -1 1 25 23 21 2 0.52656259D-02 0.43168327D+00 0.76884800D+05 0.76884800D+05 0.76884800D+05 0.11742066D+01  1  2  5  2  5  2        1 -.146070715418D+00 0.100000000000D+01
0.690509572277D-02 0.000000000000D+00 0.184637035320D-02 0.130909808244D-02 0.000000000000D+00  5 -1 1 25 23 21 2 0.52656259D-02 0.34677605D+00 0.76884800D+05 0.76884800D+05 0.76884800D+05 0.11742066D+01  1  2  6  2  5  2        1 0.356597330674D+00 0.100000000000D+01
0.744073293261D-04 0.000000000000D+00 0.000000000000D+00 0.130909808244D-02 0.000000000000D+00  5 -1 21 25 23 -1 2 0.52656259D-02 0.43057897D+00 0.10295486D+06 0.10295486D+06 0.10295486D+06 0.11624117D+01  1  2 12  4  5  2        1 0.709436074564D-03 0.100000000000D+01
-.177346022044D-03 0.000000000000D+00 -.579787502726D-04 0.130909808244D-02 0.000000000000D+00  5 -1 21 25 23 -1 2 0.52656259D-02 0.43168327D+00 0.76884800D+05 0.76884800D+05 0.76884800D+05 0.11742066D+01  1  2  5  4  5  2        1 -.175873394678D-02 0.100000000000D+01
  </mgrwgt>
  </event>
  <event>
  4     66 0.43907321E-03 0.88464411E+02 0.75467711E-02 0.11370035E+00
       -1 -1    0    0    0  501 0.00000000E+00 0.00000000E+00 0.46036553E+02 0.46037665E+02 0.32000000E+00 0.0000E+00 0.9000E+01
        1 -1    0    0  501    0 0.00000000E+00 0.00000000E+00 -.59453933E+03 0.59453942E+03 0.32000000E+00 0.0000E+00 0.9000E+01
       25  1    1    2    0    0 -.38677913E+02 -.98983352E+02 -.16666307E+03 0.23387018E+03 0.12500000E+03 0.0000E+00 0.9000E+01
       23  1    1    2    0    0 0.38677913E+02 0.98983352E+02 -.38183971E+03 0.40670690E+03 0.91188000E+02 0.0000E+00 0.9000E+01
#aMCatNLO 1  0  0  2  1 0.10873142D+03 0.00000000D+00  -5  5  0 0.00000000D+00 0.00000000D+00 0.00000000D+00 0.00000000D+00 0.00000000D+00
  <mgrwgt>
 0.1036567851D+00    7    2    0
 0.165441606458753D+03 0.000000000000000D+00 0.000000000000000D+00 0.165441606458753D+03
 0.165441606458753D+03 0.000000000000000D+00 0.000000000000000D+00 -.165441606458753D+03
 0.176487420163757D+03 -.386779126950439D+02 -.989833518375003D+02 0.650317199882235D+02
 0.154395792753749D+03 0.386779126950439D+02 0.989833518375003D+02 -.650317199882235D+02
 0.000000000000000D+00 -.000000000000000D+00 -.000000000000000D+00 -.000000000000000D+00
 0.193014508813192D+03 0.000000000000000D+00 0.000000000000000D+00 0.193014508813192D+03
 0.330782250987994D+03 0.000000000000000D+00 0.000000000000000D+00 -.330782250987994D+03
 0.164468590052076D+03 0.137266513696725D+02 -.837100445064191D+02 0.650317199882235D+02
 0.183821838017181D+03 0.906615908485160D+02 0.114133991992764D+03 -.650317199882235D+02
 0.175506331731929D+03 -.104388242218188D+03 -.304239474863449D+02 -.137767742174802D+03
0.381974016442D-03 0.000000000000D+00 0.000000000000D+00 0.140036275992D-02 0.000000000000D+00  5 -1 1 25 23 21 0 0.70826387D-02 0.91467682D-01 0.23119363D+05 0.23119363D+05 0.23119363D+05 0.12269559D+01  1  2  2  2  5  2        1 0.138002138930D+00 0.100000000000D+01
-.210369626683D-04 0.000000000000D+00 -.146688079921D-05 0.140036275992D-02 0.000000000000D+00  5 -1 1 25 23 21 2 0.70826387D-02 0.91467682D-01 0.23119363D+05 0.23119363D+05 0.23119363D+05 0.12269559D+01  1  2  3  2  5  2        1 -.114417620281D-01 0.100000000000D+01
0.263305141308D-04 0.000000000000D+00 0.000000000000D+00 0.140036275992D-02 0.000000000000D+00  5 -1 1 25 23 21 2 0.70826387D-02 0.91467682D-01 0.23119363D+05 0.23119363D+05 0.23119363D+05 0.12269559D+01  1  2 15  2  5  2        1 0.143208637820D-01 0.100000000000D+01
0.646916979325D-04 0.000000000000D+00 0.000000000000D+00 0.140036275992D-02 0.000000000000D+00  5 -1 1 25 23 21 2 0.70826387D-02 0.18360794D+00 0.46597929D+05 0.46597929D+05 0.46597929D+05 0.11953245D+01  1  2 12  2  5  2        1 0.111280122552D-01 0.100000000000D+01
-.294296365223D-03 0.000000000000D+00 -.128497861994D-03 0.140036275992D-02 0.000000000000D+00  5 -1 1 25 23 21 2 0.70826387D-02 0.19790396D+00 0.23119363D+05 0.23119363D+05 0.23119363D+05 0.12269559D+01  1  2  5  2  5  2        1 -.461888774046D-01 0.100000000000D+01
0.487684850660D-05 0.000000000000D+00 0.000000000000D+00 0.140036275992D-02 0.000000000000D+00  5 -1 21 25 23 -1 2 0.70826387D-02 0.18360794D+00 0.46597929D+05 0.46597929D+05 0.46597929D+05 0.11953245D+01  1  2 12  4  5  2        1 0.109298178310D-02 0.100000000000D+01
-.165367093188D-04 0.000000000000D+00 -.107381576986D-04 0.140036275992D-02 0.000000000000D+00  5 -1 21 25 23 -1 2 0.70826387D-02 0.19790396D+00 0.23119363D+05 0.23119363D+05 0.23119363D+05 0.12269559D+01  1  2  5  4  5  2        1 -.325657223913D-02 0.100000000000D+01
  </mgrwgt>
  </event>
  <event>
  4     66 0.43907321E-03 0.26806171E+03 0.75467711E-02 0.10509602E+00
       -1 -1    0    0    0  501 0.00000000E+00 0.00000000E+00 0.12789052E+04 0.12789052E+04 0.32000000E+00 0.0000E+00 0.9000E+01
        1 -1    0    0  501    0 0.00000000E+00 0.00000000E+00 -.56267241E+02 0.56268151E+02 0.32000000E+00 0.0000E+00 0.9000E+01
       25  1    1    2    0    0 -.80836656E+02 -.23108194E+03 0.65221640E+03 0.70777444E+03 0.12500000E+03 0.0000E+00 0.9000E+01
       23  1    1    2    0    0 0.80836656E+02 0.23108194E+03 0.57042151E+03 0.62739890E+03 0.91188000E+02 0.0000E+00 0.9000E+01
#aMCatNLO 1  0  0  1  1 0.19079743D+03 0.00000000D+00  -5  5  0 0.00000000D+00 0.00000000D+00 0.00000000D+00 0.00000000D+00 0.00000000D+00
  <mgrwgt>
 0.1226337932D+00    3    2    0
 0.268255659840021D+03 0.000000000000000D+00 0.000000000000000D+00 0.268255659840021D+03
 0.268255659840021D+03 0.000000000000000D+00 0.000000000000000D+00 -.268255659840021D+03
 0.275067956606060D+03 -.808366564149903D+02 -.231081942855051D+03 0.101956567916567D+02
 0.261443363073981D+03 0.808366564149903D+02 0.231081942855051D+03 -.101956567916567D+02
 0.000000000000000D+00 -.000000000000000D+00 0.000000000000000D+00 -.000000000000000D+00
 0.323102664964070D+03 0.000000000000000D+00 0.000000000000000D+00 0.323102664964070D+03
 0.521786362213052D+03 0.000000000000000D+00 0.000000000000000D+00 -.521786362213052D+03
 0.310163728742316D+03 0.537807646992225D+01 -.283625921776215D+03 0.101956567916567D+02
 0.259264102538348D+03 0.157545857544835D+03 0.184331155462294D+03 -.101956567916567D+02
 0.275461195896457D+03 -.162923934014757D+03 0.992947663139205D+02 -.198683697248982D+03
0.876984217241D-02 0.000000000000D+00 0.000000000000D+00 0.132230112694D-02 0.000000000000D+00  5 -1 1 25 23 21 0 0.19675471D+00 0.86565717D-02 0.71857080D+05 0.71857080D+05 0.71857080D+05 0.11769916D+01  1  2  2  1  5  1       -1 0.120385326978D+00 0.100000000000D+01
-.487213144142D-03 0.000000000000D+00 -.336785030945D-04 0.132230112694D-02 0.000000000000D+00  5 -1 1 25 23 21 2 0.19675471D+00 0.86565717D-02 0.71857080D+05 0.71857080D+05 0.71857080D+05 0.11769916D+01  1  2  3  1  5  1       -1 -.926504445104D-02 0.100000000000D+01
0.605451358285D-03 0.000000000000D+00 0.000000000000D+00 0.132230112694D-02 0.000000000000D+00  5 -1 1 25 23 21 2 0.19675471D+00 0.86565717D-02 0.71857080D+05 0.71857080D+05 0.71857080D+05 0.11769916D+01  1  2 15  1  5  1       -1 0.115135106984D-01 0.100000000000D+01
  </mgrwgt>
  </event>
  <event>
  4     66 0.43907321E-03 0.14131953E+03 0.75467711E-02 0.10586469E+00
       -1 -1    0    0    0  501 0.00000000E+00 0.00000000E+00 0.59718233E+02 0.59719090E+02 0.32000000E+00 0.0000E+00 0.9000E+01
        1 -1    0    0  501    0 0.00000000E+00 0.00000000E+00 -.88860570E+03 0.88860576E+03 0.32000000E+00 0.0000E+00 0.9000E+01
       25  1    1    2    0    0 -.48984787E+02 0.75952558E+02 -.54851183E+02 0.16371302E+03 0.12500000E+03 0.0000E+00 0.9000E+01
       23  1    1    2    0    0 0.48984787E+02 -.75952558E+02 -.77403629E+03 0.78461183E+03 0.91188000E+02 0.0000E+00 0.9000E+01
#aMCatNLO 1  0  0  2  1 0.31464938D+03 0.00000000D+00  -5  5  0 0.00000000D+00 0.00000000D+00 0.00000000D+00 0.00000000D+00 0.00000000D+00
  <mgrwgt>
 0.1058039049D+00    3    2    0
 0.230361446449618D+03 0.000000000000000D+00 0.000000000000000D+00 0.230361446449618D+03
 0.230361446449618D+03 0.000000000000000D+00 0.000000000000000D+00 -.230361446449618D+03
 0.238294358801771D+03 -.489847871889074D+02 0.759525584396971D+02 0.181633975145811D+03
 0.222428534097465D+03 0.489847871889074D+02 -.759525584396971D+02 -.181633975145811D+03
 0.000000000000000D+00 0.000000000000000D+00 -.000000000000000D+00 0.000000000000000D+00
 0.456352557039336D+03 0.000000000000000D+00 0.000000000000000D+00 0.456352557039336D+03
 0.418483106673879D+03 0.000000000000000D+00 0.000000000000000D+00 -.418483106673879D+03
 0.344148542953259D+03 -.710592526626165D+02 0.254505208788764D+03 0.181633975145811D+03
 0.213767056378665D+03 0.324530645552625D+02 0.577667787097607D+02 -.181633975145811D+03
 0.316920064381290D+03 0.386061881073540D+02 -.312271987498525D+03 0.378694503654568D+02
0.748718969982D-03 0.000000000000D+00 0.000000000000D+00 0.593285563431D-03 0.000000000000D+00  5 -1 1 25 23 21 0 0.91874908D-02 0.13670864D+00 0.19971209D+05 0.19971209D+05 0.19971209D+05 0.12338949D+01  1  2  2  2  5  2        1 0.101315530495D+00 0.100000000000D+01
-.295206649481D-04 0.000000000000D+00 -.287527798696D-05 0.593285563431D-03 0.000000000000D+00  5 -1 1 25 23 21 2 0.91874908D-02 0.13670864D+00 0.19971209D+05 0.19971209D+05 0.19971209D+05 0.12338949D+01  1  2  3  2  5  2        1 -.608190567116D-02 0.100000000000D+01
0.513065663931D-04 0.000000000000D+00 0.000000000000D+00 0.593285563431D-03 0.000000000000D+00  5 -1 1 25 23 21 2 0.91874908D-02 0.13670864D+00 0.19971209D+05 0.19971209D+05 0.19971209D+05 0.12338949D+01  1  2 15  2  5  2        1 0.105702800957D-01 0.100000000000D+01
  </mgrwgt>
  </event>
  <event>
  5     66 0.43907321E-03 0.13903677E+03 0.75467711E-02 0.11645286E+00
       -1 -1    0    0    0  501 0.00000000E+00 0.00000000E+00 0.16213818E+03 0.16213850E+03 0.32000000E+00 0.0000E+00 0.9000E+01
       21 -1    0    0  501  502 0.00000000E+00 0.00000000E+00 -.22526415E+03 0.22526539E+03 0.75000000E+00 0.0000E+00 0.9000E+01
       25  1    1    2    0    0 0.82214164E+02 0.54369127E+02 -.81273739E+02 0.17873330E+03 0.12500000E+03 0.0000E+00 0.9000E+01
       23  1    1    2    0    0 -.89094485E+02 0.23378195E+02 0.15915735E+02 0.13058686E+03 0.91188000E+02 0.0000E+00 0.9000E+01
       -1  1    1    2    0  502 0.68803214E+01 -.77747321E+02 0.22320417E+01 0.78083732E+02 0.32000000E+00 0.0000E+00 0.9000E+01
#aMCatNLO 2  0  0  2  1 0.78051168D+02 0.00000000D+00  -5  5  0 0.00000000D+00 0.00000000D+00 0.00000000D+00 0.00000000D+00 0.00000000D+00
  <mgrwgt>
 0.1642127611D-01    1    2    0
 0.146043922253306D+03 0.000000000000000D+00 0.000000000000000D+00 0.146043922253306D+03
 0.146043922253306D+03 0.000000000000000D+00 0.000000000000000D+00 -.146043922253306D+03
 0.158556850801133D+03 0.859626437681012D+02 0.120114735455113D+02 -.445131813695308D+02
 0.133530993705479D+03 -.859626437681012D+02 -.120114735455113D+02 0.445131813695308D+02
 0.000000000000000D+00 0.000000000000000D+00 -.000000000000000D+00 0.000000000000000D+00
 0.200934553599595D+03 0.000000000000000D+00 0.000000000000000D+00 0.200934553599595D+03
 0.181771122556807D+03 0.000000000000000D+00 0.000000000000000D+00 -.181771122556807D+03
 0.165292449940939D+03 0.822141639035871D+02 0.543691267676364D+02 -.445131813695308D+02
 0.137043941702941D+03 -.890944853218628D+02 0.233781946068270D+02 0.445131813695308D+02
 0.803692845125212D+02 0.688032141827570D+01 -.777473213744634D+02 0.191634310427883D+02
0.109757338763D-04 0.000000000000D+00 0.000000000000D+00 0.163011881357D-02 0.992041261621D-07  5 -1 21 25 23 -1 2 0.24944414D-01 0.34656084D-01 0.33644817D+05 0.33644817D+05 0.33644817D+05 0.12097065D+01  1  2  1  4  5  2        1 0.164212761059D-01 0.100000000000D+01
  </mgrwgt>
  </event>
  <event>
  4     66 0.43907321E-03 0.54330999E+02 0.75467711E-02 0.12341127E+00
       -1 -1    0    0    0  501 0.00000000E+00 0.00000000E+00 0.14105245E+02 0.14108874E+02 0.32000000E+00 0.0000E+00 0.9000E+01
        1 -1    0    0  501    0 0.00000000E+00 0.00000000E+00 -.12415871E+04 0.12415871E+04 0.32000000E+00 0.0000E+00 0.9000E+01
       25  1    1    2    0    0 0.35275314E+02 -.30374241E+02 -.96118024E+03 0.97039136E+03 0.12500000E+03 0.0000E+00 0.9000E+01
       23  1    1    2    0    0 -.35275314E+02 0.30374241E+02 -.26630158E+03 0.28530462E+03 0.91188000E+02 0.0000E+00 0.9000E+01
#aMCatNLO 1  0  0  2  1 0.15071595D+02 0.00000000D+00  -5  5  0 0.00000000D+00 0.00000000D+00 0.00000000D+00 0.00000000D+00 0.00000000D+00
  <mgrwgt>
 0.3066867008D+00    9    2    0
 0.132344981567082D+03 0.000000000000000D+00 0.000000000000000D+00 0.132344981567082D+03
 0.132344981567082D+03 0.000000000000000D+00 0.000000000000000D+00 -.132344981567082D+03
 0.146153114995048D+03 0.352753142106606D+02 -.303742405490146D+02 -.597393567187122D+02
 0.118536848139116D+03 -.352753142106606D+02 0.303742405490146D+02 0.597393567187122D+02
 0.000000000000000D+00 0.000000000000000D+00 0.000000000000000D+00 -.000000000000000D+00
 0.138907885130121D+03 0.000000000000000D+00 0.000000000000000D+00 0.138907885130121D+03
 0.141504453751400D+03 0.000000000000000D+00 0.000000000000000D+00 -.141504453751400D+03
 0.147831258253850D+03 0.341420976139695D+02 -.386601519173051D+02 -.597393567187122D+02
 0.117287450155032D+03 -.361843421490392D+02 0.237275633377050D+02 0.597393567187122D+02
 0.152936304726391D+02 0.204224453506966D+01 0.149325885796001D+02 -.259656862127897D+01
0.174617179925D-03 0.000000000000D+00 0.000000000000D+00 0.161942176499D-02 0.000000000000D+00  5 -1 1 25 23 21 0 0.21703200D-02 0.19101368D+00 0.13896758D+05 0.13896758D+05 0.13896758D+05 0.12516227D+01  1  2  2  2  5  2        1 0.110338952365D+00 0.100000000000D+01
-.954304356240D-05 0.000000000000D+00 -.670575948671D-06 0.161942176499D-02 0.000000000000D+00  5 -1 1 25 23 21 2 0.21703200D-02 0.19101368D+00 0.13896758D+05 0.13896758D+05 0.13896758D+05 0.12516227D+01  1  2  3  2  5  2        1 -.944660225295D-02 0.100000000000D+01
0.120232347996D-04 0.000000000000D+00 0.000000000000D+00 0.161942176499D-02 0.000000000000D+00  5 -1 1 25 23 21 2 0.21703200D-02 0.19101368D+00 0.13896758D+05 0.13896758D+05 0.13896758D+05 0.12516227D+01  1  2 15  2  5  2        1 0.119017288565D-01 0.100000000000D+01
0.339462023748D-03 0.000000000000D+00 0.000000000000D+00 0.161942176499D-02 0.000000000000D+00  5 -1 1 25 23 21 2 0.21703200D-02 0.20868943D+00 0.15778893D+05 0.15778893D+05 0.15778893D+05 0.12453240D+01  1  2 12  2  5  2        1 0.279633869839D+00 0.100000000000D+01
-.294047059843D-03 0.000000000000D+00 0.000000000000D+00 0.161942176499D-02 0.000000000000D+00  5 -1 1 25 23 21 2 0.21703200D-02 0.19101368D+00 0.13896758D+05 0.13896758D+05 0.13896758D+05 0.12516227D+01  1  2  4  2  5  2        1 -.291075441480D+00 0.100000000000D+01
-.114392568645D-02 0.000000000000D+00 -.232363258371D-03 0.161942176499D-02 0.000000000000D+00  5 -1 1 25 23 21 2 0.21703200D-02 0.21051743D+00 0.13896758D+05 0.13896758D+05 0.13896758D+05 0.12516227D+01  1  2  5  2  5  2        1 -.932760736885D+00 0.100000000000D+01
0.116211401523D-02 0.000000000000D+00 0.231269372666D-03 0.161942176499D-02 0.000000000000D+00  5 -1 1 25 23 21 2 0.21703200D-02 0.19101368D+00 0.13896758D+05 0.13896758D+05 0.13896758D+05 0.12516227D+01  1  2  6  2  5  2        1 0.115036977487D+01 0.100000000000D+01
0.495722091355D-05 0.000000000000D+00 0.000000000000D+00 0.161942176499D-02 0.000000000000D+00  5 -1 21 25 23 -1 2 0.21703200D-02 0.20868943D+00 0.15778893D+05 0.15778893D+05 0.15778893D+05 0.12453240D+01  1  2 12  4  5  2        1 0.497022525787D-02 0.100000000000D+01
-.174055586657D-04 0.000000000000D+00 -.368324256888D-05 0.161942176499D-02 0.000000000000D+00  5 -1 21 25 23 -1 2 0.21703200D-02 0.21051743D+00 0.13896758D+05 0.13896758D+05 0.13896758D+05 0.12516227D+01  1  2  5  4  5  2        1 -.172450697533D-01 0.100000000000D+01
  </mgrwgt>
  </event>
  <event>
  4     66 0.43907321E-03 0.11751478E+03 0.75467711E-02 0.11247494E+00
       -3 -1    0    0    0  501 0.00000000E+00 0.00000000E+00 0.20667284E+02 0.20673332E+02 0.50000000E+00 0.0000E+00 0.9000E+01
        3 -1    0    0  501    0 0.00000000E+00 0.00000000E+00 -.67970742E+03 0.67970760E+03 0.50000000E+00 0.0000E+00 0.9000E+01
       25  1    1    2    0    0 0.22110945E+02 0.39906486E+02 -.41776928E+03 0.43844907E+03 0.12500000E+03 0.0000E+00 0.9000E+01
       23  1    1    2    0    0 -.22110945E+02 -.39906486E+02 -.24127086E+03 0.26193186E+03 0.91188000E+02 0.0000E+00 0.9000E+01
#aMCatNLO 1  0  0  1  1 0.17346153D+03 0.00000000D+00  -5  5  0 0.00000000D+00 0.00000000D+00 0.00000000D+00 0.00000000D+00 0.00000000D+00
  <mgrwgt>
 0.1564990774D-01    5    2    0
 0.118532225930546D+03 0.000000000000000D+00 0.000000000000000D+00 0.118532225930546D+03
 0.118532225930546D+03 0.000000000000000D+00 0.000000000000000D+00 -.118532225930546D+03
 0.133949443903579D+03 0.221109447603511D+02 0.399064863366644D+02 -.153633327160605D+02
 0.103115007957513D+03 -.221109447603511D+02 -.399064863366644D+02 0.153633327160605D+02
 0.000000000000000D+00 -.000000000000000D+00 -.000000000000000D+00 0.000000000000000D+00
 0.253008688792307D+03 0.000000000000000D+00 0.000000000000000D+00 0.253008688792307D+03
 0.217749140745911D+03 0.000000000000000D+00 0.000000000000000D+00 -.217749140745911D+03
 0.193858618024581D+03 0.117003573271842D+03 0.896119167961297D+02 -.153633327160605D+02
 0.998903494122374D+02 0.366542724506643D+02 -.912484962434822D+01 0.153633327160605D+02
 0.177008862101401D+03 -.153657845722507D+03 -.804870671717815D+02 0.352595480463957D+02
0.141287332912D-03 0.000000000000D+00 0.000000000000D+00 0.215009882110D-02 0.000000000000D+00  5 -3 3 25 23 21 0 0.31800615D-02 0.10457085D+00 0.13809723D+05 0.13809723D+05 0.13809723D+05 0.12519368D+01  1  2  2  1  5  1       -3 0.121480657191D-01 0.100000000000D+01
-.784858701276D-05 0.000000000000D+00 -.542580560190D-06 0.215009882110D-02 0.000000000000D+00  5 -3 3 25 23 21 2 0.31800615D-02 0.10457085D+00 0.13809723D+05 0.13809723D+05 0.13809723D+05 0.12519368D+01  1  2  3  1  5  1       -3 -.105769434530D-02 0.100000000000D+01
0.979307455503D-05 0.000000000000D+00 0.000000000000D+00 0.215009882110D-02 0.000000000000D+00  5 -3 3 25 23 21 2 0.31800615D-02 0.10457085D+00 0.13809723D+05 0.13809723D+05 0.13809723D+05 0.12519368D+01  1  2 15  1  5  1       -3 0.131973813415D-02 0.100000000000D+01
0.435388925039D-04 0.000000000000D+00 -.484884228874D-04 0.215009882110D-02 0.000000000000D+00  5 -3 3 25 23 21 2 0.12669038D-01 0.10457085D+00 0.13809723D+05 0.13809723D+05 0.13809723D+05 0.12519368D+01  1  2  5  1  5  1       -3 0.640596427807D-03 0.100000000000D+01
0.777678618589D-05 0.000000000000D+00 -.799443786252D-05 0.215009882110D-02 0.000000000000D+00  5 21 3 25 23 3 2 0.12669038D-01 0.10457085D+00 0.13809723D+05 0.13809723D+05 0.13809723D+05 0.12519368D+01  1  2  5  3  5  1       -3 0.259920180470D-02 0.100000000000D+01
  </mgrwgt>
  </event>
  <event>
  4     66 0.43907321E-03 0.26562743E+03 0.75467711E-02 0.10215808E+00
       -1 -1    0    0    0  501 0.00000000E+00 0.00000000E+00 0.24369192E+03 0.24369213E+03 0.32000000E+00 0.0000E+00 0.9000E+01
        1 -1    0    0  501    0 0.00000000E+00 0.00000000E+00 -.16274913E+04 0.16274914E+04 0.32000000E+00 0.0000E+00 0.9000E+01
       25  1    1    2    0    0 0.38388971E+03 -.24599005E+02 -.14178187E+04 0.14743851E+04 0.12500000E+03 0.0000E+00 0.9000E+01
       23  1    1    2    0    0 -.38388971E+03 0.24599005E+02 0.34019312E+02 0.39679842E+03 0.91188000E+02 0.0000E+00 0.9000E+01
#aMCatNLO 1  0  0  1  2 0.13642927D+03 0.00000000D+00  -5  5  0 0.00000000D+00 0.00000000D+00 0.00000000D+00 0.00000000D+00 0.00000000D+00
  <mgrwgt>
 0.2982229597D-01    9    2    0
 0.629767192949184D+03 0.000000000000000D+00 0.000000000000000D+00 0.629767192949184D+03
 0.629767192949184D+03 0.000000000000000D+00 0.000000000000000D+00 -.629767192949184D+03
 0.632668959164477D+03 0.383889714229029D+03 -.245990048823771D+02 -.486485958850010D+03
 0.626865426733890D+03 -.383889714229029D+03 0.245990048823771D+02 0.486485958850010D+03
 0.000000000000000D+00 0.000000000000000D+00 0.000000000000000D+00 0.000000000000000D+00
 0.902213826133799D+03 0.000000000000000D+00 0.000000000000000D+00 0.902213826133799D+03
 0.650764360036211D+03 0.000000000000000D+00 0.000000000000000D+00 -.650764360036211D+03
 0.594858389188649D+03 0.317619269317948D+03 -.260943439816571D+02 -.486485958850010D+03
 0.672043270159172D+03 -.454013819698012D+03 0.230167110430872D+02 0.486485958850010D+03
 0.286076526822188D+03 0.136394550380063D+03 0.307763293856992D+01 0.251449466097588D+03
0.818528581183D-02 0.000000000000D+00 0.000000000000D+00 0.491581518907D-03 0.000000000000D+00  5 -1 1 25 23 21 0 0.37491084D-01 0.25038330D+00 0.15992567D+06 0.15992567D+06 0.15992567D+06 0.11452915D+01  1  2  2  1  5  1       -1 0.327128663783D-01 0.100000000000D+01
-.340718294282D-03 0.000000000000D+00 -.314336527527D-04 0.491581518907D-03 0.000000000000D+00  5 -1 1 25 23 21 2 0.37491084D-01 0.25038330D+00 0.15992567D+06 0.15992567D+06 0.15992567D+06 0.11452915D+01  1  2  3  1  5  1       -1 -.178612679905D-02 0.100000000000D+01
0.554132361474D-03 0.000000000000D+00 0.000000000000D+00 0.491581518907D-03 0.000000000000D+00  5 -1 1 25 23 21 2 0.37491084D-01 0.25038330D+00 0.15992567D+06 0.15992567D+06 0.15992567D+06 0.11452915D+01  1  2 15  1  5  1       -1 0.290489438830D-02 0.100000000000D+01
0.178892595249D-01 0.000000000000D+00 0.000000000000D+00 0.491581518907D-03 0.000000000000D+00  5 -1 1 25 23 21 2 0.54126313D-01 0.25038330D+00 0.22203363D+06 0.22203363D+06 0.22203363D+06 0.11330297D+01  1  2 12  1  5  1       -1 0.459741626313D-01 0.100000000000D+01
-.196046006420D-01 0.000000000000D+00 0.000000000000D+00 0.491581518907D-03 0.000000000000D+00  5 -1 1 25 23 21 2 0.37491084D-01 0.25038330D+00 0.15992567D+06 0.15992567D+06 0.15992567D+06 0.11452915D+01  1  2  4  1  5  1       -1 -.102772006021D+00 0.100000000000D+01
-.206442650995D-01 0.000000000000D+00 -.325218649208D-02 0.491581518907D-03 0.000000000000D+00  5 -1 1 25 23 21 2 0.54864422D-01 0.25038330D+00 0.15992567D+06 0.15992567D+06 0.15992567D+06 0.11452915D+01  1  2  5  1  5  1       -1 -.537396015873D-01 0.100000000000D+01
0.205939040869D-01 0.000000000000D+00 0.302988426826D-02 0.491581518907D-03 0.000000000000D+00  5 -1 1 25 23 21 2 0.37491084D-01 0.25038330D+00 0.15992567D+06 0.15992567D+06 0.15992567D+06 0.11452915D+01  1  2  6  1  5  1       -1 0.107958171322D+00 0.100000000000D+01
0.800087550243D-03 0.000000000000D+00 0.000000000000D+00 0.491581518907D-03 0.000000000000D+00  5 21 1 25 23 1 2 0.54126313D-01 0.25038330D+00 0.22203363D+06 0.22203363D+06 0.22203363D+06 0.11330297D+01  1  2 12  3  5  1       -1 0.192893595341D-01 0.100000000000D+01
-.844179083468D-03 0.000000000000D+00 -.149327530368D-03 0.491581518907D-03 0.000000000000D+00  5 21 1 25 23 1 2 0.54864422D-01 0.25038330D+00 0.15992567D+06 0.15992567D+06 0.15992567D+06 0.11452915D+01  1  2  5  3  5  1       -1 -.207194238736D-01 0.100000000000D+01
  </mgrwgt>
  </event>
  <event>
  4     66 0.43907321E-03 0.10912466E+03 0.75467711E-02 0.12248083E+00
       -1 -1    0    0    0  501 0.00000000E+00 0.00000000E+00 0.46119116E+02 0.46120226E+02 0.32000000E+00 0.0000E+00 0.9000E+01
        1 -1    0    0  501    0 0.00000000E+00 0.00000000E+00 -.27460240E+03 0.27460259E+03 0.32000000E+00 0.0000E+00 0.9000E+01
       25  1    1    2    0    0 -.14351267E+02 0.35419874E+01 -.91971098E+02 0.15589159E+03 0.12500000E+03 0.0000E+00 0.9000E+01
       23  1    1    2    0    0 0.14351267E+02 -.35419874E+01 -.13651219E+03 0.16483123E+03 0.91188000E+02 0.0000E+00 0.9000E+01
#aMCatNLO 1  0  0  1  2 0.41412546D+02 0.00000000D+00  -5  5  0 0.00000000D+00 0.00000000D+00 0.00000000D+00 0.00000000D+00 0.00000000D+00
  <mgrwgt>
 0.1513575078D+00    4    2    0
 0.112537229940488D+03 0.000000000000000D+00 0.000000000000000D+00 0.112537229940488D+03
 0.112537229940488D+03 0.000000000000000D+00 0.000000000000000D+00 -.112537229940488D+03
 0.128775741986380D+03 -.143512665393008D+02 0.354198743755575D+01 0.271971909919568D+02
 0.962987178945952D+02 0.143512665393008D+02 -.354198743755575D+01 -.271971909919568D+02
 0.000000000000000D+00 -.000000000000000D+00 -.000000000000000D+00 -.000000000000000D+00
 0.120340875776317D+03 0.000000000000000D+00 0.000000000000000D+00 0.120340875776317D+03
 0.186916645800360D+03 0.000000000000000D+00 0.000000000000000D+00 -.186916645800360D+03
 0.128328596440613D+03 0.908136985421834D+01 0.459022746011822D+01 0.271971909919568D+02
 0.100524001178816D+03 0.322898016812920D+02 -.273952158752536D+01 -.271971909919568D+02
 0.784049239572477D+02 -.413711715355104D+02 -.185070587259286D+01 -.665757700240435D+02
0.173092914164D-03 0.000000000000D+00 0.000000000000D+00 0.223176758673D-02 0.000000000000D+00  5 -1 1 25 23 21 0 0.70953484D-02 0.42246623D-01 0.11908191D+05 0.11908191D+05 0.11908191D+05 0.12594152D+01  1  2  2  1  5  1       -1 0.163317417978D+00 0.100000000000D+01
-.960518639901D-05 0.000000000000D+00 -.664722366800D-06 0.223176758673D-02 0.000000000000D+00  5 -1 1 25 23 21 2 0.70953484D-02 0.42246623D-01 0.11908191D+05 0.11908191D+05 0.11908191D+05 0.12594152D+01  1  2  3  1  5  1       -1 -.143746367373D-01 0.100000000000D+01
0.119100907325D-04 0.000000000000D+00 0.000000000000D+00 0.223176758673D-02 0.000000000000D+00  5 -1 1 25 23 21 2 0.70953484D-02 0.42246623D-01 0.11908191D+05 0.11908191D+05 0.11908191D+05 0.12594152D+01  1  2 15  1  5  1       -1 0.178240401255D-01 0.100000000000D+01
-.102965613558D-04 0.000000000000D+00 0.000000000000D+00 0.223176758673D-02 0.000000000000D+00  5 -1 1 25 23 21 2 0.70953484D-02 0.42246623D-01 0.11908191D+05 0.11908191D+05 0.11908191D+05 0.12594152D+01  1  2  4  1  5  1       -1 -.154093135713D-01 0.100000000000D+01
  </mgrwgt>
  </event>
  <event>
  5     66 0.43907321E-03 0.11028157E+03 0.75467711E-02 0.12414820E+00
       -1 -1    0    0    0  501 0.00000000E+00 0.00000000E+00 0.76100166E+02 0.76100839E+02 0.32000000E+00 0.0000E+00 0.9000E+01
        1 -1    0    0  502    0 0.00000000E+00 0.00000000E+00 -.20753684E+03 0.20753708E+03 0.32000000E+00 0.0000E+00 0.9000E+01
       25  1    1    2    0    0 -.75520548E+00 0.32894175E+02 -.10002453E+03 0.16343960E+03 0.12500000E+03 0.0000E+00 0.9000E+01
       23  1    1    2    0    0 -.45319809E+01 -.13115746E+02 -.36321655E+02 0.99131607E+02 0.91188000E+02 0.0000E+00 0.9000E+01
       21  1    1    2  502  501 0.52871864E+01 -.19778429E+02 0.49095124E+01 0.21066713E+02 0.75000000E+00 0.0000E+00 0.9000E+01
#aMCatNLO 2  0  0  2  1 0.20472923D+02 0.00000000D+00  -5  5  0 0.00000000D+00 0.00000000D+00 0.00000000D+00 0.00000000D+00 0.00000000D+00
  <mgrwgt>
 0.3400161503D-01    1    2    0
 0.111729827713827D+03 0.000000000000000D+00 0.000000000000000D+00 0.111729827713827D+03
 0.111729827713827D+03 0.000000000000000D+00 0.000000000000000D+00 -.111729827713827D+03
 0.128085685423378D+03 0.229717550108426D+01 0.214757579879405D+02 -.177329527698371D+02
 0.953739700042765D+02 -.229717550108426D+01 -.214757579879405D+02 0.177329527698371D+02
 0.000000000000000D+00 0.000000000000000D+00 -.000000000000000D+00 0.000000000000000D+00
 0.135281535802546D+03 0.000000000000000D+00 0.000000000000000D+00 0.135281535802546D+03
 0.116737113392154D+03 0.000000000000000D+00 0.000000000000000D+00 -.116737113392154D+03
 0.130468596629558D+03 -.755205481437755D+00 0.328941751261505D+02 -.177329527698371D+02
 0.939269429557940D+02 -.453198090482950D+01 -.131157464203133D+02 0.177329527698371D+02
 0.276231096093484D+02 0.528718638626725D+01 -.197784287058372D+02 0.185444224103923D+02
0.346330145454D-04 0.000000000000D+00 0.000000000000D+00 0.231060482759D-02 0.467290870681D-04  5 -1 1 25 23 21 2 0.11707291D-01 0.31927458D-01 0.14637201D+05 0.14637201D+05 0.14637201D+05 0.12490366D+01  1  2  1  2  5  2        1 0.340016150318D-01 0.100000000000D+01
  </mgrwgt>
  </event>
  <event>
  5     66 0.43907321E-03 0.12763312E+03 0.75467711E-02 0.11820001E+00
       -1 -1    0    0    0  501 0.00000000E+00 0.00000000E+00 0.18048784E+02 0.18051620E+02 0.32000000E+00 0.0000E+00 0.9000E+01
        1 -1    0    0  502    0 0.00000000E+00 0.00000000E+00 -.16969426E+04 0.16969426E+04 0.32000000E+00 0.0000E+00 0.9000E+01
       25  1    1    2    0    0 -.49918695E+01 0.10685728E+03 -.10275122E+04 0.10406006E+04 0.12500000E+03 0.0000E+00 0.9000E+01
       23  1    1    2    0    0 -.15534510E+01 -.38553011E+02 -.28681972E+03 0.30342965E+03 0.91188000E+02 0.0000E+00 0.9000E+01
       21  1    1    2  502  501 0.65453205E+01 -.68304267E+02 -.36456191E+03 0.37096396E+03 0.75000000E+00 0.0000E+00 0.9000E+01
#aMCatNLO 2  0  0  2  1 0.68617156D+02 0.00000000D+00  -5  5  0 0.00000000D+00 0.00000000D+00 0.00000000D+00 0.00000000D+00 0.00000000D+00
  <mgrwgt>
 0.3128515657D-01    1    2    0
 0.136235766732790D+03 0.000000000000000D+00 0.000000000000000D+00 0.136235766732790D+03
 0.136235766732790D+03 0.000000000000000D+00 0.000000000000000D+00 -.136235766732790D+03
 0.149649550850028D+03 -.119724338365514D+01 0.672581236165349D+02 -.473803702547614D+02
 0.122821982615552D+03 0.119724338365514D+01 -.672581236165349D+02 0.473803702547614D+02
 0.000000000000000D+00 0.000000000000000D+00 -.000000000000000D+00 -.000000000000000D+00
 0.170772551414113D+03 0.000000000000000D+00 0.000000000000000D+00 0.170772551414113D+03
 0.179358417721839D+03 0.000000000000000D+00 0.000000000000000D+00 -.179358417721839D+03
 0.171211261495837D+03 -.499186947709745D+01 0.106857277789776D+03 -.473803702547614D+02
 0.109767475521442D+03 -.155345097647406D+01 -.385530108154448D+02 0.473803702547614D+02
 0.691522321186728D+02 0.654532045357151D+01 -.683042669743312D+02 -.858586630772647D+01
0.938084057133D-04 0.000000000000D+00 0.000000000000D+00 0.169417646673D-02 0.302622097089D-05  5 -1 1 25 23 21 2 0.27769241D-02 0.26106527D+00 0.27582078D+05 0.27582078D+05 0.27582078D+05 0.12187474D+01  1  2  1  2  5  2        1 0.312851565658D-01 0.100000000000D+01
  </mgrwgt>
  </event>
  <event>
  4     66 0.43907321E-03 0.11057948E+03 0.75467711E-02 0.12551798E+00
       -1 -1    0    0    0  501 0.00000000E+00 0.00000000E+00 0.31234649E+02 0.31236288E+02 0.32000000E+00 0.0000E+00 0.9000E+01
        1 -1    0    0  501    0 0.00000000E+00 0.00000000E+00 -.45368989E+03 0.45369000E+03 0.32000000E+00 0.0000E+00 0.9000E+01
       25  1    1    2    0    0 0.21545827E+02 0.81598085E+01 -.14954567E+03 0.19626439E+03 0.12500000E+03 0.0000E+00 0.9000E+01
       23  1    1    2    0    0 -.21545827E+02 -.81598085E+01 -.27290957E+03 0.28866189E+03 0.91188000E+02 0.0000E+00 0.9000E+01
#aMCatNLO 1  0  0  2  2 0.47214497D+01 0.00000000D+00  -5  5  0 0.00000000D+00 0.00000000D+00 0.00000000D+00 0.00000000D+00 0.00000000D+00
  <mgrwgt>
 0.7068116391D-01    6    2    0
 0.119043140033780D+03 0.000000000000000D+00 0.000000000000000D+00 0.119043140033780D+03
 0.119043140033780D+03 0.000000000000000D+00 0.000000000000000D+00 -.119043140033780D+03
 0.134394189774920D+03 0.215458267877181D+02 0.815980845921440D+01 0.436576811019520D+02
 0.103692090292641D+03 -.215458267877181D+02 -.815980845921440D+01 -.436576811019520D+02
 0.000000000000000D+00 0.000000000000000D+00 -.000000000000000D+00 0.000000000000000D+00
 0.122630720133599D+03 0.000000000000000D+00 0.000000000000000D+00 0.122630720133599D+03
 0.120630167232761D+03 0.000000000000000D+00 0.000000000000000D+00 -.120630167232761D+03
 0.134542610878233D+03 0.213015895762429D+02 0.108149574320550D+02 0.436576811019520D+02
 0.103590479733008D+03 -.217340721924657D+02 -.611335701949060D+01 -.436576811019520D+02
 0.512779675511930D+01 0.432482616222796D+00 -.470160041256438D+01 0.200055290083805D+01
0.119198614995D-03 0.000000000000D+00 0.000000000000D+00 0.194923278722D-02 0.000000000000D+00  5 -1 1 25 23 21 0 0.48054654D-02 0.69798579D-01 0.12227822D+05 0.12227822D+05 0.12227822D+05 0.12580680D+01  1  2  2  2  5  2        1 0.107410921922D+00 0.100000000000D+01
-.657835067327D-05 0.000000000000D+00 -.457754067299D-06 0.194923278722D-02 0.000000000000D+00  5 -1 1 25 23 21 2 0.48054654D-02 0.69798579D-01 0.12227822D+05 0.12227822D+05 0.12227822D+05 0.12580680D+01  1  2  3  2  5  2        1 -.938215202421D-02 0.100000000000D+01
0.818322936711D-05 0.000000000000D+00 0.000000000000D+00 0.194923278722D-02 0.000000000000D+00  5 -1 1 25 23 21 2 0.48054654D-02 0.69798579D-01 0.12227822D+05 0.12227822D+05 0.12227822D+05 0.12580680D+01  1  2 15  2  5  2        1 0.116710564372D-01 0.100000000000D+01
-.186972638137D-03 0.000000000000D+00 0.000000000000D+00 0.194923278722D-02 0.000000000000D+00  5 -1 1 25 23 21 2 0.48054654D-02 0.69798579D-01 0.12227822D+05 0.12227822D+05 0.12227822D+05 0.12580680D+01  1  2  4  2  5  2        1 -.266663454488D+00 0.100000000000D+01
0.163974935614D-03 0.000000000000D+00 0.000000000000D+00 0.194923278722D-02 0.736003741277D-03  5 -1 1 25 23 21 2 0.49502868D-02 0.70729101D-01 0.12760560D+05 0.12760560D+05 0.12760560D+05 0.12559082D+01  1  2 11  2  5  2        1 0.219706156842D+00 0.100000000000D+01
0.176976996058D-05 0.000000000000D+00 0.000000000000D+00 0.194923278722D-02 0.182294852569D-05  5 -1 21 25 23 -1 2 0.49502868D-02 0.70729101D-01 0.12760560D+05 0.12760560D+05 0.12760560D+05 0.12559082D+01  1  2 11  4  5  2        1 0.793863521905D-02 0.100000000000D+01
  </mgrwgt>
  </event>
  <event>
  5     66 0.43907321E-03 0.12563490E+03 0.75467711E-02 0.12037945E+00
       -1 -1    0    0    0  501 0.00000000E+00 0.00000000E+00 0.93114582E+02 0.93115132E+02 0.32000000E+00 0.0000E+00 0.9000E+01
       21 -1    0    0  501  502 0.00000000E+00 0.00000000E+00 -.24266536E+03 0.24266651E+03 0.75000000E+00 0.0000E+00 0.9000E+01
       25  1    1    2    0    0 -.34726939E+02 0.32514167E+02 -.10054962E+03 0.16732710E+03 0.12500000E+03 0.0000E+00 0.9000E+01
       23  1    1    2    0    0 0.31745961E+02 -.72543244E+02 -.32611542E+02 0.12509633E+03 0.91188000E+02 0.0000E+00 0.9000E+01
       -1  1    1    2    0  502 0.29809781E+01 0.40029078E+02 -.16389613E+02 0.43358218E+02 0.32000000E+00 0.0000E+00 0.9000E+01
#aMCatNLO 2  0  0  2  2 0.40139921D+02 0.00000000D+00  -5  5  0 0.00000000D+00 0.00000000D+00 0.00000000D+00 0.00000000D+00 0.00000000D+00
  <mgrwgt>
 0.2028580696D-01    1    2    0
 0.128616050252742D+03 0.000000000000000D+00 0.000000000000000D+00 0.128616050252742D+03
 0.128616050252742D+03 0.000000000000000D+00 0.000000000000000D+00 -.128616050252742D+03
 0.142824519261151D+03 -.331180864183075D+02 0.541181148654088D+02 -.273544383525370D+02
 0.114407581244334D+03 0.331180864183075D+02 -.541181148654088D+02 0.273544383525370D+02
 0.000000000000000D+00 0.000000000000000D+00 0.000000000000000D+00 0.000000000000000D+00
 0.152214612582968D+03 0.000000000000000D+00 0.000000000000000D+00 0.152214612582968D+03
 0.148446845022987D+03 0.000000000000000D+00 0.000000000000000D+00 -.148446845022987D+03
 0.136515188338143D+03 -.347269392825788D+02 0.325141667197535D+02 -.273544383525370D+02
 0.123829903437788D+03 0.317459611916375D+02 -.725432442881365D+02 0.273544383525370D+02
 0.403163658300242D+02 0.298097809094127D+01 0.400290775683831D+02 0.376776755998026D+01
0.622720675081D-05 0.000000000000D+00 0.000000000000D+00 0.191443816210D-02 0.256672673343D-06  5 -1 21 25 23 -1 2 0.14325391D-01 0.37333105D-01 0.21705718D+05 0.21705718D+05 0.21705718D+05 0.12299320D+01  1  2  1  4  5  2        1 0.202858069550D-01 0.100000000000D+01
  </mgrwgt>
  </event>
  <event>
  4     66 0.43907321E-03 0.62990957E+02 0.75467711E-02 0.11749739E+00
       -1 -1    0    0    0  501 0.00000000E+00 0.00000000E+00 0.17315227E+03 0.17315256E+03 0.32000000E+00 0.0000E+00 0.9000E+01
        1 -1    0    0  501    0 0.00000000E+00 0.00000000E+00 -.69580055E+02 0.69580791E+02 0.32000000E+00 0.0000E+00 0.9000E+01
       25  1    1    2    0    0 0.16708393E+01 0.17979701E+02 0.53679761E+02 0.13723184E+03 0.12500000E+03 0.0000E+00 0.9000E+01
       23  1    1    2    0    0 -.16708393E+01 -.17979701E+02 0.49892453E+02 0.10550151E+03 0.91188000E+02 0.0000E+00 0.9000E+01
#aMCatNLO 1  0  0  1  2 0.10323361D+03 0.00000000D+00  -5  5  0 0.00000000D+00 0.00000000D+00 0.00000000D+00 0.00000000D+00 0.00000000D+00
  <mgrwgt>
 0.8950444289D-01    7    2    0
 0.109763698651961D+03 0.000000000000000D+00 0.000000000000000D+00 0.109763698651961D+03
 0.109763698651961D+03 0.000000000000000D+00 0.000000000000000D+00 -.109763698651961D+03
 0.126412528697261D+03 0.167083931295121D+01 0.179797008685471D+02 -.539129523432972D+01
 0.931148686066615D+02 -.167083931295121D+01 -.179797008685471D+02 0.539129523432972D+01
 0.000000000000000D+00 0.000000000000000D+00 -.000000000000000D+00 0.000000000000000D+00
 0.242759966332688D+03 0.000000000000000D+00 0.000000000000000D+00 0.242759966332688D+03
 0.143229125073508D+03 0.000000000000000D+00 0.000000000000000D+00 -.143229125073508D+03
 0.148012730215914D+03 -.496193439261888D+01 0.789245300825329D+02 -.539129523432972D+01
 0.945763385678684D+02 -.620727779038672D+01 0.237030823108164D+02 0.539129523432972D+01
 0.143400022622414D+03 0.111692121830056D+02 -.102627612393349D+03 0.995308412591805D+02
0.143587386157D-03 0.000000000000D+00 0.000000000000D+00 0.240912348782D-02 0.000000000000D+00  5 -1 1 25 23 21 0 0.26638890D-01 0.10704703D-01 0.12018317D+05 0.12018317D+05 0.12018317D+05 0.12589465D+01  1  2  2  1  5  1       -1 0.979444541098D-01 0.100000000000D+01
-.797706218549D-05 0.000000000000D+00 -.551413370271D-06 0.240912348782D-02 0.000000000000D+00  5 -1 1 25 23 21 2 0.26638890D-01 0.10704703D-01 0.12018317D+05 0.12018317D+05 0.12018317D+05 0.12589465D+01  1  2  3  1  5  1       -1 -.862424475187D-02 0.100000000000D+01
0.993831453530D-05 0.000000000000D+00 0.000000000000D+00 0.240912348782D-02 0.000000000000D+00  5 -1 1 25 23 21 2 0.26638890D-01 0.10704703D-01 0.12018317D+05 0.12018317D+05 0.12018317D+05 0.12589465D+01  1  2 15  1  5  1       -1 0.107446143681D-01 0.100000000000D+01
0.360498627424D-06 0.000000000000D+00 0.000000000000D+00 0.240912348782D-02 0.000000000000D+00  5 -1 1 25 23 21 2 0.58665223D-01 0.10704703D-01 0.29854772D+05 0.29854772D+05 0.29854772D+05 0.12151197D+01  1  2 12  1  5  1       -1 0.930200731733D-04 0.100000000000D+01
-.401684285713D-04 0.000000000000D+00 -.416661833934D-04 0.240912348782D-02 0.000000000000D+00  5 -1 1 25 23 21 2 0.73497773D-01 0.10704703D-01 0.12018317D+05 0.12018317D+05 0.12018317D+05 0.12589465D+01  1  2  5  1  5  1       -1 -.707366068965D-02 0.100000000000D+01
0.308505093546D-07 0.000000000000D+00 0.000000000000D+00 0.240912348782D-02 0.000000000000D+00  5 21 1 25 23 1 2 0.58665223D-01 0.10704703D-01 0.29854772D+05 0.29854772D+05 0.29854772D+05 0.12151197D+01  1  2 12  3  5  1       -1 0.772807616983D-04 0.100000000000D+01
-.219762238219D-05 0.000000000000D+00 -.473570782311D-05 0.240912348782D-02 0.000000000000D+00  5 21 1 25 23 1 2 0.73497773D-01 0.10704703D-01 0.12018317D+05 0.12018317D+05 0.12018317D+05 0.12589465D+01  1  2  5  3  5  1       -1 -.365702098277D-02 0.100000000000D+01
  </mgrwgt>
  </event>
  <event>
  4     66 0.43907321E-03 0.33210998E+03 0.75467711E-02 0.90896969E-01
       -1 -1    0    0    0  501 0.00000000E+00 0.00000000E+00 0.63866707E+02 0.63867509E+02 0.32000000E+00 0.0000E+00 0.9000E+01
        1 -1    0    0  501    0 0.00000000E+00 0.00000000E+00 -.17273387E+04 0.17273387E+04 0.32000000E+00 0.0000E+00 0.9000E+01
       25  1    1    2    0    0 0.14853371E+03 0.27621537E+03 -.85848170E+03 0.92248199E+03 0.12500000E+03 0.0000E+00 0.9000E+01
       23  1    1    2    0    0 -.14853371E+03 -.27621537E+03 -.80499026E+03 0.86872422E+03 0.91188000E+02 0.0000E+00 0.9000E+01
#aMCatNLO 1  0  0  1  1 0.11369404D+04 0.00000000D+00  -5  5  0 0.00000000D+00 0.00000000D+00 0.00000000D+00 0.00000000D+00 0.00000000D+00
  <mgrwgt>
 0.1942448400D+00    5    2    0
 0.332144814926826D+03 0.000000000000000D+00 0.000000000000000D+00 0.332144814926826D+03
 0.332144814926826D+03 0.000000000000000D+00 0.000000000000000D+00 -.332144814926826D+03
 0.337646743850216D+03 0.148533713186522D+03 0.276215367959620D+03 -.480938484721965D+01
 0.326642886003435D+03 -.148533713186522D+03 -.276215367959620D+03 0.480938484721965D+01
 0.000000000000000D+00 0.000000000000000D+00 -.000000000000000D+00 0.000000000000000D+00
 0.148162669307078D+04 0.000000000000000D+00 0.000000000000000D+00 0.148162669307078D+04
 0.105093743675014D+04 0.000000000000000D+00 0.000000000000000D+00 -.105093743675014D+04
 0.114146135613318D+04 0.146594793375850D+03 0.112507593695620D+04 -.480938484721965D+01
 0.175320412577312D+03 -.149191722282585D+03 0.118615151657161D+02 0.480938484721965D+01
 0.121578236111043D+04 0.259692890673444D+01 -.113693745212192D+04 0.430689256320640D+03
0.594719966513D-02 0.000000000000D+00 0.000000000000D+00 0.126900263914D-02 0.000000000000D+00  5 -1 1 25 23 21 0 0.98257112D-02 0.26574447D+00 0.11029704D+06 0.11029704D+06 0.11029704D+06 0.11596818D+01  1  2  2  1  5  1       -1 0.187635963115D+00 0.100000000000D+01
-.330399976978D-03 0.000000000000D+00 -.228388126477D-04 0.126900263914D-02 0.000000000000D+00  5 -1 1 25 23 21 2 0.98257112D-02 0.26574447D+00 0.11029704D+06 0.11029704D+06 0.11029704D+06 0.11596818D+01  1  2  3  1  5  1       -1 -.140191356834D-01 0.100000000000D+01
0.406697544902D-03 0.000000000000D+00 0.000000000000D+00 0.126900263914D-02 0.000000000000D+00  5 -1 1 25 23 21 2 0.98257112D-02 0.26574447D+00 0.11029704D+06 0.11029704D+06 0.11029704D+06 0.11596818D+01  1  2 15  1  5  1       -1 0.172565026070D-01 0.100000000000D+01
0.431757135468D-01 0.000000000000D+00 -.115015871506D-01 0.126900263914D-02 0.000000000000D+00  5 -1 1 25 23 21 2 0.30469150D+00 0.26574447D+00 0.11029704D+06 0.11029704D+06 0.11029704D+06 0.11596818D+01  1  2  5  1  5  1       -1 0.103997951857D-02 0.100000000000D+01
0.112782407639D-01 0.000000000000D+00 -.390941483192D-02 0.126900263914D-02 0.000000000000D+00  5 21 1 25 23 1 2 0.30469150D+00 0.26574447D+00 0.11029704D+06 0.11029704D+06 0.11029704D+06 0.11596818D+01  1  2  5  3  5  1       -1 0.233153047970D-02 0.100000000000D+01
  </mgrwgt>
  </event>
  <event>
  4     66 0.43907321E-03 0.59899297E+02 0.75467711E-02 0.11630148E+00
       -1 -1    0    0    0  501 0.00000000E+00 0.00000000E+00 0.12095990E+03 0.12096032E+03 0.32000000E+00 0.0000E+00 0.9000E+01
        1 -1    0    0  501    0 0.00000000E+00 0.00000000E+00 -.19290427E+03 0.19290454E+03 0.32000000E+00 0.0000E+00 0.9000E+01
       25  1    1    2    0    0 0.22551473E+02 0.10463418E+03 -.31531980E+02 0.16755938E+03 0.12500000E+03 0.0000E+00 0.9000E+01
       23  1    1    2    0    0 -.22551473E+02 -.10463418E+03 -.40412389E+02 0.14630548E+03 0.91188000E+02 0.0000E+00 0.9000E+01
#aMCatNLO 1  0  0  2  1 0.59204996D+02 0.00000000D+00  -5  5  0 0.00000000D+00 0.00000000D+00 0.00000000D+00 0.00000000D+00 0.00000000D+00
  <mgrwgt>
 0.1521788177D+00    9    2    0
 0.152754016734537D+03 0.000000000000000D+00 0.000000000000000D+00 0.152754016734537D+03
 0.152754016734537D+03 0.000000000000000D+00 0.000000000000000D+00 -.152754016734537D+03
 0.164717284235226D+03 0.225514732882255D+02 0.104634180321335D+03 0.706421169281853D+01
 0.140790749233848D+03 -.225514732882255D+02 -.104634180321335D+03 -.706421169281853D+01
 0.000000000000000D+00 0.000000000000000D+00 0.000000000000000D+00 -.000000000000000D+00
 0.175146739839036D+03 0.000000000000000D+00 0.000000000000000D+00 0.175146739839036D+03
 0.200418049818748D+03 0.000000000000000D+00 0.000000000000000D+00 -.200418049818748D+03
 0.147207394468142D+03 0.125699849591288D+02 0.764009775944355D+02 0.706421169281853D+01
 0.163984491823615D+03 -.323041819365389D+02 -.132220266817229D+03 -.706421169281853D+01
 0.643729033660270D+02 0.197341969774101D+02 0.558192892227940D+02 -.252713099797123D+02
0.324640630760D-03 0.000000000000D+00 0.000000000000D+00 0.170025925462D-02 0.000000000000D+00  5 -1 1 25 23 21 0 0.18609269D-01 0.29677633D-01 0.23283578D+05 0.23283578D+05 0.23283578D+05 0.12266234D+01  1  2  2  2  5  2        1 0.109747101305D+00 0.100000000000D+01
-.180355651572D-04 0.000000000000D+00 -.124670550196D-05 0.170025925462D-02 0.000000000000D+00  5 -1 1 25 23 21 2 0.18609269D-01 0.29677633D-01 0.23283578D+05 0.23283578D+05 0.23283578D+05 0.12266234D+01  1  2  3  2  5  2        1 -.917365541803D-02 0.100000000000D+01
0.223982506593D-04 0.000000000000D+00 0.000000000000D+00 0.170025925462D-02 0.000000000000D+00  5 -1 1 25 23 21 2 0.18609269D-01 0.29677633D-01 0.23283578D+05 0.23283578D+05 0.23283578D+05 0.12266234D+01  1  2 15  2  5  2        1 0.113927027916D-01 0.100000000000D+01
0.210291813716D-03 0.000000000000D+00 0.000000000000D+00 0.170025925462D-02 0.000000000000D+00  5 -1 1 25 23 21 2 0.18609269D-01 0.40574425D-01 0.34238887D+05 0.34238887D+05 0.34238887D+05 0.12089200D+01  1  2 12  2  5  2        1 0.708944367804D-01 0.100000000000D+01
-.244020261670D-03 0.000000000000D+00 0.000000000000D+00 0.170025925462D-02 0.000000000000D+00  5 -1 1 25 23 21 2 0.18609269D-01 0.29677633D-01 0.23283578D+05 0.23283578D+05 0.23283578D+05 0.12266234D+01  1  2  4  2  5  2        1 -.124119082272D+00 0.100000000000D+01
-.408281594904D-03 0.000000000000D+00 -.158159855304D-03 0.170025925462D-02 0.000000000000D+00  5 -1 1 25 23 21 2 0.18609269D-01 0.44025035D-01 0.23283578D+05 0.23283578D+05 0.23283578D+05 0.12266234D+01  1  2  5  2  5  2        1 -.127208997647D+00 0.100000000000D+01
0.446991791750D-03 0.000000000000D+00 0.146610625821D-03 0.170025925462D-02 0.000000000000D+00  5 -1 1 25 23 21 2 0.18609269D-01 0.29677633D-01 0.23283578D+05 0.23283578D+05 0.23283578D+05 0.12266234D+01  1  2  6  2  5  2        1 0.227359034023D+00 0.100000000000D+01
0.837665167087D-05 0.000000000000D+00 0.000000000000D+00 0.170025925462D-02 0.000000000000D+00  5 -1 21 25 23 -1 2 0.18609269D-01 0.40574425D-01 0.34238887D+05 0.34238887D+05 0.34238887D+05 0.12089200D+01  1  2 12  4  5  2        1 0.147179549774D-01 0.100000000000D+01
-.139380459794D-04 0.000000000000D+00 -.745049178220D-05 0.170025925462D-02 0.000000000000D+00  5 -1 21 25 23 -1 2 0.18609269D-01 0.44025035D-01 0.23283578D+05 0.23283578D+05 0.23283578D+05 0.12266234D+01  1  2  5  4  5  2        1 -.214306768020D-01 0.100000000000D+01
  </mgrwgt>
  </event>
  <event>
  4     66 0.43907321E-03 0.77571523E+02 0.75467711E-02 0.12574750E+00
       -1 -1    0    0    0  501 0.00000000E+00 0.00000000E+00 0.23342779E+03 0.23342801E+03 0.32000000E+00 0.0000E+00 0.9000E+01
        1 -1    0    0  501    0 0.00000000E+00 0.00000000E+00 -.51960986E+02 0.51961971E+02 0.32000000E+00 0.0000E+00 0.9000E+01
       25  1    1    2    0    0 -.19074862E+02 0.74554630E+01 0.10943449E+03 0.16739278E+03 0.12500000E+03 0.0000E+00 0.9000E+01
       23  1    1    2    0    0 0.19074862E+02 -.74554630E+01 0.72032309E+02 0.11799720E+03 0.91188000E+02 0.0000E+00 0.9000E+01
#aMCatNLO 1  0  0  1  2 0.32268055D+01 0.00000000D+00  -5  5  0 0.00000000D+00 0.00000000D+00 0.00000000D+00 0.00000000D+00 0.00000000D+00
  <mgrwgt>
 0.6708945302D-01   11    2    0
 0.110133146576708D+03 0.000000000000000D+00 0.000000000000000D+00 0.110133146576708D+03
 0.110133146576708D+03 0.000000000000000D+00 0.000000000000000D+00 -.110133146576708D+03
 0.126726127171585D+03 -.190748615655780D+02 0.745546300670030D+01 0.388291585260194D+01
 0.935401659818317D+02 0.190748615655780D+02 -.745546300670030D+01 -.388291585260194D+01
 0.000000000000000D+00 0.000000000000000D+00 -.000000000000000D+00 0.000000000000000D+00
 0.112461582275610D+03 0.000000000000000D+00 0.000000000000000D+00 0.112461582275610D+03
 0.111268613764918D+03 0.000000000000000D+00 0.000000000000000D+00 -.111268613764918D+03
 0.126881316829596D+03 -.192951789009868D+02 0.929987075570936D+01 0.388291585260194D+01
 0.934086107047195D+02 0.189124528614498D+02 -.609584293030052D+01 -.388291585260194D+01
 0.344026850621246D+01 0.382726039537044D+00 -.320402782540884D+01 0.119296851069234D+01
0.114463315364D-03 0.000000000000D+00 0.000000000000D+00 0.239945882640D-02 0.000000000000D+00  5 -1 1 25 23 21 0 0.35912060D-01 0.79940905D-02 0.12113882D+05 0.12113882D+05 0.12113882D+05 0.12585436D+01  1  2  2  1  5  1       -1 0.696188171486D-01 0.100000000000D+01
-.635906994470D-05 0.000000000000D+00 -.439569269883D-06 0.239945882640D-02 0.000000000000D+00  5 -1 1 25 23 21 2 0.35912060D-01 0.79940905D-02 0.12113882D+05 0.12113882D+05 0.12113882D+05 0.12585436D+01  1  2  3  1  5  1       -1 -.612619014342D-02 0.100000000000D+01
0.792383543406D-05 0.000000000000D+00 0.000000000000D+00 0.239945882640D-02 0.000000000000D+00  5 -1 1 25 23 21 2 0.35912060D-01 0.79940905D-02 0.12113882D+05 0.12113882D+05 0.12113882D+05 0.12585436D+01  1  2 15  1  5  1       -1 0.763365129749D-02 0.100000000000D+01
0.343921119681D-05 0.000000000000D+00 0.000000000000D+00 0.239945882640D-02 0.000000000000D+00  5 -1 1 25 23 21 2 0.36853506D-01 0.79940905D-02 0.12474273D+05 0.12474273D+05 0.12474273D+05 0.12570560D+01  1  2 12  1  5  1       -1 0.316526853584D-02 0.100000000000D+01
-.747348713057D-03 0.000000000000D+00 0.000000000000D+00 0.239945882640D-02 0.000000000000D+00  5 -1 1 25 23 21 2 0.35912060D-01 0.79940905D-02 0.12113882D+05 0.12113882D+05 0.12113882D+05 0.12585436D+01  1  2  4  1  5  1       -1 -.719979550380D+00 0.100000000000D+01
-.354777678882D-02 0.000000000000D+00 -.453103610155D-03 0.239945882640D-02 0.000000000000D+00  5 -1 1 25 23 21 2 0.37010268D-01 0.79940905D-02 0.12113882D+05 0.12113882D+05 0.12113882D+05 0.12585436D+01  1  2  5  1  5  1       -1 -.324556216265D+01 0.100000000000D+01
0.356001554803D-02 0.000000000000D+00 0.452898126568D-03 0.239945882640D-02 0.000000000000D+00  5 -1 1 25 23 21 2 0.35912060D-01 0.79940905D-02 0.12113882D+05 0.12113882D+05 0.12113882D+05 0.12585436D+01  1  2  6  1  5  1       -1 0.342964181089D+01 0.100000000000D+01
0.744344178188D-03 0.000000000000D+00 0.000000000000D+00 0.239945882640D-02 0.194264499329D-02  5 -1 1 25 23 21 2 0.36671313D-01 0.80765092D-02 0.12474273D+05 0.12474273D+05 0.12474273D+05 0.12570560D+01  1  2 11  1  5  1       -1 0.681536724515D+00 0.100000000000D+01
0.978994738205D-07 0.000000000000D+00 0.000000000000D+00 0.239945882640D-02 0.000000000000D+00  5 21 1 25 23 1 2 0.36853506D-01 0.79940905D-02 0.12474273D+05 0.12474273D+05 0.12474273D+05 0.12570560D+01  1  2 12  3  5  1       -1 0.998580205815D-03 0.100000000000D+01
-.190138398562D-04 0.000000000000D+00 -.244730547986D-05 0.239945882640D-02 0.000000000000D+00  5 21 1 25 23 1 2 0.37010268D-01 0.79940905D-02 0.12113882D+05 0.12113882D+05 0.12113882D+05 0.12585436D+01  1  2  5  3  5  1       -1 -.192690528988D+00 0.100000000000D+01
0.382404923365D-05 0.000000000000D+00 0.000000000000D+00 0.239945882640D-02 0.742994987741D-05  5 21 1 25 23 1 2 0.36671313D-01 0.80765092D-02 0.12474273D+05 0.12474273D+05 0.12474273D+05 0.12570560D+01  1  2 11  3  5  1       -1 0.388530325883D-01 0.100000000000D+01
  </mgrwgt>
  </event>
  <event>
  5     66 0.43907321E-03 0.10880929E+03 0.75467711E-02 0.11324112E+00
       -3 -1    0    0    0  501 0.00000000E+00 0.00000000E+00 0.10022833E+03 0.10022958E+03 0.50000000E+00 0.0000E+00 0.9000E+01
       21 -1    0    0  501  502 0.00000000E+00 0.00000000E+00 -.58667533E+03 0.58667581E+03 0.75000000E+00 0.0000E+00 0.9000E+01
       25  1    1    2    0    0 0.34459675E+02 0.70982443E+02 -.44534567E+02 0.15438363E+03 0.12500000E+03 0.0000E+00 0.9000E+01
       23  1    1    2    0    0 0.43227725E+02 0.78389406E+02 -.21238899E+03 0.24786663E+03 0.91188000E+02 0.0000E+00 0.9000E+01
       -3  1    1    2    0  502 -.77687399E+02 -.14937185E+03 -.22952344E+03 0.28465513E+03 0.50000000E+00 0.0000E+00 0.9000E+01
#aMCatNLO 2  0  0  2  2 0.16836651D+03 0.00000000D+00  -5  5  0 0.00000000D+00 0.00000000D+00 0.00000000D+00 0.00000000D+00 0.00000000D+00
  <mgrwgt>
 0.6517868597D-02    1    2    0
 0.129854031358358D+03 0.000000000000000D+00 0.000000000000000D+00 0.129854031358358D+03
 0.129854031358358D+03 0.000000000000000D+00 0.000000000000000D+00 -.129854031358358D+03
 0.143927041991019D+03 -.752226266420098D+01 -.973746344166080D+01 0.702751078719741D+02
 0.115781020725698D+03 0.752226266420098D+01 0.973746344166080D+01 -.702751078719741D+02
 0.000000000000000D+00 -.000000000000000D+00 -.000000000000000D+00 -.000000000000000D+00
 0.213462139573529D+03 0.000000000000000D+00 0.000000000000000D+00 0.213462139573529D+03
 0.275467621657066D+03 0.000000000000000D+00 0.000000000000000D+00 -.275467621657066D+03
 0.163675188158161D+03 0.344596745815699D+02 0.709824433217414D+02 0.702751078719741D+02
 0.145833388990943D+03 0.432277246369144D+02 0.783894064072506D+02 -.702751078719741D+02
 0.179421184081492D+03 -.776873992184843D+02 -.149371849728992D+03 -.620054820835367D+02
0.252439315118D-04 0.000000000000D+00 0.000000000000D+00 0.151756949781D-02 0.114786928905D-06  5 -3 21 25 23 -3 2 0.15419853D-01 0.90257741D-01 0.49277653D+05 0.49277653D+05 0.49277653D+05 0.11929082D+01  1  2  1  4  5  2        3 0.651786859660D-02 0.100000000000D+01
  </mgrwgt>
  </event>
  <event>
  4     66 0.43907321E-03 0.11755279E+03 0.75467711E-02 0.12265600E+00
       -1 -1    0    0    0  501 0.00000000E+00 0.00000000E+00 0.17882708E+02 0.17885571E+02 0.32000000E+00 0.0000E+00 0.9000E+01
        1 -1    0    0  501    0 0.00000000E+00 0.00000000E+00 -.77283785E+03 0.77283792E+03 0.32000000E+00 0.0000E+00 0.9000E+01
       25  1    1    2    0    0 0.12753398E+02 -.43903884E+02 -.43309604E+03 0.45308650E+03 0.12500000E+03 0.0000E+00 0.9000E+01
       23  1    1    2    0    0 -.12753398E+02 0.43903884E+02 -.32185910E+03 0.33763699E+03 0.91188000E+02 0.0000E+00 0.9000E+01
#aMCatNLO 1  0  0  2  1 0.24800886D+02 0.00000000D+00  -5  5  0 0.00000000D+00 0.00000000D+00 0.00000000D+00 0.00000000D+00 0.00000000D+00
  <mgrwgt>
 0.1218952630D+00    4    2    0
 0.117565266990678D+03 0.000000000000000D+00 0.000000000000000D+00 0.117565266990678D+03
 0.117565266990678D+03 0.000000000000000D+00 0.000000000000000D+00 -.117565266990678D+03
 0.133109289564496D+03 0.127533978322096D+02 -.439038835028612D+02 -.169788853147945D+01
 0.102021244416860D+03 -.127533978322096D+02 0.439038835028612D+02 0.169788853147945D+01
 0.000000000000000D+00 -.000000000000000D+00 -.000000000000000D+00 0.000000000000000D+00
 0.155069789931703D+03 0.000000000000000D+00 0.000000000000000D+00 0.155069789931703D+03
 0.122390063098483D+03 0.000000000000000D+00 0.000000000000000D+00 -.122390063098483D+03
 0.131411956767765D+03 0.223234022617259D+02 -.338065861560833D+02 -.169788853147945D+01
 0.105022922143748D+03 -.526283282632073D+01 0.518071674268009D+02 0.169788853147945D+01
 0.410249741186735D+02 -.170605694354052D+02 -.180005812707176D+02 0.326797268332194D+02
0.150731859856D-03 0.000000000000D+00 0.000000000000D+00 0.219923435430D-02 0.000000000000D+00  5 -1 1 25 23 21 0 0.27514112D-02 0.11889836D+00 0.13818658D+05 0.13818658D+05 0.13818658D+05 0.12519044D+01  1  2  2  2  5  2        1 0.149312596340D+00 0.100000000000D+01
-.837399209949D-05 0.000000000000D+00 -.578850030457D-06 0.219923435430D-02 0.000000000000D+00  5 -1 1 25 23 21 2 0.27514112D-02 0.11889836D+00 0.13818658D+05 0.13818658D+05 0.13818658D+05 0.12519044D+01  1  2  3  2  5  2        1 -.130006866674D-01 0.100000000000D+01
0.104321422831D-04 0.000000000000D+00 0.000000000000D+00 0.219923435430D-02 0.000000000000D+00  5 -1 1 25 23 21 2 0.27514112D-02 0.11889836D+00 0.13818658D+05 0.13818658D+05 0.13818658D+05 0.12519044D+01  1  2 15  2  5  2        1 0.161959805408D-01 0.100000000000D+01
-.197181814126D-04 0.000000000000D+00 0.000000000000D+00 0.219923435430D-02 0.000000000000D+00  5 -1 1 25 23 21 2 0.27514112D-02 0.11889836D+00 0.13818658D+05 0.13818658D+05 0.13818658D+05 0.12519044D+01  1  2  4  2  5  2        1 -.306126271855D-01 0.100000000000D+01
  </mgrwgt>
  </event>
  <event>
  4     66 0.43907321E-03 0.14003006E+03 0.75467711E-02 0.99999976E-01
       -3 -1    0    0    0  501 0.00000000E+00 0.00000000E+00 0.13139198E+04 0.13139199E+04 0.50000000E+00 0.0000E+00 0.9000E+01
        3 -1    0    0  501    0 0.00000000E+00 0.00000000E+00 -.14267235E+03 0.14267323E+03 0.50000000E+00 0.0000E+00 0.9000E+01
       25  1    1    2    0    0 -.41464679E+03 0.54105535E+02 0.63418717E+03 0.76985565E+03 0.12500000E+03 0.0000E+00 0.9000E+01
       23  1    1    2    0    0 0.41464679E+03 -.54105535E+02 0.53706030E+03 0.68673749E+03 0.91188000E+02 0.0000E+00 0.9000E+01
#aMCatNLO 1  0  0  1  2 0.22086190D+03 0.00000000D+00  -5  5  0 0.00000000D+00 0.00000000D+00 0.00000000D+00 0.00000000D+00 0.00000000D+00
  <mgrwgt>
 0.2065222682D-01    9    2    0
 0.432967367827159D+03 0.000000000000000D+00 0.000000000000000D+00 0.432967367827159D+03
 0.432967367827159D+03 0.000000000000000D+00 0.000000000000000D+00 -.432967367827159D+03
 0.437188095068501D+03 -.414646786044684D+03 0.541055345715905D+02 0.254767427502230D+02
 0.428746640585818D+03 0.414646786044684D+03 -.541055345715905D+02 -.254767427502230D+02
 0.000000000000000D+00 -.000000000000000D+00 -.000000000000000D+00 0.000000000000000D+00
 0.614032901047071D+03 0.000000000000000D+00 0.000000000000000D+00 0.614032901047071D+03
 0.519763197306855D+03 0.000000000000000D+00 0.000000000000000D+00 -.519763197306855D+03
 0.359121759048927D+03 -.322565623758966D+03 0.929827498529898D+02 0.254767427502230D+02
 0.534535303695461D+03 0.526035739201085D+03 -.707645496034456D+01 -.254767427502230D+02
 0.240139035609539D+03 -.203470115442119D+03 -.859062948926453D+02 0.942697037402158D+02
0.218739563064D-01 0.000000000000D+00 0.000000000000D+00 0.122423315311D-02 0.000000000000D+00  5 -3 3 25 23 21 0 0.20214158D+00 0.21949668D-01 0.18681162D+06 0.18681162D+06 0.18681162D+06 0.11394338D+01  1  2  2  1  5  1       -3 0.159475688922D-01 0.100000000000D+01
-.121521535033D-02 0.000000000000D+00 -.840017517614D-04 0.122423315311D-02 0.000000000000D+00  5 -3 3 25 23 21 2 0.20214158D+00 0.21949668D-01 0.18681162D+06 0.18681162D+06 0.18681162D+06 0.11394338D+01  1  2  3  1  5  1       -3 -.115026690719D-02 0.100000000000D+01
0.149609489104D-02 0.000000000000D+00 0.000000000000D+00 0.122423315311D-02 0.000000000000D+00  5 -3 3 25 23 21 2 0.20214158D+00 0.21949668D-01 0.18681162D+06 0.18681162D+06 0.18681162D+06 0.11394338D+01  1  2 15  1  5  1       -3 0.141613454991D-02 0.100000000000D+01
0.606340587063D-02 0.000000000000D+00 0.000000000000D+00 0.122423315311D-02 0.000000000000D+00  5 -3 3 25 23 21 2 0.30013134D+00 0.21949668D-01 0.30969596D+06 0.30969596D+06 0.30969596D+06 0.11209981D+01  1  2 12  1  5  1       -3 0.152288198779D-02 0.100000000000D+01
-.974176567578D-02 0.000000000000D+00 0.000000000000D+00 0.122423315311D-02 0.000000000000D+00  5 -3 3 25 23 21 2 0.20214158D+00 0.21949668D-01 0.18681162D+06 0.18681162D+06 0.18681162D+06 0.11394338D+01  1  2  4  1  5  1       -3 -.922110691857D-02 0.100000000000D+01
-.152452907314D-01 0.000000000000D+00 -.657446009254D-02 0.122423315311D-02 0.000000000000D+00  5 -3 3 25 23 21 2 0.31330839D+00 0.21949668D-01 0.18681162D+06 0.18681162D+06 0.18681162D+06 0.11394338D+01  1  2  5  1  5  1       -3 -.338588821012D-02 0.100000000000D+01
0.170475282575D-01 0.000000000000D+00 0.599004350817D-02 0.122423315311D-02 0.000000000000D+00  5 -3 3 25 23 21 2 0.20214158D+00 0.21949668D-01 0.18681162D+06 0.18681162D+06 0.18681162D+06 0.11394338D+01  1  2  6  1  5  1       -3 0.161364054517D-01 0.100000000000D+01
0.286101188462D-03 0.000000000000D+00 0.000000000000D+00 0.122423315311D-02 0.000000000000D+00  5 21 3 25 23 3 2 0.30013134D+00 0.21949668D-01 0.30969596D+06 0.30969596D+06 0.30969596D+06 0.11209981D+01  1  2 12  3  5  1       -3 0.947718672766D-03 0.100000000000D+01
-.523492515467D-03 0.000000000000D+00 -.334869535426D-03 0.122423315311D-02 0.000000000000D+00  5 21 3 25 23 3 2 0.31330839D+00 0.21949668D-01 0.18681162D+06 0.18681162D+06 0.18681162D+06 0.11394338D+01  1  2  5  3  5  1       -3 -.156122070055D-02 0.100000000000D+01
  </mgrwgt>
  </event>
  <event>
  4     66 0.43907321E-03 0.19588955E+03 0.75467711E-02 0.10616609E+00
       -1 -1    0    0    0  501 0.00000000E+00 0.00000000E+00 0.97892181E+02 0.97892704E+02 0.32000000E+00 0.0000E+00 0.9000E+01
        1 -1    0    0  501    0 0.00000000E+00 0.00000000E+00 -.13073047E+04 0.13073048E+04 0.32000000E+00 0.0000E+00 0.9000E+01
       25  1    1    2    0    0 0.19575390E+03 0.22149110E+03 -.94579573E+03 0.99876547E+03 0.12500000E+03 0.0000E+00 0.9000E+01
       23  1    1    2    0    0 -.19575390E+03 -.22149110E+03 -.26361683E+03 0.40643201E+03 0.91188000E+02 0.0000E+00 0.9000E+01
#aMCatNLO 1  0  0  1  2 0.71422967D+02 0.00000000D+00  -5  5  0 0.00000000D+00 0.00000000D+00 0.00000000D+00 0.00000000D+00 0.00000000D+00
  <mgrwgt>
 0.1701379625D+00    9    2    0
 0.357736366064071D+03 0.000000000000000D+00 0.000000000000000D+00 0.357736366064071D+03
 0.357736366064071D+03 0.000000000000000D+00 0.000000000000000D+00 -.357736366064071D+03
 0.362844700964730D+03 0.195753902480848D+03 0.221491102013783D+03 -.169273088263973D+03
 0.352628031163412D+03 -.195753902480848D+03 -.221491102013783D+03 0.169273088263973D+03
 0.000000000000000D+00 -.000000000000000D+00 -.000000000000000D+00 0.000000000000000D+00
 0.505210553802910D+03 0.000000000000000D+00 0.000000000000000D+00 0.505210553802910D+03
 0.368267637416439D+03 0.000000000000000D+00 0.000000000000000D+00 -.368267637416439D+03
 0.394151541723113D+03 0.221229190086254D+03 0.249268339116832D+03 -.169273088263973D+03
 0.324877296794772D+03 -.172953732399889D+03 -.196630706318222D+03 0.169273088263973D+03
 0.154449352701465D+03 -.482754576863646D+02 -.526376327986099D+02 0.136942916386472D+03
0.471016825723D-02 0.000000000000D+00 0.000000000000D+00 0.984260546430D-03 0.000000000000D+00  5 -1 1 25 23 21 0 0.15060379D-01 0.20112385D+00 0.99314398D+05 0.99314398D+05 0.99314398D+05 0.11638462D+01  1  2  2  1  5  1       -1 0.144994710005D+00 0.100000000000D+01
-.256562710335D-03 0.000000000000D+00 -.180882863235D-04 0.984260546430D-03 0.000000000000D+00  5 -1 1 25 23 21 2 0.15060379D-01 0.20112385D+00 0.99314398D+05 0.99314398D+05 0.99314398D+05 0.11638462D+01  1  2  3  1  5  1       -1 -.106979477173D-01 0.100000000000D+01
0.321505505644D-03 0.000000000000D+00 0.000000000000D+00 0.984260546430D-03 0.000000000000D+00  5 -1 1 25 23 21 2 0.15060379D-01 0.20112385D+00 0.99314398D+05 0.99314398D+05 0.99314398D+05 0.11638462D+01  1  2 15  1  5  1       -1 0.134058807132D-01 0.100000000000D+01
0.127727943996D-01 0.000000000000D+00 0.000000000000D+00 0.984260546430D-03 0.000000000000D+00  5 -1 1 25 23 21 2 0.21420804D-01 0.20112385D+00 0.12413965D+06 0.12413965D+06 0.12413965D+06 0.11550422D+01  1  2 12  1  5  1       -1 0.294367197703D+00 0.100000000000D+01
-.127148175090D-01 0.000000000000D+00 0.000000000000D+00 0.984260546430D-03 0.000000000000D+00  5 -1 1 25 23 21 2 0.15060379D-01 0.20112385D+00 0.99314398D+05 0.99314398D+05 0.99314398D+05 0.11638462D+01  1  2  4  1  5  1       -1 -.530172341759D+00 0.100000000000D+01
-.147544545031D-01 0.000000000000D+00 -.195723390726D-02 0.984260546430D-03 0.000000000000D+00  5 -1 1 25 23 21 2 0.21780110D-01 0.20112385D+00 0.99314398D+05 0.99314398D+05 0.99314398D+05 0.11638462D+01  1  2  5  1  5  1       -1 -.337958676984D+00 0.100000000000D+01
0.145978099686D-01 0.000000000000D+00 0.183119287263D-02 0.984260546430D-03 0.000000000000D+00  5 -1 1 25 23 21 2 0.15060379D-01 0.20112385D+00 0.99314398D+05 0.99314398D+05 0.99314398D+05 0.11638462D+01  1  2  6  1  5  1       -1 0.608687862814D+00 0.100000000000D+01
0.554377118599D-03 0.000000000000D+00 0.000000000000D+00 0.984260546430D-03 0.000000000000D+00  5 21 1 25 23 1 2 0.21420804D-01 0.20112385D+00 0.12413965D+06 0.12413965D+06 0.12413965D+06 0.11550422D+01  1  2 12  3  5  1       -1 0.154218262443D+00 0.100000000000D+01
-.602403934831D-03 0.000000000000D+00 -.878318273290D-04 0.984260546430D-03 0.000000000000D+00  5 21 1 25 23 1 2 0.21780110D-01 0.20112385D+00 0.99314398D+05 0.99314398D+05 0.99314398D+05 0.11638462D+01  1  2  5  3  5  1       -1 -.166706984729D+00 0.100000000000D+01
  </mgrwgt>
  </event>
  <event>
  4     66 0.43907321E-03 0.49052295E+02 0.75467711E-02 0.12365311E+00
       -1 -1    0    0    0  501 0.00000000E+00 0.00000000E+00 0.38369616E+03 0.38369629E+03 0.32000000E+00 0.0000E+00 0.9000E+01
        1 -1    0    0  501    0 0.00000000E+00 0.00000000E+00 -.31402749E+02 0.31404379E+02 0.32000000E+00 0.0000E+00 0.9000E+01
       25  1    1    2    0    0 0.90288435E+01 -.15822645E+02 0.21224483E+03 0.24699139E+03 0.12500000E+03 0.0000E+00 0.9000E+01
       23  1    1    2    0    0 -.90288435E+01 0.15822645E+02 0.14004858E+03 0.16810928E+03 0.91188000E+02 0.0000E+00 0.9000E+01
#aMCatNLO 1  0  0  2  1 0.27154668D+02 0.00000000D+00  -5  5  0 0.00000000D+00 0.00000000D+00 0.00000000D+00 0.00000000D+00 0.00000000D+00
  <mgrwgt>
 0.1316359217D+00    9    2    0
 0.109770123868073D+03 0.000000000000000D+00 0.000000000000000D+00 0.109770123868073D+03
 0.109770123868073D+03 0.000000000000000D+00 0.000000000000000D+00 -.109770123868073D+03
 0.126417979401117D+03 0.902884354668135D+01 -.158226449639725D+02 0.496280227440207D+01
 0.931222683350292D+02 -.902884354668135D+01 0.158226449639725D+02 -.496280227440207D+01
 0.000000000000000D+00 -.000000000000000D+00 0.000000000000000D+00 -.000000000000000D+00
 0.123048567674887D+03 0.000000000000000D+00 0.000000000000000D+00 0.123048567674887D+03
 0.125422946277612D+03 0.000000000000000D+00 0.000000000000000D+00 -.125422946277612D+03
 0.129405189175690D+03 0.100265418474852D+02 -.315522112974991D+02 0.496280227440207D+01
 0.918080481074412D+02 -.830762402810446D+01 0.445200290780333D+01 -.496280227440207D+01
 0.272582766693678D+02 -.171891781938079D+01 0.271002083896958D+02 -.237437860272493D+01
0.182535081193D-03 0.000000000000D+00 0.000000000000D+00 0.240954989420D-02 0.000000000000D+00  5 -1 1 25 23 21 0 0.59030314D-01 0.48313278D-02 0.12024270D+05 0.12024270D+05 0.12024270D+05 0.12589213D+01  1  2  2  2  5  2        1 0.898415247967D-01 0.100000000000D+01
-.101408243224D-04 0.000000000000D+00 -.700982774373D-06 0.240954989420D-02 0.000000000000D+00  5 -1 1 25 23 21 2 0.59030314D-01 0.48313278D-02 0.12024270D+05 0.12024270D+05 0.12024270D+05 0.12589213D+01  1  2  3  2  5  2        1 -.791044983700D-02 0.100000000000D+01
0.126606879767D-04 0.000000000000D+00 0.000000000000D+00 0.240954989420D-02 0.000000000000D+00  5 -1 1 25 23 21 2 0.59030314D-01 0.48313278D-02 0.12024270D+05 0.12024270D+05 0.12024270D+05 0.12589213D+01  1  2 15  2  5  2        1 0.987609428562D-02 0.100000000000D+01
0.161612840144D-03 0.000000000000D+00 0.000000000000D+00 0.240954989420D-02 0.000000000000D+00  5 -1 1 25 23 21 2 0.59030314D-01 0.57752810D-02 0.15393175D+05 0.15393175D+05 0.15393175D+05 0.12465435D+01  1  2 12  2  5  2        1 0.978261698600D-01 0.100000000000D+01
-.141376631220D-03 0.000000000000D+00 0.000000000000D+00 0.240954989420D-02 0.000000000000D+00  5 -1 1 25 23 21 2 0.59030314D-01 0.48313278D-02 0.12024270D+05 0.12024270D+05 0.12024270D+05 0.12589213D+01  1  2  4  2  5  2        1 -.110282232867D+00 0.100000000000D+01
-.408886491969D-03 0.000000000000D+00 -.129762982844D-03 0.240954989420D-02 0.000000000000D+00  5 -1 1 25 23 21 2 0.59030314D-01 0.61848051D-02 0.12024270D+05 0.12024270D+05 0.12024270D+05 0.12589213D+01  1  2  5  2  5  2        1 -.228299248759D+00 0.100000000000D+01
0.431565017203D-03 0.000000000000D+00 0.125903602171D-03 0.240954989420D-02 0.000000000000D+00  5 -1 1 25 23 21 2 0.59030314D-01 0.48313278D-02 0.12024270D+05 0.12024270D+05 0.12024270D+05 0.12589213D+01  1  2  6  2  5  2        1 0.336646539912D+00 0.100000000000D+01
0.423387777895D-05 0.000000000000D+00 0.000000000000D+00 0.240954989420D-02 0.000000000000D+00  5 -1 21 25 23 -1 2 0.59030314D-01 0.57752810D-02 0.15393175D+05 0.15393175D+05 0.15393175D+05 0.12465435D+01  1  2 12  4  5  2        1 0.380451067129D-01 0.100000000000D+01
-.115825205982D-04 0.000000000000D+00 -.435228877374D-05 0.240954989420D-02 0.000000000000D+00  5 -1 21 25 23 -1 2 0.59030314D-01 0.61848051D-02 0.12024270D+05 0.12024270D+05 0.12024270D+05 0.12589213D+01  1  2  5  4  5  2        1 -.941075824058D-01 0.100000000000D+01
  </mgrwgt>
  </event>
  <event>
  4     66 0.43907321E-03 0.79853903E+02 0.75467711E-02 0.12287254E+00
       -1 -1    0    0    0  501 0.00000000E+00 0.00000000E+00 0.45278697E+02 0.45279827E+02 0.32000000E+00 0.0000E+00 0.9000E+01
        1 -1    0    0  501    0 0.00000000E+00 0.00000000E+00 -.28959896E+03 0.28959914E+03 0.32000000E+00 0.0000E+00 0.9000E+01
       25  1    1    2    0    0 0.25141959E+02 -.16498858E+02 -.17165421E+03 0.21446328E+03 0.12500000E+03 0.0000E+00 0.9000E+01
       23  1    1    2    0    0 -.25141959E+02 0.16498858E+02 -.72666051E+02 0.12041568E+03 0.91188000E+02 0.0000E+00 0.9000E+01
#aMCatNLO 1  0  0  1  2 0.31495903D+02 0.00000000D+00  -5  5  0 0.00000000D+00 0.00000000D+00 0.00000000D+00 0.00000000D+00 0.00000000D+00
  <mgrwgt>
 0.1340113505D+00    9    2    0
 0.114511494575951D+03 0.000000000000000D+00 0.000000000000000D+00 0.114511494575951D+03
 0.114511494575951D+03 0.000000000000000D+00 0.000000000000000D+00 -.114511494575951D+03
 0.130470042412281D+03 0.251419588521408D+02 -.164988575014508D+02 -.222058905087504D+02
 0.985529467396208D+02 -.251419588521408D+02 0.164988575014508D+02 0.222058905087504D+02
 0.000000000000000D+00 -.000000000000000D+00 -.000000000000000D+00 0.000000000000000D+00
 0.152912410249079D+03 0.000000000000000D+00 0.000000000000000D+00 0.152912410249079D+03
 0.122233892334012D+03 0.000000000000000D+00 0.000000000000000D+00 -.122233892334012D+03
 0.130093087696427D+03 0.283730661188930D+02 0.103875508017589D+01 -.222058905087504D+02
 0.101085461187281D+03 -.226663472400669D+02 0.299358355312052D+02 0.222058905087504D+02
 0.439677536993839D+02 -.570671887882616D+01 -.309745906113810D+02 0.306785179150669D+02
0.117563909944D-03 0.000000000000D+00 0.000000000000D+00 0.221340126664D-02 0.000000000000D+00  5 -1 1 25 23 21 0 0.69660539D-02 0.44553787D-01 0.12609616D+05 0.12609616D+05 0.12609616D+05 0.12565097D+01  1  2  2  1  5  1       -1 0.107044576914D+00 0.100000000000D+01
-.652828770619D-05 0.000000000000D+00 -.451476369471D-06 0.221340126664D-02 0.000000000000D+00  5 -1 1 25 23 21 2 0.69660539D-02 0.44553787D-01 0.12609616D+05 0.12609616D+05 0.12609616D+05 0.12565097D+01  1  2  3  1  5  1       -1 -.938472676500D-02 0.100000000000D+01
0.810319948422D-05 0.000000000000D+00 0.000000000000D+00 0.221340126664D-02 0.000000000000D+00  5 -1 1 25 23 21 2 0.69660539D-02 0.44553787D-01 0.12609616D+05 0.12609616D+05 0.12609616D+05 0.12565097D+01  1  2 15  1  5  1       -1 0.116487380006D-01 0.100000000000D+01
0.138249467360D-03 0.000000000000D+00 0.000000000000D+00 0.221340126664D-02 0.000000000000D+00  5 -1 1 25 23 21 2 0.94777624D-02 0.44553787D-01 0.16679214D+05 0.16679214D+05 0.16679214D+05 0.12426029D+01  1  2 12  1  5  1       -1 0.123488516486D+00 0.100000000000D+01
-.145637936634D-03 0.000000000000D+00 0.000000000000D+00 0.221340126664D-02 0.000000000000D+00  5 -1 1 25 23 21 2 0.69660539D-02 0.44553787D-01 0.12609616D+05 0.12609616D+05 0.12609616D+05 0.12565097D+01  1  2  4  1  5  1       -1 -.209361520730D+00 0.100000000000D+01
-.205509021224D-03 0.000000000000D+00 -.509474473808D-04 0.221340126664D-02 0.000000000000D+00  5 -1 1 25 23 21 2 0.99019115D-02 0.44553787D-01 0.12609616D+05 0.12609616D+05 0.12609616D+05 0.12565097D+01  1  2  5  1  5  1       -1 -.174074870002D+00 0.100000000000D+01
0.213107387525D-03 0.000000000000D+00 0.479514862002D-04 0.221340126664D-02 0.000000000000D+00  5 -1 1 25 23 21 2 0.69660539D-02 0.44553787D-01 0.12609616D+05 0.12609616D+05 0.12609616D+05 0.12565097D+01  1  2  6  1  5  1       -1 0.306352093157D+00 0.100000000000D+01
0.544529436437D-05 0.000000000000D+00 0.000000000000D+00 0.221340126664D-02 0.000000000000D+00  5 21 1 25 23 1 2 0.94777624D-02 0.44553787D-01 0.16679214D+05 0.16679214D+05 0.16679214D+05 0.12426029D+01  1  2 12  3  5  1       -1 0.743747461875D-01 0.100000000000D+01
-.745754632227D-05 0.000000000000D+00 -.220847722717D-05 0.221340126664D-02 0.000000000000D+00  5 21 1 25 23 1 2 0.99019115D-02 0.44553787D-01 0.12609616D+05 0.12609616D+05 0.12609616D+05 0.12565097D+01  1  2  5  3  5  1       -1 -.960762027943D-01 0.100000000000D+01
  </mgrwgt>
  </event>
  <event>
  4     66 0.43907321E-03 0.12658303E+03 0.75467711E-02 0.11305015E+00
       -1 -1    0    0    0  501 0.00000000E+00 0.00000000E+00 0.36593660E+03 0.36593674E+03 0.32000000E+00 0.0000E+00 0.9000E+01
        1 -1    0    0  501    0 0.00000000E+00 0.00000000E+00 -.44267252E+02 0.44268408E+02 0.32000000E+00 0.0000E+00 0.9000E+01
       25  1    1    2    0    0 0.52958157E+02 -.38170513E+02 0.20021970E+03 0.24489688E+03 0.12500000E+03 0.0000E+00 0.9000E+01
       23  1    1    2    0    0 -.52958157E+02 0.38170513E+02 0.12144965E+03 0.16530827E+03 0.91188000E+02 0.0000E+00 0.9000E+01
#aMCatNLO 1  0  0  1  2 0.15326138D+03 0.00000000D+00  -5  5  0 0.00000000D+00 0.00000000D+00 0.00000000D+00 0.00000000D+00 0.00000000D+00
  <mgrwgt>
 0.1602598968D+00    3    2    0
 0.127276366493621D+03 0.000000000000000D+00 0.000000000000000D+00 0.127276366493621D+03
 0.127276366493621D+03 0.000000000000000D+00 0.000000000000000D+00 -.127276366493621D+03
 0.141634390802019D+03 0.529581567859607D+02 -.381705132268153D+02 0.131812824753218D+02
 0.112918342185223D+03 -.529581567859607D+02 0.381705132268153D+02 -.131812824753218D+02
 0.000000000000000D+00 0.000000000000000D+00 -.000000000000000D+00 -.000000000000000D+00
 0.164969939092630D+03 0.000000000000000D+00 0.000000000000000D+00 0.164969939092630D+03
 0.506520254274675D+03 0.000000000000000D+00 0.000000000000000D+00 -.506520254274675D+03
 0.127028003692453D+03 0.378130238529134D+01 0.179741277025217D+02 0.131812824753218D+02
 0.170101842581048D+03 -.104763108665774D+03 0.973156223864220D+02 -.131812824753218D+02
 0.374360347093805D+03 0.100981806280482D+03 -.115289750088944D+03 -.341550315182044D+03
0.460032920729D-03 0.000000000000D+00 0.000000000000D+00 0.198936788256D-02 0.000000000000D+00  5 -1 1 25 23 21 0 0.56298038D-01 0.68104461D-02 0.16023263D+05 0.16023263D+05 0.16023263D+05 0.12445685D+01  1  2  2  1  5  1       -1 0.156938470570D+00 0.100000000000D+01
-.255564573021D-04 0.000000000000D+00 -.176664754505D-05 0.198936788256D-02 0.000000000000D+00  5 -1 1 25 23 21 2 0.56298038D-01 0.68104461D-02 0.16023263D+05 0.16023263D+05 0.16023263D+05 0.12445685D+01  1  2  3  1  5  1       -1 -.135045074580D-01 0.100000000000D+01
0.318420539217D-04 0.000000000000D+00 0.000000000000D+00 0.198936788256D-02 0.000000000000D+00  5 -1 1 25 23 21 2 0.56298038D-01 0.68104461D-02 0.16023263D+05 0.16023263D+05 0.16023263D+05 0.12445685D+01  1  2 15  1  5  1       -1 0.168259336411D-01 0.100000000000D+01
  </mgrwgt>
  </event>
  <event>
  4     66 0.43907321E-03 0.14327749E+03 0.75467711E-02 0.11016232E+00
       -3 -1    0    0    0  501 0.00000000E+00 0.00000000E+00 0.10564153E+02 0.10575979E+02 0.50000000E+00 0.0000E+00 0.9000E+01
        3 -1    0    0  501    0 0.00000000E+00 0.00000000E+00 -.27147725E+04 0.27147726E+04 0.50000000E+00 0.0000E+00 0.9000E+01
       25  1    1    2    0    0 -.72049146E+02 0.59413073E+02 -.71330400E+03 0.73017025E+03 0.12500000E+03 0.0000E+00 0.9000E+01
       23  1    1    2    0    0 0.72049146E+02 -.59413073E+02 -.19909044E+04 0.19951783E+04 0.91188000E+02 0.0000E+00 0.9000E+01
#aMCatNLO 1  0  0  1  2 0.19481841D+03 0.00000000D+00  -5  5  0 0.00000000D+00 0.00000000D+00 0.00000000D+00 0.00000000D+00 0.00000000D+00
  <mgrwgt>
 0.4876903213D-02    5    2    0
 0.169397314607750D+03 0.000000000000000D+00 0.000000000000000D+00 0.169397314607750D+03
 0.169397314607750D+03 0.000000000000000D+00 0.000000000000000D+00 -.169397314607750D+03
 0.180185190249295D+03 -.720491461829017D+02 0.594130729362167D+02 0.901149825709643D+02
 0.158609438966206D+03 0.720491461829017D+02 -.594130729362167D+02 -.901149825709643D+02
 0.000000000000000D+00 -.000000000000000D+00 0.000000000000000D+00 0.000000000000000D+00
 0.378994319000370D+03 0.000000000000000D+00 0.000000000000000D+00 0.378994319000370D+03
 0.247091494756798D+03 0.000000000000000D+00 0.000000000000000D+00 -.247091494756798D+03
 0.154683874495947D+03 0.424454932223369D+01 0.127818131094026D+02 0.901149825709643D+02
 0.236130676142967D+03 0.161983348282797D+03 -.114381509288276D+03 -.901149825709643D+02
 0.235271263118254D+03 -.166227897605030D+03 0.101599696178873D+03 0.131902824243573D+03
0.109029664767D-02 0.000000000000D+00 0.000000000000D+00 0.120351411027D-02 0.000000000000D+00  5 -3 3 25 23 21 0 0.16261675D-02 0.41765823D+00 0.20528440D+05 0.20528440D+05 0.20528440D+05 0.12325811D+01  1  2  2  1  5  1       -3 0.386243698198D-02 0.100000000000D+01
-.585066803799D-04 0.000000000000D+00 -.418702620876D-05 0.120351411027D-02 0.000000000000D+00  5 -3 3 25 23 21 2 0.16261675D-02 0.41765823D+00 0.20528440D+05 0.20528440D+05 0.20528440D+05 0.12325811D+01  1  2  3  1  5  1       -3 -.314885887534D-03 0.100000000000D+01
0.753150612073D-04 0.000000000000D+00 0.000000000000D+00 0.120351411027D-02 0.000000000000D+00  5 -3 3 25 23 21 2 0.16261675D-02 0.41765823D+00 0.20528440D+05 0.20528440D+05 0.20528440D+05 0.12325811D+01  1  2 15  1  5  1       -3 0.405349435979D-03 0.100000000000D+01
0.299970995992D-03 0.000000000000D+00 -.383074006643D-03 0.120351411027D-02 0.000000000000D+00  5 -3 3 25 23 21 2 0.67376751D-02 0.41765823D+00 0.20528440D+05 0.20528440D+05 0.20528440D+05 0.12325811D+01  1  2  5  1  5  1       -3 0.176651173010D-03 0.100000000000D+01
0.533253246970D-04 0.000000000000D+00 -.652698611267D-04 0.120351411027D-02 0.000000000000D+00  5 21 3 25 23 3 2 0.67376751D-02 0.41765823D+00 0.20528440D+05 0.20528440D+05 0.20528440D+05 0.12325811D+01  1  2  5  3  5  1       -3 0.747351509896D-03 0.100000000000D+01
  </mgrwgt>
  </event>
  <event>
  4     66 0.43907321E-03 0.79158279E+02 0.75467711E-02 0.11780857E+00
       -1 -1    0    0    0  501 0.00000000E+00 0.00000000E+00 0.50295370E+02 0.50296388E+02 0.32000000E+00 0.0000E+00 0.9000E+01
        1 -1    0    0  501    0 0.00000000E+00 0.00000000E+00 -.42377283E+03 0.42377295E+03 0.32000000E+00 0.0000E+00 0.9000E+01
       25  1    1    2    0    0 -.68452521E+02 0.45733644E+02 -.11802119E+03 0.19060775E+03 0.12500000E+03 0.0000E+00 0.9000E+01
       23  1    1    2    0    0 0.68452521E+02 -.45733644E+02 -.25545627E+03 0.28346159E+03 0.91188000E+02 0.0000E+00 0.9000E+01
#aMCatNLO 1  0  0  2  1 0.60270202D+02 0.00000000D+00  -5  5  0 0.00000000D+00 0.00000000D+00 0.00000000D+00 0.00000000D+00 0.00000000D+00
  <mgrwgt>
 0.8952702920D-01    7    2    0
 0.145993428992444D+03 0.000000000000000D+00 0.000000000000000D+00 0.145993428992444D+03
 0.145993428992444D+03 0.000000000000000D+00 0.000000000000000D+00 -.145993428992444D+03
 0.158510685259468D+03 -.684525208362252D+02 0.457336439981521D+02 0.521854724922796D+02
 0.133476172725420D+03 0.684525208362252D+02 -.457336439981521D+02 -.521854724922796D+02
 0.000000000000000D+00 -.000000000000000D+00 -.000000000000000D+00 -.000000000000000D+00
 0.154607712779382D+03 0.000000000000000D+00 0.000000000000000D+00 0.154607712779382D+03
 0.313094048914969D+03 0.000000000000000D+00 0.000000000000000D+00 -.313094048914969D+03
 0.150758732206652D+03 -.380150313809713D+02 0.541731408210593D+02 0.521854724922796D+02
 0.147383553355721D+03 0.960940025612545D+02 -.380694048846807D+02 -.521854724922796D+02
 0.169559476131978D+03 -.580789711802832D+02 -.161037359363786D+02 -.158486336135586D+03
0.245472787821D-03 0.000000000000D+00 0.000000000000D+00 0.158041163289D-02 0.000000000000D+00  5 -1 1 25 23 21 0 0.77378369D-02 0.65195908D-01 0.18567582D+05 0.18567582D+05 0.18567582D+05 0.12373951D+01  1  2  2  2  5  2        1 0.120380761893D+00 0.100000000000D+01
-.135584909250D-04 0.000000000000D+00 -.942680139702D-06 0.158041163289D-02 0.000000000000D+00  5 -1 1 25 23 21 2 0.77378369D-02 0.65195908D-01 0.18567582D+05 0.18567582D+05 0.18567582D+05 0.12373951D+01  1  2  3  2  5  2        1 -.101807992618D-01 0.100000000000D+01
0.169670238199D-04 0.000000000000D+00 0.000000000000D+00 0.158041163289D-02 0.000000000000D+00  5 -1 1 25 23 21 2 0.77378369D-02 0.65195908D-01 0.18567582D+05 0.18567582D+05 0.18567582D+05 0.12373951D+01  1  2 15  2  5  2        1 0.127401983403D-01 0.100000000000D+01
0.478552454184D-03 0.000000000000D+00 0.000000000000D+00 0.158041163289D-02 0.000000000000D+00  5 -1 1 25 23 21 2 0.77378369D-02 0.13953268D+00 0.28822557D+05 0.28822557D+05 0.28822557D+05 0.12167277D+01  1  2 12  2  5  2        1 0.120611466117D+00 0.100000000000D+01
-.607067062947D-03 0.000000000000D+00 -.847168755239D-04 0.158041163289D-02 0.000000000000D+00  5 -1 1 25 23 21 2 0.77378369D-02 0.14319993D+00 0.18567582D+05 0.18567582D+05 0.18567582D+05 0.12373951D+01  1  2  5  2  5  2        1 -.151367437353D+00 0.100000000000D+01
0.394055960003D-04 0.000000000000D+00 0.000000000000D+00 0.158041163289D-02 0.000000000000D+00  5 -1 21 25 23 -1 2 0.77378369D-02 0.13953268D+00 0.28822557D+05 0.28822557D+05 0.28822557D+05 0.12167277D+01  1  2 12  4  5  2        1 0.171162062651D-01 0.100000000000D+01
-.464343396952D-04 0.000000000000D+00 -.722434205377D-05 0.158041163289D-02 0.000000000000D+00  5 -1 21 25 23 -1 2 0.77378369D-02 0.14319993D+00 0.18567582D+05 0.18567582D+05 0.18567582D+05 0.12373951D+01  1  2  5  4  5  2        1 -.197733667998D-01 0.100000000000D+01
  </mgrwgt>
  </event>
  <event>
  4     66 0.43907321E-03 0.12057580E+03 0.75467711E-02 0.11349992E+00
       -1 -1    0    0    0  501 0.00000000E+00 0.00000000E+00 0.36995395E+02 0.36996779E+02 0.32000000E+00 0.0000E+00 0.9000E+01
        1 -1    0    0  501    0 0.00000000E+00 0.00000000E+00 -.39492321E+03 0.39492334E+03 0.32000000E+00 0.0000E+00 0.9000E+01
       25  1    1    2    0    0 0.34982112E+02 0.39678098E+02 -.21640346E+03 0.25544776E+03 0.12500000E+03 0.0000E+00 0.9000E+01
       23  1    1    2    0    0 -.34982112E+02 -.39678098E+02 -.14152436E+03 0.17647236E+03 0.91188000E+02 0.0000E+00 0.9000E+01
#aMCatNLO 1  0  0  1  2 0.15201068D+03 0.00000000D+00  -5  5  0 0.00000000D+00 0.00000000D+00 0.00000000D+00 0.00000000D+00 0.00000000D+00
  <mgrwgt>
 0.1255878756D+00    5    2    0
 0.120874592223335D+03 0.000000000000000D+00 0.000000000000000D+00 0.120874592223335D+03
 0.120874592223335D+03 0.000000000000000D+00 0.000000000000000D+00 -.120874592223335D+03
 0.135993047892029D+03 0.349821122776631D+02 0.396780981106242D+02 -.842670907771679D+01
 0.105756136554641D+03 -.349821122776631D+02 -.396780981106242D+02 0.842670907771679D+01
 0.000000000000000D+00 -.000000000000000D+00 -.000000000000000D+00 0.000000000000000D+00
 0.234569469399542D+03 0.000000000000000D+00 0.000000000000000D+00 0.234569469399542D+03
 0.205723421770637D+03 0.000000000000000D+00 0.000000000000000D+00 -.205723421770637D+03
 0.190725155428586D+03 0.121457588177944D+03 0.769943488924650D+02 -.842670907771679D+01
 0.948443016020301D+02 0.181126286308501D+02 -.167664385179824D+02 0.842670907771679D+01
 0.154723434139563D+03 -.139570216808794D+03 -.602279103744825D+02 0.288460476289055D+02
0.128005137256D-03 0.000000000000D+00 0.000000000000D+00 0.211843530427D-02 0.000000000000D+00  5 -1 1 25 23 21 0 0.56917156D-02 0.60757534D-01 0.14538523D+05 0.14538523D+05 0.14538523D+05 0.12493726D+01  1  2  2  1  5  1       -1 0.107723270449D+00 0.100000000000D+01
-.711134355016D-05 0.000000000000D+00 -.491573431589D-06 0.211843530427D-02 0.000000000000D+00  5 -1 1 25 23 21 2 0.56917156D-02 0.60757534D-01 0.14538523D+05 0.14538523D+05 0.14538523D+05 0.12493726D+01  1  2  3  1  5  1       -1 -.934152438802D-02 0.100000000000D+01
0.886942617634D-05 0.000000000000D+00 0.000000000000D+00 0.211843530427D-02 0.000000000000D+00  5 -1 1 25 23 21 2 0.56917156D-02 0.60757534D-01 0.14538523D+05 0.14538523D+05 0.14538523D+05 0.12493726D+01  1  2 15  1  5  1       -1 0.116509574245D-01 0.100000000000D+01
0.184826333520D-04 0.000000000000D+00 -.399755299359D-04 0.211843530427D-02 0.000000000000D+00  5 -1 1 25 23 21 2 0.18677885D-01 0.60757534D-01 0.14538523D+05 0.14538523D+05 0.14538523D+05 0.12493726D+01  1  2  5  1  5  1       -1 0.395022031715D-02 0.100000000000D+01
0.415126842335D-05 0.000000000000D+00 -.549582700631D-05 0.211843530427D-02 0.000000000000D+00  5 21 1 25 23 1 2 0.18677885D-01 0.60757534D-01 0.14538523D+05 0.14538523D+05 0.14538523D+05 0.12493726D+01  1  2  5  3  5  1       -1 0.116049517642D-01 0.100000000000D+01
  </mgrwgt>
  </event>
  <event>
  5     66 0.43907321E-03 0.10826099E+03 0.75467711E-02 0.12036049E+00
       21 -1    0    0  502  501 0.00000000E+00 0.00000000E+00 0.57654868E+02 0.57659746E+02 0.75000000E+00 0.0000E+00 0.9000E+01
        1 -1    0    0  501    0 0.00000000E+00 0.00000000E+00 -.88442121E+03 0.88442127E+03 0.32000000E+00 0.0000E+00 0.9000E+01
       25  1    1    2    0    0 0.18600355E+02 -.30855365E+02 -.24599333E+03 0.27827279E+03 0.12500000E+03 0.0000E+00 0.9000E+01
       23  1    1    2    0    0 0.24991351E+02 -.21276192E+02 -.58757366E+03 0.59551264E+03 0.91188000E+02 0.0000E+00 0.9000E+01
        1  1    1    2  502    0 -.43591707E+02 0.52131557E+02 0.68006484E+01 0.68295588E+02 0.32000000E+00 0.0000E+00 0.9000E+01
#aMCatNLO 2  0  0  1  2 0.67955398D+02 0.00000000D+00  -5  5  0 0.00000000D+00 0.00000000D+00 0.00000000D+00 0.00000000D+00 0.00000000D+00
  <mgrwgt>
 0.1812252629D+00    2    2    0
 0.126539626619648D+03 0.000000000000000D+00 0.000000000000000D+00 0.126539626619648D+03
 0.126539626619648D+03 0.000000000000000D+00 0.000000000000000D+00 -.126539626619648D+03
 0.140981246314740D+03 -.563354901115927D+01 -.187390845619424D+01 0.649266001350309D+02
 0.112098006924555D+03 0.563354901115927D+01 0.187390845619424D+01 -.649266001350309D+02
 0.000000000000000D+00 -.000000000000000D+00 0.000000000000000D+00 0.000000000000000D+00
 0.375667179985877D+03 0.000000000000000D+00 0.000000000000000D+00 0.375667179985877D+03
 0.135741001017905D+03 0.000000000000000D+00 0.000000000000000D+00 -.135741001017905D+03
 0.145390818845956D+03 0.186003553920890D+02 -.308553654797910D+02 0.649266001350309D+02
 0.116653155633993D+03 0.249913512551212D+02 -.212761916873662D+02 -.649266001350309D+02
 0.249364206523833D+03 -.435917066472102D+02 0.521315571671572D+02 0.239926178967973D+03
-.199859221498D-04 0.000000000000D+00 0.000000000000D+00 0.161100051299D-02 0.000000000000D+00  5 21 1 25 23 1 2 0.87292159D-02 0.12684174D+00 0.21750176D+05 0.21750176D+05 0.21750176D+05 0.12298352D+01  1  2 13  3  5  1       -1 -.770849966556D-01 0.100000000000D+01
0.768210580824D-04 0.000000000000D+00 0.000000000000D+00 0.161100051299D-02 0.679242199577D-06  5 21 1 25 23 1 2 0.88703530D-02 0.13606508D+00 0.21750176D+05 0.21750176D+05 0.21750176D+05 0.12298352D+01  1  2  1  3  5  1       -1 0.258310259550D+00 0.100000000000D+01
  </mgrwgt>
  </event>
  <event>
  4     66 0.43907321E-03 0.13438894E+03 0.75467711E-02 0.11221653E+00
       -1 -1    0    0    0  501 0.00000000E+00 0.00000000E+00 0.42767808E+02 0.42769005E+02 0.32000000E+00 0.0000E+00 0.9000E+01
        1 -1    0    0  501    0 0.00000000E+00 0.00000000E+00 -.60865762E+03 0.60865771E+03 0.32000000E+00 0.0000E+00 0.9000E+01
       25  1    1    2    0    0 -.29963111E+02 0.73330637E+02 -.12321270E+03 0.19256567E+03 0.12500000E+03 0.0000E+00 0.9000E+01
       23  1    1    2    0    0 0.29963111E+02 -.73330637E+02 -.44267712E+03 0.45886104E+03 0.91188000E+02 0.0000E+00 0.9000E+01
#aMCatNLO 1  0  0  2  2 0.16056224D+03 0.00000000D+00  -5  5  0 0.00000000D+00 0.00000000D+00 0.00000000D+00 0.00000000D+00 0.00000000D+00
  <mgrwgt>
 0.1134843878D+00    5    2    0
 0.161342399492141D+03 0.000000000000000D+00 0.000000000000000D+00 0.161342399492141D+03
 0.161342399492141D+03 0.000000000000000D+00 0.000000000000000D+00 -.161342399492141D+03
 0.172668852859342D+03 -.299631107013834D+02 0.733306366885262D+02 0.889627026776567D+02
 0.150015946124941D+03 0.299631107013834D+02 -.733306366885262D+02 -.889627026776567D+02
 0.000000000000000D+00 0.000000000000000D+00 0.000000000000000D+00 -.000000000000000D+00
 0.246625990357283D+03 0.000000000000000D+00 0.000000000000000D+00 0.246625990357283D+03
 0.277256112075198D+03 0.000000000000000D+00 0.000000000000000D+00 -.277256112075198D+03
 0.157804206368235D+03 -.366929468272423D+02 -.405373074199589D+01 0.889627026776567D+02
 0.202620143532915D+03 0.227819410744010D+02 -.155904752700065D+03 -.889627026776567D+02
 0.163457752531331D+03 0.139110057528413D+02 0.159958483442061D+03 -.306301217179158D+02
0.286814979829D-03 0.000000000000D+00 0.000000000000D+00 0.121808278097D-02 0.000000000000D+00  5 -1 1 25 23 21 0 0.65797614D-02 0.93639733D-01 0.18060387D+05 0.18060387D+05 0.18060387D+05 0.12387334D+01  1  2  2  2  5  2        1 0.111515005514D+00 0.100000000000D+01
-.152868456782D-04 0.000000000000D+00 -.110144504266D-05 0.121808278097D-02 0.000000000000D+00  5 -1 1 25 23 21 2 0.65797614D-02 0.93639733D-01 0.18060387D+05 0.18060387D+05 0.18060387D+05 0.12387334D+01  1  2  3  2  5  2        1 -.912021505959D-02 0.100000000000D+01
0.198004830487D-04 0.000000000000D+00 0.000000000000D+00 0.121808278097D-02 0.000000000000D+00  5 -1 1 25 23 21 2 0.65797614D-02 0.93639733D-01 0.18060387D+05 0.18060387D+05 0.18060387D+05 0.12387334D+01  1  2 15  2  5  2        1 0.118130756004D-01 0.100000000000D+01
-.107728695317D-04 0.000000000000D+00 -.953439532954D-04 0.121808278097D-02 0.000000000000D+00  5 -1 1 25 23 21 2 0.65797614D-02 0.21663116D+00 0.18060387D+05 0.18060387D+05 0.18060387D+05 0.12387334D+01  1  2  5  2  5  2        1 -.159971594991D-02 0.100000000000D+01
0.504554799081D-05 0.000000000000D+00 -.870873905387D-05 0.121808278097D-02 0.000000000000D+00  5 -1 21 25 23 -1 2 0.65797614D-02 0.21663116D+00 0.18060387D+05 0.18060387D+05 0.18060387D+05 0.12387334D+01  1  2  5  4  5  2        1 0.876237659424D-03 0.100000000000D+01
  </mgrwgt>
  </event>
  <event>
  4     66 0.43907321E-03 0.42459087E+02 0.75467711E-02 0.11906605E+00
       -1 -1    0    0    0  501 0.00000000E+00 0.00000000E+00 0.68960581E+02 0.68961324E+02 0.32000000E+00 0.0000E+00 0.9000E+01
        1 -1    0    0  501    0 0.00000000E+00 0.00000000E+00 -.39421036E+03 0.39421049E+03 0.32000000E+00 0.0000E+00 0.9000E+01
       25  1    1    2    0    0 -.98146341E+02 -.11616496E+02 -.68727378E+02 0.17353991E+03 0.12500000E+03 0.0000E+00 0.9000E+01
       23  1    1    2    0    0 0.98146341E+02 0.11616496E+02 -.25652240E+03 0.28963191E+03 0.91188000E+02 0.0000E+00 0.9000E+01
#aMCatNLO 1  0  0  2  1 0.21885065D+02 0.00000000D+00  -5  5  0 0.00000000D+00 0.00000000D+00 0.00000000D+00 0.00000000D+00 0.00000000D+00
  <mgrwgt>
 0.1732918556D+00    6    2    0
 0.164879282258069D+03 0.000000000000000D+00 0.000000000000000D+00 0.164879282258069D+03
 0.164879282258069D+03 0.000000000000000D+00 0.000000000000000D+00 -.164879282258069D+03
 0.175962767939063D+03 -.981463413473680D+02 -.116164963303077D+02 0.746340967246910D+02
 0.153795796577074D+03 0.981463413473680D+02 0.116164963303077D+02 -.746340967246910D+02
 0.000000000000000D+00 0.000000000000000D+00 -.000000000000000D+00 0.000000000000000D+00
 0.177693850224006D+03 0.000000000000000D+00 0.000000000000000D+00 0.177693850224006D+03
 0.174858152527598D+03 0.000000000000000D+00 0.000000000000000D+00 -.174858152527598D+03
 0.175741662659445D+03 -.984371991156745D+02 0.378240216821961D-01 0.746340967246910D+02
 0.154742326249656D+03 0.978911818951821D+02 0.218404281645050D+02 -.746340967246910D+02
 0.220680138425027D+02 0.546017220492373D+00 -.218782521861872D+02 0.283569769640743D+01
0.345626822990D-03 0.000000000000D+00 0.000000000000D+00 0.133437746115D-02 0.000000000000D+00  5 -1 1 25 23 21 0 0.10609387D-01 0.60647815D-01 0.21583044D+05 0.21583044D+05 0.21583044D+05 0.12302005D+01  1  2  2  2  5  2        1 0.115382047708D+00 0.100000000000D+01
-.188906821948D-04 0.000000000000D+00 -.132729800591D-05 0.133437746115D-02 0.000000000000D+00  5 -1 1 25 23 21 2 0.10609387D-01 0.60647815D-01 0.21583044D+05 0.21583044D+05 0.21583044D+05 0.12302005D+01  1  2  3  2  5  2        1 -.954399543260D-02 0.100000000000D+01
0.238235595919D-04 0.000000000000D+00 0.000000000000D+00 0.133437746115D-02 0.000000000000D+00  5 -1 1 25 23 21 2 0.10609387D-01 0.60647815D-01 0.21583044D+05 0.21583044D+05 0.21583044D+05 0.12302005D+01  1  2 15  2  5  2        1 0.120361954951D-01 0.100000000000D+01
0.492909222648D-03 0.000000000000D+00 0.000000000000D+00 0.133437746115D-02 0.000000000000D+00  5 -1 1 25 23 21 2 0.10609387D-01 0.66520323D-01 0.25050307D+05 0.25050307D+05 0.25050307D+05 0.12232041D+01  1  2 12  2  5  2        1 0.219592803090D+00 0.100000000000D+01
-.347867092239D-03 0.000000000000D+00 0.000000000000D+00 0.133437746115D-02 0.000000000000D+00  5 -1 1 25 23 21 2 0.10609387D-01 0.60647815D-01 0.21583044D+05 0.21583044D+05 0.21583044D+05 0.12302005D+01  1  2  4  2  5  2        1 -.175750240528D+00 0.100000000000D+01
0.747651143645D-05 0.000000000000D+00 0.000000000000D+00 0.133437746115D-02 0.000000000000D+00  5 -1 21 25 23 -1 2 0.10609387D-01 0.66520323D-01 0.25050307D+05 0.25050307D+05 0.25050307D+05 0.12232041D+01  1  2 12  4  5  2        1 0.115750452354D-01 0.100000000000D+01
  </mgrwgt>
  </event>
  <event>
  4     66 0.43907321E-03 0.13927256E+03 0.75467711E-02 0.11254395E+00
       -1 -1    0    0    0  501 0.00000000E+00 0.00000000E+00 0.56180814E+02 0.56181726E+02 0.32000000E+00 0.0000E+00 0.9000E+01
        1 -1    0    0  501    0 0.00000000E+00 0.00000000E+00 -.36240099E+03 0.36240113E+03 0.32000000E+00 0.0000E+00 0.9000E+01
       25  1    1    2    0    0 -.24517829E+02 0.83652636E+02 -.21218509E+03 0.26124012E+03 0.12500000E+03 0.0000E+00 0.9000E+01
       23  1    1    2    0    0 0.24517829E+02 -.83652636E+02 -.94035076E+02 0.15734273E+03 0.91188000E+02 0.0000E+00 0.9000E+01
#aMCatNLO 1  0  0  1  1 0.14821113D+03 0.00000000D+00  -5  5  0 0.00000000D+00 0.00000000D+00 0.00000000D+00 0.00000000D+00 0.00000000D+00
  <mgrwgt>
 0.1265493002D+00    3    2    0
 0.142689182247729D+03 0.000000000000000D+00 0.000000000000000D+00 0.142689182247729D+03
 0.142689182247729D+03 0.000000000000000D+00 0.000000000000000D+00 -.142689182247729D+03
 0.155496300034887D+03 -.245178291819133D+02 0.836526360666821D+02 -.309065018376630D+02
 0.129882064460570D+03 0.245178291819133D+02 -.836526360666821D+02 0.309065018376630D+02
 0.000000000000000D+00 0.000000000000000D+00 -.000000000000000D+00 -.000000000000000D+00
 0.227685181567005D+03 0.000000000000000D+00 0.000000000000000D+00 0.227685181567005D+03
 0.242872145961099D+03 0.000000000000000D+00 0.000000000000000D+00 -.242872145961099D+03
 0.197995063207812D+03 -.108319155086230D+03 0.104349383516288D+03 -.309065018376630D+02
 0.123575070568196D+03 -.355686288873239D+02 -.688128440421473D+02 0.309065018376630D+02
 0.148987193752096D+03 0.143887783973554D+03 -.355365394741403D+02 -.151869643940938D+02
0.245078563853D-03 0.000000000000D+00 0.000000000000D+00 0.172999548523D-02 0.000000000000D+00  5 -1 1 25 23 21 0 0.86432832D-02 0.55754079D-01 0.19396845D+05 0.19396845D+05 0.19396845D+05 0.12352928D+01  1  2  2  1  5  1       -1 0.123972541398D+00 0.100000000000D+01
-.136057520672D-04 0.000000000000D+00 -.941166215864D-06 0.172999548523D-02 0.000000000000D+00  5 -1 1 25 23 21 2 0.86432832D-02 0.55754079D-01 0.19396845D+05 0.19396845D+05 0.19396845D+05 0.12352928D+01  1  2  3  1  5  1       -1 -.105022553141D-01 0.100000000000D+01
0.169439627660D-04 0.000000000000D+00 0.000000000000D+00 0.172999548523D-02 0.000000000000D+00  5 -1 1 25 23 21 2 0.86432832D-02 0.55754079D-01 0.19396845D+05 0.19396845D+05 0.19396845D+05 0.12352928D+01  1  2 15  1  5  1       -1 0.130790140906D-01 0.100000000000D+01
  </mgrwgt>
  </event>
  <event>
  4     66 0.43907321E-03 0.51037917E+02 0.75467711E-02 0.11958374E+00
       -1 -1    0    0    0  501 0.00000000E+00 0.00000000E+00 0.23381409E+02 0.23383599E+02 0.32000000E+00 0.0000E+00 0.9000E+01
        1 -1    0    0  501    0 0.00000000E+00 0.00000000E+00 -.67382417E+03 0.67382424E+03 0.32000000E+00 0.0000E+00 0.9000E+01
       25  1    1    2    0    0 0.49141213E+02 -.32898314E+02 -.42506933E+03 0.44699675E+03 0.12500000E+03 0.0000E+00 0.9000E+01
       23  1    1    2    0    0 -.49141213E+02 0.32898314E+02 -.22537342E+03 0.25021109E+03 0.91188000E+02 0.0000E+00 0.9000E+01
#aMCatNLO 1  0  0  2  1 0.54789050D+02 0.00000000D+00  -5  5  0 0.00000000D+00 0.00000000D+00 0.00000000D+00 0.00000000D+00 0.00000000D+00
  <mgrwgt>
 0.1480685809D+00    9    2    0
 0.125521904315380D+03 0.000000000000000D+00 0.000000000000000D+00 0.125521904315380D+03
 0.125521904315380D+03 0.000000000000000D+00 0.000000000000000D+00 -.125521904315380D+03
 0.140080615593441D+03 0.491412134673322D+02 -.328983136891035D+02 -.223700907554894D+02
 0.110963193037319D+03 -.491412134673322D+02 0.328983136891035D+02 0.223700907554894D+02
 0.000000000000000D+00 -.000000000000000D+00 0.000000000000000D+00 -.000000000000000D+00
 0.138653496588045D+03 0.000000000000000D+00 0.000000000000000D+00 0.138653496588045D+03
 0.202217228218307D+03 0.000000000000000D+00 0.000000000000000D+00 -.202217228218307D+03
 0.152300342034148D+03 0.545813916746795D+02 -.639597131494876D+02 -.223700907554894D+02
 0.104652637724672D+03 -.451293634713946D+02 0.999213845928127D+01 0.223700907554894D+02
 0.839177450475325D+02 -.945202820328491D+01 0.539675746902063D+02 -.635637316302620D+02
0.160805624568D-03 0.000000000000D+00 0.000000000000D+00 0.198696573456D-02 0.000000000000D+00  5 -1 1 25 23 21 0 0.35973142D-02 0.10366543D+00 0.15248273D+05 0.15248273D+05 0.15248273D+05 0.12470106D+01  1  2  2  2  5  2        1 0.131835913756D+00 0.100000000000D+01
-.893073521891D-05 0.000000000000D+00 -.617535939436D-06 0.198696573456D-02 0.000000000000D+00  5 -1 1 25 23 21 2 0.35973142D-02 0.10366543D+00 0.15248273D+05 0.15248273D+05 0.15248273D+05 0.12470106D+01  1  2  3  2  5  2        1 -.113857068171D-01 0.100000000000D+01
0.111264062801D-04 0.000000000000D+00 0.000000000000D+00 0.198696573456D-02 0.000000000000D+00  5 -1 1 25 23 21 2 0.35973142D-02 0.10366543D+00 0.15248273D+05 0.15248273D+05 0.15248273D+05 0.12470106D+01  1  2 15  2  5  2        1 0.141849463374D-01 0.100000000000D+01
0.134703752230D-03 0.000000000000D+00 0.000000000000D+00 0.198696573456D-02 0.000000000000D+00  5 -1 1 25 23 21 2 0.35973142D-02 0.16967599D+00 0.23665419D+05 0.23665419D+05 0.23665419D+05 0.12258603D+01  1  2 12  2  5  2        1 0.772128146419D-01 0.100000000000D+01
-.174976202920D-03 0.000000000000D+00 0.000000000000D+00 0.198696573456D-02 0.000000000000D+00  5 -1 1 25 23 21 2 0.35973142D-02 0.10366543D+00 0.15248273D+05 0.15248273D+05 0.15248273D+05 0.12470106D+01  1  2  4  2  5  2        1 -.223075446488D+00 0.100000000000D+01
-.205840992914D-03 0.000000000000D+00 -.608402202923D-04 0.198696573456D-02 0.000000000000D+00  5 -1 1 25 23 21 2 0.35973142D-02 0.17594082D+00 0.15248273D+05 0.15248273D+05 0.15248273D+05 0.12470106D+01  1  2  5  2  5  2        1 -.113621527096D+00 0.100000000000D+01
0.214874720030D-03 0.000000000000D+00 0.532191154526D-04 0.198696573456D-02 0.000000000000D+00  5 -1 1 25 23 21 2 0.35973142D-02 0.10366543D+00 0.15248273D+05 0.15248273D+05 0.15248273D+05 0.12470106D+01  1  2  6  2  5  2        1 0.273941674979D+00 0.100000000000D+01
0.750750672685D-05 0.000000000000D+00 0.000000000000D+00 0.198696573456D-02 0.000000000000D+00  5 -1 21 25 23 -1 2 0.35973142D-02 0.16967599D+00 0.23665419D+05 0.23665419D+05 0.23665419D+05 0.12258603D+01  1  2 12  4  5  2        1 0.621524537971D-02 0.100000000000D+01
-.922533620897D-05 0.000000000000D+00 -.358925219820D-05 0.198696573456D-02 0.000000000000D+00  5 -1 21 25 23 -1 2 0.35973142D-02 0.17594082D+00 0.15248273D+05 0.15248273D+05 0.15248273D+05 0.12470106D+01  1  2  5  4  5  2        1 -.723933377452D-02 0.100000000000D+01
  </mgrwgt>
  </event>
  <event>
  4     66 0.43907321E-03 0.10962118E+03 0.75467711E-02 0.12333691E+00
       -1 -1    0    0    0  501 0.00000000E+00 0.00000000E+00 0.22875384E+03 0.22875406E+03 0.32000000E+00 0.0000E+00 0.9000E+01
        1 -1    0    0  501    0 0.00000000E+00 0.00000000E+00 -.75063658E+02 0.75064340E+02 0.32000000E+00 0.0000E+00 0.9000E+01
       25  1    1    2    0    0 -.10719627E+02 -.14480015E+02 0.24706870E+01 0.12631582E+03 0.12500000E+03 0.0000E+00 0.9000E+01
       23  1    1    2    0    0 0.10719627E+02 0.14480015E+02 0.15121949E+03 0.17750258E+03 0.91188000E+02 0.0000E+00 0.9000E+01
#aMCatNLO 1  0  0  1  1 0.30774052D+02 0.00000000D+00  -5  5  0 0.00000000D+00 0.00000000D+00 0.00000000D+00 0.00000000D+00 0.00000000D+00
  <mgrwgt>
 0.1460736840D+00    4    2    0
 0.131039067809430D+03 0.000000000000000D+00 0.000000000000000D+00 0.131039067809430D+03
 0.131039067809430D+03 0.000000000000000D+00 0.000000000000000D+00 -.131039067809430D+03
 0.144984810819886D+03 -.107196273769470D+02 -.144800149844614D+02 -.712110533795647D+02
 0.117093324798974D+03 0.107196273769470D+02 0.144800149844614D+02 0.712110533795647D+02
 0.000000000000000D+00 0.000000000000000D+00 -.000000000000000D+00 -.000000000000000D+00
 0.133981374109046D+03 0.000000000000000D+00 0.000000000000000D+00 0.133981374109046D+03
 0.247884673802362D+03 0.000000000000000D+00 0.000000000000000D+00 -.247884673802362D+03
 0.145812591738793D+03 -.235458435228872D+02 -.330015741326159D+01 -.712110533795647D+02
 0.118066152048695D+03 0.347436111566713D+00 0.235208435288096D+02 0.712110533795647D+02
 0.117987304123921D+03 0.231984074113205D+02 -.202206861155480D+02 -.113903299693316D+03
0.382347859537D-03 0.000000000000D+00 0.000000000000D+00 0.149802976409D-02 0.000000000000D+00  5 -1 1 25 23 21 0 0.35192967D-01 0.11548325D-01 0.12016802D+05 0.12016802D+05 0.12016802D+05 0.12589529D+01  1  2  2  1  5  1       -1 0.148091121746D+00 0.100000000000D+01
-.204189765728D-04 0.000000000000D+00 -.146831645512D-05 0.149802976409D-02 0.000000000000D+00  5 -1 1 25 23 21 2 0.35192967D-01 0.11548325D-01 0.12016802D+05 0.12016802D+05 0.12016802D+05 0.12589529D+01  1  2  3  1  5  1       -1 -.125349698048D-01 0.100000000000D+01
0.263220552279D-04 0.000000000000D+00 0.000000000000D+00 0.149802976409D-02 0.000000000000D+00  5 -1 1 25 23 21 2 0.35192967D-01 0.11548325D-01 0.12016802D+05 0.12016802D+05 0.12016802D+05 0.12589529D+01  1  2 15  1  5  1       -1 0.161588004328D-01 0.100000000000D+01
-.918940593341D-05 0.000000000000D+00 0.000000000000D+00 0.149802976409D-02 0.000000000000D+00  5 -1 1 25 23 21 2 0.35192967D-01 0.11548325D-01 0.12016802D+05 0.12016802D+05 0.12016802D+05 0.12589529D+01  1  2  4  1  5  1       -1 -.564126833136D-02 0.100000000000D+01
  </mgrwgt>
  </event>
  <event>
  5     66 0.43907321E-03 0.11708232E+03 0.75467711E-02 0.12209011E+00
       21 -1    0    0  502  501 0.00000000E+00 0.00000000E+00 0.50988673E+01 0.51537314E+01 0.75000000E+00 0.0000E+00 0.9000E+01
        1 -1    0    0  501    0 0.00000000E+00 0.00000000E+00 -.37204251E+04 0.37204251E+04 0.32000000E+00 0.0000E+00 0.9000E+01
       25  1    1    2    0    0 0.41351207E+02 0.42846659E+02 -.14899166E+04 0.14963362E+04 0.12500000E+03 0.0000E+00 0.9000E+01
       23  1    1    2    0    0 -.33872614E+02 -.11035445E+02 -.17033871E+04 0.17061981E+04 0.91188000E+02 0.0000E+00 0.9000E+01
        1  1    1    2  502    0 -.74785923E+01 -.31811215E+02 -.52202262E+03 0.52304455E+03 0.32000000E+00 0.0000E+00 0.9000E+01
#aMCatNLO 2  0  0  1  2 0.32678475D+02 0.00000000D+00  -5  5  0 0.00000000D+00 0.00000000D+00 0.00000000D+00 0.00000000D+00 0.00000000D+00
  <mgrwgt>
 0.2713305970D-01    1    2    0
 0.120384870931330D+03 0.000000000000000D+00 0.000000000000000D+00 0.120384870931330D+03
 0.120384870931330D+03 0.000000000000000D+00 0.000000000000000D+00 -.120384870931330D+03
 0.135564827929767D+03 0.370722603353247D+02 0.246455769394171D+02 0.277680683984402D+02
 0.105204913932892D+03 -.370722603353247D+02 -.246455769394171D+02 -.277680683984402D+02
 0.000000000000000D+00 -.000000000000000D+00 -.000000000000000D+00 -.000000000000000D+00
 0.134937894372254D+03 0.000000000000000D+00 0.000000000000000D+00 0.134937894372254D+03
 0.141338842953164D+03 0.000000000000000D+00 0.000000000000000D+00 -.141338842953164D+03
 0.141215523657385D+03 0.413512065132050D+02 0.428466593697943D+02 0.277680683984402D+02
 0.101761741350121D+03 -.338726142134320D+02 -.110354448200516D+02 -.277680683984402D+02
 0.332994723179128D+02 -.747859229977302D+01 -.318112145497427D+02 -.640094858090990D+01
0.126472600324D-04 0.000000000000D+00 0.000000000000D+00 0.205151283360D-02 0.330839837526D-06  5 21 1 25 23 1 2 0.78865809D-03 0.57237411D+00 0.18095208D+05 0.18095208D+05 0.18095208D+05 0.12386402D+01  1  2  1  3  5  1       -1 0.271330596953D-01 0.100000000000D+01
  </mgrwgt>
  </event>
  <event>
  4     66 0.43907321E-03 0.10982069E+03 0.75467711E-02 0.10851068E+00
       -1 -1    0    0    0  501 0.00000000E+00 0.00000000E+00 0.68919687E+02 0.68920430E+02 0.32000000E+00 0.0000E+00 0.9000E+01
        1 -1    0    0  501    0 0.00000000E+00 0.00000000E+00 -.17881339E+03 0.17881368E+03 0.32000000E+00 0.0000E+00 0.9000E+01
       25  1    1    2    0    0 -.18142783E+02 -.61801021E+01 -.45193564E+02 0.13429375E+03 0.12500000E+03 0.0000E+00 0.9000E+01
       23  1    1    2    0    0 0.18142783E+02 0.61801021E+01 -.64700142E+02 0.11344035E+03 0.91188000E+02 0.0000E+00 0.9000E+01
#aMCatNLO 1  0  0  2  2 0.26015386D+03 0.00000000D+00  -5  5  0 0.00000000D+00 0.00000000D+00 0.00000000D+00 0.00000000D+00 0.00000000D+00
  <mgrwgt>
 0.1385884168D+00    5    2    0
 0.111013019534361D+03 0.000000000000000D+00 0.000000000000000D+00 0.111013019534361D+03
 0.111013019534361D+03 0.000000000000000D+00 0.000000000000000D+00 -.111013019534361D+03
 0.127474486591695D+03 -.181427834600527D+02 -.618010212872258D+01 0.160433935879033D+02
 0.945515524770280D+02 0.181427834600527D+02 0.618010212872258D+01 -.160433935879033D+02
 0.000000000000000D+00 0.000000000000000D+00 0.000000000000000D+00 -.000000000000000D+00
 0.216207552762979D+03 0.000000000000000D+00 0.000000000000000D+00 0.216207552762979D+03
 0.545352568698647D+03 0.000000000000000D+00 0.000000000000000D+00 -.545352568698647D+03
 0.218339054956186D+03 -.176494101292303D+03 -.252860564415702D+02 0.160433935879033D+02
 0.123677894480517D+03 -.817865610093736D+02 -.587692092660956D+01 -.160433935879033D+02
 0.419543172024922D+03 0.258280662301676D+03 0.311629773681797D+02 -.329145015935668D+03
0.144482339146D-03 0.000000000000D+00 0.000000000000D+00 0.233906079367D-02 0.000000000000D+00  5 -1 1 25 23 21 0 0.10603108D-01 0.27509832D-01 0.12060584D+05 0.12060584D+05 0.12060584D+05 0.12587679D+01  1  2  2  2  5  2        1 0.126310143248D+00 0.100000000000D+01
-.802565858872D-05 0.000000000000D+00 -.554850225394D-06 0.233906079367D-02 0.000000000000D+00  5 -1 1 25 23 21 2 0.10603108D-01 0.27509832D-01 0.12060584D+05 0.12060584D+05 0.12060584D+05 0.12587679D+01  1  2  3  2  5  2        1 -.111172004785D-01 0.100000000000D+01
0.996770595902D-05 0.000000000000D+00 0.000000000000D+00 0.233906079367D-02 0.000000000000D+00  5 -1 1 25 23 21 2 0.10603108D-01 0.27509832D-01 0.12060584D+05 0.12060584D+05 0.12060584D+05 0.12587679D+01  1  2 15  2  5  2        1 0.138073385795D-01 0.100000000000D+01
0.108886361193D-03 0.000000000000D+00 -.976602938936D-04 0.233906079367D-02 0.000000000000D+00  5 -1 1 25 23 21 2 0.10603108D-01 0.21661107D+00 0.12060584D+05 0.12060584D+05 0.12060584D+05 0.12587679D+01  1  2  5  2  5  2        1 0.816478594304D-02 0.100000000000D+01
0.159127722476D-04 0.000000000000D+00 -.244870680500D-04 0.233906079367D-02 0.000000000000D+00  5 -1 21 25 23 -1 2 0.10603108D-01 0.21661107D+00 0.12060584D+05 0.12060584D+05 0.12060584D+05 0.12587679D+01  1  2  5  4  5  2        1 0.142334954318D-02 0.100000000000D+01
  </mgrwgt>
  </event>
  <event>
  4     66 0.43907321E-03 0.92405108E+02 0.75467711E-02 0.11830013E+00
       -1 -1    0    0    0  501 0.00000000E+00 0.00000000E+00 0.71223780E+01 0.71295629E+01 0.32000000E+00 0.0000E+00 0.9000E+01
        1 -1    0    0  501    0 0.00000000E+00 0.00000000E+00 -.31412485E+04 0.31412485E+04 0.32000000E+00 0.0000E+00 0.9000E+01
       25  1    1    2    0    0 -.75261717E+02 -.50684164E+02 -.11870777E+04 0.11970847E+04 0.12500000E+03 0.0000E+00 0.9000E+01
       23  1    1    2    0    0 0.75261717E+02 0.50684164E+02 -.19470484E+04 0.19512934E+04 0.91188000E+02 0.0000E+00 0.9000E+01
#aMCatNLO 1  0  0  1  2 0.43885418D+02 0.00000000D+00  -5  5  0 0.00000000D+00 0.00000000D+00 0.00000000D+00 0.00000000D+00 0.00000000D+00
  <mgrwgt>
 0.1866067582D+00    9    2    0
 0.149614489205851D+03 0.000000000000000D+00 0.000000000000000D+00 0.149614489205851D+03
 0.149614489205851D+03 0.000000000000000D+00 0.000000000000000D+00 -.149614489205851D+03
 0.161828795278077D+03 -.752617166265277D+02 -.506841638530339D+02 0.482736835770866D+02
 0.137400183133625D+03 0.752617166265277D+02 0.506841638530339D+02 -.482736835770866D+02
 0.000000000000000D+00 0.000000000000000D+00 -.000000000000000D+00 0.000000000000000D+00
 0.175217639043378D+03 0.000000000000000D+00 0.000000000000000D+00 0.175217639043378D+03
 0.171274574453778D+03 0.000000000000000D+00 0.000000000000000D+00 -.171274574453778D+03
 0.166565720875338D+03 -.927833928423519D+02 -.343516063275361D+02 0.482736835770866D+02
 0.135864289978040D+03 0.606815352177931D+02 0.642748528177854D+02 -.482736835770866D+02
 0.440622026437787D+02 0.321018576245588D+02 -.299232464902493D+02 0.394306458960034D+01
0.134440199334D-02 0.000000000000D+00 0.000000000000D+00 0.158204081575D-02 0.000000000000D+00  5 -1 1 25 23 21 0 0.10963044D-02 0.48326956D+00 0.20036665D+05 0.20036665D+05 0.20036665D+05 0.12337385D+01  1  2  2  1  5  1       -1 0.129961529949D+00 0.100000000000D+01
-.744102627680D-04 0.000000000000D+00 -.516285764361D-05 0.158204081575D-02 0.000000000000D+00  5 -1 1 25 23 21 2 0.10963044D-02 0.48326956D+00 0.20036665D+05 0.20036665D+05 0.20036665D+05 0.12337385D+01  1  2  3  1  5  1       -1 -.109487547817D-01 0.100000000000D+01
0.929079961057D-04 0.000000000000D+00 0.000000000000D+00 0.158204081575D-02 0.000000000000D+00  5 -1 1 25 23 21 2 0.10963044D-02 0.48326956D+00 0.20036665D+05 0.20036665D+05 0.20036665D+05 0.12337385D+01  1  2 15  1  5  1       -1 0.136705184041D-01 0.100000000000D+01
0.616255868164D-03 0.000000000000D+00 0.000000000000D+00 0.158204081575D-02 0.000000000000D+00  5 -1 1 25 23 21 2 0.13512389D-02 0.48326956D+00 0.27274769D+05 0.27274769D+05 0.27274769D+05 0.12192634D+01  1  2 12  1  5  1       -1 0.652836716882D-01 0.100000000000D+01
-.571390241289D-03 0.000000000000D+00 0.000000000000D+00 0.158204081575D-02 0.000000000000D+00  5 -1 1 25 23 21 2 0.10963044D-02 0.48326956D+00 0.20036665D+05 0.20036665D+05 0.20036665D+05 0.12337385D+01  1  2  4  1  5  1       -1 -.840745806267D-01 0.100000000000D+01
-.114382927705D-02 0.000000000000D+00 -.547196748998D-03 0.158204081575D-02 0.000000000000D+00  5 -1 1 25 23 21 2 0.16161806D-02 0.48326956D+00 0.20036665D+05 0.20036665D+05 0.20036665D+05 0.12337385D+01  1  2  5  1  5  1       -1 -.964863193841D-01 0.100000000000D+01
0.129612978541D-02 0.000000000000D+00 0.508419994363D-03 0.158204081575D-02 0.000000000000D+00  5 -1 1 25 23 21 2 0.10963044D-02 0.48326956D+00 0.20036665D+05 0.20036665D+05 0.20036665D+05 0.12337385D+01  1  2  6  1  5  1       -1 0.190713036856D+00 0.100000000000D+01
0.182433872879D-04 0.000000000000D+00 0.000000000000D+00 0.158204081575D-02 0.000000000000D+00  5 21 1 25 23 1 2 0.13512389D-02 0.48326956D+00 0.27274769D+05 0.27274769D+05 0.27274769D+05 0.12192634D+01  1  2 12  3  5  1       -1 0.426058565767D-01 0.100000000000D+01
-.353357961114D-04 0.000000000000D+00 -.254780577319D-04 0.158204081575D-02 0.000000000000D+00  5 21 1 25 23 1 2 0.16161806D-02 0.48326956D+00 0.20036665D+05 0.20036665D+05 0.20036665D+05 0.12337385D+01  1  2  5  3  5  1       -1 -.641182004326D-01 0.100000000000D+01
  </mgrwgt>
  </event>
  <event>
  5     66 0.43907321E-03 0.15221761E+03 0.75467711E-02 0.11355540E+00
       21 -1    0    0  502  501 0.00000000E+00 0.00000000E+00 0.18819119E+03 0.18819269E+03 0.75000000E+00 0.0000E+00 0.9000E+01
        1 -1    0    0  501    0 0.00000000E+00 0.00000000E+00 -.86944587E+03 0.86944593E+03 0.32000000E+00 0.0000E+00 0.9000E+01
       25  1    1    2    0    0 0.57332014E+02 0.15535323E+03 -.12361115E+03 0.24150839E+03 0.12500000E+03 0.0000E+00 0.9000E+01
       23  1    1    2    0    0 -.50969999E+02 -.38946972E+02 -.65489158E+03 0.66431396E+03 0.91188000E+02 0.0000E+00 0.9000E+01
        1  1    1    2  502    0 -.63620152E+01 -.11640626E+03 0.97248053E+02 0.15181627E+03 0.32000000E+00 0.0000E+00 0.9000E+01
#aMCatNLO 2  0  0  1  2 0.11657998D+03 0.00000000D+00  -5  5  0 0.00000000D+00 0.00000000D+00 0.00000000D+00 0.00000000D+00 0.00000000D+00
  <mgrwgt>
 0.1587156875D+00    2    2    0
 0.224085217324167D+03 0.000000000000000D+00 0.000000000000000D+00 0.224085217324167D+03
 0.224085217324167D+03 0.000000000000000D+00 0.000000000000000D+00 -.224085217324167D+03
 0.232240316468241D+03 0.538632797331062D+02 0.918855364378252D+02 0.164214371731572D+03
 0.215930118180092D+03 -.538632797331062D+02 -.918855364378252D+02 -.164214371731572D+03
 0.000000000000000D+00 -.000000000000000D+00 -.000000000000000D+00 0.000000000000000D+00
 0.684488693287333D+03 0.000000000000000D+00 0.000000000000000D+00 0.684488693287333D+03
 0.239043835911654D+03 0.000000000000000D+00 0.000000000000000D+00 -.239043835911654D+03
 0.264599595559199D+03 0.573320144800574D+02 0.155353230422013D+03 0.164214371731572D+03
 0.198485311022808D+03 -.509699992937734D+02 -.389469721110469D+02 -.164214371731572D+03
 0.460447622616980D+03 -.636201518628398D+01 -.116406258310966D+03 0.445444857375680D+03
-.297384978391D-04 0.000000000000D+00 0.000000000000D+00 0.710567863514D-03 0.000000000000D+00  5 21 1 25 23 1 2 0.28496634D-01 0.12539065D+00 0.47425269D+05 0.47425269D+05 0.47425269D+05 0.11945624D+01  1  2 13  3  5  1       -1 -.123775980420D-01 0.100000000000D+01
0.469203965892D-03 0.000000000000D+00 0.000000000000D+00 0.710567863514D-03 0.138552307687D-06  5 21 1 25 23 1 2 0.28952604D-01 0.13376099D+00 0.47425269D+05 0.47425269D+05 0.47425269D+05 0.11945624D+01  1  2  1  3  5  1       -1 0.171093285573D+00 0.100000000000D+01
  </mgrwgt>
  </event>
  <event>
  5     66 0.43907321E-03 0.12828738E+03 0.75467711E-02 0.11893193E+00
       21 -1    0    0  502  501 0.00000000E+00 0.00000000E+00 0.18105260E+02 0.18120787E+02 0.75000000E+00 0.0000E+00 0.9000E+01
        1 -1    0    0  501    0 0.00000000E+00 0.00000000E+00 -.19725410E+04 0.19725410E+04 0.32000000E+00 0.0000E+00 0.9000E+01
       25  1    1    2    0    0 -.62096826E+02 0.80049522E+02 -.11564278E+04 0.11675676E+04 0.12500000E+03 0.0000E+00 0.9000E+01
       23  1    1    2    0    0 0.25903194E+02 -.37010226E+02 -.71871590E+03 0.72588465E+03 0.91188000E+02 0.0000E+00 0.9000E+01
        1  1    1    2  502    0 0.36193632E+02 -.43039296E+02 -.79292026E+02 0.97209504E+02 0.32000000E+00 0.0000E+00 0.9000E+01
#aMCatNLO 2  0  0  1  2 0.56234864D+02 0.00000000D+00  -5  5  0 0.00000000D+00 0.00000000D+00 0.00000000D+00 0.00000000D+00 0.00000000D+00
  <mgrwgt>
 0.4158472402D-01    2    2    0
 0.128291986113114D+03 0.000000000000000D+00 0.000000000000000D+00 0.128291986113114D+03
 0.128291986113114D+03 0.000000000000000D+00 0.000000000000000D+00 -.128291986113114D+03
 0.142536345557271D+03 -.409462466319010D+02 0.548985216363552D+02 -.108028409404399D+01
 0.114047626668956D+03 0.409462466319010D+02 -.548985216363552D+02 0.108028409404399D+01
 0.000000000000000D+00 0.000000000000000D+00 -.000000000000000D+00 0.000000000000000D+00
 0.259868098660518D+03 0.000000000000000D+00 0.000000000000000D+00 0.259868098660518D+03
 0.137488026944886D+03 0.000000000000000D+00 0.000000000000000D+00 -.137488026944886D+03
 0.160904035596855D+03 -.620968256203054D+02 0.800495215820284D+02 -.108028409404399D+01
 0.101770087129145D+03 0.259031940710584D+02 -.370102257959465D+02 0.108028409404399D+01
 0.134682002879404D+03 0.361936315492470D+02 -.430392957860819D+02 0.122380071715633D+03
-.250578929656D-04 0.000000000000D+00 0.000000000000D+00 0.198894518699D-02 0.000000000000D+00  5 21 1 25 23 1 2 0.27872477D-02 0.28317079D+00 0.25424243D+05 0.25424243D+05 0.25424243D+05 0.12225149D+01  1  2 13  3  5  1       -1 -.131853120614D+00 0.100000000000D+01
0.400056123207D-04 0.000000000000D+00 0.000000000000D+00 0.198894518699D-02 0.526553244765D-06  5 21 1 25 23 1 2 0.27866173D-02 0.30346863D+00 0.25424243D+05 0.25424243D+05 0.25424243D+05 0.12225149D+01  1  2  1  3  5  1       -1 0.173437844637D+00 0.100000000000D+01
  </mgrwgt>
  </event>
  <event>
  4     66 0.43907321E-03 0.22070812E+03 0.75467711E-02 0.10657214E+00
       -1 -1    0    0    0  501 0.00000000E+00 0.00000000E+00 0.12900508E+03 0.12900548E+03 0.32000000E+00 0.0000E+00 0.9000E+01
        1 -1    0    0  501    0 0.00000000E+00 0.00000000E+00 -.38557286E+03 0.38557300E+03 0.32000000E+00 0.0000E+00 0.9000E+01
       25  1    1    2    0    0 0.13635368E+03 -.13497473E+03 -.96017847E+02 0.24830411E+03 0.12500000E+03 0.0000E+00 0.9000E+01
       23  1    1    2    0    0 -.13635368E+03 0.13497473E+03 -.16054993E+03 0.26627437E+03 0.91188000E+02 0.0000E+00 0.9000E+01
#aMCatNLO 1  0  0  2  1 0.20042959D+03 0.00000000D+00  -5  5  0 0.00000000D+00 0.00000000D+00 0.00000000D+00 0.00000000D+00 0.00000000D+00
  <mgrwgt>
 0.1912828003D+00    3    2    0
 0.223026894722945D+03 0.000000000000000D+00 0.000000000000000D+00 0.223026894722945D+03
 0.223026894722945D+03 0.000000000000000D+00 0.000000000000000D+00 -.223026894722945D+03
 0.231220692005870D+03 0.136353682131357D+03 -.134974732485630D+03 0.320546934367941D+02
 0.214833097440021D+03 -.136353682131357D+03 0.134974732485630D+03 -.320546934367941D+02
 0.000000000000000D+00 -.000000000000000D+00 -.000000000000000D+00 0.000000000000000D+00
 0.428365522879972D+03 0.000000000000000D+00 0.000000000000000D+00 0.428365522879972D+03
 0.299131421035587D+03 0.000000000000000D+00 0.000000000000000D+00 -.299131421035587D+03
 0.199031059151708D+03 0.145245497660453D+03 -.431810669749049D+02 0.320546934367941D+02
 0.289984282669836D+03 -.125920852961594D+03 0.242676880377257D+03 -.320546934367941D+02
 0.238481602094015D+03 -.193246446988581D+02 -.199495813402352D+03 0.129234101844386D+03
0.145019789763D-02 0.000000000000D+00 0.000000000000D+00 0.137146111805D-02 0.000000000000D+00  5 -1 1 25 23 21 0 0.19846977D-01 0.59318943D-01 0.48712074D+05 0.48712074D+05 0.48712074D+05 0.11934058D+01  1  2  2  2  5  2        1 0.187715150509D+00 0.100000000000D+01
-.805558501128D-04 0.000000000000D+00 -.556914177277D-05 0.137146111805D-02 0.000000000000D+00  5 -1 1 25 23 21 2 0.19846977D-01 0.59318943D-01 0.48712074D+05 0.48712074D+05 0.48712074D+05 0.11934058D+01  1  2  3  2  5  2        1 -.148506488860D-01 0.100000000000D+01
0.999082072080D-04 0.000000000000D+00 0.000000000000D+00 0.137146111805D-02 0.000000000000D+00  5 -1 1 25 23 21 2 0.19846977D-01 0.59318943D-01 0.48712074D+05 0.48712074D+05 0.48712074D+05 0.11934058D+01  1  2 15  2  5  2        1 0.184182986586D-01 0.100000000000D+01
  </mgrwgt>
  </event>
  <event>
  5     66 0.43907321E-03 0.11045138E+03 0.75467711E-02 0.11676641E+00
       -1 -1    0    0    0  501 0.00000000E+00 0.00000000E+00 0.34119502E+02 0.34121002E+02 0.32000000E+00 0.0000E+00 0.9000E+01
        1 -1    0    0  502    0 0.00000000E+00 0.00000000E+00 -.16465278E+04 0.16465279E+04 0.32000000E+00 0.0000E+00 0.9000E+01
       25  1    1    2    0    0 -.49312165E+02 -.26277038E+02 -.27737022E+03 0.30932412E+03 0.12500000E+03 0.0000E+00 0.9000E+01
       23  1    1    2    0    0 -.25046162E+02 -.58032110E+02 -.18438562E+03 0.21519374E+03 0.91188000E+02 0.0000E+00 0.9000E+01
       21  1    1    2  502  501 0.74358328E+02 0.84309148E+02 -.11506525E+04 0.11561310E+04 0.75000000E+00 0.0000E+00 0.9000E+01
#aMCatNLO 2  0  0  2  1 0.11241527D+03 0.00000000D+00  -5  5  0 0.00000000D+00 0.00000000D+00 0.00000000D+00 0.00000000D+00 0.00000000D+00
  <mgrwgt>
 0.3020266040D-01    1    2    0
 0.110976723774228D+03 0.000000000000000D+00 0.000000000000000D+00 0.110976723774228D+03
 0.110976723774228D+03 0.000000000000000D+00 0.000000000000000D+00 -.110976723774228D+03
 0.127443574676384D+03 -.748863369431062D+01 0.211434247224788D+02 -.106649276927908D+02
 0.945098728720717D+02 0.748863369431062D+01 -.211434247224788D+02 0.106649276927908D+02
 0.000000000000000D+00 0.000000000000000D+00 0.000000000000000D+00 -.000000000000000D+00
 0.135257487542984D+03 0.000000000000000D+00 0.000000000000000D+00 0.135257487542984D+03
 0.415353243981734D+03 0.000000000000000D+00 0.000000000000000D+00 -.415353243981734D+03
 0.137335039537227D+03 -.493121653497672D+02 -.262770384654850D+02 -.106649276927908D+02
 0.111463124108385D+03 -.250461621575612D+02 -.580321098228038D+02 0.106649276927908D+02
 0.301812567879105D+03 0.743583275073284D+02 0.843091482882888D+02 -.280095756438750D+03
0.217815177404D-03 0.000000000000D+00 0.000000000000D+00 0.235991283975D-02 0.310448528094D-05  5 -1 1 25 23 21 2 0.52492551D-02 0.25331128D+00 0.32451738D+05 0.32451738D+05 0.32451738D+05 0.12113339D+01  1  2  1  2  5  2        1 0.302026604043D-01 0.100000000000D+01
  </mgrwgt>
  </event>
  <event>
  4     66 0.43907321E-03 0.14816971E+03 0.75467711E-02 0.11068678E+00
       -1 -1    0    0    0  501 0.00000000E+00 0.00000000E+00 0.43224305E+02 0.43225490E+02 0.32000000E+00 0.0000E+00 0.9000E+01
        1 -1    0    0  501    0 0.00000000E+00 0.00000000E+00 -.13469897E+04 0.13469897E+04 0.32000000E+00 0.0000E+00 0.9000E+01
       25  1    1    2    0    0 -.18549372E+03 0.31624756E+02 -.37154826E+03 0.43483463E+03 0.12500000E+03 0.0000E+00 0.9000E+01
       23  1    1    2    0    0 0.18549372E+03 -.31624756E+02 -.93221714E+03 0.95538060E+03 0.91188000E+02 0.0000E+00 0.9000E+01
#aMCatNLO 1  0  0  1  2 0.78992176D+02 0.00000000D+00  -5  5  0 0.00000000D+00 0.00000000D+00 0.00000000D+00 0.00000000D+00 0.00000000D+00
  <mgrwgt>
 0.1508727069D+00    9    2    0
 0.241295552530901D+03 0.000000000000000D+00 0.000000000000000D+00 0.241295552530901D+03
 0.241295552530901D+03 0.000000000000000D+00 0.000000000000000D+00 -.241295552530901D+03
 0.248868991596944D+03 -.185493723146831D+03 0.316247556081511D+02 0.104416131341528D+03
 0.233722113464858D+03 0.185493723146831D+03 -.316247556081511D+02 -.104416131341528D+03
 0.000000000000000D+00 -.000000000000000D+00 0.000000000000000D+00 0.000000000000000D+00
 0.366198521235669D+03 0.000000000000000D+00 0.000000000000000D+00 0.366198521235669D+03
 0.257325388177423D+03 0.000000000000000D+00 0.000000000000000D+00 -.257325388177423D+03
 0.228684022847824D+03 -.160514915753418D+03 0.190148421131777D+01 0.104416131341528D+03
 0.260329206626127D+03 0.211335488131526D+03 -.623748943924315D+02 -.104416131341528D+03
 0.134510679939142D+03 -.508205723781080D+02 0.604734101811138D+02 0.108873133058246D+03
0.132585223438D-02 0.000000000000D+00 0.000000000000D+00 0.112654414698D-02 0.000000000000D+00  5 -1 1 25 23 21 0 0.66499871D-02 0.20722928D+00 0.47307580D+05 0.47307580D+05 0.47307580D+05 0.11946699D+01  1  2  2  1  5  1       -1 0.137858006966D+00 0.100000000000D+01
-.726933417172D-04 0.000000000000D+00 -.509162168494D-05 0.112654414698D-02 0.000000000000D+00  5 -1 1 25 23 21 2 0.66499871D-02 0.20722928D+00 0.47307580D+05 0.47307580D+05 0.47307580D+05 0.11946699D+01  1  2  3  1  5  1       -1 -.107876618832D-01 0.100000000000D+01
0.914138163013D-04 0.000000000000D+00 0.000000000000D+00 0.112654414698D-02 0.000000000000D+00  5 -1 1 25 23 21 2 0.66499871D-02 0.20722928D+00 0.47307580D+05 0.47307580D+05 0.47307580D+05 0.11946699D+01  1  2 15  1  5  1       -1 0.135657725785D-01 0.100000000000D+01
0.156287783375D-02 0.000000000000D+00 0.000000000000D+00 0.112654414698D-02 0.000000000000D+00  5 -1 1 25 23 21 2 0.10220935D-01 0.20722928D+00 0.67838837D+05 0.67838837D+05 0.67838837D+05 0.11793774D+01  1  2 12  1  5  1       -1 0.116549373668D+00 0.100000000000D+01
-.174949761077D-02 0.000000000000D+00 0.000000000000D+00 0.112654414698D-02 0.000000000000D+00  5 -1 1 25 23 21 2 0.66499871D-02 0.20722928D+00 0.47307580D+05 0.47307580D+05 0.47307580D+05 0.11946699D+01  1  2  4  1  5  1       -1 -.259624722768D+00 0.100000000000D+01
-.200454247630D-02 0.000000000000D+00 -.469303201997D-03 0.112654414698D-02 0.000000000000D+00  5 -1 1 25 23 21 2 0.10763169D-01 0.20722928D+00 0.47307580D+05 0.47307580D+05 0.47307580D+05 0.11946699D+01  1  2  5  1  5  1       -1 -.142334803265D+00 0.100000000000D+01
0.203912615481D-02 0.000000000000D+00 0.419700605378D-03 0.112654414698D-02 0.000000000000D+00  5 -1 1 25 23 21 2 0.66499871D-02 0.20722928D+00 0.47307580D+05 0.47307580D+05 0.47307580D+05 0.11946699D+01  1  2  6  1  5  1       -1 0.302605479067D+00 0.100000000000D+01
0.784593260933D-04 0.000000000000D+00 0.000000000000D+00 0.112654414698D-02 0.000000000000D+00  5 21 1 25 23 1 2 0.10220935D-01 0.20722928D+00 0.67838837D+05 0.67838837D+05 0.67838837D+05 0.11793774D+01  1  2 12  3  5  1       -1 0.855964936638D-01 0.100000000000D+01
-.894559503668D-04 0.000000000000D+00 -.256890051461D-04 0.112654414698D-02 0.000000000000D+00  5 21 1 25 23 1 2 0.10763169D-01 0.20722928D+00 0.47307580D+05 0.47307580D+05 0.47307580D+05 0.11946699D+01  1  2  5  3  5  1       -1 -.925552310965D-01 0.100000000000D+01
  </mgrwgt>
  </event>
  <event>
  5     66 0.43907321E-03 0.13745633E+03 0.75467711E-02 0.11202283E+00
       21 -1    0    0  502  501 0.00000000E+00 0.00000000E+00 0.10067957E+03 0.10068237E+03 0.75000000E+00 0.0000E+00 0.9000E+01
        1 -1    0    0  501    0 0.00000000E+00 0.00000000E+00 -.71980578E+03 0.71980585E+03 0.32000000E+00 0.0000E+00 0.9000E+01
       25  1    1    2    0    0 -.85746957E+02 -.15722088E+03 -.20180796E+03 0.29735904E+03 0.12500000E+03 0.0000E+00 0.9000E+01
       23  1    1    2    0    0 0.32327194E+02 0.26780600E+01 -.31664704E+03 0.33110847E+03 0.91188000E+02 0.0000E+00 0.9000E+01
        1  1    1    2  502    0 0.53419763E+02 0.15454282E+03 -.10067120E+03 0.19202070E+03 0.32000000E+00 0.0000E+00 0.9000E+01
#aMCatNLO 2  0  0  1  2 0.16351500D+03 0.00000000D+00  -5  5  0 0.00000000D+00 0.00000000D+00 0.00000000D+00 0.00000000D+00 0.00000000D+00
  <mgrwgt>
 0.3578824132D-01    1    2    0
 0.157669488957527D+03 0.000000000000000D+00 0.000000000000000D+00 0.157669488957527D+03
 0.157669488957527D+03 0.000000000000000D+00 0.000000000000000D+00 -.157669488957527D+03
 0.169259792040784D+03 -.538156600853903D+02 -.648439706444449D+02 0.769611031776809D+02
 0.146079185874270D+03 0.538156600853903D+02 0.648439706444449D+02 -.769611031776809D+02
 0.000000000000000D+00 0.000000000000000D+00 0.000000000000000D+00 0.000000000000000D+00
 0.325082284948092D+03 0.000000000000000D+00 0.000000000000000D+00 0.325082284948092D+03
 0.222930741294756D+03 0.000000000000000D+00 0.000000000000000D+00 -.222930741294756D+03
 0.231557678966155D+03 -.857469571027604D+02 -.157220884851487D+03 0.769611031776809D+02
 0.123654689545201D+03 0.323271943505314D+02 0.267806004738350D+01 -.769611031776809D+02
 0.192800657731491D+03 0.534197627522291D+02 0.154542824804104D+03 0.102151543653335D+03
0.230427280604D-04 0.000000000000D+00 0.000000000000D+00 0.133234995116D-02 0.679470697719D-07  5 21 1 25 23 1 2 0.15489377D-01 0.11073951D+00 0.57287158D+05 0.57287158D+05 0.57287158D+05 0.11864740D+01  1  2  1  3  5  1       -1 0.357882413194D-01 0.100000000000D+01
  </mgrwgt>
  </event>
  <event>
  4     66 0.43907321E-03 0.13093963E+03 0.75467711E-02 0.10851126E+00
       -1 -1    0    0    0  501 0.00000000E+00 0.00000000E+00 0.92793446E+02 0.92793998E+02 0.32000000E+00 0.0000E+00 0.9000E+01
        1 -1    0    0  501    0 0.00000000E+00 0.00000000E+00 -.22201128E+03 0.22201151E+03 0.32000000E+00 0.0000E+00 0.9000E+01
       25  1    1    2    0    0 -.63398254E+02 -.36749164E+02 -.61752214E+01 0.14502749E+03 0.12500000E+03 0.0000E+00 0.9000E+01
       23  1    1    2    0    0 0.63398254E+02 0.36749164E+02 -.12304262E+03 0.16977802E+03 0.91188000E+02 0.0000E+00 0.9000E+01
#aMCatNLO 1  0  0  1  1 0.24442891D+03 0.00000000D+00  -5  5  0 0.00000000D+00 0.00000000D+00 0.00000000D+00 0.00000000D+00 0.00000000D+00
  <mgrwgt>
 0.1226530271D+00    3    2    0
 0.143531582099443D+03 0.000000000000000D+00 0.000000000000000D+00 0.143531582099443D+03
 0.143531582099443D+03 0.000000000000000D+00 0.000000000000000D+00 -.143531582099443D+03
 0.156263533752661D+03 -.633982536936344D+02 -.367491640947689D+02 0.585102755744875D+02
 0.130799630446225D+03 0.633982536936344D+02 0.367491640947689D+02 -.585102755744875D+02
 0.000000000000000D+00 0.000000000000000D+00 -.000000000000000D+00 -.000000000000000D+00
 0.306383216979782D+03 0.000000000000000D+00 0.000000000000000D+00 0.306383216979782D+03
 0.315234755072300D+03 0.000000000000000D+00 0.000000000000000D+00 -.315234755072300D+03
 0.247080731691291D+03 -.204759626234417D+03 0.859831900100831D+01 0.585102755744875D+02
 0.129948114614446D+03 -.279868539838477D+02 0.660647016502270D+02 -.585102755744875D+02
 0.244589125746344D+03 0.232746480218265D+03 -.746630206512353D+02 -.885153809251793D+01
0.280483858676D-03 0.000000000000D+00 0.000000000000D+00 0.154833163032D-02 0.000000000000D+00  5 -1 1 25 23 21 0 0.14275975D-01 0.34155642D-01 0.17145186D+05 0.17145186D+05 0.17145186D+05 0.12412585D+01  1  2  2  1  5  1       -1 0.120054439521D+00 0.100000000000D+01
-.154227091647D-04 0.000000000000D+00 -.107713187041D-05 0.154833163032D-02 0.000000000000D+00  5 -1 1 25 23 21 2 0.14275975D-01 0.34155642D-01 0.17145186D+05 0.17145186D+05 0.17145186D+05 0.12412585D+01  1  2  3  1  5  1       -1 -.101708085086D-01 0.100000000000D+01
0.193631295445D-04 0.000000000000D+00 0.000000000000D+00 0.154833163032D-02 0.000000000000D+00  5 -1 1 25 23 21 2 0.14275975D-01 0.34155642D-01 0.17145186D+05 0.17145186D+05 0.17145186D+05 0.12412585D+01  1  2 15  1  5  1       -1 0.127693961302D-01 0.100000000000D+01
  </mgrwgt>
  </event>
  <event>
  5     66 0.43907321E-03 0.11356165E+03 0.75467711E-02 0.11767833E+00
       -1 -1    0    0    0  501 0.00000000E+00 0.00000000E+00 0.15099708E+04 0.15099708E+04 0.32000000E+00 0.0000E+00 0.9000E+01
       21 -1    0    0  501  502 0.00000000E+00 0.00000000E+00 -.20580284E+02 0.20593946E+02 0.75000000E+00 0.0000E+00 0.9000E+01
       25  1    1    2    0    0 0.77578909E+02 0.47939067E+02 0.58644501E+03 0.60651413E+03 0.12500000E+03 0.0000E+00 0.9000E+01
       23  1    1    2    0    0 0.66945402E+01 -.22594118E+01 0.58040650E+03 0.58756861E+03 0.91188000E+02 0.0000E+00 0.9000E+01
       -1  1    1    2    0  502 -.84273449E+02 -.45679655E+02 0.32253899E+03 0.33648202E+03 0.32000000E+00 0.0000E+00 0.9000E+01
#aMCatNLO 2  0  0  2  2 0.95857421D+02 0.00000000D+00  -5  5  0 0.00000000D+00 0.00000000D+00 0.00000000D+00 0.00000000D+00 0.00000000D+00
  <mgrwgt>
 0.3054195096D-01    1    2    0
 0.117369624211163D+03 0.000000000000000D+00 0.000000000000000D+00 0.117369624211163D+03
 0.117369624211163D+03 0.000000000000000D+00 0.000000000000000D+00 -.117369624211163D+03
 0.132939557030511D+03 0.274538629864996D+02 0.207692426239509D+02 -.293743049520252D+02
 0.101799691391814D+03 -.274538629864996D+02 -.207692426239509D+02 0.293743049520252D+02
 0.000000000000000D+00 -.000000000000000D+00 -.000000000000000D+00 -.000000000000000D+00
 0.162166673662606D+03 0.000000000000000D+00 0.000000000000000D+00 0.162166673662606D+03
 0.191691769087952D+03 0.000000000000000D+00 0.000000000000000D+00 -.191691769087952D+03
 0.157494415960540D+03 0.775789089794688D+02 0.479390670423639D+02 -.293743049520252D+02
 0.960625991003501D+02 0.669454020839649D+01 -.225941184784280D+01 0.293743049520252D+02
 0.100301427689669D+03 -.842734491878653D+02 -.456796551945211D+02 -.295250954253458D+02
0.361749172716D-04 0.000000000000D+00 0.000000000000D+00 0.210236956334D-02 0.189043906592D-06  5 -1 21 25 23 -1 2 0.23230391D+00 0.31672464D-02 0.29249484D+05 0.29249484D+05 0.29249484D+05 0.12160549D+01  1  2  1  4  5  2        1 0.305419509604D-01 0.100000000000D+01
  </mgrwgt>
  </event>
  <event>
  5     66 0.43907321E-03 0.11442449E+03 0.75467711E-02 0.12075499E+00
       -3 -1    0    0    0  502 0.00000000E+00 0.00000000E+00 0.34743824E+03 0.34743860E+03 0.50000000E+00 0.0000E+00 0.9000E+01
        3 -1    0    0  501    0 0.00000000E+00 0.00000000E+00 -.91929242E+02 0.91930602E+02 0.50000000E+00 0.0000E+00 0.9000E+01
       25  1    1    2    0    0 0.66395740E+02 -.15386718E+02 0.51708270E+01 0.14246713E+03 0.12500000E+03 0.0000E+00 0.9000E+01
       23  1    1    2    0    0 -.13310448E+02 0.49190908E+01 0.95159893E+02 0.13255950E+03 0.91188000E+02 0.0000E+00 0.9000E+01
       21  1    1    2  501  502 -.53085292E+02 0.10467628E+02 0.15517827E+03 0.16434257E+03 0.75000000E+00 0.0000E+00 0.9000E+01
#aMCatNLO 2  0  0  1  2 0.54107480D+02 0.00000000D+00  -5  5  0 0.00000000D+00 0.00000000D+00 0.00000000D+00 0.00000000D+00 0.00000000D+00
  <mgrwgt>
 0.4586462849D-02    2    2    0
 0.125145691135967D+03 0.000000000000000D+00 0.000000000000000D+00 0.125145691135967D+03
 0.125145691135967D+03 0.000000000000000D+00 0.000000000000000D+00 -.125145691135967D+03
 0.139748168835456D+03 0.359162829308648D+02 -.937662418072864D+01 -.502657958483346D+02
 0.110543213436479D+03 -.359162829308648D+02 0.937662418072864D+01 0.502657958483346D+02
 0.000000000000000D+00 -.000000000000000D+00 0.000000000000000D+00 0.000000000000000D+00
 0.237024829653698D+03 0.000000000000000D+00 0.000000000000000D+00 0.237024829653698D+03
 0.134751957104545D+03 0.000000000000000D+00 0.000000000000000D+00 -.134751957104545D+03
 0.150986077581772D+03 0.663957399894824D+02 -.153867183801971D+02 -.502657958483346D+02
 0.105086950017231D+03 -.133104482604688D+02 0.491909084719842D+01 0.502657958483346D+02
 0.115703759159240D+03 -.530852917290136D+02 0.104676275329987D+02 0.102272872549153D+03
-.212322634220D-03 0.000000000000D+00 0.000000000000D+00 0.179173895041D-02 0.000000000000D+00  5 -3 3 25 23 21 2 0.53641661D-01 0.13134739D-01 0.20846488D+05 0.20846488D+05 0.20846488D+05 0.12318490D+01  1  2 13  1  5  1       -3 -.121986397137D-01 0.100000000000D+01
0.328870311873D-03 0.000000000000D+00 0.000000000000D+00 0.179173895041D-02 0.591889459192D-05  5 -3 3 25 23 21 2 0.53451707D-01 0.14142970D-01 0.20846488D+05 0.20846488D+05 0.20846488D+05 0.12318490D+01  1  2  1  1  5  1       -3 0.167851025630D-01 0.100000000000D+01
  </mgrwgt>
  </event>
  <event>
  4     66 0.43907321E-03 0.11899986E+03 0.75467711E-02 0.11178693E+00
       -1 -1    0    0    0  501 0.00000000E+00 0.00000000E+00 0.31996625E+03 0.31996641E+03 0.32000000E+00 0.0000E+00 0.9000E+01
        1 -1    0    0  501    0 0.00000000E+00 0.00000000E+00 -.57727141E+02 0.57728027E+02 0.32000000E+00 0.0000E+00 0.9000E+01
       25  1    1    2    0    0 0.37975347E+01 0.49114625E+02 0.23473052E+03 0.27046272E+03 0.12500000E+03 0.0000E+00 0.9000E+01
       23  1    1    2    0    0 -.37975347E+01 -.49114625E+02 0.27508596E+02 0.10723172E+03 0.91188000E+02 0.0000E+00 0.9000E+01
#aMCatNLO 1  0  0  1  2 0.18592487D+03 0.00000000D+00  -5  5  0 0.00000000D+00 0.00000000D+00 0.00000000D+00 0.00000000D+00 0.00000000D+00
  <mgrwgt>
 0.1232207824D+00    5    2    0
 0.135907816650503D+03 0.000000000000000D+00 0.000000000000000D+00 0.135907816650503D+03
 0.135907816650503D+03 0.000000000000000D+00 0.000000000000000D+00 -.135907816650503D+03
 0.149353968674999D+03 0.379753473049347D+01 0.491146253345494D+02 0.652299031671066D+02
 0.122461664626007D+03 -.379753473049347D+01 -.491146253345494D+02 -.652299031671066D+02
 0.000000000000000D+00 -.000000000000000D+00 -.000000000000000D+00 0.000000000000000D+00
 0.324002148615446D+03 0.000000000000000D+00 0.000000000000000D+00 0.324002148615446D+03
 0.218895722844301D+03 0.000000000000000D+00 0.000000000000000D+00 -.218895722844301D+03
 0.207268296451288D+03 0.791132296682508D+02 0.129696967343448D+03 0.652299031671066D+02
 0.122051908509654D+03 0.478417247417246D+02 0.613564449719611D+01 -.652299031671066D+02
 0.213577666498806D+03 -.126954954409975D+03 -.135832611840644D+03 0.105106425771145D+03
0.378729269411D-03 0.000000000000D+00 0.000000000000D+00 0.153537608970D-02 0.000000000000D+00  5 -1 1 25 23 21 0 0.49225658D-01 0.88811791D-02 0.14160967D+05 0.14160967D+05 0.14160967D+05 0.12506825D+01  1  2  2  1  5  1       -1 0.115509999598D+00 0.100000000000D+01
-.205889810080D-04 0.000000000000D+00 -.145442011625D-05 0.153537608970D-02 0.000000000000D+00  5 -1 1 25 23 21 2 0.49225658D-01 0.88811791D-02 0.14160967D+05 0.14160967D+05 0.14160967D+05 0.12506825D+01  1  2  3  1  5  1       -1 -.982244707873D-02 0.100000000000D+01
0.260649903036D-04 0.000000000000D+00 0.000000000000D+00 0.153537608970D-02 0.000000000000D+00  5 -1 1 25 23 21 2 0.49225658D-01 0.88811791D-02 0.14160967D+05 0.14160967D+05 0.14160967D+05 0.12506825D+01  1  2 15  1  5  1       -1 0.124349032992D-01 0.100000000000D+01
0.525138747052D-04 0.000000000000D+00 -.114853020403D-03 0.153537608970D-02 0.000000000000D+00  5 -1 1 25 23 21 2 0.16773736D+00 0.88811791D-02 0.14160967D+05 0.14160967D+05 0.14160967D+05 0.12506825D+01  1  2  5  1  5  1       -1 0.175235364151D-02 0.100000000000D+01
0.115794908194D-04 0.000000000000D+00 -.163987971574D-04 0.153537608970D-02 0.000000000000D+00  5 21 1 25 23 1 2 0.16773736D+00 0.88811791D-02 0.14160967D+05 0.14160967D+05 0.14160967D+05 0.12506825D+01  1  2  5  3  5  1       -1 0.334597289141D-02 0.100000000000D+01
  </mgrwgt>
  </event>
  <event>
  4     66 0.43907321E-03 0.13112131E+03 0.75467711E-02 0.10510427E+00
       -1 -1    0    0    0  501 0.00000000E+00 0.00000000E+00 0.27932035E+03 0.27932054E+03 0.32000000E+00 0.0000E+00 0.9000E+01
        1 -1    0    0  501    0 0.00000000E+00 0.00000000E+00 -.61656916E+02 0.61657746E+02 0.32000000E+00 0.0000E+00 0.9000E+01
       25  1    1    2    0    0 0.59005890E+02 0.43991100E+02 0.11337472E+03 0.18410796E+03 0.12500000E+03 0.0000E+00 0.9000E+01
       23  1    1    2    0    0 -.59005890E+02 -.43991100E+02 0.10428872E+03 0.15687033E+03 0.91188000E+02 0.0000E+00 0.9000E+01
#aMCatNLO 1  0  0  2  2 0.33443174D+03 0.00000000D+00  -5  5  0 0.00000000D+00 0.00000000D+00 0.00000000D+00 0.00000000D+00 0.00000000D+00
  <mgrwgt>
 0.1466474238D+00    5    2    0
 0.131233396769513D+03 0.000000000000000D+00 0.000000000000000D+00 0.131233396769513D+03
 0.131233396769513D+03 0.000000000000000D+00 0.000000000000000D+00 -.131233396769513D+03
 0.145158489078215D+03 0.590058900655546D+02 0.439911003333274D+02 -.539212207809600D+01
 0.117308304460811D+03 -.590058900655546D+02 -.439911003333274D+02 0.539212207809600D+01
 0.000000000000000D+00 0.000000000000000D+00 0.000000000000000D+00 -.000000000000000D+00
 0.303898899075265D+03 0.000000000000000D+00 0.000000000000000D+00 0.303898899075265D+03
 0.518701657378444D+03 0.000000000000000D+00 0.000000000000000D+00 -.518701657378444D+03
 0.152738866658374D+03 -.844180719386401D+02 0.234238241485501D+02 -.539212207809600D+01
 0.272388652844656D+03 -.246627164714098D+03 -.708963574459685D+02 0.539212207809600D+01
 0.397473036950679D+03 0.331045236652738D+03 0.474725332974184D+02 -.214802758303179D+03
0.330261831980D-03 0.000000000000D+00 0.000000000000D+00 0.194060467855D-02 0.000000000000D+00  5 -1 1 25 23 21 0 0.42972440D-01 0.94857573D-02 0.17192798D+05 0.17192798D+05 0.17192798D+05 0.12411234D+01  1  2  2  2  5  2        1 0.118411398737D+00 0.100000000000D+01
-.183478632666D-04 0.000000000000D+00 -.126829239474D-05 0.194060467855D-02 0.000000000000D+00  5 -1 1 25 23 21 2 0.42972440D-01 0.94857573D-02 0.17192798D+05 0.17192798D+05 0.17192798D+05 0.12411234D+01  1  2  3  2  5  2        1 -.101332922568D-01 0.100000000000D+01
0.228235348200D-04 0.000000000000D+00 0.000000000000D+00 0.194060467855D-02 0.000000000000D+00  5 -1 1 25 23 21 2 0.42972440D-01 0.94857573D-02 0.17192798D+05 0.17192798D+05 0.17192798D+05 0.12411234D+01  1  2 15  2  5  2        1 0.126051489104D-01 0.100000000000D+01
0.458173919850D-03 0.000000000000D+00 -.243648616971D-03 0.194060467855D-02 0.000000000000D+00  5 -1 1 25 23 21 2 0.42972440D-01 0.81162970D-01 0.17192798D+05 0.17192798D+05 0.17192798D+05 0.12411234D+01  1  2  5  2  5  2        1 0.165823874593D-01 0.100000000000D+01
0.866185280782D-04 0.000000000000D+00 -.631703202515D-04 0.194060467855D-02 0.000000000000D+00  5 -1 21 25 23 -1 2 0.42972440D-01 0.81162970D-01 0.17192798D+05 0.17192798D+05 0.17192798D+05 0.12411234D+01  1  2  5  4  5  2        1 0.918178098008D-02 0.100000000000D+01
  </mgrwgt>
  </event>
  <event>
  4     66 0.43907321E-03 0.11073156E+03 0.75467711E-02 0.11036526E+00
       -1 -1    0    0    0  501 0.00000000E+00 0.00000000E+00 0.68862740E+02 0.68863484E+02 0.32000000E+00 0.0000E+00 0.9000E+01
        1 -1    0    0  501    0 0.00000000E+00 0.00000000E+00 -.61780568E+03 0.61780577E+03 0.32000000E+00 0.0000E+00 0.9000E+01
       25  1    1    2    0    0 -.11135351E+03 0.13457218E+03 -.26634408E+03 0.34215997E+03 0.12500000E+03 0.0000E+00 0.9000E+01
       23  1    1    2    0    0 0.11135351E+03 -.13457218E+03 -.28259886E+03 0.34450928E+03 0.91188000E+02 0.0000E+00 0.9000E+01
#aMCatNLO 1  0  0  1  2 0.10644410D+03 0.00000000D+00  -5  5  0 0.00000000D+00 0.00000000D+00 0.00000000D+00 0.00000000D+00 0.00000000D+00
  <mgrwgt>
 0.1757381666D+00    9    2    0
 0.206262154139910D+03 0.000000000000000D+00 0.000000000000000D+00 0.206262154139910D+03
 0.206262154139910D+03 0.000000000000000D+00 0.000000000000000D+00 -.206262154139910D+03
 0.215121933441742D+03 -.111353511100352D+03 0.134572179321584D+03 0.119653819820528D+02
 0.197402374838078D+03 0.111353511100352D+03 -.134572179321584D+03 -.119653819820528D+02
 0.000000000000000D+00 0.000000000000000D+00 0.000000000000000D+00 0.000000000000000D+00
 0.278582224972087D+03 0.000000000000000D+00 0.000000000000000D+00 0.278582224972087D+03
 0.256221212581598D+03 0.000000000000000D+00 0.000000000000000D+00 -.256221212581598D+03
 0.247951698941422D+03 -.169935980098964D+03 0.129744507821201D+03 0.119653819820528D+02
 0.178084275088860D+03 0.638514866047397D+02 -.138486732152626D+03 -.119653819820528D+02
 0.108767463523402D+03 0.106084493494224D+03 0.874222433142510D+01 0.223610123904887D+02
0.744706296620D-03 0.000000000000D+00 0.000000000000D+00 0.143550234896D-02 0.000000000000D+00  5 -1 1 25 23 21 0 0.10594331D-01 0.95047092D-01 0.42400640D+05 0.42400640D+05 0.42400640D+05 0.11994383D+01  1  2  2  1  5  1       -1 0.139263900055D+00 0.100000000000D+01
-.413724286051D-04 0.000000000000D+00 -.285986826469D-05 0.143550234896D-02 0.000000000000D+00  5 -1 1 25 23 21 2 0.10594331D-01 0.95047092D-01 0.42400640D+05 0.42400640D+05 0.42400640D+05 0.11994383D+01  1  2  3  1  5  1       -1 -.111306450330D-01 0.100000000000D+01
0.512868182516D-04 0.000000000000D+00 0.000000000000D+00 0.143550234896D-02 0.000000000000D+00  5 -1 1 25 23 21 2 0.10594331D-01 0.95047092D-01 0.42400640D+05 0.42400640D+05 0.42400640D+05 0.11994383D+01  1  2 15  1  5  1       -1 0.137979661354D-01 0.100000000000D+01
0.181330997486D-03 0.000000000000D+00 0.000000000000D+00 0.143550234896D-02 0.000000000000D+00  5 -1 1 25 23 21 2 0.15219364D-01 0.95047092D-01 0.70699824D+05 0.70699824D+05 0.70699824D+05 0.11776633D+01  1  2 12  1  5  1       -1 0.266932110125D-01 0.100000000000D+01
-.285477021061D-03 0.000000000000D+00 0.000000000000D+00 0.143550234896D-02 0.000000000000D+00  5 -1 1 25 23 21 2 0.10594331D-01 0.95047092D-01 0.42400640D+05 0.42400640D+05 0.42400640D+05 0.11994383D+01  1  2  4  1  5  1       -1 -.768034049159D-01 0.100000000000D+01
-.427607781435D-03 0.000000000000D+00 -.253240299698D-03 0.143550234896D-02 0.000000000000D+00  5 -1 1 25 23 21 2 0.17725228D-01 0.95047092D-01 0.42400640D+05 0.42400640D+05 0.42400640D+05 0.11994383D+01  1  2  5  1  5  1       -1 -.511793245019D-01 0.100000000000D+01
0.518007056336D-03 0.000000000000D+00 0.223042176986D-03 0.143550234896D-02 0.000000000000D+00  5 -1 1 25 23 21 2 0.10594331D-01 0.95047092D-01 0.42400640D+05 0.42400640D+05 0.42400640D+05 0.11994383D+01  1  2  6  1  5  1       -1 0.139362199974D+00 0.100000000000D+01
0.803036434578D-05 0.000000000000D+00 0.000000000000D+00 0.143550234896D-02 0.000000000000D+00  5 21 1 25 23 1 2 0.15219364D-01 0.95047092D-01 0.70699824D+05 0.70699824D+05 0.70699824D+05 0.11776633D+01  1  2 12  3  5  1       -1 0.157304463545D-01 0.100000000000D+01
-.128779417004D-04 0.000000000000D+00 -.146117198694D-04 0.143550234896D-02 0.000000000000D+00  5 21 1 25 23 1 2 0.17725228D-01 0.95047092D-01 0.42400640D+05 0.42400640D+05 0.42400640D+05 0.11994383D+01  1  2  5  3  5  1       -1 -.199961824939D-01 0.100000000000D+01
  </mgrwgt>
  </event>
  <event>
  4     66 0.43907321E-03 0.12156978E+03 0.75467711E-02 0.12137213E+00
       -1 -1    0    0    0  501 0.00000000E+00 0.00000000E+00 0.23835888E+03 0.23835910E+03 0.32000000E+00 0.0000E+00 0.9000E+01
        1 -1    0    0  501    0 0.00000000E+00 0.00000000E+00 -.87630345E+02 0.87630929E+02 0.32000000E+00 0.0000E+00 0.9000E+01
       25  1    1    2    0    0 0.21725329E+02 0.50626645E+02 -.57082444E+01 0.13672100E+03 0.12500000E+03 0.0000E+00 0.9000E+01
       23  1    1    2    0    0 -.21725329E+02 -.50626645E+02 0.15643678E+03 0.18926903E+03 0.91188000E+02 0.0000E+00 0.9000E+01
#aMCatNLO 1  0  0  1  2 0.34188235D+02 0.00000000D+00  -5  5  0 0.00000000D+00 0.00000000D+00 0.00000000D+00 0.00000000D+00 0.00000000D+00
  <mgrwgt>
 0.1439619326D+00    4    2    0
 0.144525434298382D+03 0.000000000000000D+00 0.000000000000000D+00 0.144525434298382D+03
 0.144525434298382D+03 0.000000000000000D+00 0.000000000000000D+00 -.144525434298382D+03
 0.157169832655471D+03 0.217253285371001D+02 0.506266447833387D+02 -.777322920984931D+02
 0.131881035941293D+03 -.217253285371001D+02 -.506266447833387D+02 0.777322920984931D+02
 0.000000000000000D+00 0.000000000000000D+00 -.000000000000000D+00 -.000000000000000D+00
 0.147743386027329D+03 0.000000000000000D+00 0.000000000000000D+00 0.147743386027329D+03
 0.277721902520518D+03 0.000000000000000D+00 0.000000000000000D+00 -.277721902520518D+03
 0.161417366870888D+03 0.102059672599390D+02 0.654530008856310D+02 -.777322920984931D+02
 0.129648330275900D+03 -.311816132168414D+02 -.384556362792067D+02 0.777322920984931D+02
 0.134399591401059D+03 0.209756459569023D+02 -.269973646064243D+02 -.129978516493189D+03
0.491135191535D-03 0.000000000000D+00 0.000000000000D+00 0.136085562684D-02 0.000000000000D+00  5 -1 1 25 23 21 0 0.36670659D-01 0.13481653D-01 0.14779212D+05 0.14779212D+05 0.14779212D+05 0.12485574D+01  1  2  2  1  5  1       -1 0.145764325540D+00 0.100000000000D+01
-.262927736894D-04 0.000000000000D+00 -.188608845436D-05 0.136085562684D-02 0.000000000000D+00  5 -1 1 25 23 21 2 0.36670659D-01 0.13481653D-01 0.14779212D+05 0.14779212D+05 0.14779212D+05 0.12485574D+01  1  2  3  1  5  1       -1 -.121647615449D-01 0.100000000000D+01
0.337661189381D-04 0.000000000000D+00 0.000000000000D+00 0.136085562684D-02 0.000000000000D+00  5 -1 1 25 23 21 2 0.36670659D-01 0.13481653D-01 0.14779212D+05 0.14779212D+05 0.14779212D+05 0.12485574D+01  1  2 15  1  5  1       -1 0.156224212032D-01 0.100000000000D+01
-.113690163896D-04 0.000000000000D+00 0.000000000000D+00 0.136085562684D-02 0.000000000000D+00  5 -1 1 25 23 21 2 0.36670659D-01 0.13481653D-01 0.14779212D+05 0.14779212D+05 0.14779212D+05 0.12485574D+01  1  2  4  1  5  1       -1 -.526005262941D-02 0.100000000000D+01
  </mgrwgt>
  </event>
  <event>
  4     66 0.43907321E-03 0.14056264E+03 0.75467711E-02 0.11326062E+00
       -1 -1    0    0    0  501 0.00000000E+00 0.00000000E+00 0.92075817E+02 0.92076373E+02 0.32000000E+00 0.0000E+00 0.9000E+01
        1 -1    0    0  501    0 0.00000000E+00 0.00000000E+00 -.54701991E+03 0.54702001E+03 0.32000000E+00 0.0000E+00 0.9000E+01
       25  1    1    2    0    0 -.18235715E+03 -.46962476E+02 -.31376521E+03 0.38669524E+03 0.12500000E+03 0.0000E+00 0.9000E+01
       23  1    1    2    0    0 0.18235715E+03 0.46962476E+02 -.14117889E+03 0.25240114E+03 0.91188000E+02 0.0000E+00 0.9000E+01
#aMCatNLO 1  0  0  1  2 0.81115037D+01 0.00000000D+00  -5  5  0 0.00000000D+00 0.00000000D+00 0.00000000D+00 0.00000000D+00 0.00000000D+00
  <mgrwgt>
 0.2808295689D+00    8    2    0
 0.224427076937287D+03 0.000000000000000D+00 0.000000000000000D+00 0.224427076937287D+03
 0.224427076937287D+03 0.000000000000000D+00 0.000000000000000D+00 -.224427076937287D+03
 0.232569753787775D+03 -.182357150057867D+03 -.469624764575132D+02 -.548095430071838D+02
 0.216284400086799D+03 0.182357150057867D+03 0.469624764575132D+02 0.548095430071838D+02
 0.000000000000000D+00 -.000000000000000D+00 -.000000000000000D+00 -.000000000000000D+00
 0.227798577189300D+03 0.000000000000000D+00 0.000000000000000D+00 0.227798577189300D+03
 0.229396204111970D+03 0.000000000000000D+00 0.000000000000000D+00 -.229396204111970D+03
 0.229450800898061D+03 -.178995684823670D+03 -.444874009424066D+02 -.548095430071838D+02
 0.219476640836335D+03 0.185527562228115D+03 0.492968779725273D+02 0.548095430071838D+02
 0.826733956687415D+01 -.653187740444514D+01 -.480947703012074D+01 -.159762692267093D+01
0.111386054652D-02 0.000000000000D+00 0.000000000000D+00 0.131873334322D-02 0.000000000000D+00  5 -1 1 25 23 21 0 0.14165560D-01 0.84156960D-01 0.47359215D+05 0.47359215D+05 0.47359215D+05 0.11946227D+01  1  2  2  1  5  1       -1 0.156471622936D+00 0.100000000000D+01
-.618098021195D-04 0.000000000000D+00 -.427751778484D-05 0.131873334322D-02 0.000000000000D+00  5 -1 1 25 23 21 2 0.14165560D-01 0.84156960D-01 0.47359215D+05 0.47359215D+05 0.47359215D+05 0.11946227D+01  1  2  3  1  5  1       -1 -.123914924788D-01 0.100000000000D+01
0.767663567073D-04 0.000000000000D+00 0.000000000000D+00 0.131873334322D-02 0.000000000000D+00  5 -1 1 25 23 21 2 0.14165560D-01 0.84156960D-01 0.47359215D+05 0.47359215D+05 0.47359215D+05 0.11946227D+01  1  2 15  1  5  1       -1 0.153899494764D-01 0.100000000000D+01
0.105781037524D-02 0.000000000000D+00 0.000000000000D+00 0.131873334322D-02 0.000000000000D+00  5 -1 1 25 23 21 2 0.14532323D-01 0.84156960D-01 0.49160342D+05 0.49160342D+05 0.49160342D+05 0.11930109D+01  1  2 12  1  5  1       -1 0.203164314975D+00 0.100000000000D+01
-.680476183451D-03 0.000000000000D+00 0.000000000000D+00 0.131873334322D-02 0.000000000000D+00  5 -1 1 25 23 21 2 0.14165560D-01 0.84156960D-01 0.47359215D+05 0.47359215D+05 0.47359215D+05 0.11946227D+01  1  2  4  1  5  1       -1 -.136420360850D+00 0.100000000000D+01
0.104670227373D-04 0.000000000000D+00 0.000000000000D+00 0.131873334322D-02 0.152159522049D-03  5 -1 1 25 23 21 2 0.14378365D-01 0.86020312D-01 0.49160342D+05 0.49160342D+05 0.49160342D+05 0.11930109D+01  1  2 11  1  5  1       -1 0.198462668666D-02 0.100000000000D+01
0.201191071476D-04 0.000000000000D+00 0.000000000000D+00 0.131873334322D-02 0.000000000000D+00  5 21 1 25 23 1 2 0.14532323D-01 0.84156960D-01 0.49160342D+05 0.49160342D+05 0.49160342D+05 0.11930109D+01  1  2 12  3  5  1       -1 0.524247248754D-01 0.100000000000D+01
0.799466827526D-07 0.000000000000D+00 0.000000000000D+00 0.131873334322D-02 0.418047161113D-06  5 21 1 25 23 1 2 0.14378365D-01 0.86020312D-01 0.49160342D+05 0.49160342D+05 0.49160342D+05 0.11930109D+01  1  2 11  3  5  1       -1 0.206183302424D-03 0.100000000000D+01
  </mgrwgt>
  </event>
  <event>
  4     66 0.43907321E-03 0.18806842E+03 0.75467711E-02 0.10792985E+00
       -1 -1    0    0    0  501 0.00000000E+00 0.00000000E+00 0.34205868E+02 0.34207365E+02 0.32000000E+00 0.0000E+00 0.9000E+01
        1 -1    0    0  501    0 0.00000000E+00 0.00000000E+00 -.10392056E+04 0.10392056E+04 0.32000000E+00 0.0000E+00 0.9000E+01
       25  1    1    2    0    0 0.15198458E+03 -.19867303E+02 -.56626363E+03 0.59981124E+03 0.12500000E+03 0.0000E+00 0.9000E+01
       23  1    1    2    0    0 -.15198458E+03 0.19867303E+02 -.43873606E+03 0.47360173E+03 0.91188000E+02 0.0000E+00 0.9000E+01
#aMCatNLO 1  0  0  1  2 0.19890438D+03 0.00000000D+00  -5  5  0 0.00000000D+00 0.00000000D+00 0.00000000D+00 0.00000000D+00 0.00000000D+00
  <mgrwgt>
 0.1422320492D+00    5    2    0
 0.188541131912596D+03 0.000000000000000D+00 0.000000000000000D+00 0.188541131912596D+03
 0.188541131912596D+03 0.000000000000000D+00 0.000000000000000D+00 -.188541131912596D+03
 0.198233643808872D+03 0.151984579294181D+03 -.198673027424568D+02 -.133249944184946D+02
 0.178848620016321D+03 -.151984579294181D+03 0.198673027424568D+02 0.133249944184946D+02
 0.000000000000000D+00 0.000000000000000D+00 -.000000000000000D+00 0.000000000000000D+00
 0.378192723141470D+03 0.000000000000000D+00 0.000000000000000D+00 0.378192723141470D+03
 0.273096169388709D+03 0.000000000000000D+00 0.000000000000000D+00 -.273096169388709D+03
 0.193925721373043D+03 0.127704237785937D+03 0.741367492227363D+02 -.133249944184946D+02
 0.232400426656789D+03 -.177446848424311D+03 0.118447319405229D+03 0.133249944184946D+02
 0.224962744500348D+03 0.497426106383739D+02 -.192584068627965D+03 0.105096553752761D+03
0.562161341994D-03 0.000000000000D+00 0.000000000000D+00 0.149238094649D-02 0.000000000000D+00  5 -1 1 25 23 21 0 0.52625602D-02 0.15987790D+00 0.35369730D+05 0.35369730D+05 0.35369730D+05 0.12074640D+01  1  2  2  1  5  1       -1 0.136214530215D+00 0.100000000000D+01
-.312309463660D-04 0.000000000000D+00 -.215884757374D-05 0.149238094649D-02 0.000000000000D+00  5 -1 1 25 23 21 2 0.52625602D-02 0.15987790D+00 0.35369730D+05 0.35369730D+05 0.35369730D+05 0.12074640D+01  1  2  3  1  5  1       -1 -.110330599752D-01 0.100000000000D+01
0.387324281454D-04 0.000000000000D+00 0.000000000000D+00 0.149238094649D-02 0.000000000000D+00  5 -1 1 25 23 21 2 0.52625602D-02 0.15987790D+00 0.35369730D+05 0.35369730D+05 0.35369730D+05 0.12074640D+01  1  2 15  1  5  1       -1 0.136831333161D-01 0.100000000000D+01
-.254373552288D-04 0.000000000000D+00 -.169423628075D-03 0.149238094649D-02 0.000000000000D+00  5 -1 1 25 23 21 2 0.15525263D-01 0.15987790D+00 0.35369730D+05 0.35369730D+05 0.35369730D+05 0.12074640D+01  1  2  5  1  5  1       -1 -.171100910474D-02 0.100000000000D+01
0.561232609082D-05 0.000000000000D+00 -.207885272254D-04 0.149238094649D-02 0.000000000000D+00  5 21 1 25 23 1 2 0.15525263D-01 0.15987790D+00 0.35369730D+05 0.35369730D+05 0.35369730D+05 0.12074640D+01  1  2  5  3  5  1       -1 0.507845477675D-02 0.100000000000D+01
  </mgrwgt>
  </event>
  <event>
  4     66 0.43907321E-03 0.78633293E+02 0.75467711E-02 0.12286845E+00
       -1 -1    0    0    0  501 0.00000000E+00 0.00000000E+00 0.56075739E+02 0.56076652E+02 0.32000000E+00 0.0000E+00 0.9000E+01
        1 -1    0    0  501    0 0.00000000E+00 0.00000000E+00 -.31535080E+03 0.31535096E+03 0.32000000E+00 0.0000E+00 0.9000E+01
       25  1    1    2    0    0 -.24171902E+02 0.12074150E+02 -.42595207E+02 0.13479398E+03 0.12500000E+03 0.0000E+00 0.9000E+01
       23  1    1    2    0    0 0.24171902E+02 -.12074150E+02 -.21667985E+03 0.23663363E+03 0.91188000E+02 0.0000E+00 0.9000E+01
#aMCatNLO 1  0  0  1  2 0.33239167D+02 0.00000000D+00  -5  5  0 0.00000000D+00 0.00000000D+00 0.00000000D+00 0.00000000D+00 0.00000000D+00
  <mgrwgt>
 0.1431684455D+00    9    2    0
 0.132980182976477D+03 0.000000000000000D+00 0.000000000000000D+00 0.132980182976477D+03
 0.132980182976477D+03 0.000000000000000D+00 0.000000000000000D+00 -.132980182976477D+03
 0.146722359615858D+03 -.241719020226227D+02 0.120741500823362D+02 0.719192940986161D+02
 0.119238006337096D+03 0.241719020226227D+02 -.120741500823362D+02 -.719192940986161D+02
 0.000000000000000D+00 0.000000000000000D+00 -.000000000000000D+00 0.000000000000000D+00
 0.154727700755374D+03 0.000000000000000D+00 0.000000000000000D+00 0.154727700755374D+03
 0.147349829022348D+03 0.000000000000000D+00 0.000000000000000D+00 -.147349829022348D+03
 0.150876712003045D+03 -.352197346440438D+02 0.269437869055134D+02 0.719192940986161D+02
 0.117152686579307D+03 0.153963208543235D+02 -.262810305889040D+00 -.719192940986161D+02
 0.340481311953704D+02 0.198234137897202D+02 -.266809765996243D+02 0.737787173302601D+01
0.177503616287D-03 0.000000000000D+00 0.000000000000D+00 0.147758416030D-02 0.000000000000D+00  5 -1 1 25 23 21 0 0.86271196D-02 0.48515591D-01 0.12431559D+05 0.12431559D+05 0.12431559D+05 0.12572297D+01  1  2  2  1  5  1       -1 0.105575686046D+00 0.100000000000D+01
-.948905367881D-05 0.000000000000D+00 -.681660624316D-06 0.147758416030D-02 0.000000000000D+00  5 -1 1 25 23 21 2 0.86271196D-02 0.48515591D-01 0.12431559D+05 0.12431559D+05 0.12431559D+05 0.12572297D+01  1  2  3  1  5  1       -1 -.892090467956D-02 0.100000000000D+01
0.122073619747D-04 0.000000000000D+00 0.000000000000D+00 0.147758416030D-02 0.000000000000D+00  5 -1 1 25 23 21 2 0.86271196D-02 0.48515591D-01 0.12431559D+05 0.12431559D+05 0.12431559D+05 0.12572297D+01  1  2 15  1  5  1       -1 0.114764565837D-01 0.100000000000D+01
0.132485417890D-03 0.000000000000D+00 0.000000000000D+00 0.147758416030D-02 0.000000000000D+00  5 -1 1 25 23 21 2 0.10440661D-01 0.48515591D-01 0.16686276D+05 0.16686276D+05 0.16686276D+05 0.12425822D+01  1  2 12  1  5  1       -1 0.919077506330D-01 0.100000000000D+01
-.128449753338D-03 0.000000000000D+00 0.000000000000D+00 0.147758416030D-02 0.000000000000D+00  5 -1 1 25 23 21 2 0.86271196D-02 0.48515591D-01 0.12431559D+05 0.12431559D+05 0.12431559D+05 0.12572297D+01  1  2  4  1  5  1       -1 -.120758933865D+00 0.100000000000D+01
-.289265752362D-03 0.000000000000D+00 -.992626057429D-04 0.147758416030D-02 0.000000000000D+00  5 -1 1 25 23 21 2 0.11100065D-01 0.48515591D-01 0.12431559D+05 0.12431559D+05 0.12431559D+05 0.12572297D+01  1  2  5  1  5  1       -1 -.185554282778D+00 0.100000000000D+01
0.307535563084D-03 0.000000000000D+00 0.961911601711D-04 0.147758416030D-02 0.000000000000D+00  5 -1 1 25 23 21 2 0.86271196D-02 0.48515591D-01 0.12431559D+05 0.12431559D+05 0.12431559D+05 0.12572297D+01  1  2  6  1  5  1       -1 0.289122133430D+00 0.100000000000D+01
0.365619029255D-05 0.000000000000D+00 0.000000000000D+00 0.147758416030D-02 0.000000000000D+00  5 21 1 25 23 1 2 0.10440661D-01 0.48515591D-01 0.16686276D+05 0.16686276D+05 0.16686276D+05 0.12425822D+01  1  2 12  3  5  1       -1 0.379485546055D-01 0.100000000000D+01
-.816272433448D-05 0.000000000000D+00 -.337955874324D-05 0.147758416030D-02 0.000000000000D+00  5 21 1 25 23 1 2 0.11100065D-01 0.48515591D-01 0.12431559D+05 0.12431559D+05 0.12431559D+05 0.12572297D+01  1  2  5  3  5  1       -1 -.776280144313D-01 0.100000000000D+01
  </mgrwgt>
  </event>
  <event>
  5     66 0.43907321E-03 0.12680279E+03 0.75467711E-02 0.11673000E+00
       21 -1    0    0  502  501 0.00000000E+00 0.00000000E+00 0.83142428E+02 0.83145810E+02 0.75000000E+00 0.0000E+00 0.9000E+01
        1 -1    0    0  501    0 0.00000000E+00 0.00000000E+00 -.55952372E+03 0.55952381E+03 0.32000000E+00 0.0000E+00 0.9000E+01
       25  1    1    2    0    0 0.40551458E+02 0.98357312E+02 -.17769143E+03 0.24190458E+03 0.12500000E+03 0.0000E+00 0.9000E+01
       23  1    1    2    0    0 -.51458881E+02 -.70530160E+01 -.28999682E+03 0.30840099E+03 0.91188000E+02 0.0000E+00 0.9000E+01
        1  1    1    2  502    0 0.10907423E+02 -.91304296E+02 -.86930375E+01 0.92364050E+02 0.32000000E+00 0.0000E+00 0.9000E+01
#aMCatNLO 2  0  0  1  2 0.91953501D+02 0.00000000D+00  -5  5  0 0.00000000D+00 0.00000000D+00 0.00000000D+00 0.00000000D+00 0.00000000D+00
  <mgrwgt>
 0.7259040764D-01    2    2    0
 0.137521336454074D+03 0.000000000000000D+00 0.000000000000000D+00 0.137521336454074D+03
 0.137521336454074D+03 0.000000000000000D+00 0.000000000000000D+00 -.137521336454074D+03
 0.150809726540439D+03 0.467918686561712D+02 0.461198323476303D+02 0.529344473012814D+02
 0.124232946367709D+03 -.467918686561712D+02 -.461198323476303D+02 -.529344473012814D+02
 0.000000000000000D+00 0.000000000000000D+00 -.000000000000000D+00 0.000000000000000D+00
 0.291855846980671D+03 0.000000000000000D+00 0.000000000000000D+00 0.291855846980671D+03
 0.159397835047626D+03 0.000000000000000D+00 0.000000000000000D+00 -.159397835047626D+03
 0.172469235855173D+03 0.405514580996930D+02 0.983573121397894D+02 0.529344473012814D+02
 0.117537519727252D+03 -.514588811882682D+02 -.705301604944786D+01 -.529344473012814D+02
 0.161246926445872D+03 0.109074230885752D+02 -.913042960903416D+02 0.132458011933044D+03
-.250912702633D-05 0.000000000000D+00 0.000000000000D+00 0.163855764386D-02 0.000000000000D+00  5 21 1 25 23 1 2 0.12767464D-01 0.74266636D-01 0.32587724D+05 0.32587724D+05 0.32587724D+05 0.12111451D+01  1  2 13  3  5  1       -1 -.101119439587D-01 0.100000000000D+01
0.250508257368D-04 0.000000000000D+00 0.000000000000D+00 0.163855764386D-02 0.222396432942D-06  5 21 1 25 23 1 2 0.12791398D-01 0.86080759D-01 0.32587724D+05 0.32587724D+05 0.32587724D+05 0.12111451D+01  1  2  1  3  5  1       -1 0.827023515967D-01 0.100000000000D+01
  </mgrwgt>
  </event>
  <event>
  4     66 0.43907321E-03 0.19048096E+03 0.75467711E-02 0.11169928E+00
       -1 -1    0    0    0  501 0.00000000E+00 0.00000000E+00 0.13308285E+04 0.13308286E+04 0.32000000E+00 0.0000E+00 0.9000E+01
        1 -1    0    0  501    0 0.00000000E+00 0.00000000E+00 -.31470065E+02 0.31471692E+02 0.32000000E+00 0.0000E+00 0.9000E+01
       25  1    1    2    0    0 -.51949000E+02 -.14733029E+03 0.42924381E+03 0.47358226E+03 0.12500000E+03 0.0000E+00 0.9000E+01
       23  1    1    2    0    0 0.51949000E+02 0.14733029E+03 0.87011466E+03 0.88871800E+03 0.91188000E+02 0.0000E+00 0.9000E+01
#aMCatNLO 1  0  0  2  2 0.95937466D+02 0.00000000D+00  -5  5  0 0.00000000D+00 0.00000000D+00 0.00000000D+00 0.00000000D+00 0.00000000D+00
  <mgrwgt>
 0.1418065323D+00    3    2    0
 0.204651887896034D+03 0.000000000000000D+00 0.000000000000000D+00 0.204651887896034D+03
 0.204651887896034D+03 0.000000000000000D+00 0.000000000000000D+00 -.204651887896034D+03
 0.213581378763611D+03 -.519489997796294D+02 -.147330290013057D+03 -.747468555935935D+02
 0.195722397028457D+03 0.519489997796294D+02 0.147330290013057D+03 0.747468555935935D+02
 0.000000000000000D+00 0.000000000000000D+00 0.000000000000000D+00 0.000000000000000D+00
 0.375987745891160D+03 0.000000000000000D+00 0.000000000000000D+00 0.375987745891160D+03
 0.224077524593169D+03 0.000000000000000D+00 0.000000000000000D+00 -.224077524593169D+03
 0.231960347157518D+03 -.103462828537237D+03 -.147949157967800D+03 -.747468555935935D+02
 0.188436582310712D+03 0.753228474253214D+01 0.146796684139559D+03 0.747468555935935D+02
 0.179668341016099D+03 0.959305437947048D+02 0.115247382824076D+01 0.151910221297992D+03
0.512688769763D-02 0.000000000000D+00 0.000000000000D+00 0.127141699397D-02 0.000000000000D+00  5 -1 1 25 23 21 0 0.20474298D+00 0.48416766D-02 0.36282998D+05 0.36282998D+05 0.36282998D+05 0.12063255D+01  1  2  2  2  5  2        1 0.139028542622D+00 0.100000000000D+01
-.283043872087D-03 0.000000000000D+00 -.196885986994D-04 0.127141699397D-02 0.000000000000D+00  5 -1 1 25 23 21 2 0.20474298D+00 0.48416766D-02 0.36282998D+05 0.36282998D+05 0.36282998D+05 0.12063255D+01  1  2  3  2  5  2        1 -.111694794685D-01 0.100000000000D+01
0.353440434584D-03 0.000000000000D+00 0.000000000000D+00 0.127141699397D-02 0.000000000000D+00  5 -1 1 25 23 21 2 0.20474298D+00 0.48416766D-02 0.36282998D+05 0.36282998D+05 0.36282998D+05 0.12063255D+01  1  2 15  2  5  2        1 0.139474691620D-01 0.100000000000D+01
  </mgrwgt>
  </event>
  <event>
  5     66 0.43907321E-03 0.12028252E+03 0.75467711E-02 0.11901658E+00
       -1 -1    0    0    0  501 0.00000000E+00 0.00000000E+00 0.22989343E+03 0.22989365E+03 0.32000000E+00 0.0000E+00 0.9000E+01
       21 -1    0    0  501  502 0.00000000E+00 0.00000000E+00 -.14845415E+03 0.14845604E+03 0.75000000E+00 0.0000E+00 0.9000E+01
       25  1    1    2    0    0 -.51376842E+02 -.11417374E+02 -.23174886E+02 0.13759365E+03 0.12500000E+03 0.0000E+00 0.9000E+01
       23  1    1    2    0    0 0.14370289E+02 0.67662989E+02 0.12589350E+03 0.17014467E+03 0.91188000E+02 0.0000E+00 0.9000E+01
       -1  1    1    2    0  502 0.37006553E+02 -.56245614E+02 -.21279331E+02 0.70611376E+02 0.32000000E+00 0.0000E+00 0.9000E+01
#aMCatNLO 2  0  0  2  1 0.67327959D+02 0.00000000D+00  -5  5  0 0.00000000D+00 0.00000000D+00 0.00000000D+00 0.00000000D+00 0.00000000D+00
  <mgrwgt>
 0.2685746932D-01    2    2    0
 0.141083934356839D+03 0.000000000000000D+00 0.000000000000000D+00 0.141083934356839D+03
 0.141083934356839D+03 0.000000000000000D+00 0.000000000000000D+00 -.141083934356839D+03
 0.154036771065928D+03 -.314457566196836D+02 -.417102834077903D+02 -.733058216588192D+02
 0.128131097647750D+03 0.314457566196836D+02 0.417102834077903D+02 0.733058216588192D+02
 0.000000000000000D+00 0.000000000000000D+00 -.000000000000000D+00 -.000000000000000D+00
 0.162476960152678D+03 0.000000000000000D+00 0.000000000000000D+00 0.162476960152678D+03
 0.210053851052931D+03 0.000000000000000D+00 0.000000000000000D+00 -.210053851052931D+03
 0.154170943550178D+03 -.513768421569711D+02 -.114173743065199D+02 -.733058216588192D+02
 0.135918284485384D+03 0.143702890963656D+02 0.676629885215112D+02 0.733058216588192D+02
 0.824415831700462D+02 0.370065530606055D+02 -.562456142149913D+02 -.475768909002532D+02
-.660757841021D-05 0.000000000000D+00 0.000000000000D+00 0.142127269895D-02 0.000000000000D+00  5 -1 21 25 23 -1 2 0.30711441D-01 0.23546795D-01 0.25187481D+05 0.25187481D+05 0.25187481D+05 0.12229499D+01  1  2 13  4  5  2        1 -.150893663492D-01 0.100000000000D+01
0.220707140229D-04 0.000000000000D+00 0.000000000000D+00 0.142127269895D-02 0.173505713120D-06  5 -1 21 25 23 -1 2 0.35368319D-01 0.22839221D-01 0.25187481D+05 0.25187481D+05 0.25187481D+05 0.12229499D+01  1  2  1  4  5  2        1 0.419468356643D-01 0.100000000000D+01
  </mgrwgt>
  </event>
  <event>
  4     66 0.43907321E-03 0.11005372E+03 0.75467711E-02 0.12429166E+00
       -1 -1    0    0    0  501 0.00000000E+00 0.00000000E+00 0.44607180E+02 0.44608328E+02 0.32000000E+00 0.0000E+00 0.9000E+01
        1 -1    0    0  501    0 0.00000000E+00 0.00000000E+00 -.31639163E+03 0.31639180E+03 0.32000000E+00 0.0000E+00 0.9000E+01
       25  1    1    2    0    0 -.20135991E+02 -.34585007E+01 -.22079773E+03 0.25454677E+03 0.12500000E+03 0.0000E+00 0.9000E+01
       23  1    1    2    0    0 0.20135991E+02 0.34585007E+01 -.50986720E+02 0.10645335E+03 0.91188000E+02 0.0000E+00 0.9000E+01
#aMCatNLO 1  0  0  2  1 0.19206855D+02 0.00000000D+00  -5  5  0 0.00000000D+00 0.00000000D+00 0.00000000D+00 0.00000000D+00 0.00000000D+00
  <mgrwgt>
 0.1712274554D+00    4    2    0
 0.118800568242726D+03 0.000000000000000D+00 0.000000000000000D+00 0.118800568242726D+03
 0.118800568242726D+03 0.000000000000000D+00 0.000000000000000D+00 -.118800568242726D+03
 0.134182962376282D+03 -.201359909750549D+02 -.345850068797974D+01 -.443017836268302D+02
 0.103418174109171D+03 0.201359909750549D+02 0.345850068797974D+01 0.443017836268302D+02
 0.000000000000000D+00 -.000000000000000D+00 0.000000000000000D+00 0.000000000000000D+00
 0.165689463682877D+03 0.000000000000000D+00 0.000000000000000D+00 0.165689463682877D+03
 0.121171382480892D+03 0.000000000000000D+00 0.000000000000000D+00 -.121171382480892D+03
 0.133092455768652D+03 -.960800951510847D+01 -.579999165255204D+01 -.443017836268302D+02
 0.105283724522241D+03 0.283567609010630D+02 0.163014844621261D+01 0.443017836268302D+02
 0.484846658728754D+02 -.187487513859545D+02 0.416984320633942D+01 0.445180812019856D+02
0.224790256466D-03 0.000000000000D+00 0.000000000000D+00 0.194700474246D-02 0.000000000000D+00  5 -1 1 25 23 21 0 0.68627439D-02 0.48675737D-01 0.12111820D+05 0.12111820D+05 0.12111820D+05 0.12585523D+01  1  2  2  2  5  2        1 0.187417503773D+00 0.100000000000D+01
-.123995389574D-04 0.000000000000D+00 -.863253773464D-06 0.194700474246D-02 0.000000000000D+00  5 -1 1 25 23 21 2 0.68627439D-02 0.48675737D-01 0.12111820D+05 0.12111820D+05 0.12111820D+05 0.12585523D+01  1  2  3  2  5  2        1 -.163749780771D-01 0.100000000000D+01
0.154368631875D-04 0.000000000000D+00 0.000000000000D+00 0.194700474246D-02 0.000000000000D+00  5 -1 1 25 23 21 2 0.68627439D-02 0.48675737D-01 0.12111820D+05 0.12111820D+05 0.12111820D+05 0.12585523D+01  1  2 15  2  5  2        1 0.203861044466D-01 0.100000000000D+01
-.152968298340D-04 0.000000000000D+00 0.000000000000D+00 0.194700474246D-02 0.000000000000D+00  5 -1 1 25 23 21 2 0.68627439D-02 0.48675737D-01 0.12111820D+05 0.12111820D+05 0.12111820D+05 0.12585523D+01  1  2  4  2  5  2        1 -.202011747407D-01 0.100000000000D+01
  </mgrwgt>
  </event>
  <event>
  4     66 0.43907321E-03 0.11578509E+03 0.75467711E-02 0.11213343E+00
       -3 -1    0    0    0  501 0.00000000E+00 0.00000000E+00 0.80896972E+02 0.80898518E+02 0.50000000E+00 0.0000E+00 0.9000E+01
        3 -1    0    0  501    0 0.00000000E+00 0.00000000E+00 -.17022862E+03 0.17022935E+03 0.50000000E+00 0.0000E+00 0.9000E+01
       25  1    1    2    0    0 -.23328172E+01 0.40984411E+02 -.30334414E+02 0.13501978E+03 0.12500000E+03 0.0000E+00 0.9000E+01
       23  1    1    2    0    0 0.23328172E+01 -.40984411E+02 -.58997230E+02 0.11610809E+03 0.91188000E+02 0.0000E+00 0.9000E+01
#aMCatNLO 1  0  0  2  2 0.18127922D+03 0.00000000D+00  -5  5  0 0.00000000D+00 0.00000000D+00 0.00000000D+00 0.00000000D+00 0.00000000D+00
  <mgrwgt>
 0.2801083926D-01    5    2    0
 0.117351037107390D+03 0.000000000000000D+00 0.000000000000000D+00 0.117351037107390D+03
 0.117351037107390D+03 0.000000000000000D+00 0.000000000000000D+00 -.117351037107390D+03
 0.132923436031548D+03 -.233281721783515D+01 0.409844110854789D+02 0.189334586971775D+02
 0.101778638183231D+03 0.233281721783515D+01 -.409844110854789D+02 -.189334586971775D+02
 0.000000000000000D+00 -.000000000000000D+00 0.000000000000000D+00 -.000000000000000D+00
 0.238652303002812D+03 0.000000000000000D+00 0.000000000000000D+00 0.238652303002812D+03
 0.239186661365588D+03 0.000000000000000D+00 0.000000000000000D+00 -.239186661365588D+03
 0.138837935314616D+03 0.391462927215399D+02 -.419531189585155D+02 0.189334586971775D+02
 0.157721026076423D+03 0.419404150516950D+02 -.120179850431150D+03 -.189334586971775D+02
 0.181280002977361D+03 -.810867077732349D+02 0.162132969389665D+03 -.534358362776578D+00
0.147216252244D-03 0.000000000000D+00 0.000000000000D+00 0.216231180863D-02 0.000000000000D+00  5 -3 3 25 23 21 0 0.12445863D-01 0.26189193D-01 0.13406186D+05 0.13406186D+05 0.13406186D+05 0.12534228D+01  1  2  2  2  5  2        3 0.231845853127D-01 0.100000000000D+01
-.817688605081D-05 0.000000000000D+00 -.565349171545D-06 0.216231180863D-02 0.000000000000D+00  5 -3 3 25 23 21 2 0.12445863D-01 0.26189193D-01 0.13406186D+05 0.13406186D+05 0.13406186D+05 0.12534228D+01  1  2  3  2  5  2        3 -.202314370513D-02 0.100000000000D+01
0.102016705437D-04 0.000000000000D+00 0.000000000000D+00 0.216231180863D-02 0.000000000000D+00  5 -3 3 25 23 21 2 0.12445863D-01 0.26189193D-01 0.13406186D+05 0.13406186D+05 0.13406186D+05 0.12534228D+01  1  2 15  2  5  2        3 0.252412047986D-02 0.100000000000D+01
0.585039976063D-04 0.000000000000D+00 -.602545535380D-04 0.216231180863D-02 0.000000000000D+00  5 -3 3 25 23 21 2 0.12445863D-01 0.10049027D+00 0.13406186D+05 0.13406186D+05 0.13406186D+05 0.12534228D+01  1  2  5  2  5  2        3 0.971555082581D-03 0.100000000000D+01
0.104426834858D-04 0.000000000000D+00 -.961510488435D-05 0.216231180863D-02 0.000000000000D+00  5 -3 21 25 23 -3 2 0.12445863D-01 0.10049027D+00 0.13406186D+05 0.13406186D+05 0.13406186D+05 0.12534228D+01  1  2  5  4  5  2        3 0.335372209009D-02 0.100000000000D+01
  </mgrwgt>
  </event>
  <event>
  4     66 -.43907321E-03 0.72825429E+02 0.75467711E-02 0.12573287E+00
       -3 -1    0    0    0  501 0.00000000E+00 0.00000000E+00 0.16397866E+03 0.16397942E+03 0.50000000E+00 0.0000E+00 0.9000E+01
        3 -1    0    0  501    0 0.00000000E+00 0.00000000E+00 -.75904738E+02 0.75906385E+02 0.50000000E+00 0.0000E+00 0.9000E+01
       25  1    1    2    0    0 -.15165007E+02 0.19548495E+02 0.62905342E+02 0.14210631E+03 0.12500000E+03 0.0000E+00 0.9000E+01
       23  1    1    2    0    0 0.15165007E+02 -.19548495E+02 0.25168577E+02 0.97779495E+02 0.91188000E+02 0.0000E+00 0.9000E+01
#aMCatNLO 1  0  0  2  1 0.16216653D+01 0.00000000D+00  -5  5  0 0.00000000D+00 0.00000000D+00 0.00000000D+00 0.00000000D+00 0.00000000D+00
  <mgrwgt>
 -.6151329300D-01   11    2    0
 0.111566330103776D+03 0.000000000000000D+00 0.000000000000000D+00 0.111566330103776D+03
 0.111566330103776D+03 0.000000000000000D+00 0.000000000000000D+00 -.111566330103776D+03
 0.127946156905466D+03 -.151650073617898D+02 0.195484946123845D+02 0.115368096536464D+02
 0.951865033020860D+02 0.151650073617898D+02 -.195484946123845D+02 -.115368096536464D+02
 0.000000000000000D+00 -.000000000000000D+00 0.000000000000000D+00 -.000000000000000D+00
 0.112026765697635D+03 0.000000000000000D+00 0.000000000000000D+00 0.112026765697635D+03
 0.113006358731992D+03 0.000000000000000D+00 0.000000000000000D+00 -.113006358731992D+03
 0.127786756356475D+03 -.149612761362286D+02 0.186418169581245D+02 0.115368096536464D+02
 0.953517966763063D+02 0.153168008907330D+02 -.202240307280433D+02 -.115368096536464D+02
 0.189457139684561D+01 -.355524754504419D+00 0.158221376991878D+01 -.979593034356366D+00
0.104457713569D-03 0.000000000000D+00 0.000000000000D+00 0.233986314881D-02 0.000000000000D+00  5 -3 3 25 23 21 0 0.25227671D-01 0.11677837D-01 0.12310983D+05 0.12310983D+05 0.12310983D+05 0.12577239D+01  1  2  2  2  5  2        3 0.194250695948D-01 0.100000000000D+01
-.580299319741D-05 0.000000000000D+00 -.401145124454D-06 0.233986314881D-02 0.000000000000D+00  5 -3 3 25 23 21 2 0.25227671D-01 0.11677837D-01 0.12310983D+05 0.12310983D+05 0.12310983D+05 0.12577239D+01  1  2  3  2  5  2        3 -.170704426186D-02 0.100000000000D+01
0.723073571466D-05 0.000000000000D+00 0.000000000000D+00 0.233986314881D-02 0.000000000000D+00  5 -3 3 25 23 21 2 0.25227671D-01 0.11677837D-01 0.12310983D+05 0.12310983D+05 0.12310983D+05 0.12577239D+01  1  2 15  2  5  2        3 0.212703780460D-02 0.100000000000D+01
0.277097088251D-07 0.000000000000D+00 0.000000000000D+00 0.233986314881D-02 0.000000000000D+00  5 -3 3 25 23 21 2 0.25227671D-01 0.11852458D-01 0.12492294D+05 0.12492294D+05 0.12492294D+05 0.12569828D+01  1  2 12  2  5  2        3 0.795328798178D-05 0.100000000000D+01
-.216665161057D-02 0.000000000000D+00 0.000000000000D+00 0.233986314881D-02 0.000000000000D+00  5 -3 3 25 23 21 2 0.25227671D-01 0.11677837D-01 0.12310983D+05 0.12310983D+05 0.12310983D+05 0.12577239D+01  1  2  4  2  5  2        3 -.637355597956D+00 0.100000000000D+01
-.898597912084D-02 0.000000000000D+00 -.942786018413D-03 0.233986314881D-02 0.000000000000D+00  5 -3 3 25 23 21 2 0.25227671D-01 0.11875100D-01 0.12310983D+05 0.12310983D+05 0.12310983D+05 0.12577239D+01  1  2  5  2  5  2        3 -.257061512027D+01 0.100000000000D+01
0.900064113786D-02 0.000000000000D+00 0.942653763774D-03 0.233986314881D-02 0.000000000000D+00  5 -3 3 25 23 21 2 0.25227671D-01 0.11677837D-01 0.12310983D+05 0.12310983D+05 0.12310983D+05 0.12577239D+01  1  2  6  2  5  2        3 0.264768409763D+01 0.100000000000D+01
0.216682256457D-02 0.000000000000D+00 0.000000000000D+00 0.233986314881D-02 0.749834085399D-02  5 -3 3 25 23 21 2 0.25331786D-01 0.11828568D-01 0.12492294D+05 0.12492294D+05 0.12492294D+05 0.12569828D+01  1  2 11  2  5  2        3 0.619409200275D+00 0.100000000000D+01
0.192518724659D-08 0.000000000000D+00 0.000000000000D+00 0.233986314881D-02 0.000000000000D+00  5 -3 21 25 23 -3 2 0.25227671D-01 0.11852458D-01 0.12492294D+05 0.12492294D+05 0.12492294D+05 0.12569828D+01  1  2 12  4  5  2        3 0.126872236091D-04 0.100000000000D+01
-.274300431036D-04 0.000000000000D+00 -.288808167119D-05 0.233986314881D-02 0.000000000000D+00  5 -3 21 25 23 -3 2 0.25227671D-01 0.11875100D-01 0.12310983D+05 0.12310983D+05 0.12310983D+05 0.12577239D+01  1  2  5  4  5  2        3 -.180244768484D+00 0.100000000000D+01
0.605404255544D-05 0.000000000000D+00 0.000000000000D+00 0.233986314881D-02 0.177246498806D-04  5 -3 21 25 23 -3 2 0.25331786D-01 0.11828568D-01 0.12492294D+05 0.12492294D+05 0.12492294D+05 0.12569828D+01  1  2 11  4  5  2        3 0.397431921518D-01 0.100000000000D+01
  </mgrwgt>
  </event>
  <event>
  4     66 0.43907321E-03 0.12162470E+03 0.75467711E-02 0.11924209E+00
       -1 -1    0    0    0  501 0.00000000E+00 0.00000000E+00 0.20728596E+02 0.20731066E+02 0.32000000E+00 0.0000E+00 0.9000E+01
        1 -1    0    0  501    0 0.00000000E+00 0.00000000E+00 -.13969078E+04 0.13969078E+04 0.32000000E+00 0.0000E+00 0.9000E+01
       25  1    1    2    0    0 -.55084662E+02 0.37254838E+01 -.23769771E+03 0.27417768E+03 0.12500000E+03 0.0000E+00 0.9000E+01
       23  1    1    2    0    0 0.55084662E+02 -.37254838E+01 -.11384815E+04 0.11434612E+04 0.91188000E+02 0.0000E+00 0.9000E+01
#aMCatNLO 1  0  0  2  1 0.62531532D+02 0.00000000D+00  -5  5  0 0.00000000D+00 0.00000000D+00 0.00000000D+00 0.00000000D+00 0.00000000D+00
  <mgrwgt>
 0.9576727957D-01    4    2    0
 0.170169659911578D+03 0.000000000000000D+00 0.000000000000000D+00 0.170169659911578D+03
 0.170169659911578D+03 0.000000000000000D+00 0.000000000000000D+00 -.170169659911578D+03
 0.180908572858513D+03 -.550846618900115D+02 0.372548380716182D+01 0.118552572846689D+03
 0.159430746964643D+03 0.550846618900115D+02 -.372548380716182D+01 -.118552572846689D+03
 0.000000000000000D+00 0.000000000000000D+00 0.000000000000000D+00 0.000000000000000D+00
 0.228994108206520D+03 0.000000000000000D+00 0.000000000000000D+00 0.228994108206520D+03
 0.190481792419391D+03 0.000000000000000D+00 0.000000000000000D+00 -.190481792419391D+03
 0.185275678245896D+03 -.617093733167710D+02 -.289709797169246D+02 0.118552572846689D+03
 0.160760512299430D+03 0.492920187394724D+02 -.323152491989946D+02 -.118552572846689D+03
 0.734397100805849D+02 0.124173545772986D+02 0.612862289159192D+02 0.385123157871292D+02
0.473850804819D-03 0.000000000000D+00 0.000000000000D+00 0.924439915357D-03 0.000000000000D+00  5 -1 1 25 23 21 0 0.31892075D-02 0.21490908D+00 0.14792568D+05 0.14792568D+05 0.14792568D+05 0.12485126D+01  1  2  2  2  5  2        1 0.135491689807D+00 0.100000000000D+01
-.227146351007D-04 0.000000000000D+00 -.181971185829D-05 0.924439915357D-03 0.000000000000D+00  5 -1 1 25 23 21 2 0.31892075D-02 0.21490908D+00 0.14792568D+05 0.14792568D+05 0.14792568D+05 0.12485126D+01  1  2  3  2  5  2        1 -.101242447745D-01 0.100000000000D+01
0.324509943749D-04 0.000000000000D+00 0.000000000000D+00 0.924439915357D-03 0.000000000000D+00  5 -1 1 25 23 21 2 0.31892075D-02 0.21490908D+00 0.14792568D+05 0.14792568D+05 0.14792568D+05 0.12485126D+01  1  2 15  2  5  2        1 0.144638823723D-01 0.100000000000D+01
-.988615733647D-04 0.000000000000D+00 0.000000000000D+00 0.924439915357D-03 0.000000000000D+00  5 -1 1 25 23 21 2 0.31892075D-02 0.21490908D+00 0.14792568D+05 0.14792568D+05 0.14792568D+05 0.12485126D+01  1  2  4  2  5  2        1 -.440640478308D-01 0.100000000000D+01
  </mgrwgt>
  </event>
  <event>
  5     66 -.43907321E-03 0.12436102E+03 0.75467711E-02 0.12309629E+00
       -1 -1    0    0    0  502 0.00000000E+00 0.00000000E+00 0.26979962E+03 0.26979981E+03 0.32000000E+00 0.0000E+00 0.9000E+01
        1 -1    0    0  501    0 0.00000000E+00 0.00000000E+00 -.63826650E+02 0.63827452E+02 0.32000000E+00 0.0000E+00 0.9000E+01
       25  1    1    2    0    0 -.25879082E+02 -.57046533E+02 0.74052592E+02 0.15821764E+03 0.12500000E+03 0.0000E+00 0.9000E+01
       23  1    1    2    0    0 0.29709653E+02 0.51757135E+02 0.12561982E+03 0.16630410E+03 0.91188000E+02 0.0000E+00 0.9000E+01
       21  1    1    2  501  502 -.38305706E+01 0.52893979E+01 0.63005619E+01 0.91055247E+01 0.75000000E+00 0.0000E+00 0.9000E+01
#aMCatNLO 2  0  0  1  2 0.65307734D+01 0.00000000D+00  -5  5  0 0.00000000D+00 0.00000000D+00 0.00000000D+00 0.00000000D+00 0.00000000D+00
  <mgrwgt>
 -.3598606982D-01    3    2    0
 0.127869695742992D+03 0.000000000000000D+00 0.000000000000000D+00 0.127869695742992D+03
 0.127869695742992D+03 0.000000000000000D+00 0.000000000000000D+00 -.127869695742992D+03
 0.142161097262184D+03 -.280136664945854D+02 -.540990178809913D+02 -.295517906163124D+02
 0.113578294223800D+03 0.280136664945854D+02 0.540990178809913D+02 0.295517906163124D+02
 0.000000000000000D+00 -.000000000000000D+00 0.000000000000000D+00 0.000000000000000D+00
 0.131649353117054D+03 0.000000000000000D+00 0.000000000000000D+00 0.131649353117054D+03
 0.130763933508504D+03 0.000000000000000D+00 0.000000000000000D+00 -.130763933508504D+03
 0.142906760441241D+03 -.258790822065740D+02 -.570465332454592D+02 -.295517906163124D+02
 0.112916005078530D+03 0.297096527643454D+02 0.517571353813776D+02 0.295517906163124D+02
 0.659052110578674D+01 -.383057055777141D+01 0.528939786408163D+01 0.885419608549534D+00
-.262934472160D-03 0.000000000000D+00 0.000000000000D+00 0.191383383638D-02 0.000000000000D+00  5 -1 1 25 23 21 2 0.41945309D-01 0.96006645D-02 0.16298222D+05 0.16298222D+05 0.16298222D+05 0.12437337D+01  1  2 13  1  5  1       -1 -.149547907718D+00 0.100000000000D+01
-.216765943598D-03 0.000000000000D+00 0.000000000000D+00 0.191383383638D-02 0.000000000000D+00  5 -1 1 25 23 21 2 0.40309486D-01 0.96006645D-02 0.15465663D+05 0.15465663D+05 0.15465663D+05 0.12463117D+01  1  2  8  1  5  1       -1 -.132553236425D+00 0.100000000000D+01
0.437457897758D-03 0.000000000000D+00 0.000000000000D+00 0.191383383638D-02 0.370439545961D-03  5 -1 1 25 23 21 2 0.41500980D-01 0.98179686D-02 0.16298222D+05 0.16298222D+05 0.16298222D+05 0.12437337D+01  1  2  1  1  5  1       -1 0.246115074326D+00 0.100000000000D+01
  </mgrwgt>
  </event>
  <event>
  4     66 0.43907321E-03 0.25607653E+03 0.75467711E-02 0.98693872E-01
       -1 -1    0    0    0  501 0.00000000E+00 0.00000000E+00 0.32043121E+02 0.32044719E+02 0.32000000E+00 0.0000E+00 0.9000E+01
        1 -1    0    0  501    0 0.00000000E+00 0.00000000E+00 -.20659780E+04 0.20659780E+04 0.32000000E+00 0.0000E+00 0.9000E+01
       25  1    1    2    0    0 0.20625562E+03 0.10542586E+03 -.11470806E+04 0.11768920E+04 0.12500000E+03 0.0000E+00 0.9000E+01
       23  1    1    2    0    0 -.20625562E+03 -.10542586E+03 -.88685428E+03 0.92113069E+03 0.91188000E+02 0.0000E+00 0.9000E+01
#aMCatNLO 1  0  0  1  2 0.51162082D+03 0.00000000D+00  -5  5  0 0.00000000D+00 0.00000000D+00 0.00000000D+00 0.00000000D+00 0.00000000D+00
  <mgrwgt>
 0.1691365226D+00    5    2    0
 0.257297657472169D+03 0.000000000000000D+00 0.000000000000000D+00 0.257297657472169D+03
 0.257297657472169D+03 0.000000000000000D+00 0.000000000000000D+00 -.257297657472169D+03
 0.264400081885798D+03 0.206255620309801D+03 0.105425857109487D+03 -.250282049809030D+02
 0.250195233058539D+03 -.206255620309801D+03 -.105425857109487D+03 0.250282049809030D+02
 0.000000000000000D+00 0.000000000000000D+00 -.000000000000000D+00 0.000000000000000D+00
 0.126130313491365D+04 0.000000000000000D+00 0.000000000000000D+00 0.126130313491365D+04
 0.435656734938298D+03 0.000000000000000D+00 0.000000000000000D+00 -.435656734938298D+03
 0.252505542064796D+03 0.243009909473328D+02 0.216603553913245D+03 -.250282049809030D+02
 0.473141894864048D+03 -.460875676499876D+03 0.501517806040570D+02 0.250282049809030D+02
 0.971312432923102D+03 0.436574685552543D+03 -.266755334517302D+03 0.825646399975350D+03
0.288873205235D-02 0.000000000000D+00 0.000000000000D+00 0.132633953165D-02 0.000000000000D+00  5 -1 1 25 23 21 0 0.49298358D-02 0.31784289D+00 0.65575191D+05 0.65575191D+05 0.65575191D+05 0.11807915D+01  1  2  2  1  5  1       -1 0.159037772724D+00 0.100000000000D+01
-.160480698020D-03 0.000000000000D+00 -.110934917016D-04 0.132633953165D-02 0.000000000000D+00  5 -1 1 25 23 21 2 0.49298358D-02 0.31784289D+00 0.65575191D+05 0.65575191D+05 0.65575191D+05 0.11807915D+01  1  2  3  1  5  1       -1 -.123186259825D-01 0.100000000000D+01
0.198949955976D-03 0.000000000000D+00 0.000000000000D+00 0.132633953165D-02 0.000000000000D+00  5 -1 1 25 23 21 2 0.49298358D-02 0.31784289D+00 0.65575191D+05 0.65575191D+05 0.65575191D+05 0.11807915D+01  1  2 15  1  5  1       -1 0.152715568111D-01 0.100000000000D+01
0.184195694808D-02 0.000000000000D+00 -.194278378882D-02 0.132633953165D-02 0.000000000000D+00  5 -1 1 25 23 21 2 0.48679135D-01 0.31784289D+00 0.65575191D+05 0.65575191D+05 0.65575191D+05 0.11807915D+01  1  2  5  1  5  1       -1 0.346560303450D-02 0.100000000000D+01
0.196750885363D-03 0.000000000000D+00 -.530137866420D-03 0.132633953165D-02 0.000000000000D+00  5 21 1 25 23 1 2 0.48679135D-01 0.31784289D+00 0.65575191D+05 0.65575191D+05 0.65575191D+05 0.11807915D+01  1  2  5  3  5  1       -1 0.368021606065D-02 0.100000000000D+01
  </mgrwgt>
  </event>
  <event>
  4     66 0.43907321E-03 0.11072030E+03 0.75467711E-02 0.11844156E+00
       -1 -1    0    0    0  501 0.00000000E+00 0.00000000E+00 0.33761483E+02 0.33762999E+02 0.32000000E+00 0.0000E+00 0.9000E+01
        1 -1    0    0  501    0 0.00000000E+00 0.00000000E+00 -.48891793E+03 0.48891803E+03 0.32000000E+00 0.0000E+00 0.9000E+01
       25  1    1    2    0    0 -.46624762E+02 -.50609001E+02 -.25687245E+03 0.29384281E+03 0.12500000E+03 0.0000E+00 0.9000E+01
       23  1    1    2    0    0 0.46624762E+02 0.50609001E+02 -.19828400E+03 0.22883823E+03 0.91188000E+02 0.0000E+00 0.9000E+01
#aMCatNLO 1  0  0  1  2 0.63132817D+02 0.00000000D+00  -5  5  0 0.00000000D+00 0.00000000D+00 0.00000000D+00 0.00000000D+00 0.00000000D+00
  <mgrwgt>
 0.1417399346D+00    9    2    0
 0.128479640414780D+03 0.000000000000000D+00 0.000000000000000D+00 0.128479640414780D+03
 0.128479640414780D+03 0.000000000000000D+00 0.000000000000000D+00 -.128479640414780D+03
 0.142703194886915D+03 -.466247620115389D+02 -.506090013963464D+02 -.201553366753136D+01
 0.114256085942645D+03 0.466247620115389D+02 0.506090013963464D+02 0.201553366753136D+01
 0.000000000000000D+00 -.000000000000000D+00 -.000000000000000D+00 0.000000000000000D+00
 0.179104755224628D+03 0.000000000000000D+00 0.000000000000000D+00 0.179104755224628D+03
 0.153590164077452D+03 0.000000000000000D+00 0.000000000000000D+00 -.153590164077452D+03
 0.130098823135861D+03 -.223130198319136D+02 -.282625291039521D+02 -.201553366753136D+01
 0.134502432786225D+03 0.687937804673218D+02 0.709859596995200D+02 0.201553366753136D+01
 0.680936633799941D+02 -.464807606354082D+02 -.427234305955679D+02 0.255145911471756D+02
0.157200960957D-03 0.000000000000D+00 0.000000000000D+00 0.198562087559D-02 0.000000000000D+00  5 -1 1 25 23 21 0 0.51941990D-02 0.75218268D-01 0.16502905D+05 0.16502905D+05 0.16502905D+05 0.12431225D+01  1  2  2  1  5  1       -1 0.115930333276D+00 0.100000000000D+01
-.873338655500D-05 0.000000000000D+00 -.603693082039D-06 0.198562087559D-02 0.000000000000D+00  5 -1 1 25 23 21 2 0.51941990D-02 0.75218268D-01 0.16502905D+05 0.16502905D+05 0.16502905D+05 0.12431225D+01  1  2  3  1  5  1       -1 -.995296450808D-02 0.100000000000D+01
0.108759373322D-04 0.000000000000D+00 0.000000000000D+00 0.198562087559D-02 0.000000000000D+00  5 -1 1 25 23 21 2 0.51941990D-02 0.75218268D-01 0.16502905D+05 0.16502905D+05 0.16502905D+05 0.12431225D+01  1  2 15  1  5  1       -1 0.123947128159D-01 0.100000000000D+01
0.507688858462D-04 0.000000000000D+00 0.000000000000D+00 0.198562087559D-02 0.000000000000D+00  5 -1 1 25 23 21 2 0.75877190D-02 0.75218268D-01 0.26847373D+05 0.26847373D+05 0.26847373D+05 0.12199920D+01  1  2 12  1  5  1       -1 0.320375899654D-01 0.100000000000D+01
-.760051895081D-04 0.000000000000D+00 0.000000000000D+00 0.198562087559D-02 0.000000000000D+00  5 -1 1 25 23 21 2 0.51941990D-02 0.75218268D-01 0.16502905D+05 0.16502905D+05 0.16502905D+05 0.12431225D+01  1  2  4  1  5  1       -1 -.866189706410D-01 0.100000000000D+01
-.105946869678D-03 0.000000000000D+00 -.540471815725D-04 0.198562087559D-02 0.000000000000D+00  5 -1 1 25 23 21 2 0.86434627D-02 0.75218268D-01 0.16502905D+05 0.16502905D+05 0.16502905D+05 0.12431225D+01  1  2  5  1  5  1       -1 -.563987890274D-01 0.100000000000D+01
0.123438737372D-03 0.000000000000D+00 0.477237732477D-04 0.198562087559D-02 0.000000000000D+00  5 -1 1 25 23 21 2 0.51941990D-02 0.75218268D-01 0.16502905D+05 0.16502905D+05 0.16502905D+05 0.12431225D+01  1  2  6  1  5  1       -1 0.140676399041D+00 0.100000000000D+01
0.232320354830D-05 0.000000000000D+00 0.000000000000D+00 0.198562087559D-02 0.000000000000D+00  5 21 1 25 23 1 2 0.75877190D-02 0.75218268D-01 0.26847373D+05 0.26847373D+05 0.26847373D+05 0.12199920D+01  1  2 12  3  5  1       -1 0.233633447493D-01 0.100000000000D+01
-.357325095409D-05 0.000000000000D+00 -.309216355246D-05 0.198562087559D-02 0.000000000000D+00  5 21 1 25 23 1 2 0.86434627D-02 0.75218268D-01 0.16502905D+05 0.16502905D+05 0.16502905D+05 0.12431225D+01  1  2  5  3  5  1       -1 -.296917210708D-01 0.100000000000D+01
  </mgrwgt>
  </event>
  <event>
  4     66 0.43907321E-03 0.14205869E+03 0.75467711E-02 0.11784250E+00
       -1 -1    0    0    0  501 0.00000000E+00 0.00000000E+00 0.21909695E+02 0.21912032E+02 0.32000000E+00 0.0000E+00 0.9000E+01
        1 -1    0    0  501    0 0.00000000E+00 0.00000000E+00 -.10478911E+04 0.10478912E+04 0.32000000E+00 0.0000E+00 0.9000E+01
       25  1    1    2    0    0 0.87408537E+02 -.27125146E+02 -.36837987E+03 0.39963077E+03 0.12500000E+03 0.0000E+00 0.9000E+01
       23  1    1    2    0    0 -.87408537E+02 0.27125146E+02 -.65760154E+03 0.67017241E+03 0.91188000E+02 0.0000E+00 0.9000E+01
#aMCatNLO 1  0  0  2  2 0.50621330D+02 0.00000000D+00  -5  5  0 0.00000000D+00 0.00000000D+00 0.00000000D+00 0.00000000D+00 0.00000000D+00
  <mgrwgt>
 0.1179515851D+00    4    2    0
 0.151526401738211D+03 0.000000000000000D+00 0.000000000000000D+00 0.151526401738211D+03
 0.151526401738211D+03 0.000000000000000D+00 0.000000000000000D+00 -.151526401738211D+03
 0.163586591533764D+03 0.874085370247612D+02 -.271251460416480D+02 0.525313909681123D+02
 0.139466211942658D+03 -.874085370247612D+02 0.271251460416480D+02 -.525313909681123D+02
 0.000000000000000D+00 -.000000000000000D+00 -.000000000000000D+00 0.000000000000000D+00
 0.203679923591060D+03 0.000000000000000D+00 0.000000000000000D+00 0.203679923591060D+03
 0.166424515533554D+03 0.000000000000000D+00 0.000000000000000D+00 -.166424515533554D+03
 0.175629704865021D+03 0.111004557991257D+03 -.117997584337713D+02 0.525313909681123D+02
 0.131621854536780D+03 -.685515429229930D+02 0.393725814944045D+02 -.525313909681123D+02
 0.628528797228135D+02 -.424530150682637D+02 -.275728230606332D+02 0.372554080575056D+02
0.352818588779D-03 0.000000000000D+00 0.000000000000D+00 0.154329514235D-02 0.000000000000D+00  5 -1 1 25 23 21 0 0.33709058D-02 0.16121420D+00 0.20180670D+05 0.20180670D+05 0.20180670D+05 0.12333963D+01  1  2  2  2  5  2        1 0.161609408033D+00 0.100000000000D+01
-.195018252863D-04 0.000000000000D+00 -.135491628018D-05 0.154329514235D-02 0.000000000000D+00  5 -1 1 25 23 21 2 0.33709058D-02 0.16121420D+00 0.20180670D+05 0.20180670D+05 0.20180670D+05 0.12333963D+01  1  2  3  2  5  2        1 -.135892575363D-01 0.100000000000D+01
0.243375315761D-04 0.000000000000D+00 0.000000000000D+00 0.154329514235D-02 0.000000000000D+00  5 -1 1 25 23 21 2 0.33709058D-02 0.16121420D+00 0.20180670D+05 0.20180670D+05 0.20180670D+05 0.12333963D+01  1  2 15  2  5  2        1 0.169588733121D-01 0.100000000000D+01
-.674886681750D-04 0.000000000000D+00 0.000000000000D+00 0.154329514235D-02 0.000000000000D+00  5 -1 1 25 23 21 2 0.33709058D-02 0.16121420D+00 0.20180670D+05 0.20180670D+05 0.20180670D+05 0.12333963D+01  1  2  4  2  5  2        1 -.470274386704D-01 0.100000000000D+01
  </mgrwgt>
  </event>
  <event>
  4     66 0.43907321E-03 0.92517891E+02 0.75467711E-02 0.11089620E+00
       -1 -1    0    0    0  501 0.00000000E+00 0.00000000E+00 0.12685514E+02 0.12689549E+02 0.32000000E+00 0.0000E+00 0.9000E+01
        1 -1    0    0  501    0 0.00000000E+00 0.00000000E+00 -.20098990E+04 0.20098990E+04 0.32000000E+00 0.0000E+00 0.9000E+01
       25  1    1    2    0    0 0.89729773E+02 -.74646387E+02 -.11092204E+04 0.11223272E+04 0.12500000E+03 0.0000E+00 0.9000E+01
       23  1    1    2    0    0 -.89729773E+02 0.74646387E+02 -.88799307E+03 0.90026133E+03 0.91188000E+02 0.0000E+00 0.9000E+01
#aMCatNLO 1  0  0  2  1 0.15791697D+03 0.00000000D+00  -5  5  0 0.00000000D+00 0.00000000D+00 0.00000000D+00 0.00000000D+00 0.00000000D+00
  <mgrwgt>
 0.1572568972D+00    7    2    0
 0.159689410095521D+03 0.000000000000000D+00 0.000000000000000D+00 0.159689410095521D+03
 0.159689410095521D+03 0.000000000000000D+00 0.000000000000000D+00 -.159689410095521D+03
 0.171133106724539D+03 0.897297734161613D+02 -.746463870251420D+02 -.616643202909613D+01
 0.148245713466503D+03 -.897297734161613D+02 0.746463870251420D+02 0.616643202909613D+01
 0.000000000000000D+00 -.000000000000000D+00 -.000000000000000D+00 -.000000000000000D+00
 0.211031682490389D+03 0.000000000000000D+00 0.000000000000000D+00 0.211031682490389D+03
 0.367709139273202D+03 0.000000000000000D+00 0.000000000000000D+00 -.367709139273202D+03
 0.180462740015912D+03 0.129979821269822D+03 -.300361661106230D+01 -.616643202909613D+01
 0.175824503418548D+03 -.526308091977401D+02 0.140680409786155D+03 0.616643202909613D+01
 0.222453578329131D+03 -.773490120720820D+02 -.137676793175093D+03 -.156677456782813D+03
0.654726221536D-03 0.000000000000D+00 0.000000000000D+00 0.164828240949D-02 0.000000000000D+00  5 -1 1 25 23 21 0 0.19519299D-02 0.30921554D+00 0.25462486D+05 0.25462486D+05 0.25462486D+05 0.12224451D+01  1  2  2  2  5  2        1 0.154736444623D+00 0.100000000000D+01
-.363736540988D-04 0.000000000000D+00 -.251432108407D-05 0.164828240949D-02 0.000000000000D+00  5 -1 1 25 23 21 2 0.19519299D-02 0.30921554D+00 0.25462486D+05 0.25462486D+05 0.25462486D+05 0.12224451D+01  1  2  3  2  5  2        1 -.128463134845D-01 0.100000000000D+01
0.451388402310D-04 0.000000000000D+00 0.000000000000D+00 0.164828240949D-02 0.000000000000D+00  5 -1 1 25 23 21 2 0.19519299D-02 0.30921554D+00 0.25462486D+05 0.25462486D+05 0.25462486D+05 0.12224451D+01  1  2 15  2  5  2        1 0.159419697113D-01 0.100000000000D+01
0.464012632646D-07 0.000000000000D+00 0.000000000000D+00 0.164828240949D-02 0.000000000000D+00  5 -1 1 25 23 21 2 0.19519299D-02 0.70466680D+00 0.66046600D+05 0.66046600D+05 0.66046600D+05 0.11804926D+01  1  2 12  2  5  2        1 0.169817215177D-06 0.100000000000D+01
-.230274515099D-03 0.000000000000D+00 -.165635416185D-03 0.164828240949D-02 0.000000000000D+00  5 -1 1 25 23 21 2 0.19519299D-02 0.73750201D+00 0.25462486D+05 0.25462486D+05 0.25462486D+05 0.12224451D+01  1  2  5  2  5  2        1 -.572944236859D-03 0.100000000000D+01
0.415544669755D-08 0.000000000000D+00 0.000000000000D+00 0.164828240949D-02 0.000000000000D+00  5 -1 21 25 23 -1 2 0.19519299D-02 0.70466680D+00 0.66046600D+05 0.66046600D+05 0.66046600D+05 0.11804926D+01  1  2 12  4  5  2        1 0.148535231673D-08 0.100000000000D+01
-.114559445040D-04 0.000000000000D+00 -.157387822410D-04 0.164828240949D-02 0.000000000000D+00  5 -1 21 25 23 -1 2 0.19519299D-02 0.73750201D+00 0.25462486D+05 0.25462486D+05 0.25462486D+05 0.12224451D+01  1  2  5  4  5  2        1 -.243074595832D-05 0.100000000000D+01
  </mgrwgt>
  </event>
  <event>
  5     66 0.43907321E-03 0.10971391E+03 0.75467711E-02 0.12376887E+00
       -3 -1    0    0    0  501 0.00000000E+00 0.00000000E+00 0.52955820E+03 0.52955843E+03 0.50000000E+00 0.0000E+00 0.9000E+01
       21 -1    0    0  501  502 0.00000000E+00 0.00000000E+00 -.33649590E+02 0.33657948E+02 0.75000000E+00 0.0000E+00 0.9000E+01
       25  1    1    2    0    0 -.12123913E+02 0.29547097E+01 0.16763661E+03 0.20948211E+03 0.12500000E+03 0.0000E+00 0.9000E+01
       23  1    1    2    0    0 0.42182705E+01 -.27444536E+02 0.18442446E+03 0.20760209E+03 0.91188000E+02 0.0000E+00 0.9000E+01
       -3  1    1    2    0  502 0.79056423E+01 0.24489826E+02 0.14384754E+03 0.14613219E+03 0.50000000E+00 0.0000E+00 0.9000E+01
#aMCatNLO 2  0  0  2  1 0.25734233D+02 0.00000000D+00  -5  5  0 0.00000000D+00 0.00000000D+00 0.00000000D+00 0.00000000D+00 0.00000000D+00
  <mgrwgt>
 0.1973052732D-01    1    2    0
 0.111074278085856D+03 0.000000000000000D+00 0.000000000000000D+00 0.111074278085856D+03
 0.111074278085856D+03 0.000000000000000D+00 0.000000000000000D+00 -.111074278085856D+03
 0.127526666482992D+03 -.761388271082636D+01 0.169257254575775D+02 -.171347387509918D+02
 0.946218896887197D+02 0.761388271082636D+01 -.169257254575775D+02 0.171347387509918D+02
 0.000000000000000D+00 0.000000000000000D+00 0.000000000000000D+00 0.000000000000000D+00
 0.153972094504175D+03 0.000000000000000D+00 0.000000000000000D+00 0.153972094504175D+03
 0.115744546199827D+03 0.000000000000000D+00 0.000000000000000D+00 -.115744546199827D+03
 0.126784537080794D+03 -.121239127794857D+02 0.295470973904220D+01 -.171347387509918D+02
 0.968496100700614D+02 0.421827052739845D+01 -.274445358571771D+02 0.171347387509918D+02
 0.460824935531464D+02 0.790564225208726D+01 0.244898261181349D+02 0.382275483043487D+02
0.728955041157D-05 0.000000000000D+00 0.000000000000D+00 0.233228967194D-02 0.277214511397D-06  5 -3 21 25 23 -3 2 0.81470225D-01 0.51774621D-02 0.15212432D+05 0.15212432D+05 0.15212432D+05 0.12471269D+01  1  2  1  4  5  2        3 0.197305273162D-01 0.100000000000D+01
  </mgrwgt>
  </event>
  <event>
  4     66 0.43907321E-03 0.14590451E+03 0.75467711E-02 0.11407451E+00
       -1 -1    0    0    0  501 0.00000000E+00 0.00000000E+00 0.42087545E+02 0.42088761E+02 0.32000000E+00 0.0000E+00 0.9000E+01
        1 -1    0    0  501    0 0.00000000E+00 0.00000000E+00 -.53883864E+03 0.53883873E+03 0.32000000E+00 0.0000E+00 0.9000E+01
       25  1    1    2    0    0 -.84827048E+02 -.47741428E+02 -.19671176E+03 0.25257749E+03 0.12500000E+03 0.0000E+00 0.9000E+01
       23  1    1    2    0    0 0.84827048E+02 0.47741428E+02 -.30003933E+03 0.32835000E+03 0.91188000E+02 0.0000E+00 0.9000E+01
#aMCatNLO 1  0  0  1  1 0.11016071D+03 0.00000000D+00  -5  5  0 0.00000000D+00 0.00000000D+00 0.00000000D+00 0.00000000D+00 0.00000000D+00
  <mgrwgt>
 0.1484739249D+00    3    2    0
 0.150594741403130D+03 0.000000000000000D+00 0.000000000000000D+00 0.150594741403130D+03
 0.150594741403130D+03 0.000000000000000D+00 0.000000000000000D+00 -.150594741403130D+03
 0.162729542040744D+03 -.848270475513813D+02 -.477414282547802D+02 0.371622373478714D+02
 0.138459940765516D+03 0.848270475513813D+02 0.477414282547802D+02 -.371622373478714D+02
 0.000000000000000D+00 -.000000000000000D+00 -.000000000000000D+00 -.000000000000000D+00
 0.189024038927416D+03 0.000000000000000D+00 0.000000000000000D+00 0.189024038927416D+03
 0.266161921637949D+03 0.000000000000000D+00 0.000000000000000D+00 -.266161921637949D+03
 0.148357235907020D+03 -.705255630931325D+02 0.547562888335023D+01 0.371622373478714D+02
 0.172345878417095D+03 0.991156155898460D+02 0.100910422280884D+03 -.371622373478714D+02
 0.134482846241251D+03 -.285900524967135D+02 -.106386051164234D+03 -.771378827105333D+02
0.308882709368D-03 0.000000000000D+00 0.000000000000D+00 0.163514517424D-02 0.000000000000D+00  5 -1 1 25 23 21 0 0.64751078D-02 0.82898353D-01 0.21288125D+05 0.21288125D+05 0.21288125D+05 0.12308529D+01  1  2  2  1  5  1       -1 0.145476070608D+00 0.100000000000D+01
-.171392634699D-04 0.000000000000D+00 -.118619093466D-05 0.163514517424D-02 0.000000000000D+00  5 -1 1 25 23 21 2 0.64751078D-02 0.82898353D-01 0.21288125D+05 0.21288125D+05 0.21288125D+05 0.12308529D+01  1  2  3  1  5  1       -1 -.122293227257D-01 0.100000000000D+01
0.213407238201D-04 0.000000000000D+00 0.000000000000D+00 0.163514517424D-02 0.000000000000D+00  5 -1 1 25 23 21 2 0.64751078D-02 0.82898353D-01 0.21288125D+05 0.21288125D+05 0.21288125D+05 0.12308529D+01  1  2 15  1  5  1       -1 0.152271770169D-01 0.100000000000D+01
  </mgrwgt>
  </event>
  <event>
  4     66 0.43907321E-03 0.16144241E+03 0.75467711E-02 0.10260709E+00
       -1 -1    0    0    0  501 0.00000000E+00 0.00000000E+00 0.27178500E+03 0.27178519E+03 0.32000000E+00 0.0000E+00 0.9000E+01
        1 -1    0    0  501    0 0.00000000E+00 0.00000000E+00 -.96612546E+02 0.96613076E+02 0.32000000E+00 0.0000E+00 0.9000E+01
       25  1    1    2    0    0 -.10693395E+03 -.52790031E+02 0.10948899E+03 0.20453483E+03 0.12500000E+03 0.0000E+00 0.9000E+01
       23  1    1    2    0    0 0.10693395E+03 0.52790031E+02 0.65683467E+02 0.16386344E+03 0.91188000E+02 0.0000E+00 0.9000E+01
#aMCatNLO 1  0  0  1  2 0.39848104D+03 0.00000000D+00  -5  5  0 0.00000000D+00 0.00000000D+00 0.00000000D+00 0.00000000D+00 0.00000000D+00
  <mgrwgt>
 0.1406299589D+00    3    2    0
 0.162043122019913D+03 0.000000000000000D+00 0.000000000000000D+00 0.162043122019913D+03
 0.162043122019913D+03 0.000000000000000D+00 0.000000000000000D+00 -.162043122019913D+03
 0.173320596442897D+03 -.106933951341331D+03 -.527900305306727D+02 0.139058217456564D+02
 0.150765647596929D+03 0.106933951341331D+03 0.527900305306727D+02 -.139058217456564D+02
 0.000000000000000D+00 -.000000000000000D+00 -.000000000000000D+00 -.000000000000000D+00
 0.382130971457329D+03 0.000000000000000D+00 0.000000000000000D+00 0.382130971457329D+03
 0.573594152148381D+03 0.000000000000000D+00 0.000000000000000D+00 -.573594152148381D+03
 0.139406354569027D+03 0.415307153107820D+02 -.434851641548941D+02 0.139058217456564D+02
 0.374226818640144D+03 0.356170006125065D+03 0.684106373597918D+02 -.139058217456564D+02
 0.442091950396538D+03 -.397700721435847D+03 -.249254732048977D+02 -.191463180691052D+03
0.654734877430D-03 0.000000000000D+00 0.000000000000D+00 0.162407048944D-02 0.000000000000D+00  5 -1 1 25 23 21 0 0.41813133D-01 0.14863524D-01 0.26063653D+05 0.26063653D+05 0.26063653D+05 0.12213623D+01  1  2  2  1  5  1       -1 0.137873212073D+00 0.100000000000D+01
-.363735498269D-04 0.000000000000D+00 -.251435432498D-05 0.162407048944D-02 0.000000000000D+00  5 -1 1 25 23 21 2 0.41813133D-01 0.14863524D-01 0.26063653D+05 0.26063653D+05 0.26063653D+05 0.12213623D+01  1  2  3  1  5  1       -1 -.114258668615D-01 0.100000000000D+01
0.451494850305D-04 0.000000000000D+00 0.000000000000D+00 0.162407048944D-02 0.000000000000D+00  5 -1 1 25 23 21 2 0.41813133D-01 0.14863524D-01 0.26063653D+05 0.26063653D+05 0.26063653D+05 0.12213623D+01  1  2 15  1  5  1       -1 0.141826136651D-01 0.100000000000D+01
  </mgrwgt>
  </event>
  <event>
  5     66 0.43907321E-03 0.10912567E+03 0.75467711E-02 0.11488213E+00
       -1 -1    0    0    0  502 0.00000000E+00 0.00000000E+00 0.22542408E+02 0.22544679E+02 0.32000000E+00 0.0000E+00 0.9000E+01
        1 -1    0    0  501    0 0.00000000E+00 0.00000000E+00 -.20789890E+04 0.20789890E+04 0.32000000E+00 0.0000E+00 0.9000E+01
       25  1    1    2    0    0 -.16437042E+01 -.68338066E+02 -.73308374E+03 0.74679955E+03 0.12500000E+03 0.0000E+00 0.9000E+01
       23  1    1    2    0    0 0.17805441E+02 -.72562733E+02 -.91245050E+03 0.92003454E+03 0.91188000E+02 0.0000E+00 0.9000E+01
       21  1    1    2  501  502 -.16161737E+02 0.14090080E+03 -.41091237E+03 0.43469964E+03 0.75000000E+00 0.0000E+00 0.9000E+01
#aMCatNLO 2  0  0  1  2 0.14182467D+03 0.00000000D+00  -5  5  0 0.00000000D+00 0.00000000D+00 0.00000000D+00 0.00000000D+00 0.00000000D+00
  <mgrwgt>
 0.1622675407D-01    1    2    0
 0.112292800531690D+03 0.000000000000000D+00 0.000000000000000D+00 0.112292800531690D+03
 0.112292800531690D+03 0.000000000000000D+00 0.000000000000000D+00 -.112292800531690D+03
 0.128566659188232D+03 -.106583174350066D+02 0.102528825046111D+02 0.261851966695764D+02
 0.960189418751484D+02 0.106583174350066D+02 -.102528825046111D+02 -.261851966695764D+02
 0.000000000000000D+00 -.000000000000000D+00 0.000000000000000D+00 0.000000000000000D+00
 0.281126468626246D+03 0.000000000000000D+00 0.000000000000000D+00 0.281126468626246D+03
 0.166713033588122D+03 0.000000000000000D+00 0.000000000000000D+00 -.166713033588122D+03
 0.144856679140625D+03 -.164370423941046D+01 -.683380655520686D+02 0.261851966695764D+02
 0.120761334293918D+03 0.178054408299680D+02 -.725627333324317D+02 -.261851966695764D+02
 0.182221488779825D+03 -.161617365905575D+02 0.140900798884500D+03 0.114413435038124D+03
0.122363201118D-03 0.000000000000D+00 0.000000000000D+00 0.224536391991D-02 0.137252015666D-05  5 -1 1 25 23 21 2 0.34682251D-02 0.31984333D+00 0.40437837D+05 0.40437837D+05 0.40437837D+05 0.12015204D+01  1  2  1  1  5  1       -1 0.162267540691D-01 0.100000000000D+01
  </mgrwgt>
  </event>
  <event>
  4     66 0.43907321E-03 0.23751931E+03 0.75467711E-02 0.10518932E+00
       -1 -1    0    0    0  501 0.00000000E+00 0.00000000E+00 0.11569503E+04 0.11569503E+04 0.32000000E+00 0.0000E+00 0.9000E+01
        1 -1    0    0  501    0 0.00000000E+00 0.00000000E+00 -.60819915E+02 0.60820757E+02 0.32000000E+00 0.0000E+00 0.9000E+01
       25  1    1    2    0    0 0.71458058E+02 -.23083614E+03 0.54576023E+03 0.60981211E+03 0.12500000E+03 0.0000E+00 0.9000E+01
       23  1    1    2    0    0 -.71458058E+02 0.23083614E+03 0.55037015E+03 0.60795899E+03 0.91188000E+02 0.0000E+00 0.9000E+01
#aMCatNLO 1  0  0  1  2 0.19111846D+03 0.00000000D+00  -5  5  0 0.00000000D+00 0.00000000D+00 0.00000000D+00 0.00000000D+00 0.00000000D+00
  <mgrwgt>
 0.1887141700D+00    8    2    0
 0.265266202572841D+03 0.000000000000000D+00 0.000000000000000D+00 0.265266202572841D+03
 0.265266202572841D+03 0.000000000000000D+00 0.000000000000000D+00 -.265266202572841D+03
 0.272155271539319D+03 0.714580576050285D+02 -.230836141540470D+03 -.720510851167684D+01
 0.258377133606364D+03 -.714580576050285D+02 0.230836141540470D+03 0.720510851167684D+01
 0.000000000000000D+00 -.000000000000000D+00 -.000000000000000D+00 0.000000000000000D+00
 0.426604398548948D+03 0.000000000000000D+00 0.000000000000000D+00 0.426604398548948D+03
 0.345081675595555D+03 0.000000000000000D+00 0.000000000000000D+00 -.345081675595555D+03
 0.217250068764967D+03 0.963960449184269D+02 -.149092190653308D+03 -.720510851167684D+01
 0.346656748230094D+03 -.406281380540228D+02 0.331893191492475D+03 0.720510851167684D+01
 0.207779257149441D+03 -.557679068644040D+02 -.182801000839167D+03 0.815227229533934D+02
0.682011914231D-02 0.000000000000D+00 0.000000000000D+00 0.132682924022D-02 0.000000000000D+00  5 -1 1 25 23 21 0 0.17799242D+00 0.93569781D-02 0.70314210D+05 0.70314210D+05 0.70314210D+05 0.11778898D+01  1  2  2  1  5  1       -1 0.113343361555D+00 0.100000000000D+01
-.378895445089D-03 0.000000000000D+00 -.261910532851D-04 0.132682924022D-02 0.000000000000D+00  5 -1 1 25 23 21 2 0.17799242D+00 0.93569781D-02 0.70314210D+05 0.70314210D+05 0.70314210D+05 0.11778898D+01  1  2  3  1  5  1       -1 -.873640605141D-02 0.100000000000D+01
0.470525123266D-03 0.000000000000D+00 0.000000000000D+00 0.132682924022D-02 0.000000000000D+00  5 -1 1 25 23 21 2 0.17799242D+00 0.93569781D-02 0.70314210D+05 0.70314210D+05 0.70314210D+05 0.11778898D+01  1  2 15  1  5  1       -1 0.108491632389D-01 0.100000000000D+01
0.430526852747D-03 0.000000000000D+00 0.000000000000D+00 0.132682924022D-02 0.000000000000D+00  5 -1 1 25 23 21 2 0.29989515D+00 0.93569781D-02 0.14244241D+06 0.14244241D+06 0.14244241D+06 0.11497165D+01  1  2 12  1  5  1       -1 0.151310458664D-02 0.100000000000D+01
-.276754311269D-02 0.000000000000D+00 -.178762146320D-02 0.132682924022D-02 0.000000000000D+00  5 -1 1 25 23 21 2 0.32600154D+00 0.93569781D-02 0.70314210D+05 0.70314210D+05 0.70314210D+05 0.11778898D+01  1  2  5  1  5  1       -1 -.717005268996D-02 0.100000000000D+01
0.347688224226D-02 0.000000000000D+00 0.150376116650D-02 0.132682924022D-02 0.000000000000D+00  5 -1 1 25 23 21 2 0.17799242D+00 0.93569781D-02 0.70314210D+05 0.70314210D+05 0.70314210D+05 0.11778898D+01  1  2  6  1  5  1       -1 0.801684355276D-01 0.100000000000D+01
0.251140813209D-04 0.000000000000D+00 0.000000000000D+00 0.132682924022D-02 0.000000000000D+00  5 21 1 25 23 1 2 0.29989515D+00 0.93569781D-02 0.14244241D+06 0.14244241D+06 0.14244241D+06 0.11497165D+01  1  2 12  3  5  1       -1 0.743117843095D-03 0.100000000000D+01
-.855612859462D-04 0.000000000000D+00 -.118221197648D-03 0.132682924022D-02 0.000000000000D+00  5 21 1 25 23 1 2 0.32600154D+00 0.93569781D-02 0.70314210D+05 0.70314210D+05 0.70314210D+05 0.11778898D+01  1  2  5  3  5  1       -1 -.199655404434D-02 0.100000000000D+01
  </mgrwgt>
  </event>
  <event>
  4     66 0.43907321E-03 0.25325432E+03 0.75467711E-02 0.10920028E+00
       -1 -1    0    0    0  501 0.00000000E+00 0.00000000E+00 0.32447746E+02 0.32449323E+02 0.32000000E+00 0.0000E+00 0.9000E+01
        1 -1    0    0  501    0 0.00000000E+00 0.00000000E+00 -.19819397E+04 0.19819397E+04 0.32000000E+00 0.0000E+00 0.9000E+01
       25  1    1    2    0    0 -.15961964E+03 -.16352756E+03 -.10547130E+04 0.10863996E+04 0.12500000E+03 0.0000E+00 0.9000E+01
       23  1    1    2    0    0 0.15961964E+03 0.16352756E+03 -.89477897E+03 0.92798941E+03 0.91188000E+02 0.0000E+00 0.9000E+01
#aMCatNLO 1  0  0  1  2 0.63273607D+02 0.00000000D+00  -5  5  0 0.00000000D+00 0.00000000D+00 0.00000000D+00 0.00000000D+00 0.00000000D+00
  <mgrwgt>
 0.1548935029D+00    4    2    0
 0.253596312266550D+03 0.000000000000000D+00 0.000000000000000D+00 0.253596312266550D+03
 0.253596312266550D+03 0.000000000000000D+00 0.000000000000000D+00 -.253596312266550D+03
 0.260802399562012D+03 -.159619637121967D+03 -.163527560477340D+03 -.131605481149035D+02
 0.246390224971088D+03 0.159619637121967D+03 0.163527560477340D+03 0.131605481149035D+02
 0.000000000000000D+00 0.000000000000000D+00 0.000000000000000D+00 -.000000000000000D+00
 0.273224233979493D+03 0.000000000000000D+00 0.000000000000000D+00 0.273224233979493D+03
 0.312230557747388D+03 0.000000000000000D+00 0.000000000000000D+00 -.312230557747388D+03
 0.286333870941064D+03 -.192963160571124D+03 -.170159055838389D+03 -.131605481149035D+02
 0.224790289882312D+03 0.130905001677757D+03 0.157816677161939D+03 0.131605481149035D+02
 0.743306309035050D+02 0.620581588933664D+02 0.123423786764501D+02 -.390063237678954D+02
0.331228915839D-02 0.000000000000D+00 0.000000000000D+00 0.133999181824D-02 0.000000000000D+00  5 -1 1 25 23 21 0 0.49920842D-02 0.30491392D+00 0.64137749D+05 0.64137749D+05 0.64137749D+05 0.11817179D+01  1  2  2  1  5  1       -1 0.202976494484D+00 0.100000000000D+01
-.184015656902D-03 0.000000000000D+00 -.127200625140D-04 0.133999181824D-02 0.000000000000D+00  5 -1 1 25 23 21 2 0.49920842D-02 0.30491392D+00 0.64137749D+05 0.64137749D+05 0.64137749D+05 0.11817179D+01  1  2  3  1  5  1       -1 -.157470744269D-01 0.100000000000D+01
0.227741357364D-03 0.000000000000D+00 0.000000000000D+00 0.133999181824D-02 0.000000000000D+00  5 -1 1 25 23 21 2 0.49920842D-02 0.30491392D+00 0.64137749D+05 0.64137749D+05 0.64137749D+05 0.11817179D+01  1  2 15  1  5  1       -1 0.194888857005D-01 0.100000000000D+01
-.605609326739D-03 0.000000000000D+00 0.000000000000D+00 0.133999181824D-02 0.000000000000D+00  5 -1 1 25 23 21 2 0.49920842D-02 0.30491392D+00 0.64137749D+05 0.64137749D+05 0.64137749D+05 0.11817179D+01  1  2  4  1  5  1       -1 -.518248028581D-01 0.100000000000D+01
  </mgrwgt>
  </event>
  <event>
  4     66 0.43907321E-03 0.11664555E+03 0.75467711E-02 0.12409206E+00
       -1 -1    0    0    0  501 0.00000000E+00 0.00000000E+00 0.65138274E+02 0.65139060E+02 0.32000000E+00 0.0000E+00 0.9000E+01
        1 -1    0    0  501    0 0.00000000E+00 0.00000000E+00 -.23408472E+03 0.23408494E+03 0.32000000E+00 0.0000E+00 0.9000E+01
       25  1    1    2    0    0 0.40909362E+02 0.14419606E+02 -.45900226E+02 0.14004761E+03 0.12500000E+03 0.0000E+00 0.9000E+01
       23  1    1    2    0    0 -.40909362E+02 -.14419606E+02 -.12304622E+03 0.15917640E+03 0.91188000E+02 0.0000E+00 0.9000E+01
#aMCatNLO 1  0  0  1  2 0.91855200D+01 0.00000000D+00  -5  5  0 0.00000000D+00 0.00000000D+00 0.00000000D+00 0.00000000D+00 0.00000000D+00
  <mgrwgt>
 0.5505467578D-01    6    2    0
 0.123482893961196D+03 0.000000000000000D+00 0.000000000000000D+00 0.123482893961196D+03
 0.123482893961196D+03 0.000000000000000D+00 0.000000000000000D+00 -.123482893961196D+03
 0.138282005849311D+03 0.409093624148018D+02 0.144196058984233D+02 0.401921904635388D+02
 0.108683782073080D+03 -.409093624148018D+02 -.144196058984233D+02 -.401921904635388D+02
 0.000000000000000D+00 0.000000000000000D+00 -.000000000000000D+00 -.000000000000000D+00
 0.125356018436971D+03 0.000000000000000D+00 0.000000000000000D+00 0.125356018436971D+03
 0.135367195243994D+03 0.000000000000000D+00 0.000000000000000D+00 -.135367195243994D+03
 0.138359215988241D+03 0.391445036594566D+02 0.192501508533862D+02 0.401921904635388D+02
 0.108777333680264D+03 -.422966761041181D+02 -.106224288594216D+02 -.401921904635388D+02
 0.135866640124609D+02 0.315217244466146D+01 -.862772199396456D+01 -.100111768070230D+02
0.148190755966D-03 0.000000000000D+00 0.000000000000D+00 0.190757889536D-02 0.000000000000D+00  5 -1 1 25 23 21 0 0.10021350D-01 0.36013111D-01 0.13606185D+05 0.13606185D+05 0.13606185D+05 0.12526801D+01  1  2  2  1  5  1       -1 0.101675659492D+00 0.100000000000D+01
-.820034005538D-05 0.000000000000D+00 -.569091522432D-06 0.190757889536D-02 0.000000000000D+00  5 -1 1 25 23 21 2 0.10021350D-01 0.36013111D-01 0.13606185D+05 0.13606185D+05 0.13606185D+05 0.12526801D+01  1  2  3  1  5  1       -1 -.882893117456D-02 0.100000000000D+01
0.102488747535D-04 0.000000000000D+00 0.000000000000D+00 0.190757889536D-02 0.000000000000D+00  5 -1 1 25 23 21 2 0.10021350D-01 0.36013111D-01 0.13606185D+05 0.13606185D+05 0.13606185D+05 0.12526801D+01  1  2 15  1  5  1       -1 0.110344948141D-01 0.100000000000D+01
-.453554861055D-04 0.000000000000D+00 0.000000000000D+00 0.190757889536D-02 0.000000000000D+00  5 -1 1 25 23 21 2 0.10021350D-01 0.36013111D-01 0.13606185D+05 0.13606185D+05 0.13606185D+05 0.12526801D+01  1  2  4  1  5  1       -1 -.488321779963D-01 0.100000000000D+01
0.352265907999D-08 0.000000000000D+00 0.000000000000D+00 0.190757889536D-02 0.188870265484D-03  5 -1 1 25 23 21 2 0.10173365D-01 0.39479103D-01 0.14720726D+05 0.14720726D+05 0.14720726D+05 0.12487541D+01  1  2 11  1  5  1       -1 0.329820583961D-05 0.100000000000D+01
0.165198485857D-09 0.000000000000D+00 0.000000000000D+00 0.190757889536D-02 0.549811812460D-06  5 21 1 25 23 1 2 0.10173365D-01 0.39479103D-01 0.14720726D+05 0.14720726D+05 0.14720726D+05 0.12487541D+01  1  2 11  3  5  1       -1 0.233244162783D-05 0.100000000000D+01
  </mgrwgt>
  </event>
  <event>
  4     66 0.43907321E-03 0.11322106E+03 0.75467711E-02 0.12462230E+00
       -1 -1    0    0    0  501 0.00000000E+00 0.00000000E+00 0.71242152E+02 0.71242871E+02 0.32000000E+00 0.0000E+00 0.9000E+01
        1 -1    0    0  501    0 0.00000000E+00 0.00000000E+00 -.20251694E+03 0.20251719E+03 0.32000000E+00 0.0000E+00 0.9000E+01
       25  1    1    2    0    0 -.31203860E+02 0.11649685E+02 -.11924521E+03 0.17593697E+03 0.12500000E+03 0.0000E+00 0.9000E+01
       23  1    1    2    0    0 0.31203860E+02 -.11649685E+02 -.12029576E+02 0.97823096E+02 0.91188000E+02 0.0000E+00 0.9000E+01
#aMCatNLO 1  0  0  1  2 0.96414322D+01 0.00000000D+00  -5  5  0 0.00000000D+00 0.00000000D+00 0.00000000D+00 0.00000000D+00 0.00000000D+00
  <mgrwgt>
 0.9824932575D-01    6    2    0
 0.120116091777640D+03 0.000000000000000D+00 0.000000000000000D+00 0.120116091777640D+03
 0.120116091777640D+03 0.000000000000000D+00 0.000000000000000D+00 -.120116091777640D+03
 0.135330016381373D+03 -.312038602114888D+02 0.116496847408510D+02 -.397469154416195D+02
 0.104902167173908D+03 0.312038602114888D+02 -.116496847408510D+02 0.397469154416195D+02
 0.000000000000000D+00 0.000000000000000D+00 0.000000000000000D+00 -.000000000000000D+00
 0.121644263774758D+03 0.000000000000000D+00 0.000000000000000D+00 0.121644263774758D+03
 0.136447316263763D+03 0.000000000000000D+00 0.000000000000000D+00 -.136447316263763D+03
 0.136535369590522D+03 -.364852965977037D+02 0.102914039020365D+02 -.397469154416195D+02
 0.103890209812346D+03 0.271477217183984D+02 -.126928432287811D+02 0.397469154416195D+02
 0.176660006356528D+02 0.933757487930521D+01 0.240143932674458D+01 -.148030524890043D+02
0.182644514430D-03 0.000000000000D+00 0.000000000000D+00 0.196706879038D-02 0.000000000000D+00  5 -1 1 25 23 21 0 0.10960406D-01 0.31156527D-01 0.12819008D+05 0.12819008D+05 0.12819008D+05 0.12556775D+01  1  2  2  1  5  1       -1 0.130433282258D+00 0.100000000000D+01
-.101038019617D-04 0.000000000000D+00 -.701403026815D-06 0.196706879038D-02 0.000000000000D+00  5 -1 1 25 23 21 2 0.10960406D-01 0.31156527D-01 0.12819008D+05 0.12819008D+05 0.12819008D+05 0.12556775D+01  1  2  3  1  5  1       -1 -.113768705728D-01 0.100000000000D+01
0.125680929451D-04 0.000000000000D+00 0.000000000000D+00 0.196706879038D-02 0.000000000000D+00  5 -1 1 25 23 21 2 0.10960406D-01 0.31156527D-01 0.12819008D+05 0.12819008D+05 0.12819008D+05 0.12556775D+01  1  2 15  1  5  1       -1 0.141516596747D-01 0.100000000000D+01
-.310470101203D-04 0.000000000000D+00 0.000000000000D+00 0.196706879038D-02 0.000000000000D+00  5 -1 1 25 23 21 2 0.10960406D-01 0.31156527D-01 0.12819008D+05 0.12819008D+05 0.12819008D+05 0.12556775D+01  1  2  4  1  5  1       -1 -.349589013274D-01 0.100000000000D+01
0.741445839644D-10 0.000000000000D+00 0.000000000000D+00 0.196706879038D-02 0.178309071445D-03  5 -1 1 25 23 21 2 0.11099849D-01 0.35392630D-01 0.13953469D+05 0.13953469D+05 0.13953469D+05 0.12514192D+01  1  2 11  1  5  1       -1 0.697044692556D-07 0.100000000000D+01
0.618284350934D-11 0.000000000000D+00 0.000000000000D+00 0.196706879038D-02 0.448544290265D-06  5 21 1 25 23 1 2 0.11099849D-01 0.35392630D-01 0.13953469D+05 0.13953469D+05 0.13953469D+05 0.12514192D+01  1  2 11  3  5  1       -1 0.860127758892D-07 0.100000000000D+01
  </mgrwgt>
  </event>
  <event>
  5     66 0.43907321E-03 0.11462738E+03 0.75467711E-02 0.12377173E+00
       21 -1    0    0  502  501 0.00000000E+00 0.00000000E+00 0.39370860E+03 0.39370932E+03 0.75000000E+00 0.0000E+00 0.9000E+01
        3 -1    0    0  501    0 0.00000000E+00 0.00000000E+00 -.41302228E+02 0.41305254E+02 0.50000000E+00 0.0000E+00 0.9000E+01
       25  1    1    2    0    0 -.31213819E+02 0.38883012E+01 0.23640659E+03 0.26926288E+03 0.12500000E+03 0.0000E+00 0.9000E+01
       23  1    1    2    0    0 0.39273501E+02 -.18559244E+02 0.92986327E+02 0.13729006E+03 0.91188000E+02 0.0000E+00 0.9000E+01
        3  1    1    2  502    0 -.80596828E+01 0.14670943E+02 0.23013458E+02 0.28461629E+02 0.50000000E+00 0.0000E+00 0.9000E+01
#aMCatNLO 2  0  0  1  2 0.16739028D+02 0.00000000D+00  -5  5  0 0.00000000D+00 0.00000000D+00 0.00000000D+00 0.00000000D+00 0.00000000D+00
  <mgrwgt>
 0.2278735763D-02    2    2    0
 0.118854328607778D+03 0.000000000000000D+00 0.000000000000000D+00 0.118854328607778D+03
 0.118854328607778D+03 0.000000000000000D+00 0.000000000000000D+00 -.118854328607778D+03
 0.134229764954152D+03 -.357318046140597D+02 0.121123364075997D+02 0.311313225774106D+02
 0.103478892261403D+03 0.357318046140597D+02 -.121123364075997D+02 -.311313225774106D+02
 0.000000000000000D+00 -.000000000000000D+00 0.000000000000000D+00 -.000000000000000D+00
 0.127478663196301D+03 0.000000000000000D+00 0.000000000000000D+00 0.127478663196301D+03
 0.127557847032715D+03 0.000000000000000D+00 0.000000000000000D+00 -.127557847032715D+03
 0.132603094259930D+03 -.312138186621716D+02 0.388830122470381D+01 0.311313225774106D+02
 0.105694200675979D+03 0.392735014582474D+02 -.185592443360270D+02 -.311313225774106D+02
 0.167392152931071D+02 -.805968279607572D+01 0.146709431113232D+02 -.791838364142185D-01
-.473785601225D-05 0.000000000000D+00 0.000000000000D+00 0.205939529230D-02 0.000000000000D+00  5 21 3 25 23 3 2 0.62491115D-01 0.59207251D-02 0.15208000D+05 0.15208000D+05 0.15208000D+05 0.12471413D+01  1  2 13  3  5  1       -3 -.146161068309D-01 0.100000000000D+01
0.573589476733D-05 0.000000000000D+00 0.000000000000D+00 0.205939529230D-02 0.771240941105D-06  5 21 3 25 23 3 2 0.60569069D-01 0.63542906D-02 0.15208000D+05 0.15208000D+05 0.15208000D+05 0.12471413D+01  1  2  1  3  5  1       -3 0.168948425942D-01 0.100000000000D+01
  </mgrwgt>
  </event>
  <event>
  4     66 0.43907321E-03 0.12448162E+03 0.75467711E-02 0.11291745E+00
       -1 -1    0    0    0  501 0.00000000E+00 0.00000000E+00 0.51135243E+02 0.51136244E+02 0.32000000E+00 0.0000E+00 0.9000E+01
        1 -1    0    0  501    0 0.00000000E+00 0.00000000E+00 -.43540402E+03 0.43540413E+03 0.32000000E+00 0.0000E+00 0.9000E+01
       25  1    1    2    0    0 -.29501582E+02 -.53579082E+02 -.34138942E+03 0.36866353E+03 0.12500000E+03 0.0000E+00 0.9000E+01
       23  1    1    2    0    0 0.29501582E+02 0.53579082E+02 -.42879355E+02 0.11787685E+03 0.91188000E+02 0.0000E+00 0.9000E+01
#aMCatNLO 1  0  0  1  2 0.15818432D+03 0.00000000D+00  -5  5  0 0.00000000D+00 0.00000000D+00 0.00000000D+00 0.00000000D+00 0.00000000D+00
  <mgrwgt>
 0.1354659040D+00    3    2    0
 0.149213813565717D+03 0.000000000000000D+00 0.000000000000000D+00 0.149213813565717D+03
 0.149213813565717D+03 0.000000000000000D+00 0.000000000000000D+00 -.149213813565717D+03
 0.161460918041706D+03 -.295015818486265D+02 -.535790823094546D+02 -.818753116768168D+02
 0.136966709089729D+03 0.295015818486265D+02 0.535790823094546D+02 0.818753116768168D+02
 0.000000000000000D+00 -.000000000000000D+00 -.000000000000000D+00 -.000000000000000D+00
 0.238968870865330D+03 0.000000000000000D+00 0.000000000000000D+00 0.238968870865330D+03
 0.258131141026538D+03 0.000000000000000D+00 0.000000000000000D+00 -.258131141026538D+03
 0.150419302421112D+03 0.248059399769015D+01 0.170659465631619D+02 -.818753116768168D+02
 0.187339971193136D+03 0.627580456973120D+02 0.127038870038753D+03 0.818753116768168D+02
 0.159340738277620D+03 -.652386396950022D+02 -.144104816601915D+03 -.191622701612075D+02
0.287655274762D-03 0.000000000000D+00 0.000000000000D+00 0.130461873754D-02 0.000000000000D+00  5 -1 1 25 23 21 0 0.78670465D-02 0.66985319D-01 0.15495674D+05 0.15495674D+05 0.15495674D+05 0.12462161D+01  1  2  2  1  5  1       -1 0.132298240534D+00 0.100000000000D+01
-.153427260024D-04 0.000000000000D+00 -.110467199646D-05 0.130461873754D-02 0.000000000000D+00  5 -1 1 25 23 21 2 0.78670465D-02 0.66985319D-01 0.15495674D+05 0.15495674D+05 0.15495674D+05 0.12462161D+01  1  2  3  1  5  1       -1 -.109590017520D-01 0.100000000000D+01
0.197774905940D-04 0.000000000000D+00 0.000000000000D+00 0.130461873754D-02 0.000000000000D+00  5 -1 1 25 23 21 2 0.78670465D-02 0.66985319D-01 0.15495674D+05 0.15495674D+05 0.15495674D+05 0.12462161D+01  1  2 15  1  5  1       -1 0.141266652377D-01 0.100000000000D+01
  </mgrwgt>
  </event>
  <event>
  4     66 0.43907321E-03 0.82538992E+02 0.75467711E-02 0.11665793E+00
       -1 -1    0    0    0  501 0.00000000E+00 0.00000000E+00 0.24014205E+02 0.24016337E+02 0.32000000E+00 0.0000E+00 0.9000E+01
        1 -1    0    0  501    0 0.00000000E+00 0.00000000E+00 -.77260000E+03 0.77260007E+03 0.32000000E+00 0.0000E+00 0.9000E+01
       25  1    1    2    0    0 -.76719996E+02 0.10066368E+02 -.32965746E+03 0.36095198E+03 0.12500000E+03 0.0000E+00 0.9000E+01
       23  1    1    2    0    0 0.76719996E+02 -.10066368E+02 -.41892834E+03 0.43566443E+03 0.91188000E+02 0.0000E+00 0.9000E+01
#aMCatNLO 1  0  0  1  2 0.83301145D+02 0.00000000D+00  -5  5  0 0.00000000D+00 0.00000000D+00 0.00000000D+00 0.00000000D+00 0.00000000D+00
  <mgrwgt>
 0.9906947889D-01    7    2    0
 0.136213986593499D+03 0.000000000000000D+00 0.000000000000000D+00 0.136213986593499D+03
 0.136213986593499D+03 0.000000000000000D+00 0.000000000000000D+00 -.136213986593499D+03
 0.149629915527828D+03 -.767199959210478D+02 0.100663679005194D+02 0.278715281969004D+02
 0.122798057659170D+03 0.767199959210478D+02 -.100663679005194D+02 -.278715281969004D+02
 0.000000000000000D+00 0.000000000000000D+00 0.000000000000000D+00 0.000000000000000D+00
 0.271279713568388D+03 0.000000000000000D+00 0.000000000000000D+00 0.271279713568388D+03
 0.155904044560041D+03 0.000000000000000D+00 0.000000000000000D+00 -.155904044560041D+03
 0.163751126919483D+03 -.968130869360252D+02 -.322464832390704D+02 0.278715281969004D+02
 0.121127937596830D+03 0.610801627475979D+02 -.430013669219702D+02 -.278715281969004D+02
 0.142304693612115D+03 0.357329241884273D+02 0.752478501610405D+02 0.115375669008347D+03
0.223982017594D-03 0.000000000000D+00 0.000000000000D+00 0.181199750594D-02 0.000000000000D+00  5 -1 1 25 23 21 0 0.36946621D-02 0.11886171D+00 0.17769479D+05 0.17769479D+05 0.17769479D+05 0.12395202D+01  1  2  2  1  5  1       -1 0.145619640260D+00 0.100000000000D+01
-.124363812316D-04 0.000000000000D+00 -.860149923381D-06 0.181199750594D-02 0.000000000000D+00  5 -1 1 25 23 21 2 0.36946621D-02 0.11886171D+00 0.17769479D+05 0.17769479D+05 0.17769479D+05 0.12395202D+01  1  2  3  1  5  1       -1 -.124224725052D-01 0.100000000000D+01
0.155167683031D-04 0.000000000000D+00 0.000000000000D+00 0.181199750594D-02 0.000000000000D+00  5 -1 1 25 23 21 2 0.36946621D-02 0.11886171D+00 0.17769479D+05 0.17769479D+05 0.17769479D+05 0.12395202D+01  1  2 15  1  5  1       -1 0.154994145020D-01 0.100000000000D+01
0.680346799396D-04 0.000000000000D+00 0.000000000000D+00 0.181199750594D-02 0.000000000000D+00  5 -1 1 25 23 21 2 0.73831772D-02 0.11886171D+00 0.32858920D+05 0.32858920D+05 0.32858920D+05 0.12107711D+01  1  2 12  1  5  1       -1 0.234120945209D-01 0.100000000000D+01
-.170081479399D-03 0.000000000000D+00 -.658112422507D-04 0.181199750594D-02 0.000000000000D+00  5 -1 1 25 23 21 2 0.84100621D-02 0.11886171D+00 0.17769479D+05 0.17769479D+05 0.17769479D+05 0.12395202D+01  1  2  5  1  5  1       -1 -.500573899903D-01 0.100000000000D+01
0.509665815884D-05 0.000000000000D+00 0.000000000000D+00 0.181199750594D-02 0.000000000000D+00  5 21 1 25 23 1 2 0.73831772D-02 0.11886171D+00 0.32858920D+05 0.32858920D+05 0.32858920D+05 0.12107711D+01  1  2 12  3  5  1       -1 0.280092746226D-01 0.100000000000D+01
-.110453621456D-04 0.000000000000D+00 -.588480612715D-05 0.181199750594D-02 0.000000000000D+00  5 21 1 25 23 1 2 0.84100621D-02 0.11886171D+00 0.17769479D+05 0.17769479D+05 0.17769479D+05 0.12395202D+01  1  2  5  3  5  1       -1 -.509910825228D-01 0.100000000000D+01
  </mgrwgt>
  </event>
  <event>
  4     66 0.43907321E-03 0.10853994E+03 0.75467711E-02 0.11478036E+00
       -1 -1    0    0    0  501 0.00000000E+00 0.00000000E+00 0.22387788E+02 0.22390075E+02 0.32000000E+00 0.0000E+00 0.9000E+01
        1 -1    0    0  501    0 0.00000000E+00 0.00000000E+00 -.77468178E+03 0.77468184E+03 0.32000000E+00 0.0000E+00 0.9000E+01
       25  1    1    2    0    0 0.32836761E+01 -.91367274E+01 -.63964123E+03 0.65181298E+03 0.12500000E+03 0.0000E+00 0.9000E+01
       23  1    1    2    0    0 -.32836761E+01 0.91367274E+01 -.11265276E+03 0.14525893E+03 0.91188000E+02 0.0000E+00 0.9000E+01
#aMCatNLO 1  0  0  1  2 0.14399700D+03 0.00000000D+00  -5  5  0 0.00000000D+00 0.00000000D+00 0.00000000D+00 0.00000000D+00 0.00000000D+00
  <mgrwgt>
 0.2273752493D+00    3    2    0
 0.131697945752648D+03 0.000000000000000D+00 0.000000000000000D+00 0.131697945752648D+03
 0.131697945752648D+03 0.000000000000000D+00 0.000000000000000D+00 -.131697945752648D+03
 0.145573918939293D+03 0.328367607895689D+01 -.913672742408022D+01 -.739763716245297D+02
 0.117821972566003D+03 -.328367607895689D+01 0.913672742408022D+01 0.739763716245297D+02
 0.000000000000000D+00 0.000000000000000D+00 0.000000000000000D+00 -.000000000000000D+00
 0.158672508684858D+03 0.000000000000000D+00 0.000000000000000D+00 0.158672508684858D+03
 0.754351686627860D+03 0.000000000000000D+00 0.000000000000000D+00 -.754351686627860D+03
 0.165171512707853D+03 -.744367549718060D+02 -.253632521719368D+02 -.739763716245297D+02
 0.135015983235619D+03 -.665208886318006D+02 -.406598106069358D+01 0.739763716245297D+02
 0.612836699369246D+03 0.140957643603607D+03 0.294292332326304D+02 -.595679177943002D+03
0.312818375070D-03 0.000000000000D+00 0.000000000000D+00 0.145891829036D-02 0.000000000000D+00  5 -1 1 25 23 21 0 0.34444560D-02 0.11918199D+00 0.11780919D+05 0.11780919D+05 0.11780919D+05 0.12599630D+01  1  2  2  1  5  1       -1 0.221822938010D+00 0.100000000000D+01
-.165885171924D-04 0.000000000000D+00 -.120130492724D-05 0.145891829036D-02 0.000000000000D+00  5 -1 1 25 23 21 2 0.34444560D-02 0.11918199D+00 0.11780919D+05 0.11780919D+05 0.11780919D+05 0.12599630D+01  1  2  3  1  5  1       -1 -.186740004277D-01 0.100000000000D+01
0.215207550459D-04 0.000000000000D+00 0.000000000000D+00 0.145891829036D-02 0.000000000000D+00  5 -1 1 25 23 21 2 0.34444560D-02 0.11918199D+00 0.11780919D+05 0.11780919D+05 0.11780919D+05 0.12599630D+01  1  2 15  1  5  1       -1 0.242263117475D-01 0.100000000000D+01
  </mgrwgt>
  </event>
  <event>
  4     66 0.43907321E-03 0.18033754E+03 0.75467711E-02 0.99392833E-01
       -1 -1    0    0    0  501 0.00000000E+00 0.00000000E+00 0.17960988E+02 0.17963839E+02 0.32000000E+00 0.0000E+00 0.9000E+01
        1 -1    0    0  501    0 0.00000000E+00 0.00000000E+00 -.18985879E+04 0.18985879E+04 0.32000000E+00 0.0000E+00 0.9000E+01
       25  1    1    2    0    0 -.13848603E+03 0.38416260E+02 -.78464135E+03 0.80742878E+03 0.12500000E+03 0.0000E+00 0.9000E+01
       23  1    1    2    0    0 0.13848603E+03 -.38416260E+02 -.10959856E+04 0.11091230E+04 0.91188000E+02 0.0000E+00 0.9000E+01
#aMCatNLO 1  0  0  1  2 0.52897179D+03 0.00000000D+00  -5  5  0 0.00000000D+00 0.00000000D+00 0.00000000D+00 0.00000000D+00 0.00000000D+00
  <mgrwgt>
 0.1975756353D+00    5    2    0
 0.184670713024503D+03 0.000000000000000D+00 0.000000000000000D+00 0.184670713024503D+03
 0.184670713024503D+03 0.000000000000000D+00 0.000000000000000D+00 -.184670713024503D+03
 0.194566365313221D+03 -.138486031113567D+03 0.384162599835938D+02 0.397099567675777D+02
 0.174775060735786D+03 0.138486031113567D+03 -.384162599835938D+02 -.397099567675777D+02
 0.000000000000000D+00 -.000000000000000D+00 -.000000000000000D+00 0.000000000000000D+00
 0.996675642149427D+03 0.000000000000000D+00 0.000000000000000D+00 0.996675642149427D+03
 0.426349581826319D+03 0.000000000000000D+00 0.000000000000000D+00 -.426349581826319D+03
 0.175497053595481D+03 0.410387280759832D+02 0.109147413859045D+03 0.397099567675777D+02
 0.469657379034153D+03 0.451112388252030D+03 0.847557363031980D+02 -.397099567675777D+02
 0.777870791346113D+03 -.492151116328013D+03 -.193903150162243D+03 0.570326060323108D+03
0.101732615719D-02 0.000000000000D+00 0.000000000000D+00 0.145313019614D-02 0.000000000000D+00  5 -1 1 25 23 21 0 0.27634503D-02 0.29209067D+00 0.32521629D+05 0.32521629D+05 0.32521629D+05 0.12112368D+01  1  2  2  1  5  1       -1 0.170744421027D+00 0.100000000000D+01
-.564793783635D-04 0.000000000000D+00 -.390680031175D-05 0.145313019614D-02 0.000000000000D+00  5 -1 1 25 23 21 2 0.27634503D-02 0.29209067D+00 0.32521629D+05 0.32521629D+05 0.32521629D+05 0.12112368D+01  1  2  3  1  5  1       -1 -.139070278437D-01 0.100000000000D+01
0.701876681237D-04 0.000000000000D+00 0.000000000000D+00 0.145313019614D-02 0.000000000000D+00  5 -1 1 25 23 21 2 0.27634503D-02 0.29209067D+00 0.32521629D+05 0.32521629D+05 0.32521629D+05 0.12112368D+01  1  2 15  1  5  1       -1 0.172824468534D-01 0.100000000000D+01
0.332036592113D-02 0.000000000000D+00 -.127113089418D-02 0.145313019614D-02 0.000000000000D+00  5 -1 1 25 23 21 2 0.53800797D-01 0.29209067D+00 0.32521629D+05 0.32521629D+05 0.32521629D+05 0.12112368D+01  1  2  5  1  5  1       -1 0.730943984989D-02 0.100000000000D+01
0.741874904550D-03 0.000000000000D+00 -.407049068596D-03 0.145313019614D-02 0.000000000000D+00  5 21 1 25 23 1 2 0.53800797D-01 0.29209067D+00 0.32521629D+05 0.32521629D+05 0.32521629D+05 0.12112368D+01  1  2  5  3  5  1       -1 0.161463554581D-01 0.100000000000D+01
  </mgrwgt>
  </event>
  <event>
  4     66 0.43907321E-03 0.12122597E+03 0.75467711E-02 0.12268236E+00
       -1 -1    0    0    0  501 0.00000000E+00 0.00000000E+00 0.20366764E+02 0.20369278E+02 0.32000000E+00 0.0000E+00 0.9000E+01
        1 -1    0    0  501    0 0.00000000E+00 0.00000000E+00 -.10301628E+04 0.10301628E+04 0.32000000E+00 0.0000E+00 0.9000E+01
       25  1    1    2    0    0 -.55231046E+02 0.45063510E+02 -.31695709E+03 0.34809192E+03 0.12500000E+03 0.0000E+00 0.9000E+01
       23  1    1    2    0    0 0.55231046E+02 -.45063510E+02 -.69283895E+03 0.70244021E+03 0.91188000E+02 0.0000E+00 0.9000E+01
#aMCatNLO 1  0  0  2  2 0.11975915D+01 0.00000000D+00  -5  5  0 0.00000000D+00 0.00000000D+00 0.00000000D+00 0.00000000D+00 0.00000000D+00
  <mgrwgt>
 0.3146967320D+00   10    2    0
 0.144853130901959D+03 0.000000000000000D+00 0.000000000000000D+00 0.144853130901959D+03
 0.144853130901959D+03 0.000000000000000D+00 0.000000000000000D+00 -.144853130901959D+03
 0.157468924241192D+03 -.552310461315214D+02 0.450635103858375D+02 0.639552474516485D+02
 0.132237337562726D+03 0.552310461315214D+02 -.450635103858375D+02 -.639552474516485D+02
 0.000000000000000D+00 -.000000000000000D+00 0.000000000000000D+00 -.000000000000000D+00
 0.145450361331270D+03 0.000000000000000D+00 0.000000000000000D+00 0.145450361331270D+03
 0.145455980412286D+03 0.000000000000000D+00 0.000000000000000D+00 -.145455980412286D+03
 0.157175797938766D+03 -.547124721097021D+02 0.446710552453292D+02 0.639552474516485D+02
 0.132532939164038D+03 0.556674208029575D+02 -.453937573241472D+02 -.639552474516485D+02
 0.119760464075150D+01 -.954948693255408D+00 0.722702078818008D+00 -.561908101516805D-02
0.162448674027D-03 0.000000000000D+00 0.000000000000D+00 0.149416545403D-02 0.000000000000D+00  5 -1 1 25 23 21 0 0.31335456D-02 0.15848678D+00 0.16853160D+05 0.16853160D+05 0.16853160D+05 0.12420961D+01  1  2  2  2  5  2        1 0.849546902411D-01 0.100000000000D+01
-.889318041612D-05 0.000000000000D+00 -.623845681983D-06 0.149416545403D-02 0.000000000000D+00  5 -1 1 25 23 21 2 0.31335456D-02 0.15848678D+00 0.16853160D+05 0.16853160D+05 0.16853160D+05 0.12420961D+01  1  2  3  2  5  2        1 -.717527766001D-02 0.100000000000D+01
0.112222449395D-04 0.000000000000D+00 0.000000000000D+00 0.149416545403D-02 0.000000000000D+00  5 -1 1 25 23 21 2 0.31335456D-02 0.15848678D+00 0.16853160D+05 0.16853160D+05 0.16853160D+05 0.12420961D+01  1  2 15  2  5  2        1 0.905443493124D-02 0.100000000000D+01
-.293713448891D-02 0.000000000000D+00 0.000000000000D+00 0.149416545403D-02 0.000000000000D+00  5 -1 1 25 23 21 2 0.31335456D-02 0.15848678D+00 0.16853160D+05 0.16853160D+05 0.16853160D+05 0.12420961D+01  1  2  4  2  5  2        1 -.236976587640D+01 0.100000000000D+01
-.291042127723D-01 0.000000000000D+00 -.291681738993D-02 0.149416545403D-02 0.000000000000D+00  5 -1 1 25 23 21 2 0.31335456D-02 0.15962151D+00 0.16853160D+05 0.16853160D+05 0.16853160D+05 0.12420961D+01  1  2  5  2  5  2        1 -.231965317162D+02 0.100000000000D+01
0.291243550754D-01 0.000000000000D+00 0.291674316248D-02 0.149416545403D-02 0.000000000000D+00  5 -1 1 25 23 21 2 0.31335456D-02 0.15848678D+00 0.16853160D+05 0.16853160D+05 0.16853160D+05 0.12420961D+01  1  2  6  2  5  2        1 0.234983801696D+02 0.100000000000D+01
0.293718260387D-02 0.000000000000D+00 0.000000000000D+00 0.149416545403D-02 0.856602133958D-02  5 -1 1 25 23 21 2 0.31464652D-02 0.15914637D+00 0.17011178D+05 0.17011178D+05 0.17011178D+05 0.12416409D+01  1  2 11  2  5  2        1 0.233767341537D+01 0.100000000000D+01
0.176624781544D-09 0.000000000000D+00 0.000000000000D+00 0.149416545403D-02 0.000000000000D+00  5 -1 21 25 23 -1 2 0.31335456D-02 0.15947174D+00 0.17011178D+05 0.17011178D+05 0.17011178D+05 0.12416409D+01  1  2 12  4  5  2        1 0.218343043724D-06 0.100000000000D+01
-.384632902064D-04 0.000000000000D+00 -.386031172512D-05 0.149416545403D-02 0.000000000000D+00  5 -1 21 25 23 -1 2 0.31335456D-02 0.15962151D+00 0.16853160D+05 0.16853160D+05 0.16853160D+05 0.12420961D+01  1  2  5  4  5  2        1 -.474729602766D-01 0.100000000000D+01
0.451618062599D-05 0.000000000000D+00 0.000000000000D+00 0.149416545403D-02 0.663166844571D-05  5 -1 21 25 23 -1 2 0.31464652D-02 0.15914637D+00 0.17011178D+05 0.17011178D+05 0.17011178D+05 0.12416409D+01  1  2 11  4  5  2        1 0.557963404700D-02 0.100000000000D+01
  </mgrwgt>
  </event>
  <event>
  4     66 0.43907321E-03 0.55766440E+02 0.75467711E-02 0.11967143E+00
       -1 -1    0    0    0  501 0.00000000E+00 0.00000000E+00 0.36907736E+03 0.36907749E+03 0.32000000E+00 0.0000E+00 0.9000E+01
        1 -1    0    0  501    0 0.00000000E+00 0.00000000E+00 -.39266298E+02 0.39267602E+02 0.32000000E+00 0.0000E+00 0.9000E+01
       25  1    1    2    0    0 -.25964225E+02 -.43800907E+02 0.20716809E+03 0.24725752E+03 0.12500000E+03 0.0000E+00 0.9000E+01
       23  1    1    2    0    0 0.25964225E+02 0.43800907E+02 0.12264296E+03 0.16108758E+03 0.91188000E+02 0.0000E+00 0.9000E+01
#aMCatNLO 1  0  0  1  2 0.59486863D+02 0.00000000D+00  -5  5  0 0.00000000D+00 0.00000000D+00 0.00000000D+00 0.00000000D+00 0.00000000D+00
  <mgrwgt>
 0.1360988212D+00    9    2    0
 0.120385198379971D+03 0.000000000000000D+00 0.000000000000000D+00 0.120385198379971D+03
 0.120385198379971D+03 0.000000000000000D+00 0.000000000000000D+00 -.120385198379971D+03
 0.135565114088811D+03 -.259642252492097D+02 -.438009066401045D+02 0.126585837527574D+02
 0.105205282671130D+03 0.259642252492097D+02 0.438009066401045D+02 -.126585837527574D+02
 0.000000000000000D+00 -.000000000000000D+00 -.000000000000000D+00 0.000000000000000D+00
 0.167621975842276D+03 0.000000000000000D+00 0.000000000000000D+00 0.167621975842276D+03
 0.144287901693395D+03 0.000000000000000D+00 0.000000000000000D+00 -.144287901693395D+03
 0.127228270854273D+03 -.143411079188286D+02 -.140044916224504D+02 0.126585837527574D+02
 0.120781952268875D+03 0.359594393503751D+02 0.694241141741254D+02 -.126585837527574D+02
 0.638996544125226D+02 -.216183314315465D+02 -.554196225516750D+02 0.233340741488815D+02
0.265862956374D-03 0.000000000000D+00 0.000000000000D+00 0.211883351084D-02 0.000000000000D+00  5 -1 1 25 23 21 0 0.56781243D-01 0.60410799D-02 0.14329737D+05 0.14329737D+05 0.14329737D+05 0.12500922D+01  1  2  2  1  5  1       -1 0.104578204387D+00 0.100000000000D+01
-.147695908675D-04 0.000000000000D+00 -.102098375580D-05 0.211883351084D-02 0.000000000000D+00  5 -1 1 25 23 21 2 0.56781243D-01 0.60410799D-02 0.14329737D+05 0.14329737D+05 0.14329737D+05 0.12500922D+01  1  2  3  1  5  1       -1 -.907895546766D-02 0.100000000000D+01
0.184036906364D-04 0.000000000000D+00 0.000000000000D+00 0.211883351084D-02 0.000000000000D+00  5 -1 1 25 23 21 2 0.56781243D-01 0.60410799D-02 0.14329737D+05 0.14329737D+05 0.14329737D+05 0.12500922D+01  1  2 15  1  5  1       -1 0.113128582388D-01 0.100000000000D+01
0.828975656422D-04 0.000000000000D+00 0.000000000000D+00 0.211883351084D-02 0.000000000000D+00  5 -1 1 25 23 21 2 0.82918171D-01 0.60410799D-02 0.23439704D+05 0.23439704D+05 0.23439704D+05 0.12263097D+01  1  2 12  1  5  1       -1 0.236038264597D-01 0.100000000000D+01
-.126211164624D-03 0.000000000000D+00 0.000000000000D+00 0.211883351084D-02 0.000000000000D+00  5 -1 1 25 23 21 2 0.56781243D-01 0.60410799D-02 0.14329737D+05 0.14329737D+05 0.14329737D+05 0.12500922D+01  1  2  4  1  5  1       -1 -.775827545543D-01 0.100000000000D+01
-.185794589806D-03 0.000000000000D+00 -.896760925720D-04 0.211883351084D-02 0.000000000000D+00  5 -1 1 25 23 21 2 0.91623525D-01 0.60410799D-02 0.14329737D+05 0.14329737D+05 0.14329737D+05 0.12500922D+01  1  2  5  1  5  1       -1 -.441212938877D-01 0.100000000000D+01
0.213198091062D-03 0.000000000000D+00 0.803064749256D-04 0.211883351084D-02 0.000000000000D+00  5 -1 1 25 23 21 2 0.56781243D-01 0.60410799D-02 0.14329737D+05 0.14329737D+05 0.14329737D+05 0.12500922D+01  1  2  6  1  5  1       -1 0.131054136294D+00 0.100000000000D+01
0.379094637999D-05 0.000000000000D+00 0.000000000000D+00 0.211883351084D-02 0.000000000000D+00  5 21 1 25 23 1 2 0.82918171D-01 0.60410799D-02 0.23439704D+05 0.23439704D+05 0.23439704D+05 0.12263097D+01  1  2 12  3  5  1       -1 0.979842292351D-02 0.100000000000D+01
-.627571495540D-05 0.000000000000D+00 -.488467931108D-05 0.211883351084D-02 0.000000000000D+00  5 21 1 25 23 1 2 0.91623525D-01 0.60410799D-02 0.14329737D+05 0.14329737D+05 0.14329737D+05 0.12500922D+01  1  2  5  3  5  1       -1 -.134656231598D-01 0.100000000000D+01
  </mgrwgt>
  </event>
  <event>
  4     66 0.43907321E-03 0.10844336E+03 0.75467711E-02 0.11821625E+00
       -1 -1    0    0    0  501 0.00000000E+00 0.00000000E+00 0.23270518E+02 0.23272718E+02 0.32000000E+00 0.0000E+00 0.9000E+01
        1 -1    0    0  501    0 0.00000000E+00 0.00000000E+00 -.52265453E+03 0.52265463E+03 0.32000000E+00 0.0000E+00 0.9000E+01
       25  1    1    2    0    0 0.81384971E+01 0.27523555E+01 -.33631620E+03 0.35889748E+03 0.12500000E+03 0.0000E+00 0.9000E+01
       23  1    1    2    0    0 -.81384971E+01 -.27523555E+01 -.16306781E+03 0.18702987E+03 0.91188000E+02 0.0000E+00 0.9000E+01
#aMCatNLO 1  0  0  1  2 0.95052459D+02 0.00000000D+00  -5  5  0 0.00000000D+00 0.00000000D+00 0.00000000D+00 0.00000000D+00 0.00000000D+00
  <mgrwgt>
 0.1866230509D+00    3    2    0
 0.110286305529927D+03 0.000000000000000D+00 0.000000000000000D+00 0.110286305529927D+03
 0.110286305529927D+03 0.000000000000000D+00 0.000000000000000D+00 -.110286305529927D+03
 0.126856242796564D+03 0.813849714165994D+01 0.275235547603294D+01 -.198417675641415D+02
 0.937163682632904D+02 -.813849714165994D+01 -.275235547603294D+01 0.198417675641415D+02
 0.000000000000000D+00 0.000000000000000D+00 -.000000000000000D+00 -.000000000000000D+00
 0.150907134439274D+03 0.000000000000000D+00 0.000000000000000D+00 0.150907134439274D+03
 0.193387884372809D+03 0.000000000000000D+00 0.000000000000000D+00 -.193387884372809D+03
 0.138025955247107D+03 -.108690401112918D+02 0.539845584298510D+02 -.198417675641415D+02
 0.102155740067990D+03 -.221939769867313D+02 0.351322576883670D+02 0.198417675641415D+02
 0.104113323496986D+03 0.330630170980231D+02 -.891168161182180D+02 -.424807499335349D+02
0.158551178056D-03 0.000000000000D+00 0.000000000000D+00 0.234160510382D-02 0.000000000000D+00  5 -1 1 25 23 21 0 0.35802565D-02 0.80408567D-01 0.11759962D+05 0.11759962D+05 0.11759962D+05 0.12600539D+01  1  2  2  1  5  1       -1 0.182801162589D+00 0.100000000000D+01
-.880535741021D-05 0.000000000000D+00 -.608878271217D-06 0.234160510382D-02 0.000000000000D+00  5 -1 1 25 23 21 2 0.35802565D-02 0.80408567D-01 0.11759962D+05 0.11759962D+05 0.11759962D+05 0.12600539D+01  1  2  3  1  5  1       -1 -.161188736723D-01 0.100000000000D+01
0.108931641400D-04 0.000000000000D+00 0.000000000000D+00 0.234160510382D-02 0.000000000000D+00  5 -1 1 25 23 21 2 0.35802565D-02 0.80408567D-01 0.11759962D+05 0.11759962D+05 0.11759962D+05 0.12600539D+01  1  2 15  1  5  1       -1 0.199407620253D-01 0.100000000000D+01
  </mgrwgt>
  </event>
  <event>
  5     66 0.43907321E-03 0.12047764E+03 0.75467711E-02 0.11481996E+00
       -3 -1    0    0    0  501 0.00000000E+00 0.00000000E+00 0.46208334E+03 0.46208361E+03 0.50000000E+00 0.0000E+00 0.9000E+01
       21 -1    0    0  501  502 0.00000000E+00 0.00000000E+00 -.12007349E+03 0.12007583E+03 0.75000000E+00 0.0000E+00 0.9000E+01
       25  1    1    2    0    0 0.24985215E+02 0.11402600E+03 0.27357405E+03 0.32263595E+03 0.12500000E+03 0.0000E+00 0.9000E+01
       23  1    1    2    0    0 0.43438211E+02 -.15855313E+01 -.17230572E+02 0.10247700E+03 0.91188000E+02 0.0000E+00 0.9000E+01
       -3  1    1    2    0  502 -.68423426E+02 -.11244047E+03 0.85666365E+02 0.15704649E+03 0.50000000E+00 0.0000E+00 0.9000E+01
#aMCatNLO 2  0  0  2  2 0.13162304D+03 0.00000000D+00  -5  5  0 0.00000000D+00 0.00000000D+00 0.00000000D+00 0.00000000D+00 0.00000000D+00
  <mgrwgt>
 0.1067774656D-01    1    2    0
 0.156272528502426D+03 0.000000000000000D+00 0.000000000000000D+00 0.156272528502426D+03
 0.156272528502426D+03 0.000000000000000D+00 0.000000000000000D+00 -.156272528502426D+03
 0.167966440295577D+03 -.134027670341686D+02 0.509428883554009D+02 0.990601485331241D+02
 0.144578616709276D+03 0.134027670341686D+02 -.509428883554009D+02 -.990601485331241D+02
 0.000000000000000D+00 -.000000000000000D+00 -.000000000000000D+00 -.000000000000000D+00
 0.229958016323529D+03 0.000000000000000D+00 0.000000000000000D+00 0.229958016323529D+03
 0.241280984907699D+03 0.000000000000000D+00 0.000000000000000D+00 -.241280984907699D+03
 0.197646410250846D+03 0.249852153342056D+02 0.114026003491942D+03 0.990601485331241D+02
 0.141483413985817D+03 0.434382107396414D+02 -.158553127246089D+01 -.990601485331241D+02
 0.132109176994565D+03 -.684234260738470D+02 -.112440472219482D+03 -.113229685841705D+02
0.290782888405D-04 0.000000000000D+00 0.000000000000D+00 0.111268114313D-02 0.648060032489D-07  5 -3 21 25 23 -3 2 0.71089802D-01 0.18473009D-01 0.40737543D+05 0.40737543D+05 0.40737543D+05 0.12011953D+01  1  2  1  4  5  2        3 0.106777465564D-01 0.100000000000D+01
  </mgrwgt>
  </event>
  <event>
  4     66 0.43907321E-03 0.11861824E+03 0.75467711E-02 0.11515140E+00
       -1 -1    0    0    0  501 0.00000000E+00 0.00000000E+00 0.27878526E+03 0.27878544E+03 0.32000000E+00 0.0000E+00 0.9000E+01
        1 -1    0    0  501    0 0.00000000E+00 0.00000000E+00 -.74345115E+02 0.74345803E+02 0.32000000E+00 0.0000E+00 0.9000E+01
       25  1    1    2    0    0 -.35332607E+02 -.33001717E+02 0.11748264E+02 0.13453820E+03 0.12500000E+03 0.0000E+00 0.9000E+01
       23  1    1    2    0    0 0.35332607E+02 0.33001717E+02 0.19269188E+03 0.21859304E+03 0.91188000E+02 0.0000E+00 0.9000E+01
#aMCatNLO 1  0  0  1  2 0.12893452D+03 0.00000000D+00  -5  5  0 0.00000000D+00 0.00000000D+00 0.00000000D+00 0.00000000D+00 0.00000000D+00
  <mgrwgt>
 0.1730913196D+00    3    2    0
 0.143966926484868D+03 0.000000000000000D+00 0.000000000000000D+00 0.143966926484868D+03
 0.143966926484868D+03 0.000000000000000D+00 0.000000000000000D+00 -.143966926484868D+03
 0.156660377742175D+03 -.353326065555584D+02 -.330017169254316D+02 -.811169991326405D+02
 0.131273475227561D+03 0.353326065555584D+02 0.330017169254316D+02 0.811169991326405D+02
 0.000000000000000D+00 0.000000000000000D+00 0.000000000000000D+00 -.000000000000000D+00
 0.169912894442005D+03 0.000000000000000D+00 0.000000000000000D+00 0.169912894442005D+03
 0.499211412264703D+03 0.000000000000000D+00 0.000000000000000D+00 -.499211412264703D+03
 0.193053387096794D+03 -.969912680534899D+02 -.752152686802076D+02 -.811169991326405D+02
 0.122430390311821D+03 -.939837729122410D+01 0.237741117851640D+01 0.811169991326405D+02
 0.353640529298094D+03 0.106389645344714D+03 0.728378575016912D+02 -.329298517822698D+03
0.604518190627D-03 0.000000000000D+00 0.000000000000D+00 0.132506552435D-02 0.000000000000D+00  5 -1 1 25 23 21 0 0.42890107D-01 0.11437777D-01 0.14070286D+05 0.14070286D+05 0.14070286D+05 0.12510029D+01  1  2  2  1  5  1       -1 0.168936096439D+00 0.100000000000D+01
-.320526988948D-04 0.000000000000D+00 -.232150902530D-05 0.132506552435D-02 0.000000000000D+00  5 -1 1 25 23 21 2 0.42890107D-01 0.11437777D-01 0.14070286D+05 0.14070286D+05 0.14070286D+05 0.12510029D+01  1  2  3  1  5  1       -1 -.140182673607D-01 0.100000000000D+01
0.415535960776D-04 0.000000000000D+00 0.000000000000D+00 0.132506552435D-02 0.000000000000D+00  5 -1 1 25 23 21 2 0.42890107D-01 0.11437777D-01 0.14070286D+05 0.14070286D+05 0.14070286D+05 0.12510029D+01  1  2 15  1  5  1       -1 0.181734905235D-01 0.100000000000D+01
  </mgrwgt>
  </event>
  <event>
  4     66 0.43907321E-03 0.77920812E+02 0.75467711E-02 0.11832756E+00
       -1 -1    0    0    0  501 0.00000000E+00 0.00000000E+00 0.36489382E+02 0.36490786E+02 0.32000000E+00 0.0000E+00 0.9000E+01
        1 -1    0    0  501    0 0.00000000E+00 0.00000000E+00 -.72102846E+03 0.72102853E+03 0.32000000E+00 0.0000E+00 0.9000E+01
       25  1    1    2    0    0 -.11500822E+03 0.57052889E+00 -.44826963E+03 0.47937238E+03 0.12500000E+03 0.0000E+00 0.9000E+01
       23  1    1    2    0    0 0.11500822E+03 -.57052889E+00 -.23626944E+03 0.27814694E+03 0.91188000E+02 0.0000E+00 0.9000E+01
#aMCatNLO 1  0  0  1  2 0.12935880D+02 0.00000000D+00  -5  5  0 0.00000000D+00 0.00000000D+00 0.00000000D+00 0.00000000D+00 0.00000000D+00
  <mgrwgt>
 0.5087129853D-01    9    2    0
 0.162204936433358D+03 0.000000000000000D+00 0.000000000000000D+00 0.162204936433358D+03
 0.162204936433358D+03 0.000000000000000D+00 0.000000000000000D+00 -.162204936433358D+03
 0.173471160533453D+03 -.115008218442286D+03 0.570528891133793D+00 -.352140273802766D+02
 0.150938712333262D+03 0.115008218442286D+03 -.570528891133793D+00 0.352140273802766D+02
 0.000000000000000D+00 0.000000000000000D+00 -.000000000000000D+00 0.000000000000000D+00
 0.177694238115494D+03 0.000000000000000D+00 0.000000000000000D+00 0.177694238115494D+03
 0.165057353371230D+03 0.000000000000000D+00 0.000000000000000D+00 -.165057353371230D+03
 0.178000957270416D+03 -.121706403718269D+03 0.261999213958197D+01 -.352140273802766D+02
 0.146666722985506D+03 0.109336598293980D+03 0.116483323669392D+01 0.352140273802766D+02
 0.180839112308012D+02 0.123698054242893D+02 -.378482537627589D+01 0.126368847442643D+02
0.254328882657D-03 0.000000000000D+00 0.000000000000D+00 0.156805066708D-02 0.000000000000D+00  5 -1 1 25 23 21 0 0.56138645D-02 0.11092757D+00 0.25064102D+05 0.25064102D+05 0.25064102D+05 0.12231784D+01  1  2  2  1  5  1       -1 0.993906223093D-01 0.100000000000D+01
-.141192676983D-04 0.000000000000D+00 -.976689875736D-06 0.156805066708D-02 0.000000000000D+00  5 -1 1 25 23 21 2 0.56138645D-02 0.11092757D+00 0.25064102D+05 0.25064102D+05 0.25064102D+05 0.12231784D+01  1  2  3  1  5  1       -1 -.825546468105D-02 0.100000000000D+01
0.175529628696D-04 0.000000000000D+00 0.000000000000D+00 0.156805066708D-02 0.000000000000D+00  5 -1 1 25 23 21 2 0.56138645D-02 0.11092757D+00 0.25064102D+05 0.25064102D+05 0.25064102D+05 0.12231784D+01  1  2 15  1  5  1       -1 0.102631289465D-01 0.100000000000D+01
0.101357987636D-02 0.000000000000D+00 0.000000000000D+00 0.156805066708D-02 0.000000000000D+00  5 -1 1 25 23 21 2 0.61962651D-02 0.11092757D+00 0.27191265D+05 0.27191265D+05 0.27191265D+05 0.12194048D+01  1  2 12  1  5  1       -1 0.508883938066D+00 0.100000000000D+01
-.102919768397D-02 0.000000000000D+00 0.000000000000D+00 0.156805066708D-02 0.000000000000D+00  5 -1 1 25 23 21 2 0.56138645D-02 0.11092757D+00 0.25064102D+05 0.25064102D+05 0.25064102D+05 0.12231784D+01  1  2  4  1  5  1       -1 -.601766700041D+00 0.100000000000D+01
-.205824302212D-02 0.000000000000D+00 -.301914771687D-03 0.156805066708D-02 0.000000000000D+00  5 -1 1 25 23 21 2 0.62557638D-02 0.11092757D+00 0.25064102D+05 0.25064102D+05 0.25064102D+05 0.12231784D+01  1  2  5  1  5  1       -1 -.102364732122D+01 0.100000000000D+01
0.208048559971D-02 0.000000000000D+00 0.300153989682D-03 0.156805066708D-02 0.000000000000D+00  5 -1 1 25 23 21 2 0.56138645D-02 0.11092757D+00 0.25064102D+05 0.25064102D+05 0.25064102D+05 0.12231784D+01  1  2  6  1  5  1       -1 0.121644944729D+01 0.100000000000D+01
0.162787064336D-04 0.000000000000D+00 0.000000000000D+00 0.156805066708D-02 0.000000000000D+00  5 21 1 25 23 1 2 0.61962651D-02 0.11092757D+00 0.27191265D+05 0.27191265D+05 0.27191265D+05 0.12194048D+01  1  2 12  3  5  1       -1 0.135970762305D+00 0.100000000000D+01
-.346359713758D-04 0.000000000000D+00 -.524994427810D-05 0.156805066708D-02 0.000000000000D+00  5 21 1 25 23 1 2 0.62557638D-02 0.11092757D+00 0.25064102D+05 0.25064102D+05 0.25064102D+05 0.12231784D+01  1  2  5  3  5  1       -1 -.286417114443D+00 0.100000000000D+01
  </mgrwgt>
  </event>
  <event>
  4     66 0.43907321E-03 0.49535588E+02 0.75467711E-02 0.12413378E+00
       -1 -1    0    0    0  501 0.00000000E+00 0.00000000E+00 0.13355081E+02 0.13358914E+02 0.32000000E+00 0.0000E+00 0.9000E+01
        1 -1    0    0  501    0 0.00000000E+00 0.00000000E+00 -.10461898E+04 0.10461898E+04 0.32000000E+00 0.0000E+00 0.9000E+01
       25  1    1    2    0    0 -.28945891E+02 -.28455328E+02 -.69329532E+03 0.70564224E+03 0.12500000E+03 0.0000E+00 0.9000E+01
       23  1    1    2    0    0 0.28945891E+02 0.28455328E+02 -.33953936E+03 0.35390648E+03 0.91188000E+02 0.0000E+00 0.9000E+01
#aMCatNLO 1  0  0  1  2 0.10672847D+02 0.00000000D+00  -5  5  0 0.00000000D+00 0.00000000D+00 0.00000000D+00 0.00000000D+00 0.00000000D+00
  <mgrwgt>
 0.2561939410D-01    9    2    0
 0.118211696011307D+03 0.000000000000000D+00 0.000000000000000D+00 0.118211696011307D+03
 0.118211696011307D+03 0.000000000000000D+00 0.000000000000000D+00 -.118211696011307D+03
 0.133670717628129D+03 -.289458912647185D+02 -.284553277280328D+02 -.243985748354360D+02
 0.102752674394485D+03 0.289458912647185D+02 0.284553277280328D+02 0.243985748354360D+02
 0.000000000000000D+00 -.000000000000000D+00 0.000000000000000D+00 0.000000000000000D+00
 0.127188105701024D+03 0.000000000000000D+00 0.000000000000000D+00 0.127188105701024D+03
 0.121547685202152D+03 0.000000000000000D+00 0.000000000000000D+00 -.121547685202152D+03
 0.134797173305002D+03 -.277078213225735D+02 -.343840677432833D+02 -.243985748354360D+02
 0.101866997944347D+03 0.298895179495103D+02 0.239365868272640D+02 0.243985748354360D+02
 0.120716196538273D+02 -.218169662693673D+01 0.104474809160192D+02 0.564042049887208D+01
0.124953677381D-03 0.000000000000D+00 0.000000000000D+00 0.211563967113D-02 0.000000000000D+00  5 -1 1 25 23 21 0 0.20549264D-02 0.16095257D+00 0.13367879D+05 0.13367879D+05 0.13367879D+05 0.12535665D+01  1  2  2  1  5  1       -1 0.116473753851D+00 0.100000000000D+01
-.693772171363D-05 0.000000000000D+00 -.479855022202D-06 0.211563967113D-02 0.000000000000D+00  5 -1 1 25 23 21 2 0.20549264D-02 0.16095257D+00 0.13367879D+05 0.13367879D+05 0.13367879D+05 0.12535665D+01  1  2  3  1  5  1       -1 -.101622687685D-01 0.100000000000D+01
0.865263951614D-05 0.000000000000D+00 0.000000000000D+00 0.211563967113D-02 0.000000000000D+00  5 -1 1 25 23 21 2 0.20549264D-02 0.16095257D+00 0.13367879D+05 0.13367879D+05 0.13367879D+05 0.12535665D+01  1  2 15  1  5  1       -1 0.126742541644D-01 0.100000000000D+01
0.325671609491D-03 0.000000000000D+00 0.000000000000D+00 0.211563967113D-02 0.000000000000D+00  5 -1 1 25 23 21 2 0.22383907D-02 0.16095257D+00 0.14658608D+05 0.14658608D+05 0.14658608D+05 0.12489640D+01  1  2 12  1  5  1       -1 0.419788720330D+00 0.100000000000D+01
-.317795065866D-03 0.000000000000D+00 0.000000000000D+00 0.211563967113D-02 0.000000000000D+00  5 -1 1 25 23 21 2 0.20549264D-02 0.16095257D+00 0.13367879D+05 0.13367879D+05 0.13367879D+05 0.12535665D+01  1  2  4  1  5  1       -1 -.465501357067D+00 0.100000000000D+01
-.888869979099D-03 0.000000000000D+00 -.157590873339D-03 0.211563967113D-02 0.000000000000D+00  5 -1 1 25 23 21 2 0.22753189D-02 0.16095257D+00 0.13367879D+05 0.13367879D+05 0.13367879D+05 0.12535665D+01  1  2  5  1  5  1       -1 -.112447794364D+01 0.100000000000D+01
0.901059355522D-03 0.000000000000D+00 0.156776532680D-03 0.211563967113D-02 0.000000000000D+00  5 -1 1 25 23 21 2 0.20549264D-02 0.16095257D+00 0.13367879D+05 0.13367879D+05 0.13367879D+05 0.12535665D+01  1  2  6  1  5  1       -1 0.131985797718D+01 0.100000000000D+01
0.462210278581D-05 0.000000000000D+00 0.000000000000D+00 0.211563967113D-02 0.000000000000D+00  5 21 1 25 23 1 2 0.22383907D-02 0.16095257D+00 0.14658608D+05 0.14658608D+05 0.14658608D+05 0.12489640D+01  1  2 12  3  5  1       -1 0.121747305000D+00 0.100000000000D+01
-.141330262421D-04 0.000000000000D+00 -.260110518629D-05 0.211563967113D-02 0.000000000000D+00  5 21 1 25 23 1 2 0.22753189D-02 0.16095257D+00 0.13367879D+05 0.13367879D+05 0.13367879D+05 0.12535665D+01  1  2  5  3  5  1       -1 -.364781046952D+00 0.100000000000D+01
  </mgrwgt>
  </event>
  <event>
  4     66 0.43907321E-03 0.24114590E+03 0.75467711E-02 0.10045917E+00
       -3 -1    0    0    0  501 0.00000000E+00 0.00000000E+00 0.23114329E+03 0.23114383E+03 0.50000000E+00 0.0000E+00 0.9000E+01
        3 -1    0    0  501    0 0.00000000E+00 0.00000000E+00 -.25271632E+03 0.25271681E+03 0.50000000E+00 0.0000E+00 0.9000E+01
       25  1    1    2    0    0 0.21492009E+03 -.69285668E+01 -.27336583E+02 0.25022178E+03 0.12500000E+03 0.0000E+00 0.9000E+01
       23  1    1    2    0    0 -.21492009E+03 0.69285668E+01 0.57635575E+01 0.23363887E+03 0.91188000E+02 0.0000E+00 0.9000E+01
#aMCatNLO 1  0  0  1  1 0.42865355D+03 0.00000000D+00  -5  5  0 0.00000000D+00 0.00000000D+00 0.00000000D+00 0.00000000D+00 0.00000000D+00
  <mgrwgt>
 0.2261802747D-01    5    2    0
 0.241689742529058D+03 0.000000000000000D+00 0.000000000000000D+00 0.241689742529058D+03
 0.241689742529058D+03 0.000000000000000D+00 0.000000000000000D+00 -.241689742529058D+03
 0.249250829503116D+03 0.214920088292237D+03 -.692856676023438D+01 -.161965002113893D+02
 0.234128655554999D+03 -.214920088292237D+03 0.692856676023438D+01 0.161965002113893D+02
 0.000000000000000D+00 -.000000000000000D+00 -.000000000000000D+00 0.000000000000000D+00
 0.184670718894335D+04 0.000000000000000D+00 0.000000000000000D+00 0.184670718894335D+04
 0.353180491581225D+03 0.000000000000000D+00 0.000000000000000D+00 -.353180491581225D+03
 0.483575653483384D+03 0.439733885725793D+03 0.156818990454854D+03 -.161965002113893D+02
 0.162489044030538D+03 -.932471776602282D+02 0.955514276463849D+02 0.161965002113893D+02
 0.155382298301065D+04 -.346486708065564D+03 -.252370418101239D+03 0.149352669736212D+04
0.182523092661D-02 0.000000000000D+00 0.000000000000D+00 0.135624460651D-02 0.000000000000D+00  5 -3 3 25 23 21 0 0.35560586D-01 0.38879513D-01 0.58151347D+05 0.58151347D+05 0.58151347D+05 0.11858401D+01  1  2  2  1  5  1       -3 0.231766786007D-01 0.100000000000D+01
-.101401092498D-03 0.000000000000D+00 -.700936735251D-05 0.135624460651D-02 0.000000000000D+00  5 -3 3 25 23 21 2 0.35560586D-01 0.38879513D-01 0.58151347D+05 0.58151347D+05 0.58151347D+05 0.11858401D+01  1  2  3  1  5  1       -3 -.181062411351D-02 0.100000000000D+01
0.125660445879D-03 0.000000000000D+00 0.000000000000D+00 0.135624460651D-02 0.000000000000D+00  5 -3 3 25 23 21 2 0.35560586D-01 0.38879513D-01 0.58151347D+05 0.58151347D+05 0.58151347D+05 0.11858401D+01  1  2 15  1  5  1       -3 0.224380061216D-02 0.100000000000D+01
-.207833422746D-02 0.000000000000D+00 -.109024955257D-02 0.135624460651D-02 0.000000000000D+00  5 -3 3 25 23 21 2 0.31716125D+00 0.38879513D-01 0.58151347D+05 0.58151347D+05 0.58151347D+05 0.11858401D+01  1  2  5  1  5  1       -3 -.167389766630D-03 0.100000000000D+01
-.699491996070D-03 0.000000000000D+00 -.287119826790D-03 0.135624460651D-02 0.000000000000D+00  5 21 3 25 23 3 2 0.31716125D+00 0.38879513D-01 0.58151347D+05 0.58151347D+05 0.58151347D+05 0.11858401D+01  1  2  5  3  5  1       -3 -.824437858058D-03 0.100000000000D+01
  </mgrwgt>
  </event>
  <event>
  4     66 0.43907321E-03 0.69055693E+02 0.75467711E-02 0.12446959E+00
       -1 -1    0    0    0  501 0.00000000E+00 0.00000000E+00 0.21822506E+02 0.21824852E+02 0.32000000E+00 0.0000E+00 0.9000E+01
        1 -1    0    0  501    0 0.00000000E+00 0.00000000E+00 -.61072874E+03 0.61072883E+03 0.32000000E+00 0.0000E+00 0.9000E+01
       25  1    1    2    0    0 -.23604820E+02 0.32269383E+02 -.32601969E+03 0.35144322E+03 0.12500000E+03 0.0000E+00 0.9000E+01
       23  1    1    2    0    0 0.23604820E+02 -.32269383E+02 -.26288655E+03 0.28111046E+03 0.91188000E+02 0.0000E+00 0.9000E+01
#aMCatNLO 1  0  0  2  1 0.71549593D+01 0.00000000D+00  -5  5  0 0.00000000D+00 0.00000000D+00 0.00000000D+00 0.00000000D+00 0.00000000D+00
  <mgrwgt>
 0.2493882106D+00   11    2    0
 0.115448690706852D+03 0.000000000000000D+00 0.000000000000000D+00 0.115448690706852D+03
 0.115448690706852D+03 0.000000000000000D+00 0.000000000000000D+00 -.115448690706852D+03
 0.131277689310572D+03 -.236048200944256D+02 0.322693827147239D+02 0.321420569401944D+01
 0.996196921031328D+02 0.236048200944256D+02 -.322693827147239D+02 -.321420569401944D+01
 0.000000000000000D+00 0.000000000000000D+00 0.000000000000000D+00 -.000000000000000D+00
 0.118660996122859D+03 0.000000000000000D+00 0.000000000000000D+00 0.118660996122859D+03
 0.119558210312276D+03 0.000000000000000D+00 0.000000000000000D+00 -.119558210312276D+03
 0.131760787584441D+03 -.275142404378098D+02 0.311213849267526D+02 0.321420569401944D+01
 0.992474247927550D+02 0.206491492678595D+02 -.331373128099389D+02 -.321420569401944D+01
 0.721099405793878D+01 0.686509116995028D+01 0.201592788318631D+01 -.897214189416869D+00
0.812904880433D-04 0.000000000000D+00 0.000000000000D+00 0.225009040864D-02 0.000000000000D+00  5 -1 1 25 23 21 0 0.33574955D-02 0.93958455D-01 0.13317871D+05 0.13317871D+05 0.13317871D+05 0.12537548D+01  1  2  2  2  5  2        1 0.840338949544D-01 0.100000000000D+01
-.451613736726D-05 0.000000000000D+00 -.312176878363D-06 0.225009040864D-02 0.000000000000D+00  5 -1 1 25 23 21 2 0.33574955D-02 0.93958455D-01 0.13317871D+05 0.13317871D+05 0.13317871D+05 0.12537548D+01  1  2  3  2  5  2        1 -.733849681974D-02 0.100000000000D+01
0.562098450652D-05 0.000000000000D+00 0.000000000000D+00 0.225009040864D-02 0.000000000000D+00  5 -1 1 25 23 21 2 0.33574955D-02 0.93958455D-01 0.13317871D+05 0.13317871D+05 0.13317871D+05 0.12537548D+01  1  2 15  2  5  2        1 0.913381803307D-02 0.100000000000D+01
0.196127161259D-03 0.000000000000D+00 0.000000000000D+00 0.225009040864D-02 0.000000000000D+00  5 -1 1 25 23 21 2 0.33574955D-02 0.98568960D-01 0.14169557D+05 0.14169557D+05 0.14169557D+05 0.12506522D+01  1  2 12  2  5  2        1 0.297626752742D+00 0.100000000000D+01
-.171533362665D-03 0.000000000000D+00 0.000000000000D+00 0.225009040864D-02 0.000000000000D+00  5 -1 1 25 23 21 2 0.33574955D-02 0.93958455D-01 0.13317871D+05 0.13317871D+05 0.13317871D+05 0.12537548D+01  1  2  4  2  5  2        1 -.278733115056D+00 0.100000000000D+01
-.124498124018D-02 0.000000000000D+00 -.201802883604D-03 0.225009040864D-02 0.000000000000D+00  5 -1 1 25 23 21 2 0.33574955D-02 0.99474107D-01 0.13317871D+05 0.13317871D+05 0.13317871D+05 0.12537548D+01  1  2  5  2  5  2        1 -.187084841231D+01 0.100000000000D+01
0.125477877806D-02 0.000000000000D+00 0.201474985495D-03 0.225009040864D-02 0.000000000000D+00  5 -1 1 25 23 21 2 0.33574955D-02 0.93958455D-01 0.13317871D+05 0.13317871D+05 0.13317871D+05 0.12537548D+01  1  2  6  2  5  2        1 0.203895261004D+01 0.100000000000D+01
0.780542963229D-05 0.000000000000D+00 0.000000000000D+00 0.225009040864D-02 0.367013631622D-03  5 -1 1 25 23 21 2 0.34509163D-02 0.97303007D-01 0.14169557D+05 0.14169557D+05 0.14169557D+05 0.12506522D+01  1  2 11  2  5  2        1 0.115853786946D-01 0.100000000000D+01
0.234070181034D-05 0.000000000000D+00 0.000000000000D+00 0.225009040864D-02 0.000000000000D+00  5 -1 21 25 23 -1 2 0.33574955D-02 0.98568960D-01 0.14169557D+05 0.14169557D+05 0.14169557D+05 0.12506522D+01  1  2 12  4  5  2        1 0.872362908202D-02 0.100000000000D+01
-.120189188155D-04 0.000000000000D+00 -.198531328702D-05 0.225009040864D-02 0.000000000000D+00  5 -1 21 25 23 -1 2 0.33574955D-02 0.99474107D-01 0.13317871D+05 0.13317871D+05 0.13317871D+05 0.12537548D+01  1  2  5  4  5  2        1 -.440571356135D-01 0.100000000000D+01
0.838175790466D-07 0.000000000000D+00 0.000000000000D+00 0.225009040864D-02 0.232521678466D-05  5 -1 21 25 23 -1 2 0.34509163D-02 0.97303007D-01 0.14169557D+05 0.14169557D+05 0.14169557D+05 0.12506522D+01  1  2 11  4  5  2        1 0.309286860449D-03 0.100000000000D+01
  </mgrwgt>
  </event>
  <event>
  5     66 0.43907321E-03 0.11250679E+03 0.75467711E-02 0.11826924E+00
       21 -1    0    0  502  501 0.00000000E+00 0.00000000E+00 0.46472240E+03 0.46472300E+03 0.75000000E+00 0.0000E+00 0.9000E+01
        1 -1    0    0  501    0 0.00000000E+00 0.00000000E+00 -.34165107E+03 0.34165122E+03 0.32000000E+00 0.0000E+00 0.9000E+01
       25  1    1    2    0    0 -.13753830E+01 0.49328205E+02 -.12010573E+03 0.18023748E+03 0.12500000E+03 0.0000E+00 0.9000E+01
       23  1    1    2    0    0 0.51915432E+02 0.23795321E+02 -.17127104E+03 0.20226332E+03 0.91188000E+02 0.0000E+00 0.9000E+01
        1  1    1    2  502    0 -.50540049E+02 -.73123526E+02 0.41444810E+03 0.42387342E+03 0.32000000E+00 0.0000E+00 0.9000E+01
#aMCatNLO 2  0  0  1  2 0.88889519D+02 0.00000000D+00  -5  5  0 0.00000000D+00 0.00000000D+00 0.00000000D+00 0.00000000D+00 0.00000000D+00
  <mgrwgt>
 0.2413383908D+00    2    2    0
 0.115655840287103D+03 0.000000000000000D+00 0.000000000000000D+00 0.115655840287103D+03
 0.115655840287103D+03 0.000000000000000D+00 0.000000000000000D+00 -.115655840287103D+03
 0.131456487789759D+03 -.296921216883072D+02 0.835832413667623D+01 0.265391128203673D+02
 0.998551927844475D+02 0.296921216883072D+02 -.835832413667623D+01 -.265391128203673D+02
 0.000000000000000D+00 -.000000000000000D+00 -.000000000000000D+00 0.000000000000000D+00
 0.126376965635501D+04 0.000000000000000D+00 0.000000000000000D+00 0.126376965635501D+04
 0.125634566462187D+03 0.000000000000000D+00 0.000000000000000D+00 -.125634566462187D+03
 0.136983531924030D+03 -.137538298754993D+01 0.493282052250759D+02 0.265391128203673D+02
 0.110819696898306D+03 0.519154317905711D+02 0.237953211648583D+02 -.265391128203673D+02
 0.114160099399486D+04 -.505400488030212D+02 -.731235263899343D+02 0.113813508989283D+04
-.862808423760D-04 0.000000000000D+00 0.000000000000D+00 0.215960191364D-02 0.000000000000D+00  5 21 1 25 23 1 2 0.67269088D-01 0.48386951D-01 0.27369171D+05 0.27369171D+05 0.27369171D+05 0.12191042D+01  1  2 13  3  5  1       -1 -.237001471516D-01 0.100000000000D+01
0.122301090050D-02 0.000000000000D+00 0.000000000000D+00 0.215960191364D-02 0.366968254427D-05  5 21 1 25 23 1 2 0.71495799D-01 0.52561752D-01 0.27369171D+05 0.27369171D+05 0.27369171D+05 0.12191042D+01  1  2  1  3  5  1       -1 0.265038537966D+00 0.100000000000D+01
  </mgrwgt>
  </event>
  <event>
  4     66 0.43907321E-03 0.66791525E+02 0.75467711E-02 0.11987996E+00
       -1 -1    0    0    0  501 0.00000000E+00 0.00000000E+00 0.51229061E+02 0.51230060E+02 0.32000000E+00 0.0000E+00 0.9000E+01
        1 -1    0    0  501    0 0.00000000E+00 0.00000000E+00 -.37709512E+03 0.37709525E+03 0.32000000E+00 0.0000E+00 0.9000E+01
       25  1    1    2    0    0 -.34600568E+02 0.77685917E+02 -.15215544E+03 0.21449611E+03 0.12500000E+03 0.0000E+00 0.9000E+01
       23  1    1    2    0    0 0.34600568E+02 -.77685917E+02 -.17371061E+03 0.21382920E+03 0.91188000E+02 0.0000E+00 0.9000E+01
#aMCatNLO 1  0  0  2  1 0.25670736D+02 0.00000000D+00  -5  5  0 0.00000000D+00 0.00000000D+00 0.00000000D+00 0.00000000D+00 0.00000000D+00
  <mgrwgt>
 0.2065843702D+00    9    2    0
 0.138990905658627D+03 0.000000000000000D+00 0.000000000000000D+00 0.138990905658627D+03
 0.138990905658627D+03 0.000000000000000D+00 0.000000000000000D+00 -.138990905658627D+03
 0.152138795841373D+03 -.346005683821539D+02 0.776859172562247D+02 0.169974153256824D+02
 0.125843015475881D+03 0.346005683821539D+02 -.776859172562247D+02 -.169974153256824D+02
 0.000000000000000D+00 0.000000000000000D+00 0.000000000000000D+00 -.000000000000000D+00
 0.146794383570880D+03 0.000000000000000D+00 0.000000000000000D+00 0.146794383570880D+03
 0.162425446705100D+03 0.000000000000000D+00 0.000000000000000D+00 -.162425446705100D+03
 0.152347666196408D+03 -.470775571450466D+02 0.712713328133647D+02 0.169974153256824D+02
 0.126816934227719D+03 0.242472826163857D+02 -.830086779854074D+02 -.169974153256824D+02
 0.300552298518522D+02 0.228302745286609D+02 0.117373451720427D+02 -.156310631342200D+02
0.223279711261D-03 0.000000000000D+00 0.000000000000D+00 0.181792183244D-02 0.000000000000D+00  5 -1 1 25 23 21 0 0.78814813D-02 0.58014721D-01 0.19026911D+05 0.19026911D+05 0.19026911D+05 0.12362180D+01  1  2  2  2  5  2        1 0.123474823510D+00 0.100000000000D+01
-.124035564206D-04 0.000000000000D+00 -.857452882141D-06 0.181792183244D-02 0.000000000000D+00  5 -1 1 25 23 21 2 0.78814813D-02 0.58014721D-01 0.19026911D+05 0.19026911D+05 0.19026911D+05 0.12362180D+01  1  2  3  2  5  2        1 -.104825146365D-01 0.100000000000D+01
0.154186289458D-04 0.000000000000D+00 0.000000000000D+00 0.181792183244D-02 0.000000000000D+00  5 -1 1 25 23 21 2 0.78814813D-02 0.58014721D-01 0.19026911D+05 0.19026911D+05 0.19026911D+05 0.12362180D+01  1  2 15  2  5  2        1 0.130306178421D-01 0.100000000000D+01
0.382429340308D-03 0.000000000000D+00 0.000000000000D+00 0.181792183244D-02 0.000000000000D+00  5 -1 1 25 23 21 2 0.78814813D-02 0.69224390D-01 0.22912864D+05 0.22912864D+05 0.22912864D+05 0.12273777D+01  1  2 12  2  5  2        1 0.255890054988D+00 0.100000000000D+01
-.381841478250D-03 0.000000000000D+00 0.000000000000D+00 0.181792183244D-02 0.000000000000D+00  5 -1 1 25 23 21 2 0.78814813D-02 0.58014721D-01 0.19026911D+05 0.19026911D+05 0.19026911D+05 0.12362180D+01  1  2  4  2  5  2        1 -.322702517638D+00 0.100000000000D+01
-.798514071446D-03 0.000000000000D+00 -.180294504158D-03 0.181792183244D-02 0.000000000000D+00  5 -1 1 25 23 21 2 0.78814813D-02 0.70789151D-01 0.19026911D+05 0.19026911D+05 0.19026911D+05 0.12362180D+01  1  2  5  2  5  2        1 -.524315769530D+00 0.100000000000D+01
0.821583558550D-03 0.000000000000D+00 0.176782243102D-03 0.181792183244D-02 0.000000000000D+00  5 -1 1 25 23 21 2 0.78814813D-02 0.58014721D-01 0.19026911D+05 0.19026911D+05 0.19026911D+05 0.12362180D+01  1  2  6  2  5  2        1 0.694338090271D+00 0.100000000000D+01
0.993899150354D-05 0.000000000000D+00 0.000000000000D+00 0.181792183244D-02 0.000000000000D+00  5 -1 21 25 23 -1 2 0.78814813D-02 0.69224390D-01 0.22912864D+05 0.22912864D+05 0.22912864D+05 0.12273777D+01  1  2 12  4  5  2        1 0.223512088808D-01 0.100000000000D+01
-.207052884789D-04 0.000000000000D+00 -.513982612996D-05 0.181792183244D-02 0.000000000000D+00  5 -1 21 25 23 -1 2 0.78814813D-02 0.70789151D-01 0.19026911D+05 0.19026911D+05 0.19026911D+05 0.12362180D+01  1  2  5  4  5  2        1 -.449996235059D-01 0.100000000000D+01
  </mgrwgt>
  </event>
  <event>
  4     66 0.43907321E-03 0.10337992E+03 0.75467711E-02 0.11516450E+00
       -3 -1    0    0    0  501 0.00000000E+00 0.00000000E+00 0.25309962E+03 0.25310011E+03 0.50000000E+00 0.0000E+00 0.9000E+01
        3 -1    0    0  501    0 0.00000000E+00 0.00000000E+00 -.15522191E+03 0.15522271E+03 0.50000000E+00 0.0000E+00 0.9000E+01
       25  1    1    2    0    0 -.14617297E+03 0.54800331E+02 -.55031800E+01 0.20006223E+03 0.12500000E+03 0.0000E+00 0.9000E+01
       23  1    1    2    0    0 0.14617297E+03 -.54800331E+02 0.10338089E+03 0.20826059E+03 0.91188000E+02 0.0000E+00 0.9000E+01
#aMCatNLO 1  0  0  1  2 0.14485609D+02 0.00000000D+00  -5  5  0 0.00000000D+00 0.00000000D+00 0.00000000D+00 0.00000000D+00 0.00000000D+00
  <mgrwgt>
 0.1998654170D-01    9    2    0
 0.198209157530778D+03 0.000000000000000D+00 0.000000000000000D+00 0.198209157530778D+03
 0.198209157530778D+03 0.000000000000000D+00 0.000000000000000D+00 -.198209157530778D+03
 0.207428898872528D+03 -.146172966811616D+03 0.548003310346389D+02 -.550648306948614D+02
 0.188989416189028D+03 0.146172966811616D+03 -.548003310346389D+02 0.550648306948614D+02
 0.000000000000000D+00 0.000000000000000D+00 -.000000000000000D+00 0.000000000000000D+00
 0.239424958879793D+03 0.000000000000000D+00 0.000000000000000D+00 0.239424958879793D+03
 0.199618311583382D+03 0.000000000000000D+00 0.000000000000000D+00 -.199618311583382D+03
 0.209994577994780D+03 -.146788600117657D+03 0.623994718186825D+02 -.550648306948614D+02
 0.186688309683689D+03 0.145618901855518D+03 -.479611662857820D+02 0.550648306948614D+02
 0.423603827847053D+02 0.116969826213945D+01 -.144383055329005D+02 0.398066472964117D+02
0.800221088353D-03 0.000000000000D+00 0.000000000000D+00 0.136364204071D-02 0.000000000000D+00  5 -3 3 25 23 21 0 0.38938502D-01 0.23880393D-01 0.36247607D+05 0.36247607D+05 0.36247607D+05 0.12063690D+01  1  2  2  1  5  1       -3 0.207643168890D-01 0.100000000000D+01
-.443691210714D-04 0.000000000000D+00 -.307305968233D-05 0.136364204071D-02 0.000000000000D+00  5 -3 3 25 23 21 2 0.38938502D-01 0.23880393D-01 0.36247607D+05 0.36247607D+05 0.36247607D+05 0.12063690D+01  1  2  3  1  5  1       -3 -.167551696224D-02 0.100000000000D+01
0.551874448171D-04 0.000000000000D+00 0.000000000000D+00 0.136364204071D-02 0.000000000000D+00  5 -3 3 25 23 21 2 0.38938502D-01 0.23880393D-01 0.36247607D+05 0.36247607D+05 0.36247607D+05 0.12063690D+01  1  2 15  1  5  1       -3 0.208405074658D-02 0.100000000000D+01
0.768037348769D-02 0.000000000000D+00 0.000000000000D+00 0.136364204071D-02 0.000000000000D+00  5 -3 3 25 23 21 2 0.47155057D-01 0.23880393D-01 0.39107984D+05 0.39107984D+05 0.39107984D+05 0.12029962D+01  1  2 12  1  5  1       -3 0.198893650920D+00 0.100000000000D+01
-.765246218688D-02 0.000000000000D+00 0.000000000000D+00 0.136364204071D-02 0.000000000000D+00  5 -3 3 25 23 21 2 0.38938502D-01 0.23880393D-01 0.36247607D+05 0.36247607D+05 0.36247607D+05 0.12063690D+01  1  2  4  1  5  1       -3 -.288980937359D+00 0.100000000000D+01
-.892755751070D-02 0.000000000000D+00 -.544034441530D-03 0.136364204071D-02 0.000000000000D+00  5 -3 3 25 23 21 2 0.47218960D-01 0.23880393D-01 0.36247607D+05 0.36247607D+05 0.36247607D+05 0.12063690D+01  1  2  5  1  5  1       -3 -.230971424676D+00 0.100000000000D+01
0.887689462383D-02 0.000000000000D+00 0.534076119514D-03 0.136364204071D-02 0.000000000000D+00  5 -3 3 25 23 21 2 0.38938502D-01 0.23880393D-01 0.36247607D+05 0.36247607D+05 0.36247607D+05 0.12063690D+01  1  2  6  1  5  1       -3 0.335219340728D+00 0.100000000000D+01
0.212522065149D-03 0.000000000000D+00 0.000000000000D+00 0.136364204071D-02 0.000000000000D+00  5 21 3 25 23 3 2 0.47155057D-01 0.23880393D-01 0.39107984D+05 0.39107984D+05 0.39107984D+05 0.12029962D+01  1  2 12  3  5  1       -3 0.106533292703D+00 0.100000000000D+01
-.242499988325D-03 0.000000000000D+00 -.151360911449D-04 0.136364204071D-02 0.000000000000D+00  5 21 3 25 23 3 2 0.47218960D-01 0.23880393D-01 0.36247607D+05 0.36247607D+05 0.36247607D+05 0.12063690D+01  1  2  5  3  5  1       -3 -.121880231288D+00 0.100000000000D+01
  </mgrwgt>
  </event>
  <event>
  4     66 0.43907321E-03 0.63161927E+02 0.75467711E-02 0.11868790E+00
       -1 -1    0    0    0  501 0.00000000E+00 0.00000000E+00 0.54056366E+03 0.54056375E+03 0.32000000E+00 0.0000E+00 0.9000E+01
        1 -1    0    0  501    0 0.00000000E+00 0.00000000E+00 -.80606687E+02 0.80607322E+02 0.32000000E+00 0.0000E+00 0.9000E+01
       25  1    1    2    0    0 -.18073527E+01 0.36274510E+02 0.49887850E+03 0.51558110E+03 0.12500000E+03 0.0000E+00 0.9000E+01
       23  1    1    2    0    0 0.18073527E+01 -.36274510E+02 -.38921531E+02 0.10558998E+03 0.91188000E+02 0.0000E+00 0.9000E+01
#aMCatNLO 1  0  0  1  2 0.79948687D+02 0.00000000D+00  -5  5  0 0.00000000D+00 0.00000000D+00 0.00000000D+00 0.00000000D+00 0.00000000D+00
  <mgrwgt>
 0.2254731993D-01    7    2    0
 0.208742119042419D+03 0.000000000000000D+00 0.000000000000000D+00 0.208742119042419D+03
 0.208742119042419D+03 0.000000000000000D+00 0.000000000000000D+00 -.208742119042419D+03
 0.217496639559808D+03 -.180735274408148D+01 0.362745095726724D+02 0.174243168161996D+03
 0.199987598525031D+03 0.180735274408148D+01 -.362745095726724D+02 -.174243168161996D+03
 0.000000000000000D+00 0.000000000000000D+00 0.000000000000000D+00 0.000000000000000D+00
 0.617837722907670D+03 0.000000000000000D+00 0.000000000000000D+00 0.617837722907670D+03
 0.216477827648512D+03 0.000000000000000D+00 0.000000000000000D+00 -.216477827648512D+03
 0.215021380569640D+03 -.155827371525168D+02 -.238553008369642D+01 0.174243168161996D+03
 0.210049062474283D+03 -.112520167247936D+02 -.729250832760620D+02 -.174243168161996D+03
 0.409245107512259D+03 0.268347538773105D+02 0.753106133597584D+02 0.401359895259157D+03
0.796415240455D-03 0.000000000000D+00 0.000000000000D+00 0.532398725370D-03 0.000000000000D+00  5 -1 1 25 23 21 0 0.83163696D-01 0.12401085D-01 0.13032996D+05 0.13032996D+05 0.13032996D+05 0.12548426D+01  1  2  2  1  5  1       -1 0.569086181935D-01 0.100000000000D+01
-.246535033126D-04 0.000000000000D+00 -.305844422430D-05 0.532398725370D-03 0.000000000000D+00  5 -1 1 25 23 21 2 0.83163696D-01 0.12401085D-01 0.13032996D+05 0.13032996D+05 0.13032996D+05 0.12548426D+01  1  2  3  1  5  1       -1 -.277393084644D-02 0.100000000000D+01
0.545491310693D-04 0.000000000000D+00 0.000000000000D+00 0.532398725370D-03 0.000000000000D+00  5 -1 1 25 23 21 2 0.83163696D-01 0.12401085D-01 0.13032996D+05 0.13032996D+05 0.13032996D+05 0.12548426D+01  1  2 15  1  5  1       -1 0.613768823851D-02 0.100000000000D+01
0.811548111653D-03 0.000000000000D+00 0.000000000000D+00 0.532398725370D-03 0.000000000000D+00  5 -1 1 25 23 21 2 0.24405865D+00 0.12401085D-01 0.26121272D+05 0.26121272D+05 0.26121272D+05 0.12212600D+01  1  2 12  1  5  1       -1 0.518831940937D-02 0.100000000000D+01
-.353708483025D-02 0.000000000000D+00 -.221984114151D-03 0.532398725370D-03 0.000000000000D+00  5 -1 1 25 23 21 2 0.24827784D+00 0.12401085D-01 0.13032996D+05 0.13032996D+05 0.13032996D+05 0.12548426D+01  1  2  5  1  5  1       -1 -.229036985778D-01 0.100000000000D+01
0.989956331012D-04 0.000000000000D+00 0.000000000000D+00 0.532398725370D-03 0.000000000000D+00  5 21 1 25 23 1 2 0.24405865D+00 0.12401085D-01 0.26121272D+05 0.26121272D+05 0.26121272D+05 0.12212600D+01  1  2 12  3  5  1       -1 0.560788267926D-02 0.100000000000D+01
-.428565379740D-03 0.000000000000D+00 -.275993357805D-04 0.532398725370D-03 0.000000000000D+00  5 21 1 25 23 1 2 0.24827784D+00 0.12401085D-01 0.13032996D+05 0.13032996D+05 0.13032996D+05 0.12548426D+01  1  2  5  3  5  1       -1 -.256175591710D-01 0.100000000000D+01
  </mgrwgt>
  </event>
  <event>
  4     66 0.43907321E-03 0.66943371E+02 0.75467711E-02 0.11893380E+00
       -1 -1    0    0    0  501 0.00000000E+00 0.00000000E+00 0.75181189E+01 0.75249260E+01 0.32000000E+00 0.0000E+00 0.9000E+01
        1 -1    0    0  501    0 0.00000000E+00 0.00000000E+00 -.29878282E+04 0.29878282E+04 0.32000000E+00 0.0000E+00 0.9000E+01
       25  1    1    2    0    0 0.92616049E+02 -.43711286E+02 -.17389323E+04 0.17464247E+04 0.12500000E+03 0.0000E+00 0.9000E+01
       23  1    1    2    0    0 -.92616049E+02 0.43711286E+02 -.12413777E+04 0.12489285E+04 0.91188000E+02 0.0000E+00 0.9000E+01
#aMCatNLO 1  0  0  1  2 0.19505159D+02 0.00000000D+00  -5  5  0 0.00000000D+00 0.00000000D+00 0.00000000D+00 0.00000000D+00 0.00000000D+00
  <mgrwgt>
 0.1172641504D+00    9    2    0
 0.149910200024178D+03 0.000000000000000D+00 0.000000000000000D+00 0.149910200024178D+03
 0.149910200024178D+03 0.000000000000000D+00 0.000000000000000D+00 -.149910200024178D+03
 0.162100412322643D+03 0.926160487963214D+02 -.437112862608191D+02 -.127724169190085D+02
 0.137719987725714D+03 -.926160487963214D+02 0.437112862608191D+02 0.127724169190085D+02
 0.000000000000000D+00 0.000000000000000D+00 0.000000000000000D+00 0.000000000000000D+00
 0.161051932723646D+03 0.000000000000000D+00 0.000000000000000D+00 0.161051932723646D+03
 0.159013633707259D+03 0.000000000000000D+00 0.000000000000000D+00 -.159013633707259D+03
 0.160079972128548D+03 0.850803755558468D+02 -.509783536219021D+02 -.127724169190085D+02
 0.140374223212913D+03 -.991205636731997D+02 0.374386220604187D+02 0.127724169190085D+02
 0.196113710894443D+02 0.140401881173529D+02 0.135397315614834D+02 0.203829901638713D+01
0.126499087590D-02 0.000000000000D+00 0.000000000000D+00 0.171734885887D-02 0.000000000000D+00  5 -1 1 25 23 21 0 0.11571586D-02 0.45966640D+00 0.22308839D+05 0.22308839D+05 0.22308839D+05 0.12286365D+01  1  2  2  1  5  1       -1 0.144469716808D+00 0.100000000000D+01
-.702761216917D-04 0.000000000000D+00 -.485789804322D-05 0.171734885887D-02 0.000000000000D+00  5 -1 1 25 23 21 2 0.11571586D-02 0.45966640D+00 0.22308839D+05 0.22308839D+05 0.22308839D+05 0.12286365D+01  1  2  3  1  5  1       -1 -.121155751949D-01 0.100000000000D+01
0.874724789242D-04 0.000000000000D+00 0.000000000000D+00 0.171734885887D-02 0.000000000000D+00  5 -1 1 25 23 21 2 0.11571586D-02 0.45966640D+00 0.22308839D+05 0.22308839D+05 0.22308839D+05 0.12286365D+01  1  2 15  1  5  1       -1 0.150802202851D-01 0.100000000000D+01
0.141918053658D-02 0.000000000000D+00 0.000000000000D+00 0.171734885887D-02 0.000000000000D+00  5 -1 1 25 23 21 2 0.12759601D-02 0.45966640D+00 0.25418996D+05 0.25418996D+05 0.25418996D+05 0.12225245D+01  1  2 12  1  5  1       -1 0.210167882320D+00 0.100000000000D+01
-.118646768236D-02 0.000000000000D+00 0.000000000000D+00 0.171734885887D-02 0.000000000000D+00  5 -1 1 25 23 21 2 0.11571586D-02 0.45966640D+00 0.22308839D+05 0.22308839D+05 0.22308839D+05 0.12286365D+01  1  2  4  1  5  1       -1 -.204546552599D+00 0.100000000000D+01
-.418339779496D-02 0.000000000000D+00 -.103914463751D-02 0.171734885887D-02 0.000000000000D+00  5 -1 1 25 23 21 2 0.13614243D-02 0.45966640D+00 0.22308839D+05 0.22308839D+05 0.22308839D+05 0.12286365D+01  1  2  5  1  5  1       -1 -.571248552591D+00 0.100000000000D+01
0.430884588593D-02 0.000000000000D+00 0.102556347394D-02 0.171734885887D-02 0.000000000000D+00  5 -1 1 25 23 21 2 0.11571586D-02 0.45966640D+00 0.22308839D+05 0.22308839D+05 0.22308839D+05 0.12286365D+01  1  2  6  1  5  1       -1 0.742843302642D+00 0.100000000000D+01
0.225976087333D-04 0.000000000000D+00 0.000000000000D+00 0.171734885887D-02 0.000000000000D+00  5 21 1 25 23 1 2 0.12759601D-02 0.45966640D+00 0.25418996D+05 0.25418996D+05 0.25418996D+05 0.12225245D+01  1  2 12  3  5  1       -1 0.745481292642D-01 0.100000000000D+01
-.934721322658D-04 0.000000000000D+00 -.252866567104D-04 0.171734885887D-02 0.000000000000D+00  5 21 1 25 23 1 2 0.13614243D-02 0.45966640D+00 0.22308839D+05 0.22308839D+05 0.22308839D+05 0.12286365D+01  1  2  5  3  5  1       -1 -.281934420534D+00 0.100000000000D+01
  </mgrwgt>
  </event>
  <event>
  4     66 0.43907321E-03 0.51013355E+02 0.75467711E-02 0.12155177E+00
       -1 -1    0    0    0  501 0.00000000E+00 0.00000000E+00 0.73908102E+03 0.73908108E+03 0.32000000E+00 0.0000E+00 0.9000E+01
        1 -1    0    0  501    0 0.00000000E+00 0.00000000E+00 -.19842817E+02 0.19845397E+02 0.32000000E+00 0.0000E+00 0.9000E+01
       25  1    1    2    0    0 0.17403023E+02 -.50668633E+02 0.38143397E+03 0.40495314E+03 0.12500000E+03 0.0000E+00 0.9000E+01
       23  1    1    2    0    0 -.17403023E+02 0.50668633E+02 0.33780423E+03 0.35397334E+03 0.91188000E+02 0.0000E+00 0.9000E+01
#aMCatNLO 1  0  0  2  1 0.32799823D+02 0.00000000D+00  -5  5  0 0.00000000D+00 0.00000000D+00 0.00000000D+00 0.00000000D+00 0.00000000D+00
  <mgrwgt>
 0.1418112204D+00    9    2    0
 0.121105138766368D+03 0.000000000000000D+00 0.000000000000000D+00 0.121105138766368D+03
 0.121105138766368D+03 0.000000000000000D+00 0.000000000000000D+00 -.121105138766368D+03
 0.136194813594497D+03 0.174030227347112D+02 -.506686328237975D+02 -.733837158381585D+01
 0.106015463938238D+03 -.174030227347112D+02 0.506686328237975D+02 0.733837158381585D+01
 0.000000000000000D+00 -.000000000000000D+00 -.000000000000000D+00 -.000000000000000D+00
 0.137231382901626D+03 0.000000000000000D+00 0.000000000000000D+00 0.137231382901626D+03
 0.140116094116383D+03 0.000000000000000D+00 0.000000000000000D+00 -.140116094116383D+03
 0.138816498612799D+03 0.357587917977184D+02 -.480882251573356D+02 -.733837158381585D+01
 0.105604545792706D+03 -.327833820244530D+01 0.526542453104390D+02 0.733837158381585D+01
 0.329264326125041D+02 -.324804535952731D+02 -.456602015310332D+01 -.288471121475653D+01
0.416465220576D-03 0.000000000000D+00 0.000000000000D+00 0.211553616328D-02 0.000000000000D+00  5 -1 1 25 23 21 0 0.11370498D+00 0.30529449D-02 0.14611750D+05 0.14611750D+05 0.14611750D+05 0.12491230D+01  1  2  2  2  5  2        1 0.999499480868D-01 0.100000000000D+01
-.231368584921D-04 0.000000000000D+00 -.159933610482D-05 0.211553616328D-02 0.000000000000D+00  5 -1 1 25 23 21 2 0.11370498D+00 0.30529449D-02 0.14611750D+05 0.14611750D+05 0.14611750D+05 0.12491230D+01  1  2  3  2  5  2        1 -.866400361345D-02 0.100000000000D+01
0.288633648305D-04 0.000000000000D+00 0.000000000000D+00 0.211553616328D-02 0.000000000000D+00  5 -1 1 25 23 21 2 0.11370498D+00 0.30529449D-02 0.14611750D+05 0.14611750D+05 0.14611750D+05 0.12491230D+01  1  2 15  2  5  2        1 0.108083946346D-01 0.100000000000D+01
0.331276485520D-03 0.000000000000D+00 0.000000000000D+00 0.211553616328D-02 0.000000000000D+00  5 -1 1 25 23 21 2 0.11370498D+00 0.37070746D-02 0.19150614D+05 0.19150614D+05 0.19150614D+05 0.12359064D+01  1  2 12  2  5  2        1 0.935472636558D-01 0.100000000000D+01
-.295506517481D-03 0.000000000000D+00 0.000000000000D+00 0.211553616328D-02 0.000000000000D+00  5 -1 1 25 23 21 2 0.11370498D+00 0.30529449D-02 0.14611750D+05 0.14611750D+05 0.14611750D+05 0.12491230D+01  1  2  4  2  5  2        1 -.110657613095D+00 0.100000000000D+01
-.802741464134D-03 0.000000000000D+00 -.273195027722D-03 0.211553616328D-02 0.000000000000D+00  5 -1 1 25 23 21 2 0.11370498D+00 0.40127077D-02 0.14611750D+05 0.14611750D+05 0.14611750D+05 0.12491230D+01  1  2  5  2  5  2        1 -.206361457768D+00 0.100000000000D+01
0.855169876090D-03 0.000000000000D+00 0.263296151356D-03 0.211553616328D-02 0.000000000000D+00  5 -1 1 25 23 21 2 0.11370498D+00 0.30529449D-02 0.14611750D+05 0.14611750D+05 0.14611750D+05 0.12491230D+01  1  2  6  2  5  2        1 0.320233401570D+00 0.100000000000D+01
0.926557730588D-05 0.000000000000D+00 0.000000000000D+00 0.211553616328D-02 0.000000000000D+00  5 -1 21 25 23 -1 2 0.11370498D+00 0.37070746D-02 0.19150614D+05 0.19150614D+05 0.19150614D+05 0.12359064D+01  1  2 12  4  5  2        1 0.443444723560D-01 0.100000000000D+01
-.237151945299D-04 0.000000000000D+00 -.987152473895D-05 0.211553616328D-02 0.000000000000D+00  5 -1 21 25 23 -1 2 0.11370498D+00 0.40127077D-02 0.14611750D+05 0.14611750D+05 0.14611750D+05 0.12491230D+01  1  2  5  4  5  2        1 -.101389185424D+00 0.100000000000D+01
  </mgrwgt>
  </event>
  <event>
  5     66 0.43907321E-03 0.14996808E+03 0.75467711E-02 0.11765504E+00
       -1 -1    0    0    0  501 0.00000000E+00 0.00000000E+00 0.41865213E+02 0.41866436E+02 0.32000000E+00 0.0000E+00 0.9000E+01
        1 -1    0    0  502    0 0.00000000E+00 0.00000000E+00 -.78041564E+03 0.78041571E+03 0.32000000E+00 0.0000E+00 0.9000E+01
       25  1    1    2    0    0 -.75398154E+02 -.95474328E+02 -.50264249E+03 0.53204765E+03 0.12500000E+03 0.0000E+00 0.9000E+01
       23  1    1    2    0    0 0.70346623E+02 0.55615849E+02 -.16539950E+03 0.20907897E+03 0.91188000E+02 0.0000E+00 0.9000E+01
       21  1    1    2  502  501 0.50515315E+01 0.39858479E+02 -.70508432E+02 0.81155516E+02 0.75000000E+00 0.0000E+00 0.9000E+01
#aMCatNLO 2  0  0  2  2 0.40177311D+02 0.00000000D+00  -5  5  0 0.00000000D+00 0.00000000D+00 0.00000000D+00 0.00000000D+00 0.00000000D+00
  <mgrwgt>
 0.8272322033D-01    1    2    0
 0.159196694813340D+03 0.000000000000000D+00 0.000000000000000D+00 0.159196694813340D+03
 0.159196694813340D+03 0.000000000000000D+00 0.000000000000000D+00 -.159196694813340D+03
 0.170675809792094D+03 -.726084955175055D+02 -.734628726885177D+02 -.532582835174230D+02
 0.147717579834586D+03 0.726084955175055D+02 0.734628726885177D+02 0.532582835174230D+02
 0.000000000000000D+00 0.000000000000000D+00 0.000000000000000D+00 0.000000000000000D+00
 0.183831575211825D+03 0.000000000000000D+00 0.000000000000000D+00 0.183831575211825D+03
 0.177725413383366D+03 0.000000000000000D+00 0.000000000000000D+00 -.177725413383366D+03
 0.182377832546729D+03 -.753981544247876D+02 -.954743282278344D+02 -.532582835174230D+02
 0.138540485543834D+03 0.703466229120449D+02 0.556158491112877D+02 0.532582835174230D+02
 0.406386705046284D+02 0.505153151274265D+01 0.398584791165467D+02 0.610616182845876D+01
0.197201350447D-03 0.000000000000D+00 0.000000000000D+00 0.149817342663D-02 0.741263808060D-05  5 -1 1 25 23 21 2 0.64407775D-02 0.12006174D+00 0.29326592D+05 0.29326592D+05 0.29326592D+05 0.12159346D+01  1  2  1  2  5  2        1 0.827232203275D-01 0.100000000000D+01
  </mgrwgt>
  </event>
  <event>
  4     66 0.43907321E-03 0.74898572E+02 0.75467711E-02 0.12324989E+00
       -1 -1    0    0    0  501 0.00000000E+00 0.00000000E+00 0.10299329E+02 0.10304299E+02 0.32000000E+00 0.0000E+00 0.9000E+01
        1 -1    0    0  501    0 0.00000000E+00 0.00000000E+00 -.12841380E+04 0.12841381E+04 0.32000000E+00 0.0000E+00 0.9000E+01
       25  1    1    2    0    0 0.33645655E+02 -.19445123E+02 -.71880740E+03 0.73062933E+03 0.12500000E+03 0.0000E+00 0.9000E+01
       23  1    1    2    0    0 -.33645655E+02 0.19445123E+02 -.55503131E+03 0.56381304E+03 0.91188000E+02 0.0000E+00 0.9000E+01
#aMCatNLO 1  0  0  1  2 0.22222859D+02 0.00000000D+00  -5  5  0 0.00000000D+00 0.00000000D+00 0.00000000D+00 0.00000000D+00 0.00000000D+00
  <mgrwgt>
 0.1093576477D+00    9    2    0
 0.115017398750108D+03 0.000000000000000D+00 0.000000000000000D+00 0.115017398750108D+03
 0.115017398750108D+03 0.000000000000000D+00 0.000000000000000D+00 -.115017398750108D+03
 0.130905752893557D+03 0.336456548148192D+02 -.194451227062864D+02 0.108316926122279D+01
 0.991290446066588D+02 -.336456548148192D+02 0.194451227062864D+02 -.108316926122279D+01
 0.000000000000000D+00 0.000000000000000D+00 0.000000000000000D+00 0.000000000000000D+00
 0.141898511082005D+03 0.000000000000000D+00 0.000000000000000D+00 0.141898511082005D+03
 0.120239181691805D+03 0.000000000000000D+00 0.000000000000000D+00 -.120239181691805D+03
 0.131697561203548D+03 0.278529810880223D+02 -.306966743446943D+02 0.108316926122279D+01
 0.994081798328161D+02 -.380251173046812D+02 0.109385589540067D+02 -.108316926122279D+01
 0.310319517374453D+02 0.101721362166589D+02 0.197581153906876D+02 0.216593293901991D+02
0.120097125596D-03 0.000000000000D+00 0.000000000000D+00 0.226228525327D-02 0.000000000000D+00  5 -1 1 25 23 21 0 0.15848975D-02 0.19756008D+00 0.13227806D+05 0.13227806D+05 0.13227806D+05 0.12540959D+01  1  2  2  1  5  1       -1 0.111431190350D+00 0.100000000000D+01
-.667206251654D-05 0.000000000000D+00 -.461204584589D-06 0.226228525327D-02 0.000000000000D+00  5 -1 1 25 23 21 2 0.15848975D-02 0.19756008D+00 0.13227806D+05 0.13227806D+05 0.13227806D+05 0.12540959D+01  1  2  3  1  5  1       -1 -.973633989742D-02 0.100000000000D+01
0.831135128829D-05 0.000000000000D+00 0.000000000000D+00 0.226228525327D-02 0.000000000000D+00  5 -1 1 25 23 21 2 0.15848975D-02 0.19756008D+00 0.13227806D+05 0.13227806D+05 0.13227806D+05 0.12540959D+01  1  2 15  1  5  1       -1 0.121285046339D-01 0.100000000000D+01
0.201596059421D-03 0.000000000000D+00 0.000000000000D+00 0.226228525327D-02 0.000000000000D+00  5 -1 1 25 23 21 2 0.19852988D-02 0.19756008D+00 0.16042533D+05 0.16042533D+05 0.16042533D+05 0.12445095D+01  1  2 12  1  5  1       -1 0.210688587689D+00 0.100000000000D+01
-.205333988979D-03 0.000000000000D+00 0.000000000000D+00 0.226228525327D-02 0.000000000000D+00  5 -1 1 25 23 21 2 0.15848975D-02 0.19756008D+00 0.13227806D+05 0.13227806D+05 0.13227806D+05 0.12540959D+01  1  2  4  1  5  1       -1 -.299637706367D+00 0.100000000000D+01
-.324948679352D-03 0.000000000000D+00 -.666869370381D-04 0.226228525327D-02 0.000000000000D+00  5 -1 1 25 23 21 2 0.20482251D-02 0.19756008D+00 0.13227806D+05 0.13227806D+05 0.13227806D+05 0.12540959D+01  1  2  5  1  5  1       -1 -.328338288042D+00 0.100000000000D+01
0.333169019424D-03 0.000000000000D+00 0.645525131421D-04 0.226228525327D-02 0.000000000000D+00  5 -1 1 25 23 21 2 0.15848975D-02 0.19756008D+00 0.13227806D+05 0.13227806D+05 0.13227806D+05 0.12540959D+01  1  2  6  1  5  1       -1 0.486183516471D+00 0.100000000000D+01
0.631353711401D-05 0.000000000000D+00 0.000000000000D+00 0.226228525327D-02 0.000000000000D+00  5 21 1 25 23 1 2 0.19852988D-02 0.19756008D+00 0.16042533D+05 0.16042533D+05 0.16042533D+05 0.12445095D+01  1  2 12  3  5  1       -1 0.137515093344D+00 0.100000000000D+01
-.100405582305D-04 0.000000000000D+00 -.229965730824D-05 0.226228525327D-02 0.000000000000D+00  5 21 1 25 23 1 2 0.20482251D-02 0.19756008D+00 0.13227806D+05 0.13227806D+05 0.13227806D+05 0.12540959D+01  1  2  5  3  5  1       -1 -.210876910507D+00 0.100000000000D+01
  </mgrwgt>
  </event>
  <event>
  4     66 0.43907321E-03 0.10704886E+03 0.75467711E-02 0.11622996E+00
       -1 -1    0    0    0  501 0.00000000E+00 0.00000000E+00 0.18544667E+03 0.18544695E+03 0.32000000E+00 0.0000E+00 0.9000E+01
        1 -1    0    0  501    0 0.00000000E+00 0.00000000E+00 -.23511555E+03 0.23511577E+03 0.32000000E+00 0.0000E+00 0.9000E+01
       25  1    1    2    0    0 0.61119002E+02 -.12038691E+03 0.91043870E+02 0.20528645E+03 0.12500000E+03 0.0000E+00 0.9000E+01
       23  1    1    2    0    0 -.61119002E+02 0.12038691E+03 -.14071275E+03 0.21527627E+03 0.91188000E+02 0.0000E+00 0.9000E+01
#aMCatNLO 1  0  0  1  2 0.23906232D+02 0.00000000D+00  -5  5  0 0.00000000D+00 0.00000000D+00 0.00000000D+00 0.00000000D+00 0.00000000D+00
  <mgrwgt>
 0.1299482921D+00    9    2    0
 0.208809722514661D+03 0.000000000000000D+00 0.000000000000000D+00 0.208809722514661D+03
 0.208809722514661D+03 0.000000000000000D+00 0.000000000000000D+00 -.208809722514661D+03
 0.217561408700498D+03 0.611190016264534D+02 -.120386910188817D+03 0.116100930448986D+03
 0.200058036328824D+03 -.611190016264534D+02 0.120386910188817D+03 -.116100930448986D+03
 0.000000000000000D+00 0.000000000000000D+00 0.000000000000000D+00 0.000000000000000D+00
 0.232601790642506D+03 0.000000000000000D+00 0.000000000000000D+00 0.232601790642506D+03
 0.215244341567430D+03 0.000000000000000D+00 0.000000000000000D+00 -.215244341567430D+03
 0.218634233819204D+03 0.505673626254311D+02 -.127041111391936D+03 0.116100930448986D+03
 0.199668896448728D+03 -.707884569866456D+02 0.114289042219201D+03 -.116100930448986D+03
 0.295430019420034D+02 0.202210943612145D+02 0.127520691727350D+02 0.173574490750760D+02
0.773978248101D-03 0.000000000000D+00 0.000000000000D+00 0.103320867379D-02 0.000000000000D+00  5 -1 1 25 23 21 0 0.28530295D-01 0.36171662D-01 0.30087673D+05 0.30087673D+05 0.30087673D+05 0.12147654D+01  1  2  2  1  5  1       -1 0.102017492438D+00 0.100000000000D+01
-.412000473835D-04 0.000000000000D+00 -.297228026586D-05 0.103320867379D-02 0.000000000000D+00  5 -1 1 25 23 21 2 0.28530295D-01 0.36171662D-01 0.30087673D+05 0.30087673D+05 0.30087673D+05 0.12147654D+01  1  2  3  1  5  1       -1 -.801361433656D-02 0.100000000000D+01
0.532309341388D-04 0.000000000000D+00 0.000000000000D+00 0.103320867379D-02 0.000000000000D+00  5 -1 1 25 23 21 2 0.28530295D-01 0.36171662D-01 0.30087673D+05 0.30087673D+05 0.30087673D+05 0.12147654D+01  1  2 15  1  5  1       -1 0.103536817080D-01 0.100000000000D+01
0.184417864499D-02 0.000000000000D+00 0.000000000000D+00 0.103320867379D-02 0.000000000000D+00  5 -1 1 25 23 21 2 0.32186211D-01 0.36171662D-01 0.34523767D+05 0.34523767D+05 0.34523767D+05 0.12085482D+01  1  2 12  1  5  1       -1 0.289826294794D+00 0.100000000000D+01
-.185089890255D-02 0.000000000000D+00 0.000000000000D+00 0.103320867379D-02 0.000000000000D+00  5 -1 1 25 23 21 2 0.28530295D-01 0.36171662D-01 0.30087673D+05 0.30087673D+05 0.30087673D+05 0.12147654D+01  1  2  4  1  5  1       -1 -.360009051518D+00 0.100000000000D+01
-.383343483232D-02 0.000000000000D+00 -.734459864309D-03 0.103320867379D-02 0.000000000000D+00  5 -1 1 25 23 21 2 0.32635918D-01 0.36171662D-01 0.30087673D+05 0.30087673D+05 0.30087673D+05 0.12147654D+01  1  2  5  1  5  1       -1 -.593755419115D+00 0.100000000000D+01
0.390343673287D-02 0.000000000000D+00 0.727871452600D-03 0.103320867379D-02 0.000000000000D+00  5 -1 1 25 23 21 2 0.28530295D-01 0.36171662D-01 0.30087673D+05 0.30087673D+05 0.30087673D+05 0.12147654D+01  1  2  6  1  5  1       -1 0.759237878374D+00 0.100000000000D+01
0.351310580905D-04 0.000000000000D+00 0.000000000000D+00 0.103320867379D-02 0.000000000000D+00  5 21 1 25 23 1 2 0.32186211D-01 0.36171662D-01 0.34523767D+05 0.34523767D+05 0.34523767D+05 0.12085482D+01  1  2 12  3  5  1       -1 0.619583556510D-01 0.100000000000D+01
-.757774640523D-04 0.000000000000D+00 -.153197363666D-04 0.103320867379D-02 0.000000000000D+00  5 21 1 25 23 1 2 0.32635918D-01 0.36171662D-01 0.30087673D+05 0.30087673D+05 0.30087673D+05 0.12147654D+01  1  2  5  3  5  1       -1 -.131667325905D+00 0.100000000000D+01
  </mgrwgt>
  </event>
  <event>
  4     66 0.43907321E-03 0.70037419E+02 0.75467711E-02 0.10774332E+00
       -1 -1    0    0    0  501 0.00000000E+00 0.00000000E+00 0.19080812E+03 0.19080839E+03 0.32000000E+00 0.0000E+00 0.9000E+01
        1 -1    0    0  501    0 0.00000000E+00 0.00000000E+00 -.30098036E+03 0.30098053E+03 0.32000000E+00 0.0000E+00 0.9000E+01
       25  1    1    2    0    0 0.35214228E+02 0.17982734E+03 -.16895761E+03 0.27883613E+03 0.12500000E+03 0.0000E+00 0.9000E+01
       23  1    1    2    0    0 -.35214228E+02 -.17982734E+03 0.58785372E+02 0.21295278E+03 0.91188000E+02 0.0000E+00 0.9000E+01
#aMCatNLO 1  0  0  1  2 0.17227143D+03 0.00000000D+00  -5  5  0 0.00000000D+00 0.00000000D+00 0.00000000D+00 0.00000000D+00 0.00000000D+00
  <mgrwgt>
 0.1054017445D+00    7    2    0
 0.239644744591840D+03 0.000000000000000D+00 0.000000000000000D+00 0.239644744591840D+03
 0.239644744591840D+03 0.000000000000000D+00 0.000000000000000D+00 -.239644744591840D+03
 0.247270353770595D+03 0.352142284675455D+02 0.179827343952655D+03 -.109268990725660D+03
 0.232019135413085D+03 -.352142284675455D+02 -.179827343952655D+03 0.109268990725660D+03
 0.000000000000000D+00 -.000000000000000D+00 0.000000000000000D+00 0.000000000000000D+00
 0.461903892357428D+03 0.000000000000000D+00 0.000000000000000D+00 0.461903892357428D+03
 0.290453814032046D+03 0.000000000000000D+00 0.000000000000000D+00 -.290453814032046D+03
 0.252570920986183D+03 0.117074694885889D+03 0.150069562573429D+03 -.109268990725660D+03
 0.256738279238237D+03 0.448310017872981D+02 -.208925253683593D+03 0.109268990725660D+03
 0.243048506165055D+03 -.161905696673187D+03 0.588556911101644D+02 0.171450078325382D+03
0.134082159536D-02 0.000000000000D+00 0.000000000000D+00 0.110308021538D-02 0.000000000000D+00  5 -1 1 25 23 21 0 0.29355129D-01 0.46304704D-01 0.45474604D+05 0.45474604D+05 0.45474604D+05 0.11963838D+01  1  2  2  1  5  1       -1 0.124088086554D+00 0.100000000000D+01
-.732565758733D-04 0.000000000000D+00 -.514910797264D-05 0.110308021538D-02 0.000000000000D+00  5 -1 1 25 23 21 2 0.29355129D-01 0.46304704D-01 0.45474604D+05 0.45474604D+05 0.45474604D+05 0.11963838D+01  1  2  3  1  5  1       -1 -.970391024823D-02 0.100000000000D+01
0.922865151720D-04 0.000000000000D+00 0.000000000000D+00 0.110308021538D-02 0.000000000000D+00  5 -1 1 25 23 21 2 0.29355129D-01 0.46304704D-01 0.45474604D+05 0.45474604D+05 0.45474604D+05 0.11963838D+01  1  2 15  1  5  1       -1 0.122247054230D-01 0.100000000000D+01
0.571114713128D-04 0.000000000000D+00 0.000000000000D+00 0.110308021538D-02 0.000000000000D+00  5 -1 1 25 23 21 2 0.57180929D-01 0.46304704D-01 0.99953163D+05 0.99953163D+05 0.99953163D+05 0.11635903D+01  1  2 12  1  5  1       -1 0.215956559681D-02 0.100000000000D+01
-.572970694065D-03 0.000000000000D+00 -.384201302994D-03 0.110308021538D-02 0.000000000000D+00  5 -1 1 25 23 21 2 0.66246026D-01 0.46304704D-01 0.45474604D+05 0.45474604D+05 0.45474604D+05 0.11963838D+01  1  2  5  1  5  1       -1 -.173778754929D-01 0.100000000000D+01
0.412703984210D-05 0.000000000000D+00 0.000000000000D+00 0.110308021538D-02 0.000000000000D+00  5 21 1 25 23 1 2 0.57180929D-01 0.46304704D-01 0.99953163D+05 0.99953163D+05 0.99953163D+05 0.11635903D+01  1  2 12  3  5  1       -1 0.147484357607D-02 0.100000000000D+01
-.263606147266D-04 0.000000000000D+00 -.339658210720D-04 0.110308021538D-02 0.000000000000D+00  5 21 1 25 23 1 2 0.66246026D-01 0.46304704D-01 0.45474604D+05 0.45474604D+05 0.45474604D+05 0.11963838D+01  1  2  5  3  5  1       -1 -.746367092666D-02 0.100000000000D+01
  </mgrwgt>
  </event>
  <event>
  4     66 0.43907321E-03 0.14999618E+03 0.75467711E-02 0.11268412E+00
       -1 -1    0    0    0  501 0.00000000E+00 0.00000000E+00 0.40222017E+03 0.40222030E+03 0.32000000E+00 0.0000E+00 0.9000E+01
        1 -1    0    0  501    0 0.00000000E+00 0.00000000E+00 -.55939458E+02 0.55940374E+02 0.32000000E+00 0.0000E+00 0.9000E+01
       25  1    1    2    0    0 -.58574091E+02 0.85124826E+02 0.18897928E+03 0.24902877E+03 0.12500000E+03 0.0000E+00 0.9000E+01
       23  1    1    2    0    0 0.58574091E+02 -.85124826E+02 0.15730144E+03 0.20913190E+03 0.91188000E+02 0.0000E+00 0.9000E+01
#aMCatNLO 1  0  0  2  2 0.13177136D+03 0.00000000D+00  -5  5  0 0.00000000D+00 0.00000000D+00 0.00000000D+00 0.00000000D+00 0.00000000D+00
  <mgrwgt>
 0.1114565082D+00    3    2    0
 0.150000724537554D+03 0.000000000000000D+00 0.000000000000000D+00 0.150000724537554D+03
 0.150000724537554D+03 0.000000000000000D+00 0.000000000000000D+00 -.150000724537554D+03
 0.162183580117978D+03 -.585740911368807D+02 0.851248264229541D+02 0.116337175263919D+01
 0.137817868957129D+03 0.585740911368807D+02 -.851248264229541D+02 -.116337175263919D+01
 0.000000000000000D+00 -.000000000000000D+00 0.000000000000000D+00 0.000000000000000D+00
 0.252502173267239D+03 0.000000000000000D+00 0.000000000000000D+00 0.252502173267239D+03
 0.212788868111494D+03 0.000000000000000D+00 0.000000000000000D+00 -.212788868111494D+03
 0.133666517989799D+03 -.395531182158694D+02 0.259987583758125D+02 0.116337175263919D+01
 0.193998802112379D+03 0.799074486565190D+02 -.151438865858171D+03 -.116337175263919D+01
 0.137625721276555D+03 -.403543304406496D+02 0.125440107482358D+03 0.397133051557451D+02
0.519923194919D-03 0.000000000000D+00 0.000000000000D+00 0.172679045897D-02 0.000000000000D+00  5 -1 1 25 23 21 0 0.61880107D-01 0.86061507D-02 0.22498855D+05 0.22498855D+05 0.22498855D+05 0.12282364D+01  1  2  2  2  5  2        1 0.109216003816D+00 0.100000000000D+01
-.288846219077D-04 0.000000000000D+00 -.199664196741D-05 0.172679045897D-02 0.000000000000D+00  5 -1 1 25 23 21 2 0.61880107D-01 0.86061507D-02 0.22498855D+05 0.22498855D+05 0.22498855D+05 0.12282364D+01  1  2  3  2  5  2        1 -.915330066366D-02 0.100000000000D+01
0.359548716549D-04 0.000000000000D+00 0.000000000000D+00 0.172679045897D-02 0.000000000000D+00  5 -1 1 25 23 21 2 0.61880107D-01 0.86061507D-02 0.22498855D+05 0.22498855D+05 0.22498855D+05 0.12282364D+01  1  2 15  2  5  2        1 0.113938050369D-01 0.100000000000D+01
  </mgrwgt>
  </event>
  <event>
  5     66 0.43907321E-03 0.12418218E+03 0.75467711E-02 0.11627076E+00
       -1 -1    0    0    0  502 0.00000000E+00 0.00000000E+00 0.42871659E+02 0.42872853E+02 0.32000000E+00 0.0000E+00 0.9000E+01
        1 -1    0    0  501    0 0.00000000E+00 0.00000000E+00 -.98109389E+03 0.98109394E+03 0.32000000E+00 0.0000E+00 0.9000E+01
       25  1    1    2    0    0 0.55414627E+02 -.81338679E+02 -.56314807E+03 0.58519015E+03 0.12500000E+03 0.0000E+00 0.9000E+01
       23  1    1    2    0    0 -.56744107E+02 -.20877774E+02 -.27391470E+03 0.29495812E+03 0.91188000E+02 0.0000E+00 0.9000E+01
       21  1    1    2  501  502 0.13294801E+01 0.10221645E+03 -.10115945E+03 0.14381853E+03 0.75000000E+00 0.0000E+00 0.9000E+01
#aMCatNLO 2  0  0  1  2 0.10222510D+03 0.00000000D+00  -5  5  0 0.00000000D+00 0.00000000D+00 0.00000000D+00 0.00000000D+00 0.00000000D+00
  <mgrwgt>
 0.3174368519D-01    2    2    0
 0.126032648444805D+03 0.000000000000000D+00 0.000000000000000D+00 0.126032648444805D+03
 0.126032648444805D+03 0.000000000000000D+00 0.000000000000000D+00 -.126032648444805D+03
 0.140532360912566D+03 0.561783610608371D+02 -.226193476804080D+02 -.213705714170356D+02
 0.111532935977045D+03 -.561783610608371D+02 0.226193476804080D+02 0.213705714170356D+02
 0.000000000000000D+00 0.000000000000000D+00 0.000000000000000D+00 0.000000000000000D+00
 0.270657816714398D+03 0.000000000000000D+00 0.000000000000000D+00 0.270657816714398D+03
 0.155404006067197D+03 0.000000000000000D+00 0.000000000000000D+00 -.155404006067197D+03
 0.160525583157624D+03 0.554146270201032D+02 -.813386786075814D+02 -.213705714170356D+02
 0.111479719202142D+03 -.567441071559977D+02 -.208777735826046D+02 0.213705714170356D+02
 0.154056520421829D+03 0.132948013589446D+01 0.102216452190186D+03 0.115253810647202D+03
-.613924738603D-05 0.000000000000D+00 0.000000000000D+00 0.198271046144D-02 0.000000000000D+00  5 -1 1 25 23 21 2 0.65835100D-02 0.12240975D+00 0.34360923D+05 0.34360923D+05 0.34360923D+05 0.12087603D+01  1  2 13  1  5  1       -1 -.239602029858D-02 0.100000000000D+01
0.122621904803D-03 0.000000000000D+00 0.000000000000D+00 0.198271046144D-02 0.197710035312D-05  5 -1 1 25 23 21 2 0.65957003D-02 0.15093681D+00 0.34360923D+05 0.34360923D+05 0.34360923D+05 0.12087603D+01  1  2  1  1  5  1       -1 0.341397054903D-01 0.100000000000D+01
  </mgrwgt>
  </event>
  <event>
  4     66 0.43907321E-03 0.12669660E+03 0.75467711E-02 0.10962677E+00
       -1 -1    0    0    0  501 0.00000000E+00 0.00000000E+00 0.20702020E+03 0.20702045E+03 0.32000000E+00 0.0000E+00 0.9000E+01
        1 -1    0    0  501    0 0.00000000E+00 0.00000000E+00 -.87203174E+02 0.87203761E+02 0.32000000E+00 0.0000E+00 0.9000E+01
       25  1    1    2    0    0 -.61503405E+02 -.22522826E+02 0.11466641E+03 0.18183326E+03 0.12500000E+03 0.0000E+00 0.9000E+01
       23  1    1    2    0    0 0.61503405E+02 0.22522826E+02 0.51506130E+01 0.11239095E+03 0.91188000E+02 0.0000E+00 0.9000E+01
#aMCatNLO 1  0  0  1  2 0.22165167D+03 0.00000000D+00  -5  5  0 0.00000000D+00 0.00000000D+00 0.00000000D+00 0.00000000D+00 0.00000000D+00
  <mgrwgt>
 0.1302423317D+00    5    2    0
 0.134361235094417D+03 0.000000000000000D+00 0.000000000000000D+00 0.134361235094417D+03
 0.134361235094417D+03 0.000000000000000D+00 0.000000000000000D+00 -.134361235094417D+03
 0.147962160708980D+03 -.615034046804937D+02 -.225228255176141D+02 0.444730766316051D+02
 0.120760309479854D+03 0.615034046804937D+02 0.225228255176141D+02 -.444730766316051D+02
 0.000000000000000D+00 -.000000000000000D+00 -.000000000000000D+00 0.000000000000000D+00
 0.185121807004324D+04 0.000000000000000D+00 0.000000000000000D+00 0.185121807004324D+04
 0.181494141110101D+03 0.000000000000000D+00 0.000000000000000D+00 -.181494141110101D+03
 0.138344923216150D+03 0.289332459470487D+02 0.264448579797528D+02 0.444730766316051D+02
 0.209995755000385D+03 0.165980283967778D+03 0.790927086593753D+02 -.444730766316051D+02
 0.168437153293681D+04 -.194913529914827D+03 -.105537566639128D+03 0.166972392893314D+04
0.341739768834D-03 0.000000000000D+00 0.000000000000D+00 0.173469124581D-02 0.000000000000D+00  5 -1 1 25 23 21 0 0.31849326D-01 0.13415937D-01 0.16052028D+05 0.16052028D+05 0.16052028D+05 0.12444804D+01  1  2  2  1  5  1       -1 0.130130782925D+00 0.100000000000D+01
-.189059040825D-04 0.000000000000D+00 -.131237069447D-05 0.173469124581D-02 0.000000000000D+00  5 -1 1 25 23 21 2 0.31849326D-01 0.13415937D-01 0.16052028D+05 0.16052028D+05 0.16052028D+05 0.12444804D+01  1  2  3  1  5  1       -1 -.111495693591D-01 0.100000000000D+01
0.236247346635D-04 0.000000000000D+00 0.000000000000D+00 0.173469124581D-02 0.000000000000D+00  5 -1 1 25 23 21 2 0.31849326D-01 0.13415937D-01 0.16052028D+05 0.16052028D+05 0.16052028D+05 0.12444804D+01  1  2 15  1  5  1       -1 0.139324528768D-01 0.100000000000D+01
-.238530216888D-02 0.000000000000D+00 -.317622815028D-03 0.173469124581D-02 0.000000000000D+00  5 -1 1 25 23 21 2 0.46561210D+00 0.13415937D-01 0.16052028D+05 0.16052028D+05 0.16052028D+05 0.12444804D+01  1  2  5  1  5  1       -1 -.552935595962D-03 0.100000000000D+01
-.792883371818D-03 0.000000000000D+00 -.963684409474D-04 0.173469124581D-02 0.000000000000D+00  5 21 1 25 23 1 2 0.46561210D+00 0.13415937D-01 0.16052028D+05 0.16052028D+05 0.16052028D+05 0.12444804D+01  1  2  5  3  5  1       -1 -.211839909903D-02 0.100000000000D+01
  </mgrwgt>
  </event>
  <event>
  4     66 0.43907321E-03 0.67720578E+02 0.75467711E-02 0.12477890E+00
       -1 -1    0    0    0  501 0.00000000E+00 0.00000000E+00 0.46711579E+01 0.46821060E+01 0.32000000E+00 0.0000E+00 0.9000E+01
        1 -1    0    0  501    0 0.00000000E+00 0.00000000E+00 -.27476790E+04 0.27476791E+04 0.32000000E+00 0.0000E+00 0.9000E+01
       25  1    1    2    0    0 -.14895768E+00 -.14368505E+02 -.11956847E+04 0.12022867E+04 0.12500000E+03 0.0000E+00 0.9000E+01
       23  1    1    2    0    0 0.14895768E+00 0.14368505E+02 -.15473232E+04 0.15500744E+04 0.91188000E+02 0.0000E+00 0.9000E+01
#aMCatNLO 1  0  0  1  2 0.15703796D+02 0.00000000D+00  -5  5  0 0.00000000D+00 0.00000000D+00 0.00000000D+00 0.00000000D+00 0.00000000D+00
  <mgrwgt>
 0.8130049211D-01    9    2    0
 0.113357553380082D+03 0.000000000000000D+00 0.000000000000000D+00 0.113357553380082D+03
 0.113357553380082D+03 0.000000000000000D+00 0.000000000000000D+00 -.113357553380082D+03
 0.129478553785522D+03 -.148957681225583D+00 -.143685046723537D+02 0.305486460498659D+02
 0.972365529746413D+02 0.148957681225583D+00 0.143685046723537D+02 -.305486460498659D+02
 0.000000000000000D+00 -.000000000000000D+00 0.000000000000000D+00 0.000000000000000D+00
 0.140189061314597D+03 0.000000000000000D+00 0.000000000000000D+00 0.140189061314597D+03
 0.115950420707332D+03 0.000000000000000D+00 0.000000000000000D+00 -.115950420707332D+03
 0.129990443255465D+03 0.862110149052939D+01 -.162779658238429D+02 0.305486460498659D+02
 0.972678873740924D+02 0.672321306618791D+01 0.129371249049306D+02 -.305486460498659D+02
 0.288811513923725D+02 -.153443145567173D+02 0.334084091891233D+01 0.242386406072654D+02
0.330603252751D-03 0.000000000000D+00 0.000000000000D+00 0.218561889977D-02 0.000000000000D+00  5 -1 1 25 23 21 0 0.71948328D-03 0.42272070D+00 0.11895872D+05 0.11895872D+05 0.11895872D+05 0.12594679D+01  1  2  2  1  5  1       -1 0.108039774331D+00 0.100000000000D+01
-.183336198778D-04 0.000000000000D+00 -.126960354040D-05 0.218561889977D-02 0.000000000000D+00  5 -1 1 25 23 21 2 0.71948328D-03 0.42272070D+00 0.11895872D+05 0.11895872D+05 0.11895872D+05 0.12594679D+01  1  2  3  1  5  1       -1 -.950383754426D-02 0.100000000000D+01
0.227422141943D-04 0.000000000000D+00 0.000000000000D+00 0.218561889977D-02 0.000000000000D+00  5 -1 1 25 23 21 2 0.71948328D-03 0.42272070D+00 0.11895872D+05 0.11895872D+05 0.11895872D+05 0.12594679D+01  1  2 15  1  5  1       -1 0.117891780532D-01 0.100000000000D+01
0.104285324774D-02 0.000000000000D+00 0.000000000000D+00 0.218561889977D-02 0.000000000000D+00  5 -1 1 25 23 21 2 0.89667521D-03 0.42272070D+00 0.13735828D+05 0.13735828D+05 0.13735828D+05 0.12522052D+01  1  2 12  1  5  1       -1 0.391514001703D+00 0.100000000000D+01
-.105025036605D-02 0.000000000000D+00 0.000000000000D+00 0.218561889977D-02 0.000000000000D+00  5 -1 1 25 23 21 2 0.71948328D-03 0.42272070D+00 0.11895872D+05 0.11895872D+05 0.11895872D+05 0.12594679D+01  1  2  4  1  5  1       -1 -.544431973950D+00 0.100000000000D+01
-.140579164013D-02 0.000000000000D+00 -.193277711323D-03 0.218561889977D-02 0.000000000000D+00  5 -1 1 25 23 21 2 0.91564944D-03 0.42272070D+00 0.11895872D+05 0.11895872D+05 0.11895872D+05 0.12594679D+01  1  2  5  1  5  1       -1 -.518255991725D+00 0.100000000000D+01
0.141650549448D-02 0.000000000000D+00 0.187793074748D-03 0.218561889977D-02 0.000000000000D+00  5 -1 1 25 23 21 2 0.71948328D-03 0.42272070D+00 0.11895872D+05 0.11895872D+05 0.11895872D+05 0.12594679D+01  1  2  6  1  5  1       -1 0.734292419600D+00 0.100000000000D+01
0.321033584581D-04 0.000000000000D+00 0.000000000000D+00 0.218561889977D-02 0.000000000000D+00  5 21 1 25 23 1 2 0.89667521D-03 0.42272070D+00 0.13735828D+05 0.13735828D+05 0.13735828D+05 0.12522052D+01  1  2 12  3  5  1       -1 0.286041430842D+00 0.100000000000D+01
-.432661930206D-04 0.000000000000D+00 -.636807018343D-05 0.218561889977D-02 0.000000000000D+00  5 21 1 25 23 1 2 0.91564944D-03 0.42272070D+00 0.11895872D+05 0.11895872D+05 0.11895872D+05 0.12594679D+01  1  2  5  3  5  1       -1 -.378184509195D+00 0.100000000000D+01
  </mgrwgt>
  </event>
  <event>
  4     66 0.43907321E-03 0.12294895E+03 0.75467711E-02 0.10484605E+00
       -1 -1    0    0    0  501 0.00000000E+00 0.00000000E+00 0.11785247E+02 0.11789591E+02 0.32000000E+00 0.0000E+00 0.9000E+01
        1 -1    0    0  501    0 0.00000000E+00 0.00000000E+00 -.14900201E+04 0.14900201E+04 0.32000000E+00 0.0000E+00 0.9000E+01
       25  1    1    2    0    0 -.16343889E+02 0.55678688E+02 -.53750083E+03 0.55488681E+03 0.12500000E+03 0.0000E+00 0.9000E+01
       23  1    1    2    0    0 0.16343889E+02 -.55678688E+02 -.94073404E+03 0.94692292E+03 0.91188000E+02 0.0000E+00 0.9000E+01
#aMCatNLO 1  0  0  2  2 0.34842388D+03 0.00000000D+00  -5  5  0 0.00000000D+00 0.00000000D+00 0.00000000D+00 0.00000000D+00 0.00000000D+00
  <mgrwgt>
 0.2312476107D+00    3    2    0
 0.132527518245676D+03 0.000000000000000D+00 0.000000000000000D+00 0.132527518245676D+03
 0.132527518245676D+03 0.000000000000000D+00 0.000000000000000D+00 -.132527518245676D+03
 0.146316633051345D+03 -.163438892528008D+02 0.556786881579101D+02 0.491560583914968D+02
 0.118738403440007D+03 0.163438892528008D+02 -.556786881579101D+02 -.491560583914968D+02
 0.000000000000000D+00 -.000000000000000D+00 -.000000000000000D+00 0.000000000000000D+00
 0.154059560001579D+04 0.000000000000000D+00 0.000000000000000D+00 0.154059560001579D+04
 0.241853790365913D+03 0.000000000000000D+00 0.000000000000000D+00 -.241853790365913D+03
 0.291304975090317D+03 0.101949877682020D+03 0.237536298018646D+03 0.491560583914968D+02
 0.146477360254053D+03 0.880345259905322D+02 0.545341166613129D+02 -.491560583914968D+02
 0.134466705503733D+04 -.189984403672553D+03 -.292070414679959D+03 0.129874180964988D+04
0.402383957590D-03 0.000000000000D+00 0.000000000000D+00 0.171681311479D-02 0.000000000000D+00  5 -1 1 25 23 21 0 0.18134518D-02 0.22923420D+00 0.15116445D+05 0.15116445D+05 0.15116445D+05 0.12474399D+01  1  2  2  2  5  2        1 0.226293688606D+00 0.100000000000D+01
-.222016908227D-04 0.000000000000D+00 -.154526034728D-05 0.171681311479D-02 0.000000000000D+00  5 -1 1 25 23 21 2 0.18134518D-02 0.22923420D+00 0.15116445D+05 0.15116445D+05 0.15116445D+05 0.12474399D+01  1  2  3  2  5  2        1 -.194292960006D-01 0.100000000000D+01
0.278624953027D-04 0.000000000000D+00 0.000000000000D+00 0.171681311479D-02 0.000000000000D+00  5 -1 1 25 23 21 2 0.18134518D-02 0.22923420D+00 0.15116445D+05 0.15116445D+05 0.15116445D+05 0.12474399D+01  1  2 15  2  5  2        1 0.243832180565D-01 0.100000000000D+01
  </mgrwgt>
  </event>
  <event>
  4     66 0.43907321E-03 0.79665104E+02 0.75467711E-02 0.11957195E+00
       -1 -1    0    0    0  501 0.00000000E+00 0.00000000E+00 0.66873206E+02 0.66873972E+02 0.32000000E+00 0.0000E+00 0.9000E+01
        1 -1    0    0  501    0 0.00000000E+00 0.00000000E+00 -.22585673E+03 0.22585696E+03 0.32000000E+00 0.0000E+00 0.9000E+01
       25  1    1    2    0    0 0.10116461E+02 -.47319467E+02 -.12702245E+03 0.18466504E+03 0.12500000E+03 0.0000E+00 0.9000E+01
       23  1    1    2    0    0 -.10116461E+02 0.47319467E+02 -.31961078E+02 0.10806589E+03 0.91188000E+02 0.0000E+00 0.9000E+01
#aMCatNLO 1  0  0  2  1 0.62648158D+02 0.00000000D+00  -5  5  0 0.00000000D+00 0.00000000D+00 0.00000000D+00 0.00000000D+00 0.00000000D+00
  <mgrwgt>
 0.1192211648D+00    9    2    0
 0.122897961873054D+03 0.000000000000000D+00 0.000000000000000D+00 0.122897961873054D+03
 0.122897961873054D+03 0.000000000000000D+00 0.000000000000000D+00 -.122897961873054D+03
 0.137767510042515D+03 0.101164605548415D+02 -.473194674643238D+02 -.318341333799073D+02
 0.108028413703593D+03 -.101164605548415D+02 0.473194674643238D+02 0.318341333799073D+02
 0.000000000000000D+00 -.000000000000000D+00 0.000000000000000D+00 -.000000000000000D+00
 0.148777001295431D+03 0.000000000000000D+00 0.000000000000000D+00 0.148777001295431D+03
 0.171528725928375D+03 0.000000000000000D+00 0.000000000000000D+00 -.171528725928375D+03
 0.150220080002432D+03 0.418122152768125D+02 -.646482717598302D+02 -.318341333799073D+02
 0.103434070139039D+03 0.131569833450457D+02 0.345953358523376D+02 0.318341333799073D+02
 0.666515770823349D+02 -.549691986218582D+02 0.300529359074926D+02 -.227517246329434D+02
0.142249948764D-03 0.000000000000D+00 0.000000000000D+00 0.197958880369D-02 0.000000000000D+00  5 -1 1 25 23 21 0 0.10288262D-01 0.34747266D-01 0.14074322D+05 0.14074322D+05 0.14074322D+05 0.12509886D+01  1  2  2  2  5  2        1 0.981180582788D-01 0.100000000000D+01
-.789080119767D-05 0.000000000000D+00 -.546277258526D-06 0.197958880369D-02 0.000000000000D+00  5 -1 1 25 23 21 2 0.10288262D-01 0.34747266D-01 0.14074322D+05 0.14074322D+05 0.14074322D+05 0.12509886D+01  1  2  3  2  5  2        1 -.851774519540D-02 0.100000000000D+01
0.983207396385D-05 0.000000000000D+00 0.000000000000D+00 0.197958880369D-02 0.000000000000D+00  5 -1 1 25 23 21 2 0.10288262D-01 0.34747266D-01 0.14074322D+05 0.14074322D+05 0.14074322D+05 0.12509886D+01  1  2 15  2  5  2        1 0.106132569645D-01 0.100000000000D+01
0.471113877833D-04 0.000000000000D+00 0.000000000000D+00 0.197958880369D-02 0.000000000000D+00  5 -1 1 25 23 21 2 0.10288262D-01 0.50986101D-01 0.23695952D+05 0.23695952D+05 0.23695952D+05 0.12257999D+01  1  2 12  2  5  2        1 0.308655882902D-01 0.100000000000D+01
-.801381704241D-04 0.000000000000D+00 0.000000000000D+00 0.197958880369D-02 0.000000000000D+00  5 -1 1 25 23 21 2 0.10288262D-01 0.34747266D-01 0.14074322D+05 0.14074322D+05 0.14074322D+05 0.12509886D+01  1  2  4  2  5  2        1 -.865053495834D-01 0.100000000000D+01
-.110866985998D-03 0.000000000000D+00 -.595445367775D-04 0.197958880369D-02 0.000000000000D+00  5 -1 1 25 23 21 2 0.10288262D-01 0.57414623D-01 0.14074322D+05 0.14074322D+05 0.14074322D+05 0.12509886D+01  1  2  5  2  5  2        1 -.643796772964D-01 0.100000000000D+01
0.130728696853D-03 0.000000000000D+00 0.527515072026D-04 0.197958880369D-02 0.000000000000D+00  5 -1 1 25 23 21 2 0.10288262D-01 0.34747266D-01 0.14074322D+05 0.14074322D+05 0.14074322D+05 0.12509886D+01  1  2  6  2  5  2        1 0.141115420554D+00 0.100000000000D+01
0.217428515571D-05 0.000000000000D+00 0.000000000000D+00 0.197958880369D-02 0.000000000000D+00  5 -1 21 25 23 -1 2 0.10288262D-01 0.50986101D-01 0.23695952D+05 0.23695952D+05 0.23695952D+05 0.12257999D+01  1  2 12  4  5  2        1 0.623678723801D-02 0.100000000000D+01
-.357374879527D-05 0.000000000000D+00 -.336897702963D-05 0.197958880369D-02 0.000000000000D+00  5 -1 21 25 23 -1 2 0.10288262D-01 0.57414623D-01 0.14074322D+05 0.14074322D+05 0.14074322D+05 0.12509886D+01  1  2  5  4  5  2        1 -.832517443888D-02 0.100000000000D+01
  </mgrwgt>
  </event>
  <event>
  4     66 0.43907321E-03 0.38246351E+02 0.75467711E-02 0.11922358E+00
       -1 -1    0    0    0  501 0.00000000E+00 0.00000000E+00 0.98882995E+01 0.98934759E+01 0.32000000E+00 0.0000E+00 0.9000E+01
        1 -1    0    0  501    0 0.00000000E+00 0.00000000E+00 -.15619144E+04 0.15619144E+04 0.32000000E+00 0.0000E+00 0.9000E+01
       25  1    1    2    0    0 -.40332377E+02 -.21304670E+02 -.11218490E+04 0.11297127E+04 0.12500000E+03 0.0000E+00 0.9000E+01
       23  1    1    2    0    0 0.40332377E+02 0.21304670E+02 -.43017705E+03 0.44209516E+03 0.91188000E+02 0.0000E+00 0.9000E+01
#aMCatNLO 1  0  0  1  2 0.68782570D+02 0.00000000D+00  -5  5  0 0.00000000D+00 0.00000000D+00 0.00000000D+00 0.00000000D+00 0.00000000D+00
  <mgrwgt>
 0.8572729069D-01    7    2    0
 0.124293084867321D+03 0.000000000000000D+00 0.000000000000000D+00 0.124293084867321D+03
 0.124293084867321D+03 0.000000000000000D+00 0.000000000000000D+00 -.124293084867321D+03
 0.138995730360035D+03 -.403323769014701D+02 -.213046697011659D+02 -.401774001239691D+02
 0.109590439374608D+03 0.403323769014701D+02 0.213046697011659D+02 0.401774001239691D+02
 0.000000000000000D+00 -.000000000000000D+00 0.000000000000000D+00 0.000000000000000D+00
 0.231133690742747D+03 0.000000000000000D+00 0.000000000000000D+00 0.231133690742747D+03
 0.140539647285260D+03 0.000000000000000D+00 0.000000000000000D+00 -.140539647285260D+03
 0.137389288523293D+03 -.763327242478235D+01 -.397281546551571D+02 -.401774001239691D+02
 0.120537301384264D+03 0.675587839927859D+02 0.596463793498386D+01 0.401774001239691D+02
 0.113746748120451D+03 -.599255115680035D+02 0.337635167201733D+02 0.905940434574869D+02
0.195625344852D-03 0.000000000000D+00 0.000000000000D+00 0.189525779457D-02 0.000000000000D+00  5 -1 1 25 23 21 0 0.15216776D-02 0.24029492D+00 0.13808876D+05 0.13808876D+05 0.13808876D+05 0.12519399D+01  1  2  2  1  5  1       -1 0.126945292814D+00 0.100000000000D+01
-.108264742528D-04 0.000000000000D+00 -.751252833568D-06 0.189525779457D-02 0.000000000000D+00  5 -1 1 25 23 21 2 0.15216776D-02 0.24029492D+00 0.13808876D+05 0.13808876D+05 0.13808876D+05 0.12519399D+01  1  2  3  1  5  1       -1 -.110114739548D-01 0.100000000000D+01
0.135183273415D-04 0.000000000000D+00 0.000000000000D+00 0.189525779457D-02 0.000000000000D+00  5 -1 1 25 23 21 2 0.15216776D-02 0.24029492D+00 0.13808876D+05 0.13808876D+05 0.13808876D+05 0.12519399D+01  1  2 15  1  5  1       -1 0.137493246607D-01 0.100000000000D+01
0.747292451710D-04 0.000000000000D+00 0.000000000000D+00 0.189525779457D-02 0.000000000000D+00  5 -1 1 25 23 21 2 0.28531752D-02 0.24029492D+00 0.24619212D+05 0.24619212D+05 0.24619212D+05 0.12240130D+01  1  2 12  1  5  1       -1 0.295165551075D-01 0.100000000000D+01
-.155379929303D-03 0.000000000000D+00 -.583043932865D-04 0.189525779457D-02 0.000000000000D+00  5 -1 1 25 23 21 2 0.32351852D-02 0.24029492D+00 0.13808876D+05 0.13808876D+05 0.13808876D+05 0.12519399D+01  1  2  5  1  5  1       -1 -.533132733686D-01 0.100000000000D+01
0.511347105310D-05 0.000000000000D+00 0.000000000000D+00 0.189525779457D-02 0.000000000000D+00  5 21 1 25 23 1 2 0.28531752D-02 0.24029492D+00 0.24619212D+05 0.24619212D+05 0.24619212D+05 0.12240130D+01  1  2 12  3  5  1       -1 0.392120206722D-01 0.100000000000D+01
-.904807372757D-05 0.000000000000D+00 -.475790440678D-05 0.189525779457D-02 0.000000000000D+00  5 21 1 25 23 1 2 0.32351852D-02 0.24029492D+00 0.13808876D+05 0.13808876D+05 0.13808876D+05 0.12519399D+01  1  2  5  3  5  1       -1 -.593711552444D-01 0.100000000000D+01
  </mgrwgt>
  </event>
  <event>
  5     66 0.43907321E-03 0.11780111E+03 0.75467711E-02 0.11584660E+00
       21 -1    0    0  502  501 0.00000000E+00 0.00000000E+00 0.19443238E+02 0.19457698E+02 0.75000000E+00 0.0000E+00 0.9000E+01
        3 -1    0    0  501    0 0.00000000E+00 0.00000000E+00 -.22140793E+04 0.22140793E+04 0.50000000E+00 0.0000E+00 0.9000E+01
       25  1    1    2    0    0 0.45390075E+02 0.56955229E+01 -.39028267E+03 0.41235696E+03 0.12500000E+03 0.0000E+00 0.9000E+01
       23  1    1    2    0    0 0.20370512E+02 0.90682831E+02 -.97878829E+03 0.98741081E+03 0.91188000E+02 0.0000E+00 0.9000E+01
        3  1    1    2  502    0 -.65760587E+02 -.96378354E+02 -.82556509E+03 0.83376928E+03 0.50000000E+00 0.0000E+00 0.9000E+01
#aMCatNLO 2  0  0  1  2 0.11667580D+03 0.00000000D+00  -5  5  0 0.00000000D+00 0.00000000D+00 0.00000000D+00 0.00000000D+00 0.00000000D+00
  <mgrwgt>
 0.1643399847D-02    1    2    0
 0.133586356605268D+03 0.000000000000000D+00 0.000000000000000D+00 0.133586356605268D+03
 0.133586356605268D+03 0.000000000000000D+00 0.000000000000000D+00 -.133586356605268D+03
 0.147266175491263D+03 0.107454142985813D+02 -.450795011488526D+02 0.625675722043440D+02
 0.119906537719273D+03 -.107454142985813D+02 0.450795011488526D+02 -.625675722043440D+02
 0.000000000000000D+00 -.000000000000000D+00 -.000000000000000D+00 -.000000000000000D+00
 0.184727631017833D+03 0.000000000000000D+00 0.000000000000000D+00 0.184727631017833D+03
 0.233126299832430D+03 0.000000000000000D+00 0.000000000000000D+00 -.233126299832430D+03
 0.147079566898959D+03 0.453900751930438D+02 0.569552294433258D+01 0.625675722043440D+02
 0.144458596416272D+03 0.203705119929663D+02 0.906828312535394D+02 -.625675722043440D+02
 0.126315767535032D+03 -.657605871860101D+02 -.963783541978720D+02 -.483986688145963D+02
0.128849059196D-04 0.000000000000D+00 0.000000000000D+00 0.157994962133D-02 0.942939331992D-07  5 21 3 25 23 3 2 0.29923767D-02 0.34062786D+00 0.36098019D+05 0.36098019D+05 0.36098019D+05 0.12065535D+01  1  2  1  3  5  1       -3 0.164339984736D-02 0.100000000000D+01
  </mgrwgt>
  </event>
  <event>
  4     66 0.43907321E-03 0.43018729E+02 0.75467711E-02 0.11560127E+00
       -1 -1    0    0    0  501 0.00000000E+00 0.00000000E+00 0.35086724E+02 0.35088183E+02 0.32000000E+00 0.0000E+00 0.9000E+01
        1 -1    0    0  501    0 0.00000000E+00 0.00000000E+00 -.96420612E+03 0.96420618E+03 0.32000000E+00 0.0000E+00 0.9000E+01
       25  1    1    2    0    0 0.12320171E+03 0.46392484E+02 -.30482959E+03 0.35479149E+03 0.12500000E+03 0.0000E+00 0.9000E+01
       23  1    1    2    0    0 -.12320171E+03 -.46392484E+02 -.62428981E+03 0.64450287E+03 0.91188000E+02 0.0000E+00 0.9000E+01
#aMCatNLO 1  0  0  2  1 0.41415650D+02 0.00000000D+00  -5  5  0 0.00000000D+00 0.00000000D+00 0.00000000D+00 0.00000000D+00 0.00000000D+00
  <mgrwgt>
 0.1623105357D+00    9    2    0
 0.183933654602521D+03 0.000000000000000D+00 0.000000000000000D+00 0.183933654602521D+03
 0.183933654602521D+03 0.000000000000000D+00 0.000000000000000D+00 -.183933654602521D+03
 0.193868960721182D+03 0.123201714721232D+03 0.463924839853270D+02 0.680385835429470D+02
 0.173998348483861D+03 -.123201714721232D+03 -.463924839853270D+02 -.680385835429470D+02
 0.000000000000000D+00 0.000000000000000D+00 -.000000000000000D+00 -.000000000000000D+00
 0.191128668782897D+03 0.000000000000000D+00 0.000000000000000D+00 0.191128668782897D+03
 0.256173629244441D+03 0.000000000000000D+00 0.000000000000000D+00 -.256173629244441D+03
 0.200202277723198D+03 0.123019509932049D+03 0.685047686741921D+02 0.680385835429470D+02
 0.169989042085997D+03 -.123360762486879D+03 -.270905244216526D+02 -.680385835429470D+02
 0.771109782181427D+02 0.341252554830001D+00 -.414142442525394D+02 -.650449604615431D+02
0.446014056061D-03 0.000000000000D+00 0.000000000000D+00 0.133563081351D-02 0.000000000000D+00  5 -1 1 25 23 21 0 0.53980738D-02 0.14833952D+00 0.29186631D+05 0.29186631D+05 0.29186631D+05 0.12161533D+01  1  2  2  2  5  2        1 0.118014790454D+00 0.100000000000D+01
-.246142858897D-04 0.000000000000D+00 -.171281141347D-05 0.133563081351D-02 0.000000000000D+00  5 -1 1 25 23 21 2 0.53980738D-02 0.14833952D+00 0.29186631D+05 0.29186631D+05 0.29186631D+05 0.12161533D+01  1  2  3  2  5  2        1 -.963278241567D-02 0.100000000000D+01
0.306568067008D-04 0.000000000000D+00 0.000000000000D+00 0.133563081351D-02 0.000000000000D+00  5 -1 1 25 23 21 2 0.53980738D-02 0.14833952D+00 0.29186631D+05 0.29186631D+05 0.29186631D+05 0.12161533D+01  1  2 15  2  5  2        1 0.119975184261D-01 0.100000000000D+01
0.101819354730D-02 0.000000000000D+00 0.000000000000D+00 0.133563081351D-02 0.000000000000D+00  5 -1 1 25 23 21 2 0.53980738D-02 0.20863697D+00 0.37148833D+05 0.37148833D+05 0.37148833D+05 0.12052752D+01  1  2 12  2  5  2        1 0.207761279413D+00 0.100000000000D+01
-.103124471341D-02 0.000000000000D+00 0.000000000000D+00 0.133563081351D-02 0.000000000000D+00  5 -1 1 25 23 21 2 0.53980738D-02 0.14833952D+00 0.29186631D+05 0.29186631D+05 0.29186631D+05 0.12161533D+01  1  2  4  2  5  2        1 -.403576849074D+00 0.100000000000D+01
-.127156351347D-02 0.000000000000D+00 -.208368884317D-03 0.133563081351D-02 0.000000000000D+00  5 -1 1 25 23 21 2 0.53980738D-02 0.20991612D+00 0.29186631D+05 0.29186631D+05 0.29186631D+05 0.12161533D+01  1  2  5  2  5  2        1 -.260941099310D+00 0.100000000000D+01
0.127805587983D-02 0.000000000000D+00 0.196410735497D-03 0.133563081351D-02 0.000000000000D+00  5 -1 1 25 23 21 2 0.53980738D-02 0.14833952D+00 0.29186631D+05 0.29186631D+05 0.29186631D+05 0.12161533D+01  1  2  6  2  5  2        1 0.500166214883D+00 0.100000000000D+01
0.431745031041D-04 0.000000000000D+00 0.000000000000D+00 0.133563081351D-02 0.000000000000D+00  5 -1 21 25 23 -1 2 0.53980738D-02 0.20863697D+00 0.37148833D+05 0.37148833D+05 0.37148833D+05 0.12052752D+01  1  2 12  4  5  2        1 0.102977780288D-01 0.100000000000D+01
-.487888494587D-04 0.000000000000D+00 -.894933992973D-05 0.133563081351D-02 0.000000000000D+00  5 -1 21 25 23 -1 2 0.53980738D-02 0.20991612D+00 0.29186631D+05 0.29186631D+05 0.29186631D+05 0.12161533D+01  1  2  5  4  5  2        1 -.117763147381D-01 0.100000000000D+01
  </mgrwgt>
  </event>
  <event>
  5     66 -.43907321E-03 0.14963985E+03 0.75467711E-02 0.11942533E+00
       -1 -1    0    0    0  502 0.00000000E+00 0.00000000E+00 0.26581687E+02 0.26583613E+02 0.32000000E+00 0.0000E+00 0.9000E+01
        1 -1    0    0  501    0 0.00000000E+00 0.00000000E+00 -.95442002E+03 0.95442007E+03 0.32000000E+00 0.0000E+00 0.9000E+01
       25  1    1    2    0    0 -.74427833E+02 0.62523316E+02 -.36270720E+03 0.39576531E+03 0.12500000E+03 0.0000E+00 0.9000E+01
       23  1    1    2    0    0 0.80746238E+02 -.71342768E+02 -.52865742E+03 0.54717791E+03 0.91188000E+02 0.0000E+00 0.9000E+01
       21  1    1    2  501  502 -.63184056E+01 0.88194528E+01 -.36473711E+02 0.38060466E+02 0.75000000E+00 0.0000E+00 0.9000E+01
#aMCatNLO 2  0  0  1  2 0.10849193D+02 0.00000000D+00  -5  5  0 0.00000000D+00 0.00000000D+00 0.00000000D+00 0.00000000D+00 0.00000000D+00
  <mgrwgt>
 -.1002117525D+00    3    2    0
 0.153698831514109D+03 0.000000000000000D+00 0.000000000000000D+00 0.153698831514109D+03
 0.153698831514109D+03 0.000000000000000D+00 0.000000000000000D+00 -.153698831514109D+03
 0.165588558625224D+03 -.777951786804857D+02 0.672235758110048D+02 0.349781614272788D+02
 0.141809104402994D+03 0.777951786804857D+02 -.672235758110048D+02 -.349781614272788D+02
 0.000000000000000D+00 -.000000000000000D+00 0.000000000000000D+00 -.000000000000000D+00
 0.158513068362751D+03 0.000000000000000D+00 0.000000000000000D+00 0.158513068362751D+03
 0.160030833046313D+03 0.000000000000000D+00 0.000000000000000D+00 -.160030833046313D+03
 0.162163926441851D+03 -.744278325867779D+02 0.625233156401656D+02 0.349781614272788D+02
 0.145425130959120D+03 0.807462381674271D+02 -.713427684874471D+02 -.349781614272788D+02
 0.109548440080937D+02 -.631840558064922D+01 0.881945284728149D+01 -.151776468356117D+01
-.439713015290D-03 0.000000000000D+00 0.000000000000D+00 0.162256454603D-02 0.000000000000D+00  5 -1 1 25 23 21 2 0.41681112D-02 0.14101280D+00 0.24079559D+05 0.24079559D+05 0.24079559D+05 0.12250482D+01  1  2 13  1  5  1       -1 -.277724478298D+00 0.100000000000D+01
-.618730522371D-04 0.000000000000D+00 0.000000000000D+00 0.162256454603D-02 0.000000000000D+00  5 -1 1 25 23 21 2 0.39651157D-02 0.14101280D+00 0.22392086D+05 0.22392086D+05 0.22392086D+05 0.12284608D+01  1  2  8  1  5  1       -1 -.422414913430D-01 0.100000000000D+01
0.361326152915D-03 0.000000000000D+00 0.000000000000D+00 0.162256454603D-02 0.110442396578D-03  5 -1 1 25 23 21 2 0.40893132D-02 0.14682217D+00 0.24079559D+05 0.24079559D+05 0.24079559D+05 0.12250482D+01  1  2  1  1  5  1       -1 0.219754217118D+00 0.100000000000D+01
  </mgrwgt>
  </event>
  <event>
  4     66 0.43907321E-03 0.59082479E+02 0.75467711E-02 0.11716408E+00
       -1 -1    0    0    0  501 0.00000000E+00 0.00000000E+00 0.89507981E+02 0.89508553E+02 0.32000000E+00 0.0000E+00 0.9000E+01
        1 -1    0    0  501    0 0.00000000E+00 0.00000000E+00 -.18479610E+03 0.18479637E+03 0.32000000E+00 0.0000E+00 0.9000E+01
       25  1    1    2    0    0 -.49463510E+02 -.34457348E+02 -.16922689E+02 0.13980460E+03 0.12500000E+03 0.0000E+00 0.9000E+01
       23  1    1    2    0    0 0.49463510E+02 0.34457348E+02 -.78365427E+02 0.13450033E+03 0.91188000E+02 0.0000E+00 0.9000E+01
#aMCatNLO 1  0  0  1  2 0.88625841D+02 0.00000000D+00  -5  5  0 0.00000000D+00 0.00000000D+00 0.00000000D+00 0.00000000D+00 0.00000000D+00
  <mgrwgt>
 0.9489687470D-01    7    2    0
 0.128611205030697D+03 0.000000000000000D+00 0.000000000000000D+00 0.128611205030697D+03
 0.128611205030697D+03 0.000000000000000D+00 0.000000000000000D+00 -.128611205030697D+03
 0.142820209320516D+03 -.494635102826464D+02 -.344573481307869D+02 0.337441031984608D+02
 0.114402200740878D+03 0.494635102826464D+02 0.344573481307869D+02 -.337441031984608D+02
 0.000000000000000D+00 -.000000000000000D+00 -.000000000000000D+00 0.000000000000000D+00
 0.231667644763095D+03 0.000000000000000D+00 0.000000000000000D+00 0.231667644763095D+03
 0.156563440633070D+03 0.000000000000000D+00 0.000000000000000D+00 -.156563440633070D+03
 0.133665459258807D+03 -.321115756333164D+02 0.846387668538107D+01 0.337441031984608D+02
 0.138396864411267D+03 0.653288999083414D+02 0.737014997877808D+02 -.337441031984608D+02
 0.116168761726090D+03 -.332173242750250D+02 -.821653764731618D+02 0.751042041300254D+02
0.204901731903D-03 0.000000000000D+00 0.000000000000D+00 0.187832343983D-02 0.000000000000D+00  5 -1 1 25 23 21 0 0.13770524D-01 0.28430234D-01 0.15387038D+05 0.15387038D+05 0.15387038D+05 0.12465632D+01  1  2  2  1  5  1       -1 0.116070195130D+00 0.100000000000D+01
-.113653387965D-04 0.000000000000D+00 -.786876602372D-06 0.187832343983D-02 0.000000000000D+00  5 -1 1 25 23 21 2 0.13770524D-01 0.28430234D-01 0.15387038D+05 0.15387038D+05 0.15387038D+05 0.12465632D+01  1  2  3  1  5  1       -1 -.100042858097D-01 0.100000000000D+01
0.141643003651D-04 0.000000000000D+00 0.000000000000D+00 0.187832343983D-02 0.000000000000D+00  5 -1 1 25 23 21 2 0.13770524D-01 0.28430234D-01 0.15387038D+05 0.15387038D+05 0.15387038D+05 0.12465632D+01  1  2 15  1  5  1       -1 0.124680585140D-01 0.100000000000D+01
0.207564005875D-04 0.000000000000D+00 0.000000000000D+00 0.187832343983D-02 0.000000000000D+00  5 -1 1 25 23 21 2 0.25288096D-01 0.28430234D-01 0.31008018D+05 0.31008018D+05 0.31008018D+05 0.12133949D+01  1  2 12  1  5  1       -1 0.665936699282D-02 0.100000000000D+01
-.929188910845D-04 0.000000000000D+00 -.601051001718D-04 0.187832343983D-02 0.000000000000D+00  5 -1 1 25 23 21 2 0.29728492D-01 0.28430234D-01 0.15387038D+05 0.15387038D+05 0.15387038D+05 0.12465632D+01  1  2  5  1  5  1       -1 -.237495512196D-01 0.100000000000D+01
0.137799950605D-05 0.000000000000D+00 0.000000000000D+00 0.187832343983D-02 0.000000000000D+00  5 21 1 25 23 1 2 0.25288096D-01 0.28430234D-01 0.31008018D+05 0.31008018D+05 0.31008018D+05 0.12133949D+01  1  2 12  3  5  1       -1 0.528693906129D-02 0.100000000000D+01
-.397590351558D-05 0.000000000000D+00 -.500774475495D-05 0.187832343983D-02 0.000000000000D+00  5 21 1 25 23 1 2 0.29728492D-01 0.28430234D-01 0.15387038D+05 0.15387038D+05 0.15387038D+05 0.12465632D+01  1  2  5  3  5  1       -1 -.118338479650D-01 0.100000000000D+01
  </mgrwgt>
  </event>
  <event>
  4     66 0.43907321E-03 0.83444858E+02 0.75467711E-02 0.11797944E+00
       -1 -1    0    0    0  501 0.00000000E+00 0.00000000E+00 0.29476466E+03 0.29476484E+03 0.32000000E+00 0.0000E+00 0.9000E+01
        1 -1    0    0  501    0 0.00000000E+00 0.00000000E+00 -.85145169E+02 0.85145771E+02 0.32000000E+00 0.0000E+00 0.9000E+01
       25  1    1    2    0    0 0.87099385E+02 -.72525682E+01 0.20234467E+03 0.25339153E+03 0.12500000E+03 0.0000E+00 0.9000E+01
       23  1    1    2    0    0 -.87099385E+02 0.72525682E+01 0.72748252E+01 0.12651908E+03 0.91188000E+02 0.0000E+00 0.9000E+01
#aMCatNLO 1  0  0  1  2 0.52405272D+02 0.00000000D+00  -5  5  0 0.00000000D+00 0.00000000D+00 0.00000000D+00 0.00000000D+00 0.00000000D+00
  <mgrwgt>
 0.1367611485D+00    9    2    0
 0.158423276136592D+03 0.000000000000000D+00 0.000000000000000D+00 0.158423276136592D+03
 0.158423276136592D+03 0.000000000000000D+00 0.000000000000000D+00 -.158423276136592D+03
 0.169958431882421D+03 0.870993846817283D+02 -.725256817156930D+01 0.749797706779135D+02
 0.146888120390764D+03 -.870993846817283D+02 0.725256817156930D+01 -.749797706779135D+02
 0.000000000000000D+00 0.000000000000000D+00 0.000000000000000D+00 0.000000000000000D+00
 0.198291781908142D+03 0.000000000000000D+00 0.000000000000000D+00 0.198291781908142D+03
 0.178779357970649D+03 0.000000000000000D+00 0.000000000000000D+00 -.178779357970649D+03
 0.167758802351613D+03 0.762902326229269D+02 -.328001549062640D+02 0.749797706779135D+02
 0.153392330570984D+03 -.967103157379791D+02 -.154630059479388D+02 -.749797706779135D+02
 0.559200069561936D+02 0.204200831150521D+02 0.482631608542027D+02 0.195124239374932D+02
0.457361134042D-03 0.000000000000D+00 0.000000000000D+00 0.134728637279D-02 0.000000000000D+00  5 -1 1 25 23 21 0 0.45348469D-01 0.13099316D-01 0.19437217D+05 0.19437217D+05 0.19437217D+05 0.12351931D+01  1  2  2  1  5  1       -1 0.976701506943D-01 0.100000000000D+01
-.249043881494D-04 0.000000000000D+00 -.175638718067D-05 0.134728637279D-02 0.000000000000D+00  5 -1 1 25 23 21 2 0.45348469D-01 0.13099316D-01 0.19437217D+05 0.19437217D+05 0.19437217D+05 0.12351931D+01  1  2  3  1  5  1       -1 -.811424594371D-02 0.100000000000D+01
0.314955407878D-04 0.000000000000D+00 0.000000000000D+00 0.134728637279D-02 0.000000000000D+00  5 -1 1 25 23 21 2 0.45348469D-01 0.13099316D-01 0.19437217D+05 0.19437217D+05 0.19437217D+05 0.12351931D+01  1  2 15  1  5  1       -1 0.102617483533D-01 0.100000000000D+01
0.266837784011D-03 0.000000000000D+00 0.000000000000D+00 0.134728637279D-02 0.000000000000D+00  5 -1 1 25 23 21 2 0.59090501D-01 0.13099316D-01 0.28273306D+05 0.28273306D+05 0.28273306D+05 0.12176097D+01  1  2 12  1  5  1       -1 0.521799194993D-01 0.100000000000D+01
-.300582504093D-03 0.000000000000D+00 0.000000000000D+00 0.134728637279D-02 0.000000000000D+00  5 -1 1 25 23 21 2 0.45348469D-01 0.13099316D-01 0.19437217D+05 0.19437217D+05 0.19437217D+05 0.12351931D+01  1  2  4  1  5  1       -1 -.979345627751D-01 0.100000000000D+01
-.531347391863D-03 0.000000000000D+00 -.200330493600D-03 0.134728637279D-02 0.000000000000D+00  5 -1 1 25 23 21 2 0.62971295D-01 0.13099316D-01 0.19437217D+05 0.19437217D+05 0.19437217D+05 0.12351931D+01  1  2  5  1  5  1       -1 -.941970006808D-01 0.100000000000D+01
0.576120257664D-03 0.000000000000D+00 0.189998908481D-03 0.134728637279D-02 0.000000000000D+00  5 -1 1 25 23 21 2 0.45348469D-01 0.13099316D-01 0.19437217D+05 0.19437217D+05 0.19437217D+05 0.12351931D+01  1  2  6  1  5  1       -1 0.187709147312D+00 0.100000000000D+01
0.941763049235D-05 0.000000000000D+00 0.000000000000D+00 0.134728637279D-02 0.000000000000D+00  5 21 1 25 23 1 2 0.59090501D-01 0.13099316D-01 0.28273306D+05 0.28273306D+05 0.28273306D+05 0.12176097D+01  1  2 12  3  5  1       -1 0.178737751030D-01 0.100000000000D+01
-.167649025596D-04 0.000000000000D+00 -.826393797348D-05 0.134728637279D-02 0.000000000000D+00  5 21 1 25 23 1 2 0.62971295D-01 0.13099316D-01 0.19437217D+05 0.19437217D+05 0.19437217D+05 0.12351931D+01  1  2  5  3  5  1       -1 -.286877830403D-01 0.100000000000D+01
  </mgrwgt>
  </event>
  <event>
  5     66 0.43907321E-03 0.11330012E+03 0.75467711E-02 0.12276161E+00
       -1 -1    0    0    0  501 0.00000000E+00 0.00000000E+00 0.13894179E+02 0.13897863E+02 0.32000000E+00 0.0000E+00 0.9000E+01
        1 -1    0    0  502    0 0.00000000E+00 0.00000000E+00 -.13301118E+04 0.13301119E+04 0.32000000E+00 0.0000E+00 0.9000E+01
       25  1    1    2    0    0 0.25836635E+02 -.44537211E+02 -.69197694E+03 0.70505899E+03 0.12500000E+03 0.0000E+00 0.9000E+01
       23  1    1    2    0    0 -.77614011E+01 0.19264120E+02 -.55797091E+03 0.56575448E+03 0.91188000E+02 0.0000E+00 0.9000E+01
       21  1    1    2  502  501 -.18075234E+02 0.25273092E+02 -.66269792E+02 0.73196250E+02 0.75000000E+00 0.0000E+00 0.9000E+01
#aMCatNLO 2  0  0  2  2 0.31071582D+02 0.00000000D+00  -5  5  0 0.00000000D+00 0.00000000D+00 0.00000000D+00 0.00000000D+00 0.00000000D+00
  <mgrwgt>
 0.2421026244D-01    1    2    0
 0.113613170804381D+03 0.000000000000000D+00 0.000000000000000D+00 0.113613170804381D+03
 0.113613170804381D+03 0.000000000000000D+00 0.000000000000000D+00 -.113613170804381D+03
 0.129697900691434D+03 0.153397294429284D+02 -.298602641164127D+02 0.834282753512433D+01
 0.975284409173293D+02 -.153397294429284D+02 0.298602641164127D+02 -.834282753512433D+01
 0.000000000000000D+00 -.000000000000000D+00 0.000000000000000D+00 0.000000000000000D+00
 0.152732093085621D+03 0.000000000000000D+00 0.000000000000000D+00 0.152732093085621D+03
 0.121011769984876D+03 0.000000000000000D+00 0.000000000000000D+00 -.121011769984876D+03
 0.135446290675620D+03 0.258366347010769D+02 -.445372113386861D+02 0.834282753512433D+01
 0.938946205390910D+02 -.776140110025267D+01 0.192641195973252D+02 -.834282753512433D+01
 0.444029518557858D+02 -.180752336008242D+02 0.252730917413609D+02 0.317203231007445D+02
0.277361355633D-04 0.000000000000D+00 0.000000000000D+00 0.229076899535D-02 0.204261725852D-04  5 -1 1 25 23 21 2 0.21377984D-02 0.20462771D+00 0.16871923D+05 0.16871923D+05 0.16871923D+05 0.12420418D+01  1  2  1  2  5  2        1 0.242102624377D-01 0.100000000000D+01
  </mgrwgt>
  </event>
  <event>
  4     66 0.43907321E-03 0.62194389E+02 0.75467711E-02 0.12485035E+00
       -1 -1    0    0    0  501 0.00000000E+00 0.00000000E+00 0.15225036E+02 0.15228398E+02 0.32000000E+00 0.0000E+00 0.9000E+01
        1 -1    0    0  501    0 0.00000000E+00 0.00000000E+00 -.92912368E+03 0.92912374E+03 0.32000000E+00 0.0000E+00 0.9000E+01
       25  1    1    2    0    0 -.35918761E+02 -.13169201E+01 -.38302598E+03 0.40450686E+03 0.12500000E+03 0.0000E+00 0.9000E+01
       23  1    1    2    0    0 0.35918761E+02 0.13169201E+01 -.53087266E+03 0.53984528E+03 0.91188000E+02 0.0000E+00 0.9000E+01
#aMCatNLO 1  0  0  1  2 0.53984027D+01 0.00000000D+00  -5  5  0 0.00000000D+00 0.00000000D+00 0.00000000D+00 0.00000000D+00 0.00000000D+00
  <mgrwgt>
 0.1675892912D+00    8    2    0
 0.118943495295802D+03 0.000000000000000D+00 0.000000000000000D+00 0.118943495295802D+03
 0.118943495295802D+03 0.000000000000000D+00 0.000000000000000D+00 -.118943495295802D+03
 0.134307405356250D+03 -.359187606384973D+02 -.131692008309714D+01 0.334901103195704D+02
 0.103579585235354D+03 0.359187606384973D+02 0.131692008309714D+01 -.334901103195704D+02
 0.000000000000000D+00 -.000000000000000D+00 -.000000000000000D+00 -.000000000000000D+00
 0.121544648272378D+03 0.000000000000000D+00 0.000000000000000D+00 0.121544648272378D+03
 0.121808431278557D+03 0.000000000000000D+00 0.000000000000000D+00 -.121808431278557D+03
 0.133526474577831D+03 -.328848687453053D+02 -.114775065730022D+01 0.334901103195704D+02
 0.104421761482890D+03 0.382748987033933D+02 0.144829804169585D+01 -.334901103195704D+02
 0.540484349021342D+01 -.539002995808802D+01 -.300547384395631D+00 -.263783006179196D+00
0.100028972791D-03 0.000000000000D+00 0.000000000000D+00 0.204026696644D-02 0.000000000000D+00  5 -1 1 25 23 21 0 0.23425761D-02 0.14294237D+00 0.13005234D+05 0.13005234D+05 0.13005234D+05 0.12549500D+01  1  2  2  1  5  1       -1 0.939726597118D-01 0.100000000000D+01
-.554519237269D-05 0.000000000000D+00 -.384137593749D-06 0.204026696644D-02 0.000000000000D+00  5 -1 1 25 23 21 2 0.23425761D-02 0.14294237D+00 0.13005234D+05 0.13005234D+05 0.13005234D+05 0.12549500D+01  1  2  3  1  5  1       -1 -.820436930650D-02 0.100000000000D+01
0.692376506328D-05 0.000000000000D+00 0.000000000000D+00 0.204026696644D-02 0.000000000000D+00  5 -1 1 25 23 21 2 0.23425761D-02 0.14294237D+00 0.13005234D+05 0.13005234D+05 0.13005234D+05 0.12549500D+01  1  2 15  1  5  1       -1 0.102440315417D-01 0.100000000000D+01
0.748014012077D-04 0.000000000000D+00 0.000000000000D+00 0.204026696644D-02 0.000000000000D+00  5 -1 1 25 23 21 2 0.24213784D-02 0.14294237D+00 0.13637848D+05 0.13637848D+05 0.13637848D+05 0.12525637D+01  1  2 12  1  5  1       -1 0.105268042515D+00 0.100000000000D+01
-.163904736984D-03 0.000000000000D+00 0.000000000000D+00 0.204026696644D-02 0.000000000000D+00  5 -1 1 25 23 21 2 0.23425761D-02 0.14294237D+00 0.13005234D+05 0.13005234D+05 0.13005234D+05 0.12549500D+01  1  2  4  1  5  1       -1 -.242504660420D+00 0.100000000000D+01
0.109295430088D-03 0.000000000000D+00 0.000000000000D+00 0.204026696644D-02 0.586111398847D-03  5 -1 1 25 23 21 2 0.23938055D-02 0.14638535D+00 0.13637848D+05 0.13637848D+05 0.13637848D+05 0.12525637D+01  1  2 11  1  5  1       -1 0.150461764060D+00 0.100000000000D+01
0.113374237129D-05 0.000000000000D+00 0.000000000000D+00 0.204026696644D-02 0.000000000000D+00  5 21 1 25 23 1 2 0.24213784D-02 0.14294237D+00 0.13637848D+05 0.13637848D+05 0.13637848D+05 0.12525637D+01  1  2 12  3  5  1       -1 0.321847438886D-01 0.100000000000D+01
0.940357137972D-06 0.000000000000D+00 0.000000000000D+00 0.204026696644D-02 0.234107204278D-05  5 21 1 25 23 1 2 0.23938055D-02 0.14638535D+00 0.13637848D+05 0.13637848D+05 0.13637848D+05 0.12525637D+01  1  2 11  3  5  1       -1 0.261670792158D-01 0.100000000000D+01
  </mgrwgt>
  </event>
</LesHouchesEvents>
