<event>
 5    0  0.2159162E+000  0.2249607E+03  0.7546771E-02  0.1130238E+00
         21   -1    0    0  502  501  0.00000000000E+00  0.00000000000E+00  0.73192019173E+03  0.73192019173E+03  0.00000000000E+00 0. -1.
         21   -1    0    0  503  502 -0.00000000000E+00 -0.00000000000E+00 -0.29209025094E+03  0.29209025094E+03  0.00000000000E+00 0.  1.
         25    1    1    2    0    0  0.24812451891E+03  0.88748379316E+02  0.54999100228E+03  0.62254088565E+03  0.12500000000E+03 0.  0.
         21    1    1    2  503  504 -0.10577009047E+03  0.26410896322E+02  0.81718128596E+02  0.13624499999E+03  0.00000000000E+00 0. -1.
         21    1    1    2  504  501 -0.14235442844E+03 -0.11515927564E+03 -0.19187919009E+03  0.26522455703E+03  0.00000000000E+00 0.  1.
<mgrwt>
<rscale>  4 0.22496074E+03</rscale>
<asrwt>0</asrwt>
<pdfrwt beam="1">  1       21 0.11260311E+00 0.22496074E+03</pdfrwt>
<pdfrwt beam="2">  1       21 0.44936962E-01 0.22496074E+03</pdfrwt>
<totfact> 0.28549895E+03</totfact>
</mgrwt>
</event>
<event>
 5    0  0.2159162E+000  0.2724247E+03  0.7546771E-02  0.1099900E+00
         21   -1    0    0  502  501  0.00000000000E+00  0.00000000000E+00  0.16625918691E+04  0.16625918691E+04  0.00000000000E+00 0. -1.
         21   -1    0    0  503  502 -0.00000000000E+00 -0.00000000000E+00 -0.63787275014E+02  0.63787275014E+02  0.00000000000E+00 0.  1.
         25    1    1    2    0    0  0.23572952430E+03  0.54970811511E+02  0.13267016308E+04  0.13543826697E+04  0.12500000000E+03 0.  0.
         21    1    1    2  503  504 -0.15872784766E+03 -0.71065396705E+02  0.17102954046E+03  0.24391786310E+03  0.00000000000E+00 0.  1.
         21    1    1    2  504  501 -0.77001676641E+02  0.16094585194E+02  0.10107342278E+03  0.12807861129E+03  0.00000000000E+00 0.  1.
<mgrwt>
<rscale>  4 0.27242467E+03</rscale>
<asrwt>0</asrwt>
<pdfrwt beam="1">  1       21 0.25578333E+00 0.27242467E+03</pdfrwt>
<pdfrwt beam="2">  1       21 0.98134282E-02 0.27242467E+03</pdfrwt>
<totfact> 0.48039461E+03</totfact>
</mgrwt>
</event>
<event>
 5    0  0.2573909E+000  0.3010285E+03  0.7546771E-02  0.1084728E+00
         21   -1    0    0  502  501  0.00000000000E+00  0.00000000000E+00  0.41994861257E+03  0.41994861257E+03  0.00000000000E+00 0. -1.
         21   -1    0    0  503  502 -0.00000000000E+00 -0.00000000000E+00 -0.23784215365E+03  0.23784215365E+03  0.00000000000E+00 0. -1.
         25    1    1    2    0    0 -0.26938186603E+03 -0.49260404599E+02  0.21979387033E+03  0.37272982526E+03  0.12500000000E+03 0.  0.
         21    1    1    2  503  504  0.69688295376E+02  0.44374609285E+02 -0.15772392382E+02  0.84109053158E+02  0.00000000000E+00 0. -1.
         21    1    1    2  504  501  0.19969357065E+03  0.48857953134E+01 -0.21915019021E+02  0.20095188781E+03  0.00000000000E+00 0. -1.
<mgrwt>
<rscale>  4 0.30102853E+03</rscale>
<asrwt>0</asrwt>
<pdfrwt beam="1">  1       21 0.64607479E-01 0.30102853E+03</pdfrwt>
<pdfrwt beam="2">  1       21 0.36591101E-01 0.30102853E+03</pdfrwt>
<totfact> 0.15032769E+04</totfact>
</mgrwt>
</event>
<event>
 5    0  0.2159162E+000  0.4816925E+03  0.7546771E-02  0.1018826E+00
         21   -1    0    0  502  501  0.00000000000E+00  0.00000000000E+00  0.75248347068E+03  0.75248347068E+03  0.00000000000E+00 0. -1.
         21   -1    0    0  503  502 -0.00000000000E+00 -0.00000000000E+00 -0.53644511008E+03  0.53644511008E+03  0.00000000000E+00 0.  1.
         25    1    1    2    0    0 -0.18810547240E+03 -0.42290727466E+03  0.52943784624E+03  0.71425742190E+03  0.12500000000E+03 0.  0.
         21    1    1    2  503  504  0.20066020850E+03  0.32176602516E+03 -0.25820642390E+03  0.45876840733E+03  0.00000000000E+00 0.  1.
         21    1    1    2  504  501 -0.12554736108E+02  0.10114124949E+03 -0.55193061734E+02  0.11590275153E+03  0.00000000000E+00 0. -1.
<mgrwt>
<rscale>  4 0.48112750E+03</rscale>
<asrwt>0</asrwt>
<pdfrwt beam="1">  1       21 0.11576669E+00 0.48169254E+03</pdfrwt>
<pdfrwt beam="2">  1       21 0.82530017E-01 0.48169254E+03</pdfrwt>
<totfact> 0.61302927E+02</totfact>
</mgrwt>
</event>
<event>
 5    0  0.2159162E+000  0.2562532E+03  0.7546771E-02  0.1109416E+00
         21   -1    0    0  502  501  0.00000000000E+00  0.00000000000E+00  0.35914802671E+03  0.35914802671E+03  0.00000000000E+00 0. -1.
         21   -1    0    0  503  502 -0.00000000000E+00 -0.00000000000E+00 -0.22698972183E+03  0.22698972183E+03  0.00000000000E+00 0. -1.
         25    1    1    2    0    0  0.82920509655E+02 -0.20776160835E+03 -0.85932209569E+02  0.27027771174E+03  0.12500000000E+03 0.  0.
         21    1    1    2  503  504 -0.66102218657E+02  0.15748323204E+03  0.13687929936E+03  0.21887533959E+03  0.00000000000E+00 0. -1.
         21    1    1    2  504  501 -0.16818290998E+02  0.50278376307E+02  0.81211215086E+02  0.96984697204E+02  0.00000000000E+00 0. -1.
<mgrwt>
<rscale>  4 0.25625319E+03</rscale>
<asrwt>0</asrwt>
<pdfrwt beam="1">  1       21 0.55253543E-01 0.25625319E+03</pdfrwt>
<pdfrwt beam="2">  1       21 0.34921496E-01 0.25625319E+03</pdfrwt>
<totfact> 0.23622263E+04</totfact>
</mgrwt>
</event>
<event>
 5    0  0.3577469E+000  0.2982983E+03  0.7546771E-02  0.1086094E+00
         21   -1    0    0  502  501  0.00000000000E+00  0.00000000000E+00  0.44924588726E+03  0.44924588726E+03  0.00000000000E+00 0. -1.
         21   -1    0    0  503  502 -0.00000000000E+00 -0.00000000000E+00 -0.20100212134E+03  0.20100212134E+03  0.00000000000E+00 0. -1.
         25    1    1    2    0    0  0.27060065529E+03 -0.11496263859E+02  0.31704877517E+02  0.29997846253E+03  0.12500000000E+03 0.  0.
         21    1    1    2  503  504 -0.21738421812E+02  0.11727978287E+02  0.32140740372E+02  0.40535560305E+02  0.00000000000E+00 0. -1.
         21    1    1    2  504  501 -0.24886223347E+03 -0.23171442793E+00  0.18439814804E+03  0.30973398577E+03  0.00000000000E+00 0. -1.
<mgrwt>
<rscale>  4 0.29829830E+03</rscale>
<asrwt>0</asrwt>
<pdfrwt beam="1">  1       21 0.69114752E-01 0.29829830E+03</pdfrwt>
<pdfrwt beam="2">  1       21 0.30923403E-01 0.29829830E+03</pdfrwt>
<totfact> 0.18140765E+04</totfact>
</mgrwt>
</event>
<event>
 5    0  0.2159162E+000  0.3696113E+03  0.7546771E-02  0.1054842E+00
         21   -1    0    0  502  501  0.00000000000E+00  0.00000000000E+00  0.30087257397E+03  0.30087257397E+03  0.00000000000E+00 0. -1.
         21   -1    0    0  503  502 -0.00000000000E+00 -0.00000000000E+00 -0.62894965271E+03  0.62894965271E+03  0.00000000000E+00 0.  1.
         25    1    1    2    0    0  0.26662610877E+03  0.24879097032E+03 -0.58774286873E+01  0.38554633050E+03  0.12500000000E+03 0.  0.
         21    1    1    2  503  504 -0.17500730407E+03 -0.27991958499E+03 -0.19147337629E+03  0.38163409749E+03  0.00000000000E+00 0.  1.
         21    1    1    2  504  501 -0.91618804700E+02  0.31128614673E+02 -0.13072627378E+03  0.16264179869E+03  0.00000000000E+00 0.  1.
<mgrwt>
<rscale>  4 0.36961132E+03</rscale>
<asrwt>0</asrwt>
<pdfrwt beam="1">  1       21 0.46288089E-01 0.36961132E+03</pdfrwt>
<pdfrwt beam="2">  1       21 0.96761484E-01 0.36961132E+03</pdfrwt>
<totfact> 0.35698675E+03</totfact>
</mgrwt>
</event>
