<event>
 5    0  0.1239749E+000  0.4289497E+03  0.7546771E-02  0.1034192E+00
         21   -1    0    0  503  502  0.00000000000E+00  0.00000000000E+00  0.22291833824E+04  0.22291833824E+04  0.00000000000E+00 0. -1.
         -3   -1    0    0    0  501 -0.00000000000E+00 -0.00000000000E+00 -0.14482627431E+03  0.14482627431E+03  0.00000000000E+00 0. -1.
         25    1    1    2    0    0 -0.30692750513E+03  0.27513828465E+03  0.16007520786E+04  0.16576904977E+04  0.12500000000E+03 0.  0.
         21    1    1    2  503  501  0.32076907549E+03 -0.24968114858E+03  0.52612664718E+03  0.66486293671E+03  0.00000000000E+00 0. -1.
         -3    1    1    2    0  502 -0.13841570358E+02 -0.25457136074E+02 -0.42521617656E+02  0.51456222317E+02  0.00000000000E+00 0. -1.
<mgrwt>
<rscale>  4 0.42894968E+03</rscale>
<asrwt>0</asrwt>
<pdfrwt beam="1">  1       21 0.34295126E+00 0.42894968E+03</pdfrwt>
<pdfrwt beam="2">  1       -3 0.22280967E-01 0.42894968E+03</pdfrwt>
<totfact> 0.14814742E+01</totfact>
</mgrwt>
</event>
<event>
 5    0  0.1239749E+000  0.3670356E+03  0.7546771E-02  0.1055832E+00
          2   -1    0    0  503    0 -0.00000000000E+00  0.00000000000E+00  0.70307139059E+03  0.70307139059E+03  0.00000000000E+00 0.  1.
         21   -1    0    0  501  502  0.00000000000E+00 -0.00000000000E+00 -0.42427569884E+03  0.42427569884E+03  0.00000000000E+00 0.  1.
         25    1    1    2    0    0  0.36808622000E+03  0.22388658225E+03 -0.92931741972E+02  0.45812004511E+03  0.12500000000E+03 0.  0.
         21    1    1    2  503  502 -0.92412748465E+02 -0.17361262974E+03  0.33244675625E+03  0.38626714464E+03  0.00000000000E+00 0. -1.
          2    1    1    2  501    0 -0.27567347153E+03 -0.50273952504E+02  0.39280677460E+02  0.28295989968E+03  0.00000000000E+00 0.  1.
<mgrwt>
<rscale>  4 0.36703560E+03</rscale>
<asrwt>0</asrwt>
<pdfrwt beam="1">  1       21 0.65273184E-01 0.36703560E+03</pdfrwt>
<pdfrwt beam="2">  1        2 0.10816483E+00 0.36703560E+03</pdfrwt>
<totfact> 0.10598438E+03</totfact>
</mgrwt>
</event>
<event>
 5    0  0.1239749E+000  0.4449332E+03  0.7546771E-02  0.1029244E+00
          4   -1    0    0  503    0 -0.00000000000E+00  0.00000000000E+00  0.12991725141E+04  0.12991725141E+04  0.00000000000E+00 0.  1.
         21   -1    0    0  501  502  0.00000000000E+00 -0.00000000000E+00 -0.13000408653E+04  0.13000408653E+04  0.00000000000E+00 0. -1.
         25    1    1    2    0    0 -0.23054373143E+03 -0.49164187371E+03 -0.81571919991E+02  0.56315284090E+03  0.12500000000E+03 0.  0.
         21    1    1    2  503  502  0.15394659772E+03  0.37637601495E+03 -0.93047678117E+03  0.10154533470E+04  0.00000000000E+00 0. -1.
          4    1    1    2  501    0  0.76597133711E+02  0.11526585876E+03  0.10111803500E+04  0.10206071915E+04  0.00000000000E+00 0.  1.
<mgrwt>
<rscale>  4 0.44493316E+03</rscale>
<asrwt>0</asrwt>
<pdfrwt beam="1">  1       21 0.20000629E+00 0.44493316E+03</pdfrwt>
<pdfrwt beam="2">  1        4 0.19987270E+00 0.44493316E+03</pdfrwt>
<totfact> 0.69379522E-01</totfact>
</mgrwt>
</event>
<event>
 5    0  0.1239749E+000  0.2677800E+03  0.7546771E-02  0.1102557E+00
          2   -1    0    0  503    0 -0.00000000000E+00  0.00000000000E+00  0.75892136972E+03  0.75892136972E+03  0.00000000000E+00 0.  1.
         21   -1    0    0  501  502  0.00000000000E+00 -0.00000000000E+00 -0.28464430785E+03  0.28464430785E+03  0.00000000000E+00 0. -1.
         25    1    1    2    0    0  0.17808440226E+03  0.17821380822E+03 -0.12952554349E+03  0.30963863161E+03  0.12500000000E+03 0.  0.
         21    1    1    2  503  502 -0.15842884541E+03 -0.13579701609E+03  0.10620239707E+03  0.23413559699E+03  0.00000000000E+00 0. -1.
          2    1    1    2  501    0 -0.19655556854E+02 -0.42416792132E+02  0.49760020830E+03  0.49979144897E+03  0.00000000000E+00 0.  1.
<mgrwt>
<rscale>  4 0.26778003E+03</rscale>
<asrwt>0</asrwt>
<pdfrwt beam="1">  1       21 0.43791432E-01 0.26778003E+03</pdfrwt>
<pdfrwt beam="2">  1        2 0.11675713E+00 0.26778003E+03</pdfrwt>
<totfact> 0.23304112E+03</totfact>
</mgrwt>
</event>
<event>
 5    0  0.1239749E+000  0.4168696E+03  0.7546771E-02  0.1038090E+00
         -3   -1    0    0    0  501 -0.00000000000E+00  0.00000000000E+00  0.11946742432E+04  0.11946742432E+04  0.00000000000E+00 0. -1.
         21   -1    0    0  503  502  0.00000000000E+00 -0.00000000000E+00 -0.38988745502E+03  0.38988745502E+03  0.00000000000E+00 0. -1.
         25    1    1    2    0    0 -0.31965220214E+03 -0.22668363198E+03 -0.20499624959E+03  0.45957748170E+03  0.12500000000E+03 0.  0.
         21    1    1    2  503  501 -0.25231088703E+02 -0.48253567909E+02  0.12570565274E+03  0.13699242966E+03  0.00000000000E+00 0.  1.
         -3    1    1    2    0  502  0.34488329084E+03  0.27493719989E+03  0.88407738498E+03  0.98799178682E+03  0.00000000000E+00 0. -1.
<mgrwt>
<rscale>  4 0.41686964E+03</rscale>
<asrwt>0</asrwt>
<pdfrwt beam="1">  1       21 0.59982686E-01 0.41686964E+03</pdfrwt>
<pdfrwt beam="2">  1       -3 0.18379604E+00 0.41686964E+03</pdfrwt>
<totfact> 0.23799520E+01</totfact>
</mgrwt>
</event>
<event>
 5    0  0.1239749E+000  0.2874444E+03  0.7546771E-02  0.1091691E+00
         21   -1    0    0  501  502  0.00000000000E+00  0.00000000000E+00  0.86169540180E+02  0.86169540180E+02  0.00000000000E+00 0.  1.
          2   -1    0    0  503    0 -0.00000000000E+00 -0.00000000000E+00 -0.10477651597E+04  0.10477651597E+04  0.00000000000E+00 0.  1.
         25    1    1    2    0    0 -0.98843389836E+02 -0.23922643889E+03 -0.30501924700E+03  0.41911936942E+03  0.12500000000E+03 0.  0.
         21    1    1    2  503  502  0.12075687909E+03  0.16484902468E+03 -0.45234495546E+03  0.49636013490E+03  0.00000000000E+00 0.  1.
          2    1    1    2  501    0 -0.21913489254E+02  0.74377414208E+02 -0.20423141710E+03  0.21845519560E+03  0.00000000000E+00 0.  1.
<mgrwt>
<rscale>  4 0.28744444E+03</rscale>
<asrwt>0</asrwt>
<pdfrwt beam="1">  1       21 0.13256853E-01 0.28744444E+03</pdfrwt>
<pdfrwt beam="2">  1        2 0.16119464E+00 0.28744444E+03</pdfrwt>
<totfact> 0.15006573E+04</totfact>
</mgrwt>
</event>
<event>
 5    0  0.1239749E+000  0.2562671E+03  0.7546771E-02  0.1109407E+00
          1   -1    0    0  503    0 -0.00000000000E+00  0.00000000000E+00  0.17492844618E+04  0.17492844618E+04  0.00000000000E+00 0.  1.
         21   -1    0    0  501  502  0.00000000000E+00 -0.00000000000E+00 -0.14373019351E+03  0.14373019351E+03  0.00000000000E+00 0.  1.
         25    1    1    2    0    0  0.19465639030E+03 -0.80053640719E+02  0.27074542055E+02  0.24628789354E+03  0.12500000000E+03 0.  0.
         21    1    1    2  503  502 -0.25776423239E+03  0.11675557748E+03  0.57763992002E+03  0.64322790795E+03  0.00000000000E+00 0.  1.
          1    1    1    2  501    0  0.63107842083E+02 -0.36701936756E+02  0.10008398062E+04  0.10034988538E+04  0.00000000000E+00 0.  1.
<mgrwt>
<rscale>  4 0.25626711E+03</rscale>
<asrwt>0</asrwt>
<pdfrwt beam="1">  1       21 0.22112339E-01 0.25626711E+03</pdfrwt>
<pdfrwt beam="2">  1        1 0.26912067E+00 0.25626711E+03</pdfrwt>
<totfact> 0.10328464E+03</totfact>
</mgrwt>
</event>
<event>
 5    0  0.1239749E+000  0.2218966E+03  0.7546771E-02  0.1132477E+00
         21   -1    0    0  501  502  0.00000000000E+00  0.00000000000E+00  0.41052496830E+03  0.41052496830E+03  0.00000000000E+00 0.  1.
          1   -1    0    0  503    0 -0.00000000000E+00 -0.00000000000E+00 -0.21119670450E+03  0.21119670450E+03  0.00000000000E+00 0. -1.
         25    1    1    2    0    0  0.48445695520E+02  0.19964975000E+03  0.19197980376E+03  0.30771456439E+03  0.12500000000E+03 0.  0.
         21    1    1    2  503  502 -0.25319727991E+02 -0.22301688863E+02  0.10496311080E+03  0.11025293003E+03  0.00000000000E+00 0.  1.
          1    1    1    2  501    0 -0.23125967529E+02 -0.17734806113E+03 -0.97614650758E+02  0.20375417837E+03  0.00000000000E+00 0. -1.
<mgrwt>
<rscale>  4 0.22189663E+03</rscale>
<asrwt>0</asrwt>
<pdfrwt beam="1">  1       21 0.63157687E-01 0.22189663E+03</pdfrwt>
<pdfrwt beam="2">  1        1 0.32491801E-01 0.22189663E+03</pdfrwt>
<totfact> 0.34136440E+03</totfact>
</mgrwt>
</event>
<event>
 5    0  0.1239749E+000  0.2472433E+03  0.7546771E-02  0.1115060E+00
         21   -1    0    0  503  502  0.00000000000E+00  0.00000000000E+00  0.14112145316E+04  0.14112145316E+04  0.00000000000E+00 0. -1.
         -1   -1    0    0    0  501 -0.00000000000E+00 -0.00000000000E+00 -0.32301685245E+03  0.32301685245E+03  0.00000000000E+00 0. -1.
         25    1    1    2    0    0  0.28619286213E+02  0.20122798965E+03  0.65570215019E+03  0.69776935812E+03  0.12500000000E+03 0.  0.
         21    1    1    2  503  501 -0.80281660496E+02 -0.20903882981E+03  0.71495966455E+03  0.74920604596E+03  0.00000000000E+00 0. -1.
         -1    1    1    2    0  502  0.51662374284E+02  0.78108401547E+01 -0.28246413558E+03  0.28725597997E+03  0.00000000000E+00 0. -1.
<mgrwt>
<rscale>  4 0.24724326E+03</rscale>
<asrwt>0</asrwt>
<pdfrwt beam="1">  1       21 0.21710992E+00 0.24724326E+03</pdfrwt>
<pdfrwt beam="2">  1       -1 0.49694901E-01 0.24724326E+03</pdfrwt>
<totfact> 0.38346630E+01</totfact>
</mgrwt>
</event>
<event>
 5    0  0.1239749E+000  0.2299877E+03  0.7546771E-02  0.1126648E+00
         21   -1    0    0  501  502  0.00000000000E+00  0.00000000000E+00  0.40488739219E+03  0.40488739219E+03  0.00000000000E+00 0. -1.
          2   -1    0    0  503    0 -0.00000000000E+00 -0.00000000000E+00 -0.38198103103E+03  0.38198103103E+03  0.00000000000E+00 0.  1.
         25    1    1    2    0    0  0.26004363547E+03 -0.22701616850E+02 -0.15256668825E+02  0.28982032658E+03  0.12500000000E+03 0.  0.
         21    1    1    2  503  502 -0.17804828333E+03  0.20759938479E+02  0.22813086223E+03  0.29013075766E+03  0.00000000000E+00 0. -1.
          2    1    1    2  501    0 -0.81995352135E+02  0.19416783706E+01 -0.18996783224E+03  0.20691733898E+03  0.00000000000E+00 0.  1.
<mgrwt>
<rscale>  4 0.22998766E+03</rscale>
<asrwt>0</asrwt>
<pdfrwt beam="1">  1       21 0.62290368E-01 0.22998766E+03</pdfrwt>
<pdfrwt beam="2">  1        2 0.58766312E-01 0.22998766E+03</pdfrwt>
<totfact> 0.24647365E+03</totfact>
</mgrwt>
</event>
<event>
 5    0  0.1239749E+000  0.4806468E+03  0.7546771E-02  0.1018958E+00
          1   -1    0    0  503    0 -0.00000000000E+00  0.00000000000E+00  0.88471198044E+03  0.88471198044E+03  0.00000000000E+00 0. -1.
         21   -1    0    0  501  502  0.00000000000E+00 -0.00000000000E+00 -0.15494027041E+04  0.15494027041E+04  0.00000000000E+00 0. -1.
         25    1    1    2    0    0 -0.46327687532E+03  0.88119720876E+02 -0.13067108469E+04  0.13948149647E+04  0.12500000000E+03 0.  0.
         21    1    1    2  503  502  0.42664659391E+03 -0.27010091656E+02  0.35898797578E+02  0.42900534357E+03  0.00000000000E+00 0. -1.
          1    1    1    2  501    0  0.36630281412E+02 -0.61109629220E+02  0.60612132564E+03  0.61029437626E+03  0.00000000000E+00 0. -1.
<mgrwt>
<rscale>  4 0.48064676E+03</rscale>
<asrwt>0</asrwt>
<pdfrwt beam="1">  1       21 0.23836964E+00 0.48064676E+03</pdfrwt>
<pdfrwt beam="2">  1        1 0.13610954E+00 0.48064676E+03</pdfrwt>
<totfact> 0.13677921E+01</totfact>
</mgrwt>
</event>
<event>
 5    0  0.1239749E+000  0.3661391E+03  0.7546771E-02  0.1056179E+00
          2   -1    0    0  503    0 -0.00000000000E+00  0.00000000000E+00  0.74672195836E+03  0.74672195836E+03  0.00000000000E+00 0. -1.
         21   -1    0    0  501  502  0.00000000000E+00 -0.00000000000E+00 -0.48521627465E+03  0.48521627465E+03  0.00000000000E+00 0. -1.
         25    1    1    2    0    0  0.84176383083E+02 -0.31414979980E+03  0.67051057632E+02  0.35481911520E+03  0.12500000000E+03 0.  0.
         21    1    1    2  503  502 -0.11775581130E+03  0.33239418761E+03 -0.24921246865E+03  0.43180919580E+03  0.00000000000E+00 0. -1.
          2    1    1    2  501    0  0.33579428218E+02 -0.18244387806E+02  0.44366709473E+03  0.44530992201E+03  0.00000000000E+00 0. -1.
<mgrwt>
<rscale>  4 0.36613910E+03</rscale>
<asrwt>0</asrwt>
<pdfrwt beam="1">  1       21 0.74648658E-01 0.36613910E+03</pdfrwt>
<pdfrwt beam="2">  1        2 0.11488030E+00 0.36613910E+03</pdfrwt>
<totfact> 0.72805154E+02</totfact>
</mgrwt>
</event>
<event>
 5    0  0.1239749E+000  0.3274081E+03  0.7546771E-02  0.1072289E+00
          2   -1    0    0  503    0 -0.00000000000E+00  0.00000000000E+00  0.13723993770E+04  0.13723993770E+04  0.00000000000E+00 0. -1.
         21   -1    0    0  501  502  0.00000000000E+00 -0.00000000000E+00 -0.26998746694E+03  0.26998746694E+03  0.00000000000E+00 0.  1.
         25    1    1    2    0    0  0.16884970137E+03  0.45017813014E+03  0.59290852050E+03  0.77352187053E+03  0.12500000000E+03 0.  0.
         21    1    1    2  503  502 -0.11402950180E+02 -0.27401364639E+03 -0.33881747901E+02  0.27633580753E+03  0.00000000000E+00 0.  1.
          2    1    1    2  501    0 -0.15744675119E+03 -0.17616448374E+03  0.54338513743E+03  0.59252916584E+03  0.00000000000E+00 0. -1.
<mgrwt>
<rscale>  4 0.32740812E+03</rscale>
<asrwt>0</asrwt>
<pdfrwt beam="1">  1       21 0.41536534E-01 0.32740812E+03</pdfrwt>
<pdfrwt beam="2">  1        2 0.21113836E+00 0.32740812E+03</pdfrwt>
<totfact> 0.10734735E+03</totfact>
</mgrwt>
</event>
<event>
 5    0  0.1239749E+000  0.2459956E+03  0.7546771E-02  0.1115862E+00
         21   -1    0    0  501  502  0.00000000000E+00  0.00000000000E+00  0.12889150031E+04  0.12889150031E+04  0.00000000000E+00 0.  1.
          1   -1    0    0  503    0 -0.00000000000E+00 -0.00000000000E+00 -0.25096943440E+03  0.25096943440E+03  0.00000000000E+00 0. -1.
         25    1    1    2    0    0  0.17531352212E+03  0.30822567725E+03  0.99928060010E+03  0.10676725232E+04  0.12500000000E+03 0.  0.
         21    1    1    2  503  502 -0.98209389364E+02 -0.11902416204E+03  0.16979729096E+03  0.22944052677E+03  0.00000000000E+00 0. -1.
          1    1    1    2  501    0 -0.77104132758E+02 -0.18920151521E+03 -0.13113232231E+03  0.24277138753E+03  0.00000000000E+00 0. -1.
<mgrwt>
<rscale>  4 0.24599558E+03</rscale>
<asrwt>0</asrwt>
<pdfrwt beam="1">  1       21 0.19829461E+00 0.24599558E+03</pdfrwt>
<pdfrwt beam="2">  1        1 0.38610683E-01 0.24599558E+03</pdfrwt>
<totfact> 0.15814291E+02</totfact>
</mgrwt>
</event>
<event>
 5    0  0.1239749E+000  0.3209251E+03  0.7546771E-02  0.1075224E+00
          2   -1    0    0  503    0 -0.00000000000E+00  0.00000000000E+00  0.38190244535E+03  0.38190244535E+03  0.00000000000E+00 0. -1.
         21   -1    0    0  501  502  0.00000000000E+00 -0.00000000000E+00 -0.27869393246E+03  0.27869393246E+03  0.00000000000E+00 0. -1.
         25    1    1    2    0    0 -0.12221315521E+03  0.26913170939E+03 -0.40893351170E+02  0.32352001248E+03  0.12500000000E+03 0.  0.
         21    1    1    2  503  502  0.10054873184E+03 -0.23595568808E+03  0.93928980071E+02  0.27314426135E+03  0.00000000000E+00 0. -1.
          2    1    1    2  501    0  0.21664423369E+02 -0.33176021313E+02  0.50172883988E+02  0.63932103968E+02  0.00000000000E+00 0. -1.
<mgrwt>
<rscale>  4 0.32092512E+03</rscale>
<asrwt>0</asrwt>
<pdfrwt beam="1">  1       21 0.42875990E-01 0.32092512E+03</pdfrwt>
<pdfrwt beam="2">  1        2 0.58754222E-01 0.32092512E+03</pdfrwt>
<totfact> 0.53020390E+03</totfact>
</mgrwt>
</event>
<event>
 5    0  0.1239749E+000  0.2098152E+03  0.7546771E-02  0.1141712E+00
          2   -1    0    0  503    0 -0.00000000000E+00  0.00000000000E+00  0.60435082897E+03  0.60435082897E+03  0.00000000000E+00 0.  1.
         21   -1    0    0  501  502  0.00000000000E+00 -0.00000000000E+00 -0.19632261462E+03  0.19632261462E+03  0.00000000000E+00 0.  1.
         25    1    1    2    0    0 -0.12585304402E+03  0.19838253464E+03  0.12395659223E+03  0.29357257279E+03  0.12500000000E+03 0.  0.
         21    1    1    2  503  502  0.14661953908E+03 -0.58038984911E+02 -0.31771248554E+02  0.16085777956E+03  0.00000000000E+00 0.  1.
          2    1    1    2  501    0 -0.20766495065E+02 -0.14034354973E+03  0.31584287068E+03  0.34624309123E+03  0.00000000000E+00 0.  1.
<mgrwt>
<rscale>  4 0.20981517E+03</rscale>
<asrwt>0</asrwt>
<pdfrwt beam="1">  1       21 0.30203479E-01 0.20981517E+03</pdfrwt>
<pdfrwt beam="2">  1        2 0.92977050E-01 0.20981517E+03</pdfrwt>
<totfact> 0.65796945E+03</totfact>
</mgrwt>
</event>
<event>
 5    0  0.1239749E+000  0.2764164E+03  0.7546771E-02  0.1097662E+00
          2   -1    0    0  503    0 -0.00000000000E+00  0.00000000000E+00  0.90187328930E+03  0.90187328930E+03  0.00000000000E+00 0. -1.
         21   -1    0    0  501  502  0.00000000000E+00 -0.00000000000E+00 -0.10175304214E+03  0.10175304214E+03  0.00000000000E+00 0. -1.
         25    1    1    2    0    0  0.86404363864E+02  0.22273815533E+03  0.21592097679E+03  0.34543431815E+03  0.12500000000E+03 0.  0.
         21    1    1    2  503  502 -0.94182259902E+02 -0.24135663257E+03  0.42517454549E+03  0.49789227379E+03  0.00000000000E+00 0. -1.
          2    1    1    2  501    0  0.77778960385E+01  0.18618477242E+02  0.15902472489E+03  0.16029973951E+03  0.00000000000E+00 0. -1.
<mgrwt>
<rscale>  4 0.27641642E+03</rscale>
<asrwt>0</asrwt>
<pdfrwt beam="1">  1       21 0.15654315E-01 0.27641642E+03</pdfrwt>
<pdfrwt beam="2">  1        2 0.13874973E+00 0.27641642E+03</pdfrwt>
<totfact> 0.13680798E+04</totfact>
</mgrwt>
</event>
<event>
 5    0  0.1239749E+000  0.3059045E+03  0.7546771E-02  0.1082326E+00
         21   -1    0    0  503  502  0.00000000000E+00  0.00000000000E+00  0.16179712499E+03  0.16179712499E+03  0.00000000000E+00 0. -1.
         -2   -1    0    0    0  501 -0.00000000000E+00 -0.00000000000E+00 -0.14019909160E+04  0.14019909160E+04  0.00000000000E+00 0. -1.
         25    1    1    2    0    0  0.65711982948E+02  0.26915122804E+03 -0.24064487731E+02  0.30490088197E+03  0.12500000000E+03 0.  0.
         21    1    1    2  503  501 -0.94557407182E+02 -0.27918896907E+03 -0.11011994668E+04  0.11399683545E+04  0.00000000000E+00 0. -1.
         -2    1    1    2    0  502  0.28845424234E+02  0.10037741032E+02 -0.11492983655E+03  0.11891880454E+03  0.00000000000E+00 0. -1.
<mgrwt>
<rscale>  4 0.30590450E+03</rscale>
<asrwt>0</asrwt>
<pdfrwt beam="1">  1       21 0.24891866E-01 0.30590450E+03</pdfrwt>
<pdfrwt beam="2">  1       -2 0.21569091E+00 0.30590450E+03</pdfrwt>
<totfact> 0.13961839E+02</totfact>
</mgrwt>
</event>
<event>
 5    0  0.1239749E+000  0.2651542E+03  0.7546771E-02  0.1104085E+00
         21   -1    0    0  501  502  0.00000000000E+00  0.00000000000E+00  0.24633464102E+03  0.24633464102E+03  0.00000000000E+00 0.  1.
          1   -1    0    0  503    0 -0.00000000000E+00 -0.00000000000E+00 -0.16396547976E+04  0.16396547976E+04  0.00000000000E+00 0. -1.
         25    1    1    2    0    0  0.23384836508E+03  0.58943785440E+02  0.14543265757E+03  0.30811537706E+03  0.12500000000E+03 0.  0.
         21    1    1    2  503  502 -0.19467068308E+03  0.23372667431E+02 -0.53162642120E+03  0.56663004523E+03  0.00000000000E+00 0. -1.
          1    1    1    2  501    0 -0.39177682003E+02 -0.82316452871E+02 -0.10071263929E+04  0.10112440163E+04  0.00000000000E+00 0. -1.
<mgrwt>
<rscale>  4 0.26515421E+03</rscale>
<asrwt>0</asrwt>
<pdfrwt beam="1">  1       21 0.37897638E-01 0.26515421E+03</pdfrwt>
<pdfrwt beam="2">  1        1 0.25225458E+00 0.26515421E+03</pdfrwt>
<totfact> 0.42257353E+02</totfact>
</mgrwt>
</event>
<event>
 5    0  0.1239749E+000  0.3508030E+03  0.7546771E-02  0.1062286E+00
         21   -1    0    0  503  502  0.00000000000E+00  0.00000000000E+00  0.11597014077E+04  0.11597014077E+04  0.00000000000E+00 0.  1.
         -4   -1    0    0    0  501 -0.00000000000E+00 -0.00000000000E+00 -0.68790196770E+03  0.68790196770E+03  0.00000000000E+00 0. -1.
         25    1    1    2    0    0  0.28142827028E+03  0.34741195564E+03  0.38500409224E+03  0.60311697811E+03  0.12500000000E+03 0.  0.
         21    1    1    2  503  501 -0.16600701200E+03 -0.24061555263E+03  0.62167294260E+03  0.68697264848E+03  0.00000000000E+00 0.  1.
         -4    1    1    2    0  502 -0.11542125828E+03 -0.10679640301E+03 -0.53487759488E+03  0.55751374877E+03  0.00000000000E+00 0. -1.
<mgrwt>
<rscale>  4 0.35080296E+03</rscale>
<asrwt>0</asrwt>
<pdfrwt beam="1">  1       21 0.17841560E+00 0.35080296E+03</pdfrwt>
<pdfrwt beam="2">  1       -4 0.10583107E+00 0.35080296E+03</pdfrwt>
<totfact> 0.53927079E+00</totfact>
</mgrwt>
</event>
<event>
 5    0  0.1239749E+000  0.2388499E+03  0.7546771E-02  0.1120561E+00
         21   -1    0    0  501  502  0.00000000000E+00  0.00000000000E+00  0.23647324426E+03  0.23647324426E+03  0.00000000000E+00 0. -1.
          1   -1    0    0  503    0 -0.00000000000E+00 -0.00000000000E+00 -0.91360650841E+03  0.91360650841E+03  0.00000000000E+00 0.  1.
         25    1    1    2    0    0  0.18402229569E+03  0.11771787659E+03 -0.62632681537E+02  0.25936375340E+03  0.12500000000E+03 0.  0.
         21    1    1    2  503  502  0.18787296900E+02 -0.94281498163E+02  0.10526398861E+03  0.14255690344E+03  0.00000000000E+00 0. -1.
          1    1    1    2  501    0 -0.20280959259E+03 -0.23436378429E+02 -0.71976457123E+03  0.74815909583E+03  0.00000000000E+00 0.  1.
<mgrwt>
<rscale>  4 0.23884985E+03</rscale>
<asrwt>0</asrwt>
<pdfrwt beam="1">  1       21 0.36380499E-01 0.23884985E+03</pdfrwt>
<pdfrwt beam="2">  1        1 0.14055485E+00 0.23884985E+03</pdfrwt>
<totfact> 0.14891075E+03</totfact>
</mgrwt>
</event>
<event>
 5    0  0.1239749E+000  0.2467075E+03  0.7546771E-02  0.1115403E+00
         21   -1    0    0  501  502  0.00000000000E+00  0.00000000000E+00  0.14012717499E+03  0.14012717499E+03  0.00000000000E+00 0.  1.
          2   -1    0    0  503    0 -0.00000000000E+00 -0.00000000000E+00 -0.20787768936E+04  0.20787768936E+04  0.00000000000E+00 0. -1.
         25    1    1    2    0    0 -0.21870322780E+03 -0.20945795296E+02 -0.10067382804E+03  0.27208463361E+03  0.12500000000E+03 0.  0.
         21    1    1    2  503  502  0.20628789895E+03 -0.22118910763E+02 -0.14469110279E+03  0.25294161123E+03  0.00000000000E+00 0.  1.
          2    1    1    2  501    0  0.12415328853E+02  0.43064706059E+02 -0.16932847878E+04  0.16938778238E+04  0.00000000000E+00 0. -1.
<mgrwt>
<rscale>  4 0.24670752E+03</rscale>
<asrwt>0</asrwt>
<pdfrwt beam="1">  1       21 0.21558029E-01 0.24670752E+03</pdfrwt>
<pdfrwt beam="2">  1        2 0.31981181E+00 0.24670752E+03</pdfrwt>
<totfact> 0.17038593E+03</totfact>
</mgrwt>
</event>
<event>
 5    0  0.1239749E+000  0.2225684E+03  0.7546771E-02  0.1131983E+00
          2   -1    0    0  503    0 -0.00000000000E+00  0.00000000000E+00  0.75730431004E+03  0.75730431004E+03  0.00000000000E+00 0.  1.
         21   -1    0    0  501  502  0.00000000000E+00 -0.00000000000E+00 -0.13636147410E+03  0.13636147410E+03  0.00000000000E+00 0.  1.
         25    1    1    2    0    0 -0.60826761941E+02  0.19920226234E+03  0.28563304422E+02  0.24458597394E+03  0.12500000000E+03 0.  0.
         21    1    1    2  503  502 -0.34423307233E+02 -0.11732062911E+03  0.17699314952E+03  0.21511780278E+03  0.00000000000E+00 0.  1.
          2    1    1    2  501    0  0.95250069175E+02 -0.81881633229E+02  0.41538638200E+03  0.43396200742E+03  0.00000000000E+00 0.  1.
<mgrwt>
<rscale>  4 0.22256838E+03</rscale>
<asrwt>0</asrwt>
<pdfrwt beam="1">  1       21 0.20978689E-01 0.22256838E+03</pdfrwt>
<pdfrwt beam="2">  1        2 0.11650835E+00 0.22256838E+03</pdfrwt>
<totfact> 0.10061707E+04</totfact>
</mgrwt>
</event>
<event>
 5    0  0.1239749E+000  0.2585944E+03  0.7546771E-02  0.1107991E+00
          2   -1    0    0  503    0 -0.00000000000E+00  0.00000000000E+00  0.24889169283E+04  0.24889169283E+04  0.00000000000E+00 0. -1.
         21   -1    0    0  501  502  0.00000000000E+00 -0.00000000000E+00 -0.77107974796E+02  0.77107974796E+02  0.00000000000E+00 0. -1.
         25    1    1    2    0    0 -0.67758132116E+02  0.27006632620E+03  0.96729567035E+03  0.10143041452E+04  0.12500000000E+03 0.  0.
         21    1    1    2  503  502  0.39196349216E+02 -0.21136253018E+03  0.16614980635E+03  0.27169142627E+03  0.00000000000E+00 0. -1.
          2    1    1    2  501    0  0.28561782900E+02 -0.58703796015E+02  0.12783634768E+04  0.12800293317E+04  0.00000000000E+00 0. -1.
<mgrwt>
<rscale>  4 0.25859440E+03</rscale>
<asrwt>0</asrwt>
<pdfrwt beam="1">  1       21 0.11862767E-01 0.25859440E+03</pdfrwt>
<pdfrwt beam="2">  1        2 0.38291024E+00 0.25859440E+03</pdfrwt>
<totfact> 0.30736794E+03</totfact>
</mgrwt>
</event>
<event>
 5    0  0.1239749E+000  0.5049143E+03  0.7546771E-02  0.1012504E+00
         21   -1    0    0  501  502  0.00000000000E+00  0.00000000000E+00  0.10044080942E+04  0.10044080942E+04  0.00000000000E+00 0.  1.
          2   -1    0    0  503    0 -0.00000000000E+00 -0.00000000000E+00 -0.31732943526E+04  0.31732943526E+04  0.00000000000E+00 0.  1.
         25    1    1    2    0    0  0.28191642410E+03  0.18890819678E+03  0.77930002226E+02  0.36994764796E+03  0.12500000000E+03 0.  0.
         21    1    1    2  503  502 -0.62956035104E+03 -0.12885456820E+03  0.63559001611E+03  0.90383870460E+03  0.00000000000E+00 0.  1.
          2    1    1    2  501    0  0.34764392695E+03 -0.60053628574E+02 -0.28824062768E+04  0.29039160943E+04  0.00000000000E+00 0.  1.
<mgrwt>
<rscale>  4 0.50491433E+03</rscale>
<asrwt>0</asrwt>
<pdfrwt beam="1">  1       21 0.15452432E+00 0.50491433E+03</pdfrwt>
<pdfrwt beam="2">  1        2 0.48819912E+00 0.50491433E+03</pdfrwt>
<totfact> 0.45353174E+00</totfact>
</mgrwt>
</event>
<event>
 5    0  0.1239749E+000  0.2524216E+03  0.7546771E-02  0.1111784E+00
          1   -1    0    0  503    0 -0.00000000000E+00  0.00000000000E+00  0.22821920706E+04  0.22821920706E+04  0.00000000000E+00 0.  1.
         21   -1    0    0  501  502  0.00000000000E+00 -0.00000000000E+00 -0.25716975880E+02  0.25716975880E+02  0.00000000000E+00 0.  1.
         25    1    1    2    0    0 -0.20038413667E+03  0.89094621413E+02  0.12466496142E+04  0.12719480785E+04  0.12500000000E+03 0.  0.
         21    1    1    2  503  502  0.17859192807E+03 -0.52471129059E+02  0.87420082722E+03  0.89379828958E+03  0.00000000000E+00 0.  1.
          1    1    1    2  501    0  0.21792208605E+02 -0.36623492354E+02  0.13562465334E+03  0.14216267844E+03  0.00000000000E+00 0.  1.
<mgrwt>
<rscale>  4 0.25242158E+03</rscale>
<asrwt>0</asrwt>
<pdfrwt beam="1">  1       21 0.39564596E-02 0.25242158E+03</pdfrwt>
<pdfrwt beam="2">  1        1 0.35110631E+00 0.25242158E+03</pdfrwt>
<totfact> 0.99137013E+03</totfact>
</mgrwt>
</event>
<event>
 5    0  0.1239749E+000  0.2689371E+03  0.7546771E-02  0.1101889E+00
         21   -1    0    0  501  502  0.00000000000E+00  0.00000000000E+00  0.23807549152E+03  0.23807549152E+03  0.00000000000E+00 0. -1.
          2   -1    0    0  503    0 -0.00000000000E+00 -0.00000000000E+00 -0.67425403695E+03  0.67425403695E+03  0.00000000000E+00 0. -1.
         25    1    1    2    0    0  0.26743539250E+03  0.80966299193E+02 -0.70548523699E+01  0.30618948660E+03  0.12500000000E+03 0.  0.
         21    1    1    2  503  502 -0.10799680913E+03  0.92976547267E+02 -0.34934784440E+02  0.14672555431E+03  0.00000000000E+00 0. -1.
          2    1    1    2  501    0 -0.15943858337E+03 -0.17394284646E+03 -0.39418890862E+03  0.45941448756E+03  0.00000000000E+00 0. -1.
<mgrwt>
<rscale>  4 0.26893708E+03</rscale>
<asrwt>0</asrwt>
<pdfrwt beam="1">  1       21 0.36626999E-01 0.26893708E+03</pdfrwt>
<pdfrwt beam="2">  1        2 0.10373139E+00 0.26893708E+03</pdfrwt>
<totfact> 0.38762522E+03</totfact>
</mgrwt>
</event>
<event>
 5    0  0.1239749E+000  0.2301951E+03  0.7546771E-02  0.1126503E+00
         21   -1    0    0  501  502  0.00000000000E+00  0.00000000000E+00  0.22593616746E+03  0.22593616746E+03  0.00000000000E+00 0. -1.
          2   -1    0    0  503    0 -0.00000000000E+00 -0.00000000000E+00 -0.88349846014E+03  0.88349846014E+03  0.00000000000E+00 0. -1.
         25    1    1    2    0    0 -0.33157451847E+02 -0.20677999007E+03  0.62951711499E+02  0.25188350261E+03  0.12500000000E+03 0.  0.
         21    1    1    2  503  502 -0.72363262444E+01  0.17569975644E+03 -0.46878106070E+02  0.18198990538E+03  0.00000000000E+00 0. -1.
          2    1    1    2  501    0  0.40393778092E+02  0.31080233625E+02 -0.67363589810E+03  0.67556121961E+03  0.00000000000E+00 0. -1.
<mgrwt>
<rscale>  4 0.23019511E+03</rscale>
<asrwt>0</asrwt>
<pdfrwt beam="1">  1       21 0.34759410E-01 0.23019511E+03</pdfrwt>
<pdfrwt beam="2">  1        2 0.13592284E+00 0.23019511E+03</pdfrwt>
<totfact> 0.31015749E+03</totfact>
</mgrwt>
</event>
<event>
 5    0  0.1239749E+000  0.3687890E+03  0.7546771E-02  0.1055157E+00
          2   -1    0    0  503    0 -0.00000000000E+00  0.00000000000E+00  0.16787970770E+04  0.16787970770E+04  0.00000000000E+00 0.  1.
         21   -1    0    0  501  502  0.00000000000E+00 -0.00000000000E+00 -0.59623452610E+03  0.59623452610E+03  0.00000000000E+00 0. -1.
         25    1    1    2    0    0  0.14717111474E+00  0.24650073759E+03 -0.48482194155E+02  0.28060320462E+03  0.12500000000E+03 0.  0.
         21    1    1    2  503  502 -0.97356008319E+02 -0.44766994465E+03 -0.29897624931E+03  0.54705883536E+03  0.00000000000E+00 0. -1.
          2    1    1    2  501    0  0.97208837204E+02  0.20116920706E+03  0.14300209944E+04  0.14473695632E+04  0.00000000000E+00 0.  1.
<mgrwt>
<rscale>  4 0.36878905E+03</rscale>
<asrwt>0</asrwt>
<pdfrwt beam="1">  1       21 0.91728389E-01 0.36878905E+03</pdfrwt>
<pdfrwt beam="2">  1        2 0.25827647E+00 0.36878905E+03</pdfrwt>
<totfact> 0.12641514E+02</totfact>
</mgrwt>
</event>
<event>
 5    0  0.1239749E+000  0.7034288E+03  0.7546771E-02  0.9711386E-01
          2   -1    0    0  503    0 -0.00000000000E+00  0.00000000000E+00  0.19728187093E+04  0.19728187093E+04  0.00000000000E+00 0. -1.
         21   -1    0    0  501  502  0.00000000000E+00 -0.00000000000E+00 -0.14463103987E+04  0.14463103987E+04  0.00000000000E+00 0. -1.
         25    1    1    2    0    0  0.15386533952E+03  0.67366841073E+03 -0.12562547312E+04  0.14392027724E+04  0.12500000000E+03 0.  0.
         21    1    1    2  503  502 -0.17171670546E+03 -0.68828342776E+03  0.11806576729E+04  0.13773791215E+04  0.00000000000E+00 0. -1.
          2    1    1    2  501    0  0.17851365946E+02  0.14615017026E+02  0.60210536894E+03  0.60254721417E+03  0.00000000000E+00 0. -1.
<mgrwt>
<rscale>  4 0.70342875E+03</rscale>
<asrwt>0</asrwt>
<pdfrwt beam="1">  1       21 0.22250929E+00 0.70342875E+03</pdfrwt>
<pdfrwt beam="2">  1        2 0.30351057E+00 0.70342875E+03</pdfrwt>
<totfact> 0.67702592E+00</totfact>
</mgrwt>
</event>
<event>
 5    0  0.1239749E+000  0.2321509E+03  0.7546771E-02  0.1125135E+00
         21   -1    0    0  501  502  0.00000000000E+00  0.00000000000E+00  0.23351175840E+03  0.23351175840E+03  0.00000000000E+00 0.  1.
          1   -1    0    0  503    0 -0.00000000000E+00 -0.00000000000E+00 -0.30640392202E+03  0.30640392202E+03  0.00000000000E+00 0.  1.
         25    1    1    2    0    0  0.11904896270E+03 -0.16775393313E+03  0.78898983237E+02  0.25330631093E+03  0.12500000000E+03 0.  0.
         21    1    1    2  503  502 -0.13190575699E+03  0.12570887131E+03 -0.72823893783E+02  0.19622733897E+03  0.00000000000E+00 0.  1.
          1    1    1    2  501    0  0.12856794284E+02  0.42045061811E+02 -0.78967253084E+02  0.90382030524E+02  0.00000000000E+00 0.  1.
<mgrwt>
<rscale>  4 0.23215093E+03</rscale>
<asrwt>0</asrwt>
<pdfrwt beam="1">  1       21 0.35924886E-01 0.23215093E+03</pdfrwt>
<pdfrwt beam="2">  1        1 0.47139065E-01 0.23215093E+03</pdfrwt>
<totfact> 0.69029116E+03</totfact>
</mgrwt>
</event>
<event>
 5    0  0.1239749E+000  0.2167182E+03  0.7546771E-02  0.1136354E+00
         21   -1    0    0  501  502  0.00000000000E+00  0.00000000000E+00  0.12444714394E+04  0.12444714394E+04  0.00000000000E+00 0. -1.
          1   -1    0    0  503    0 -0.00000000000E+00 -0.00000000000E+00 -0.59367385098E+03  0.59367385098E+03  0.00000000000E+00 0.  1.
         25    1    1    2    0    0  0.23588277291E+03 -0.21964893196E+02  0.85460097578E+03  0.89559531424E+03  0.12500000000E+03 0.  0.
         21    1    1    2  503  502 -0.93235345374E+02 -0.82158595677E+02  0.34464680312E+03  0.36636632401E+03  0.00000000000E+00 0. -1.
          1    1    1    2  501    0 -0.14264742753E+03  0.10412348887E+03 -0.54845019049E+03  0.57618365212E+03  0.00000000000E+00 0.  1.
<mgrwt>
<rscale>  4 0.21671821E+03</rscale>
<asrwt>0</asrwt>
<pdfrwt beam="1">  1       21 0.19145714E+00 0.21671821E+03</pdfrwt>
<pdfrwt beam="2">  1        1 0.91334439E-01 0.21671821E+03</pdfrwt>
<totfact> 0.59025920E+01</totfact>
</mgrwt>
</event>
<event>
 5    0  0.1239749E+000  0.2079601E+03  0.7546771E-02  0.1143192E+00
         21   -1    0    0  503  502  0.00000000000E+00  0.00000000000E+00  0.27953293675E+03  0.27953293675E+03  0.00000000000E+00 0.  1.
         -4   -1    0    0    0  501 -0.00000000000E+00 -0.00000000000E+00 -0.84037051037E+03  0.84037051037E+03  0.00000000000E+00 0. -1.
         25    1    1    2    0    0  0.20025469330E+03 -0.38981094399E+02 -0.19959877098E+02  0.24009344973E+03  0.12500000000E+03 0.  0.
         21    1    1    2  503  501 -0.15526070697E+03  0.14309776844E+02  0.13241847011E+03  0.20456125750E+03  0.00000000000E+00 0.  1.
         -4    1    1    2    0  502 -0.44993986329E+02  0.24671317556E+02 -0.67329616664E+03  0.67524873989E+03  0.00000000000E+00 0. -1.
<mgrwt>
<rscale>  4 0.20796005E+03</rscale>
<asrwt>0</asrwt>
<pdfrwt beam="1">  1       21 0.43005068E-01 0.20796005E+03</pdfrwt>
<pdfrwt beam="2">  1       -4 0.12928777E+00 0.20796005E+03</pdfrwt>
<totfact> 0.10059927E+02</totfact>
</mgrwt>
</event>
<event>
 5    0  0.1239749E+000  0.2600417E+03  0.7546771E-02  0.1107118E+00
         21   -1    0    0  501  502  0.00000000000E+00  0.00000000000E+00  0.44619369138E+03  0.44619369138E+03  0.00000000000E+00 0. -1.
          1   -1    0    0  503    0 -0.00000000000E+00 -0.00000000000E+00 -0.85804878117E+03  0.85804878117E+03  0.00000000000E+00 0.  1.
         25    1    1    2    0    0  0.12216690321E+03  0.26391533909E+03  0.23636496654E+03  0.39505626922E+03  0.12500000000E+03 0.  0.
         21    1    1    2  503  502 -0.12842706304E+03 -0.12860330336E+03  0.57466558087E+02  0.19061669773E+03  0.00000000000E+00 0. -1.
          1    1    1    2  501    0  0.62601598300E+01 -0.13531203573E+03 -0.70568661442E+03  0.71856950560E+03  0.00000000000E+00 0.  1.
<mgrwt>
<rscale>  4 0.26004174E+03</rscale>
<asrwt>0</asrwt>
<pdfrwt beam="1">  1       21 0.68645184E-01 0.26004174E+03</pdfrwt>
<pdfrwt beam="2">  1        1 0.13200750E+00 0.26004174E+03</pdfrwt>
<totfact> 0.42947835E+02</totfact>
</mgrwt>
</event>
<event>
 5    0  0.1239749E+000  0.2942922E+03  0.7546771E-02  0.1088129E+00
         21   -1    0    0  501  502  0.00000000000E+00  0.00000000000E+00  0.94422848935E+02  0.94422848935E+02  0.00000000000E+00 0. -1.
          1   -1    0    0  503    0 -0.00000000000E+00 -0.00000000000E+00 -0.14220588323E+04  0.14220588323E+04  0.00000000000E+00 0. -1.
         25    1    1    2    0    0 -0.16600081125E+03  0.24820160921E+03 -0.70489480595E+03  0.77566874090E+03  0.12500000000E+03 0.  0.
         21    1    1    2  503  502 -0.15254724734E+02 -0.79671752960E+02 -0.12222603299E+02  0.82034668756E+02  0.00000000000E+00 0. -1.
          1    1    1    2  501    0  0.18125553598E+03 -0.16852985625E+03 -0.61051857413E+03  0.65877827159E+03  0.00000000000E+00 0. -1.
<mgrwt>
<rscale>  4 0.29429225E+03</rscale>
<asrwt>0</asrwt>
<pdfrwt beam="1">  1       21 0.14526592E-01 0.29429225E+03</pdfrwt>
<pdfrwt beam="2">  1        1 0.21877828E+00 0.29429225E+03</pdfrwt>
<totfact> 0.36614413E+03</totfact>
</mgrwt>
</event>
<event>
 5    0  0.1239749E+000  0.3211684E+03  0.7546771E-02  0.1075113E+00
         21   -1    0    0  501  502  0.00000000000E+00  0.00000000000E+00  0.23423309398E+03  0.23423309398E+03  0.00000000000E+00 0.  1.
          1   -1    0    0  503    0 -0.00000000000E+00 -0.00000000000E+00 -0.73846849507E+03  0.73846849507E+03  0.00000000000E+00 0.  1.
         25    1    1    2    0    0  0.80946802944E+02 -0.25783426441E+03 -0.21290806579E+03  0.36604062246E+03  0.12500000000E+03 0.  0.
         21    1    1    2  503  502  0.54114297462E+02  0.32158504030E+03 -0.60409681777E+02  0.33165437580E+03  0.00000000000E+00 0.  1.
          1    1    1    2  501    0 -0.13506110041E+03 -0.63750775891E+02 -0.23091765352E+03  0.27500659079E+03  0.00000000000E+00 0.  1.
<mgrwt>
<rscale>  4 0.32116841E+03</rscale>
<asrwt>0</asrwt>
<pdfrwt beam="1">  1       21 0.36035860E-01 0.32116841E+03</pdfrwt>
<pdfrwt beam="2">  1        1 0.11361054E+00 0.32116841E+03</pdfrwt>
<totfact> 0.20589003E+03</totfact>
</mgrwt>
</event>
<event>
 5    0  0.1239749E+000  0.2926170E+03  0.7546771E-02  0.1088991E+00
         21   -1    0    0  501  502  0.00000000000E+00  0.00000000000E+00  0.14646055347E+03  0.14646055347E+03  0.00000000000E+00 0.  1.
          3   -1    0    0  503    0 -0.00000000000E+00 -0.00000000000E+00 -0.16306134872E+04  0.16306134872E+04  0.00000000000E+00 0.  1.
         25    1    1    2    0    0  0.11963083427E+02 -0.28587378631E+03 -0.22701287608E+03  0.38603987225E+03  0.12500000000E+03 0.  0.
         21    1    1    2  503  502 -0.90246029197E+02  0.17100068118E+03 -0.12352728418E+04  0.12503137896E+04  0.00000000000E+00 0.  1.
          3    1    1    2  501    0  0.78282945770E+02  0.11487310513E+03 -0.21867215809E+02  0.14072037879E+03  0.00000000000E+00 0.  1.
<mgrwt>
<rscale>  4 0.29261700E+03</rscale>
<asrwt>0</asrwt>
<pdfrwt beam="1">  1       21 0.22532392E-01 0.29261700E+03</pdfrwt>
<pdfrwt beam="2">  1        3 0.25086362E+00 0.29261700E+03</pdfrwt>
<totfact> 0.72681016E+01</totfact>
</mgrwt>
</event>
<event>
 5    0  0.1239749E+000  0.2399479E+03  0.7546771E-02  0.1119828E+00
         21   -1    0    0  503  502  0.00000000000E+00  0.00000000000E+00  0.79342147794E+02  0.79342147794E+02  0.00000000000E+00 0. -1.
         -1   -1    0    0    0  501 -0.00000000000E+00 -0.00000000000E+00 -0.10509308237E+04  0.10509308237E+04  0.00000000000E+00 0.  1.
         25    1    1    2    0    0 -0.15777199836E+03  0.13557420800E+03 -0.16704054378E+03  0.29461824894E+03  0.12500000000E+03 0.  0.
         21    1    1    2  503  501  0.27101090295E+02  0.10336974534E+02 -0.79907756196E+02  0.85009244427E+02  0.00000000000E+00 0.  1.
         -1    1    1    2    0  502  0.13067090807E+03 -0.14591118253E+03 -0.72464037591E+03  0.75064547810E+03  0.00000000000E+00 0.  1.
<mgrwt>
<rscale>  4 0.23994789E+03</rscale>
<asrwt>0</asrwt>
<pdfrwt beam="1">  1       21 0.12206485E-01 0.23994789E+03</pdfrwt>
<pdfrwt beam="2">  1       -1 0.16168165E+00 0.23994789E+03</pdfrwt>
<totfact> 0.16443702E+03</totfact>
</mgrwt>
</event>
<event>
 5    0  0.1239749E+000  0.2997077E+03  0.7546771E-02  0.1085387E+00
          2   -1    0    0  503    0 -0.00000000000E+00  0.00000000000E+00  0.26599150526E+04  0.26599150526E+04  0.00000000000E+00 0.  1.
         21   -1    0    0  501  502  0.00000000000E+00 -0.00000000000E+00 -0.11454415352E+03  0.11454415352E+03  0.00000000000E+00 0.  1.
         25    1    1    2    0    0 -0.27054213198E+03 -0.12075576319E+03  0.31050804447E+03  0.44700698563E+03  0.12500000000E+03 0.  0.
         21    1    1    2  503  502  0.27227302115E+03 -0.16153386948E+03  0.72024687416E+03  0.78675367732E+03  0.00000000000E+00 0.  1.
          2    1    1    2  501    0 -0.17308891747E+01  0.28228963267E+03  0.15146159805E+04  0.15406985432E+04  0.00000000000E+00 0.  1.
<mgrwt>
<rscale>  4 0.29970771E+03</rscale>
<asrwt>0</asrwt>
<pdfrwt beam="1">  1       21 0.17622179E-01 0.29970771E+03</pdfrwt>
<pdfrwt beam="2">  1        2 0.40921765E+00 0.29970771E+03</pdfrwt>
<totfact> 0.11740686E+03</totfact>
</mgrwt>
</event>
<event>
 5    0  0.1239749E+000  0.2612639E+03  0.7546771E-02  0.1106386E+00
          2   -1    0    0  503    0 -0.00000000000E+00  0.00000000000E+00  0.15608157729E+04  0.15608157729E+04  0.00000000000E+00 0. -1.
         21   -1    0    0  501  502  0.00000000000E+00 -0.00000000000E+00 -0.14186673376E+03  0.14186673376E+03  0.00000000000E+00 0. -1.
         25    1    1    2    0    0 -0.19745356374E+03 -0.11533050667E+03  0.30786608573E+02  0.26241541660E+03  0.12500000000E+03 0.  0.
         21    1    1    2  503  502  0.26025791978E+03  0.12026375058E+02  0.10207613719E+04  0.10534859263E+04  0.00000000000E+00 0. -1.
          2    1    1    2  501    0 -0.62804356040E+02  0.10330413161E+03  0.36740105866E+03  0.38678116377E+03  0.00000000000E+00 0. -1.
<mgrwt>
<rscale>  4 0.26126386E+03</rscale>
<asrwt>0</asrwt>
<pdfrwt beam="1">  1       21 0.21825652E-01 0.26126386E+03</pdfrwt>
<pdfrwt beam="2">  1        2 0.24012549E+00 0.26126386E+03</pdfrwt>
<totfact> 0.30957593E+03</totfact>
</mgrwt>
</event>
<event>
 5    0  0.1239749E+000  0.2278908E+03  0.7546771E-02  0.1128133E+00
         21   -1    0    0  503  502  0.00000000000E+00  0.00000000000E+00  0.24923460913E+03  0.24923460913E+03  0.00000000000E+00 0. -1.
         -4   -1    0    0    0  501 -0.00000000000E+00 -0.00000000000E+00 -0.11106961958E+04  0.11106961958E+04  0.00000000000E+00 0.  1.
         25    1    1    2    0    0  0.15724885207E+03  0.18720273356E+03 -0.14356913689E+03  0.30985345245E+03  0.12500000000E+03 0.  0.
         21    1    1    2  503  501 -0.10305423921E+03 -0.14649890398E+03  0.11602491604E+03  0.21341013619E+03  0.00000000000E+00 0. -1.
         -4    1    1    2    0  502 -0.54194612864E+02 -0.40703829572E+02 -0.83391736582E+03  0.83666721629E+03  0.00000000000E+00 0.  1.
<mgrwt>
<rscale>  4 0.22789076E+03</rscale>
<asrwt>0</asrwt>
<pdfrwt beam="1">  1       21 0.38343787E-01 0.22789076E+03</pdfrwt>
<pdfrwt beam="2">  1       -4 0.17087634E+00 0.22789076E+03</pdfrwt>
<totfact> 0.61479917E+01</totfact>
</mgrwt>
</event>
<event>
 5    0  0.1239749E+000  0.2199682E+03  0.7546771E-02  0.1133907E+00
         21   -1    0    0  501  502  0.00000000000E+00  0.00000000000E+00  0.15007402780E+03  0.15007402780E+03  0.00000000000E+00 0.  1.
          2   -1    0    0  503    0 -0.00000000000E+00 -0.00000000000E+00 -0.16448137283E+04  0.16448137283E+04  0.00000000000E+00 0. -1.
         25    1    1    2    0    0 -0.21116822889E+02 -0.20465629447E+03 -0.14149607907E+03  0.27924229527E+03  0.12500000000E+03 0.  0.
         21    1    1    2  503  502  0.39406941664E+02  0.16626786784E+03 -0.94032648605E+01  0.17113249930E+03  0.00000000000E+00 0.  1.
          2    1    1    2  501    0 -0.18290118775E+02  0.38388426632E+02 -0.13438403566E+04  0.13445129615E+04  0.00000000000E+00 0. -1.
<mgrwt>
<rscale>  4 0.21996822E+03</rscale>
<asrwt>0</asrwt>
<pdfrwt beam="1">  1       21 0.23088312E-01 0.21996822E+03</pdfrwt>
<pdfrwt beam="2">  1        2 0.25304827E+00 0.21996822E+03</pdfrwt>
<totfact> 0.25584355E+03</totfact>
</mgrwt>
</event>
<event>
 5    0  0.1239749E+000  0.2607699E+03  0.7546771E-02  0.1106682E+00
          2   -1    0    0  503    0 -0.00000000000E+00  0.00000000000E+00  0.83871255428E+03  0.83871255428E+03  0.00000000000E+00 0.  1.
         21   -1    0    0  501  502  0.00000000000E+00 -0.00000000000E+00 -0.23806775006E+03  0.23806775006E+03  0.00000000000E+00 0. -1.
         25    1    1    2    0    0  0.21302495225E+03  0.80495224989E+02 -0.12590219135E+03  0.28867884113E+03  0.12500000000E+03 0.  0.
         21    1    1    2  503  502 -0.57203947016E+01  0.44887348652E+02  0.41215184051E+02  0.61206930824E+02  0.00000000000E+00 0.  1.
          2    1    1    2  501    0 -0.20730455755E+03 -0.12538257364E+03  0.68533181151E+03  0.72689453239E+03  0.00000000000E+00 0.  1.
<mgrwt>
<rscale>  4 0.26076992E+03</rscale>
<asrwt>0</asrwt>
<pdfrwt beam="1">  1       21 0.36625808E-01 0.26076992E+03</pdfrwt>
<pdfrwt beam="2">  1        2 0.12903270E+00 0.26076992E+03</pdfrwt>
<totfact> 0.29583083E+03</totfact>
</mgrwt>
</event>
<event>
 5    0  0.1239749E+000  0.3898878E+03  0.7546771E-02  0.1047339E+00
         21   -1    0    0  501  502  0.00000000000E+00  0.00000000000E+00  0.27981010566E+03  0.27981010566E+03  0.00000000000E+00 0.  1.
          2   -1    0    0  503    0 -0.00000000000E+00 -0.00000000000E+00 -0.11670531525E+04  0.11670531525E+04  0.00000000000E+00 0.  1.
         25    1    1    2    0    0  0.26344388255E+03 -0.10553963247E+03 -0.49277108693E+03  0.58222816609E+03  0.12500000000E+03 0.  0.
         21    1    1    2  503  502 -0.40693174916E+03 -0.17210455829E+02  0.21445554212E+02  0.40785973087E+03  0.00000000000E+00 0.  1.
          2    1    1    2  501    0  0.14348786661E+03  0.12275008830E+03 -0.41591751414E+03  0.45677536121E+03  0.00000000000E+00 0.  1.
<mgrwt>
<rscale>  4 0.38988780E+03</rscale>
<asrwt>0</asrwt>
<pdfrwt beam="1">  1       21 0.43047709E-01 0.38988780E+03</pdfrwt>
<pdfrwt beam="2">  1        2 0.17954664E+00 0.38988780E+03</pdfrwt>
<totfact> 0.12768258E+03</totfact>
</mgrwt>
</event>
<event>
 5    0  0.1239749E+000  0.2495496E+03  0.7546771E-02  0.1113590E+00
         21   -1    0    0  501  502  0.00000000000E+00  0.00000000000E+00  0.45662676895E+03  0.45662676895E+03  0.00000000000E+00 0.  1.
          2   -1    0    0  503    0 -0.00000000000E+00 -0.00000000000E+00 -0.23351716719E+04  0.23351716719E+04  0.00000000000E+00 0. -1.
         25    1    1    2    0    0  0.39562107411E+02 -0.24377823344E+03  0.26273080234E+03  0.38163524725E+03  0.12500000000E+03 0.  0.
         21    1    1    2  503  502 -0.23110150180E+02  0.18189656727E+03  0.71246768958E+02  0.19671436733E+03  0.00000000000E+00 0.  1.
          2    1    1    2  501    0 -0.16451957231E+02  0.61881666165E+02 -0.22125224743E+04  0.22134488263E+04  0.00000000000E+00 0. -1.
<mgrwt>
<rscale>  4 0.24954965E+03</rscale>
<asrwt>0</asrwt>
<pdfrwt beam="1">  1       21 0.70250273E-01 0.24954965E+03</pdfrwt>
<pdfrwt beam="2">  1        2 0.35925717E+00 0.24954965E+03</pdfrwt>
<totfact> 0.11226771E+02</totfact>
</mgrwt>
</event>
<event>
 5    0  0.1239749E+000  0.2896849E+03  0.7546771E-02  0.1090514E+00
         21   -1    0    0  501  502  0.00000000000E+00  0.00000000000E+00  0.85325558752E+03  0.85325558752E+03  0.00000000000E+00 0.  1.
          1   -1    0    0  503    0 -0.00000000000E+00 -0.00000000000E+00 -0.48918340302E+03  0.48918340302E+03  0.00000000000E+00 0. -1.
         25    1    1    2    0    0  0.21780720427E+03 -0.99544908292E+02 -0.28107544409E+02  0.27159565728E+03  0.12500000000E+03 0.  0.
         21    1    1    2  503  502 -0.24290957145E+03  0.10550262396E+03  0.70699703282E+03  0.75497064047E+03  0.00000000000E+00 0.  1.
          1    1    1    2  501    0  0.25102367180E+02 -0.59577156636E+01 -0.31481730391E+03  0.31587269280E+03  0.00000000000E+00 0. -1.
<mgrwt>
<rscale>  4 0.28968490E+03</rscale>
<asrwt>0</asrwt>
<pdfrwt beam="1">  1       21 0.13127009E+00 0.28968490E+03</pdfrwt>
<pdfrwt beam="2">  1        1 0.75258985E-01 0.28968490E+03</pdfrwt>
<totfact> 0.20384419E+02</totfact>
</mgrwt>
</event>
<event>
 5    0  0.1239749E+000  0.2972920E+03  0.7546771E-02  0.1086602E+00
          2   -1    0    0  503    0 -0.00000000000E+00  0.00000000000E+00  0.17702381205E+03  0.17702381205E+03  0.00000000000E+00 0.  1.
         21   -1    0    0  501  502  0.00000000000E+00 -0.00000000000E+00 -0.13053125779E+04  0.13053125779E+04  0.00000000000E+00 0. -1.
         25    1    1    2    0    0 -0.13289991716E+03 -0.23060724182E+03 -0.11002698147E+04  0.11388857506E+04  0.12500000000E+03 0.  0.
         21    1    1    2  503  502  0.13537592389E+03  0.25839241835E+03 -0.63277386648E+02  0.29849172567E+03  0.00000000000E+00 0. -1.
          2    1    1    2  501    0 -0.24760067306E+01 -0.27785176528E+02  0.35258435464E+02  0.44958913637E+02  0.00000000000E+00 0.  1.
<mgrwt>
<rscale>  4 0.29729203E+03</rscale>
<asrwt>0</asrwt>
<pdfrwt beam="1">  1       21 0.20081732E+00 0.29729203E+03</pdfrwt>
<pdfrwt beam="2">  1        2 0.27234432E-01 0.29729203E+03</pdfrwt>
<totfact> 0.29785403E+02</totfact>
</mgrwt>
</event>
<event>
 5    0  0.1239749E+000  0.3231131E+03  0.7546771E-02  0.1074225E+00
         21   -1    0    0  501  502  0.00000000000E+00  0.00000000000E+00  0.61101472309E+03  0.61101472309E+03  0.00000000000E+00 0.  1.
          2   -1    0    0  503    0 -0.00000000000E+00 -0.00000000000E+00 -0.44997388624E+03  0.44997388624E+03  0.00000000000E+00 0. -1.
         25    1    1    2    0    0  0.28105869873E+03  0.10488513199E+03  0.32853134963E+03  0.46211765897E+03  0.12500000000E+03 0.  0.
         21    1    1    2  503  502 -0.29046204818E+03 -0.61183793787E+02  0.11092861706E+03  0.31688612488E+03  0.00000000000E+00 0.  1.
          2    1    1    2  501    0  0.94033494556E+01 -0.43701338204E+02 -0.27841912984E+03  0.28198482549E+03  0.00000000000E+00 0. -1.
<mgrwt>
<rscale>  4 0.32311315E+03</rscale>
<asrwt>0</asrwt>
<pdfrwt beam="1">  1       21 0.94002265E-01 0.32311315E+03</pdfrwt>
<pdfrwt beam="2">  1        2 0.69226752E-01 0.32311315E+03</pdfrwt>
<totfact> 0.78458161E+02</totfact>
</mgrwt>
</event>
<event>
 5    0  0.1239749E+000  0.2817554E+03  0.7546771E-02  0.1094734E+00
         21   -1    0    0  503  502  0.00000000000E+00  0.00000000000E+00  0.10378980846E+04  0.10378980846E+04  0.00000000000E+00 0.  1.
         -1   -1    0    0    0  501 -0.00000000000E+00 -0.00000000000E+00 -0.27913593763E+03  0.27913593763E+03  0.00000000000E+00 0.  1.
         25    1    1    2    0    0 -0.19351321690E+03 -0.10151792900E+03  0.53450534191E+03  0.59082502956E+03  0.12500000000E+03 0.  0.
         21    1    1    2  503  501  0.68765903076E+02 -0.12786867341E+03  0.39053345499E+03  0.41664796475E+03  0.00000000000E+00 0.  1.
         -1    1    1    2    0  502  0.12474731382E+03  0.22938660241E+03 -0.16627664996E+03  0.30956102790E+03  0.00000000000E+00 0.  1.
<mgrwt>
<rscale>  4 0.28175537E+03</rscale>
<asrwt>0</asrwt>
<pdfrwt beam="1">  1       21 0.15967663E+00 0.28175537E+03</pdfrwt>
<pdfrwt beam="2">  1       -1 0.42943991E-01 0.28175537E+03</pdfrwt>
<totfact> 0.11971924E+02</totfact>
</mgrwt>
</event>
<event>
 5    0  0.1239749E+000  0.2945412E+03  0.7546771E-02  0.1088002E+00
         21   -1    0    0  503  502  0.00000000000E+00  0.00000000000E+00  0.40710231341E+03  0.40710231341E+03  0.00000000000E+00 0. -1.
         -1   -1    0    0    0  501 -0.00000000000E+00 -0.00000000000E+00 -0.64450800830E+03  0.64450800830E+03  0.00000000000E+00 0. -1.
         25    1    1    2    0    0  0.43449235093E+02 -0.26375438712E+03  0.27330359472E+03  0.40221147129E+03  0.12500000000E+03 0.  0.
         21    1    1    2  503  501 -0.23079963727E+02  0.26390800179E+03 -0.18515185565E+03  0.32320477686E+03  0.00000000000E+00 0. -1.
         -1    1    1    2    0  502 -0.20369271366E+02 -0.15361467214E+00 -0.32555743397E+03  0.32619407356E+03  0.00000000000E+00 0. -1.
<mgrwt>
<rscale>  4 0.29454122E+03</rscale>
<asrwt>0</asrwt>
<pdfrwt beam="1">  1       21 0.62631126E-01 0.29454122E+03</pdfrwt>
<pdfrwt beam="2">  1       -1 0.99155077E-01 0.29454122E+03</pdfrwt>
<totfact> 0.21666466E+02</totfact>
</mgrwt>
</event>
<event>
 5    0  0.1239749E+000  0.2985797E+03  0.7546771E-02  0.1085953E+00
          2   -1    0    0  503    0 -0.00000000000E+00  0.00000000000E+00  0.64990779339E+03  0.64990779339E+03  0.00000000000E+00 0. -1.
         21   -1    0    0  501  502  0.00000000000E+00 -0.00000000000E+00 -0.57552416852E+03  0.57552416852E+03  0.00000000000E+00 0. -1.
         25    1    1    2    0    0  0.16666228928E+03 -0.21995907005E+03 -0.47651154321E+03  0.56466499978E+03  0.12500000000E+03 0.  0.
         21    1    1    2  503  502 -0.15988817256E+03  0.18166589384E+03  0.21833241640E+03  0.32593828980E+03  0.00000000000E+00 0. -1.
          2    1    1    2  501    0 -0.67741167201E+01  0.38293176218E+02  0.33256275169E+03  0.33482867233E+03  0.00000000000E+00 0. -1.
<mgrwt>
<rscale>  4 0.29857966E+03</rscale>
<asrwt>0</asrwt>
<pdfrwt beam="1">  1       21 0.88542179E-01 0.29857966E+03</pdfrwt>
<pdfrwt beam="2">  1        2 0.99985815E-01 0.29857966E+03</pdfrwt>
<totfact> 0.59730578E+02</totfact>
</mgrwt>
</event>
<event>
 5    0  0.1239749E+000  0.2820511E+03  0.7546771E-02  0.1094574E+00
         21   -1    0    0  501  502  0.00000000000E+00  0.00000000000E+00  0.35523486032E+03  0.35523486032E+03  0.00000000000E+00 0.  1.
          2   -1    0    0  503    0 -0.00000000000E+00 -0.00000000000E+00 -0.15133624607E+04  0.15133624607E+04  0.00000000000E+00 0. -1.
         25    1    1    2    0    0  0.18075044193E+03 -0.15792139800E+03  0.17442674109E+03  0.32196207574E+03  0.12500000000E+03 0.  0.
         21    1    1    2  503  502 -0.36174223804E+03  0.37457421707E+02 -0.24724233429E+03  0.43976047695E+03  0.00000000000E+00 0. -1.
          2    1    1    2  501    0  0.18099179611E+03  0.12046397630E+03 -0.10853120072E+04  0.11068747683E+04  0.00000000000E+00 0. -1.
<mgrwt>
<rscale>  4 0.28205112E+03</rscale>
<asrwt>0</asrwt>
<pdfrwt beam="1">  1       21 0.54651515E-01 0.28205112E+03</pdfrwt>
<pdfrwt beam="2">  1        2 0.23282500E+00 0.28205112E+03</pdfrwt>
<totfact> 0.51663707E+02</totfact>
</mgrwt>
</event>
<event>
 5    0  0.1239749E+000  0.2450581E+03  0.7546771E-02  0.1116468E+00
          2   -1    0    0  503    0 -0.00000000000E+00  0.00000000000E+00  0.35022678715E+04  0.35022678715E+04  0.00000000000E+00 0.  1.
         21   -1    0    0  501  502  0.00000000000E+00 -0.00000000000E+00 -0.28933389992E+02  0.28933389992E+02  0.00000000000E+00 0.  1.
         25    1    1    2    0    0  0.10087522694E+03 -0.20703325440E+03  0.88193663796E+03  0.92004120191E+03  0.12500000000E+03 0.  0.
         21    1    1    2  503  502 -0.40796451022E+02  0.18792040528E+03  0.98894247246E+03  0.10074649587E+04  0.00000000000E+00 0.  1.
          2    1    1    2  501    0 -0.60078775922E+02  0.19112849125E+02  0.16024553711E+04  0.16036951009E+04  0.00000000000E+00 0.  1.
<mgrwt>
<rscale>  4 0.24505807E+03</rscale>
<asrwt>0</asrwt>
<pdfrwt beam="1">  1       21 0.44512935E-02 0.24505807E+03</pdfrwt>
<pdfrwt beam="2">  1        2 0.53881011E+00 0.24505807E+03</pdfrwt>
<totfact> 0.42626413E+03</totfact>
</mgrwt>
</event>
<event>
 5    0  0.1239749E+000  0.3357798E+03  0.7546771E-02  0.1068608E+00
         21   -1    0    0  501  502  0.00000000000E+00  0.00000000000E+00  0.84753013446E+02  0.84753013446E+02  0.00000000000E+00 0. -1.
          2   -1    0    0  503    0 -0.00000000000E+00 -0.00000000000E+00 -0.26188035917E+04  0.26188035917E+04  0.00000000000E+00 0. -1.
         25    1    1    2    0    0  0.95322754297E+02  0.29076901509E+03 -0.56947729636E+03  0.65845458362E+03  0.12500000000E+03 0.  0.
         21    1    1    2  503  502 -0.79611091581E+02 -0.30761244568E+03 -0.58821357424E+03  0.66854958796E+03  0.00000000000E+00 0. -1.
          2    1    1    2  501    0 -0.15711662717E+02  0.16843430588E+02 -0.13763597076E+04  0.13765524335E+04  0.00000000000E+00 0. -1.
<mgrwt>
<rscale>  4 0.33577976E+03</rscale>
<asrwt>0</asrwt>
<pdfrwt beam="1">  1       21 0.13038925E-01 0.33577976E+03</pdfrwt>
<pdfrwt beam="2">  1        2 0.40289287E+00 0.33577976E+03</pdfrwt>
<totfact> 0.21239890E+03</totfact>
</mgrwt>
</event>
<event>
 5    0  0.1239749E+000  0.2317109E+03  0.7546771E-02  0.1125441E+00
         21   -1    0    0  503  502  0.00000000000E+00  0.00000000000E+00  0.49805276301E+02  0.49805276301E+02  0.00000000000E+00 0. -1.
         -4   -1    0    0    0  501 -0.00000000000E+00 -0.00000000000E+00 -0.19546322969E+04  0.19546322969E+04  0.00000000000E+00 0. -1.
         25    1    1    2    0    0 -0.17091848674E+03  0.12090798568E+03 -0.32419302955E+03  0.40565747931E+03  0.12500000000E+03 0.  0.
         21    1    1    2  503  501  0.15443516310E+03 -0.42819291413E+02 -0.10791772939E+04  0.10910120728E+04  0.00000000000E+00 0. -1.
         -4    1    1    2    0  502  0.16483323644E+02 -0.78088694270E+02 -0.50145669711E+03  0.50776802106E+03  0.00000000000E+00 0. -1.
<mgrwt>
<rscale>  4 0.23171092E+03</rscale>
<asrwt>0</asrwt>
<pdfrwt beam="1">  1       21 0.76623493E-02 0.23171092E+03</pdfrwt>
<pdfrwt beam="2">  1       -4 0.30071269E+00 0.23171092E+03</pdfrwt>
<totfact> 0.19747384E+02</totfact>
</mgrwt>
</event>
<event>
 5    0  0.1239749E+000  0.2798829E+03  0.7546771E-02  0.1095753E+00
         21   -1    0    0  501  502  0.00000000000E+00  0.00000000000E+00  0.90812696673E+03  0.90812696673E+03  0.00000000000E+00 0.  1.
          1   -1    0    0  503    0 -0.00000000000E+00 -0.00000000000E+00 -0.89702677349E+02  0.89702677349E+02  0.00000000000E+00 0.  1.
         25    1    1    2    0    0  0.21186185253E+02 -0.24952073035E+03  0.55406723268E+03  0.62074547735E+03  0.12500000000E+03 0.  0.
         21    1    1    2  503  502  0.31304390080E+02  0.16325570988E+03  0.18453340478E+03  0.24836458912E+03  0.00000000000E+00 0.  1.
          1    1    1    2  501    0 -0.52490575333E+02  0.86265020467E+02  0.79823651912E+02  0.12871957761E+03  0.00000000000E+00 0.  1.
<mgrwt>
<rscale>  4 0.27988292E+03</rscale>
<asrwt>0</asrwt>
<pdfrwt beam="1">  1       21 0.13971183E+00 0.27988292E+03</pdfrwt>
<pdfrwt beam="2">  1        1 0.13800413E-01 0.27988292E+03</pdfrwt>
<totfact> 0.15449409E+03</totfact>
</mgrwt>
</event>
<event>
 5    0  0.1239749E+000  0.3057402E+03  0.7546771E-02  0.1082406E+00
         21   -1    0    0  503  502  0.00000000000E+00  0.00000000000E+00  0.83805324202E+03  0.83805324202E+03  0.00000000000E+00 0.  1.
         -2   -1    0    0    0  501 -0.00000000000E+00 -0.00000000000E+00 -0.36148773411E+03  0.36148773411E+03  0.00000000000E+00 0.  1.
         25    1    1    2    0    0  0.11402068282E+03 -0.25460887917E+03  0.67090105167E+03  0.73726495821E+03  0.12500000000E+03 0.  0.
         21    1    1    2  503  501 -0.14390417777E+03  0.24111761373E+03 -0.16323476491E+02  0.28126957161E+03  0.00000000000E+00 0.  1.
         -2    1    1    2    0  502  0.29883494946E+02  0.13491265449E+02 -0.17801206727E+03  0.18100644632E+03  0.00000000000E+00 0.  1.
<mgrwt>
<rscale>  4 0.30574017E+03</rscale>
<asrwt>0</asrwt>
<pdfrwt beam="1">  1       21 0.12893127E+00 0.30574017E+03</pdfrwt>
<pdfrwt beam="2">  1       -2 0.55613498E-01 0.30574017E+03</pdfrwt>
<totfact> 0.10437112E+02</totfact>
</mgrwt>
</event>
<event>
 5    0  0.1239749E+000  0.2490668E+03  0.7546771E-02  0.1113896E+00
          1   -1    0    0  503    0 -0.00000000000E+00  0.00000000000E+00  0.17552367346E+04  0.17552367346E+04  0.00000000000E+00 0.  1.
         21   -1    0    0  501  502  0.00000000000E+00 -0.00000000000E+00 -0.44633971213E+03  0.44633971213E+03  0.00000000000E+00 0.  1.
         25    1    1    2    0    0 -0.70195055311E+02  0.19296603139E+03 -0.29335280246E+03  0.37926784964E+03  0.12500000000E+03 0.  0.
         21    1    1    2  503  502  0.13522307116E+03 -0.21547238865E+03  0.38782898689E+02  0.25732808334E+03  0.00000000000E+00 0.  1.
          1    1    1    2  501    0 -0.65028015845E+02  0.22506357259E+02  0.15634669263E+04  0.15649805138E+04  0.00000000000E+00 0.  1.
<mgrwt>
<rscale>  4 0.24906675E+03</rscale>
<asrwt>0</asrwt>
<pdfrwt beam="1">  1       21 0.68667649E-01 0.24906675E+03</pdfrwt>
<pdfrwt beam="2">  1        1 0.27003642E+00 0.24906675E+03</pdfrwt>
<totfact> 0.10237782E+02</totfact>
</mgrwt>
</event>
<event>
 5    0  0.1239749E+000  0.2702684E+03  0.7546771E-02  0.1101126E+00
          2   -1    0    0  503    0 -0.00000000000E+00  0.00000000000E+00  0.48380971227E+03  0.48380971227E+03  0.00000000000E+00 0.  1.
         21   -1    0    0  501  502  0.00000000000E+00 -0.00000000000E+00 -0.14937480030E+04  0.14937480030E+04  0.00000000000E+00 0.  1.
         25    1    1    2    0    0  0.15802330810E+03 -0.18164306390E+03 -0.12399926414E+04  0.12693196285E+04  0.12500000000E+03 0.  0.
         21    1    1    2  503  502 -0.52187241608E+02  0.25693562572E+03 -0.15313949651E+03  0.30362992168E+03  0.00000000000E+00 0.  1.
          2    1    1    2  501    0 -0.10583606649E+03 -0.75292561817E+02  0.38319384712E+03  0.40460816515E+03  0.00000000000E+00 0.  1.
<mgrwt>
<rscale>  4 0.27026844E+03</rscale>
<asrwt>0</asrwt>
<pdfrwt beam="1">  1       21 0.22980738E+00 0.27026844E+03</pdfrwt>
<pdfrwt beam="2">  1        2 0.74432265E-01 0.27026844E+03</pdfrwt>
<totfact> 0.66044879E+01</totfact>
</mgrwt>
</event>
<event>
 5    0  0.1239749E+000  0.3750468E+03  0.7546771E-02  0.1052780E+00
         -1   -1    0    0    0  501 -0.00000000000E+00  0.00000000000E+00  0.39678614844E+03  0.39678614844E+03  0.00000000000E+00 0. -1.
         21   -1    0    0  503  502  0.00000000000E+00 -0.00000000000E+00 -0.13656854643E+04  0.13656854643E+04  0.00000000000E+00 0.  1.
         25    1    1    2    0    0  0.25642312000E+02  0.29555373018E+03 -0.19821935520E+03  0.37805482190E+03  0.12500000000E+03 0.  0.
         21    1    1    2  503  501 -0.84695001103E+02 -0.36559757120E+03 -0.10369803283E+04  0.11027978185E+04  0.00000000000E+00 0.  1.
         -1    1    1    2    0  502  0.59052689104E+02  0.70043841024E+02  0.26630036765E+03  0.28161897231E+03  0.00000000000E+00 0. -1.
<mgrwt>
<rscale>  4 0.37504682E+03</rscale>
<asrwt>0</asrwt>
<pdfrwt beam="1">  1       21 0.21010546E+00 0.37504682E+03</pdfrwt>
<pdfrwt beam="2">  1       -1 0.61044023E-01 0.37504682E+03</pdfrwt>
<totfact> 0.26525406E+01</totfact>
</mgrwt>
</event>
<event>
 5    0  0.1239749E+000  0.2561290E+03  0.7546771E-02  0.1109492E+00
          2   -1    0    0  503    0 -0.00000000000E+00  0.00000000000E+00  0.23788431804E+04  0.23788431804E+04  0.00000000000E+00 0. -1.
         21   -1    0    0  501  502  0.00000000000E+00 -0.00000000000E+00 -0.21917851891E+03  0.21917851891E+03  0.00000000000E+00 0. -1.
         25    1    1    2    0    0 -0.18119668304E+03  0.16644758603E+03  0.27762410969E+03  0.39145521216E+03  0.12500000000E+03 0.  0.
         21    1    1    2  503  502  0.17878448783E+03 -0.12637536897E+03 -0.88111993925E+02  0.23600497970E+03  0.00000000000E+00 0. -1.
          2    1    1    2  501    0  0.24121952095E+01 -0.40072217060E+02  0.19701525457E+04  0.19705615075E+04  0.00000000000E+00 0. -1.
<mgrwt>
<rscale>  4 0.25612899E+03</rscale>
<asrwt>0</asrwt>
<pdfrwt beam="1">  1       21 0.33719774E-01 0.25612899E+03</pdfrwt>
<pdfrwt beam="2">  1        2 0.36597585E+00 0.25612899E+03</pdfrwt>
<totfact> 0.49292851E+02</totfact>
</mgrwt>
</event>
<event>
 5    0  0.1239749E+000  0.2903118E+03  0.7546771E-02  0.1090186E+00
          2   -1    0    0  503    0 -0.00000000000E+00  0.00000000000E+00  0.14253536770E+03  0.14253536770E+03  0.00000000000E+00 0. -1.
         21   -1    0    0  501  502  0.00000000000E+00 -0.00000000000E+00 -0.16722490390E+04  0.16722490390E+04  0.00000000000E+00 0.  1.
         25    1    1    2    0    0 -0.22989079284E+03  0.64090972201E+02 -0.20118217445E+03  0.33623904691E+03  0.12500000000E+03 0.  0.
         21    1    1    2  503  502  0.25072086826E+03 -0.90400021122E+02 -0.13863273558E+04  0.14117140841E+04  0.00000000000E+00 0.  1.
          2    1    1    2  501    0 -0.20830075418E+02  0.26309048921E+02  0.57795858995E+02  0.66831275717E+02  0.00000000000E+00 0. -1.
<mgrwt>
<rscale>  4 0.29031184E+03</rscale>
<asrwt>0</asrwt>
<pdfrwt beam="1">  1       21 0.25726908E+00 0.29031184E+03</pdfrwt>
<pdfrwt beam="2">  1        2 0.21928519E-01 0.29031184E+03</pdfrwt>
<totfact> 0.17058686E+02</totfact>
</mgrwt>
</event>
<event>
 5    0  0.1239749E+000  0.2791571E+03  0.7546771E-02  0.1096150E+00
          2   -1    0    0  503    0 -0.00000000000E+00  0.00000000000E+00  0.89583357388E+03  0.89583357388E+03  0.00000000000E+00 0.  1.
         21   -1    0    0  501  502  0.00000000000E+00 -0.00000000000E+00 -0.19279956293E+03  0.19279956293E+03  0.00000000000E+00 0.  1.
         25    1    1    2    0    0 -0.24836920949E+03 -0.10159161819E+03  0.64626050056E+02  0.30300106841E+03  0.12500000000E+03 0.  0.
         21    1    1    2  503  502  0.22745886797E+03  0.48197364291E+02  0.11554957619E+03  0.25963864716E+03  0.00000000000E+00 0.  1.
          2    1    1    2  501    0  0.20910341520E+02  0.53394253895E+02  0.52285838471E+03  0.52599342124E+03  0.00000000000E+00 0.  1.
<mgrwt>
<rscale>  4 0.27915713E+03</rscale>
<asrwt>0</asrwt>
<pdfrwt beam="1">  1       21 0.29661472E-01 0.27915713E+03</pdfrwt>
<pdfrwt beam="2">  1        2 0.13782055E+00 0.27915713E+03</pdfrwt>
<totfact> 0.40990497E+03</totfact>
</mgrwt>
</event>
<event>
 5    0  0.1239749E+000  0.4016338E+03  0.7546771E-02  0.1043215E+00
          2   -1    0    0  503    0 -0.00000000000E+00  0.00000000000E+00  0.17817298781E+04  0.17817298781E+04  0.00000000000E+00 0.  1.
         21   -1    0    0  501  502  0.00000000000E+00 -0.00000000000E+00 -0.15600874854E+03  0.15600874854E+03  0.00000000000E+00 0.  1.
         25    1    1    2    0    0  0.38917575627E+03 -0.13231633028E+03  0.47995269451E+03  0.64416222296E+03  0.12500000000E+03 0.  0.
         21    1    1    2  503  502 -0.33647871390E+03  0.12433931849E+03  0.36773291298E+03  0.51371751607E+03  0.00000000000E+00 0.  1.
          2    1    1    2  501    0 -0.52697042370E+02  0.79770117887E+01  0.77803552210E+03  0.77985888765E+03  0.00000000000E+00 0.  1.
<mgrwt>
<rscale>  4 0.40163384E+03</rscale>
<asrwt>0</asrwt>
<pdfrwt beam="1">  1       21 0.24001347E-01 0.40163384E+03</pdfrwt>
<pdfrwt beam="2">  1        2 0.27411227E+00 0.40163384E+03</pdfrwt>
<totfact> 0.18779618E+03</totfact>
</mgrwt>
</event>
<event>
 5    0  0.1239749E+000  0.2770980E+03  0.7546771E-02  0.1097285E+00
         21   -1    0    0  501  502  0.00000000000E+00  0.00000000000E+00  0.24944832109E+03  0.24944832109E+03  0.00000000000E+00 0.  1.
          1   -1    0    0  503    0 -0.00000000000E+00 -0.00000000000E+00 -0.20061406376E+04  0.20061406376E+04  0.00000000000E+00 0.  1.
         25    1    1    2    0    0  0.11452532721E+03 -0.22956518734E+03  0.15074276168E+03  0.32274541981E+03  0.12500000000E+03 0.  0.
         21    1    1    2  503  502 -0.14181673018E+03  0.96281174558E+02 -0.89041681115E+03  0.90676576199E+03  0.00000000000E+00 0.  1.
          1    1    1    2  501    0  0.27291402971E+02  0.13328401278E+03 -0.10170182670E+04  0.10260777769E+04  0.00000000000E+00 0.  1.
<mgrwt>
<rscale>  4 0.27709795E+03</rscale>
<asrwt>0</asrwt>
<pdfrwt beam="1">  1       21 0.38376666E-01 0.27709795E+03</pdfrwt>
<pdfrwt beam="2">  1        1 0.30863701E+00 0.27709795E+03</pdfrwt>
<totfact> 0.23619734E+02</totfact>
</mgrwt>
</event>
<event>
 5    0  0.1239749E+000  0.2038521E+03  0.7546771E-02  0.1146529E+00
          1   -1    0    0  503    0 -0.00000000000E+00  0.00000000000E+00  0.15046919089E+04  0.15046919089E+04  0.00000000000E+00 0.  1.
         21   -1    0    0  501  502  0.00000000000E+00 -0.00000000000E+00 -0.52911546866E+02  0.52911546866E+02  0.00000000000E+00 0.  1.
         25    1    1    2    0    0 -0.13612512384E+03 -0.19417146129E+03  0.93384406258E+03  0.97155665760E+03  0.12500000000E+03 0.  0.
         21    1    1    2  503  502  0.12901867482E+03  0.64563987064E+02  0.26330174527E+03  0.30023679978E+03  0.00000000000E+00 0.  1.
          1    1    1    2  501    0  0.71064490203E+01  0.12960747422E+03  0.25463455418E+03  0.28580999838E+03  0.00000000000E+00 0.  1.
<mgrwt>
<rscale>  4 0.20385208E+03</rscale>
<asrwt>0</asrwt>
<pdfrwt beam="1">  1       21 0.81402391E-02 0.20385208E+03</pdfrwt>
<pdfrwt beam="2">  1        1 0.23149103E+00 0.20385208E+03</pdfrwt>
<totfact> 0.93596951E+03</totfact>
</mgrwt>
</event>
<event>
 5    0  0.1239749E+000  0.2587559E+03  0.7546771E-02  0.1107893E+00
          2   -1    0    0  503    0 -0.00000000000E+00  0.00000000000E+00  0.57346373432E+03  0.57346373432E+03  0.00000000000E+00 0. -1.
         21   -1    0    0  501  502  0.00000000000E+00 -0.00000000000E+00 -0.11601025667E+03  0.11601025667E+03  0.00000000000E+00 0. -1.
         25    1    1    2    0    0 -0.19905873057E+03 -0.10819068978E+03  0.13784068111E+03  0.29318024651E+03  0.12500000000E+03 0.  0.
         21    1    1    2  503  502  0.14006116783E+03  0.76702765670E+02  0.17465339752E+03  0.23665217992E+03  0.00000000000E+00 0. -1.
          2    1    1    2  501    0  0.58997562744E+02  0.31487924112E+02  0.14495939902E+03  0.15964156457E+03  0.00000000000E+00 0. -1.
<mgrwt>
<rscale>  4 0.25875588E+03</rscale>
<asrwt>0</asrwt>
<pdfrwt beam="1">  1       21 0.17847732E-01 0.25875588E+03</pdfrwt>
<pdfrwt beam="2">  1        2 0.88225188E-01 0.25875588E+03</pdfrwt>
<totfact> 0.18844157E+04</totfact>
</mgrwt>
</event>
<event>
 5    0  0.1239749E+000  0.2719898E+03  0.7546771E-02  0.1100146E+00
         21   -1    0    0  503  502  0.00000000000E+00  0.00000000000E+00  0.29079857181E+03  0.29079857181E+03  0.00000000000E+00 0.  1.
         -2   -1    0    0    0  501 -0.00000000000E+00 -0.00000000000E+00 -0.71401553207E+03  0.71401553207E+03  0.00000000000E+00 0. -1.
         25    1    1    2    0    0 -0.13293271323E+03 -0.21560882043E+03  0.25745968472E+02  0.28363026036E+03  0.12500000000E+03 0.  0.
         21    1    1    2  503  501 -0.77631410979E+02  0.92451580614E+02  0.75763850897E+02  0.14252751254E+03  0.00000000000E+00 0. -1.
         -2    1    1    2    0  502  0.21056412421E+03  0.12315723982E+03 -0.52472677962E+03  0.57865633098E+03  0.00000000000E+00 0. -1.
<mgrwt>
<rscale>  4 0.27198982E+03</rscale>
<asrwt>0</asrwt>
<pdfrwt beam="1">  1       21 0.44738242E-01 0.27198982E+03</pdfrwt>
<pdfrwt beam="2">  1       -2 0.10984854E+00 0.27198982E+03</pdfrwt>
<totfact> 0.26246877E+02</totfact>
</mgrwt>
</event>
<event>
 5    0  0.1239749E+000  0.2917485E+03  0.7546771E-02  0.1089440E+00
          2   -1    0    0  503    0 -0.00000000000E+00  0.00000000000E+00  0.19329898379E+04  0.19329898379E+04  0.00000000000E+00 0.  1.
         21   -1    0    0  501  502  0.00000000000E+00 -0.00000000000E+00 -0.96689082661E+02  0.96689082661E+02  0.00000000000E+00 0. -1.
         25    1    1    2    0    0 -0.14820611983E+03 -0.19561457303E+03  0.49300361424E+03  0.56471911495E+03  0.12500000000E+03 0.  0.
         21    1    1    2  503  502  0.19192644188E+03  0.19711877096E+03  0.25293793489E+03  0.37372338416E+03  0.00000000000E+00 0. -1.
          2    1    1    2  501    0 -0.43720322051E+02 -0.15041979332E+01  0.10903592061E+04  0.10912364215E+04  0.00000000000E+00 0.  1.
<mgrwt>
<rscale>  4 0.29174846E+03</rscale>
<asrwt>0</asrwt>
<pdfrwt beam="1">  1       21 0.14875245E-01 0.29174846E+03</pdfrwt>
<pdfrwt beam="2">  1        2 0.29738302E+00 0.29174846E+03</pdfrwt>
<totfact> 0.39814113E+03</totfact>
</mgrwt>
</event>
<event>
 5    0  0.1239749E+000  0.2910112E+03  0.7546771E-02  0.1089822E+00
         21   -1    0    0  501  502  0.00000000000E+00  0.00000000000E+00  0.36605739221E+03  0.36605739221E+03  0.00000000000E+00 0. -1.
          1   -1    0    0  503    0 -0.00000000000E+00 -0.00000000000E+00 -0.57129906205E+03  0.57129906205E+03  0.00000000000E+00 0.  1.
         25    1    1    2    0    0 -0.27347696175E+03  0.87452912683E+02  0.21467401291E+03  0.37966773943E+03  0.12500000000E+03 0.  0.
         21    1    1    2  503  502  0.15454539215E+03 -0.14925224454E+01 -0.37279842498E+03  0.40356557277E+03  0.00000000000E+00 0. -1.
          1    1    1    2  501    0  0.11893156960E+03 -0.85960390238E+02 -0.47117257779E+02  0.15412314206E+03  0.00000000000E+00 0.  1.
<mgrwt>
<rscale>  4 0.29101119E+03</rscale>
<asrwt>0</asrwt>
<pdfrwt beam="1">  1       21 0.56316522E-01 0.29101119E+03</pdfrwt>
<pdfrwt beam="2">  1        1 0.87892163E-01 0.29101119E+03</pdfrwt>
<totfact> 0.11881527E+03</totfact>
</mgrwt>
</event>
<event>
 5    0  0.1239749E+000  0.2492037E+03  0.7546771E-02  0.1113809E+00
         21   -1    0    0  501  502  0.00000000000E+00  0.00000000000E+00  0.29526129010E+03  0.29526129010E+03  0.00000000000E+00 0.  1.
          1   -1    0    0  503    0 -0.00000000000E+00 -0.00000000000E+00 -0.14273227441E+04  0.14273227441E+04  0.00000000000E+00 0.  1.
         25    1    1    2    0    0  0.97395053587E+02  0.22456874153E+03 -0.44573041927E+02  0.27843971017E+03  0.12500000000E+03 0.  0.
         21    1    1    2  503  502 -0.76130674506E+02 -0.19028343384E+03  0.11899380898E+03  0.23698774518E+03  0.00000000000E+00 0.  1.
          1    1    1    2  501    0 -0.21264379082E+02 -0.34285307694E+02 -0.12064822210E+04  0.12071565788E+04  0.00000000000E+00 0.  1.
<mgrwt>
<rscale>  4 0.24920371E+03</rscale>
<asrwt>0</asrwt>
<pdfrwt beam="1">  1       21 0.45424814E-01 0.24920371E+03</pdfrwt>
<pdfrwt beam="2">  1        1 0.21958811E+00 0.24920371E+03</pdfrwt>
<totfact> 0.40663412E+02</totfact>
</mgrwt>
</event>
<event>
 5    0  0.1239749E+000  0.2929745E+03  0.7546771E-02  0.1088806E+00
         21   -1    0    0  501  502  0.00000000000E+00  0.00000000000E+00  0.99845750047E+02  0.99845750047E+02  0.00000000000E+00 0.  1.
          2   -1    0    0  503    0 -0.00000000000E+00 -0.00000000000E+00 -0.22639178706E+04  0.22639178706E+04  0.00000000000E+00 0. -1.
         25    1    1    2    0    0 -0.14801917846E+03  0.16945618102E+03 -0.94004716277E+03  0.97464800965E+03  0.12500000000E+03 0.  0.
         21    1    1    2  503  502  0.18252518279E+03 -0.20511918192E+03 -0.14794619234E+03  0.31189324612E+03  0.00000000000E+00 0.  1.
          2    1    1    2  501    0 -0.34506004334E+02  0.35663000898E+02 -0.10760787655E+04  0.10772223649E+04  0.00000000000E+00 0. -1.
<mgrwt>
<rscale>  4 0.29297455E+03</rscale>
<asrwt>0</asrwt>
<pdfrwt beam="1">  1       21 0.15360885E-01 0.29297455E+03</pdfrwt>
<pdfrwt beam="2">  1        2 0.34829504E+00 0.29297455E+03</pdfrwt>
<totfact> 0.25033280E+03</totfact>
</mgrwt>
</event>
<event>
 5    0  0.1239749E+000  0.2400829E+03  0.7546771E-02  0.1119738E+00
         21   -1    0    0  501  502  0.00000000000E+00  0.00000000000E+00  0.11380509186E+03  0.11380509186E+03  0.00000000000E+00 0. -1.
          2   -1    0    0  503    0 -0.00000000000E+00 -0.00000000000E+00 -0.67773307802E+03  0.67773307802E+03  0.00000000000E+00 0. -1.
         25    1    1    2    0    0  0.18253205936E+03  0.10246561629E+03 -0.11799827925E+03  0.27086112516E+03  0.12500000000E+03 0.  0.
         21    1    1    2  503  502 -0.15594529650E+03 -0.12585170295E+03 -0.24436109969E+03  0.31602204619E+03  0.00000000000E+00 0. -1.
          2    1    1    2  501    0 -0.26586762865E+02  0.23386086656E+02 -0.20156860721E+03  0.20465499853E+03  0.00000000000E+00 0. -1.
<mgrwt>
<rscale>  4 0.24008290E+03</rscale>
<asrwt>0</asrwt>
<pdfrwt beam="1">  1       21 0.17508476E-01 0.24008290E+03</pdfrwt>
<pdfrwt beam="2">  1        2 0.10426662E+00 0.24008290E+03</pdfrwt>
<totfact> 0.16093103E+04</totfact>
</mgrwt>
</event>
<event>
 5    0  0.1239749E+000  0.3538247E+03  0.7546771E-02  0.1061056E+00
         21   -1    0    0  501  502  0.00000000000E+00  0.00000000000E+00  0.21983367657E+03  0.21983367657E+03  0.00000000000E+00 0. -1.
          1   -1    0    0  503    0 -0.00000000000E+00 -0.00000000000E+00 -0.21173248720E+04  0.21173248720E+04  0.00000000000E+00 0.  1.
         25    1    1    2    0    0 -0.12455925340E+03 -0.33506078185E+03 -0.10106553517E+03  0.39194384488E+03  0.12500000000E+03 0.  0.
         21    1    1    2  503  502  0.30743873712E+03  0.15389795359E+03 -0.40990436037E+03  0.53499975874E+03  0.00000000000E+00 0.  1.
          1    1    1    2  501    0 -0.18287948372E+03  0.18116282826E+03 -0.13865212999E+04  0.14102149449E+04  0.00000000000E+00 0.  1.
<mgrwt>
<rscale>  4 0.35382466E+03</rscale>
<asrwt>0</asrwt>
<pdfrwt beam="1">  1       21 0.33820567E-01 0.35382466E+03</pdfrwt>
<pdfrwt beam="2">  1        1 0.32574227E+00 0.35382466E+03</pdfrwt>
<totfact> 0.24794163E+02</totfact>
</mgrwt>
</event>
<event>
 5    0  0.1239749E+000  0.4524742E+03  0.7546771E-02  0.1026987E+00
          2   -1    0    0  503    0 -0.00000000000E+00  0.00000000000E+00  0.64464556237E+03  0.64464556237E+03  0.00000000000E+00 0.  1.
         21   -1    0    0  501  502  0.00000000000E+00 -0.00000000000E+00 -0.18509909528E+04  0.18509909528E+04  0.00000000000E+00 0. -1.
         25    1    1    2    0    0  0.19947777460E+02 -0.44145766365E+03 -0.10145789895E+04  0.11136778298E+04  0.12500000000E+03 0.  0.
         21    1    1    2  503  502  0.18096491133E+02  0.42711759969E+03 -0.72797103122E+03  0.84421487150E+03  0.00000000000E+00 0. -1.
          2    1    1    2  501    0 -0.38044268593E+02  0.14340063958E+02  0.53620463030E+03  0.53774381388E+03  0.00000000000E+00 0.  1.
<mgrwt>
<rscale>  4 0.45247415E+03</rscale>
<asrwt>0</asrwt>
<pdfrwt beam="1">  1       21 0.28476784E+00 0.45247415E+03</pdfrwt>
<pdfrwt beam="2">  1        2 0.99176240E-01 0.45247415E+03</pdfrwt>
<totfact> 0.19598863E+01</totfact>
</mgrwt>
</event>
<event>
 5    0  0.1239749E+000  0.2264274E+03  0.7546771E-02  0.1129180E+00
         21   -1    0    0  501  502  0.00000000000E+00  0.00000000000E+00  0.25537683886E+03  0.25537683886E+03  0.00000000000E+00 0. -1.
          1   -1    0    0  503    0 -0.00000000000E+00 -0.00000000000E+00 -0.80302650285E+03  0.80302650285E+03  0.00000000000E+00 0. -1.
         25    1    1    2    0    0 -0.12467388343E+03 -0.16419959879E+03  0.12392117476E+03  0.27108401467E+03  0.12500000000E+03 0.  0.
         21    1    1    2  503  502  0.94236491730E+02  0.13148935273E+03 -0.57592563302E+02  0.17171741206E+03  0.00000000000E+00 0. -1.
          1    1    1    2  501    0  0.30437391701E+02  0.32710246063E+02 -0.61397827545E+03  0.61560191499E+03  0.00000000000E+00 0. -1.
<mgrwt>
<rscale>  4 0.22642740E+03</rscale>
<asrwt>0</asrwt>
<pdfrwt beam="1">  1       21 0.39288745E-01 0.22642740E+03</pdfrwt>
<pdfrwt beam="2">  1        1 0.12354254E+00 0.22642740E+03</pdfrwt>
<totfact> 0.15736608E+03</totfact>
</mgrwt>
</event>
<event>
 5    0  0.1239749E+000  0.2585663E+03  0.7546771E-02  0.1108008E+00
         21   -1    0    0  501  502  0.00000000000E+00  0.00000000000E+00  0.37117057456E+03  0.37117057456E+03  0.00000000000E+00 0.  1.
          3   -1    0    0  503    0 -0.00000000000E+00 -0.00000000000E+00 -0.13748032179E+04  0.13748032179E+04  0.00000000000E+00 0.  1.
         25    1    1    2    0    0 -0.11875422059E+03 -0.19953852585E+03  0.27537113457E+03  0.38127739241E+03  0.12500000000E+03 0.  0.
         21    1    1    2  503  502  0.10580328882E+03  0.17010339444E+03 -0.19284737639E+03  0.27806404173E+03  0.00000000000E+00 0.  1.
          3    1    1    2  501    0  0.12950931772E+02  0.29435131405E+02 -0.10861564015E+04  0.10866323583E+04  0.00000000000E+00 0.  1.
<mgrwt>
<rscale>  4 0.25856626E+03</rscale>
<asrwt>0</asrwt>
<pdfrwt beam="1">  1       21 0.57103165E-01 0.25856626E+03</pdfrwt>
<pdfrwt beam="2">  1        3 0.21150819E+00 0.25856626E+03</pdfrwt>
<totfact> 0.18960223E+01</totfact>
</mgrwt>
</event>
<event>
 5    0  0.1239749E+000  0.3336277E+03  0.7546771E-02  0.1069543E+00
         21   -1    0    0  501  502  0.00000000000E+00  0.00000000000E+00  0.10841880680E+03  0.10841880680E+03  0.00000000000E+00 0.  1.
          2   -1    0    0  503    0 -0.00000000000E+00 -0.00000000000E+00 -0.29438197091E+04  0.29438197091E+04  0.00000000000E+00 0. -1.
         25    1    1    2    0    0  0.17137325222E+03  0.25531066676E+03 -0.20586132593E+03  0.39058445137E+03  0.12500000000E+03 0.  0.
         21    1    1    2  503  502 -0.13970017937E+03 -0.29058277884E+03 -0.16638293713E+04  0.16947810089E+04  0.00000000000E+00 0. -1.
          2    1    1    2  501    0 -0.31673072852E+02  0.35272112081E+02 -0.96571020508E+03  0.96687305559E+03  0.00000000000E+00 0. -1.
<mgrwt>
<rscale>  4 0.33362768E+03</rscale>
<asrwt>0</asrwt>
<pdfrwt beam="1">  1       21 0.16679817E-01 0.33362768E+03</pdfrwt>
<pdfrwt beam="2">  1        2 0.45289533E+00 0.33362768E+03</pdfrwt>
<totfact> 0.87847600E+02</totfact>
</mgrwt>
</event>
<event>
 5    0  0.1239749E+000  0.3417597E+03  0.7546771E-02  0.1066049E+00
         21   -1    0    0  501  502  0.00000000000E+00  0.00000000000E+00  0.27000342040E+03  0.27000342040E+03  0.00000000000E+00 0.  1.
          2   -1    0    0  503    0 -0.00000000000E+00 -0.00000000000E+00 -0.20672836416E+04  0.20672836416E+04  0.00000000000E+00 0.  1.
         25    1    1    2    0    0  0.28787505880E+02 -0.34742928435E+03  0.11437815245E+02  0.37052888111E+03  0.12500000000E+03 0.  0.
         21    1    1    2  503  502 -0.44457014568E+02  0.27330584547E+03 -0.16713841910E+03  0.32343123296E+03  0.00000000000E+00 0.  1.
          2    1    1    2  501    0  0.15669508689E+02  0.74123438884E+02 -0.16415796174E+04  0.16433269479E+04  0.00000000000E+00 0.  1.
<mgrwt>
<rscale>  4 0.34175972E+03</rscale>
<asrwt>0</asrwt>
<pdfrwt beam="1">  1       21 0.41538987E-01 0.34175972E+03</pdfrwt>
<pdfrwt beam="2">  1        2 0.31804364E+00 0.34175972E+03</pdfrwt>
<totfact> 0.45349785E+02</totfact>
</mgrwt>
</event>
<event>
 5    0  0.1239749E+000  0.3301721E+03  0.7546771E-02  0.1071061E+00
          2   -1    0    0  503    0 -0.00000000000E+00  0.00000000000E+00  0.67850697241E+03  0.67850697241E+03  0.00000000000E+00 0. -1.
         21   -1    0    0  501  502  0.00000000000E+00 -0.00000000000E+00 -0.65806025056E+03  0.65806025056E+03  0.00000000000E+00 0. -1.
         25    1    1    2    0    0  0.29534537553E+03 -0.78483872366E+02 -0.57307110761E+03  0.66138045287E+03  0.12500000000E+03 0.  0.
         21    1    1    2  503  502 -0.25515554278E+03  0.69981838155E+02  0.41623838227E+03  0.49321009677E+03  0.00000000000E+00 0. -1.
          2    1    1    2  501    0 -0.40189832749E+02  0.85020342111E+01  0.17727944719E+03  0.18197667333E+03  0.00000000000E+00 0. -1.
<mgrwt>
<rscale>  4 0.33017209E+03</rscale>
<asrwt>0</asrwt>
<pdfrwt beam="1">  1       21 0.10124004E+00 0.33017209E+03</pdfrwt>
<pdfrwt beam="2">  1        2 0.10438569E+00 0.33017209E+03</pdfrwt>
<totfact> 0.40730514E+02</totfact>
</mgrwt>
</event>
<event>
 5    0  0.1239749E+000  0.2637051E+03  0.7546771E-02  0.1104937E+00
          2   -1    0    0  503    0 -0.00000000000E+00  0.00000000000E+00  0.15764783372E+04  0.15764783372E+04  0.00000000000E+00 0. -1.
         21   -1    0    0  501  502  0.00000000000E+00 -0.00000000000E+00 -0.17218479671E+03  0.17218479671E+03  0.00000000000E+00 0. -1.
         25    1    1    2    0    0  0.14094417077E+03 -0.16296650644E+03  0.17553410371E+03  0.30473031202E+03  0.12500000000E+03 0.  0.
         21    1    1    2  503  502 -0.23186398367E+03  0.98352168132E+02  0.46124945240E+02  0.25604992965E+03  0.00000000000E+00 0. -1.
          2    1    1    2  501    0  0.90919812898E+02  0.64614338309E+02  0.11826344915E+04  0.11878828922E+04  0.00000000000E+00 0. -1.
<mgrwt>
<rscale>  4 0.26370507E+03</rscale>
<asrwt>0</asrwt>
<pdfrwt beam="1">  1       21 0.26489970E-01 0.26370507E+03</pdfrwt>
<pdfrwt beam="2">  1        2 0.24253512E+00 0.26370507E+03</pdfrwt>
<totfact> 0.20935041E+03</totfact>
</mgrwt>
</event>
<event>
 5    0  0.1239749E+000  0.4007942E+03  0.7546771E-02  0.1043505E+00
         21   -1    0    0  503  502  0.00000000000E+00  0.00000000000E+00  0.11719214643E+04  0.11719214643E+04  0.00000000000E+00 0. -1.
         -1   -1    0    0    0  501 -0.00000000000E+00 -0.00000000000E+00 -0.13672008569E+04  0.13672008569E+04  0.00000000000E+00 0. -1.
         25    1    1    2    0    0 -0.30516432183E+03 -0.22845454592E+03  0.10952363999E+04  0.11663980943E+04  0.12500000000E+03 0.  0.
         21    1    1    2  503  501  0.63059952576E+02 -0.62055498035E+02 -0.20715101155E+03  0.22525315546E+03  0.00000000000E+00 0. -1.
         -1    1    1    2    0  502  0.24210436926E+03  0.29051004395E+03 -0.10833647809E+04  0.11474710714E+04  0.00000000000E+00 0. -1.
<mgrwt>
<rscale>  4 0.40079417E+03</rscale>
<asrwt>0</asrwt>
<pdfrwt beam="1">  1       21 0.18029561E+00 0.40079417E+03</pdfrwt>
<pdfrwt beam="2">  1       -1 0.21033859E+00 0.40079417E+03</pdfrwt>
<totfact> 0.20651029E+00</totfact>
</mgrwt>
</event>
<event>
 5    0  0.1239749E+000  0.2842992E+03  0.7546771E-02  0.1093364E+00
         21   -1    0    0  501  502  0.00000000000E+00  0.00000000000E+00  0.39709285770E+03  0.39709285770E+03  0.00000000000E+00 0.  1.
          2   -1    0    0  503    0 -0.00000000000E+00 -0.00000000000E+00 -0.24739835762E+04  0.24739835762E+04  0.00000000000E+00 0.  1.
         25    1    1    2    0    0 -0.11696931027E+03 -0.22697842554E+03  0.33683490312E+03  0.44077633462E+03  0.12500000000E+03 0.  0.
         21    1    1    2  503  502  0.61857564991E+02  0.15141096818E+03 -0.98244131130E+03  0.99596313676E+03  0.00000000000E+00 0.  1.
          2    1    1    2  501    0  0.55111745278E+02  0.75567457364E+02 -0.14312843103E+04  0.14343369625E+04  0.00000000000E+00 0.  1.
<mgrwt>
<rscale>  4 0.28429918E+03</rscale>
<asrwt>0</asrwt>
<pdfrwt beam="1">  1       21 0.61091210E-01 0.28429918E+03</pdfrwt>
<pdfrwt beam="2">  1        2 0.38061285E+00 0.28429918E+03</pdfrwt>
<totfact> 0.12510602E+02</totfact>
</mgrwt>
</event>
<event>
 5    0  0.1239749E+000  0.1788264E+03  0.7546771E-02  0.1168944E+00
         21   -1    0    0  501  502  0.00000000000E+00  0.00000000000E+00  0.12061490629E+04  0.12061490629E+04  0.00000000000E+00 0.  1.
          2   -1    0    0  503    0 -0.00000000000E+00 -0.00000000000E+00 -0.43324649456E+03  0.43324649456E+03  0.00000000000E+00 0.  1.
         25    1    1    2    0    0 -0.14940030244E+03  0.16680556875E+03  0.22141210584E+03  0.33881096314E+03  0.12500000000E+03 0.  0.
         21    1    1    2  503  502  0.81689318859E+02 -0.62440457060E+02  0.91274038206E+03  0.91851345148E+03  0.00000000000E+00 0.  1.
          2    1    1    2  501    0  0.67710983583E+02 -0.10436511169E+03 -0.36124991954E+03  0.38207114285E+03  0.00000000000E+00 0.  1.
<mgrwt>
<rscale>  4 0.17882639E+03</rscale>
<asrwt>0</asrwt>
<pdfrwt beam="1">  1       21 0.18556139E+00 0.17882639E+03</pdfrwt>
<pdfrwt beam="2">  1        2 0.66653308E-01 0.17882639E+03</pdfrwt>
<totfact> 0.15432088E+02</totfact>
</mgrwt>
</event>
<event>
 5    0  0.1239749E+000  0.2576079E+03  0.7546771E-02  0.1108589E+00
          2   -1    0    0  503    0 -0.00000000000E+00  0.00000000000E+00  0.10605489120E+04  0.10605489120E+04  0.00000000000E+00 0. -1.
         21   -1    0    0  501  502  0.00000000000E+00 -0.00000000000E+00 -0.66389398571E+03  0.66389398571E+03  0.00000000000E+00 0. -1.
         25    1    1    2    0    0 -0.16197286888E+03  0.16193359720E+03 -0.61096253653E+03  0.66434774117E+03  0.12500000000E+03 0.  0.
         21    1    1    2  503  502  0.17339586820E+02 -0.53452796473E+02  0.70749638741E+03  0.70972459512E+03  0.00000000000E+00 0. -1.
          2    1    1    2  501    0  0.14463328206E+03 -0.10848080073E+03  0.30012107541E+03  0.35037056142E+03  0.00000000000E+00 0. -1.
<mgrwt>
<rscale>  4 0.25760794E+03</rscale>
<asrwt>0</asrwt>
<pdfrwt beam="1">  1       21 0.10213754E+00 0.25760794E+03</pdfrwt>
<pdfrwt beam="2">  1        2 0.16316137E+00 0.25760794E+03</pdfrwt>
<totfact> 0.22901072E+02</totfact>
</mgrwt>
</event>
<event>
 5    0  0.1239749E+000  0.2896399E+03  0.7546771E-02  0.1090537E+00
         21   -1    0    0  501  502  0.00000000000E+00  0.00000000000E+00  0.17812907842E+03  0.17812907842E+03  0.00000000000E+00 0. -1.
          2   -1    0    0  503    0 -0.00000000000E+00 -0.00000000000E+00 -0.10363328235E+04  0.10363328235E+04  0.00000000000E+00 0. -1.
         25    1    1    2    0    0 -0.15568020697E+03 -0.25363985577E+03 -0.67180133940E+02  0.32970846770E+03  0.12500000000E+03 0.  0.
         21    1    1    2  503  502 -0.30920291683E+02  0.18415058714E+03 -0.28249592453E+03  0.33863173294E+03  0.00000000000E+00 0. -1.
          2    1    1    2  501    0  0.18660049865E+03  0.69489268636E+02 -0.50852768666E+03  0.54612170132E+03  0.00000000000E+00 0. -1.
<mgrwt>
<rscale>  4 0.28963993E+03</rscale>
<asrwt>0</asrwt>
<pdfrwt beam="1">  1       21 0.27404473E-01 0.28963993E+03</pdfrwt>
<pdfrwt beam="2">  1        2 0.15943582E+00 0.28963993E+03</pdfrwt>
<totfact> 0.38944046E+03</totfact>
</mgrwt>
</event>
<event>
 5    0  0.1239749E+000  0.1775288E+03  0.7546771E-02  0.1170216E+00
         21   -1    0    0  501  502  0.00000000000E+00  0.00000000000E+00  0.18617095640E+04  0.18617095640E+04  0.00000000000E+00 0.  1.
          1   -1    0    0  503    0 -0.00000000000E+00 -0.00000000000E+00 -0.95546865894E+02  0.95546865894E+02  0.00000000000E+00 0.  1.
         25    1    1    2    0    0 -0.69166309630E+02 -0.20134151818E+03  0.15442237310E+04  0.15638332125E+04  0.12500000000E+03 0.  0.
         21    1    1    2  503  502 -0.16157536268E+02  0.11169749399E+03  0.24295852490E+03  0.26789221893E+03  0.00000000000E+00 0.  1.
          1    1    1    2  501    0  0.85323845898E+02  0.89644024186E+02 -0.21019557788E+02  0.12553099841E+03  0.00000000000E+00 0.  1.
<mgrwt>
<rscale>  4 0.17752881E+03</rscale>
<asrwt>0</asrwt>
<pdfrwt beam="1">  1       21 0.28641683E+00 0.17752881E+03</pdfrwt>
<pdfrwt beam="2">  1        1 0.14699519E-01 0.17752881E+03</pdfrwt>
<totfact> 0.17017461E+02</totfact>
</mgrwt>
</event>
<event>
 5    0  0.1239749E+000  0.2497453E+03  0.7546771E-02  0.1113466E+00
         21   -1    0    0  501  502  0.00000000000E+00  0.00000000000E+00  0.52261201871E+03  0.52261201871E+03  0.00000000000E+00 0.  1.
          1   -1    0    0  503    0 -0.00000000000E+00 -0.00000000000E+00 -0.91411130667E+03  0.91411130667E+03  0.00000000000E+00 0.  1.
         25    1    1    2    0    0 -0.45547641371E+02  0.21343666546E+03  0.47319531603E+03  0.53588114812E+03  0.12500000000E+03 0.  0.
         21    1    1    2  503  502  0.88751400812E+02 -0.16124688953E+03 -0.59864321252E+03  0.62629950217E+03  0.00000000000E+00 0.  1.
          1    1    1    2  501    0 -0.43203759441E+02 -0.52189775925E+02 -0.26605139147E+03  0.27454267509E+03  0.00000000000E+00 0.  1.
<mgrwt>
<rscale>  4 0.24974526E+03</rscale>
<asrwt>0</asrwt>
<pdfrwt beam="1">  1       21 0.80401849E-01 0.24974526E+03</pdfrwt>
<pdfrwt beam="2">  1        1 0.14063251E+00 0.24974526E+03</pdfrwt>
<totfact> 0.27336331E+02</totfact>
</mgrwt>
</event>
<event>
 5    0  0.1239749E+000  0.3088254E+03  0.7546771E-02  0.1080910E+00
          2   -1    0    0  503    0 -0.00000000000E+00  0.00000000000E+00  0.66001333516E+03  0.66001333516E+03  0.00000000000E+00 0. -1.
         21   -1    0    0  501  502  0.00000000000E+00 -0.00000000000E+00 -0.26504711646E+03  0.26504711646E+03  0.00000000000E+00 0. -1.
         25    1    1    2    0    0 -0.14965246819E+03  0.26114848256E+03  0.12176567662E+03  0.34791704641E+03  0.12500000000E+03 0.  0.
         21    1    1    2  503  502 -0.33907982320E+02 -0.28910034676E+03  0.26117671366E+03  0.39107804531E+03  0.00000000000E+00 0. -1.
          2    1    1    2  501    0  0.18356045051E+03  0.27951864205E+02  0.12023828411E+02  0.18606535990E+03  0.00000000000E+00 0. -1.
<mgrwt>
<rscale>  4 0.30882541E+03</rscale>
<asrwt>0</asrwt>
<pdfrwt beam="1">  1       21 0.40776480E-01 0.30882541E+03</pdfrwt>
<pdfrwt beam="2">  1        2 0.10154051E+00 0.30882541E+03</pdfrwt>
<totfact> 0.31637303E+03</totfact>
</mgrwt>
</event>
<event>
 5    0  0.1239749E+000  0.2695321E+03  0.7546771E-02  0.1101548E+00
          1   -1    0    0  503    0 -0.00000000000E+00  0.00000000000E+00  0.65653584501E+03  0.65653584501E+03  0.00000000000E+00 0. -1.
         21   -1    0    0  501  502  0.00000000000E+00 -0.00000000000E+00 -0.18281790173E+03  0.18281790173E+03  0.00000000000E+00 0. -1.
         25    1    1    2    0    0  0.11080223329E+03 -0.22702294724E+03  0.15943659550E+03  0.32382338004E+03  0.12500000000E+03 0.  0.
         21    1    1    2  503  502 -0.17509359610E+03  0.15952539127E+03  0.59491539557E+02  0.24422399787E+03  0.00000000000E+00 0. -1.
          1    1    1    2  501    0  0.64291362809E+02  0.67497555976E+02  0.25478980822E+03  0.27130636883E+03  0.00000000000E+00 0. -1.
<mgrwt>
<rscale>  4 0.26953206E+03</rscale>
<asrwt>0</asrwt>
<pdfrwt beam="1">  1       21 0.28125831E-01 0.26953206E+03</pdfrwt>
<pdfrwt beam="2">  1        1 0.10100551E+00 0.26953206E+03</pdfrwt>
<totfact> 0.40567662E+03</totfact>
</mgrwt>
</event>
<event>
 5    0  0.1239749E+000  0.2672991E+03  0.7546771E-02  0.1102835E+00
          2   -1    0    0  503    0 -0.00000000000E+00  0.00000000000E+00  0.24764400949E+04  0.24764400949E+04  0.00000000000E+00 0. -1.
         21   -1    0    0  501  502  0.00000000000E+00 -0.00000000000E+00 -0.35515280091E+02  0.35515280091E+02  0.00000000000E+00 0. -1.
         25    1    1    2    0    0  0.19559888142E+03 -0.12494944587E+03  0.88708098019E+03  0.92542366073E+03  0.12500000000E+03 0.  0.
         21    1    1    2  503  502  0.43110588130E+02  0.57615588941E+02  0.31698343294E+03  0.32504857430E+03  0.00000000000E+00 0. -1.
          2    1    1    2  501    0 -0.23870946955E+03  0.67333856928E+02  0.12368604017E+04  0.12614831400E+04  0.00000000000E+00 0. -1.
<mgrwt>
<rscale>  4 0.26729907E+03</rscale>
<asrwt>0</asrwt>
<pdfrwt beam="1">  1       21 0.54638912E-02 0.26729907E+03</pdfrwt>
<pdfrwt beam="2">  1        2 0.38099065E+00 0.26729907E+03</pdfrwt>
<totfact> 0.12129750E+04</totfact>
</mgrwt>
</event>
<event>
 5    0  0.1239749E+000  0.1901013E+03  0.7546771E-02  0.1158370E+00
          1   -1    0    0  503    0 -0.00000000000E+00  0.00000000000E+00  0.91156484292E+03  0.91156484292E+03  0.00000000000E+00 0. -1.
         21   -1    0    0  501  502  0.00000000000E+00 -0.00000000000E+00 -0.69872015958E+02  0.69872015958E+02  0.00000000000E+00 0. -1.
         25    1    1    2    0    0 -0.16888420448E+03 -0.12128374756E+03  0.30771778931E+03  0.39185055800E+03  0.12500000000E+03 0.  0.
         21    1    1    2  503  502  0.66908398961E+02  0.66139379154E+02  0.40664428495E+03  0.41738558410E+03  0.00000000000E+00 0. -1.
          1    1    1    2  501    0  0.10197580552E+03  0.55144368404E+02  0.12733075270E+03  0.17220071678E+03  0.00000000000E+00 0. -1.
<mgrwt>
<rscale>  4 0.19010131E+03</rscale>
<asrwt>0</asrwt>
<pdfrwt beam="1">  1       21 0.10749542E-01 0.19010131E+03</pdfrwt>
<pdfrwt beam="2">  1        1 0.14024074E+00 0.19010131E+03</pdfrwt>
<totfact> 0.14980029E+04</totfact>
</mgrwt>
</event>
<event>
 5    0  0.1239749E+000  0.2537208E+03  0.7546771E-02  0.1110976E+00
         21   -1    0    0  503  502  0.00000000000E+00  0.00000000000E+00  0.20777375915E+04  0.20777375915E+04  0.00000000000E+00 0. -1.
         -4   -1    0    0    0  501 -0.00000000000E+00 -0.00000000000E+00 -0.13773443693E+03  0.13773443693E+03  0.00000000000E+00 0. -1.
         25    1    1    2    0    0 -0.17362493472E+03  0.13957573037E+03  0.14446181443E+04  0.14670288290E+04  0.12500000000E+03 0.  0.
         21    1    1    2  503  501  0.18869217410E+03 -0.11088303367E+03  0.60013356262E+03  0.63879580204E+03  0.00000000000E+00 0. -1.
         -4    1    1    2    0  502 -0.15067239388E+02 -0.28692696704E+02 -0.10474855229E+03  0.10964739738E+03  0.00000000000E+00 0. -1.
<mgrwt>
<rscale>  4 0.25372075E+03</rscale>
<asrwt>0</asrwt>
<pdfrwt beam="1">  1       21 0.31965191E+00 0.25372075E+03</pdfrwt>
<pdfrwt beam="2">  1       -4 0.21189915E-01 0.25372075E+03</pdfrwt>
<totfact> 0.21383980E+01</totfact>
</mgrwt>
</event>
<event>
 5    0  0.1239749E+000  0.2654710E+03  0.7546771E-02  0.1103900E+00
          1   -1    0    0  503    0 -0.00000000000E+00  0.00000000000E+00  0.16141862164E+04  0.16141862164E+04  0.00000000000E+00 0.  1.
         21   -1    0    0  501  502  0.00000000000E+00 -0.00000000000E+00 -0.24329451537E+03  0.24329451537E+03  0.00000000000E+00 0.  1.
         25    1    1    2    0    0 -0.23829207266E+03  0.79118343282E+02  0.27648786579E+03  0.39384433989E+03  0.12500000000E+03 0.  0.
         21    1    1    2  503  502  0.21479585061E+03 -0.83980307211E+02 -0.11242276581E+03  0.25657129168E+03  0.00000000000E+00 0.  1.
          1    1    1    2  501    0  0.23496222048E+02  0.48619639285E+01  0.12068266011E+04  0.12070651002E+04  0.00000000000E+00 0.  1.
<mgrwt>
<rscale>  4 0.26547104E+03</rscale>
<asrwt>0</asrwt>
<pdfrwt beam="1">  1       21 0.37429926E-01 0.26547104E+03</pdfrwt>
<pdfrwt beam="2">  1        1 0.24833633E+00 0.26547104E+03</pdfrwt>
<totfact> 0.45021217E+02</totfact>
</mgrwt>
</event>
<event>
 5    0  0.1239749E+000  0.2300732E+03  0.7546771E-02  0.1126588E+00
          2   -1    0    0  503    0 -0.00000000000E+00  0.00000000000E+00  0.11734359688E+04  0.11734359688E+04  0.00000000000E+00 0.  1.
         21   -1    0    0  501  502  0.00000000000E+00 -0.00000000000E+00 -0.71630082520E+02  0.71630082520E+02  0.00000000000E+00 0. -1.
         25    1    1    2    0    0  0.14046800692E+03 -0.14672140860E+03  0.38813670008E+03  0.45555848215E+03  0.12500000000E+03 0.  0.
         21    1    1    2  503  502 -0.12029770890E+03  0.14420771468E+03  0.19602667079E+03  0.27146612938E+03  0.00000000000E+00 0. -1.
          2    1    1    2  501    0 -0.20170298025E+02  0.25136939281E+01  0.51764251538E+03  0.51804143976E+03  0.00000000000E+00 0.  1.
<mgrwt>
<rscale>  4 0.23007318E+03</rscale>
<asrwt>0</asrwt>
<pdfrwt beam="1">  1       21 0.11020014E-01 0.23007318E+03</pdfrwt>
<pdfrwt beam="2">  1        2 0.18052860E+00 0.23007318E+03</pdfrwt>
<totfact> 0.17887791E+04</totfact>
</mgrwt>
</event>
<event>
 5    0  0.1239749E+000  0.2951570E+03  0.7546771E-02  0.1087687E+00
         21   -1    0    0  503  502  0.00000000000E+00  0.00000000000E+00  0.23413005771E+03  0.23413005771E+03  0.00000000000E+00 0. -1.
         -3   -1    0    0    0  501 -0.00000000000E+00 -0.00000000000E+00 -0.18980637181E+04  0.18980637181E+04  0.00000000000E+00 0.  1.
         25    1    1    2    0    0 -0.32872802515E+03  0.16586523147E+03 -0.13942282465E+03  0.41308245371E+03  0.12500000000E+03 0.  0.
         21    1    1    2  503  501  0.66659649151E+02 -0.16688314933E+03 -0.77442653721E+01  0.17987069801E+03  0.00000000000E+00 0. -1.
         -3    1    1    2    0  502  0.26206837600E+03  0.10179178601E+01 -0.15167665703E+04  0.15392406241E+04  0.00000000000E+00 0.  1.
<mgrwt>
<rscale>  4 0.29515698E+03</rscale>
<asrwt>0</asrwt>
<pdfrwt beam="1">  1       21 0.36020010E-01 0.29515698E+03</pdfrwt>
<pdfrwt beam="2">  1       -3 0.29200979E+00 0.29515698E+03</pdfrwt>
<totfact> 0.17085159E+01</totfact>
</mgrwt>
</event>
<event>
 5    0  0.1239749E+000  0.7215985E+03  0.7546771E-02  0.9680993E-01
          1   -1    0    0  503    0 -0.00000000000E+00  0.00000000000E+00  0.74997615398E+03  0.74997615398E+03  0.00000000000E+00 0. -1.
         21   -1    0    0  501  502  0.00000000000E+00 -0.00000000000E+00 -0.16987760951E+04  0.16987760951E+04  0.00000000000E+00 0. -1.
         25    1    1    2    0    0 -0.44871163197E+03 -0.61840965231E+03 -0.88970327344E+03  0.11793937178E+04  0.12500000000E+03 0.  0.
         21    1    1    2  503  502  0.43922384603E+03  0.48306845339E+03 -0.49082622324E+03  0.81681276863E+03  0.00000000000E+00 0. -1.
          1    1    1    2  501    0  0.94877859425E+01  0.13534119892E+03  0.43172955555E+03  0.45254576270E+03  0.00000000000E+00 0. -1.
<mgrwt>
<rscale>  4 0.72159851E+03</rscale>
<asrwt>0</asrwt>
<pdfrwt beam="1">  1       21 0.26135017E+00 0.72159851E+03</pdfrwt>
<pdfrwt beam="2">  1        1 0.11538095E+00 0.72159851E+03</pdfrwt>
<totfact> 0.11648278E+01</totfact>
</mgrwt>
</event>
<event>
 5    0  0.1239749E+000  0.1817815E+03  0.7546771E-02  0.1166090E+00
          2   -1    0    0  503    0 -0.00000000000E+00  0.00000000000E+00  0.16902616609E+04  0.16902616609E+04  0.00000000000E+00 0. -1.
         21   -1    0    0  501  502  0.00000000000E+00 -0.00000000000E+00 -0.88049667812E+02  0.88049667812E+02  0.00000000000E+00 0. -1.
         25    1    1    2    0    0  0.21614585217E+03  0.40015134525E+02  0.41644845572E+03  0.48721099811E+03  0.12500000000E+03 0.  0.
         21    1    1    2  503  502 -0.11506275776E+03 -0.28339530444E+02  0.19127506433E+02  0.12003511450E+03  0.00000000000E+00 0. -1.
          2    1    1    2  501    0 -0.10108309441E+03 -0.11675604081E+02  0.11666360309E+04  0.11710652161E+04  0.00000000000E+00 0. -1.
<mgrwt>
<rscale>  4 0.18178149E+03</rscale>
<asrwt>0</asrwt>
<pdfrwt beam="1">  1       21 0.13546104E-01 0.18178149E+03</pdfrwt>
<pdfrwt beam="2">  1        2 0.26004023E+00 0.18178149E+03</pdfrwt>
<totfact> 0.66159172E+03</totfact>
</mgrwt>
</event>
<event>
 5    0  0.1239749E+000  0.2722950E+03  0.7546771E-02  0.1099973E+00
         21   -1    0    0  501  502  0.00000000000E+00  0.00000000000E+00  0.68181787881E+02  0.68181787881E+02  0.00000000000E+00 0.  1.
          2   -1    0    0  503    0 -0.00000000000E+00 -0.00000000000E+00 -0.13679392191E+04  0.13679392191E+04  0.00000000000E+00 0.  1.
         25    1    1    2    0    0 -0.49302478666E+02  0.23683083217E+03 -0.30680523827E+03  0.41021217888E+03  0.12500000000E+03 0.  0.
         21    1    1    2  503  502  0.38213821717E+02 -0.93904690582E+02 -0.25996005218E+03  0.27902977586E+03  0.00000000000E+00 0.  1.
          2    1    1    2  501    0  0.11088656950E+02 -0.14292614159E+03 -0.73299214081E+03  0.74687905229E+03  0.00000000000E+00 0.  1.
<mgrwt>
<rscale>  4 0.27229502E+03</rscale>
<asrwt>0</asrwt>
<pdfrwt beam="1">  1       21 0.10489507E-01 0.27229502E+03</pdfrwt>
<pdfrwt beam="2">  1        2 0.21045217E+00 0.27229502E+03</pdfrwt>
<totfact> 0.15065847E+04</totfact>
</mgrwt>
</event>
<event>
 5    0  0.1239749E+000  0.4329207E+03  0.7546771E-02  0.1032941E+00
          2   -1    0    0  503    0 -0.00000000000E+00  0.00000000000E+00  0.16526929295E+04  0.16526929295E+04  0.00000000000E+00 0. -1.
         21   -1    0    0  501  502  0.00000000000E+00 -0.00000000000E+00 -0.59870095340E+03  0.59870095340E+03  0.00000000000E+00 0.  1.
         25    1    1    2    0    0  0.40807720780E+03 -0.18353751614E+03 -0.22106875749E+03  0.51449919620E+03  0.12500000000E+03 0.  0.
         21    1    1    2  503  502 -0.37003422148E+03  0.94497268138E+02 -0.70069141786E+02  0.38828435892E+03  0.00000000000E+00 0.  1.
          2    1    1    2  501    0 -0.38042986321E+02  0.89040248001E+02  0.13451298754E+04  0.13486103278E+04  0.00000000000E+00 0. -1.
<mgrwt>
<rscale>  4 0.43292074E+03</rscale>
<asrwt>0</asrwt>
<pdfrwt beam="1">  1       21 0.92107840E-01 0.43292074E+03</pdfrwt>
<pdfrwt beam="2">  1        2 0.25426045E+00 0.43292074E+03</pdfrwt>
<totfact> 0.12570147E+02</totfact>
</mgrwt>
</event>
<event>
 5    0  0.1239749E+000  0.2895683E+03  0.7546771E-02  0.1090575E+00
         21   -1    0    0  501  502  0.00000000000E+00  0.00000000000E+00  0.15795424375E+03  0.15795424375E+03  0.00000000000E+00 0.  1.
          1   -1    0    0  503    0 -0.00000000000E+00 -0.00000000000E+00 -0.10902656915E+04  0.10902656915E+04  0.00000000000E+00 0.  1.
         25    1    1    2    0    0  0.14406141416E+03 -0.26122934508E+03 -0.28106054071E+03  0.42850261297E+03  0.12500000000E+03 0.  0.
         21    1    1    2  503  502 -0.15400698239E+03  0.18890615126E+03 -0.99660996256E+02  0.26331729678E+03  0.00000000000E+00 0.  1.
          1    1    1    2  501    0  0.99455682269E+01  0.72323193821E+02 -0.55158991080E+03  0.55640002551E+03  0.00000000000E+00 0.  1.
<mgrwt>
<rscale>  4 0.28956826E+03</rscale>
<asrwt>0</asrwt>
<pdfrwt beam="1">  1       21 0.24300652E-01 0.28956826E+03</pdfrwt>
<pdfrwt beam="2">  1        1 0.16773319E+00 0.28956826E+03</pdfrwt>
<totfact> 0.23764459E+03</totfact>
</mgrwt>
</event>
<event>
 5    0  0.1239749E+000  0.2357197E+03  0.7546771E-02  0.1122678E+00
         21   -1    0    0  503  502  0.00000000000E+00  0.00000000000E+00  0.16589655107E+04  0.16589655107E+04  0.00000000000E+00 0. -1.
         -1   -1    0    0    0  501 -0.00000000000E+00 -0.00000000000E+00 -0.79905126018E+02  0.79905126018E+02  0.00000000000E+00 0. -1.
         25    1    1    2    0    0 -0.22200065887E+03  0.65292111718E+01  0.77481025359E+03  0.81564873089E+03  0.12500000000E+03 0.  0.
         21    1    1    2  503  501  0.17145909940E+03 -0.94123975994E+02  0.79830468009E+03  0.82191721473E+03  0.00000000000E+00 0. -1.
         -1    1    1    2    0  502  0.50541559468E+02  0.87594764822E+02  0.59454510463E+01  0.10130469113E+03  0.00000000000E+00 0. -1.
<mgrwt>
<rscale>  4 0.23571973E+03</rscale>
<asrwt>0</asrwt>
<pdfrwt beam="1">  1       21 0.25522544E+00 0.23571973E+03</pdfrwt>
<pdfrwt beam="2">  1       -1 0.12293097E-01 0.23571973E+03</pdfrwt>
<totfact> 0.23682115E+02</totfact>
</mgrwt>
</event>
<event>
 5    0  0.1239749E+000  0.4071289E+03  0.7546771E-02  0.1041339E+00
         21   -1    0    0  503  502  0.00000000000E+00  0.00000000000E+00  0.50021872381E+03  0.50021872381E+03  0.00000000000E+00 0.  1.
         -3   -1    0    0    0  501 -0.00000000000E+00 -0.00000000000E+00 -0.81730666866E+03  0.81730666866E+03  0.00000000000E+00 0. -1.
         25    1    1    2    0    0  0.24877181829E+03  0.54916210811E+02 -0.37224884361E+03  0.46807842222E+03  0.12500000000E+03 0.  0.
         21    1    1    2  503  501 -0.39285765319E+03 -0.15090645849E+03  0.32301009981E+03  0.53051429713E+03  0.00000000000E+00 0.  1.
         -3    1    1    2    0  502  0.14408583490E+03  0.95990247678E+02 -0.26784920105E+03  0.31893267310E+03  0.00000000000E+00 0. -1.
<mgrwt>
<rscale>  4 0.40712886E+03</rscale>
<asrwt>0</asrwt>
<pdfrwt beam="1">  1       21 0.76956728E-01 0.40712886E+03</pdfrwt>
<pdfrwt beam="2">  1       -3 0.12573949E+00 0.40712886E+03</pdfrwt>
<totfact> 0.36439858E+01</totfact>
</mgrwt>
</event>
<event>
 5    0  0.1239749E+000  0.2196952E+03  0.7546771E-02  0.1134111E+00
         21   -1    0    0  501  502  0.00000000000E+00  0.00000000000E+00  0.74460514192E+03  0.74460514192E+03  0.00000000000E+00 0.  1.
          2   -1    0    0  503    0 -0.00000000000E+00 -0.00000000000E+00 -0.65359149819E+03  0.65359149819E+03  0.00000000000E+00 0.  1.
         25    1    1    2    0    0  0.21802938926E+03 -0.10787328169E+02  0.66601177829E+03  0.71193389430E+03  0.12500000000E+03 0.  0.
         21    1    1    2  503  502 -0.41323541993E+02  0.45387738901E+02  0.20045936805E+02  0.64571832464E+02  0.00000000000E+00 0.  1.
          2    1    1    2  501    0 -0.17670584727E+03 -0.34600410732E+02 -0.59504407136E+03  0.62169091335E+03  0.00000000000E+00 0.  1.
<mgrwt>
<rscale>  4 0.21969519E+03</rscale>
<asrwt>0</asrwt>
<pdfrwt beam="1">  1       21 0.11455464E+00 0.21969519E+03</pdfrwt>
<pdfrwt beam="2">  1        2 0.10055254E+00 0.21969519E+03</pdfrwt>
<totfact> 0.33343533E+02</totfact>
</mgrwt>
</event>
<event>
 5    0  0.1239749E+000  0.2652183E+03  0.7546771E-02  0.1104048E+00
         21   -1    0    0  501  502  0.00000000000E+00  0.00000000000E+00  0.32333526940E+03  0.32333526940E+03  0.00000000000E+00 0.  1.
          2   -1    0    0  503    0 -0.00000000000E+00 -0.00000000000E+00 -0.93373281216E+03  0.93373281216E+03  0.00000000000E+00 0.  1.
         25    1    1    2    0    0 -0.17248222968E+03 -0.14251709418E+03  0.82316732147E+02  0.26918819825E+03  0.12500000000E+03 0.  0.
         21    1    1    2  503  502  0.18725065817E+03  0.15799401910E+03  0.45640966540E+02  0.24921480069E+03  0.00000000000E+00 0.  1.
          2    1    1    2  501    0 -0.14768428492E+02 -0.15476924929E+02 -0.73835524146E+03  0.73866508261E+03  0.00000000000E+00 0.  1.
<mgrwt>
<rscale>  4 0.26521834E+03</rscale>
<asrwt>0</asrwt>
<pdfrwt beam="1">  1       21 0.49743888E-01 0.26521834E+03</pdfrwt>
<pdfrwt beam="2">  1        2 0.14365120E+00 0.26521834E+03</pdfrwt>
<totfact> 0.13647533E+03</totfact>
</mgrwt>
</event>
<event>
 5    0  0.1239749E+000  0.2640827E+03  0.7546771E-02  0.1104715E+00
         -4   -1    0    0    0  501 -0.00000000000E+00  0.00000000000E+00  0.11993724027E+04  0.11993724027E+04  0.00000000000E+00 0. -1.
         21   -1    0    0  503  502  0.00000000000E+00 -0.00000000000E+00 -0.82026078309E+02  0.82026078309E+02  0.00000000000E+00 0. -1.
         25    1    1    2    0    0  0.17859125944E+03  0.14044484196E+03  0.24236180072E+03  0.35494201502E+03  0.12500000000E+03 0.  0.
         21    1    1    2  503  501 -0.17282700506E+03 -0.18028710083E+03  0.82665238838E+03  0.86355473689E+03  0.00000000000E+00 0. -1.
         -4    1    1    2    0  502 -0.57642543832E+01  0.39842258874E+02  0.48332135304E+02  0.62901729100E+02  0.00000000000E+00 0. -1.
<mgrwt>
<rscale>  4 0.26408274E+03</rscale>
<asrwt>0</asrwt>
<pdfrwt beam="1">  1       21 0.12619398E-01 0.26408274E+03</pdfrwt>
<pdfrwt beam="2">  1       -4 0.18451882E+00 0.26408274E+03</pdfrwt>
<totfact> 0.40861553E+02</totfact>
</mgrwt>
</event>
<event>
 5    0  0.1239749E+000  0.2882047E+03  0.7546771E-02  0.1091290E+00
          2   -1    0    0  503    0 -0.00000000000E+00  0.00000000000E+00  0.91506764746E+03  0.91506764746E+03  0.00000000000E+00 0. -1.
         21   -1    0    0  501  502  0.00000000000E+00 -0.00000000000E+00 -0.10657839307E+04  0.10657839307E+04  0.00000000000E+00 0. -1.
         25    1    1    2    0    0  0.22647453473E+03 -0.12392659198E+03 -0.98730124708E+03  0.10281231772E+04  0.12500000000E+03 0.  0.
         21    1    1    2  503  502 -0.25521283586E+03  0.12978126080E+03  0.29767872677E+03  0.41302468645E+03  0.00000000000E+00 0. -1.
          2    1    1    2  501    0  0.28738301137E+02 -0.58546688264E+01  0.53890623706E+03  0.53970371449E+03  0.00000000000E+00 0. -1.
<mgrwt>
<rscale>  4 0.28820469E+03</rscale>
<asrwt>0</asrwt>
<pdfrwt beam="1">  1       21 0.16396676E+00 0.28820469E+03</pdfrwt>
<pdfrwt beam="2">  1        2 0.14077964E+00 0.28820469E+03</pdfrwt>
<totfact> 0.82198272E+01</totfact>
</mgrwt>
</event>
<event>
 5    0  0.1239749E+000  0.2251264E+03  0.7546771E-02  0.1130118E+00
          2   -1    0    0  503    0 -0.00000000000E+00  0.00000000000E+00  0.28019616836E+04  0.28019616836E+04  0.00000000000E+00 0.  1.
         21   -1    0    0  501  502  0.00000000000E+00 -0.00000000000E+00 -0.61787167044E+02  0.61787167044E+02  0.00000000000E+00 0.  1.
         25    1    1    2    0    0 -0.10971367887E+03  0.18915651028E+03  0.81422601880E+03  0.85229471805E+03  0.12500000000E+03 0.  0.
         21    1    1    2  503  502  0.93383581727E+02 -0.15394526445E+03  0.14797888253E+03  0.23306090933E+03  0.00000000000E+00 0.  1.
          2    1    1    2  501    0  0.16330097140E+02 -0.35211245833E+02  0.17779696152E+04  0.17783932233E+04  0.00000000000E+00 0.  1.
<mgrwt>
<rscale>  4 0.22512635E+03</rscale>
<asrwt>0</asrwt>
<pdfrwt beam="1">  1       21 0.95057202E-02 0.22512635E+03</pdfrwt>
<pdfrwt beam="2">  1        2 0.43107093E+00 0.22512635E+03</pdfrwt>
<totfact> 0.31067513E+03</totfact>
</mgrwt>
</event>
<event>
 5    0  0.1239749E+000  0.2447753E+03  0.7546771E-02  0.1116652E+00
          2   -1    0    0  503    0 -0.00000000000E+00  0.00000000000E+00  0.13087685124E+04  0.13087685124E+04  0.00000000000E+00 0.  1.
         21   -1    0    0  501  502  0.00000000000E+00 -0.00000000000E+00 -0.69250688905E+02  0.69250688905E+02  0.00000000000E+00 0. -1.
         25    1    1    2    0    0 -0.12014210077E+03 -0.17821748858E+03  0.35542157510E+03  0.43375695229E+03  0.12500000000E+03 0.  0.
         21    1    1    2  503  502  0.98774442686E+02 -0.37019047608E+02  0.19089505768E+03  0.21810026011E+03  0.00000000000E+00 0.  1.
          2    1    1    2  501    0  0.21367658085E+02  0.21523653618E+03  0.69320119071E+03  0.72616198889E+03  0.00000000000E+00 0.  1.
<mgrwt>
<rscale>  4 0.24477527E+03</rscale>
<asrwt>0</asrwt>
<pdfrwt beam="1">  1       21 0.10653953E-01 0.24477527E+03</pdfrwt>
<pdfrwt beam="2">  1        2 0.20134898E+00 0.24477527E+03</pdfrwt>
<totfact> 0.15897004E+04</totfact>
</mgrwt>
</event>
<event>
 5    0  0.1239749E+000  0.2876370E+03  0.7546771E-02  0.1091589E+00
         21   -1    0    0  501  502  0.00000000000E+00  0.00000000000E+00  0.33112241822E+03  0.33112241822E+03  0.00000000000E+00 0. -1.
          1   -1    0    0  503    0 -0.00000000000E+00 -0.00000000000E+00 -0.11579638375E+04  0.11579638375E+04  0.00000000000E+00 0. -1.
         25    1    1    2    0    0 -0.90478998128E+02 -0.21863416771E+03  0.15755003448E+03  0.31053882488E+03  0.12500000000E+03 0.  0.
         21    1    1    2  503  502  0.12138599162E+03  0.35079561212E+03 -0.29010589609E+03  0.47111946615E+03  0.00000000000E+00 0. -1.
          1    1    1    2  501    0 -0.30906993496E+02 -0.13216144441E+03 -0.69428555769E+03  0.70742796470E+03  0.00000000000E+00 0. -1.
<mgrwt>
<rscale>  4 0.28763696E+03</rscale>
<asrwt>0</asrwt>
<pdfrwt beam="1">  1       21 0.50941911E-01 0.28763696E+03</pdfrwt>
<pdfrwt beam="2">  1        1 0.17814828E+00 0.28763696E+03</pdfrwt>
<totfact> 0.48043844E+02</totfact>
</mgrwt>
</event>
<event>
 5    0  0.1239749E+000  0.2189958E+03  0.7546771E-02  0.1134634E+00
          2   -1    0    0  503    0 -0.00000000000E+00  0.00000000000E+00  0.66315825726E+03  0.66315825726E+03  0.00000000000E+00 0.  1.
         21   -1    0    0  501  502  0.00000000000E+00 -0.00000000000E+00 -0.18440068191E+04  0.18440068191E+04  0.00000000000E+00 0.  1.
         25    1    1    2    0    0 -0.54117791331E+02  0.26555604349E+03 -0.10655489646E+04  0.11065569771E+04  0.12500000000E+03 0.  0.
         21    1    1    2  503  502  0.35512174597E+01 -0.14818312744E+03 -0.74421814336E+03  0.75883561810E+03  0.00000000000E+00 0.  1.
          2    1    1    2  501    0  0.50566573871E+02 -0.11737291605E+03  0.62891854617E+03  0.64177248112E+03  0.00000000000E+00 0.  1.
<mgrwt>
<rscale>  4 0.21899581E+03</rscale>
<asrwt>0</asrwt>
<pdfrwt beam="1">  1       21 0.28369335E+00 0.21899581E+03</pdfrwt>
<pdfrwt beam="2">  1        2 0.10202435E+00 0.21899581E+03</pdfrwt>
<totfact> 0.23113644E+01</totfact>
</mgrwt>
</event>
<event>
 5    0  0.1239749E+000  0.2500760E+03  0.7546771E-02  0.1113257E+00
         21   -1    0    0  501  502  0.00000000000E+00  0.00000000000E+00  0.14002943974E+03  0.14002943974E+03  0.00000000000E+00 0.  1.
          4   -1    0    0  503    0 -0.00000000000E+00 -0.00000000000E+00 -0.10386150792E+04  0.10386150792E+04  0.00000000000E+00 0. -1.
         25    1    1    2    0    0  0.19828333116E+03  0.76692026527E+02 -0.83206596248E+02  0.26028116337E+03  0.12500000000E+03 0.  0.
         21    1    1    2  503  502 -0.19738333103E+03 -0.10401049124E+03 -0.19190020848E+03  0.29428566338E+03  0.00000000000E+00 0.  1.
          4    1    1    2  501    0 -0.90000012610E+00  0.27318464717E+02 -0.62347883471E+03  0.62407769216E+03  0.00000000000E+00 0. -1.
<mgrwt>
<rscale>  4 0.25007599E+03</rscale>
<asrwt>0</asrwt>
<pdfrwt beam="1">  1       21 0.21542990E-01 0.25007599E+03</pdfrwt>
<pdfrwt beam="2">  1        4 0.15978694E+00 0.25007599E+03</pdfrwt>
<totfact> 0.22555642E+02</totfact>
</mgrwt>
</event>
<event>
 5    0  0.1239749E+000  0.2240181E+03  0.7546771E-02  0.1130922E+00
         21   -1    0    0  501  502  0.00000000000E+00  0.00000000000E+00  0.13663620743E+03  0.13663620743E+03  0.00000000000E+00 0. -1.
          2   -1    0    0  503    0 -0.00000000000E+00 -0.00000000000E+00 -0.15018174763E+04  0.15018174763E+04  0.00000000000E+00 0.  1.
         25    1    1    2    0    0  0.23572874769E+03 -0.67007984649E+02 -0.13209521730E+03  0.30517578365E+03  0.12500000000E+03 0.  0.
         21    1    1    2  503  502 -0.53690490955E+02  0.70350493673E+02 -0.17098798310E+01  0.88514317871E+02  0.00000000000E+00 0. -1.
          2    1    1    2  501    0 -0.18203825673E+03 -0.33425090238E+01 -0.12313761717E+04  0.12447635822E+04  0.00000000000E+00 0.  1.
<mgrwt>
<rscale>  4 0.22401809E+03</rscale>
<asrwt>0</asrwt>
<pdfrwt beam="1">  1       21 0.21020953E-01 0.22401809E+03</pdfrwt>
<pdfrwt beam="2">  1        2 0.23104886E+00 0.22401809E+03</pdfrwt>
<totfact> 0.36283683E+03</totfact>
</mgrwt>
</event>
<event>
 5    0  0.1239749E+000  0.3027667E+03  0.7546771E-02  0.1083866E+00
         21   -1    0    0  501  502  0.00000000000E+00  0.00000000000E+00  0.14888991262E+03  0.14888991262E+03  0.00000000000E+00 0. -1.
          1   -1    0    0  503    0 -0.00000000000E+00 -0.00000000000E+00 -0.26458564851E+04  0.26458564851E+04  0.00000000000E+00 0.  1.
         25    1    1    2    0    0 -0.21763559185E+03  0.22131124184E+03 -0.12297556775E+04  0.12744677097E+04  0.12500000000E+03 0.  0.
         21    1    1    2  503  502  0.18462591977E+03 -0.19937178176E+03 -0.20026335801E+02  0.27246447794E+03  0.00000000000E+00 0. -1.
          1    1    1    2  501    0  0.33009672074E+02 -0.21939460087E+02 -0.12471845592E+04  0.12478142101E+04  0.00000000000E+00 0.  1.
<mgrwt>
<rscale>  4 0.30276674E+03</rscale>
<asrwt>0</asrwt>
<pdfrwt beam="1">  1       21 0.22906139E-01 0.30276674E+03</pdfrwt>
<pdfrwt beam="2">  1        1 0.40705486E+00 0.30276674E+03</pdfrwt>
<totfact> 0.24287540E+02</totfact>
</mgrwt>
</event>
<event>
 5    0  0.1239749E+000  0.2609234E+03  0.7546771E-02  0.1106590E+00
         21   -1    0    0  503  502  0.00000000000E+00  0.00000000000E+00  0.10923859197E+03  0.10923859197E+03  0.00000000000E+00 0. -1.
         -1   -1    0    0    0  501 -0.00000000000E+00 -0.00000000000E+00 -0.14045810390E+04  0.14045810390E+04  0.00000000000E+00 0. -1.
         25    1    1    2    0    0  0.22917806431E+03  0.22301478420E+02 -0.60889602992E+03  0.66287202109E+03  0.12500000000E+03 0.  0.
         21    1    1    2  503  501 -0.22460972062E+03 -0.44346626684E+02 -0.77679999720E+02  0.24176503522E+03  0.00000000000E+00 0. -1.
         -1    1    1    2    0  502 -0.45683436874E+01  0.22045148264E+02 -0.60876641741E+03  0.60918257467E+03  0.00000000000E+00 0. -1.
<mgrwt>
<rscale>  4 0.26092343E+03</rscale>
<asrwt>0</asrwt>
<pdfrwt beam="1">  1       21 0.16805938E-01 0.26092343E+03</pdfrwt>
<pdfrwt beam="2">  1       -1 0.21608938E+00 0.26092343E+03</pdfrwt>
<totfact> 0.38583750E+02</totfact>
</mgrwt>
</event>
<event>
 5    0  0.1239749E+000  0.2397795E+03  0.7546771E-02  0.1119940E+00
          2   -1    0    0  503    0 -0.00000000000E+00  0.00000000000E+00  0.23690737038E+04  0.23690737038E+04  0.00000000000E+00 0. -1.
         21   -1    0    0  501  502  0.00000000000E+00 -0.00000000000E+00 -0.12298672006E+03  0.12298672006E+03  0.00000000000E+00 0. -1.
         25    1    1    2    0    0  0.91447762703E+02  0.19434895170E+03  0.14726942010E+03  0.28887279281E+03  0.12500000000E+03 0.  0.
         21    1    1    2  503  502 -0.15467475220E+03 -0.13307450804E+03  0.15213647620E+03  0.25451642589E+03  0.00000000000E+00 0. -1.
          2    1    1    2  501    0  0.63226989496E+02 -0.61274443658E+02  0.19466810874E+04  0.19486712052E+04  0.00000000000E+00 0. -1.
<mgrwt>
<rscale>  4 0.23977954E+03</rscale>
<asrwt>0</asrwt>
<pdfrwt beam="1">  1       21 0.18921036E-01 0.23977954E+03</pdfrwt>
<pdfrwt beam="2">  1        2 0.36447284E+00 0.23977954E+03</pdfrwt>
<totfact> 0.15322473E+03</totfact>
</mgrwt>
</event>
<event>
 5    0  0.1239749E+000  0.2789243E+03  0.7546771E-02  0.1096278E+00
         21   -1    0    0  501  502  0.00000000000E+00  0.00000000000E+00  0.22526868505E+03  0.22526868505E+03  0.00000000000E+00 0. -1.
          3   -1    0    0  503    0 -0.00000000000E+00 -0.00000000000E+00 -0.75515894489E+03  0.75515894489E+03  0.00000000000E+00 0. -1.
         25    1    1    2    0    0 -0.22239180987E+03 -0.96726605742E+02  0.44095019580E+02  0.27637569377E+03  0.12500000000E+03 0.  0.
         21    1    1    2  503  502  0.25157922941E+03  0.86631785930E+02 -0.21054753749E+03  0.33930434797E+03  0.00000000000E+00 0. -1.
          3    1    1    2  501    0 -0.29187419544E+02  0.10094819812E+02 -0.36343774193E+03  0.36474758821E+03  0.00000000000E+00 0. -1.
<mgrwt>
<rscale>  4 0.27892432E+03</rscale>
<asrwt>0</asrwt>
<pdfrwt beam="1">  1       21 0.34656721E-01 0.27892432E+03</pdfrwt>
<pdfrwt beam="2">  1        3 0.11617830E+00 0.27892432E+03</pdfrwt>
<totfact> 0.24916943E+02</totfact>
</mgrwt>
</event>
