<event>
 5    0  0.1911311E+001  0.2441841E+03  0.7546771E-02  0.1117036E+00
         21   -1    0    0  504  501  0.00000000000E+00  0.00000000000E+00  0.19562311353E+04  0.19562311353E+04  0.00000000000E+00 0.  1.
         21   -1    0    0  503  502 -0.00000000000E+00 -0.00000000000E+00 -0.39426487752E+02  0.39426487752E+02  0.00000000000E+00 0.  1.
         25    1    1    2    0    0 -0.60149050719E+02 -0.20095519243E+03  0.15054462675E+04  0.15251210975E+04  0.12500000000E+03 0.  0.
         21    1    1    2  503  501  0.53967786995E+02  0.13156503991E+03  0.18280758633E+03  0.23160417824E+03  0.00000000000E+00 0.  1.
         21    1    1    2  504  502  0.61812637239E+01  0.69390152515E+02  0.22855079371E+03  0.23893234731E+03  0.00000000000E+00 0. -1.
<mgrwt>
<rscale>  4 0.24418415E+03</rscale>
<asrwt>0</asrwt>
<pdfrwt beam="1">  1       21 0.30095856E+00 0.24418415E+03</pdfrwt>
<pdfrwt beam="2">  1       21 0.60656150E-02 0.24418415E+03</pdfrwt>
<totfact> 0.61901852E+03</totfact>
</mgrwt>
</event>
<event>
 5    0  0.1911311E+001  0.3331570E+03  0.7546771E-02  0.1069748E+00
         21   -1    0    0  503  501  0.00000000000E+00  0.00000000000E+00  0.33885993281E+03  0.33885993281E+03  0.00000000000E+00 0.  1.
         21   -1    0    0  504  502 -0.00000000000E+00 -0.00000000000E+00 -0.89626272201E+03  0.89626272201E+03  0.00000000000E+00 0. -1.
         25    1    1    2    0    0  0.21076013333E+03 -0.25105769957E+03  0.14590316644E+03  0.37995070245E+03  0.12500000000E+03 0.  0.
         21    1    1    2  503  502 -0.20294009642E+03  0.22988128335E+03 -0.74617294141E+03  0.80672433065E+03  0.00000000000E+00 0. -1.
         21    1    1    2  504  501 -0.78200369061E+01  0.21176416217E+02  0.42866985771E+02  0.48447621718E+02  0.00000000000E+00 0.  1.
<mgrwt>
<rscale>  4 0.33315702E+03</rscale>
<asrwt>0</asrwt>
<pdfrwt beam="1">  1       21 0.52132298E-01 0.33315702E+03</pdfrwt>
<pdfrwt beam="2">  1       21 0.13788657E+00 0.33315702E+03</pdfrwt>
<totfact> 0.11670875E+03</totfact>
</mgrwt>
</event>
<event>
 5    0  0.1911311E+001  0.5081791E+03  0.7546771E-02  0.1011666E+00
         21   -1    0    0  504  501  0.00000000000E+00  0.00000000000E+00  0.42835792527E+03  0.42835792527E+03  0.00000000000E+00 0.  1.
         21   -1    0    0  501  502 -0.00000000000E+00 -0.00000000000E+00 -0.59208761931E+03  0.59208761931E+03  0.00000000000E+00 0.  1.
         25    1    1    2    0    0 -0.34961589738E+03  0.34697228128E+03 -0.61982381456E+02  0.51194516824E+03  0.12500000000E+03 0.  0.
         21    1    1    2  503  502  0.66121368687E+02 -0.39614311698E+02 -0.36567803073E+02  0.85314320662E+02  0.00000000000E+00 0.  1.
         21    1    1    2  504  503  0.28349452869E+03 -0.30735796958E+03 -0.65179509515E+02  0.42318605568E+03  0.00000000000E+00 0.  1.
<mgrwt>
<rscale>  4 0.50817914E+03</rscale>
<asrwt>0</asrwt>
<pdfrwt beam="1">  1       21 0.65901220E-01 0.50817914E+03</pdfrwt>
<pdfrwt beam="2">  1       21 0.91090402E-01 0.50817914E+03</pdfrwt>
<totfact> 0.18240015E+03</totfact>
</mgrwt>
</event>
<event>
 5    0  0.1911311E+001  0.3030569E+03  0.7546771E-02  0.1083722E+00
         21   -1    0    0  504  501  0.00000000000E+00  0.00000000000E+00  0.75812356629E+03  0.75812356629E+03  0.00000000000E+00 0.  1.
         21   -1    0    0  501  502 -0.00000000000E+00 -0.00000000000E+00 -0.28159975678E+03  0.28159975678E+03  0.00000000000E+00 0.  1.
         25    1    1    2    0    0 -0.27570963555E+03 -0.14235799438E+02 -0.15925319574E+03  0.34235221845E+03  0.12500000000E+03 0.  0.
         21    1    1    2  503  502  0.23385421315E+03  0.12765516904E+02  0.59268258615E+03  0.63727811774E+03  0.00000000000E+00 0.  1.
         21    1    1    2  504  503  0.41855422404E+02  0.14702825338E+01  0.43094419093E+02  0.60092986882E+02  0.00000000000E+00 0. -1.
<mgrwt>
<rscale>  4 0.30305686E+03</rscale>
<asrwt>0</asrwt>
<pdfrwt beam="1">  1       21 0.11663439E+00 0.30305686E+03</pdfrwt>
<pdfrwt beam="2">  1       21 0.43323040E-01 0.30305686E+03</pdfrwt>
<totfact> 0.26824133E+03</totfact>
</mgrwt>
</event>
<event>
 5    0  0.1911311E+001  0.3129441E+03  0.7546771E-02  0.1078943E+00
         21   -1    0    0  503  501  0.00000000000E+00  0.00000000000E+00  0.64522035950E+03  0.64522035950E+03  0.00000000000E+00 0. -1.
         21   -1    0    0  504  502 -0.00000000000E+00 -0.00000000000E+00 -0.22834341878E+03  0.22834341878E+03  0.00000000000E+00 0. -1.
         25    1    1    2    0    0 -0.16913893840E+03 -0.24067527450E+03  0.18164018603E+03  0.36762851551E+03  0.12500000000E+03 0.  0.
         21    1    1    2  503  502  0.20741889081E+03  0.19538451558E+03  0.23350661444E+02  0.28590725521E+03  0.00000000000E+00 0. -1.
         21    1    1    2  504  501 -0.38279952411E+02  0.45290758919E+02  0.21188609324E+03  0.22002800755E+03  0.00000000000E+00 0. -1.
<mgrwt>
<rscale>  4 0.31294406E+03</rscale>
<asrwt>0</asrwt>
<pdfrwt beam="1">  1       21 0.99264670E-01 0.31294406E+03</pdfrwt>
<pdfrwt beam="2">  1       21 0.35129757E-01 0.31294406E+03</pdfrwt>
<totfact> 0.60653268E+03</totfact>
</mgrwt>
</event>
<event>
 5    0  0.1911311E+001  0.3795844E+03  0.7546771E-02  0.1051087E+00
         21   -1    0    0  504  501  0.00000000000E+00  0.00000000000E+00  0.39466178008E+03  0.39466178008E+03  0.00000000000E+00 0. -1.
         21   -1    0    0  501  502 -0.00000000000E+00 -0.00000000000E+00 -0.47362189171E+03  0.47362189171E+03  0.00000000000E+00 0. -1.
         25    1    1    2    0    0 -0.22731156875E+03 -0.25569614908E+03  0.15077410694E+03  0.39421935679E+03  0.12500000000E+03 0.  0.
         21    1    1    2  503  502 -0.15272181014E+02 -0.15841441746E+02  0.22224265129E+02  0.31274730216E+02  0.00000000000E+00 0. -1.
         21    1    1    2  504  503  0.24258374977E+03  0.27153759083E+03 -0.25195848370E+03  0.44278958478E+03  0.00000000000E+00 0. -1.
<mgrwt>
<rscale>  4 0.37958442E+03</rscale>
<asrwt>0</asrwt>
<pdfrwt beam="1">  1       21 0.60717197E-01 0.37958442E+03</pdfrwt>
<pdfrwt beam="2">  1       21 0.72864906E-01 0.37958442E+03</pdfrwt>
<totfact> 0.38468712E+03</totfact>
</mgrwt>
</event>
