<event>
 5    0  0.1359949E+000  0.2747451E+03  0.7546771E-02  0.1098594E+00
         21   -1    0    0  502  501  0.00000000000E+00  0.00000000000E+00  0.81960444198E+02  0.81960444198E+02  0.00000000000E+00 0. -1.
         21   -1    0    0  503  502 -0.00000000000E+00 -0.00000000000E+00 -0.87326054503E+03  0.87326054503E+03  0.00000000000E+00 0. -1.
         25    1    1    2    0    0  0.23328182900E+03 -0.73752586382E+02 -0.31970419844E+03  0.42153959510E+03  0.12500000000E+03 0.  0.
         21    1    1    2  503  504 -0.47246837781E+02  0.76286918103E+01 -0.56661253782E+02  0.74168445442E+02  0.00000000000E+00 0.  1.
         21    1    1    2  504  501 -0.18603499122E+03  0.66123894571E+02 -0.41493464861E+03  0.45951294868E+03  0.00000000000E+00 0. -1.
<mgrwt>
<rscale>  4 0.27474507E+03</rscale>
<asrwt>0</asrwt>
<pdfrwt beam="1">  1       21 0.12609299E-01 0.27474507E+03</pdfrwt>
<pdfrwt beam="2">  1       21 0.13434778E+00 0.27474507E+03</pdfrwt>
<totfact> 0.20392916E+04</totfact>
</mgrwt>
</event>
<event>
 5    0  0.1359949E+000  0.3029649E+03  0.7546771E-02  0.1083768E+00
         21   -1    0    0  502  501  0.00000000000E+00  0.00000000000E+00  0.13113039174E+04  0.13113039174E+04  0.00000000000E+00 0.  1.
         21   -1    0    0  503  502 -0.00000000000E+00 -0.00000000000E+00 -0.98959503398E+02  0.98959503398E+02  0.00000000000E+00 0.  1.
         25    1    1    2    0    0 -0.22611158234E+03 -0.15822849045E+03  0.10352491769E+04  0.10786698110E+04  0.12500000000E+03 0.  0.
         21    1    1    2  503  504  0.37640386161E+02  0.63182920344E+01  0.27273896245E+02  0.46910392249E+02  0.00000000000E+00 0.  1.
         21    1    1    2  504  501  0.18847119618E+03  0.15191019841E+03  0.14982134079E+03  0.28468321750E+03  0.00000000000E+00 0.  1.
<mgrwt>
<rscale>  4 0.30296485E+03</rscale>
<asrwt>0</asrwt>
<pdfrwt beam="1">  1       21 0.20173905E+00 0.30296485E+03</pdfrwt>
<pdfrwt beam="2">  1       21 0.15224540E-01 0.30296485E+03</pdfrwt>
<totfact> 0.45983871E+03</totfact>
</mgrwt>
</event>
<event>
 5    0  0.1359949E+000  0.2490184E+03  0.7546771E-02  0.1113927E+00
         21   -1    0    0  502  501  0.00000000000E+00  0.00000000000E+00  0.63755458523E+03  0.63755458523E+03  0.00000000000E+00 0. -1.
         21   -1    0    0  503  502 -0.00000000000E+00 -0.00000000000E+00 -0.10885139620E+03  0.10885139620E+03  0.00000000000E+00 0. -1.
         25    1    1    2    0    0  0.21632865786E+03  0.23739591853E+02  0.40647147805E+03  0.47770882230E+03  0.12500000000E+03 0.  0.
         21    1    1    2  503  504 -0.21213656578E+03  0.22925423554E+01  0.10163056840E+03  0.23523594692E+03  0.00000000000E+00 0. -1.
         21    1    1    2  504  501 -0.41920920735E+01 -0.26032134208E+02  0.20601142573E+02  0.33461212212E+02  0.00000000000E+00 0.  1.
<mgrwt>
<rscale>  4 0.24901837E+03</rscale>
<asrwt>0</asrwt>
<pdfrwt beam="1">  1       21 0.98085319E-01 0.24901837E+03</pdfrwt>
<pdfrwt beam="2">  1       21 0.16746369E-01 0.24901837E+03</pdfrwt>
<totfact> 0.26744528E+04</totfact>
</mgrwt>
</event>
<event>
 5    0  0.1359949E+000  0.2746889E+03  0.7546771E-02  0.1098626E+00
         21   -1    0    0  502  501  0.00000000000E+00  0.00000000000E+00  0.84036275136E+03  0.84036275136E+03  0.00000000000E+00 0. -1.
         21   -1    0    0  503  502 -0.00000000000E+00 -0.00000000000E+00 -0.17759841568E+03  0.17759841568E+03  0.00000000000E+00 0.  1.
         25    1    1    2    0    0  0.24354491655E+03 -0.22690878988E+02  0.70393380308E+03  0.75563006921E+03  0.12500000000E+03 0.  0.
         21    1    1    2  503  504 -0.19480510634E+03 -0.12313596116E+02 -0.50455363423E+02  0.20160951814E+03  0.00000000000E+00 0.  1.
         21    1    1    2  504  501 -0.48739810209E+02  0.35004475104E+02  0.92858960241E+01  0.60721579702E+02  0.00000000000E+00 0. -1.
<mgrwt>
<rscale>  4 0.27468892E+03</rscale>
<asrwt>0</asrwt>
<pdfrwt beam="1">  1       21 0.12928657E+00 0.27468892E+03</pdfrwt>
<pdfrwt beam="2">  1       21 0.27322834E-01 0.27468892E+03</pdfrwt>
<totfact> 0.52894402E+03</totfact>
</mgrwt>
</event>
<event>
 5    0  0.1359949E+000  0.2439075E+03  0.7546771E-02  0.1117217E+00
         21   -1    0    0  502  501  0.00000000000E+00  0.00000000000E+00  0.26478563595E+03  0.26478563595E+03  0.00000000000E+00 0.  1.
         21   -1    0    0  503  502 -0.00000000000E+00 -0.00000000000E+00 -0.22073988668E+03  0.22073988668E+03  0.00000000000E+00 0. -1.
         25    1    1    2    0    0  0.19456381914E+03 -0.77529146612E+02  0.10224347080E+03  0.26447036812E+03  0.12500000000E+03 0.  0.
         21    1    1    2  503  504 -0.13810023903E+03  0.37017488302E+02 -0.30177699632E+02  0.14612550776E+03  0.00000000000E+00 0. -1.
         21    1    1    2  504  501 -0.56463580101E+02  0.40511658310E+02 -0.28020021901E+02  0.74929646764E+02  0.00000000000E+00 0. -1.
<mgrwt>
<rscale>  4 0.24390746E+03</rscale>
<asrwt>0</asrwt>
<pdfrwt beam="1">  1       21 0.40736252E-01 0.24390746E+03</pdfrwt>
<pdfrwt beam="2">  1       21 0.33959982E-01 0.24390746E+03</pdfrwt>
<totfact> 0.47378775E+04</totfact>
</mgrwt>
</event>
<event>
 5    0  0.1359949E+000  0.2567129E+03  0.7546771E-02  0.1109134E+00
         21   -1    0    0  502  501  0.00000000000E+00  0.00000000000E+00  0.89453572233E+03  0.89453572233E+03  0.00000000000E+00 0. -1.
         21   -1    0    0  503  502 -0.00000000000E+00 -0.00000000000E+00 -0.11628806652E+03  0.11628806652E+03  0.00000000000E+00 0.  1.
         25    1    1    2    0    0  0.17213620491E+03  0.16612827924E+03  0.64027699364E+03  0.69484466379E+03  0.12500000000E+03 0.  0.
         21    1    1    2  503  504  0.14210011443E+02 -0.46094608155E+02  0.68324664043E+02  0.83635501091E+02  0.00000000000E+00 0. -1.
         21    1    1    2  504  501 -0.18634621636E+03 -0.12003367108E+03  0.69645998134E+02  0.23234362397E+03  0.00000000000E+00 0.  1.
<mgrwt>
<rscale>  4 0.25671287E+03</rscale>
<asrwt>0</asrwt>
<pdfrwt beam="1">  1       21 0.13762088E+00 0.25671287E+03</pdfrwt>
<pdfrwt beam="2">  1       21 0.17890472E-01 0.25671287E+03</pdfrwt>
<totfact> 0.10181378E+04</totfact>
</mgrwt>
</event>
<event>
 5    0  0.1359949E+000  0.2900366E+03  0.7546771E-02  0.1090330E+00
         21   -1    0    0  502  501  0.00000000000E+00  0.00000000000E+00  0.38014786886E+03  0.38014786886E+03  0.00000000000E+00 0.  1.
         21   -1    0    0  503  502 -0.00000000000E+00 -0.00000000000E+00 -0.29231149362E+03  0.29231149362E+03  0.00000000000E+00 0.  1.
         25    1    1    2    0    0 -0.25889186048E+03 -0.38356922293E+02  0.21586667069E+03  0.36155175069E+03  0.12500000000E+03 0.  0.
         21    1    1    2  503  504  0.36948569652E+02  0.43708746431E+02 -0.48709921694E+02  0.75155224605E+02  0.00000000000E+00 0.  1.
         21    1    1    2  504  501  0.22194329083E+03 -0.53518241384E+01 -0.79320373755E+02  0.23575238718E+03  0.00000000000E+00 0.  1.
<mgrwt>
<rscale>  4 0.29003663E+03</rscale>
<asrwt>0</asrwt>
<pdfrwt beam="1">  1       21 0.58484288E-01 0.29003663E+03</pdfrwt>
<pdfrwt beam="2">  1       21 0.44970999E-01 0.29003663E+03</pdfrwt>
<totfact> 0.12308186E+04</totfact>
</mgrwt>
</event>
<event>
 5    0  0.1359949E+000  0.2721151E+03  0.7546771E-02  0.1100075E+00
         21   -1    0    0  502  501  0.00000000000E+00  0.00000000000E+00  0.32700393555E+03  0.32700393555E+03  0.00000000000E+00 0. -1.
         21   -1    0    0  503  502 -0.00000000000E+00 -0.00000000000E+00 -0.30818289999E+03  0.30818289999E+03  0.00000000000E+00 0.  1.
         25    1    1    2    0    0 -0.23486084733E+03  0.57113900616E+02  0.18833195752E+03  0.33093132441E+03  0.12500000000E+03 0.  0.
         21    1    1    2  503  504  0.21369592590E+03 -0.26357149890E+02 -0.14542426023E+03  0.25982467850E+03  0.00000000000E+00 0.  1.
         21    1    1    2  504  501  0.21164921436E+02 -0.30756750726E+02 -0.24086661726E+02  0.44430832624E+02  0.00000000000E+00 0. -1.
<mgrwt>
<rscale>  4 0.27211508E+03</rscale>
<asrwt>0</asrwt>
<pdfrwt beam="1">  1       21 0.50308298E-01 0.27211508E+03</pdfrwt>
<pdfrwt beam="2">  1       21 0.47412754E-01 0.27211508E+03</pdfrwt>
<totfact> 0.15324033E+04</totfact>
</mgrwt>
</event>
<event>
 5    0  0.1359949E+000  0.2511182E+03  0.7546771E-02  0.1112600E+00
         21   -1    0    0  502  501  0.00000000000E+00  0.00000000000E+00  0.29456881477E+03  0.29456881477E+03  0.00000000000E+00 0.  1.
         21   -1    0    0  503  502 -0.00000000000E+00 -0.00000000000E+00 -0.36626654679E+03  0.36626654679E+03  0.00000000000E+00 0. -1.
         25    1    1    2    0    0 -0.12993381181E+03 -0.17479294783E+03  0.19203283482E+03  0.31612810649E+03  0.12500000000E+03 0.  0.
         21    1    1    2  503  504  0.22152373464E+02  0.36671043266E+02 -0.28719585605E+02  0.51578170398E+02  0.00000000000E+00 0. -1.
         21    1    1    2  504  501  0.10778143835E+03  0.13812190457E+03 -0.23501098124E+03  0.29312908467E+03  0.00000000000E+00 0. -1.
<mgrwt>
<rscale>  4 0.25111824E+03</rscale>
<asrwt>0</asrwt>
<pdfrwt beam="1">  1       21 0.45318280E-01 0.25111824E+03</pdfrwt>
<pdfrwt beam="2">  1       21 0.56348699E-01 0.25111824E+03</pdfrwt>
<totfact> 0.13370913E+04</totfact>
</mgrwt>
</event>
<event>
 5    0  0.1359949E+000  0.2552818E+03  0.7546771E-02  0.1110012E+00
         21   -1    0    0  502  501  0.00000000000E+00  0.00000000000E+00  0.15716716673E+03  0.15716716673E+03  0.00000000000E+00 0. -1.
         21   -1    0    0  503  502 -0.00000000000E+00 -0.00000000000E+00 -0.59011070489E+03  0.59011070489E+03  0.00000000000E+00 0. -1.
         25    1    1    2    0    0 -0.90367367431E+02 -0.22942314636E+03 -0.10509291364E+03  0.29575456324E+03  0.12500000000E+03 0.  0.
         21    1    1    2  503  504 -0.14194187062E+02  0.41219615934E+02  0.15487532083E+02  0.46264406774E+02  0.00000000000E+00 0. -1.
         21    1    1    2  504  501  0.10456155449E+03  0.18820353043E+03 -0.34333815660E+03  0.40525890160E+03  0.00000000000E+00 0. -1.
<mgrwt>
<rscale>  4 0.25528184E+03</rscale>
<asrwt>0</asrwt>
<pdfrwt beam="1">  1       21 0.24179564E-01 0.25528184E+03</pdfrwt>
<pdfrwt beam="2">  1       21 0.90786263E-01 0.25528184E+03</pdfrwt>
<totfact> 0.16031542E+04</totfact>
</mgrwt>
</event>
<event>
 5    0  0.1359949E+000  0.2392772E+03  0.7546771E-02  0.1120275E+00
         21   -1    0    0  502  501  0.00000000000E+00  0.00000000000E+00  0.18487394678E+04  0.18487394678E+04  0.00000000000E+00 0.  1.
         21   -1    0    0  503  502 -0.00000000000E+00 -0.00000000000E+00 -0.37838010234E+02  0.37838010234E+02  0.00000000000E+00 0.  1.
         25    1    1    2    0    0  0.19331686274E+03  0.65246905268E+02  0.14435791021E+04  0.14632751594E+04  0.12500000000E+03 0.  0.
         21    1    1    2  503  504 -0.10121522865E+03 -0.18040354772E+02  0.22452276162E+03  0.24694219444E+03  0.00000000000E+00 0. -1.
         21    1    1    2  504  501 -0.92101634089E+02 -0.47206550496E+02  0.14279959393E+03  0.17636012429E+03  0.00000000000E+00 0.  1.
<mgrwt>
<rscale>  4 0.23927718E+03</rscale>
<asrwt>0</asrwt>
<pdfrwt beam="1">  1       21 0.28442139E+00 0.23927718E+03</pdfrwt>
<pdfrwt beam="2">  1       21 0.58212338E-02 0.23927718E+03</pdfrwt>
<totfact> 0.83304661E+03</totfact>
</mgrwt>
</event>
<event>
 5    0  0.1359949E+000  0.2635341E+03  0.7546771E-02  0.1105038E+00
         21   -1    0    0  502  501  0.00000000000E+00  0.00000000000E+00  0.18477409311E+03  0.18477409311E+03  0.00000000000E+00 0. -1.
         21   -1    0    0  503  502 -0.00000000000E+00 -0.00000000000E+00 -0.56751792054E+03  0.56751792054E+03  0.00000000000E+00 0. -1.
         25    1    1    2    0    0  0.20843663953E+03  0.11811673000E+03  0.23151867825E+02  0.27121652529E+03  0.12500000000E+03 0.  0.
         21    1    1    2  503  504 -0.17155656213E+03 -0.12629535483E+03 -0.29467488399E+03  0.36361443579E+03  0.00000000000E+00 0. -1.
         21    1    1    2  504  501 -0.36880077405E+02  0.81786248280E+01 -0.11122081126E+03  0.11746105257E+03  0.00000000000E+00 0. -1.
<mgrwt>
<rscale>  4 0.26353408E+03</rscale>
<asrwt>0</asrwt>
<pdfrwt beam="1">  1       21 0.28426784E-01 0.26353408E+03</pdfrwt>
<pdfrwt beam="2">  1       21 0.87310448E-01 0.26353408E+03</pdfrwt>
<totfact> 0.12788518E+04</totfact>
</mgrwt>
</event>
<event>
 5    0  0.1359949E+000  0.2141550E+03  0.7546771E-02  0.1138317E+00
         21   -1    0    0  502  501  0.00000000000E+00  0.00000000000E+00  0.50991865703E+03  0.50991865703E+03  0.00000000000E+00 0.  1.
         21   -1    0    0  503  502 -0.00000000000E+00 -0.00000000000E+00 -0.15887703322E+03  0.15887703322E+03  0.00000000000E+00 0.  1.
         25    1    1    2    0    0 -0.21012921342E+03 -0.29934288580E+01  0.27449972627E+03  0.36761167918E+03  0.12500000000E+03 0.  0.
         21    1    1    2  503  504  0.10355814068E+03 -0.91433486351E+02  0.78287727591E+02  0.15878708770E+03  0.00000000000E+00 0.  1.
         21    1    1    2  504  501  0.10657107274E+03  0.94426915209E+02 -0.17458300563E+01  0.14239692337E+03  0.00000000000E+00 0.  1.
<mgrwt>
<rscale>  4 0.21415496E+03</rscale>
<asrwt>0</asrwt>
<pdfrwt beam="1">  1       21 0.78449023E-01 0.21415496E+03</pdfrwt>
<pdfrwt beam="2">  1       21 0.24442621E-01 0.21415496E+03</pdfrwt>
<totfact> 0.22446087E+04</totfact>
</mgrwt>
</event>
<event>
 5    0  0.1359949E+000  0.2691736E+03  0.7546771E-02  0.1101753E+00
         21   -1    0    0  502  501  0.00000000000E+00  0.00000000000E+00  0.25750416697E+03  0.25750416697E+03  0.00000000000E+00 0. -1.
         21   -1    0    0  503  502 -0.00000000000E+00 -0.00000000000E+00 -0.30542523282E+03  0.30542523282E+03  0.00000000000E+00 0. -1.
         25    1    1    2    0    0 -0.16423285942E+03 -0.17279180366E+03  0.63723524884E+02  0.27661367853E+03  0.12500000000E+03 0.  0.
         21    1    1    2  503  504  0.89582015819E+02  0.15708391628E+03 -0.48332515878E+02  0.18717993055E+03  0.00000000000E+00 0. -1.
         21    1    1    2  504  501  0.74650843603E+02  0.15707887387E+02 -0.63312074853E+02  0.99135790707E+02  0.00000000000E+00 0. -1.
<mgrwt>
<rscale>  4 0.26917362E+03</rscale>
<asrwt>0</asrwt>
<pdfrwt beam="1">  1       21 0.39616026E-01 0.26917362E+03</pdfrwt>
<pdfrwt beam="2">  1       21 0.46988497E-01 0.26917362E+03</pdfrwt>
<totfact> 0.25630854E+04</totfact>
</mgrwt>
</event>
<event>
 5    0  0.1359949E+000  0.3987055E+03  0.7546771E-02  0.1044229E+00
         21   -1    0    0  502  501  0.00000000000E+00  0.00000000000E+00  0.12829365943E+04  0.12829365943E+04  0.00000000000E+00 0.  1.
         21   -1    0    0  503  502 -0.00000000000E+00 -0.00000000000E+00 -0.13132421936E+03  0.13132421936E+03  0.00000000000E+00 0.  1.
         25    1    1    2    0    0 -0.10129426010E+03 -0.36480208461E+03  0.37735169157E+03  0.54896301077E+03  0.12500000000E+03 0.  0.
         21    1    1    2  503  504  0.61037250839E+02  0.10634132453E+03  0.29121112971E+03  0.31597143124E+03  0.00000000000E+00 0.  1.
         21    1    1    2  504  501  0.40257009266E+02  0.25846076008E+03  0.48304955362E+03  0.54932637161E+03  0.00000000000E+00 0.  1.
<mgrwt>
<rscale>  4 0.39870552E+03</rscale>
<asrwt>0</asrwt>
<pdfrwt beam="1">  1       21 0.19737485E+00 0.39870552E+03</pdfrwt>
<pdfrwt beam="2">  1       21 0.20203727E-01 0.39870552E+03</pdfrwt>
<totfact> 0.27516401E+03</totfact>
</mgrwt>
</event>
<event>
 5    0  0.1359949E+000  0.2407815E+03  0.7546771E-02  0.1119273E+00
         21   -1    0    0  502  501  0.00000000000E+00  0.00000000000E+00  0.70616562653E+03  0.70616562653E+03  0.00000000000E+00 0.  1.
         21   -1    0    0  503  502 -0.00000000000E+00 -0.00000000000E+00 -0.91574576028E+03  0.91574576028E+03  0.00000000000E+00 0.  1.
         25    1    1    2    0    0  0.82115949530E+02 -0.18870001045E+03  0.67279001172E+03  0.71457828331E+03  0.12500000000E+03 0.  0.
         21    1    1    2  503  504 -0.36353442389E+02  0.49887362837E+02 -0.19270640934E+03  0.20235138236E+03  0.00000000000E+00 0.  1.
         21    1    1    2  504  501 -0.45762507141E+02  0.13881264761E+03 -0.68966373613E+03  0.70498172114E+03  0.00000000000E+00 0.  1.
<mgrwt>
<rscale>  4 0.24078148E+03</rscale>
<asrwt>0</asrwt>
<pdfrwt beam="1">  1       21 0.10864087E+00 0.24078148E+03</pdfrwt>
<pdfrwt beam="2">  1       21 0.14088396E+00 0.24078148E+03</pdfrwt>
<totfact> 0.22435268E+02</totfact>
</mgrwt>
</event>
<event>
 5    0  0.1359949E+000  0.3226281E+03  0.7546771E-02  0.1074446E+00
         21   -1    0    0  502  501  0.00000000000E+00  0.00000000000E+00  0.96174770906E+02  0.96174770906E+02  0.00000000000E+00 0. -1.
         21   -1    0    0  503  502 -0.00000000000E+00 -0.00000000000E+00 -0.19196625483E+04  0.19196625483E+04  0.00000000000E+00 0. -1.
         25    1    1    2    0    0  0.15025246185E+03  0.25668673224E+03 -0.23967245921E+03  0.40191014979E+03  0.12500000000E+03 0.  0.
         21    1    1    2  503  504 -0.13801999462E+03 -0.15657567967E+03 -0.10147736665E+04  0.10360169191E+04  0.00000000000E+00 0. -1.
         21    1    1    2  504  501 -0.12232467226E+02 -0.10011105258E+03 -0.56904165169E+03  0.57791025035E+03  0.00000000000E+00 0. -1.
<mgrwt>
<rscale>  4 0.32262808E+03</rscale>
<asrwt>0</asrwt>
<pdfrwt beam="1">  1       21 0.14796118E-01 0.32262808E+03</pdfrwt>
<pdfrwt beam="2">  1       21 0.29533271E+00 0.32262808E+03</pdfrwt>
<totfact> 0.12837812E+03</totfact>
</mgrwt>
</event>
<event>
 5    0  0.1359949E+000  0.4365599E+03  0.7546771E-02  0.1031808E+00
         21   -1    0    0  502  501  0.00000000000E+00  0.00000000000E+00  0.19366984807E+03  0.19366984807E+03  0.00000000000E+00 0. -1.
         21   -1    0    0  503  502 -0.00000000000E+00 -0.00000000000E+00 -0.11833136558E+04  0.11833136558E+04  0.00000000000E+00 0. -1.
         25    1    1    2    0    0 -0.39687793820E+03 -0.20418291965E+03 -0.34590253197E+03  0.57833928116E+03  0.12500000000E+03 0.  0.
         21    1    1    2  503  504  0.42326938886E+02  0.10151460606E+02 -0.64601923021E+01  0.44004045183E+02  0.00000000000E+00 0. -1.
         21    1    1    2  504  501  0.35455099932E+03  0.19403145905E+03 -0.63728108347E+03  0.75464017754E+03  0.00000000000E+00 0. -1.
<mgrwt>
<rscale>  4 0.43655990E+03</rscale>
<asrwt>0</asrwt>
<pdfrwt beam="1">  1       21 0.29795362E-01 0.43655990E+03</pdfrwt>
<pdfrwt beam="2">  1       21 0.18204825E+00 0.43655990E+03</pdfrwt>
<totfact> 0.16199344E+03</totfact>
</mgrwt>
</event>
<event>
 5    0  0.1359949E+000  0.4323626E+03  0.7546771E-02  0.1033116E+00
         21   -1    0    0  502  501  0.00000000000E+00  0.00000000000E+00  0.88104128521E+03  0.88104128521E+03  0.00000000000E+00 0.  1.
         21   -1    0    0  503  502 -0.00000000000E+00 -0.00000000000E+00 -0.50567539900E+03  0.50567539900E+03  0.00000000000E+00 0.  1.
         25    1    1    2    0    0 -0.39533774454E+03  0.48707051786E+02  0.52802476994E+03  0.67312663506E+03  0.12500000000E+03 0.  0.
         21    1    1    2  503  504 -0.40855304594E+02  0.16356336173E+03 -0.15422032750E+03  0.22848640797E+03  0.00000000000E+00 0.  1.
         21    1    1    2  504  501  0.43619304914E+03 -0.21227041351E+03  0.15614437704E+01  0.48510364117E+03  0.00000000000E+00 0.  1.
<mgrwt>
<rscale>  4 0.43236257E+03</rscale>
<asrwt>0</asrwt>
<pdfrwt beam="1">  1       21 0.13554481E+00 0.43236257E+03</pdfrwt>
<pdfrwt beam="2">  1       21 0.77796215E-01 0.43236257E+03</pdfrwt>
<totfact> 0.47889503E+02</totfact>
</mgrwt>
</event>
<event>
 5    0  0.1359949E+000  0.2062590E+03  0.7546771E-02  0.1144563E+00
         21   -1    0    0  502  501  0.00000000000E+00  0.00000000000E+00  0.39806730481E+02  0.39806730481E+02  0.00000000000E+00 0.  1.
         21   -1    0    0  503  502 -0.00000000000E+00 -0.00000000000E+00 -0.16747350462E+04  0.16747350462E+04  0.00000000000E+00 0.  1.
         25    1    1    2    0    0 -0.60864651599E+02 -0.19264290858E+03 -0.48482329443E+03  0.53990223454E+03  0.12500000000E+03 0.  0.
         21    1    1    2  503  504 -0.33508311717E+02  0.10345011626E+03 -0.54989902684E+03  0.56054765473E+03  0.00000000000E+00 0.  1.
         21    1    1    2  504  501  0.94372963315E+02  0.89192792321E+02 -0.60020599443E+03  0.61409188738E+03  0.00000000000E+00 0.  1.
<mgrwt>
<rscale>  4 0.20625901E+03</rscale>
<asrwt>0</asrwt>
<pdfrwt beam="1">  1       21 0.61241140E-02 0.20625901E+03</pdfrwt>
<pdfrwt beam="2">  1       21 0.25765148E+00 0.20625901E+03</pdfrwt>
<totfact> 0.11272590E+04</totfact>
</mgrwt>
</event>
<event>
 5    0  0.1359949E+000  0.4169728E+03  0.7546771E-02  0.1038056E+00
         21   -1    0    0  502  501  0.00000000000E+00  0.00000000000E+00  0.44669485031E+03  0.44669485031E+03  0.00000000000E+00 0. -1.
         21   -1    0    0  503  502 -0.00000000000E+00 -0.00000000000E+00 -0.44679709173E+03  0.44679709173E+03  0.00000000000E+00 0. -1.
         25    1    1    2    0    0 -0.17013681665E+03 -0.35810740874E+03  0.61259011679E+02  0.42019652436E+03  0.12500000000E+03 0.  0.
         21    1    1    2  503  504  0.58903635363E+02 -0.27018859588E+02  0.11619924822E+02  0.65838284344E+02  0.00000000000E+00 0.  1.
         21    1    1    2  504  501  0.11123318129E+03  0.38512626833E+03 -0.72981177916E+02  0.40745713334E+03  0.00000000000E+00 0. -1.
<mgrwt>
<rscale>  4 0.41697283E+03</rscale>
<asrwt>0</asrwt>
<pdfrwt beam="1">  1       21 0.68722285E-01 0.41697283E+03</pdfrwt>
<pdfrwt beam="2">  1       21 0.68738014E-01 0.41697283E+03</pdfrwt>
<totfact> 0.32854257E+03</totfact>
</mgrwt>
</event>
<event>
 5    0  0.1359949E+000  0.2404364E+03  0.7546771E-02  0.1119502E+00
         21   -1    0    0  502  501  0.00000000000E+00  0.00000000000E+00  0.78650448248E+03  0.78650448248E+03  0.00000000000E+00 0.  1.
         21   -1    0    0  503  502 -0.00000000000E+00 -0.00000000000E+00 -0.92757898927E+02  0.92757898927E+02  0.00000000000E+00 0.  1.
         25    1    1    2    0    0 -0.15812666359E+03 -0.13236502633E+03  0.57176256800E+03  0.62053362205E+03  0.12500000000E+03 0.  0.
         21    1    1    2  503  504  0.14153985853E+03  0.14702028490E+03  0.99016675353E+02  0.22683209147E+03  0.00000000000E+00 0.  1.
         21    1    1    2  504  501  0.16586805064E+02 -0.14655258567E+02  0.22967340200E+02  0.31896667879E+02  0.00000000000E+00 0. -1.
<mgrwt>
<rscale>  4 0.24043638E+03</rscale>
<asrwt>0</asrwt>
<pdfrwt beam="1">  1       21 0.12100069E+00 0.24043638E+03</pdfrwt>
<pdfrwt beam="2">  1       21 0.14270446E-01 0.24043638E+03</pdfrwt>
<totfact> 0.21606468E+04</totfact>
</mgrwt>
</event>
<event>
 5    0  0.1359949E+000  0.2534210E+03  0.7546771E-02  0.1111162E+00
         21   -1    0    0  502  501  0.00000000000E+00  0.00000000000E+00  0.44902295561E+03  0.44902295561E+03  0.00000000000E+00 0.  1.
         21   -1    0    0  503  502 -0.00000000000E+00 -0.00000000000E+00 -0.19625915291E+03  0.19625915291E+03  0.00000000000E+00 0.  1.
         25    1    1    2    0    0 -0.24994149226E+02 -0.21902620330E+03  0.29923331212E+03  0.39212594955E+03  0.12500000000E+03 0.  0.
         21    1    1    2  503  504  0.71516196304E+02  0.12816565578E+03 -0.26409448805E+02  0.14912565387E+03  0.00000000000E+00 0.  1.
         21    1    1    2  504  501 -0.46522047078E+02  0.90860547520E+02 -0.20060060625E+02  0.10403050510E+03  0.00000000000E+00 0.  1.
<mgrwt>
<rscale>  4 0.25342096E+03</rscale>
<asrwt>0</asrwt>
<pdfrwt beam="1">  1       21 0.69080455E-01 0.25342096E+03</pdfrwt>
<pdfrwt beam="2">  1       21 0.30193716E-01 0.25342096E+03</pdfrwt>
<totfact> 0.19417745E+04</totfact>
</mgrwt>
</event>
<event>
 5    0  0.1359949E+000  0.2231404E+03  0.7546771E-02  0.1131563E+00
         21   -1    0    0  502  501  0.00000000000E+00  0.00000000000E+00  0.55061122031E+02  0.55061122031E+02  0.00000000000E+00 0. -1.
         21   -1    0    0  503  502 -0.00000000000E+00 -0.00000000000E+00 -0.16309766852E+04  0.16309766852E+04  0.00000000000E+00 0. -1.
         25    1    1    2    0    0  0.15309128275E+02  0.19957098789E+03 -0.12925242835E+04  0.13138900152E+04  0.12500000000E+03 0.  0.
         21    1    1    2  503  504  0.90807885612E+01 -0.44964121953E+02  0.27945115655E+01  0.45956961157E+02  0.00000000000E+00 0. -1.
         21    1    1    2  504  501 -0.24389916836E+02 -0.15460686594E+03 -0.28618579122E+03  0.32619083085E+03  0.00000000000E+00 0. -1.
<mgrwt>
<rscale>  4 0.22314045E+03</rscale>
<asrwt>0</asrwt>
<pdfrwt beam="1">  1       21 0.84709426E-02 0.22314045E+03</pdfrwt>
<pdfrwt beam="2">  1       21 0.25091947E+00 0.22314045E+03</pdfrwt>
<totfact> 0.69294121E+03</totfact>
</mgrwt>
</event>
<event>
 5    0  0.1359949E+000  0.2675379E+03  0.7546771E-02  0.1102697E+00
         21   -1    0    0  502  501  0.00000000000E+00  0.00000000000E+00  0.35872908282E+03  0.35872908282E+03  0.00000000000E+00 0.  1.
         21   -1    0    0  503  502 -0.00000000000E+00 -0.00000000000E+00 -0.24653007870E+03  0.24653007870E+03  0.00000000000E+00 0. -1.
         25    1    1    2    0    0  0.23378740058E+03  0.35985808781E+02  0.21423534254E+03  0.34274379513E+03  0.12500000000E+03 0.  0.
         21    1    1    2  503  504 -0.19857942389E+03 -0.25177597475E+02 -0.65438700034E+02  0.21059421281E+03  0.00000000000E+00 0. -1.
         21    1    1    2  504  501 -0.35207976693E+02 -0.10808211306E+02 -0.36597638386E+02  0.51921153588E+02  0.00000000000E+00 0. -1.
<mgrwt>
<rscale>  4 0.26753790E+03</rscale>
<asrwt>0</asrwt>
<pdfrwt beam="1">  1       21 0.55189090E-01 0.26753790E+03</pdfrwt>
<pdfrwt beam="2">  1       21 0.37927704E-01 0.26753790E+03</pdfrwt>
<totfact> 0.19958473E+04</totfact>
</mgrwt>
</event>
<event>
 5    0  0.1359949E+000  0.2318665E+03  0.7546771E-02  0.1125333E+00
         21   -1    0    0  502  501  0.00000000000E+00  0.00000000000E+00  0.90040321613E+03  0.90040321613E+03  0.00000000000E+00 0.  1.
         21   -1    0    0  503  502 -0.00000000000E+00 -0.00000000000E+00 -0.62616171544E+02  0.62616171544E+02  0.00000000000E+00 0.  1.
         25    1    1    2    0    0 -0.15713506011E+03 -0.12633880871E+03  0.55200309088E+03  0.60082055061E+03  0.12500000000E+03 0.  0.
         21    1    1    2  503  504 -0.83456510815E+01  0.27177976407E+02  0.50336691602E+02  0.57810680804E+02  0.00000000000E+00 0.  1.
         21    1    1    2  504  501  0.16548071119E+03  0.99160832298E+02  0.23544726211E+03  0.30438815626E+03  0.00000000000E+00 0.  1.
<mgrwt>
<rscale>  4 0.23186647E+03</rscale>
<asrwt>0</asrwt>
<pdfrwt beam="1">  1       21 0.13852356E+00 0.23186647E+03</pdfrwt>
<pdfrwt beam="2">  1       21 0.96332578E-02 0.23186647E+03</pdfrwt>
<totfact> 0.31163987E+04</totfact>
</mgrwt>
</event>
<event>
 5    0  0.1434082E+000  0.3177022E+03  0.7546771E-02  0.1076712E+00
         21   -1    0    0  502  501  0.00000000000E+00  0.00000000000E+00  0.17114829589E+03  0.17114829589E+03  0.00000000000E+00 0. -1.
         21   -1    0    0  503  502 -0.00000000000E+00 -0.00000000000E+00 -0.56322047972E+03  0.56322047972E+03  0.00000000000E+00 0. -1.
         25    1    1    2    0    0 -0.23569629855E+03 -0.17250193194E+03 -0.25884099623E+03  0.40979668496E+03  0.12500000000E+03 0.  0.
         21    1    1    2  503  504  0.20240504659E+02  0.46872826985E+00 -0.97914268347E+01  0.22489325791E+02  0.00000000000E+00 0.  1.
         21    1    1    2  504  501  0.21545579389E+03  0.17203320367E+03 -0.12343976075E+03  0.30208276486E+03  0.00000000000E+00 0. -1.
<mgrwt>
<rscale>  4 0.31770216E+03</rscale>
<asrwt>0</asrwt>
<pdfrwt beam="1">  1       21 0.26330507E-01 0.31770216E+03</pdfrwt>
<pdfrwt beam="2">  1       21 0.86649306E-01 0.31770216E+03</pdfrwt>
<totfact> 0.14746225E+04</totfact>
</mgrwt>
</event>
<event>
 5    0  0.1359949E+000  0.3004711E+03  0.7546771E-02  0.1085005E+00
         21   -1    0    0  502  501  0.00000000000E+00  0.00000000000E+00  0.77749019324E+03  0.77749019324E+03  0.00000000000E+00 0.  1.
         21   -1    0    0  503  502 -0.00000000000E+00 -0.00000000000E+00 -0.29136583850E+03  0.29136583850E+03  0.00000000000E+00 0.  1.
         25    1    1    2    0    0 -0.37203539364E+03  0.44935533645E+02  0.48473126733E+03  0.62531507085E+03  0.12500000000E+03 0.  0.
         21    1    1    2  503  504  0.18362737586E+03 -0.64517556156E+02  0.11163416998E+03  0.22437405403E+03  0.00000000000E+00 0.  1.
         21    1    1    2  504  501  0.18840801779E+03  0.19582022512E+02 -0.11024108257E+03  0.21916690685E+03  0.00000000000E+00 0.  1.
<mgrwt>
<rscale>  4 0.30047112E+03</rscale>
<asrwt>0</asrwt>
<pdfrwt beam="1">  1       21 0.11961388E+00 0.30047112E+03</pdfrwt>
<pdfrwt beam="2">  1       21 0.44825514E-01 0.30047112E+03</pdfrwt>
<totfact> 0.23506701E+03</totfact>
</mgrwt>
</event>
<event>
 5    0  0.1359949E+000  0.2620235E+03  0.7546771E-02  0.1105934E+00
         21   -1    0    0  502  501  0.00000000000E+00  0.00000000000E+00  0.71918900189E+03  0.71918900189E+03  0.00000000000E+00 0.  1.
         21   -1    0    0  503  502 -0.00000000000E+00 -0.00000000000E+00 -0.29700517539E+03  0.29700517539E+03  0.00000000000E+00 0.  1.
         25    1    1    2    0    0  0.24445105640E+03  0.99741749256E+01  0.59525381588E+03  0.65559736765E+03  0.12500000000E+03 0.  0.
         21    1    1    2  503  504 -0.22855406258E+03  0.17936115494E+02 -0.21052552937E+03  0.31125497952E+03  0.00000000000E+00 0.  1.
         21    1    1    2  504  501 -0.15896993817E+02 -0.27910290420E+02  0.37455539980E+02  0.49341830113E+02  0.00000000000E+00 0. -1.
<mgrwt>
<rscale>  4 0.26202355E+03</rscale>
<asrwt>0</asrwt>
<pdfrwt beam="1">  1       21 0.11064446E+00 0.26202355E+03</pdfrwt>
<pdfrwt beam="2">  1       21 0.45693104E-01 0.26202355E+03</pdfrwt>
<totfact> 0.28044378E+03</totfact>
</mgrwt>
</event>
<event>
 5    0  0.1359949E+000  0.2562143E+03  0.7546771E-02  0.1109439E+00
         21   -1    0    0  502  501  0.00000000000E+00  0.00000000000E+00  0.13218418926E+03  0.13218418926E+03  0.00000000000E+00 0.  1.
         21   -1    0    0  503  502 -0.00000000000E+00 -0.00000000000E+00 -0.78711870038E+03  0.78711870038E+03  0.00000000000E+00 0.  1.
         25    1    1    2    0    0 -0.22495138841E+03 -0.24260541034E+02 -0.87135384211E+02  0.27278063747E+03  0.12500000000E+03 0.  0.
         21    1    1    2  503  504  0.22077286432E+03 -0.43976738790E+02 -0.50820172716E+03  0.55582695748E+03  0.00000000000E+00 0.  1.
         21    1    1    2  504  501  0.41785240831E+01  0.68237279824E+02 -0.59597399756E+02  0.90695294690E+02  0.00000000000E+00 0. -1.
<mgrwt>
<rscale>  4 0.25621433E+03</rscale>
<asrwt>0</asrwt>
<pdfrwt beam="1">  1       21 0.20336029E-01 0.25621433E+03</pdfrwt>
<pdfrwt beam="2">  1       21 0.12109518E+00 0.25621433E+03</pdfrwt>
<totfact> 0.11096716E+04</totfact>
</mgrwt>
</event>
<event>
 5    0  0.1359949E+000  0.2435200E+03  0.7546771E-02  0.1117470E+00
         21   -1    0    0  502  501  0.00000000000E+00  0.00000000000E+00  0.10663251725E+03  0.10663251725E+03  0.00000000000E+00 0. -1.
         21   -1    0    0  503  502 -0.00000000000E+00 -0.00000000000E+00 -0.97394630642E+03  0.97394630642E+03  0.00000000000E+00 0. -1.
         25    1    1    2    0    0  0.16208815595E+03  0.13192587600E+03 -0.69540449389E+02  0.25325457776E+03  0.12500000000E+03 0.  0.
         21    1    1    2  503  504 -0.14236135387E+02 -0.43059472325E+02 -0.20525318655E+03  0.21020384463E+03  0.00000000000E+00 0. -1.
         21    1    1    2  504  501 -0.14785202056E+03 -0.88866403677E+02 -0.59252015323E+03  0.61712040128E+03  0.00000000000E+00 0. -1.
<mgrwt>
<rscale>  4 0.24352003E+03</rscale>
<asrwt>0</asrwt>
<pdfrwt beam="1">  1       21 0.16405003E-01 0.24352003E+03</pdfrwt>
<pdfrwt beam="2">  1       21 0.14983789E+00 0.24352003E+03</pdfrwt>
<totfact> 0.96358947E+03</totfact>
</mgrwt>
</event>
<event>
 5    0  0.1359949E+000  0.2305663E+03  0.7546771E-02  0.1126242E+00
         21   -1    0    0  502  501  0.00000000000E+00  0.00000000000E+00  0.45478870493E+03  0.45478870493E+03  0.00000000000E+00 0. -1.
         21   -1    0    0  503  502 -0.00000000000E+00 -0.00000000000E+00 -0.10288084428E+04  0.10288084428E+04  0.00000000000E+00 0.  1.
         25    1    1    2    0    0 -0.13098109161E+03  0.17023483763E+03  0.37998685948E+03  0.45403850022E+03  0.12500000000E+03 0.  0.
         21    1    1    2  503  504  0.62196210330E+02 -0.11262447426E+03 -0.81169487385E+02  0.15212207750E+03  0.00000000000E+00 0. -1.
         21    1    1    2  504  501  0.68784881277E+02 -0.57610363372E+02 -0.87283710997E+03  0.87743657001E+03  0.00000000000E+00 0.  1.
<mgrwt>
<rscale>  4 0.23056626E+03</rscale>
<asrwt>0</asrwt>
<pdfrwt beam="1">  1       21 0.69967494E-01 0.23056626E+03</pdfrwt>
<pdfrwt beam="2">  1       21 0.15827822E+00 0.23056626E+03</pdfrwt>
<totfact> 0.46131900E+02</totfact>
</mgrwt>
</event>
<event>
 5    0  0.1359949E+000  0.2955199E+03  0.7546771E-02  0.1087502E+00
         21   -1    0    0  502  501  0.00000000000E+00  0.00000000000E+00  0.14551773706E+03  0.14551773706E+03  0.00000000000E+00 0.  1.
         21   -1    0    0  503  502 -0.00000000000E+00 -0.00000000000E+00 -0.70685075726E+03  0.70685075726E+03  0.00000000000E+00 0.  1.
         25    1    1    2    0    0 -0.14101951387E+02 -0.26741002030E+03 -0.10113361795E+03  0.31234595030E+03  0.12500000000E+03 0.  0.
         21    1    1    2  503  504  0.21612876328E+02  0.23138147904E+03 -0.44106919652E+03  0.49854442268E+03  0.00000000000E+00 0.  1.
         21    1    1    2  504  501 -0.75109249402E+01  0.36028541256E+02 -0.19130205721E+02  0.41478121334E+02  0.00000000000E+00 0. -1.
<mgrwt>
<rscale>  4 0.29551985E+03</rscale>
<asrwt>0</asrwt>
<pdfrwt beam="1">  1       21 0.22387344E-01 0.29551985E+03</pdfrwt>
<pdfrwt beam="2">  1       21 0.10874627E+00 0.29551985E+03</pdfrwt>
<totfact> 0.11826702E+04</totfact>
</mgrwt>
</event>
<event>
 5    0  0.1359949E+000  0.2341308E+03  0.7546771E-02  0.1123766E+00
         21   -1    0    0  502  501  0.00000000000E+00  0.00000000000E+00  0.29173091270E+02  0.29173091270E+02  0.00000000000E+00 0.  1.
         21   -1    0    0  503  502 -0.00000000000E+00 -0.00000000000E+00 -0.20421332216E+04  0.20421332216E+04  0.00000000000E+00 0.  1.
         25    1    1    2    0    0  0.13546621197E+03 -0.16618825687E+03 -0.88355458846E+03  0.91774906271E+03  0.12500000000E+03 0.  0.
         21    1    1    2  503  504 -0.44908445316E+02  0.53237991106E+01 -0.33179844972E+03  0.33486612628E+03  0.00000000000E+00 0.  1.
         21    1    1    2  504  501 -0.90557766653E+02  0.16086445776E+03 -0.79760709220E+03  0.81869112393E+03  0.00000000000E+00 0.  1.
<mgrwt>
<rscale>  4 0.23413076E+03</rscale>
<asrwt>0</asrwt>
<pdfrwt beam="1">  1       21 0.44881666E-02 0.23413076E+03</pdfrwt>
<pdfrwt beam="2">  1       21 0.31417443E+00 0.23413076E+03</pdfrwt>
<totfact> 0.87465868E+03</totfact>
</mgrwt>
</event>
<event>
 5    0  0.1359949E+000  0.2398874E+03  0.7546771E-02  0.1119868E+00
         21   -1    0    0  502  501  0.00000000000E+00  0.00000000000E+00  0.16222255745E+03  0.16222255745E+03  0.00000000000E+00 0. -1.
         21   -1    0    0  503  502 -0.00000000000E+00 -0.00000000000E+00 -0.38464450954E+03  0.38464450954E+03  0.00000000000E+00 0. -1.
         25    1    1    2    0    0 -0.17490407220E+03  0.10644037278E+03  0.54155082391E+00  0.23988805870E+03  0.12500000000E+03 0.  0.
         21    1    1    2  503  504  0.14765941614E+03 -0.99139121212E+02 -0.16540049983E+03  0.24287691095E+03  0.00000000000E+00 0. -1.
         21    1    1    2  504  501  0.27244656065E+02 -0.73012515697E+01 -0.57563003079E+02  0.64102097330E+02  0.00000000000E+00 0. -1.
<mgrwt>
<rscale>  4 0.23988745E+03</rscale>
<asrwt>0</asrwt>
<pdfrwt beam="1">  1       21 0.24957317E-01 0.23988745E+03</pdfrwt>
<pdfrwt beam="2">  1       21 0.59176078E-01 0.23988745E+03</pdfrwt>
<totfact> 0.39647909E+04</totfact>
</mgrwt>
</event>
<event>
 5    0  0.1359949E+000  0.2574257E+03  0.7546771E-02  0.1108700E+00
         21   -1    0    0  502  501  0.00000000000E+00  0.00000000000E+00  0.65521942742E+02  0.65521942742E+02  0.00000000000E+00 0. -1.
         21   -1    0    0  503  502 -0.00000000000E+00 -0.00000000000E+00 -0.12162578082E+04  0.12162578082E+04  0.00000000000E+00 0. -1.
         25    1    1    2    0    0  0.22860192242E+03  0.98142630425E+02 -0.74270152398E+03  0.79317171443E+03  0.12500000000E+03 0.  0.
         21    1    1    2  503  504 -0.20615547264E+03 -0.63609403464E+02 -0.27611140322E+03  0.35040511140E+03  0.00000000000E+00 0. -1.
         21    1    1    2  504  501 -0.22446449775E+02 -0.34533226961E+02 -0.13192293823E+03  0.13820292508E+03  0.00000000000E+00 0.  1.
<mgrwt>
<rscale>  4 0.25742567E+03</rscale>
<asrwt>0</asrwt>
<pdfrwt beam="1">  1       21 0.10080299E-01 0.25742567E+03</pdfrwt>
<pdfrwt beam="2">  1       21 0.18711658E+00 0.25742567E+03</pdfrwt>
<totfact> 0.12459930E+04</totfact>
</mgrwt>
</event>
<event>
 5    0  0.1359949E+000  0.2458960E+03  0.7546771E-02  0.1115926E+00
         21   -1    0    0  502  501  0.00000000000E+00  0.00000000000E+00  0.11990367437E+04  0.11990367437E+04  0.00000000000E+00 0.  1.
         21   -1    0    0  503  502 -0.00000000000E+00 -0.00000000000E+00 -0.92724664070E+02  0.92724664070E+02  0.00000000000E+00 0.  1.
         25    1    1    2    0    0 -0.11417179009E+03  0.19484588400E+03  0.91782852805E+03  0.95343291482E+03  0.12500000000E+03 0.  0.
         21    1    1    2  503  504 -0.36826237747E+02 -0.84340103978E+02  0.44472099704E+02  0.10221150903E+03  0.00000000000E+00 0.  1.
         21    1    1    2  504  501  0.15099802784E+03 -0.11050578002E+03  0.14401145190E+03  0.23611698395E+03  0.00000000000E+00 0.  1.
<mgrwt>
<rscale>  4 0.24589598E+03</rscale>
<asrwt>0</asrwt>
<pdfrwt beam="1">  1       21 0.18446718E+00 0.24589598E+03</pdfrwt>
<pdfrwt beam="2">  1       21 0.14265334E-01 0.24589598E+03</pdfrwt>
<totfact> 0.70000197E+03</totfact>
</mgrwt>
</event>
<event>
 5    0  0.1359949E+000  0.2998433E+03  0.7546771E-02  0.1085319E+00
         21   -1    0    0  502  501  0.00000000000E+00  0.00000000000E+00  0.73313761414E+03  0.73313761414E+03  0.00000000000E+00 0.  1.
         21   -1    0    0  503  502 -0.00000000000E+00 -0.00000000000E+00 -0.12142641296E+04  0.12142641296E+04  0.00000000000E+00 0. -1.
         25    1    1    2    0    0  0.31724694621E+03 -0.33376084864E+03  0.54507031461E+03  0.72440912255E+03  0.12500000000E+03 0.  0.
         21    1    1    2  503  504 -0.17608344050E+03  0.10657528678E+03 -0.51370529271E+02  0.21213816499E+03  0.00000000000E+00 0. -1.
         21    1    1    2  504  501 -0.14116350572E+03  0.22718556186E+03 -0.97482630077E+03  0.10108544562E+04  0.00000000000E+00 0. -1.
<mgrwt>
<rscale>  4 0.29984328E+03</rscale>
<asrwt>0</asrwt>
<pdfrwt beam="1">  1       21 0.11279040E+00 0.29984328E+03</pdfrwt>
<pdfrwt beam="2">  1       21 0.18680987E+00 0.29984328E+03</pdfrwt>
<totfact> 0.89037559E+01</totfact>
</mgrwt>
</event>
<event>
 5    0  0.1359949E+000  0.2353298E+03  0.7546771E-02  0.1122944E+00
         21   -1    0    0  502  501  0.00000000000E+00  0.00000000000E+00  0.35674627872E+03  0.35674627872E+03  0.00000000000E+00 0.  1.
         21   -1    0    0  503  502 -0.00000000000E+00 -0.00000000000E+00 -0.27227269926E+03  0.27227269926E+03  0.00000000000E+00 0.  1.
         25    1    1    2    0    0  0.25713306775E+03 -0.23767674392E+02 -0.67858518395E+02  0.29480857415E+03  0.12500000000E+03 0.  0.
         21    1    1    2  503  504 -0.11077402724E+03  0.75504635683E+02  0.10971710067E+03  0.17323301446E+03  0.00000000000E+00 0.  1.
         21    1    1    2  504  501 -0.14635904051E+03 -0.51736961291E+02  0.42614997189E+02  0.16097738937E+03  0.00000000000E+00 0.  1.
<mgrwt>
<rscale>  4 0.23532981E+03</rscale>
<asrwt>0</asrwt>
<pdfrwt beam="1">  1       21 0.54884043E-01 0.23532981E+03</pdfrwt>
<pdfrwt beam="2">  1       21 0.41888107E-01 0.23532981E+03</pdfrwt>
<totfact> 0.16764955E+04</totfact>
</mgrwt>
</event>
<event>
 5    0  0.1359949E+000  0.2898707E+03  0.7546771E-02  0.1090417E+00
         21   -1    0    0  502  501  0.00000000000E+00  0.00000000000E+00  0.47887180207E+03  0.47887180207E+03  0.00000000000E+00 0. -1.
         21   -1    0    0  503  502 -0.00000000000E+00 -0.00000000000E+00 -0.32354290276E+03  0.32354290276E+03  0.00000000000E+00 0. -1.
         25    1    1    2    0    0  0.54614161087E+01  0.24994457174E+03  0.25144734658E+03  0.37596925953E+03  0.12500000000E+03 0.  0.
         21    1    1    2  503  504 -0.93723679143E+02  0.46991109181E+02 -0.12529721942E+02  0.10559018092E+03  0.00000000000E+00 0. -1.
         21    1    1    2  504  501  0.88262263034E+02 -0.29693568092E+03 -0.83588725337E+02  0.32085526438E+03  0.00000000000E+00 0. -1.
<mgrwt>
<rscale>  4 0.28987075E+03</rscale>
<asrwt>0</asrwt>
<pdfrwt beam="1">  1       21 0.73672585E-01 0.28987075E+03</pdfrwt>
<pdfrwt beam="2">  1       21 0.49775831E-01 0.28987075E+03</pdfrwt>
<totfact> 0.59866145E+03</totfact>
</mgrwt>
</event>
<event>
 5    0  0.1359949E+000  0.2453316E+03  0.7546771E-02  0.1116291E+00
         21   -1    0    0  502  501  0.00000000000E+00  0.00000000000E+00  0.81910922768E+03  0.81910922768E+03  0.00000000000E+00 0.  1.
         21   -1    0    0  503  502 -0.00000000000E+00 -0.00000000000E+00 -0.65654533256E+02  0.65654533256E+02  0.00000000000E+00 0.  1.
         25    1    1    2    0    0 -0.20844814451E+03 -0.33345817950E+02  0.33831471564E+03  0.41790479698E+03  0.12500000000E+03 0.  0.
         21    1    1    2  503  504  0.26656284938E+02  0.47431160805E+01  0.80837368286E+02  0.85251010482E+02  0.00000000000E+00 0. -1.
         21    1    1    2  504  501  0.18179185958E+03  0.28602701870E+02  0.33430261050E+03  0.38160795347E+03  0.00000000000E+00 0.  1.
<mgrwt>
<rscale>  4 0.24533156E+03</rscale>
<asrwt>0</asrwt>
<pdfrwt beam="1">  1       21 0.12601680E+00 0.24533156E+03</pdfrwt>
<pdfrwt beam="2">  1       21 0.10100698E-01 0.24533156E+03</pdfrwt>
<totfact> 0.36241746E+04</totfact>
</mgrwt>
</event>
<event>
 5    0  0.1359949E+000  0.2573529E+03  0.7546771E-02  0.1108744E+00
         21   -1    0    0  502  501  0.00000000000E+00  0.00000000000E+00  0.83623886092E+03  0.83623886092E+03  0.00000000000E+00 0. -1.
         21   -1    0    0  503  502 -0.00000000000E+00 -0.00000000000E+00 -0.70236031950E+03  0.70236031950E+03  0.00000000000E+00 0.  1.
         25    1    1    2    0    0  0.67686462297E+02 -0.22098457520E+03  0.76323905107E+03  0.80720164069E+03  0.12500000000E+03 0.  0.
         21    1    1    2  503  504 -0.21554008576E+02  0.47411449781E+02 -0.51684975091E+03  0.51946711722E+03  0.00000000000E+00 0.  1.
         21    1    1    2  504  501 -0.46132453721E+02  0.17357312542E+03 -0.11251075873E+03  0.21193042251E+03  0.00000000000E+00 0. -1.
<mgrwt>
<rscale>  4 0.25735293E+03</rscale>
<asrwt>0</asrwt>
<pdfrwt beam="1">  1       21 0.12865213E+00 0.25735293E+03</pdfrwt>
<pdfrwt beam="2">  1       21 0.10805543E+00 0.25735293E+03</pdfrwt>
<totfact> 0.28264324E+02</totfact>
</mgrwt>
</event>
<event>
 5    0  0.1359949E+000  0.2078496E+03  0.7546771E-02  0.1143280E+00
         21   -1    0    0  502  501  0.00000000000E+00  0.00000000000E+00  0.34858091100E+03  0.34858091100E+03  0.00000000000E+00 0.  1.
         21   -1    0    0  503  502 -0.00000000000E+00 -0.00000000000E+00 -0.19341272194E+03  0.19341272194E+03  0.00000000000E+00 0.  1.
         25    1    1    2    0    0 -0.19798069439E+03  0.10559632256E+03  0.71873433685E+02  0.26671657083E+03  0.12500000000E+03 0.  0.
         21    1    1    2  503  504  0.60219154641E+02 -0.62313637814E+02  0.97186263078E+02  0.13020946884E+03  0.00000000000E+00 0.  1.
         21    1    1    2  504  501  0.13776153975E+03 -0.43282684742E+02 -0.13891507693E+02  0.14506759327E+03  0.00000000000E+00 0.  1.
<mgrwt>
<rscale>  4 0.20784960E+03</rscale>
<asrwt>0</asrwt>
<pdfrwt beam="1">  1       21 0.53627832E-01 0.20784960E+03</pdfrwt>
<pdfrwt beam="2">  1       21 0.29755804E-01 0.20784960E+03</pdfrwt>
<totfact> 0.35337840E+04</totfact>
</mgrwt>
</event>
<event>
 5    0  0.1359949E+000  0.2863524E+03  0.7546771E-02  0.1092269E+00
         21   -1    0    0  502  501  0.00000000000E+00  0.00000000000E+00  0.50578011842E+03  0.50578011842E+03  0.00000000000E+00 0. -1.
         21   -1    0    0  503  502 -0.00000000000E+00 -0.00000000000E+00 -0.15715816485E+03  0.15715816485E+03  0.00000000000E+00 0.  1.
         25    1    1    2    0    0 -0.52803746109E+02 -0.25215955431E+03  0.24082128275E+03  0.37415580533E+03  0.12500000000E+03 0.  0.
         21    1    1    2  503  504  0.49235273220E+02  0.12818502521E+03  0.24776048137E+02  0.13953266778E+03  0.00000000000E+00 0.  1.
         21    1    1    2  504  501  0.35684728892E+01  0.12397452910E+03  0.83024622671E+02  0.14924981016E+03  0.00000000000E+00 0.  1.
<mgrwt>
<rscale>  4 0.28635236E+03</rscale>
<asrwt>0</asrwt>
<pdfrwt beam="1">  1       21 0.77812325E-01 0.28635236E+03</pdfrwt>
<pdfrwt beam="2">  1       21 0.24178179E-01 0.28635236E+03</pdfrwt>
<totfact> 0.22551520E+04</totfact>
</mgrwt>
</event>
<event>
 5    0  0.1359949E+000  0.3357898E+03  0.7546771E-02  0.1068603E+00
         21   -1    0    0  502  501  0.00000000000E+00  0.00000000000E+00  0.36500327102E+03  0.36500327102E+03  0.00000000000E+00 0.  1.
         21   -1    0    0  503  502 -0.00000000000E+00 -0.00000000000E+00 -0.36524002829E+03  0.36524002829E+03  0.00000000000E+00 0. -1.
         25    1    1    2    0    0  0.29396998042E+03  0.10349601762E+03  0.15788835694E+03  0.37105728441E+03  0.12500000000E+03 0.  0.
         21    1    1    2  503  504 -0.27308259048E+03 -0.80111313537E+02 -0.11756104554E+03  0.30791642244E+03  0.00000000000E+00 0. -1.
         21    1    1    2  504  501 -0.20887389947E+02 -0.23384704084E+02 -0.40564068673E+02  0.51269592462E+02  0.00000000000E+00 0. -1.
<mgrwt>
<rscale>  4 0.33578978E+03</rscale>
<asrwt>0</asrwt>
<pdfrwt beam="1">  1       21 0.56154349E-01 0.33578978E+03</pdfrwt>
<pdfrwt beam="2">  1       21 0.56190774E-01 0.33578978E+03</pdfrwt>
<totfact> 0.82295595E+03</totfact>
</mgrwt>
</event>
<event>
 5    0  0.1359949E+000  0.2791980E+03  0.7546771E-02  0.1096128E+00
         21   -1    0    0  502  501  0.00000000000E+00  0.00000000000E+00  0.26120195005E+03  0.26120195005E+03  0.00000000000E+00 0.  1.
         21   -1    0    0  503  502 -0.00000000000E+00 -0.00000000000E+00 -0.27700525102E+03  0.27700525102E+03  0.00000000000E+00 0. -1.
         25    1    1    2    0    0  0.14462304651E+03  0.20349624173E+03  0.27336679534E+01  0.27921142333E+03  0.12500000000E+03 0.  0.
         21    1    1    2  503  504 -0.49646587866E+02 -0.23821952004E+02 -0.22528319724E+01  0.55112106981E+02  0.00000000000E+00 0. -1.
         21    1    1    2  504  501 -0.94976458644E+02 -0.17967428973E+03 -0.16284136953E+02  0.20388367076E+03  0.00000000000E+00 0. -1.
<mgrwt>
<rscale>  4 0.27919804E+03</rscale>
<asrwt>0</asrwt>
<pdfrwt beam="1">  1       21 0.40184915E-01 0.27919804E+03</pdfrwt>
<pdfrwt beam="2">  1       21 0.42616193E-01 0.27919804E+03</pdfrwt>
<totfact> 0.30350147E+04</totfact>
</mgrwt>
</event>
<event>
 5    0  0.1359949E+000  0.2700064E+03  0.7546771E-02  0.1101276E+00
         21   -1    0    0  502  501  0.00000000000E+00  0.00000000000E+00  0.43016914593E+03  0.43016914593E+03  0.00000000000E+00 0.  1.
         21   -1    0    0  503  502 -0.00000000000E+00 -0.00000000000E+00 -0.66308190650E+03  0.66308190650E+03  0.00000000000E+00 0.  1.
         25    1    1    2    0    0  0.23641665122E+03 -0.37224008625E+02  0.36085989280E+03  0.45069204788E+03  0.12500000000E+03 0.  0.
         21    1    1    2  503  504 -0.31244211408E+02  0.80237482297E+00 -0.13668967196E+03  0.14021737044E+03  0.00000000000E+00 0.  1.
         21    1    1    2  504  501 -0.20517243981E+03  0.36421633802E+02 -0.45708298141E+03  0.50234163411E+03  0.00000000000E+00 0.  1.
<mgrwt>
<rscale>  4 0.27000641E+03</rscale>
<asrwt>0</asrwt>
<pdfrwt beam="1">  1       21 0.66179869E-01 0.27000641E+03</pdfrwt>
<pdfrwt beam="2">  1       21 0.10201260E+00 0.27000641E+03</pdfrwt>
<totfact> 0.15409051E+03</totfact>
</mgrwt>
</event>
<event>
 5    0  0.1359949E+000  0.2470445E+03  0.7546771E-02  0.1115187E+00
         21   -1    0    0  502  501  0.00000000000E+00  0.00000000000E+00  0.84525023949E+03  0.84525023949E+03  0.00000000000E+00 0. -1.
         21   -1    0    0  503  502 -0.00000000000E+00 -0.00000000000E+00 -0.15792662367E+03  0.15792662367E+03  0.00000000000E+00 0. -1.
         25    1    1    2    0    0 -0.19282676573E+03 -0.90685344063E+02  0.73637311604E+03  0.77670867076E+03  0.12500000000E+03 0.  0.
         21    1    1    2  503  504  0.80253635379E+02  0.26886409144E+02 -0.47517990278E+02  0.97064331184E+02  0.00000000000E+00 0. -1.
         21    1    1    2  504  501  0.11257313035E+03  0.63798934919E+02 -0.15315099404E+01  0.12940386122E+03  0.00000000000E+00 0. -1.
<mgrwt>
<rscale>  4 0.24704452E+03</rscale>
<asrwt>0</asrwt>
<pdfrwt beam="1">  1       21 0.13003850E+00 0.24704452E+03</pdfrwt>
<pdfrwt beam="2">  1       21 0.24296404E-01 0.24704452E+03</pdfrwt>
<totfact> 0.66465519E+03</totfact>
</mgrwt>
</event>
<event>
 5    0  0.1359949E+000  0.2734672E+03  0.7546771E-02  0.1099311E+00
         21   -1    0    0  502  501  0.00000000000E+00  0.00000000000E+00  0.16409274102E+03  0.16409274102E+03  0.00000000000E+00 0.  1.
         21   -1    0    0  503  502 -0.00000000000E+00 -0.00000000000E+00 -0.81334053571E+03  0.81334053571E+03  0.00000000000E+00 0.  1.
         25    1    1    2    0    0  0.15715796248E+03 -0.26785761244E+03 -0.15032729730E+03  0.36697359854E+03  0.12500000000E+03 0.  0.
         21    1    1    2  503  504 -0.96873305211E+02  0.20542936847E+03 -0.46458212753E+03  0.51712881946E+03  0.00000000000E+00 0.  1.
         21    1    1    2  504  501 -0.60284657270E+02  0.62428243970E+02 -0.34338369849E+02  0.93330858730E+02  0.00000000000E+00 0.  1.
<mgrwt>
<rscale>  4 0.27346721E+03</rscale>
<asrwt>0</asrwt>
<pdfrwt beam="1">  1       21 0.25245037E-01 0.27346721E+03</pdfrwt>
<pdfrwt beam="2">  1       21 0.12512931E+00 0.27346721E+03</pdfrwt>
<totfact> 0.67029418E+03</totfact>
</mgrwt>
</event>
<event>
 5    0  0.1359949E+000  0.2539525E+03  0.7546771E-02  0.1110832E+00
         21   -1    0    0  502  501  0.00000000000E+00  0.00000000000E+00  0.81435189846E+03  0.81435189846E+03  0.00000000000E+00 0. -1.
         21   -1    0    0  503  502 -0.00000000000E+00 -0.00000000000E+00 -0.83853397997E+02  0.83853397997E+02  0.00000000000E+00 0. -1.
         25    1    1    2    0    0  0.11673163640E+02 -0.22075008642E+03  0.55888237690E+03  0.61387407065E+03  0.12500000000E+03 0.  0.
         21    1    1    2  503  504 -0.55398759132E+01  0.14516687147E+03  0.14132244748E+03  0.20267250667E+03  0.00000000000E+00 0. -1.
         21    1    1    2  504  501 -0.61332877271E+01  0.75583214947E+02  0.30293676077E+02  0.81658719133E+02  0.00000000000E+00 0. -1.
<mgrwt>
<rscale>  4 0.25395248E+03</rscale>
<asrwt>0</asrwt>
<pdfrwt beam="1">  1       21 0.12528490E+00 0.25395248E+03</pdfrwt>
<pdfrwt beam="2">  1       21 0.12900523E-01 0.25395248E+03</pdfrwt>
<totfact> 0.23617910E+04</totfact>
</mgrwt>
</event>
<event>
 5    0  0.1359949E+000  0.3127590E+03  0.7546771E-02  0.1079031E+00
         21   -1    0    0  502  501  0.00000000000E+00  0.00000000000E+00  0.64001896850E+03  0.64001896850E+03  0.00000000000E+00 0.  1.
         21   -1    0    0  503  502 -0.00000000000E+00 -0.00000000000E+00 -0.82629927568E+03  0.82629927568E+03  0.00000000000E+00 0. -1.
         25    1    1    2    0    0  0.23475263640E+03  0.16457326845E+03  0.57069693976E+03  0.65077888567E+03  0.12500000000E+03 0.  0.
         21    1    1    2  503  504 -0.22771642877E+03 -0.11894731901E+03 -0.65581307288E+03  0.70433942328E+03  0.00000000000E+00 0. -1.
         21    1    1    2  504  501 -0.70362076346E+01 -0.45625949434E+02 -0.10116417407E+03  0.11119993523E+03  0.00000000000E+00 0.  1.
<mgrwt>
<rscale>  4 0.31275895E+03</rscale>
<asrwt>0</asrwt>
<pdfrwt beam="1">  1       21 0.98464457E-01 0.31275895E+03</pdfrwt>
<pdfrwt beam="2">  1       21 0.12712296E+00 0.31275895E+03</pdfrwt>
<totfact> 0.34896754E+02</totfact>
</mgrwt>
</event>
<event>
 5    0  0.1359949E+000  0.2255161E+03  0.7546771E-02  0.1129836E+00
         21   -1    0    0  502  501  0.00000000000E+00  0.00000000000E+00  0.25679698472E+03  0.25679698472E+03  0.00000000000E+00 0.  1.
         21   -1    0    0  503  502 -0.00000000000E+00 -0.00000000000E+00 -0.86511290655E+03  0.86511290655E+03  0.00000000000E+00 0.  1.
         25    1    1    2    0    0 -0.19769977311E+03 -0.65422832248E+02  0.17118920052E+03  0.29714657939E+03  0.12500000000E+03 0.  0.
         21    1    1    2  503  504  0.75211907633E+02  0.44650342442E+02 -0.60069669817E+03  0.60703130670E+03  0.00000000000E+00 0.  1.
         21    1    1    2  504  501  0.12248786548E+03  0.20772489806E+02 -0.17880842418E+03  0.21773200518E+03  0.00000000000E+00 0.  1.
<mgrwt>
<rscale>  4 0.22551607E+03</rscale>
<asrwt>0</asrwt>
<pdfrwt beam="1">  1       21 0.39507228E-01 0.22551607E+03</pdfrwt>
<pdfrwt beam="2">  1       21 0.13309429E+00 0.22551607E+03</pdfrwt>
<totfact> 0.24449513E+03</totfact>
</mgrwt>
</event>
<event>
 5    0  0.1359949E+000  0.3322279E+03  0.7546771E-02  0.1070155E+00
         21   -1    0    0  502  501  0.00000000000E+00  0.00000000000E+00  0.18505178050E+04  0.18505178050E+04  0.00000000000E+00 0. -1.
         21   -1    0    0  503  502 -0.00000000000E+00 -0.00000000000E+00 -0.78303727163E+02  0.78303727163E+02  0.00000000000E+00 0. -1.
         25    1    1    2    0    0  0.12027392832E+03  0.28334526165E+03  0.14208616471E+04  0.14591857920E+04  0.12500000000E+03 0.  0.
         21    1    1    2  503  504 -0.53363165899E+01 -0.37015097471E+02  0.25372570617E+02  0.45192488926E+02  0.00000000000E+00 0. -1.
         21    1    1    2  504  501 -0.11493761173E+03 -0.24633016417E+03  0.32597986004E+03  0.42444325124E+03  0.00000000000E+00 0. -1.
<mgrwt>
<rscale>  4 0.33222787E+03</rscale>
<asrwt>0</asrwt>
<pdfrwt beam="1">  1       21 0.28469501E+00 0.33222787E+03</pdfrwt>
<pdfrwt beam="2">  1       21 0.12046729E-01 0.33222787E+03</pdfrwt>
<totfact> 0.21451188E+03</totfact>
</mgrwt>
</event>
<event>
 5    0  0.1359949E+000  0.4495534E+03  0.7546771E-02  0.1027855E+00
         21   -1    0    0  502  501  0.00000000000E+00  0.00000000000E+00  0.76822495440E+03  0.76822495440E+03  0.00000000000E+00 0.  1.
         21   -1    0    0  503  502 -0.00000000000E+00 -0.00000000000E+00 -0.27171628247E+03  0.27171628247E+03  0.00000000000E+00 0.  1.
         25    1    1    2    0    0  0.40136260766E+03 -0.15931523314E+03  0.36326901381E+03  0.57798154186E+03  0.12500000000E+03 0.  0.
         21    1    1    2  503  504 -0.11304600981E+02  0.28919124232E+02  0.96307286102E+01  0.32509393769E+02  0.00000000000E+00 0. -1.
         21    1    1    2  504  501 -0.39005800668E+03  0.13039610890E+03  0.12360892951E+03  0.42945030125E+03  0.00000000000E+00 0.  1.
<mgrwt>
<rscale>  4 0.44955343E+03</rscale>
<asrwt>0</asrwt>
<pdfrwt beam="1">  1       21 0.11818845E+00 0.44955343E+03</pdfrwt>
<pdfrwt beam="2">  1       21 0.41802505E-01 0.44955343E+03</pdfrwt>
<totfact> 0.26143783E+03</totfact>
</mgrwt>
</event>
<event>
 5    0  0.1359949E+000  0.2323139E+03  0.7546771E-02  0.1125022E+00
         21   -1    0    0  502  501  0.00000000000E+00  0.00000000000E+00  0.45647336248E+02  0.45647336248E+02  0.00000000000E+00 0.  1.
         21   -1    0    0  503  502 -0.00000000000E+00 -0.00000000000E+00 -0.14742431455E+04  0.14742431455E+04  0.00000000000E+00 0.  1.
         25    1    1    2    0    0  0.19727528311E+03  0.69845925008E+02 -0.42038326156E+03  0.48594554960E+03  0.12500000000E+03 0.  0.
         21    1    1    2  503  504 -0.15436392889E+03 -0.86231533575E+02 -0.68352737067E+03  0.70602674622E+03  0.00000000000E+00 0.  1.
         21    1    1    2  504  501 -0.42911354224E+02  0.16385608567E+02 -0.32468517701E+03  0.32791818592E+03  0.00000000000E+00 0.  1.
<mgrwt>
<rscale>  4 0.23231394E+03</rscale>
<asrwt>0</asrwt>
<pdfrwt beam="1">  1       21 0.70226664E-02 0.23231394E+03</pdfrwt>
<pdfrwt beam="2">  1       21 0.22680666E+00 0.23231394E+03</pdfrwt>
<totfact> 0.13317559E+04</totfact>
</mgrwt>
</event>
<event>
 5    0  0.1359949E+000  0.2442560E+03  0.7546771E-02  0.1116990E+00
         21   -1    0    0  502  501  0.00000000000E+00  0.00000000000E+00  0.25376861587E+03  0.25376861587E+03  0.00000000000E+00 0. -1.
         21   -1    0    0  503  502 -0.00000000000E+00 -0.00000000000E+00 -0.42731855096E+03  0.42731855096E+03  0.00000000000E+00 0. -1.
         25    1    1    2    0    0 -0.78216650912E+02  0.19472586205E+03  0.15365370884E+03  0.28856622823E+03  0.12500000000E+03 0.  0.
         21    1    1    2  503  504  0.85992434899E+02 -0.16888464934E+03 -0.27904979240E+03  0.33732107891E+03  0.00000000000E+00 0. -1.
         21    1    1    2  504  501 -0.77757839868E+01 -0.25841212711E+02 -0.48153851541E+02  0.55199859685E+02  0.00000000000E+00 0.  1.
<mgrwt>
<rscale>  4 0.24425603E+03</rscale>
<asrwt>0</asrwt>
<pdfrwt beam="1">  1       21 0.39041325E-01 0.24425603E+03</pdfrwt>
<pdfrwt beam="2">  1       21 0.65741316E-01 0.24425603E+03</pdfrwt>
<totfact> 0.13038631E+04</totfact>
</mgrwt>
</event>
<event>
 5    0  0.1359949E+000  0.2630836E+03  0.7546771E-02  0.1105305E+00
         21   -1    0    0  502  501  0.00000000000E+00  0.00000000000E+00  0.60512146658E+02  0.60512146658E+02  0.00000000000E+00 0. -1.
         21   -1    0    0  503  502 -0.00000000000E+00 -0.00000000000E+00 -0.11285506389E+04  0.11285506389E+04  0.00000000000E+00 0. -1.
         25    1    1    2    0    0 -0.21957592479E+03 -0.73310395511E+02 -0.43766713123E+03  0.51065205238E+03  0.12500000000E+03 0.  0.
         21    1    1    2  503  504  0.73636170845E+02 -0.14618210717E+02 -0.13380215059E+03  0.15342422639E+03  0.00000000000E+00 0. -1.
         21    1    1    2  504  501  0.14593975395E+03  0.87928606228E+02 -0.49656921047E+03  0.52498650684E+03  0.00000000000E+00 0. -1.
<mgrwt>
<rscale>  4 0.26308364E+03</rscale>
<asrwt>0</asrwt>
<pdfrwt beam="1">  1       21 0.93095606E-02 0.26308364E+03</pdfrwt>
<pdfrwt beam="2">  1       21 0.17362318E+00 0.26308364E+03</pdfrwt>
<totfact> 0.17715879E+04</totfact>
</mgrwt>
</event>
<event>
 5    0  0.1359949E+000  0.2358444E+03  0.7546771E-02  0.1122593E+00
         21   -1    0    0  502  501  0.00000000000E+00  0.00000000000E+00  0.13300723770E+04  0.13300723770E+04  0.00000000000E+00 0.  1.
         21   -1    0    0  503  502 -0.00000000000E+00 -0.00000000000E+00 -0.98615703316E+02  0.98615703316E+02  0.00000000000E+00 0.  1.
         25    1    1    2    0    0  0.18051054755E+03 -0.11083325839E+03  0.11220537852E+04  0.11486939392E+04  0.12500000000E+03 0.  0.
         21    1    1    2  503  504 -0.16070227694E+03  0.48144323609E+02  0.12874136043E+03  0.21146497487E+03  0.00000000000E+00 0.  1.
         21    1    1    2  504  501 -0.19808270605E+02  0.62688934782E+02 -0.19338471996E+02  0.68529166255E+02  0.00000000000E+00 0.  1.
<mgrwt>
<rscale>  4 0.23584444E+03</rscale>
<asrwt>0</asrwt>
<pdfrwt beam="1">  1       21 0.20462651E+00 0.23584444E+03</pdfrwt>
<pdfrwt beam="2">  1       21 0.15171648E-01 0.23584444E+03</pdfrwt>
<totfact> 0.46414600E+03</totfact>
</mgrwt>
</event>
<event>
 5    0  0.1359949E+000  0.2225061E+03  0.7546771E-02  0.1132028E+00
         21   -1    0    0  502  501  0.00000000000E+00  0.00000000000E+00  0.10288983530E+03  0.10288983530E+03  0.00000000000E+00 0. -1.
         21   -1    0    0  503  502 -0.00000000000E+00 -0.00000000000E+00 -0.61849285706E+03  0.61849285706E+03  0.00000000000E+00 0. -1.
         25    1    1    2    0    0  0.13027562012E+03  0.15813270096E+03 -0.12963034199E+03  0.27277594079E+03  0.12500000000E+03 0.  0.
         21    1    1    2  503  504 -0.44746708141E+02 -0.14057332888E+01 -0.43687218609E+02  0.62552514301E+02  0.00000000000E+00 0.  1.
         21    1    1    2  504  501 -0.85528911979E+02 -0.15672696767E+03 -0.34228546117E+03  0.38605423726E+03  0.00000000000E+00 0. -1.
<mgrwt>
<rscale>  4 0.22250613E+03</rscale>
<asrwt>0</asrwt>
<pdfrwt beam="1">  1       21 0.15829206E-01 0.22250613E+03</pdfrwt>
<pdfrwt beam="2">  1       21 0.95152745E-01 0.22250613E+03</pdfrwt>
<totfact> 0.32290557E+04</totfact>
</mgrwt>
</event>
<event>
 5    0  0.1359949E+000  0.2678561E+03  0.7546771E-02  0.1102513E+00
         21   -1    0    0  502  501  0.00000000000E+00  0.00000000000E+00  0.83185566222E+03  0.83185566222E+03  0.00000000000E+00 0.  1.
         21   -1    0    0  503  502 -0.00000000000E+00 -0.00000000000E+00 -0.88470231165E+02  0.88470231165E+02  0.00000000000E+00 0. -1.
         25    1    1    2    0    0 -0.21058607260E+03  0.10851453149E+03  0.25108321465E+03  0.36713713813E+03  0.12500000000E+03 0.  0.
         21    1    1    2  503  504  0.16234223489E+03 -0.12077306754E+03  0.40334174153E+03  0.45124903937E+03  0.00000000000E+00 0. -1.
         21    1    1    2  504  501  0.48243837714E+02  0.12258536046E+02  0.88960474874E+02  0.10193971588E+03  0.00000000000E+00 0.  1.
<mgrwt>
<rscale>  4 0.26785611E+03</rscale>
<asrwt>0</asrwt>
<pdfrwt beam="1">  1       21 0.12797779E+00 0.26785611E+03</pdfrwt>
<pdfrwt beam="2">  1       21 0.13610805E-01 0.26785611E+03</pdfrwt>
<totfact> 0.20165722E+04</totfact>
</mgrwt>
</event>
<event>
 5    0  0.1359949E+000  0.2995774E+03  0.7546771E-02  0.1085452E+00
         21   -1    0    0  502  501  0.00000000000E+00  0.00000000000E+00  0.44007827435E+03  0.44007827435E+03  0.00000000000E+00 0.  1.
         21   -1    0    0  503  502 -0.00000000000E+00 -0.00000000000E+00 -0.19659781868E+03  0.19659781868E+03  0.00000000000E+00 0. -1.
         25    1    1    2    0    0 -0.15093006656E+03 -0.22658712063E+03  0.18199621984E+03  0.35052707780E+03  0.12500000000E+03 0.  0.
         21    1    1    2  503  504 -0.24239622108E+01  0.30167930303E+02  0.60918435363E+01  0.30872158481E+02  0.00000000000E+00 0. -1.
         21    1    1    2  504  501  0.15335402878E+03  0.19641919033E+03  0.55392392287E+02  0.25527685676E+03  0.00000000000E+00 0. -1.
<mgrwt>
<rscale>  4 0.29957738E+03</rscale>
<asrwt>0</asrwt>
<pdfrwt beam="1">  1       21 0.67704350E-01 0.29957738E+03</pdfrwt>
<pdfrwt beam="2">  1       21 0.30245818E-01 0.29957738E+03</pdfrwt>
<totfact> 0.19829249E+04</totfact>
</mgrwt>
</event>
<event>
 5    0  0.1359949E+000  0.2325368E+03  0.7546771E-02  0.1124867E+00
         21   -1    0    0  502  501  0.00000000000E+00  0.00000000000E+00  0.13939978389E+04  0.13939978389E+04  0.00000000000E+00 0.  1.
         21   -1    0    0  503  502 -0.00000000000E+00 -0.00000000000E+00 -0.68050850244E+02  0.68050850244E+02  0.00000000000E+00 0.  1.
         25    1    1    2    0    0 -0.14347494049E+03 -0.18722385905E+03  0.47941986006E+03  0.54873147729E+03  0.12500000000E+03 0.  0.
         21    1    1    2  503  504  0.16649103717E+03  0.87206653530E+02  0.74726079318E+03  0.77053420359E+03  0.00000000000E+00 0.  1.
         21    1    1    2  504  501 -0.23016096675E+02  0.10001720552E+03  0.99266335450E+02  0.14278300830E+03  0.00000000000E+00 0.  1.
<mgrwt>
<rscale>  4 0.23253682E+03</rscale>
<asrwt>0</asrwt>
<pdfrwt beam="1">  1       21 0.21446119E+00 0.23253682E+03</pdfrwt>
<pdfrwt beam="2">  1       21 0.10469363E-01 0.23253682E+03</pdfrwt>
<totfact> 0.78739400E+03</totfact>
</mgrwt>
</event>
<event>
 5    0  0.1359949E+000  0.2630498E+03  0.7546771E-02  0.1105325E+00
         21   -1    0    0  502  501  0.00000000000E+00  0.00000000000E+00  0.52094137118E+02  0.52094137118E+02  0.00000000000E+00 0.  1.
         21   -1    0    0  503  502 -0.00000000000E+00 -0.00000000000E+00 -0.13412309227E+04  0.13412309227E+04  0.00000000000E+00 0.  1.
         25    1    1    2    0    0  0.11304782024E+03  0.20196629409E+03 -0.47185186202E+03  0.54022159648E+03  0.12500000000E+03 0.  0.
         21    1    1    2  503  504 -0.45980407290E+02 -0.43209170453E+02 -0.12948466002E+03  0.14403995087E+03  0.00000000000E+00 0. -1.
         21    1    1    2  504  501 -0.67067412953E+02 -0.15875712364E+03 -0.68780026351E+03  0.70906351244E+03  0.00000000000E+00 0.  1.
<mgrwt>
<rscale>  4 0.26304979E+03</rscale>
<asrwt>0</asrwt>
<pdfrwt beam="1">  1       21 0.80144830E-02 0.26304979E+03</pdfrwt>
<pdfrwt beam="2">  1       21 0.20634321E+00 0.26304979E+03</pdfrwt>
<totfact> 0.13918859E+04</totfact>
</mgrwt>
</event>
<event>
 5    0  0.1359949E+000  0.3938048E+03  0.7546771E-02  0.1045946E+00
         21   -1    0    0  502  501  0.00000000000E+00  0.00000000000E+00  0.17453056086E+04  0.17453056086E+04  0.00000000000E+00 0. -1.
         21   -1    0    0  503  502 -0.00000000000E+00 -0.00000000000E+00 -0.16266519100E+03  0.16266519100E+03  0.00000000000E+00 0. -1.
         25    1    1    2    0    0  0.33886322636E+03 -0.76298511449E+02  0.98955459057E+03  0.10561690380E+04  0.12500000000E+03 0.  0.
         21    1    1    2  503  504  0.41605581519E+02  0.17581419364E+03  0.33738556382E+03  0.38271487269E+03  0.00000000000E+00 0. -1.
         21    1    1    2  504  501 -0.38046880788E+03 -0.99515682193E+02  0.25570026319E+03  0.46908688894E+03  0.00000000000E+00 0. -1.
<mgrwt>
<rscale>  4 0.39380478E+03</rscale>
<asrwt>0</asrwt>
<pdfrwt beam="1">  1       21 0.26850854E+00 0.39380478E+03</pdfrwt>
<pdfrwt beam="2">  1       21 0.25025415E-01 0.39380478E+03</pdfrwt>
<totfact> 0.65515843E+02</totfact>
</mgrwt>
</event>
<event>
 5    0  0.1359949E+000  0.2465050E+03  0.7546771E-02  0.1115534E+00
         21   -1    0    0  502  501  0.00000000000E+00  0.00000000000E+00  0.14466780448E+04  0.14466780448E+04  0.00000000000E+00 0. -1.
         21   -1    0    0  503  502 -0.00000000000E+00 -0.00000000000E+00 -0.15681210581E+03  0.15681210581E+03  0.00000000000E+00 0.  1.
         25    1    1    2    0    0 -0.20404665234E+03 -0.59200174051E+02  0.13521243172E+04  0.13744107342E+04  0.12500000000E+03 0.  0.
         21    1    1    2  503  504  0.17464251070E+03  0.28187855508E+02 -0.42180294819E+02  0.18186186794E+03  0.00000000000E+00 0.  1.
         21    1    1    2  504  501  0.29404141638E+02  0.31012318542E+02 -0.20078083460E+02  0.47217548457E+02  0.00000000000E+00 0.  1.
<mgrwt>
<rscale>  4 0.24650496E+03</rscale>
<asrwt>0</asrwt>
<pdfrwt beam="1">  1       21 0.22256584E+00 0.24650496E+03</pdfrwt>
<pdfrwt beam="2">  1       21 0.24124940E-01 0.24650496E+03</pdfrwt>
<totfact> 0.14900230E+03</totfact>
</mgrwt>
</event>
<event>
 5    0  0.1359949E+000  0.2784136E+03  0.7546771E-02  0.1096559E+00
         21   -1    0    0  502  501  0.00000000000E+00  0.00000000000E+00  0.44084249489E+03  0.44084249489E+03  0.00000000000E+00 0.  1.
         21   -1    0    0  503  502 -0.00000000000E+00 -0.00000000000E+00 -0.17727354704E+03  0.17727354704E+03  0.00000000000E+00 0. -1.
         25    1    1    2    0    0 -0.13107912512E+03 -0.21144118811E+03  0.21430386251E+03  0.35134065885E+03  0.12500000000E+03 0.  0.
         21    1    1    2  503  504  0.41507450450E+02  0.11702120785E+02  0.46928610218E+01  0.43380076283E+02  0.00000000000E+00 0.  1.
         21    1    1    2  504  501  0.89571674672E+02  0.19973906733E+03  0.44572224320E+02  0.22339530680E+03  0.00000000000E+00 0. -1.
<mgrwt>
<rscale>  4 0.27841356E+03</rscale>
<asrwt>0</asrwt>
<pdfrwt beam="1">  1       21 0.67821922E-01 0.27841356E+03</pdfrwt>
<pdfrwt beam="2">  1       21 0.27272853E-01 0.27841356E+03</pdfrwt>
<totfact> 0.24398547E+04</totfact>
</mgrwt>
</event>
<event>
 5    0  0.1359949E+000  0.2168150E+03  0.7546771E-02  0.1136280E+00
         21   -1    0    0  502  501  0.00000000000E+00  0.00000000000E+00  0.92097687316E+02  0.92097687316E+02  0.00000000000E+00 0.  1.
         21   -1    0    0  503  502 -0.00000000000E+00 -0.00000000000E+00 -0.10097563910E+04  0.10097563910E+04  0.00000000000E+00 0. -1.
         25    1    1    2    0    0  0.13887852132E+03 -0.14622974300E+03 -0.12887184614E+03  0.27000617428E+03  0.12500000000E+03 0.  0.
         21    1    1    2  503  504 -0.12640945024E+03  0.25810081706E+02 -0.53959434177E+03  0.55480407632E+03  0.00000000000E+00 0. -1.
         21    1    1    2  504  501 -0.12469071080E+02  0.12041966129E+03 -0.24919251577E+03  0.27704382771E+03  0.00000000000E+00 0. -1.
<mgrwt>
<rscale>  4 0.21681501E+03</rscale>
<asrwt>0</asrwt>
<pdfrwt beam="1">  1       21 0.14168874E-01 0.21681501E+03</pdfrwt>
<pdfrwt beam="2">  1       21 0.15534715E+00 0.21681501E+03</pdfrwt>
<totfact> 0.11647771E+04</totfact>
</mgrwt>
</event>
<event>
 5    0  0.1359949E+000  0.2493356E+03  0.7546771E-02  0.1113725E+00
         21   -1    0    0  502  501  0.00000000000E+00  0.00000000000E+00  0.83947654169E+03  0.83947654169E+03  0.00000000000E+00 0.  1.
         21   -1    0    0  503  502 -0.00000000000E+00 -0.00000000000E+00 -0.12280743823E+03  0.12280743823E+03  0.00000000000E+00 0. -1.
         25    1    1    2    0    0  0.17934577202E+03 -0.11990972238E+03  0.69094749998E+03  0.73455884393E+03  0.12500000000E+03 0.  0.
         21    1    1    2  503  504 -0.14427743355E+03  0.68494137015E+02  0.38281268621E+02  0.16423422349E+03  0.00000000000E+00 0. -1.
         21    1    1    2  504  501 -0.35068338469E+02  0.51415585366E+02 -0.12559665141E+02  0.63490912499E+02  0.00000000000E+00 0. -1.
<mgrwt>
<rscale>  4 0.24933561E+03</rscale>
<asrwt>0</asrwt>
<pdfrwt beam="1">  1       21 0.12915023E+00 0.24933561E+03</pdfrwt>
<pdfrwt beam="2">  1       21 0.18893453E-01 0.24933561E+03</pdfrwt>
<totfact> 0.10869063E+04</totfact>
</mgrwt>
</event>
<event>
 5    0  0.1359949E+000  0.3837326E+03  0.7546771E-02  0.1049563E+00
         21   -1    0    0  502  501  0.00000000000E+00  0.00000000000E+00  0.32943077625E+03  0.32943077625E+03  0.00000000000E+00 0. -1.
         21   -1    0    0  503  502 -0.00000000000E+00 -0.00000000000E+00 -0.65778257040E+03  0.65778257040E+03  0.00000000000E+00 0. -1.
         25    1    1    2    0    0  0.33029840564E+03  0.22699246311E+03  0.35246444979E+02  0.42129553399E+03  0.12500000000E+03 0.  0.
         21    1    1    2  503  504 -0.29506118754E+03 -0.19064882929E+03 -0.37519634666E+03  0.51398480430E+03  0.00000000000E+00 0. -1.
         21    1    1    2  504  501 -0.35237218094E+02 -0.36343633825E+02  0.11598107530E+02  0.51933008356E+02  0.00000000000E+00 0. -1.
<mgrwt>
<rscale>  4 0.38373262E+03</rscale>
<asrwt>0</asrwt>
<pdfrwt beam="1">  1       21 0.50681658E-01 0.38373262E+03</pdfrwt>
<pdfrwt beam="2">  1       21 0.10119732E+00 0.38373262E+03</pdfrwt>
<totfact> 0.26303463E+03</totfact>
</mgrwt>
</event>
<event>
 5    0  0.1359949E+000  0.2325310E+03  0.7546771E-02  0.1124871E+00
         21   -1    0    0  502  501  0.00000000000E+00  0.00000000000E+00  0.17429026332E+04  0.17429026332E+04  0.00000000000E+00 0. -1.
         21   -1    0    0  503  502 -0.00000000000E+00 -0.00000000000E+00 -0.14344200529E+03  0.14344200529E+03  0.00000000000E+00 0. -1.
         25    1    1    2    0    0  0.26390531114E+02 -0.20047229603E+03  0.16324362505E+04  0.16496541193E+04  0.12500000000E+03 0.  0.
         21    1    1    2  503  504 -0.42866588599E+01  0.50100144186E+02 -0.64180253218E+02  0.81532231631E+02  0.00000000000E+00 0. -1.
         21    1    1    2  504  501 -0.22103872254E+02  0.15037215185E+03  0.31204630699E+02  0.15515828756E+03  0.00000000000E+00 0. -1.
<mgrwt>
<rscale>  4 0.23253102E+03</rscale>
<asrwt>0</asrwt>
<pdfrwt beam="1">  1       21 0.26813885E+00 0.23253102E+03</pdfrwt>
<pdfrwt beam="2">  1       21 0.22068002E-01 0.23253102E+03</pdfrwt>
<totfact> 0.95395277E+02</totfact>
</mgrwt>
</event>
<event>
 5    0  0.1359949E+000  0.2384470E+03  0.7546771E-02  0.1120832E+00
         21   -1    0    0  502  501  0.00000000000E+00  0.00000000000E+00  0.48610999102E+02  0.48610999102E+02  0.00000000000E+00 0.  1.
         21   -1    0    0  503  502 -0.00000000000E+00 -0.00000000000E+00 -0.10369546671E+04  0.10369546671E+04  0.00000000000E+00 0.  1.
         25    1    1    2    0    0  0.18759939643E+03 -0.77707485011E+02 -0.46420849681E+03  0.52186829304E+03  0.12500000000E+03 0.  0.
         21    1    1    2  503  504 -0.10292812248E+03  0.65207516357E+02 -0.30404064196E+03  0.32754683719E+03  0.00000000000E+00 0.  1.
         21    1    1    2  504  501 -0.84671273948E+02  0.12499968654E+02 -0.22009452926E+03  0.23615053601E+03  0.00000000000E+00 0.  1.
<mgrwt>
<rscale>  4 0.23844703E+03</rscale>
<asrwt>0</asrwt>
<pdfrwt beam="1">  1       21 0.74786155E-02 0.23844703E+03</pdfrwt>
<pdfrwt beam="2">  1       21 0.15953148E+00 0.23844703E+03</pdfrwt>
<totfact> 0.33317343E+04</totfact>
</mgrwt>
</event>
<event>
 5    0  0.1359949E+000  0.3597519E+03  0.7546771E-02  0.1058682E+00
         21   -1    0    0  502  501  0.00000000000E+00  0.00000000000E+00  0.12543128892E+04  0.12543128892E+04  0.00000000000E+00 0.  1.
         21   -1    0    0  503  502 -0.00000000000E+00 -0.00000000000E+00 -0.16994702392E+03  0.16994702392E+03  0.00000000000E+00 0. -1.
         25    1    1    2    0    0 -0.28567310478E+03 -0.17940826204E+03  0.10095441860E+04  0.10717280023E+04  0.12500000000E+03 0.  0.
         21    1    1    2  503  504  0.18861574684E+03  0.15349666780E+03  0.41526882421E+02  0.24670145712E+03  0.00000000000E+00 0. -1.
         21    1    1    2  504  501  0.97057357937E+02  0.25911594247E+02  0.33294796853E+02  0.10583045376E+03  0.00000000000E+00 0. -1.
<mgrwt>
<rscale>  4 0.35975192E+03</rscale>
<asrwt>0</asrwt>
<pdfrwt beam="1">  1       21 0.19297121E+00 0.35975192E+03</pdfrwt>
<pdfrwt beam="2">  1       21 0.26145697E-01 0.35975192E+03</pdfrwt>
<totfact> 0.18299288E+03</totfact>
</mgrwt>
</event>
<event>
 5    0  0.1359949E+000  0.2852124E+03  0.7546771E-02  0.1092876E+00
         21   -1    0    0  502  501  0.00000000000E+00  0.00000000000E+00  0.43048886094E+03  0.43048886094E+03  0.00000000000E+00 0. -1.
         21   -1    0    0  503  502 -0.00000000000E+00 -0.00000000000E+00 -0.65553061149E+03  0.65553061149E+03  0.00000000000E+00 0. -1.
         25    1    1    2    0    0  0.17096067204E+03  0.19305847077E+03  0.34720326336E+03  0.45019354794E+03  0.12500000000E+03 0.  0.
         21    1    1    2  503  504 -0.14994793087E+03 -0.18655236650E+03 -0.56337290225E+03  0.61210717559E+03  0.00000000000E+00 0. -1.
         21    1    1    2  504  501 -0.21012741168E+02 -0.65061042705E+01 -0.88721116551E+01  0.23718748900E+02  0.00000000000E+00 0.  1.
<mgrwt>
<rscale>  4 0.28521240E+03</rscale>
<asrwt>0</asrwt>
<pdfrwt beam="1">  1       21 0.66229056E-01 0.28521240E+03</pdfrwt>
<pdfrwt beam="2">  1       21 0.10085086E+00 0.28521240E+03</pdfrwt>
<totfact> 0.15655499E+03</totfact>
</mgrwt>
</event>
<event>
 5    0  0.1359949E+000  0.3249740E+03  0.7546771E-02  0.1073383E+00
         21   -1    0    0  502  501  0.00000000000E+00  0.00000000000E+00  0.64655067774E+03  0.64655067774E+03  0.00000000000E+00 0. -1.
         21   -1    0    0  503  502 -0.00000000000E+00 -0.00000000000E+00 -0.15694653172E+03  0.15694653172E+03  0.00000000000E+00 0. -1.
         25    1    1    2    0    0 -0.99106109939E+02  0.28312730730E+03  0.25939775013E+03  0.41580678919E+03  0.12500000000E+03 0.  0.
         21    1    1    2  503  504  0.50190681453E+01 -0.10483046281E+03  0.45930994241E+02  0.11456122036E+03  0.00000000000E+00 0. -1.
         21    1    1    2  504  501  0.94087041794E+02 -0.17829684449E+03  0.18427540165E+03  0.27312919990E+03  0.00000000000E+00 0. -1.
<mgrwt>
<rscale>  4 0.32497399E+03</rscale>
<asrwt>0</asrwt>
<pdfrwt beam="1">  1       21 0.99469333E-01 0.32497399E+03</pdfrwt>
<pdfrwt beam="2">  1       21 0.24145621E-01 0.32497399E+03</pdfrwt>
<totfact> 0.12545301E+04</totfact>
</mgrwt>
</event>
<event>
 5    0  0.1359949E+000  0.2800750E+03  0.7546771E-02  0.1095648E+00
         21   -1    0    0  502  501  0.00000000000E+00  0.00000000000E+00  0.17996204994E+03  0.17996204994E+03  0.00000000000E+00 0. -1.
         21   -1    0    0  503  502 -0.00000000000E+00 -0.00000000000E+00 -0.64979967259E+03  0.64979967259E+03  0.00000000000E+00 0. -1.
         25    1    1    2    0    0  0.17676527368E+03  0.17768242654E+03  0.14754056432E+02  0.28046334674E+03  0.12500000000E+03 0.  0.
         21    1    1    2  503  504 -0.12979272003E+03 -0.15879216220E+03 -0.35226700976E+03  0.40761887483E+03  0.00000000000E+00 0. -1.
         21    1    1    2  504  501 -0.46972553655E+02 -0.18890264346E+02 -0.13232466932E+03  0.14167950097E+03  0.00000000000E+00 0.  1.
<mgrwt>
<rscale>  4 0.28007500E+03</rscale>
<asrwt>0</asrwt>
<pdfrwt beam="1">  1       21 0.27686469E-01 0.28007500E+03</pdfrwt>
<pdfrwt beam="2">  1       21 0.99969180E-01 0.28007500E+03</pdfrwt>
<totfact> 0.97049137E+03</totfact>
</mgrwt>
</event>
<event>
 5    0  0.1359949E+000  0.2393902E+03  0.7546771E-02  0.1120200E+00
         21   -1    0    0  502  501  0.00000000000E+00  0.00000000000E+00  0.13674429959E+03  0.13674429959E+03  0.00000000000E+00 0. -1.
         21   -1    0    0  503  502 -0.00000000000E+00 -0.00000000000E+00 -0.39524253131E+03  0.39524253131E+03  0.00000000000E+00 0.  1.
         25    1    1    2    0    0 -0.62267509859E+02  0.19443618454E+03 -0.62104873456E+02  0.24731495699E+03  0.12500000000E+03 0.  0.
         21    1    1    2  503  504  0.51681772952E+02 -0.17657752110E+03 -0.16561133228E+03  0.24754341032E+03  0.00000000000E+00 0.  1.
         21    1    1    2  504  501  0.10585736908E+02 -0.17858663445E+02 -0.30782025977E+02  0.37128463598E+02  0.00000000000E+00 0.  1.
<mgrwt>
<rscale>  4 0.23939021E+03</rscale>
<asrwt>0</asrwt>
<pdfrwt beam="1">  1       21 0.21037585E-01 0.23939021E+03</pdfrwt>
<pdfrwt beam="2">  1       21 0.60806543E-01 0.23939021E+03</pdfrwt>
<totfact> 0.51758676E+04</totfact>
</mgrwt>
</event>
<event>
 5    0  0.1359949E+000  0.3037516E+03  0.7546771E-02  0.1083380E+00
         21   -1    0    0  502  501  0.00000000000E+00  0.00000000000E+00  0.10292552099E+04  0.10292552099E+04  0.00000000000E+00 0.  1.
         21   -1    0    0  503  502 -0.00000000000E+00 -0.00000000000E+00 -0.14203561940E+03  0.14203561940E+03  0.00000000000E+00 0.  1.
         25    1    1    2    0    0  0.25594200224E+03 -0.13270054437E+03  0.69488522043E+03  0.76263111172E+03  0.12500000000E+03 0.  0.
         21    1    1    2  503  504 -0.25557154152E+03  0.36621125419E+02  0.10465618967E+03  0.27858721740E+03  0.00000000000E+00 0.  1.
         21    1    1    2  504  501 -0.37046072624E+00  0.96079418956E+02  0.87678180453E+02  0.13007250023E+03  0.00000000000E+00 0.  1.
<mgrwt>
<rscale>  4 0.30375158E+03</rscale>
<asrwt>0</asrwt>
<pdfrwt beam="1">  1       21 0.15834695E+00 0.30375158E+03</pdfrwt>
<pdfrwt beam="2">  1       21 0.21851634E-01 0.30375158E+03</pdfrwt>
<totfact> 0.46854035E+03</totfact>
</mgrwt>
</event>
<event>
 5    0  0.1359949E+000  0.3057972E+03  0.7546771E-02  0.1082378E+00
         21   -1    0    0  502  501  0.00000000000E+00  0.00000000000E+00  0.86722386853E+03  0.86722386853E+03  0.00000000000E+00 0. -1.
         21   -1    0    0  503  502 -0.00000000000E+00 -0.00000000000E+00 -0.21799958675E+03  0.21799958675E+03  0.00000000000E+00 0. -1.
         25    1    1    2    0    0 -0.17948221820E+03 -0.21371263127E+03  0.72636588250E+03  0.78811125527E+03  0.12500000000E+03 0.  0.
         21    1    1    2  503  504  0.29375003182E+02  0.77188765197E+01  0.13924359305E+01  0.30404123808E+02  0.00000000000E+00 0. -1.
         21    1    1    2  504  501  0.15010721502E+03  0.20599375475E+03 -0.78534036650E+02  0.26670807620E+03  0.00000000000E+00 0. -1.
<mgrwt>
<rscale>  4 0.30579725E+03</rscale>
<asrwt>0</asrwt>
<pdfrwt beam="1">  1       21 0.13341905E+00 0.30579725E+03</pdfrwt>
<pdfrwt beam="2">  1       21 0.33538398E-01 0.30579725E+03</pdfrwt>
<totfact> 0.32014732E+03</totfact>
</mgrwt>
</event>
<event>
 5    0  0.1359949E+000  0.2707703E+03  0.7546771E-02  0.1100840E+00
         21   -1    0    0  502  501  0.00000000000E+00  0.00000000000E+00  0.61302282130E+02  0.61302282130E+02  0.00000000000E+00 0. -1.
         21   -1    0    0  503  502 -0.00000000000E+00 -0.00000000000E+00 -0.12112495439E+04  0.12112495439E+04  0.00000000000E+00 0. -1.
         25    1    1    2    0    0 -0.92533649374E+02 -0.22165085847E+03 -0.41641356606E+03  0.49670598680E+03  0.12500000000E+03 0.  0.
         21    1    1    2  503  504  0.99725611726E+02  0.16637164887E+03 -0.51510791891E+03  0.55041883262E+03  0.00000000000E+00 0. -1.
         21    1    1    2  504  501 -0.71919623524E+01  0.55279209599E+02 -0.21842577676E+03  0.22542700657E+03  0.00000000000E+00 0. -1.
<mgrwt>
<rscale>  4 0.27077034E+03</rscale>
<asrwt>0</asrwt>
<pdfrwt beam="1">  1       21 0.94311214E-02 0.27077034E+03</pdfrwt>
<pdfrwt beam="2">  1       21 0.18634606E+00 0.27077034E+03</pdfrwt>
<totfact> 0.14081417E+04</totfact>
</mgrwt>
</event>
<event>
 5    0  0.1359949E+000  0.2414341E+03  0.7546771E-02  0.1118841E+00
         21   -1    0    0  502  501  0.00000000000E+00  0.00000000000E+00  0.18354057887E+03  0.18354057887E+03  0.00000000000E+00 0. -1.
         21   -1    0    0  503  502 -0.00000000000E+00 -0.00000000000E+00 -0.49319291295E+03  0.49319291295E+03  0.00000000000E+00 0.  1.
         25    1    1    2    0    0  0.20046273607E+03 -0.49800977118E+02  0.61199037572E+02  0.24906980563E+03  0.12500000000E+03 0.  0.
         21    1    1    2  503  504 -0.26547135877E+02 -0.84829233512E+01 -0.32667009687E+02  0.42940003886E+02  0.00000000000E+00 0.  1.
         21    1    1    2  504  501 -0.17391560020E+03  0.58283900469E+02 -0.33818436197E+03  0.38472368230E+03  0.00000000000E+00 0.  1.
<mgrwt>
<rscale>  4 0.24143414E+03</rscale>
<asrwt>0</asrwt>
<pdfrwt beam="1">  1       21 0.28237012E-01 0.24143414E+03</pdfrwt>
<pdfrwt beam="2">  1       21 0.75875833E-01 0.24143414E+03</pdfrwt>
<totfact> 0.18057628E+04</totfact>
</mgrwt>
</event>
<event>
 5    0  0.1359949E+000  0.2690756E+03  0.7546771E-02  0.1101810E+00
         21   -1    0    0  502  501  0.00000000000E+00  0.00000000000E+00  0.47003473840E+03  0.47003473840E+03  0.00000000000E+00 0.  1.
         21   -1    0    0  503  502 -0.00000000000E+00 -0.00000000000E+00 -0.74600666166E+03  0.74600666166E+03  0.00000000000E+00 0.  1.
         25    1    1    2    0    0 -0.17059436272E+03 -0.16779806589E+03  0.40458286454E+03  0.48638556906E+03  0.12500000000E+03 0.  0.
         21    1    1    2  503  504  0.30343175523E+02 -0.59447624874E+01 -0.35652412406E+02  0.47192616077E+02  0.00000000000E+00 0.  1.
         21    1    1    2  504  501  0.14025118719E+03  0.17374282838E+03 -0.64490237540E+03  0.68246321492E+03  0.00000000000E+00 0.  1.
<mgrwt>
<rscale>  4 0.26907561E+03</rscale>
<asrwt>0</asrwt>
<pdfrwt beam="1">  1       21 0.72313037E-01 0.26907561E+03</pdfrwt>
<pdfrwt beam="2">  1       21 0.11477026E+00 0.26907561E+03</pdfrwt>
<totfact> 0.95030200E+02</totfact>
</mgrwt>
</event>
<event>
 5    0  0.1359949E+000  0.2744630E+03  0.7546771E-02  0.1098752E+00
         21   -1    0    0  502  501  0.00000000000E+00  0.00000000000E+00  0.43062422960E+03  0.43062422960E+03  0.00000000000E+00 0. -1.
         21   -1    0    0  503  502 -0.00000000000E+00 -0.00000000000E+00 -0.29731935300E+03  0.29731935300E+03  0.00000000000E+00 0. -1.
         25    1    1    2    0    0  0.18396461139E+03 -0.16081654783E+03  0.31524673201E+03  0.41798378239E+03  0.12500000000E+03 0.  0.
         21    1    1    2  503  504 -0.75812633878E+02  0.71837437438E+02 -0.11295292212E+03  0.15383931711E+03  0.00000000000E+00 0. -1.
         21    1    1    2  504  501 -0.10815197751E+03  0.88979110393E+02 -0.68988933298E+02  0.15612048310E+03  0.00000000000E+00 0. -1.
<mgrwt>
<rscale>  4 0.27446300E+03</rscale>
<asrwt>0</asrwt>
<pdfrwt beam="1">  1       21 0.66249882E-01 0.27446300E+03</pdfrwt>
<pdfrwt beam="2">  1       21 0.45741439E-01 0.27446300E+03</pdfrwt>
<totfact> 0.91198147E+03</totfact>
</mgrwt>
</event>
<event>
 5    0  0.1359949E+000  0.3535746E+03  0.7546771E-02  0.1061157E+00
         21   -1    0    0  502  501  0.00000000000E+00  0.00000000000E+00  0.23506726877E+04  0.23506726877E+04  0.00000000000E+00 0. -1.
         21   -1    0    0  503  502 -0.00000000000E+00 -0.00000000000E+00 -0.64029398658E+02  0.64029398658E+02  0.00000000000E+00 0.  1.
         25    1    1    2    0    0 -0.25428669938E+03 -0.21149067005E+03  0.17269438000E+04  0.17627676867E+04  0.12500000000E+03 0.  0.
         21    1    1    2  503  504  0.21329189859E+03  0.19806417012E+03  0.49237226728E+03  0.57197316290E+03  0.00000000000E+00 0.  1.
         21    1    1    2  504  501  0.40994800787E+02  0.13426499931E+02  0.67327221815E+02  0.79961236792E+02  0.00000000000E+00 0. -1.
<mgrwt>
<rscale>  4 0.35357464E+03</rscale>
<asrwt>0</asrwt>
<pdfrwt beam="1">  1       21 0.36164188E+00 0.35357464E+03</pdfrwt>
<pdfrwt beam="2">  1       21 0.98506786E-02 0.35357464E+03</pdfrwt>
<totfact> 0.10497383E+03</totfact>
</mgrwt>
</event>
<event>
 5    0  0.1359949E+000  0.2478635E+03  0.7546771E-02  0.1114663E+00
         21   -1    0    0  502  501  0.00000000000E+00  0.00000000000E+00  0.11438314727E+04  0.11438314727E+04  0.00000000000E+00 0. -1.
         21   -1    0    0  503  502 -0.00000000000E+00 -0.00000000000E+00 -0.18792287418E+03  0.18792287418E+03  0.00000000000E+00 0. -1.
         25    1    1    2    0    0  0.21255608571E+03  0.25123877638E+02  0.10589220066E+04  0.10875440749E+04  0.12500000000E+03 0.  0.
         21    1    1    2  503  504 -0.16756903394E+03  0.43704281500E+01 -0.78226520012E+02  0.18498072929E+03  0.00000000000E+00 0. -1.
         21    1    1    2  504  501 -0.44987051774E+02 -0.29494305788E+02 -0.24786888103E+02  0.59229542655E+02  0.00000000000E+00 0. -1.
<mgrwt>
<rscale>  4 0.24786347E+03</rscale>
<asrwt>0</asrwt>
<pdfrwt beam="1">  1       21 0.17597407E+00 0.24786347E+03</pdfrwt>
<pdfrwt beam="2">  1       21 0.28911212E-01 0.24786347E+03</pdfrwt>
<totfact> 0.21140248E+03</totfact>
</mgrwt>
</event>
<event>
 5    0  0.1359949E+000  0.3399307E+03  0.7546771E-02  0.1067145E+00
         21   -1    0    0  502  501  0.00000000000E+00  0.00000000000E+00  0.27344945281E+03  0.27344945281E+03  0.00000000000E+00 0.  1.
         21   -1    0    0  503  502 -0.00000000000E+00 -0.00000000000E+00 -0.42281623406E+03  0.42281623406E+03  0.00000000000E+00 0.  1.
         25    1    1    2    0    0  0.20738821082E+03 -0.23429470992E+03 -0.10800625025E+03  0.35382796834E+03  0.12500000000E+03 0.  0.
         21    1    1    2  503  504 -0.17570356036E+03  0.12791110433E+03  0.15188688816E+02  0.21786162581E+03  0.00000000000E+00 0.  1.
         21    1    1    2  504  501 -0.31684650466E+02  0.10638360559E+03 -0.56549219828E+02  0.12457609272E+03  0.00000000000E+00 0.  1.
<mgrwt>
<rscale>  4 0.33918068E+03</rscale>
<asrwt>0</asrwt>
<pdfrwt beam="1">  1       21 0.42069146E-01 0.33993072E+03</pdfrwt>
<pdfrwt beam="2">  1       21 0.65048652E-01 0.33993072E+03</pdfrwt>
<totfact> 0.10967819E+04</totfact>
</mgrwt>
</event>
<event>
 5    0  0.1359949E+000  0.2483612E+03  0.7546771E-02  0.1114345E+00
         21   -1    0    0  502  501  0.00000000000E+00  0.00000000000E+00  0.16596283162E+04  0.16596283162E+04  0.00000000000E+00 0. -1.
         21   -1    0    0  503  502 -0.00000000000E+00 -0.00000000000E+00 -0.46474101633E+02  0.46474101633E+02  0.00000000000E+00 0. -1.
         25    1    1    2    0    0 -0.22237654821E+02  0.21345672318E+03  0.13112176902E+04  0.13345317970E+04  0.12500000000E+03 0.  0.
         21    1    1    2  503  504  0.10544696444E+02 -0.19026311109E+03  0.26777228432E+03  0.32865367534E+03  0.00000000000E+00 0. -1.
         21    1    1    2  504  501  0.11692958377E+02 -0.23193612093E+02  0.34164240050E+02  0.42916945554E+02  0.00000000000E+00 0.  1.
<mgrwt>
<rscale>  4 0.24836120E+03</rscale>
<asrwt>0</asrwt>
<pdfrwt beam="1">  1       21 0.25532739E+00 0.24836120E+03</pdfrwt>
<pdfrwt beam="2">  1       21 0.71498631E-02 0.24836120E+03</pdfrwt>
<totfact> 0.85914261E+03</totfact>
</mgrwt>
</event>
<event>
 5    0  0.1359949E+000  0.2747399E+03  0.7546771E-02  0.1098597E+00
         21   -1    0    0  502  501  0.00000000000E+00  0.00000000000E+00  0.11212366536E+04  0.11212366536E+04  0.00000000000E+00 0. -1.
         21   -1    0    0  503  502 -0.00000000000E+00 -0.00000000000E+00 -0.61800904237E+02  0.61800904237E+02  0.00000000000E+00 0. -1.
         25    1    1    2    0    0 -0.13627665815E+03 -0.20318884688E+03  0.61800083898E+03  0.67631876510E+03  0.12500000000E+03 0.  0.
         21    1    1    2  503  504  0.12929582849E+03  0.18015751431E+03  0.41772118217E+03  0.47293247642E+03  0.00000000000E+00 0. -1.
         21    1    1    2  504  501  0.69808296631E+01  0.23031332573E+02  0.23713728170E+02  0.33786316262E+02  0.00000000000E+00 0. -1.
<mgrwt>
<rscale>  4 0.27473994E+03</rscale>
<asrwt>0</asrwt>
<pdfrwt beam="1">  1       21 0.17249793E+00 0.27473994E+03</pdfrwt>
<pdfrwt beam="2">  1       21 0.95078322E-02 0.27473994E+03</pdfrwt>
<totfact> 0.17271627E+04</totfact>
</mgrwt>
</event>
<event>
 5    0  0.1359949E+000  0.2875652E+03  0.7546771E-02  0.1091627E+00
         21   -1    0    0  502  501  0.00000000000E+00  0.00000000000E+00  0.74906855825E+03  0.74906855825E+03  0.00000000000E+00 0. -1.
         21   -1    0    0  503  502 -0.00000000000E+00 -0.00000000000E+00 -0.29066060801E+03  0.29066060801E+03  0.00000000000E+00 0.  1.
         25    1    1    2    0    0 -0.23239843373E+03 -0.11427903725E+03  0.64736042848E+03  0.70835672843E+03  0.12500000000E+03 0.  0.
         21    1    1    2  503  504  0.45039159412E+02 -0.11462311164E+02 -0.28859642961E+02  0.54706393133E+02  0.00000000000E+00 0.  1.
         21    1    1    2  504  501  0.18735927432E+03  0.12574134841E+03 -0.16009283528E+03  0.27666604469E+03  0.00000000000E+00 0.  1.
<mgrwt>
<rscale>  4 0.28756518E+03</rscale>
<asrwt>0</asrwt>
<pdfrwt beam="1">  1       21 0.11524132E+00 0.28756518E+03</pdfrwt>
<pdfrwt beam="2">  1       21 0.44717017E-01 0.28756518E+03</pdfrwt>
<totfact> 0.26114001E+03</totfact>
</mgrwt>
</event>
<event>
 5    0  0.1359949E+000  0.4550292E+03  0.7546771E-02  0.1026233E+00
         21   -1    0    0  502  501  0.00000000000E+00  0.00000000000E+00  0.34401903476E+03  0.34401903476E+03  0.00000000000E+00 0.  1.
         21   -1    0    0  503  502 -0.00000000000E+00 -0.00000000000E+00 -0.84854556215E+03  0.84854556215E+03  0.00000000000E+00 0.  1.
         25    1    1    2    0    0  0.18835904494E+03 -0.44169197969E+03 -0.17831117207E+03  0.52724833695E+03  0.12500000000E+03 0.  0.
         21    1    1    2  503  504 -0.35725192525E+02  0.64377573332E+02 -0.23762413878E+03  0.24876895437E+03  0.00000000000E+00 0. -1.
         21    1    1    2  504  501 -0.15263385242E+03  0.37731440635E+03 -0.88591216544E+02  0.41654730559E+03  0.00000000000E+00 0.  1.
<mgrwt>
<rscale>  4 0.45502921E+03</rscale>
<asrwt>0</asrwt>
<pdfrwt beam="1">  1       21 0.52926005E-01 0.45502921E+03</pdfrwt>
<pdfrwt beam="2">  1       21 0.13054547E+00 0.45502921E+03</pdfrwt>
<totfact> 0.12287366E+03</totfact>
</mgrwt>
</event>
<event>
 5    0  0.1359949E+000  0.2718044E+03  0.7546771E-02  0.1100251E+00
         21   -1    0    0  502  501  0.00000000000E+00  0.00000000000E+00  0.31583669791E+03  0.31583669791E+03  0.00000000000E+00 0. -1.
         21   -1    0    0  503  502 -0.00000000000E+00 -0.00000000000E+00 -0.35324028254E+03  0.35324028254E+03  0.00000000000E+00 0. -1.
         25    1    1    2    0    0 -0.14232033222E+03  0.19465712888E+03 -0.13819089377E+03  0.30474283897E+03  0.12500000000E+03 0.  0.
         21    1    1    2  503  504  0.61738471609E+02 -0.24648708945E+03  0.67624293183E+02  0.26294594344E+03  0.00000000000E+00 0. -1.
         21    1    1    2  504  501  0.80581860613E+02  0.51829960576E+02  0.33163015960E+02  0.10138819803E+03  0.00000000000E+00 0. -1.
<mgrwt>
<rscale>  4 0.27180436E+03</rscale>
<asrwt>0</asrwt>
<pdfrwt beam="1">  1       21 0.48590261E-01 0.27180436E+03</pdfrwt>
<pdfrwt beam="2">  1       21 0.54344659E-01 0.27180436E+03</pdfrwt>
<totfact> 0.12365302E+04</totfact>
</mgrwt>
</event>
<event>
 5    0  0.1359949E+000  0.2323966E+03  0.7546771E-02  0.1124964E+00
         21   -1    0    0  502  501  0.00000000000E+00  0.00000000000E+00  0.52457413269E+03  0.52457413269E+03  0.00000000000E+00 0. -1.
         21   -1    0    0  503  502 -0.00000000000E+00 -0.00000000000E+00 -0.12864102962E+03  0.12864102962E+03  0.00000000000E+00 0. -1.
         25    1    1    2    0    0 -0.16888020703E+03  0.14223360813E+03  0.12506031857E+03  0.28287100751E+03  0.12500000000E+03 0.  0.
         21    1    1    2  503  504  0.12841605770E+03 -0.13606930246E+03  0.27112173389E+03  0.32941240647E+03  0.00000000000E+00 0. -1.
         21    1    1    2  504  501  0.40464149327E+02 -0.61643056735E+01 -0.24894938772E+00  0.40931748326E+02  0.00000000000E+00 0. -1.
<mgrwt>
<rscale>  4 0.23239660E+03</rscale>
<asrwt>0</asrwt>
<pdfrwt beam="1">  1       21 0.80703712E-01 0.23239660E+03</pdfrwt>
<pdfrwt beam="2">  1       21 0.19790928E-01 0.23239660E+03</pdfrwt>
<totfact> 0.31084395E+04</totfact>
</mgrwt>
</event>
<event>
 5    0  0.1359949E+000  0.2566200E+03  0.7546771E-02  0.1109191E+00
         21   -1    0    0  502  501  0.00000000000E+00  0.00000000000E+00  0.10303142797E+04  0.10303142797E+04  0.00000000000E+00 0. -1.
         21   -1    0    0  503  502 -0.00000000000E+00 -0.00000000000E+00 -0.76629737667E+02  0.76629737667E+02  0.00000000000E+00 0. -1.
         25    1    1    2    0    0  0.19193704271E+03 -0.10458430079E+03  0.40451212274E+03  0.47647955023E+03  0.12500000000E+03 0.  0.
         21    1    1    2  503  504 -0.21833572658E+02 -0.52854926841E+02  0.22371592371E+03  0.23090942534E+03  0.00000000000E+00 0.  1.
         21    1    1    2  504  501 -0.17010347006E+03  0.15743922763E+03  0.32545649560E+03  0.39955504182E+03  0.00000000000E+00 0. -1.
<mgrwt>
<rscale>  4 0.25661997E+03</rscale>
<asrwt>0</asrwt>
<pdfrwt beam="1">  1       21 0.15850988E+00 0.25661997E+03</pdfrwt>
<pdfrwt beam="2">  1       21 0.11789191E-01 0.25661997E+03</pdfrwt>
<totfact> 0.15004958E+04</totfact>
</mgrwt>
</event>
<event>
 5    0  0.1359949E+000  0.2635710E+03  0.7546771E-02  0.1105016E+00
         21   -1    0    0  502  501  0.00000000000E+00  0.00000000000E+00  0.71682251741E+03  0.71682251741E+03  0.00000000000E+00 0.  1.
         21   -1    0    0  503  502 -0.00000000000E+00 -0.00000000000E+00 -0.18616070849E+03  0.18616070849E+03  0.00000000000E+00 0.  1.
         25    1    1    2    0    0 -0.23423872332E+03  0.91241155496E+02  0.57226330471E+03  0.63741902848E+03  0.12500000000E+03 0.  0.
         21    1    1    2  503  504  0.21599207987E+03 -0.76728054493E+02 -0.58746765675E+02  0.23662408032E+03  0.00000000000E+00 0.  1.
         21    1    1    2  504  501  0.18246643457E+02 -0.14513101003E+02  0.17145269884E+02  0.28940117096E+02  0.00000000000E+00 0. -1.
<mgrwt>
<rscale>  4 0.26357100E+03</rscale>
<asrwt>0</asrwt>
<pdfrwt beam="1">  1       21 0.11028039E+00 0.26357100E+03</pdfrwt>
<pdfrwt beam="2">  1       21 0.28640109E-01 0.26357100E+03</pdfrwt>
<totfact> 0.72232100E+03</totfact>
</mgrwt>
</event>
<event>
 5    0  0.1359949E+000  0.2952223E+03  0.7546771E-02  0.1087654E+00
         21   -1    0    0  502  501  0.00000000000E+00  0.00000000000E+00  0.94602121873E+02  0.94602121873E+02  0.00000000000E+00 0.  1.
         21   -1    0    0  503  502 -0.00000000000E+00 -0.00000000000E+00 -0.10794891219E+04  0.10794891219E+04  0.00000000000E+00 0.  1.
         25    1    1    2    0    0  0.23093923090E+03 -0.11737931994E+03 -0.28071037426E+03  0.40191310919E+03  0.12500000000E+03 0.  0.
         21    1    1    2  503  504 -0.26188441081E+03  0.10927319632E+03 -0.61144275044E+03  0.67408182970E+03  0.00000000000E+00 0.  1.
         21    1    1    2  504  501  0.30945179914E+02  0.81061236266E+01 -0.92733875307E+02  0.98096304873E+02  0.00000000000E+00 0.  1.
<mgrwt>
<rscale>  4 0.29522229E+03</rscale>
<asrwt>0</asrwt>
<pdfrwt beam="1">  1       21 0.14554173E-01 0.29522229E+03</pdfrwt>
<pdfrwt beam="2">  1       21 0.16607525E+00 0.29522229E+03</pdfrwt>
<totfact> 0.88157618E+03</totfact>
</mgrwt>
</event>
<event>
 5    0  0.1359949E+000  0.2537838E+03  0.7546771E-02  0.1110937E+00
         21   -1    0    0  502  501  0.00000000000E+00  0.00000000000E+00  0.42637542248E+03  0.42637542248E+03  0.00000000000E+00 0. -1.
         21   -1    0    0  503  502 -0.00000000000E+00 -0.00000000000E+00 -0.14450459088E+03  0.14450459088E+03  0.00000000000E+00 0. -1.
         25    1    1    2    0    0  0.18813560033E+03 -0.11240167510E+03  0.15453769251E+03  0.29586490006E+03  0.12500000000E+03 0.  0.
         21    1    1    2  503  504 -0.81075224142E+01 -0.19140399771E+02  0.11542819159E+02  0.23776532490E+02  0.00000000000E+00 0. -1.
         21    1    1    2  504  501 -0.18002807792E+03  0.13154207487E+03  0.11579031992E+03  0.25123858081E+03  0.00000000000E+00 0. -1.
<mgrwt>
<rscale>  4 0.25378376E+03</rscale>
<asrwt>0</asrwt>
<pdfrwt beam="1">  1       21 0.65596218E-01 0.25378376E+03</pdfrwt>
<pdfrwt beam="2">  1       21 0.22231476E-01 0.25378376E+03</pdfrwt>
<totfact> 0.39288500E+04</totfact>
</mgrwt>
</event>
<event>
 5    0  0.1359949E+000  0.2413064E+03  0.7546771E-02  0.1118926E+00
         21   -1    0    0  502  501  0.00000000000E+00  0.00000000000E+00  0.49104683174E+03  0.49104683174E+03  0.00000000000E+00 0. -1.
         21   -1    0    0  503  502 -0.00000000000E+00 -0.00000000000E+00 -0.30894230533E+03  0.30894230533E+03  0.00000000000E+00 0. -1.
         25    1    1    2    0    0 -0.12064015508E+03 -0.16748051625E+03  0.41716738114E+03  0.48193090192E+03  0.12500000000E+03 0.  0.
         21    1    1    2  503  504  0.11246669098E+03  0.12048624662E+03 -0.19818428351E+03  0.25776482001E+03  0.00000000000E+00 0. -1.
         21    1    1    2  504  501  0.81734641006E+01  0.46994269630E+02 -0.36878571222E+02  0.60293415137E+02  0.00000000000E+00 0. -1.
<mgrwt>
<rscale>  4 0.24130638E+03</rscale>
<asrwt>0</asrwt>
<pdfrwt beam="1">  1       21 0.75545667E-01 0.24130638E+03</pdfrwt>
<pdfrwt beam="2">  1       21 0.47529585E-01 0.24130638E+03</pdfrwt>
<totfact> 0.64042162E+03</totfact>
</mgrwt>
</event>
<event>
 5    0  0.1359949E+000  0.2930029E+03  0.7546771E-02  0.1088792E+00
         21   -1    0    0  502  501  0.00000000000E+00  0.00000000000E+00  0.15304728164E+04  0.15304728164E+04  0.00000000000E+00 0. -1.
         21   -1    0    0  503  502 -0.00000000000E+00 -0.00000000000E+00 -0.85067739294E+02  0.85067739294E+02  0.00000000000E+00 0. -1.
         25    1    1    2    0    0 -0.81905317674E+01  0.26487473708E+03  0.11982918817E+04  0.12335939952E+04  0.12500000000E+03 0.  0.
         21    1    1    2  503  504  0.49214717649E+02 -0.15719896698E+03  0.91857287620E+02  0.18860372463E+03  0.00000000000E+00 0. -1.
         21    1    1    2  504  501 -0.41024185881E+02 -0.10767577010E+03  0.15525590779E+03  0.19334283591E+03  0.00000000000E+00 0. -1.
<mgrwt>
<rscale>  4 0.29300292E+03</rscale>
<asrwt>0</asrwt>
<pdfrwt beam="1">  1       21 0.23545734E+00 0.29300292E+03</pdfrwt>
<pdfrwt beam="2">  1       21 0.13087346E-01 0.29300292E+03</pdfrwt>
<totfact> 0.37421227E+03</totfact>
</mgrwt>
</event>
<event>
 5    0  0.1359949E+000  0.2591101E+03  0.7546771E-02  0.1107679E+00
         21   -1    0    0  502  501  0.00000000000E+00  0.00000000000E+00  0.44554906850E+02  0.44554906850E+02  0.00000000000E+00 0. -1.
         21   -1    0    0  503  502 -0.00000000000E+00 -0.00000000000E+00 -0.18551766398E+04  0.18551766398E+04  0.00000000000E+00 0. -1.
         25    1    1    2    0    0 -0.12118947101E+03  0.19315439853E+03 -0.12649214555E+04  0.12913739962E+04  0.12500000000E+03 0.  0.
         21    1    1    2  503  504  0.35925731984E+02  0.17336717458E+02 -0.11022397924E+03  0.11722007332E+03  0.00000000000E+00 0. -1.
         21    1    1    2  504  501  0.85263739029E+02 -0.21049111599E+03 -0.43547629822E+03  0.49113747710E+03  0.00000000000E+00 0. -1.
<mgrwt>
<rscale>  4 0.25911007E+03</rscale>
<asrwt>0</asrwt>
<pdfrwt beam="1">  1       21 0.68545989E-02 0.25911007E+03</pdfrwt>
<pdfrwt beam="2">  1       21 0.28541188E+00 0.25911007E+03</pdfrwt>
<totfact> 0.60975747E+03</totfact>
</mgrwt>
</event>
<event>
 5    0  0.1359949E+000  0.5110018E+03  0.7546771E-02  0.1010947E+00
         21   -1    0    0  502  501  0.00000000000E+00  0.00000000000E+00  0.47652980985E+03  0.47652980985E+03  0.00000000000E+00 0. -1.
         21   -1    0    0  503  502 -0.00000000000E+00 -0.00000000000E+00 -0.83657410476E+03  0.83657410476E+03  0.00000000000E+00 0. -1.
         25    1    1    2    0    0  0.85046425976E+02 -0.51347603539E+03  0.75020057824E+02  0.54050304584E+03  0.12500000000E+03 0.  0.
         21    1    1    2  503  504  0.11003811876E+03  0.63539840408E+02 -0.17034830121E+02  0.12820251299E+03  0.00000000000E+00 0. -1.
         21    1    1    2  504  501 -0.19508454474E+03  0.44993619498E+03 -0.41802952262E+03  0.64439835578E+03  0.00000000000E+00 0. -1.
<mgrwt>
<rscale>  4 0.51100182E+03</rscale>
<asrwt>0</asrwt>
<pdfrwt beam="1">  1       21 0.73312279E-01 0.51100182E+03</pdfrwt>
<pdfrwt beam="2">  1       21 0.12870371E+00 0.51100182E+03</pdfrwt>
<totfact> 0.60684674E+02</totfact>
</mgrwt>
</event>
<event>
 5    0  0.1359949E+000  0.2376101E+03  0.7546771E-02  0.1121395E+00
         21   -1    0    0  502  501  0.00000000000E+00  0.00000000000E+00  0.20948780034E+03  0.20948780034E+03  0.00000000000E+00 0. -1.
         21   -1    0    0  503  502 -0.00000000000E+00 -0.00000000000E+00 -0.29408687036E+03  0.29408687036E+03  0.00000000000E+00 0. -1.
         25    1    1    2    0    0 -0.62223017240E+02 -0.19225464620E+03 -0.15856332010E+03  0.28565867629E+03  0.12500000000E+03 0.  0.
         21    1    1    2  503  504  0.97632144674E+01  0.27765339489E+02  0.24563549965E+02  0.38335393836E+02  0.00000000000E+00 0.  1.
         21    1    1    2  504  501  0.52459802773E+02  0.16448930671E+03  0.49400700118E+02  0.17958060057E+03  0.00000000000E+00 0. -1.
<mgrwt>
<rscale>  4 0.23761009E+03</rscale>
<asrwt>0</asrwt>
<pdfrwt beam="1">  1       21 0.32228892E-01 0.23761009E+03</pdfrwt>
<pdfrwt beam="2">  1       21 0.45244134E-01 0.23761009E+03</pdfrwt>
<totfact> 0.42486734E+04</totfact>
</mgrwt>
</event>
<event>
 5    0  0.1359949E+000  0.2796125E+03  0.7546771E-02  0.1095901E+00
         21   -1    0    0  502  501  0.00000000000E+00  0.00000000000E+00  0.57427142106E+03  0.57427142106E+03  0.00000000000E+00 0. -1.
         21   -1    0    0  503  502 -0.00000000000E+00 -0.00000000000E+00 -0.20039541470E+03  0.20039541470E+03  0.00000000000E+00 0.  1.
         25    1    1    2    0    0 -0.19768272964E+03  0.15323080297E+03  0.43143417414E+03  0.51411923441E+03  0.12500000000E+03 0.  0.
         21    1    1    2  503  504  0.12252934207E+02 -0.25395692617E+02 -0.47132529188E+00  0.28201023877E+02  0.00000000000E+00 0.  1.
         21    1    1    2  504  501  0.18542979543E+03 -0.12783511036E+03 -0.57086842491E+02  0.23234657746E+03  0.00000000000E+00 0.  1.
<mgrwt>
<rscale>  4 0.27961248E+03</rscale>
<asrwt>0</asrwt>
<pdfrwt beam="1">  1       21 0.88349449E-01 0.27961248E+03</pdfrwt>
<pdfrwt beam="2">  1       21 0.30830064E-01 0.27961248E+03</pdfrwt>
<totfact> 0.10525217E+04</totfact>
</mgrwt>
</event>
<event>
 5    0  0.1359949E+000  0.2377681E+03  0.7546771E-02  0.1121289E+00
         21   -1    0    0  502  501  0.00000000000E+00  0.00000000000E+00  0.23972704112E+03  0.23972704112E+03  0.00000000000E+00 0. -1.
         21   -1    0    0  503  502 -0.00000000000E+00 -0.00000000000E+00 -0.32215256467E+03  0.32215256467E+03  0.00000000000E+00 0. -1.
         25    1    1    2    0    0  0.17086415536E+03 -0.10823164389E+03  0.12100954164E+03  0.26679010007E+03  0.12500000000E+03 0.  0.
         21    1    1    2  503  504 -0.13412293462E+03  0.11327370980E+03 -0.15579844549E+03  0.23471908857E+03  0.00000000000E+00 0. -1.
         21    1    1    2  504  501 -0.36741220746E+02 -0.50420659159E+01 -0.47636619691E+02  0.60370417144E+02  0.00000000000E+00 0. -1.
<mgrwt>
<rscale>  4 0.23776806E+03</rscale>
<asrwt>0</asrwt>
<pdfrwt beam="1">  1       21 0.36881083E-01 0.23776806E+03</pdfrwt>
<pdfrwt beam="2">  1       21 0.49561933E-01 0.23776806E+03</pdfrwt>
<totfact> 0.26871267E+04</totfact>
</mgrwt>
</event>
<event>
 5    0  0.1359949E+000  0.2426549E+03  0.7546771E-02  0.1118037E+00
         21   -1    0    0  502  501  0.00000000000E+00  0.00000000000E+00  0.23454556851E+03  0.23454556851E+03  0.00000000000E+00 0.  1.
         21   -1    0    0  503  502 -0.00000000000E+00 -0.00000000000E+00 -0.35820981813E+03  0.35820981813E+03  0.00000000000E+00 0.  1.
         25    1    1    2    0    0  0.40484486495E+02 -0.20400341099E+03  0.11535789990E+03  0.26867979160E+03  0.12500000000E+03 0.  0.
         21    1    1    2  503  504 -0.21498967614E+02  0.13091296206E+02 -0.42759087363E+02  0.49617811287E+02  0.00000000000E+00 0.  1.
         21    1    1    2  504  501 -0.18985518881E+02  0.19091211478E+03 -0.19626306215E+03  0.27445778375E+03  0.00000000000E+00 0.  1.
<mgrwt>
<rscale>  4 0.24265487E+03</rscale>
<asrwt>0</asrwt>
<pdfrwt beam="1">  1       21 0.36083933E-01 0.24265487E+03</pdfrwt>
<pdfrwt beam="2">  1       21 0.55109203E-01 0.24265487E+03</pdfrwt>
<totfact> 0.22389964E+04</totfact>
</mgrwt>
</event>
<event>
 5    0  0.1359949E+000  0.3256872E+03  0.7546771E-02  0.1073061E+00
         21   -1    0    0  502  501  0.00000000000E+00  0.00000000000E+00  0.72899264590E+03  0.72899264590E+03  0.00000000000E+00 0. -1.
         21   -1    0    0  503  502 -0.00000000000E+00 -0.00000000000E+00 -0.19264220840E+03  0.19264220840E+03  0.00000000000E+00 0. -1.
         25    1    1    2    0    0 -0.24068933786E+03 -0.18576206983E+03  0.50145889081E+03  0.59960397190E+03  0.12500000000E+03 0.  0.
         21    1    1    2  503  504 -0.22722965551E+01  0.22322016525E+02 -0.12057484755E+02  0.25471919676E+02  0.00000000000E+00 0.  1.
         21    1    1    2  504  501  0.24296163441E+03  0.16344005330E+03  0.46949031450E+02  0.29655896273E+03  0.00000000000E+00 0. -1.
<mgrwt>
<rscale>  4 0.32568723E+03</rscale>
<asrwt>0</asrwt>
<pdfrwt beam="1">  1       21 0.11215271E+00 0.32568723E+03</pdfrwt>
<pdfrwt beam="2">  1       21 0.29637263E-01 0.32568723E+03</pdfrwt>
<totfact> 0.62783917E+03</totfact>
</mgrwt>
</event>
<event>
 5    0  0.1359949E+000  0.2554892E+03  0.7546771E-02  0.1109884E+00
         21   -1    0    0  502  501  0.00000000000E+00  0.00000000000E+00  0.63397795831E+03  0.63397795831E+03  0.00000000000E+00 0.  1.
         21   -1    0    0  503  502 -0.00000000000E+00 -0.00000000000E+00 -0.11651566980E+03  0.11651566980E+03  0.00000000000E+00 0. -1.
         25    1    1    2    0    0 -0.19768884653E+03 -0.10280502490E+03  0.43930778355E+03  0.50819886056E+03  0.12500000000E+03 0.  0.
         21    1    1    2  503  504  0.13514202808E+02  0.25567712172E+02  0.16422141854E+02  0.33257004170E+02  0.00000000000E+00 0. -1.
         21    1    1    2  504  501  0.18417464372E+03  0.77237312724E+02  0.61732363101E+02  0.20903776339E+03  0.00000000000E+00 0. -1.
<mgrwt>
<rscale>  4 0.25548924E+03</rscale>
<asrwt>0</asrwt>
<pdfrwt beam="1">  1       21 0.97535069E-01 0.25548924E+03</pdfrwt>
<pdfrwt beam="2">  1       21 0.17925488E-01 0.25548924E+03</pdfrwt>
<totfact> 0.23818781E+04</totfact>
</mgrwt>
</event>
<event>
 5    0  0.1359949E+000  0.2560258E+03  0.7546771E-02  0.1109555E+00
         21   -1    0    0  502  501  0.00000000000E+00  0.00000000000E+00  0.10272424535E+04  0.10272424535E+04  0.00000000000E+00 0. -1.
         21   -1    0    0  503  502 -0.00000000000E+00 -0.00000000000E+00 -0.59148535818E+02  0.59148535818E+02  0.00000000000E+00 0.  1.
         25    1    1    2    0    0  0.48311980190E+02 -0.21815168767E+03  0.41866894898E+03  0.49074728232E+03  0.12500000000E+03 0.  0.
         21    1    1    2  503  504 -0.18796376484E+02  0.18312371267E+03  0.44860335481E+03  0.48490469976E+03  0.00000000000E+00 0.  1.
         21    1    1    2  504  501 -0.29515603706E+02  0.35027975005E+02  0.10082161393E+03  0.11073900727E+03  0.00000000000E+00 0.  1.
<mgrwt>
<rscale>  4 0.25602579E+03</rscale>
<asrwt>0</asrwt>
<pdfrwt beam="1">  1       21 0.15803729E+00 0.25602579E+03</pdfrwt>
<pdfrwt beam="2">  1       21 0.90997755E-02 0.25602579E+03</pdfrwt>
<totfact> 0.24007077E+04</totfact>
</mgrwt>
</event>
<event>
 5    0  0.1359949E+000  0.4392177E+03  0.7546771E-02  0.1030987E+00
         21   -1    0    0  502  501  0.00000000000E+00  0.00000000000E+00  0.17880651037E+03  0.17880651037E+03  0.00000000000E+00 0.  1.
         21   -1    0    0  503  502 -0.00000000000E+00 -0.00000000000E+00 -0.14985909949E+04  0.14985909949E+04  0.00000000000E+00 0.  1.
         25    1    1    2    0    0 -0.28669123705E+03 -0.30837534740E+03 -0.21045695819E+03  0.48703629386E+03  0.12500000000E+03 0.  0.
         21    1    1    2  503  504  0.26500720949E+03  0.29240688387E+03 -0.94887449967E+03  0.10276640613E+04  0.00000000000E+00 0.  1.
         21    1    1    2  504  501  0.21684027562E+02  0.15968463533E+02 -0.16045302670E+03  0.16269715011E+03  0.00000000000E+00 0.  1.
<mgrwt>
<rscale>  4 0.43921774E+03</rscale>
<asrwt>0</asrwt>
<pdfrwt beam="1">  1       21 0.27508694E-01 0.43921774E+03</pdfrwt>
<pdfrwt beam="2">  1       21 0.23055246E+00 0.43921774E+03</pdfrwt>
<totfact> 0.90759997E+02</totfact>
</mgrwt>
</event>
<event>
 5    0  0.1359949E+000  0.2554137E+03  0.7546771E-02  0.1109931E+00
         21   -1    0    0  502  501  0.00000000000E+00  0.00000000000E+00  0.60216201835E+03  0.60216201835E+03  0.00000000000E+00 0.  1.
         21   -1    0    0  503  502 -0.00000000000E+00 -0.00000000000E+00 -0.13341949850E+03  0.13341949850E+03  0.00000000000E+00 0. -1.
         25    1    1    2    0    0 -0.53660892331E+02  0.21617507583E+03  0.42999838293E+03  0.50013474594E+03  0.12500000000E+03 0.  0.
         21    1    1    2  503  504  0.44452188873E+02 -0.12819423112E+03  0.53337379188E+02  0.14578969102E+03  0.00000000000E+00 0. -1.
         21    1    1    2  504  501  0.92087034578E+01 -0.87980844706E+02 -0.14593242275E+02  0.89657079892E+02  0.00000000000E+00 0. -1.
<mgrwt>
<rscale>  4 0.25541369E+03</rscale>
<asrwt>0</asrwt>
<pdfrwt beam="1">  1       21 0.92640309E-01 0.25541369E+03</pdfrwt>
<pdfrwt beam="2">  1       21 0.20526077E-01 0.25541369E+03</pdfrwt>
<totfact> 0.20870950E+04</totfact>
</mgrwt>
</event>
<event>
 5    0  0.1359949E+000  0.2433410E+03  0.7546771E-02  0.1117587E+00
         21   -1    0    0  502  501  0.00000000000E+00  0.00000000000E+00  0.42729039081E+03  0.42729039081E+03  0.00000000000E+00 0.  1.
         21   -1    0    0  503  502 -0.00000000000E+00 -0.00000000000E+00 -0.20337986724E+03  0.20337986724E+03  0.00000000000E+00 0.  1.
         25    1    1    2    0    0  0.23261002547E+03  0.79483928666E+02  0.20885095113E+03  0.34593184105E+03  0.12500000000E+03 0.  0.
         21    1    1    2  503  504 -0.19850574102E+03 -0.13383294379E+02 -0.24556415181E+02  0.20046610514E+03  0.00000000000E+00 0.  1.
         21    1    1    2  504  501 -0.34104284452E+02 -0.66100634286E+02  0.39615987616E+02  0.84272311858E+02  0.00000000000E+00 0.  1.
<mgrwt>
<rscale>  4 0.24334102E+03</rscale>
<asrwt>0</asrwt>
<pdfrwt beam="1">  1       21 0.65736983E-01 0.24334102E+03</pdfrwt>
<pdfrwt beam="2">  1       21 0.31289210E-01 0.24334102E+03</pdfrwt>
<totfact> 0.20295064E+04</totfact>
</mgrwt>
</event>
<event>
 5    0  0.1359949E+000  0.2703066E+03  0.7546771E-02  0.1101104E+00
         21   -1    0    0  502  501  0.00000000000E+00  0.00000000000E+00  0.62662218182E+03  0.62662218182E+03  0.00000000000E+00 0.  1.
         21   -1    0    0  503  502 -0.00000000000E+00 -0.00000000000E+00 -0.15691023017E+03  0.15691023017E+03  0.00000000000E+00 0.  1.
         25    1    1    2    0    0  0.58019049600E+02 -0.23253912140E+03  0.44881268593E+03  0.52392602546E+03  0.12500000000E+03 0.  0.
         21    1    1    2  503  504 -0.25091819203E+02  0.19579239847E+03 -0.15930777288E+02  0.19803548256E+03  0.00000000000E+00 0.  1.
         21    1    1    2  504  501 -0.32927230396E+02  0.36746722933E+02  0.36830043010E+02  0.61570903973E+02  0.00000000000E+00 0.  1.
<mgrwt>
<rscale>  4 0.27030659E+03</rscale>
<asrwt>0</asrwt>
<pdfrwt beam="1">  1       21 0.96403412E-01 0.27030659E+03</pdfrwt>
<pdfrwt beam="2">  1       21 0.24140036E-01 0.27030659E+03</pdfrwt>
<totfact> 0.13858507E+04</totfact>
</mgrwt>
</event>
<event>
 5    0  0.1359949E+000  0.2461954E+03  0.7546771E-02  0.1115733E+00
         21   -1    0    0  502  501  0.00000000000E+00  0.00000000000E+00  0.20762990400E+04  0.20762990400E+04  0.00000000000E+00 0. -1.
         21   -1    0    0  503  502 -0.00000000000E+00 -0.00000000000E+00 -0.12737201258E+03  0.12737201258E+03  0.00000000000E+00 0. -1.
         25    1    1    2    0    0  0.22166062853E+03  0.22193536896E+01  0.18318626257E+04  0.18494550655E+04  0.12500000000E+03 0.  0.
         21    1    1    2  503  504 -0.94820053983E+02 -0.11961324002E+03  0.95489464526E+02  0.18004557106E+03  0.00000000000E+00 0. -1.
         21    1    1    2  504  501 -0.12684057455E+03  0.11739388633E+03  0.21574937165E+02  0.17417041601E+03  0.00000000000E+00 0. -1.
<mgrwt>
<rscale>  4 0.24619538E+03</rscale>
<asrwt>0</asrwt>
<pdfrwt beam="1">  1       21 0.31943060E+00 0.24619538E+03</pdfrwt>
<pdfrwt beam="2">  1       21 0.19595696E-01 0.24619538E+03</pdfrwt>
<totfact> 0.59010630E+02</totfact>
</mgrwt>
</event>
<event>
 5    0  0.1359949E+000  0.3271024E+03  0.7546771E-02  0.1072426E+00
         21   -1    0    0  502  501  0.00000000000E+00  0.00000000000E+00  0.87123173330E+03  0.87123173330E+03  0.00000000000E+00 0.  1.
         21   -1    0    0  503  502 -0.00000000000E+00 -0.00000000000E+00 -0.12867658276E+04  0.12867658276E+04  0.00000000000E+00 0. -1.
         25    1    1    2    0    0 -0.30209472331E+03  0.12284190880E+01  0.81359353113E+03  0.87682504798E+03  0.12500000000E+03 0.  0.
         21    1    1    2  503  504 -0.60809385472E+01 -0.46512628848E+02 -0.22519016798E+03  0.23002394269E+03  0.00000000000E+00 0. -1.
         21    1    1    2  504  501  0.30817566186E+03  0.45284209760E+02 -0.10039374574E+04  0.10511485702E+04  0.00000000000E+00 0. -1.
<mgrwt>
<rscale>  4 0.32710235E+03</rscale>
<asrwt>0</asrwt>
<pdfrwt beam="1">  1       21 0.13403565E+00 0.32710235E+03</pdfrwt>
<pdfrwt beam="2">  1       21 0.19796397E+00 0.32710235E+03</pdfrwt>
<totfact> 0.47286946E+01</totfact>
</mgrwt>
</event>
<event>
 5    0  0.1359949E+000  0.3226560E+03  0.7546771E-02  0.1074433E+00
         21   -1    0    0  502  501  0.00000000000E+00  0.00000000000E+00  0.16833877452E+04  0.16833877452E+04  0.00000000000E+00 0. -1.
         21   -1    0    0  503  502 -0.00000000000E+00 -0.00000000000E+00 -0.68025069731E+02  0.68025069731E+02  0.00000000000E+00 0.  1.
         25    1    1    2    0    0 -0.13064988043E+03 -0.26723119010E+03  0.11523993668E+04  0.11967168424E+04  0.12500000000E+03 0.  0.
         21    1    1    2  503  504  0.67850616350E+02  0.72639687476E+02  0.12517081336E+03  0.15983730119E+03  0.00000000000E+00 0.  1.
         21    1    1    2  504  501  0.62799264075E+02  0.19459150263E+03  0.33779249530E+03  0.39485867135E+03  0.00000000000E+00 0.  1.
<mgrwt>
<rscale>  4 0.32265601E+03</rscale>
<asrwt>0</asrwt>
<pdfrwt beam="1">  1       21 0.25898270E+00 0.32265601E+03</pdfrwt>
<pdfrwt beam="2">  1       21 0.10465397E-01 0.32265601E+03</pdfrwt>
<totfact> 0.39587614E+03</totfact>
</mgrwt>
</event>
<event>
 5    0  0.1359949E+000  0.2524238E+03  0.7546771E-02  0.1111783E+00
         21   -1    0    0  502  501  0.00000000000E+00  0.00000000000E+00  0.33740896436E+03  0.33740896436E+03  0.00000000000E+00 0.  1.
         21   -1    0    0  503  502 -0.00000000000E+00 -0.00000000000E+00 -0.51631269255E+03  0.51631269255E+03  0.00000000000E+00 0. -1.
         25    1    1    2    0    0  0.22230009433E+02 -0.21999347187E+03  0.25189483395E+03  0.35772518552E+03  0.12500000000E+03 0.  0.
         21    1    1    2  503  504 -0.31915830598E+02  0.11542390557E+02 -0.92331408383E+02  0.98371418595E+02  0.00000000000E+00 0. -1.
         21    1    1    2  504  501  0.96858211648E+01  0.20845108131E+03 -0.33846715377E+03  0.39762505280E+03  0.00000000000E+00 0. -1.
<mgrwt>
<rscale>  4 0.25242378E+03</rscale>
<asrwt>0</asrwt>
<pdfrwt beam="1">  1       21 0.51909071E-01 0.25242378E+03</pdfrwt>
<pdfrwt beam="2">  1       21 0.79432722E-01 0.25242378E+03</pdfrwt>
<totfact> 0.47205559E+03</totfact>
</mgrwt>
</event>
<event>
 5    0  0.1359949E+000  0.2424448E+03  0.7546771E-02  0.1118175E+00
         21   -1    0    0  502  501  0.00000000000E+00  0.00000000000E+00  0.37752776117E+03  0.37752776117E+03  0.00000000000E+00 0.  1.
         21   -1    0    0  503  502 -0.00000000000E+00 -0.00000000000E+00 -0.15459249373E+04  0.15459249373E+04  0.00000000000E+00 0. -1.
         25    1    1    2    0    0 -0.18636414709E+03  0.91776353911E+02  0.32888120452E+03  0.40858578186E+03  0.12500000000E+03 0.  0.
         21    1    1    2  503  504  0.55458245240E+02 -0.73904744757E+02 -0.45828168007E+03  0.46750361127E+03  0.00000000000E+00 0. -1.
         21    1    1    2  504  501  0.13090590185E+03 -0.17871609154E+02 -0.10389967006E+04  0.10473633053E+04  0.00000000000E+00 0. -1.
<mgrwt>
<rscale>  4 0.24244483E+03</rscale>
<asrwt>0</asrwt>
<pdfrwt beam="1">  1       21 0.58081195E-01 0.24244483E+03</pdfrwt>
<pdfrwt beam="2">  1       21 0.23783460E+00 0.24244483E+03</pdfrwt>
<totfact> 0.20470764E+02</totfact>
</mgrwt>
</event>
<event>
 5    0  0.1359949E+000  0.2384621E+03  0.7546771E-02  0.1120822E+00
         21   -1    0    0  502  501  0.00000000000E+00  0.00000000000E+00  0.12676913452E+03  0.12676913452E+03  0.00000000000E+00 0.  1.
         21   -1    0    0  503  502 -0.00000000000E+00 -0.00000000000E+00 -0.56088696838E+03  0.56088696838E+03  0.00000000000E+00 0.  1.
         25    1    1    2    0    0 -0.30221977103E+02 -0.20081285714E+03 -0.40592687860E+02  0.24189240956E+03  0.12500000000E+03 0.  0.
         21    1    1    2  503  504 -0.12159102302E+02  0.18233836577E+02 -0.43864343545E+02  0.49034653050E+02  0.00000000000E+00 0. -1.
         21    1    1    2  504  501  0.42381079405E+02  0.18257902057E+03 -0.34966080245E+03  0.39672904029E+03  0.00000000000E+00 0.  1.
<mgrwt>
<rscale>  4 0.23846210E+03</rscale>
<asrwt>0</asrwt>
<pdfrwt beam="1">  1       21 0.19502943E-01 0.23846210E+03</pdfrwt>
<pdfrwt beam="2">  1       21 0.86290305E-01 0.23846210E+03</pdfrwt>
<totfact> 0.27326333E+04</totfact>
</mgrwt>
</event>
<event>
 5    0  0.1359949E+000  0.2603143E+03  0.7546771E-02  0.1106955E+00
         21   -1    0    0  502  501  0.00000000000E+00  0.00000000000E+00  0.26889055199E+03  0.26889055199E+03  0.00000000000E+00 0. -1.
         21   -1    0    0  503  502 -0.00000000000E+00 -0.00000000000E+00 -0.12937991708E+04  0.12937991708E+04  0.00000000000E+00 0.  1.
         25    1    1    2    0    0  0.16103833767E+03  0.16188021846E+03  0.19144034741E+03  0.32312993972E+03  0.12500000000E+03 0.  0.
         21    1    1    2  503  504 -0.16983860502E+02 -0.59862753923E+02 -0.31228941322E+03  0.31842845105E+03  0.00000000000E+00 0. -1.
         21    1    1    2  504  501 -0.14405447717E+03 -0.10201746454E+03 -0.90405955303E+03  0.92113133206E+03  0.00000000000E+00 0.  1.
<mgrwt>
<rscale>  4 0.26031433E+03</rscale>
<asrwt>0</asrwt>
<pdfrwt beam="1">  1       21 0.41367776E-01 0.26031433E+03</pdfrwt>
<pdfrwt beam="2">  1       21 0.19904603E+00 0.26031433E+03</pdfrwt>
<totfact> 0.71555594E+02</totfact>
</mgrwt>
</event>
