<event>
 5    0  0.1911311E+001  0.4455789E+03  0.7546771E-02  0.1029049E+00
         21   -1    0    0  502  501  0.00000000000E+00  0.00000000000E+00  0.56772635530E+03  0.56772635530E+03  0.00000000000E+00 0. -1.
         21   -1    0    0  504  502 -0.00000000000E+00 -0.00000000000E+00 -0.12485178013E+04  0.12485178013E+04  0.00000000000E+00 0. -1.
         25    1    1    2    0    0 -0.44275507193E+03  0.32203647776E+03 -0.37522269381E+03  0.67539367533E+03  0.12500000000E+03 0.  0.
         21    1    1    2  503  501  0.38354670290E+03 -0.13786870353E+03  0.29938763907E+03  0.50571613693E+03  0.00000000000E+00 0. -1.
         21    1    1    2  504  503  0.59208369025E+02 -0.18416777423E+03 -0.60495639123E+03  0.63513434431E+03  0.00000000000E+00 0. -1.
<mgrwt>
<rscale>  4 0.44557895E+03</rscale>
<asrwt>0</asrwt>
<pdfrwt beam="1">  1       21 0.87342517E-01 0.44557895E+03</pdfrwt>
<pdfrwt beam="2">  1       21 0.19207966E+00 0.44557895E+03</pdfrwt>
<totfact> 0.13700139E+02</totfact>
</mgrwt>
</event>
<event>
 5    0  0.1911311E+001  0.2703975E+03  0.7546771E-02  0.1101052E+00
         21   -1    0    0  502  501  0.00000000000E+00  0.00000000000E+00  0.51249794660E+03  0.51249794660E+03  0.00000000000E+00 0.  1.
         21   -1    0    0  504  502 -0.00000000000E+00 -0.00000000000E+00 -0.32662834468E+03  0.32662834468E+03  0.00000000000E+00 0. -1.
         25    1    1    2    0    0 -0.15699891459E+03  0.31005677483E+03  0.88768119878E+02  0.37985344793E+03  0.12500000000E+03 0.  0.
         21    1    1    2  503  501  0.98379690462E+02 -0.10981963926E+03  0.18181929551E+03  0.23408795971E+03  0.00000000000E+00 0.  1.
         21    1    1    2  504  503  0.58619224131E+02 -0.20023713557E+03 -0.84717813463E+02  0.22518488363E+03  0.00000000000E+00 0. -1.
<mgrwt>
<rscale>  4 0.27039752E+03</rscale>
<asrwt>0</asrwt>
<pdfrwt beam="1">  1       21 0.78845838E-01 0.27039752E+03</pdfrwt>
<pdfrwt beam="2">  1       21 0.50250515E-01 0.27039752E+03</pdfrwt>
<totfact> 0.50863706E+03</totfact>
</mgrwt>
</event>
<event>
 5    0  0.3961961E+001  0.2521421E+03  0.7546771E-02  0.1111959E+00
         21   -1    0    0  504  501  0.00000000000E+00  0.00000000000E+00  0.10417396079E+04  0.10417396079E+04  0.00000000000E+00 0.  1.
         21   -1    0    0  503  502 -0.00000000000E+00 -0.00000000000E+00 -0.62171673419E+02  0.62171673419E+02  0.00000000000E+00 0.  1.
         25    1    1    2    0    0 -0.52805583210E+02  0.20402857001E+03  0.37698872616E+03  0.44962382794E+03  0.12500000000E+03 0.  0.
         21    1    1    2  503  501  0.43082320130E+02 -0.22638411386E+03  0.53916197385E+03  0.58634587690E+03  0.00000000000E+00 0.  1.
         21    1    1    2  504  502  0.97232630802E+01  0.22355543847E+02  0.63417234437E+02  0.67941576441E+02  0.00000000000E+00 0. -1.
<mgrwt>
<rscale>  4 0.25214206E+03</rscale>
<asrwt>0</asrwt>
<pdfrwt beam="1">  1       21 0.16026762E+00 0.25214206E+03</pdfrwt>
<pdfrwt beam="2">  1       21 0.95648736E-02 0.25214206E+03</pdfrwt>
<totfact> 0.21200799E+04</totfact>
</mgrwt>
</event>
<event>
 5    0  0.1911311E+001  0.2389271E+03  0.7546771E-02  0.1120510E+00
         21   -1    0    0  502  501  0.00000000000E+00  0.00000000000E+00  0.14100505770E+03  0.14100505770E+03  0.00000000000E+00 0. -1.
         21   -1    0    0  504  502 -0.00000000000E+00 -0.00000000000E+00 -0.15450810543E+04  0.15450810543E+04  0.00000000000E+00 0. -1.
         25    1    1    2    0    0  0.35738177033E+02 -0.19689826587E+03 -0.10196391079E+04  0.10465825599E+04  0.12500000000E+03 0.  0.
         21    1    1    2  503  501  0.99345108142E+01  0.20404378837E+03  0.43675780628E+02  0.20890221610E+03  0.00000000000E+00 0. -1.
         21    1    1    2  504  503 -0.45672687848E+02 -0.71455225008E+01 -0.42811266931E+03  0.43060133596E+03  0.00000000000E+00 0. -1.
<mgrwt>
<rscale>  4 0.23892713E+03</rscale>
<asrwt>0</asrwt>
<pdfrwt beam="1">  1       21 0.21693087E-01 0.23892713E+03</pdfrwt>
<pdfrwt beam="2">  1       21 0.23770477E+00 0.23892713E+03</pdfrwt>
<totfact> 0.14842185E+03</totfact>
</mgrwt>
</event>
<event>
 5    0  0.3985964E+001  0.2518786E+03  0.7546771E-02  0.1112123E+00
         21   -1    0    0  502  501  0.00000000000E+00  0.00000000000E+00  0.34002138591E+03  0.34002138591E+03  0.00000000000E+00 0. -1.
         21   -1    0    0  504  502 -0.00000000000E+00 -0.00000000000E+00 -0.21406315296E+03  0.21406315296E+03  0.00000000000E+00 0. -1.
         25    1    1    2    0    0  0.19962544611E+03  0.44395408356E+02 -0.45706198083E+02  0.24399862205E+03  0.12500000000E+03 0.  0.
         21    1    1    2  503  501 -0.22034137041E+03 -0.40124247999E+02  0.18001813335E+03  0.28734439811E+03  0.00000000000E+00 0. -1.
         21    1    1    2  504  503  0.20715924300E+02 -0.42711603567E+01 -0.83537023133E+01  0.22741518699E+02  0.00000000000E+00 0.  1.
<mgrwt>
<rscale>  4 0.25187856E+03</rscale>
<asrwt>0</asrwt>
<pdfrwt beam="1">  1       21 0.52310982E-01 0.25187856E+03</pdfrwt>
<pdfrwt beam="2">  1       21 0.32932793E-01 0.25187856E+03</pdfrwt>
<totfact> 0.29874868E+04</totfact>
</mgrwt>
</event>
