<event>
 5    0  0.2159162E+000  0.4083927E+03  0.7546771E-02  0.1040912E+00
         21   -1    0    0  502  501  0.00000000000E+00  0.00000000000E+00  0.31378636417E+03  0.31378636417E+03  0.00000000000E+00 0. -1.
         21   -1    0    0  503  502 -0.00000000000E+00 -0.00000000000E+00 -0.54782733201E+03  0.54782733201E+03  0.00000000000E+00 0. -1.
         25    1    1    2    0    0  0.30651614425E+02 -0.38758238250E+03 -0.17831022800E+02  0.40878181229E+03  0.12500000000E+03 0.  0.
         21    1    1    2  503  504 -0.48056981302E+02  0.30341876065E+03 -0.19645432691E+03  0.36464602058E+03  0.00000000000E+00 0. -1.
         21    1    1    2  504  501  0.17405366877E+02  0.84163621845E+02 -0.19755618135E+02  0.88185863301E+02  0.00000000000E+00 0.  1.
<mgrwt>
<rscale>  4 0.40839273E+03</rscale>
<asrwt>0</asrwt>
<pdfrwt beam="1">  1       21 0.48274825E-01 0.40839273E+03</pdfrwt>
<pdfrwt beam="2">  1       21 0.84281129E-01 0.40839273E+03</pdfrwt>
<totfact> 0.44578106E+03</totfact>
</mgrwt>
</event>
<event>
 5    0  0.3896734E+000  0.2959805E+03  0.7546771E-02  0.1087267E+00
         21   -1    0    0  502  501  0.00000000000E+00  0.00000000000E+00  0.87153674262E+02  0.87153674262E+02  0.00000000000E+00 0. -1.
         21   -1    0    0  503  502 -0.00000000000E+00 -0.00000000000E+00 -0.11040238333E+04  0.11040238333E+04  0.00000000000E+00 0. -1.
         25    1    1    2    0    0  0.20642618957E+03  0.17137000058E+03 -0.29651932816E+03  0.41896081059E+03  0.12500000000E+03 0.  0.
         21    1    1    2  503  504 -0.35367333546E+02 -0.61835131750E+01 -0.15082888986E+03  0.15504334276E+03  0.00000000000E+00 0. -1.
         21    1    1    2  504  501 -0.17105885603E+03 -0.16518648740E+03 -0.56952194096E+03  0.61717335416E+03  0.00000000000E+00 0. -1.
<mgrwt>
<rscale>  4 0.29598049E+03</rscale>
<asrwt>0</asrwt>
<pdfrwt beam="1">  1       21 0.13408257E-01 0.29598049E+03</pdfrwt>
<pdfrwt beam="2">  1       21 0.16984983E+00 0.29598049E+03</pdfrwt>
<totfact> 0.96157983E+03</totfact>
</mgrwt>
</event>
<event>
 5    0  0.4045579E+000  0.3289768E+03  0.7546771E-02  0.1071591E+00
         21   -1    0    0  502  501  0.00000000000E+00  0.00000000000E+00  0.83572087362E+03  0.83572087362E+03  0.00000000000E+00 0. -1.
         21   -1    0    0  503  502 -0.00000000000E+00 -0.00000000000E+00 -0.14025036403E+03  0.14025036403E+03  0.00000000000E+00 0. -1.
         25    1    1    2    0    0 -0.14602387194E+02 -0.30395309273E+03  0.53158225647E+03  0.62514430949E+03  0.12500000000E+03 0.  0.
         21    1    1    2  503  504  0.30585072172E+02  0.27367688303E+03  0.13880063620E+03  0.30838304032E+03  0.00000000000E+00 0. -1.
         21    1    1    2  504  501 -0.15982684978E+02  0.30276209701E+02  0.25087616917E+02  0.42443887846E+02  0.00000000000E+00 0. -1.
<mgrwt>
<rscale>  4 0.32897677E+03</rscale>
<asrwt>0</asrwt>
<pdfrwt beam="1">  1       21 0.12857244E+00 0.32897677E+03</pdfrwt>
<pdfrwt beam="2">  1       21 0.21576980E-01 0.32897677E+03</pdfrwt>
<totfact> 0.82186660E+03</totfact>
</mgrwt>
</event>
<event>
 5    0  0.2159162E+000  0.2370617E+03  0.7546771E-02  0.1121766E+00
         21   -1    0    0  502  501  0.00000000000E+00  0.00000000000E+00  0.15449660382E+03  0.15449660382E+03  0.00000000000E+00 0. -1.
         21   -1    0    0  503  502 -0.00000000000E+00 -0.00000000000E+00 -0.59758043078E+03  0.59758043078E+03  0.00000000000E+00 0. -1.
         25    1    1    2    0    0 -0.15723786983E+03  0.12589487633E+03  0.27168928297E+02  0.23861353327E+03  0.12500000000E+03 0.  0.
         21    1    1    2  503  504  0.58846887326E+02 -0.38962479305E+02 -0.11746650451E+03  0.13703798971E+03  0.00000000000E+00 0. -1.
         21    1    1    2  504  501  0.98390982501E+02 -0.86932397021E+02 -0.35278625074E+03  0.37642551163E+03  0.00000000000E+00 0. -1.
<mgrwt>
<rscale>  4 0.23706174E+03</rscale>
<asrwt>0</asrwt>
<pdfrwt beam="1">  1       21 0.23768708E-01 0.23706174E+03</pdfrwt>
<pdfrwt beam="2">  1       21 0.91935451E-01 0.23706174E+03</pdfrwt>
<totfact> 0.16238276E+04</totfact>
</mgrwt>
</event>
<event>
 5    0  0.2159162E+000  0.2754531E+03  0.7546771E-02  0.1098199E+00
         21   -1    0    0  502  501  0.00000000000E+00  0.00000000000E+00  0.10060745181E+03  0.10060745181E+03  0.00000000000E+00 0. -1.
         21   -1    0    0  503  502 -0.00000000000E+00 -0.00000000000E+00 -0.16894782146E+04  0.16894782146E+04  0.00000000000E+00 0. -1.
         25    1    1    2    0    0  0.19263476369E+03 -0.15212247015E+03 -0.12111566838E+03  0.30090430910E+03  0.12500000000E+03 0.  0.
         21    1    1    2  503  504 -0.41307777829E+01  0.19982522056E+02 -0.16318317507E+03  0.16445398487E+03  0.00000000000E+00 0. -1.
         21    1    1    2  504  501 -0.18850398591E+03  0.13213994810E+03 -0.13045719194E+04  0.13247273725E+04  0.00000000000E+00 0. -1.
<mgrwt>
<rscale>  4 0.27545308E+03</rscale>
<asrwt>0</asrwt>
<pdfrwt beam="1">  1       21 0.15478071E-01 0.27545308E+03</pdfrwt>
<pdfrwt beam="2">  1       21 0.25991971E+00 0.27545308E+03</pdfrwt>
<totfact> 0.19866933E+03</totfact>
</mgrwt>
</event>
<event>
 5    0  0.2159162E+000  0.2235009E+03  0.7546771E-02  0.1131300E+00
         21   -1    0    0  502  501  0.00000000000E+00  0.00000000000E+00  0.87746484037E+03  0.87746484037E+03  0.00000000000E+00 0.  1.
         21   -1    0    0  503  502 -0.00000000000E+00 -0.00000000000E+00 -0.12821682800E+03  0.12821682800E+03  0.00000000000E+00 0.  1.
         25    1    1    2    0    0  0.93016840359E+01  0.20185232524E+03  0.72130398248E+03  0.75943091699E+03  0.12500000000E+03 0.  0.
         21    1    1    2  503  504  0.63526243526E+02 -0.81380195562E+02  0.20673355748E+02  0.10528868640E+03  0.00000000000E+00 0.  1.
         21    1    1    2  504  501 -0.72827927562E+02 -0.12047212968E+03  0.72706741424E+01  0.14096206498E+03  0.00000000000E+00 0.  1.
<mgrwt>
<rscale>  4 0.22350092E+03</rscale>
<asrwt>0</asrwt>
<pdfrwt beam="1">  1       21 0.13499459E+00 0.22350092E+03</pdfrwt>
<pdfrwt beam="2">  1       21 0.19725666E-01 0.22350092E+03</pdfrwt>
<totfact> 0.91016705E+03</totfact>
</mgrwt>
</event>
<event>
 5    0  0.2159162E+000  0.2740183E+03  0.7546771E-02  0.1099002E+00
         21   -1    0    0  502  501  0.00000000000E+00  0.00000000000E+00  0.12886061673E+04  0.12886061673E+04  0.00000000000E+00 0. -1.
         21   -1    0    0  503  502 -0.00000000000E+00 -0.00000000000E+00 -0.35575396925E+03  0.35575396925E+03  0.00000000000E+00 0.  1.
         25    1    1    2    0    0  0.24227256365E+03  0.63388808740E+02  0.10825734156E+04  0.11181700838E+04  0.12500000000E+03 0.  0.
         21    1    1    2  503  504 -0.10894564287E+02 -0.18529042555E+03 -0.18527833653E+03  0.26225807007E+03  0.00000000000E+00 0.  1.
         21    1    1    2  504  501 -0.23137799936E+03  0.12190161681E+03  0.35557119000E+02  0.26393198268E+03  0.00000000000E+00 0.  1.
<mgrwt>
<rscale>  4 0.27401830E+03</rscale>
<asrwt>0</asrwt>
<pdfrwt beam="1">  1       21 0.19824710E+00 0.27401830E+03</pdfrwt>
<pdfrwt beam="2">  1       21 0.54731380E-01 0.27401830E+03</pdfrwt>
<totfact> 0.39891820E+02</totfact>
</mgrwt>
</event>
<event>
 5    0  0.2159162E+000  0.3287011E+03  0.7546771E-02  0.1071713E+00
         21   -1    0    0  502  501  0.00000000000E+00  0.00000000000E+00  0.23258854695E+03  0.23258854695E+03  0.00000000000E+00 0. -1.
         21   -1    0    0  503  502 -0.00000000000E+00 -0.00000000000E+00 -0.10045523968E+04  0.10045523968E+04  0.00000000000E+00 0.  1.
         25    1    1    2    0    0 -0.29195158945E+03 -0.84756711931E+02  0.73242652203E+02  0.33676240423E+03  0.12500000000E+03 0.  0.
         21    1    1    2  503  504  0.62328730420E+02  0.43042589363E+02 -0.17460989840E+03  0.19033168878E+03  0.00000000000E+00 0. -1.
         21    1    1    2  504  501  0.22962285903E+03  0.41714122567E+02 -0.67059660371E+03  0.71004685079E+03  0.00000000000E+00 0.  1.
<mgrwt>
<rscale>  4 0.32870113E+03</rscale>
<asrwt>0</asrwt>
<pdfrwt beam="1">  1       21 0.35782854E-01 0.32870113E+03</pdfrwt>
<pdfrwt beam="2">  1       21 0.15454652E+00 0.32870113E+03</pdfrwt>
<totfact> 0.18806600E+03</totfact>
</mgrwt>
</event>
<event>
 5    0  0.2831816E+000  0.2376036E+03  0.7546771E-02  0.1121400E+00
         21   -1    0    0  502  501  0.00000000000E+00  0.00000000000E+00  0.11205042913E+04  0.11205042913E+04  0.00000000000E+00 0. -1.
         21   -1    0    0  503  502 -0.00000000000E+00 -0.00000000000E+00 -0.45304564568E+02  0.45304564568E+02  0.00000000000E+00 0. -1.
         25    1    1    2    0    0  0.17917615833E+03  0.93415192904E+02  0.53881579713E+03  0.58887855897E+03  0.12500000000E+03 0.  0.
         21    1    1    2  503  504 -0.96752092277E+01 -0.23275637446E+02  0.10837230627E+03  0.11126509667E+03  0.00000000000E+00 0. -1.
         21    1    1    2  504  501 -0.16950094910E+03 -0.70139555458E+02  0.42801162330E+03  0.46566520019E+03  0.00000000000E+00 0. -1.
<mgrwt>
<rscale>  4 0.23760365E+03</rscale>
<asrwt>0</asrwt>
<pdfrwt beam="1">  1       21 0.17238526E+00 0.23760365E+03</pdfrwt>
<pdfrwt beam="2">  1       21 0.69699338E-02 0.23760365E+03</pdfrwt>
<totfact> 0.30436296E+04</totfact>
</mgrwt>
</event>
<event>
 5    0  0.2159162E+000  0.2364540E+03  0.7546771E-02  0.1122178E+00
         21   -1    0    0  502  501  0.00000000000E+00  0.00000000000E+00  0.19055394878E+04  0.19055394878E+04  0.00000000000E+00 0. -1.
         21   -1    0    0  503  502 -0.00000000000E+00 -0.00000000000E+00 -0.26119623631E+02  0.26119623631E+02  0.00000000000E+00 0. -1.
         25    1    1    2    0    0 -0.16712876215E+03  0.11114626298E+03  0.10921604609E+04  0.11174636403E+04  0.12500000000E+03 0.  0.
         21    1    1    2  503  504  0.71736635245E+02 -0.79386573206E+02  0.42167351593E+03  0.43503669601E+03  0.00000000000E+00 0. -1.
         21    1    1    2  504  501  0.95392126905E+02 -0.31759689777E+02  0.36558588734E+03  0.37915877517E+03  0.00000000000E+00 0. -1.
<mgrwt>
<rscale>  4 0.23645404E+03</rscale>
<asrwt>0</asrwt>
<pdfrwt beam="1">  1       21 0.29315981E+00 0.23645404E+03</pdfrwt>
<pdfrwt beam="2">  1       21 0.40184051E-02 0.23645404E+03</pdfrwt>
<totfact> 0.13946917E+04</totfact>
</mgrwt>
</event>
<event>
 5    0  0.2169582E+000  0.3099934E+03  0.7546771E-02  0.1080349E+00
         21   -1    0    0  502  501  0.00000000000E+00  0.00000000000E+00  0.97169929245E+02  0.97169929245E+02  0.00000000000E+00 0. -1.
         21   -1    0    0  503  502 -0.00000000000E+00 -0.00000000000E+00 -0.10028894718E+04  0.10028894718E+04  0.00000000000E+00 0. -1.
         25    1    1    2    0    0  0.17929655829E+03 -0.21982644168E+03 -0.62941056462E+03  0.70160785282E+03  0.12500000000E+03 0.  0.
         21    1    1    2  503  504 -0.14658083471E+03  0.20166659275E+03 -0.23330622357E+03  0.34144860476E+03  0.00000000000E+00 0. -1.
         21    1    1    2  504  501 -0.32715723575E+02  0.18159848935E+02 -0.43002754403E+02  0.57002943508E+02  0.00000000000E+00 0. -1.
<mgrwt>
<rscale>  4 0.30999342E+03</rscale>
<asrwt>0</asrwt>
<pdfrwt beam="1">  1       21 0.14949221E-01 0.30999342E+03</pdfrwt>
<pdfrwt beam="2">  1       21 0.15429068E+00 0.30999342E+03</pdfrwt>
<totfact> 0.10196061E+04</totfact>
</mgrwt>
</event>
