<event>
 5    0  0.2107747E+000  0.2732422E+03  0.7546771E-02  0.1099438E+00
         21   -1    0    0  502  501  0.00000000000E+00  0.00000000000E+00  0.70977222611E+03  0.70977222611E+03  0.00000000000E+00 0. -1.
         21   -1    0    0  503  502 -0.00000000000E+00 -0.00000000000E+00 -0.10249462602E+03  0.10249462602E+03  0.00000000000E+00 0. -1.
         25    1    1    2    0    0  0.28223035429E+02  0.24132914561E+03  0.34928996540E+03  0.44346902505E+03  0.12500000000E+03 0.  0.
         21    1    1    2  503  504 -0.55192170456E+02 -0.17107166609E+03  0.13576265715E+03  0.22526249066E+03  0.00000000000E+00 0. -1.
         21    1    1    2  504  501  0.26969135026E+02 -0.70257479513E+02  0.12222497753E+03  0.14353533643E+03  0.00000000000E+00 0. -1.
<mgrwt>
<rscale>  4 0.27324219E+03</rscale>
<asrwt>0</asrwt>
<pdfrwt beam="1">  1       21 0.10919572E+00 0.27324219E+03</pdfrwt>
<pdfrwt beam="2">  1       21 0.15768404E-01 0.27324219E+03</pdfrwt>
<totfact> 0.22809994E+04</totfact>
</mgrwt>
</event>
<event>
 5    0  0.1856407E+000  0.2813173E+03  0.7546771E-02  0.1094972E+00
         21   -1    0    0  502  501  0.00000000000E+00  0.00000000000E+00  0.14801604302E+04  0.14801604302E+04  0.00000000000E+00 0. -1.
         21   -1    0    0  503  502 -0.00000000000E+00 -0.00000000000E+00 -0.62889557938E+03  0.62889557938E+03  0.00000000000E+00 0. -1.
         25    1    1    2    0    0 -0.84453392445E+02  0.24069850166E+03  0.14222360220E+04  0.14503270136E+04  0.12500000000E+03 0.  0.
         21    1    1    2  503  504 -0.29914132533E+02 -0.20016834683E+03 -0.30066481660E+03  0.36243834557E+03  0.00000000000E+00 0. -1.
         21    1    1    2  504  501  0.11436752498E+03 -0.40530154834E+02 -0.27030635454E+03  0.29629065042E+03  0.00000000000E+00 0. -1.
<mgrwt>
<rscale>  4 0.28131730E+03</rscale>
<asrwt>0</asrwt>
<pdfrwt beam="1">  1       21 0.22771699E+00 0.28131730E+03</pdfrwt>
<pdfrwt beam="2">  1       21 0.96753166E-01 0.28131730E+03</pdfrwt>
<totfact> 0.71613056E+01</totfact>
</mgrwt>
</event>
<event>
 5    0  0.1856407E+000  0.2473700E+03  0.7546771E-02  0.1114978E+00
         21   -1    0    0  502  501  0.00000000000E+00  0.00000000000E+00  0.35942911703E+03  0.35942911703E+03  0.00000000000E+00 0.  1.
         21   -1    0    0  503  502 -0.00000000000E+00 -0.00000000000E+00 -0.15855450199E+03  0.15855450199E+03  0.00000000000E+00 0.  1.
         25    1    1    2    0    0  0.66160257764E+02  0.20295252434E+03  0.11728033602E+03  0.27376373767E+03  0.12500000000E+03 0.  0.
         21    1    1    2  503  504 -0.55620066880E+02 -0.10110632342E+03  0.56422203017E+01  0.11553317759E+03  0.00000000000E+00 0.  1.
         21    1    1    2  504  501 -0.10540190884E+02 -0.10184620093E+03  0.77952058721E+02  0.12868670376E+03  0.00000000000E+00 0.  1.
<mgrwt>
<rscale>  4 0.24736998E+03</rscale>
<asrwt>0</asrwt>
<pdfrwt beam="1">  1       21 0.55296787E-01 0.24736998E+03</pdfrwt>
<pdfrwt beam="2">  1       21 0.24393000E-01 0.24736998E+03</pdfrwt>
<totfact> 0.47751709E+04</totfact>
</mgrwt>
</event>
<event>
 5    0  0.1856407E+000  0.2802302E+03  0.7546771E-02  0.1095563E+00
         21   -1    0    0  502  501  0.00000000000E+00  0.00000000000E+00  0.17139241346E+03  0.17139241346E+03  0.00000000000E+00 0. -1.
         21   -1    0    0  503  502 -0.00000000000E+00 -0.00000000000E+00 -0.42248636519E+03  0.42248636519E+03  0.00000000000E+00 0. -1.
         25    1    1    2    0    0 -0.14063083382E+03  0.20767025352E+03 -0.11730084072E+03  0.30379014607E+03  0.12500000000E+03 0.  0.
         21    1    1    2  503  504  0.49273047789E+02 -0.98787905759E+02 -0.30948672499E+02  0.11465035496E+03  0.00000000000E+00 0.  1.
         21    1    1    2  504  501  0.91357786027E+02 -0.10888234776E+03 -0.10284443851E+03  0.17543827762E+03  0.00000000000E+00 0. -1.
<mgrwt>
<rscale>  4 0.28023020E+03</rscale>
<asrwt>0</asrwt>
<pdfrwt beam="1">  1       21 0.26368063E-01 0.28023020E+03</pdfrwt>
<pdfrwt beam="2">  1       21 0.64997903E-01 0.28023020E+03</pdfrwt>
<totfact> 0.28589439E+04</totfact>
</mgrwt>
</event>
<event>
 5    0  0.3817978E+000  0.2440089E+03  0.7546771E-02  0.1117151E+00
         21   -1    0    0  502  501  0.00000000000E+00  0.00000000000E+00  0.28025387299E+03  0.28025387299E+03  0.00000000000E+00 0. -1.
         21   -1    0    0  503  502 -0.00000000000E+00 -0.00000000000E+00 -0.19074721613E+03  0.19074721613E+03  0.00000000000E+00 0. -1.
         25    1    1    2    0    0  0.12389177901E+03  0.16901533021E+03  0.69238666091E+02  0.25364216454E+03  0.12500000000E+03 0.  0.
         21    1    1    2  503  504 -0.12373704801E+03 -0.14546241726E+03  0.88314180894E+01  0.19117574592E+03  0.00000000000E+00 0. -1.
         21    1    1    2  504  501 -0.15473100128E+00 -0.23552912948E+02  0.11436572672E+02  0.26183178656E+02  0.00000000000E+00 0. -1.
<mgrwt>
<rscale>  4 0.24400892E+03</rscale>
<asrwt>0</asrwt>
<pdfrwt beam="1">  1       21 0.43115981E-01 0.24400892E+03</pdfrwt>
<pdfrwt beam="2">  1       21 0.29345725E-01 0.24400892E+03</pdfrwt>
<totfact> 0.56258805E+04</totfact>
</mgrwt>
</event>
<event>
 5    0  0.3047381E+000  0.2380591E+03  0.7546771E-02  0.1121093E+00
         21   -1    0    0  502  501  0.00000000000E+00  0.00000000000E+00  0.27641921104E+03  0.27641921104E+03  0.00000000000E+00 0.  1.
         21   -1    0    0  503  502 -0.00000000000E+00 -0.00000000000E+00 -0.25755652212E+03  0.25755652212E+03  0.00000000000E+00 0.  1.
         25    1    1    2    0    0  0.18263105667E+03  0.87709874705E+02  0.15685877490E+03  0.28509086314E+03  0.12500000000E+03 0.  0.
         21    1    1    2  503  504 -0.15578547774E+03 -0.70178383924E+02 -0.95793415167E+02  0.19588389171E+03  0.00000000000E+00 0.  1.
         21    1    1    2  504  501 -0.26845578938E+02 -0.17531490781E+02 -0.42202670814E+02  0.53000978306E+02  0.00000000000E+00 0.  1.
<mgrwt>
<rscale>  4 0.23805908E+03</rscale>
<asrwt>0</asrwt>
<pdfrwt beam="1">  1       21 0.42526032E-01 0.23805908E+03</pdfrwt>
<pdfrwt beam="2">  1       21 0.39624080E-01 0.23805908E+03</pdfrwt>
<totfact> 0.31918479E+04</totfact>
</mgrwt>
</event>
<event>
 5    0  0.1856407E+000  0.2470398E+03  0.7546771E-02  0.1115190E+00
         21   -1    0    0  502  501  0.00000000000E+00  0.00000000000E+00  0.10140729148E+04  0.10140729148E+04  0.00000000000E+00 0.  1.
         21   -1    0    0  503  502 -0.00000000000E+00 -0.00000000000E+00 -0.42397604259E+03  0.42397604259E+03  0.00000000000E+00 0. -1.
         25    1    1    2    0    0 -0.62751001086E+02  0.20363192089E+03  0.96645064756E+03  0.99752468717E+03  0.12500000000E+03 0.  0.
         21    1    1    2  503  504  0.14071659914E+02 -0.43751842093E+02 -0.27128424557E+02  0.53368405618E+02  0.00000000000E+00 0. -1.
         21    1    1    2  504  501  0.48679341171E+02 -0.15988007880E+03 -0.34922535080E+03  0.38715586460E+03  0.00000000000E+00 0. -1.
<mgrwt>
<rscale>  4 0.24703977E+03</rscale>
<asrwt>0</asrwt>
<pdfrwt beam="1">  1       21 0.15601122E+00 0.24703977E+03</pdfrwt>
<pdfrwt beam="2">  1       21 0.65227084E-01 0.24703977E+03</pdfrwt>
<totfact> 0.55133729E+02</totfact>
</mgrwt>
</event>
<event>
 5    0  0.1856407E+000  0.2832229E+03  0.7546771E-02  0.1093942E+00
         21   -1    0    0  502  501  0.00000000000E+00  0.00000000000E+00  0.88304373242E+03  0.88304373242E+03  0.00000000000E+00 0. -1.
         21   -1    0    0  503  502 -0.00000000000E+00 -0.00000000000E+00 -0.17191617515E+04  0.17191617515E+04  0.00000000000E+00 0. -1.
         25    1    1    2    0    0  0.15402246625E+03  0.20215656868E+03  0.84965236468E+03  0.89561394539E+03  0.12500000000E+03 0.  0.
         21    1    1    2  503  504 -0.57704242041E+02 -0.83819310050E+02 -0.44570042198E+03  0.45716990544E+03  0.00000000000E+00 0. -1.
         21    1    1    2  504  501 -0.96318224211E+02 -0.11833725863E+03 -0.12400699618E+04  0.12494216331E+04  0.00000000000E+00 0. -1.
<mgrwt>
<rscale>  4 0.28322288E+03</rscale>
<asrwt>0</asrwt>
<pdfrwt beam="1">  1       21 0.13585288E+00 0.28322288E+03</pdfrwt>
<pdfrwt beam="2">  1       21 0.26448642E+00 0.28322288E+03</pdfrwt>
<totfact> 0.18484764E+01</totfact>
</mgrwt>
</event>
<event>
 5    0  0.1856407E+000  0.2798459E+03  0.7546771E-02  0.1095773E+00
         21   -1    0    0  502  501  0.00000000000E+00  0.00000000000E+00  0.12656751366E+04  0.12656751366E+04  0.00000000000E+00 0.  1.
         21   -1    0    0  503  502 -0.00000000000E+00 -0.00000000000E+00 -0.10116760256E+03  0.10116760256E+03  0.00000000000E+00 0.  1.
         25    1    1    2    0    0  0.79040352812E+02  0.27270279508E+03  0.78755982755E+03  0.84645713051E+03  0.12500000000E+03 0.  0.
         21    1    1    2  503  504 -0.15127330618E+03 -0.15142936083E+03  0.19055574765E+03  0.28657626811E+03  0.00000000000E+00 0.  1.
         21    1    1    2  504  501  0.72232953367E+02 -0.12127343426E+03  0.18639195889E+03  0.23380934059E+03  0.00000000000E+00 0.  1.
<mgrwt>
<rscale>  4 0.27984587E+03</rscale>
<asrwt>0</asrwt>
<pdfrwt beam="1">  1       21 0.19471924E+00 0.27984587E+03</pdfrwt>
<pdfrwt beam="2">  1       21 0.15564247E-01 0.27984587E+03</pdfrwt>
<totfact> 0.49804501E+03</totfact>
</mgrwt>
</event>
<event>
 5    0  0.1856407E+000  0.2871096E+03  0.7546771E-02  0.1091868E+00
         21   -1    0    0  502  501  0.00000000000E+00  0.00000000000E+00  0.17053778269E+03  0.17053778269E+03  0.00000000000E+00 0. -1.
         21   -1    0    0  503  502 -0.00000000000E+00 -0.00000000000E+00 -0.80194060998E+03  0.80194060998E+03  0.00000000000E+00 0. -1.
         25    1    1    2    0    0 -0.59516779903E+02 -0.25152472637E+03 -0.32728034609E+01  0.28712827500E+03  0.12500000000E+03 0.  0.
         21    1    1    2  503  504  0.11324879690E+02  0.12838379290E+03 -0.20602126096E+03  0.24301319130E+03  0.00000000000E+00 0. -1.
         21    1    1    2  504  501  0.48191900213E+02  0.12314093347E+03 -0.42210876286E+03  0.44233692637E+03  0.00000000000E+00 0. -1.
<mgrwt>
<rscale>  4 0.28710962E+03</rscale>
<asrwt>0</asrwt>
<pdfrwt beam="1">  1       21 0.26236582E-01 0.28710962E+03</pdfrwt>
<pdfrwt beam="2">  1       21 0.12337548E+00 0.28710962E+03</pdfrwt>
<totfact> 0.64005573E+03</totfact>
</mgrwt>
</event>
<event>
 5    0  0.1856407E+000  0.2075582E+03  0.7546771E-02  0.1143514E+00
         21   -1    0    0  502  501  0.00000000000E+00  0.00000000000E+00  0.30819971515E+03  0.30819971515E+03  0.00000000000E+00 0.  1.
         21   -1    0    0  503  502 -0.00000000000E+00 -0.00000000000E+00 -0.34180782975E+03  0.34180782975E+03  0.00000000000E+00 0.  1.
         25    1    1    2    0    0  0.18976575068E+03  0.97333032751E+02  0.15367706312E+03  0.29107799492E+03  0.12500000000E+03 0.  0.
         21    1    1    2  503  504 -0.77422976915E+02 -0.34385930097E+02 -0.21155512672E+03  0.22788655332E+03  0.00000000000E+00 0.  1.
         21    1    1    2  504  501 -0.11234277377E+03 -0.62947102655E+02  0.24269949004E+02  0.13104299666E+03  0.00000000000E+00 0.  1.
<mgrwt>
<rscale>  4 0.20755824E+03</rscale>
<asrwt>0</asrwt>
<pdfrwt beam="1">  1       21 0.47415341E-01 0.20755824E+03</pdfrwt>
<pdfrwt beam="2">  1       21 0.52585820E-01 0.20755824E+03</pdfrwt>
<totfact> 0.14449873E+04</totfact>
</mgrwt>
</event>
<event>
 5    0  0.1856407E+000  0.2591040E+03  0.7546771E-02  0.1107683E+00
         21   -1    0    0  502  501  0.00000000000E+00  0.00000000000E+00  0.72087604800E+03  0.72087604800E+03  0.00000000000E+00 0.  1.
         21   -1    0    0  503  502 -0.00000000000E+00 -0.00000000000E+00 -0.36005626399E+03  0.36005626399E+03  0.00000000000E+00 0.  1.
         25    1    1    2    0    0  0.14295284669E+03  0.18248225889E+03  0.64431296738E+03  0.69605997667E+03  0.12500000000E+03 0.  0.
         21    1    1    2  503  504 -0.10380870749E+03 -0.13581231242E+03 -0.27439210799E+03  0.32328356110E+03  0.00000000000E+00 0.  1.
         21    1    1    2  504  501 -0.39144139202E+02 -0.46669946470E+02 -0.91010753742E+01  0.61588774223E+02  0.00000000000E+00 0.  1.
<mgrwt>
<rscale>  4 0.25910400E+03</rscale>
<asrwt>0</asrwt>
<pdfrwt beam="1">  1       21 0.11090401E+00 0.25910400E+03</pdfrwt>
<pdfrwt beam="2">  1       21 0.55393271E-01 0.25910400E+03</pdfrwt>
<totfact> 0.18637786E+03</totfact>
</mgrwt>
</event>
<event>
 5    0  0.1856407E+000  0.2294535E+03  0.7546771E-02  0.1127025E+00
         21   -1    0    0  502  501  0.00000000000E+00  0.00000000000E+00  0.85239362785E+03  0.85239362785E+03  0.00000000000E+00 0.  1.
         21   -1    0    0  503  502 -0.00000000000E+00 -0.00000000000E+00 -0.11567503078E+03  0.11567503078E+03  0.00000000000E+00 0.  1.
         25    1    1    2    0    0 -0.20316659921E+03  0.16438227866E+03  0.33151250637E+03  0.44025417937E+03  0.12500000000E+03 0.  0.
         21    1    1    2  503  504  0.30510677883E+02 -0.16141011232E+03  0.17469588311E+03  0.23979736737E+03  0.00000000000E+00 0.  1.
         21    1    1    2  504  501  0.17265592132E+03 -0.29721663396E+01  0.23051020759E+03  0.28801711189E+03  0.00000000000E+00 0.  1.
<mgrwt>
<rscale>  4 0.22945353E+03</rscale>
<asrwt>0</asrwt>
<pdfrwt beam="1">  1       21 0.13113748E+00 0.22945353E+03</pdfrwt>
<pdfrwt beam="2">  1       21 0.17796159E-01 0.22945353E+03</pdfrwt>
<totfact> 0.11826097E+04</totfact>
</mgrwt>
</event>
<event>
 5    0  0.2714387E+000  0.1913207E+03  0.7546771E-02  0.1157276E+00
         21   -1    0    0  502  501  0.00000000000E+00  0.00000000000E+00  0.54118178673E+03  0.54118178673E+03  0.00000000000E+00 0. -1.
         21   -1    0    0  503  502 -0.00000000000E+00 -0.00000000000E+00 -0.21942684361E+03  0.21942684361E+03  0.00000000000E+00 0. -1.
         25    1    1    2    0    0  0.15956586760E+03 -0.18937490380E+03  0.35332834022E+03  0.44921045880E+03  0.12500000000E+03 0.  0.
         21    1    1    2  503  504 -0.78634872983E+02  0.79461397085E+02  0.78041156377E+02  0.13633773859E+03  0.00000000000E+00 0. -1.
         21    1    1    2  504  501 -0.80930994617E+02  0.10991350672E+03 -0.10961455348E+03  0.17506043295E+03  0.00000000000E+00 0. -1.
<mgrwt>
<rscale>  4 0.19132070E+03</rscale>
<asrwt>0</asrwt>
<pdfrwt beam="1">  1       21 0.83258736E-01 0.19132070E+03</pdfrwt>
<pdfrwt beam="2">  1       21 0.33757976E-01 0.19132070E+03</pdfrwt>
<totfact> 0.10629253E+04</totfact>
</mgrwt>
</event>
<event>
 5    0  0.4091363E+000  0.2467578E+03  0.7546771E-02  0.1115371E+00
         21   -1    0    0  502  501  0.00000000000E+00  0.00000000000E+00  0.52075527346E+02  0.52075527346E+02  0.00000000000E+00 0.  1.
         21   -1    0    0  503  502 -0.00000000000E+00 -0.00000000000E+00 -0.10441105779E+04  0.10441105779E+04  0.00000000000E+00 0.  1.
         25    1    1    2    0    0 -0.54956278495E+02  0.20553400116E+03 -0.58057183700E+03  0.63083522103E+03  0.12500000000E+03 0.  0.
         21    1    1    2  503  504  0.55472415083E+02 -0.18440822337E+03 -0.33909325945E+03  0.38995874177E+03  0.00000000000E+00 0.  1.
         21    1    1    2  504  501 -0.51613658865E+00 -0.21125777796E+02 -0.72369954111E+02  0.75392142445E+02  0.00000000000E+00 0.  1.
<mgrwt>
<rscale>  4 0.24675781E+03</rscale>
<asrwt>0</asrwt>
<pdfrwt beam="1">  1       21 0.80116199E-02 0.24675781E+03</pdfrwt>
<pdfrwt beam="2">  1       21 0.16063239E+00 0.24675781E+03</pdfrwt>
<totfact> 0.28869174E+04</totfact>
</mgrwt>
</event>
<event>
 5    0  0.1856407E+000  0.2461936E+03  0.7546771E-02  0.1115734E+00
         21   -1    0    0  502  501  0.00000000000E+00  0.00000000000E+00  0.60677576784E+03  0.60677576784E+03  0.00000000000E+00 0. -1.
         21   -1    0    0  503  502 -0.00000000000E+00 -0.00000000000E+00 -0.11908807594E+03  0.11908807594E+03  0.00000000000E+00 0. -1.
         25    1    1    2    0    0  0.18987612998E+03 -0.94516273123E+02  0.43632602131E+03  0.50099068604E+03  0.12500000000E+03 0.  0.
         21    1    1    2  503  504 -0.42064210276E+02  0.47627606442E+02  0.94847498827E+01  0.64247545960E+02  0.00000000000E+00 0. -1.
         21    1    1    2  504  501 -0.14781191971E+03  0.46888666682E+02  0.41876920707E+02  0.16062561178E+03  0.00000000000E+00 0. -1.
<mgrwt>
<rscale>  4 0.24619356E+03</rscale>
<asrwt>0</asrwt>
<pdfrwt beam="1">  1       21 0.93350116E-01 0.24619356E+03</pdfrwt>
<pdfrwt beam="2">  1       21 0.18321243E-01 0.24619356E+03</pdfrwt>
<totfact> 0.25477213E+04</totfact>
</mgrwt>
</event>
